Protein in INSANE! Membrane UpperLeaflet>POPC=1.0 LowerLeaflet>POPC=1.0
241666
    1AU     AUC    1  42.051  14.146   7.512
    1AU     AUC    2  42.319  14.123   7.348
    1AU     AUC    3  42.321  14.126   7.676
    1AU     AUC    4  41.784  14.163   7.345
    1AU     AUC    5  41.783  14.168   7.681
    1AU     AUC    6  41.907  14.423   7.504
    1AU     AUC    7  42.238  14.399   7.507
    1AU     AUC    8  41.861  13.893   7.517
    1AU     AUC    9  42.192  13.864   7.512
    1AU     AUC   10  42.037  13.988   7.785
    1AU     AUC   11  42.069  14.315   7.777
    1AU     AUC   12  42.042  13.978   7.247
    1AU     AUC   13  42.063  14.306   7.237
    1AU     AUC   14  42.580  14.113   7.190
    1AU     AUC   15  42.597  14.097   7.505
    1AU     AUC   16  42.582  14.101   7.829
    1AU     AUC   17  41.529  14.168   7.177
    1AU     AUC   18  41.505  14.178   7.516
    1AU     AUC   19  41.526  14.191   7.846
    1AU     AUC   20  41.770  14.691   7.500
    1AU     AUC   21  42.099  14.689   7.496
    1AU     AUC   22  42.411  14.649   7.501
    1AU     AUC   23  41.679  13.651   7.520
    1AU     AUC   24  42.004  13.604   7.506
    1AU     AUC   25  42.324  13.585   7.516
    1AU     AUC   26  42.030  13.836   8.048
    1AU     AUC   27  42.056  14.156   8.065
    1AU     AUC   28  42.082  14.479   8.023
    1AU     AUC   29  42.049  13.818   6.994
    1AU     AUC   30  42.073  14.141   6.965
    1AU     AUC   31  42.073  14.456   6.965
    1AU     AUC   32  42.318  13.967   7.953
    1AU     AUC   33  42.353  14.297   7.955
    1AU     AUC   34  42.324  13.968   7.075
    1AU     AUC   35  42.342  14.298   7.074
    1AU     AUC   36  41.764  14.007   7.976
    1AU     AUC   37  41.790  14.337   7.954
    1AU     AUC   38  41.775  13.990   7.077
    1AU     AUC   39  41.787  14.317   7.050
    1AU     AUC   40  42.510  14.377   7.346
    1AU     AUC   41  42.525  14.381   7.677
    1AU     AUC   42  41.632  14.448   7.332
    1AU     AUC   43  41.634  14.460   7.680
    1AU     AUC   44  42.471  13.829   7.349
    1AU     AUC   45  42.454  13.827   7.682
    1AU     AUC   46  41.579  13.904   7.351
    1AU     AUC   47  41.585  13.906   7.698
    1AU     AUC   48  41.926  14.607   7.769
    1AU     AUC   49  42.266  14.580   7.773
    1AU     AUC   50  41.844  13.730   7.800
    1AU     AUC   51  42.169  13.695   7.780
    1AU     AUC   52  41.908  14.582   7.211
    1AU     AUC   53  42.240  14.578   7.227
    1AU     AUC   54  41.846  13.712   7.244
    1AU     AUC   55  42.187  13.685   7.237
    1AU    AUSL   56  42.559  14.074   8.130
    1AU    AUSL   57  42.288  13.713   8.079
    1AU     AUL   58  42.508  13.737   8.338
    1AU       S   59  42.635  13.249   8.202
    1AU     LIG   60  42.630  12.837   8.376
    1AU     LIG   61  42.809  12.555   8.705
    1AU     LIG   62  43.082  12.432   9.061
    1AU     LIG   63  43.239  12.265   9.472
    1AU     LIG   64  43.147  12.152   9.934
    1AU       S   65  42.900  14.047   8.487
    1AU     LIG   66  43.030  14.119   8.948
    1AU     LIG   67  43.008  13.940   9.389
    1AU     LIG   68  43.196  13.757   9.779
    1AU     LIG   69  43.583  13.844  10.049
    1AU     LIG   70  44.006  13.889  10.281
    1AU    AUSL   71  42.236  14.000   8.274
    1AU    AUSL   72  41.893  14.323   8.273
    1AU     AUL   73  42.119  14.192   8.562
    1AU       S   74  42.582  14.021   8.738
    1AU     LIG   75  42.667  13.706   9.077
    1AU     LIG   76  42.738  13.506   9.510
    1AU     LIG   77  42.847  13.379   9.959
    1AU     LIG   78  42.813  13.197  10.413
    1AU     LIG   79  42.895  13.217  10.898
    1AU       S   80  41.631  14.261   8.752
    1AU     LIG   81  41.316  14.199   9.121
    1AU     LIG   82  41.224  14.000   9.548
    1AU     LIG   83  41.152  14.019  10.022
    1AU     LIG   84  41.177  14.287  10.428
    1AU     LIG   85  41.076  14.597  10.796
    1AU    AUSL   86  42.222  14.372   8.239
    1AU    AUSL   87  42.664  14.378   7.976
    1AU     AUL   88  42.512  14.331   8.338
    1AU       S   89  42.250  14.713   8.584
    1AU     LIG   90  42.552  14.703   8.962
    1AU     LIG   91  42.772  14.740   9.398
    1AU     LIG   92  42.789  14.769   9.891
    1AU     LIG   93  42.882  14.788  10.370
    1AU     LIG   94  42.938  14.991  10.812
    1AU       S   95  42.961  14.560   8.271
    1AU     LIG   96  43.376  14.662   8.389
    1AU     LIG   97  43.569  14.686   8.790
    1AU     LIG   98  43.801  14.956   9.074
    1AU     LIG   99  44.038  15.258   9.333
    1AU     LIG  100  44.263  15.439   9.692
    1AU    AUSL  101  42.527  14.222   6.878
    1AU    AUSL  102  42.377  14.543   6.940
    1AU     AUL  103  42.327  14.584   6.623
    1AU       S  104  42.728  14.250   6.458
    1AU     LIG  105  43.043  14.065   6.159
    1AU     LIG  106  43.103  13.803   5.775
    1AU     LIG  107  43.235  13.678   5.332
    1AU     LIG  108  43.575  13.524   5.014
    1AU     LIG  109  43.881  13.590   4.644
    1AU       S  110  42.826  14.692   6.666
    1AU     LIG  111  43.051  14.854   6.297
    1AU     LIG  112  43.261  15.077   5.931
    1AU     LIG  113  43.483  15.414   5.684
    1AU     LIG  114  43.567  15.770   5.388
    1AU     LIG  115  43.591  16.053   5.010
    1AU    AUSL  116  42.332  13.951   6.798
    1AU    AUSL  117  42.572  13.831   7.043
    1AU     AUL  118  42.796  14.003   6.897
    1AU       S  119  42.765  13.556   6.645
    1AU     LIG  120  43.060  13.302   6.352
    1AU     LIG  121  43.250  12.895   6.186
    1AU     LIG  122  43.534  12.659   5.881
    1AU     LIG  123  43.875  12.658   5.545
    1AU     LIG  124  44.327  12.688   5.379
    1AU       S  125  42.612  13.962   6.402
    1AU     LIG  126  42.736  13.629   6.122
    1AU     LIG  127  42.693  13.509   5.678
    1AU     LIG  128  42.776  13.461   5.216
    1AU     LIG  129  42.820  13.336   4.763
    1AU     LIG  130  42.709  13.260   4.305
    1AU    AUSL  131  42.216  14.267   6.732
    1AU    AUSL  132  41.938  13.980   6.786
    1AU     AUL  133  42.121  13.921   6.510
    1AU       S  134  41.665  14.038   6.297
    1AU     LIG  135  41.466  13.810   5.930
    1AU     LIG  136  41.267  13.613   5.551
    1AU     LIG  137  41.202  13.501   5.099
    1AU     LIG  138  41.193  13.199   4.725
    1AU     LIG  139  41.113  13.042   4.286
    1AU       S  140  42.486  14.220   6.295
    1AU     LIG  141  42.622  14.045   5.856
    1AU     LIG  142  42.773  13.959   5.403
    1AU     LIG  143  42.847  14.115   4.949
    1AU     LIG  144  42.914  14.433   4.573
    1AU     LIG  145  43.063  14.566   4.124
    1AU    AUSL  146  41.579  14.230   8.163
    1AU    AUSL  147  41.810  14.598   8.055
    1AU     AUL  148  41.721  14.587   8.381
    1AU       S  149  41.371  14.263   8.599
    1AU     LIG  150  41.054  13.951   8.752
    1AU     LIG  151  40.917  13.809   9.174
    1AU     LIG  152  40.816  13.662   9.616
    1AU     LIG  153  40.636  13.588  10.049
    1AU     LIG  154  40.345  13.574  10.437
    1AU       S  155  41.358  14.923   8.225
    1AU     LIG  156  41.465  15.166   8.612
    1AU     LIG  157  41.286  15.179   9.042
    1AU     LIG  158  40.956  15.351   9.334
    1AU     LIG  159  40.856  15.651   9.701
    1AU     LIG  160  40.700  15.842  10.118
    1AU    AUSL  161  41.880  13.971   8.281
    1AU    AUSL  162  41.458  13.917   7.989
    1AU     AUL  163  41.536  13.909   8.295
    1AU       S  164  41.149  13.598   8.314
    1AU     LIG  165  40.720  13.457   8.241
    1AU     LIG  166  40.448  13.109   8.373
    1AU     LIG  167  40.127  12.834   8.560
    1AU     LIG  168  39.750  12.891   8.846
    1AU     LIG  169  39.554  12.765   9.262
    1AU       S  170  41.663  14.007   8.757
    1AU     LIG  171  41.421  13.703   9.020
    1AU     LIG  172  41.278  13.503   9.417
    1AU     LIG  173  41.236  13.530   9.880
    1AU     LIG  174  41.059  13.405  10.292
    1AU     LIG  175  41.124  13.214  10.722
    1AU    AUSL  176  41.617  14.097   6.847
    1AU    AUSL  177  41.729  13.731   6.956
    1AU     AUL  178  41.820  13.706   6.646
    1AU       S  179  41.451  14.031   6.426
    1AU     LIG  180  41.069  13.987   6.198
    1AU     LIG  181  40.898  13.913   5.788
    1AU     LIG  182  40.862  13.861   5.329
    1AU     LIG  183  40.548  13.820   4.978
    1AU     LIG  184  40.117  13.841   4.747
    1AU       S  185  41.321  13.589   6.640
    1AU     LIG  186  41.048  13.232   6.415
    1AU     LIG  187  40.732  12.882   6.371
    1AU     LIG  188  40.488  12.567   6.139
    1AU     LIG  189  40.438  12.315   5.741
    1AU     LIG  190  40.489  12.191   5.279
    1AU    AUSL  191  41.883  14.333   6.750
    1AU    AUSL  192  41.492  14.443   7.025
    1AU     AUL  193  41.553  14.436   6.697
    1AU       S  194  41.132  14.705   6.745
    1AU     LIG  195  40.764  14.914   6.509
    1AU     LIG  196  40.732  14.904   6.040
    1AU     LIG  197  40.637  15.196   5.675
    1AU     LIG  198  40.290  15.426   5.406
    1AU     LIG  199  39.848  15.626   5.286
    1AU       S  200  41.776  14.278   6.281
    1AU     LIG  201  41.392  14.326   5.968
    1AU     LIG  202  41.287  14.134   5.544
    1AU     LIG  203  41.281  14.042   5.075
    1AU     LIG  204  41.326  14.185   4.611
    1AU     LIG  205  41.255  14.319   4.146
    1AU    AUSL  206  42.719  14.529   7.476
    1AU    AUSL  207  42.680  14.430   7.117
    1AU     AUL  208  42.785  14.842   7.368
    1AU       S  209  42.959  14.550   6.862
    1AU     LIG  210  43.348  14.557   6.628
    1AU     LIG  211  43.565  14.792   6.272
    1AU     LIG  212  43.781  15.064   5.939
    1AU     LIG  213  44.124  15.317   5.739
    1AU     LIG  214  44.510  15.340   5.456
    1AU       S  215  43.227  14.598   7.312
    1AU     LIG  216  43.697  14.769   7.405
    1AU     LIG  217  44.169  14.883   7.492
    1AU     LIG  218  44.619  15.044   7.490
    1AU     LIG  219   0.009  15.303   7.471
    1AU     LIG  220   0.154  15.767   7.462
    1AU    AUSL  221  42.829  14.210   7.334
    1AU    AUSL  222  42.747  13.922   7.663
    1AU     AUL  223  43.075  13.984   7.554
    1AU       S  224  43.222  14.333   7.208
    1AU     LIG  225  43.652  14.386   7.072
    1AU     LIG  226  44.090  14.440   7.240
    1AU     LIG  227  44.543  14.594   7.240
    1AU     LIG  228  44.992  14.776   7.235
    1AU     LIG  229   0.455  14.843   7.139
    1AU       S  230  43.141  13.460   7.687
    1AU     LIG  231  43.546  13.274   7.846
    1AU     LIG  232  44.012  13.155   7.827
    1AU     LIG  233  44.482  13.113   7.744
    1AU     LIG  234  44.950  13.039   7.770
    1AU     LIG  235   0.389  12.947   7.868
    1AU    AUSL  236  42.831  14.260   7.688
    1AU    AUSL  237  42.578  14.679   7.770
    1AU     AUL  238  42.915  14.603   7.759
    1AU       S  239  42.917  14.865   8.185
    1AU     LIG  240  43.147  15.117   8.490
    1AU     LIG  241  43.553  15.190   8.672
    1AU     LIG  242  43.816  15.466   8.917
    1AU     LIG  243  44.048  15.861   8.987
    1AU     LIG  244  44.178  16.316   8.996
    1AU       S  245  43.320  14.421   7.519
    1AU     LIG  246  43.681  14.433   7.793
    1AU     LIG  247  44.136  14.445   7.764
    1AU     LIG  248  44.571  14.604   7.754
    1AU     LIG  249   0.007  14.786   7.744
    1AU     LIG  250   0.472  14.756   7.647
    1AU    AUSL  251  41.475  14.675   7.525
    1AU    AUSL  252  41.482  14.495   7.954
    1AU     AUL  253  41.180  14.687   7.739
    1AU       S  254  41.210  14.654   8.261
    1AU     LIG  255  41.022  14.929   8.612
    1AU     LIG  256  40.845  14.903   9.034
    1AU     LIG  257  40.521  14.942   9.356
    1AU     LIG  258  40.246  15.246   9.589
    1AU     LIG  259  39.931  15.538   9.790
    1AU       S  260  41.291  15.128   7.492
    1AU     LIG  261  40.809  15.192   7.340
    1AU     LIG  262  40.451  15.536   7.364
    1AU     LIG  263  40.025  15.762   7.482
    1AU     LIG  264  39.660  16.075   7.460
    1AU     LIG  265  39.218  16.158   7.679
    1AU    AUSL  266  41.353  14.353   7.319
    1AU    AUSL  267  41.606  14.746   7.210
    1AU     AUL  268  41.238  14.659   7.252
    1AU       S  269  40.968  14.284   6.967
    1AU     LIG  270  40.704  14.728   7.020
    1AU     LIG  271  40.380  15.078   6.961
    1AU     LIG  272  39.889  15.175   6.868
    1AU     LIG  273  39.436  15.050   6.695
    1AU     LIG  274  38.925  15.021   6.683
    1AU       S  275  41.325  15.095   6.992
    1AU     LIG  276  41.070  15.292   6.649
    1AU     LIG  277  40.929  15.349   6.208
    1AU     LIG  278  40.778  15.674   5.910
    1AU     LIG  279  40.555  16.094   5.997
    1AU     LIG  280  40.260  16.448   6.103
    1AU    AUSL  281  41.326  14.356   7.688
    1AU    AUSL  282  41.258  14.033   7.355
    1AU     AUL  283  41.046  14.392   7.472
    1AU       S  284  40.786  13.956   7.392
    1AU     LIG  285  40.359  13.799   7.274
    1AU     LIG  286  40.055  13.485   7.470
    1AU     LIG  287  39.661  13.590   7.281
    1AU     LIG  288  39.211  13.643   7.133
    1AU     LIG  289  38.962  13.501   6.751
    1AU       S  290  40.936  14.307   8.001
    1AU     LIG  291  40.555  14.611   7.898
    1AU     LIG  292  40.280  14.839   8.202
    1AU     LIG  293  39.815  14.925   8.222
    1AU     LIG  294  39.394  14.912   8.408
    1AU     LIG  295  38.964  14.679   8.473
    1AU    AUSL  296  42.645  13.614   7.557
    1AU    AUSL  297  42.601  13.784   7.944
    1AU     AUL  298  42.928  13.854   7.892
    1AU       S  299  42.939  13.318   7.599
    1AU     LIG  300  43.260  12.975   7.547
    1AU     LIG  301  43.722  12.844   7.535
    1AU     LIG  302  44.194  12.737   7.534
    1AU     LIG  303  44.665  12.620   7.551
    1AU     LIG  304  44.953  12.216   7.552
    1AU       S  305  42.845  13.387   8.097
    1AU     LIG  306  43.111  13.091   8.345
    1AU     LIG  307  43.254  12.817   8.699
    1AU     LIG  308  43.563  12.582   8.960
    1AU     LIG  309  43.915  12.399   9.198
    1AU     LIG  310  44.284  12.465   9.489
    1AU    AUSL  311  42.781  13.870   7.322
    1AU    AUSL  312  42.471  13.538   7.230
    1AU     AUL  313  42.797  13.574   7.178
    1AU       S  314  43.209  13.502   7.438
    1AU     LIG  315  43.631  13.311   7.339
    1AU     LIG  316  44.101  13.194   7.320
    1AU     LIG  317  44.555  13.030   7.246
    1AU     LIG  318   0.039  12.962   7.265
    1AU     LIG  319   0.473  13.036   7.052
    1AU       S  320  42.725  13.313   6.754
    1AU     LIG  321  42.881  12.897   6.613
    1AU     LIG  322  43.051  12.497   6.445
    1AU     LIG  323  43.390  12.277   6.218
    1AU     LIG  324  43.719  11.932   6.188
    1AU     LIG  325  44.072  11.602   6.151
    1AU    AUSL  326  41.388  13.734   7.528
    1AU    AUSL  327  41.434  13.910   7.077
    1AU     AUL  328  41.197  13.667   7.274
    1AU       S  329  41.152  13.780   6.770
    1AU     LIG  330  40.717  13.533   6.698
    1AU     LIG  331  40.403  13.202   6.587
    1AU     LIG  332  40.110  12.931   6.341
    1AU     LIG  333  39.659  12.791   6.102
    1AU     LIG  334  39.356  12.569   5.799
    1AU       S  335  40.789  13.734   7.545
    1AU     LIG  336  40.634  13.380   7.275
    1AU     LIG  337  40.246  13.315   7.057
    1AU     LIG  338  39.850  13.065   7.268
    1AU     LIG  339  39.564  12.726   7.086
    1AU     LIG  340  39.097  12.635   7.182
    1AU    AUSL  341  41.283  14.022   7.708
    1AU    AUSL  342  41.534  13.602   7.827
    1AU     AUL  343  41.206  13.695   7.820
    1AU       S  344  41.231  13.333   8.165
    1AU     LIG  345  40.879  12.967   8.125
    1AU     LIG  346  40.496  12.625   8.173
    1AU     LIG  347  40.169  12.328   8.397
    1AU     LIG  348  39.781  12.125   8.590
    1AU     LIG  349  39.644  11.647   8.864
    1AU       S  350  40.794  13.960   7.663
    1AU     LIG  351  40.347  13.776   7.775
    1AU     LIG  352  39.924  13.929   7.606
    1AU     LIG  353  39.557  13.666   7.793
    1AU     LIG  354  39.101  13.487   7.844
    1AU     LIG  355  38.727  13.415   8.141
    1AU    AUSL  356  42.110  14.793   7.953
    1AU    AUSL  357  41.664  14.785   7.804
    1AU     AUL  358  41.865  14.902   8.178
    1AU       S  359  41.437  15.112   7.970
    1AU     LIG  360  41.125  15.356   8.266
    1AU     LIG  361  40.998  15.441   8.710
    1AU     LIG  362  40.885  15.772   9.027
    1AU     LIG  363  40.625  16.169   9.079
    1AU     LIG  364  40.254  16.475   9.072
    1AU       S  365  42.130  15.315   8.028
    1AU     LIG  366  42.233  15.550   8.416
    1AU     LIG  367  42.186  15.977   8.604
    1AU     LIG  368  42.518  16.295   8.789
    1AU     LIG  369  42.381  16.567   9.150
    1AU     LIG  370  42.118  16.828   9.437
    1AU    AUSL  371  41.944  14.911   7.647
    1AU    AUSL  372  42.255  14.919   7.320
    1AU     AUL  373  41.855  15.152   7.391
    1AU       S  374  41.950  15.346   7.846
    1AU     LIG  375  41.938  15.790   8.078
    1AU     LIG  376  41.809  16.176   8.331
    1AU     LIG  377  41.881  16.619   8.292
    1AU     LIG  378  41.932  16.996   8.583
    1AU     LIG  379  41.868  17.464   8.645
    1AU       S  380  42.344  15.320   7.224
    1AU     LIG  381  42.597  15.664   7.073
    1AU     LIG  382  42.769  16.047   6.889
    1AU     LIG  383  42.849  16.493   6.784
    1AU     LIG  384  42.800  16.929   6.933
    1AU     LIG  385  42.520  17.278   6.786
    1AU    AUSL  386  42.306  14.882   7.660
    1AU    AUSL  387  42.392  14.603   8.062
    1AU     AUL  388  42.459  14.943   7.979
    1AU       S  389  42.728  14.786   8.396
    1AU     LIG  390  43.025  14.708   8.768
    1AU     LIG  391  43.254  15.004   9.053
    1AU     LIG  392  43.511  15.304   9.315
    1AU     LIG  393  43.725  15.423   9.721
    1AU     LIG  394  43.643  15.680  10.102
    1AU       S  395  42.274  15.351   7.722
    1AU     LIG  396  42.646  15.654   7.822
    1AU     LIG  397  42.935  15.949   8.110
    1AU     LIG  398  42.823  16.403   8.269
    1AU     LIG  399  42.803  16.902   8.325
    1AU     LIG  400  42.691  17.394   8.304
    1AU    AUSL  401  42.025  13.513   7.971
    1AU    AUSL  402  42.396  13.516   7.820
    1AU     AUL  403  42.193  13.475   8.261
    1AU       S  404  42.154  13.010   8.043
    1AU     LIG  405  42.092  12.608   8.227
    1AU     LIG  406  41.780  12.311   8.331
    1AU     LIG  407  41.736  11.862   8.360
    1AU     LIG  408  41.949  11.544   8.630
    1AU     LIG  409  41.762  11.158   8.822
    1AU       S  410  42.616  13.220   7.951
    1AU     LIG  411  42.901  12.870   7.933
    1AU     LIG  412  43.081  12.573   8.261
    1AU     LIG  413  43.294  12.307   8.601
    1AU     LIG  414  43.665  12.085   8.830
    1AU     LIG  415  44.048  11.777   8.858
    1AU    AUSL  416  41.814  13.469   7.693
    1AU    AUSL  417  41.750  13.694   8.101
    1AU     AUL  418  41.723  13.330   8.017
    1AU       S  419  41.967  12.902   7.818
    1AU     LIG  420  41.758  12.484   7.777
    1AU     LIG  421  41.534  12.098   7.944
    1AU     LIG  422  41.283  11.698   8.007
    1AU     LIG  423  41.182  11.311   8.221
    1AU     LIG  424  41.412  10.962   8.412
    1AU       S  425  41.407  13.431   8.414
    1AU     LIG  426  41.007  13.172   8.586
    1AU     LIG  427  40.758  12.759   8.603
    1AU     LIG  428  40.696  12.333   8.809
    1AU     LIG  429  40.688  12.133   9.250
    1AU     LIG  430  40.597  12.217   9.715
    1AU    AUSL  431  42.126  13.366   7.660
    1AU    AUSL  432  41.809  13.402   7.347
    1AU     AUL  433  41.653  13.236   7.630
    1AU       S  434  41.819  12.922   7.272
    1AU     LIG  435  41.552  12.501   7.260
    1AU     LIG  436  41.325  12.119   7.072
    1AU     LIG  437  41.044  11.788   6.867
    1AU     LIG  438  41.199  11.351   6.718
    1AU     LIG  439  41.266  10.918   6.639
    1AU       S  440  42.225  12.986   7.768
    1AU     LIG  441  42.274  12.505   7.763
    1AU     LIG  442  42.070  12.101   7.951
    1AU     LIG  443  42.178  11.694   8.173
    1AU     LIG  444  42.217  11.246   8.294
    1AU     LIG  445  42.451  10.847   8.386
    1AU    AUSL  446  42.111  14.769   6.997
    1AU    AUSL  447  42.504  14.689   7.239
    1AU     AUL  448  42.448  14.888   6.971
    1AU       S  449  42.193  15.288   6.834
    1AU     LIG  450  42.363  15.685   6.610
    1AU     LIG  451  42.444  15.992   6.248
    1AU     LIG  452  42.359  16.274   5.872
    1AU     LIG  453  42.052  16.616   5.823
    1AU     LIG  454  42.013  17.073   5.714
    1AU       S  455  42.959  14.830   6.895
    1AU     LIG  456  43.316  15.066   6.682
    1AU     LIG  457  43.519  15.308   6.320
    1AU     LIG  458  43.809  15.586   6.056
    1AU     LIG  459  44.100  15.956   5.924
    1AU     LIG  460  44.334  16.396   5.869
    1AU    AUSL  461  41.930  14.833   7.296
    1AU    AUSL  462  41.792  14.624   6.924
    1AU     AUL  463  41.818  14.977   6.997
    1AU       S  464  42.141  15.389   7.069
    1AU     LIG  465  42.132  15.872   7.041
    1AU     LIG  466  41.964  16.312   7.041
    1AU     LIG  467  41.927  16.673   6.762
    1AU     LIG  468  42.047  17.125   6.593
    1AU     LIG  469  41.705  17.451   6.404
    1AU       S  470  41.401  14.916   6.705
    1AU     LIG  471  41.215  14.900   6.262
    1AU     LIG  472  41.158  15.086   5.827
    1AU     LIG  473  41.077  15.429   5.524
    1AU     LIG  474  40.926  15.713   5.184
    1AU     LIG  475  40.719  16.064   4.946
    1AU    AUSL  476  41.990  13.499   7.050
    1AU    AUSL  477  41.546  13.602   7.232
    1AU     AUL  478  41.672  13.364   6.987
    1AU       S  479  41.193  13.444   6.836
    1AU     LIG  480  40.838  13.083   6.885
    1AU     LIG  481  40.521  12.730   6.814
    1AU     LIG  482  40.356  12.350   6.602
    1AU     LIG  483  40.098  12.011   6.410
    1AU     LIG  484  39.780  11.736   6.167
    1AU       S  485  41.952  12.943   7.038
    1AU     LIG  486  41.833  12.581   6.836
    1AU     LIG  487  41.708  12.187   6.697
    1AU     LIG  488  41.861  11.863   6.408
    1AU     LIG  489  41.863  11.531   6.110
    1AU     LIG  490  41.988  11.094   6.149
    1AU    AUSL  491  42.175  13.383   7.329
    1AU    AUSL  492  42.281  13.647   6.934
    1AU     AUL  493  42.303  13.298   7.014
    1AU       S  494  42.109  12.919   7.301
    1AU     LIG  495  42.049  12.446   7.299
    1AU     LIG  496  41.838  12.023   7.173
    1AU     LIG  497  41.979  11.631   6.944
    1AU     LIG  498  42.163  11.205   6.898
    1AU     LIG  499  42.302  10.922   6.554
    1AU       S  500  42.495  13.485   6.574
    1AU     LIG  501  42.570  13.157   6.272
    1AU     LIG  502  42.750  12.772   6.119
    1AU     LIG  503  43.038  12.497   5.892
    1AU     LIG  504  43.284  12.382   5.503
    1AU     LIG  505  43.451  12.129   5.132
    2AU     AUC  506  18.263  15.280   7.509
    2AU     AUC  507  18.535  15.262   7.348
    2AU     AUC  508  18.532  15.267   7.674
    2AU     AUC  509  17.996  15.293   7.339
    2AU     AUC  510  17.995  15.297   7.676
    2AU     AUC  511  18.113  15.554   7.501
    2AU     AUC  512  18.445  15.538   7.505
    2AU     AUC  513  18.079  15.023   7.511
    2AU     AUC  514  18.411  15.002   7.509
    2AU     AUC  515  18.252  15.120   7.780
    2AU     AUC  516  18.276  15.449   7.774
    2AU     AUC  517  18.259  15.112   7.243
    2AU     AUC  518  18.273  15.440   7.236
    2AU     AUC  519  18.802  15.254   7.192
    2AU     AUC  520  18.811  15.243   7.508
    2AU     AUC  521  18.792  15.251   7.829
    2AU     AUC  522  17.743  15.299   7.168
    2AU     AUC  523  17.718  15.304   7.508
    2AU     AUC  524  17.738  15.314   7.839
    2AU     AUC  525  17.970  15.818   7.498
    2AU     AUC  526  18.299  15.822   7.494
    2AU     AUC  527  18.614  15.793   7.499
    2AU     AUC  528  17.900  14.778   7.511
    2AU     AUC  529  18.226  14.738   7.501
    2AU     AUC  530  18.550  14.727   7.516
    2AU     AUC  531  18.248  14.966   8.043
    2AU     AUC  532  18.268  15.286   8.061
    2AU     AUC  533  18.283  15.614   8.020
    2AU     AUC  534  18.272  14.952   6.990
    2AU     AUC  535  18.289  15.274   6.967
    2AU     AUC  536  18.283  15.589   6.966
    2AU     AUC  537  18.531  15.106   7.949
    2AU     AUC  538  18.559  15.439   7.951
    2AU     AUC  539  18.547  15.102   7.077
    2AU     AUC  540  18.556  15.431   7.076
    2AU     AUC  541  17.980  15.133   7.969
    2AU     AUC  542  17.998  15.463   7.951
    2AU     AUC  543  17.992  15.124   7.068
    2AU     AUC  544  17.997  15.452   7.047
    2AU     AUC  545  18.724  15.519   7.351
    2AU     AUC  546  18.724  15.533   7.680
    2AU     AUC  547  17.838  15.577   7.328
    2AU     AUC  548  17.838  15.585   7.677
    2AU     AUC  549  18.695  14.973   7.349
    2AU     AUC  550  18.678  14.975   7.675
    2AU     AUC  551  17.797  15.031   7.342
    2AU     AUC  552  17.803  15.029   7.687
    2AU     AUC  553  18.124  15.737   7.768
    2AU     AUC  554  18.465  15.721   7.772
    2AU     AUC  555  18.063  14.858   7.794
    2AU     AUC  556  18.391  14.830   7.776
    2AU     AUC  557  18.113  15.713   7.209
    2AU     AUC  558  18.448  15.713   7.225
    2AU     AUC  559  18.068  14.843   7.236
    2AU     AUC  560  18.408  14.823   7.235
    2AU    AUSL  561  18.770  15.220   8.127
    2AU    AUSL  562  18.511  14.845   8.072
    2AU     AUL  563  18.776  14.862   8.293
    2AU       S  564  18.843  14.352   8.174
    2AU     LIG  565  18.795  13.940   8.386
    2AU     LIG  566  18.896  13.573   8.686
    2AU     LIG  567  19.180  13.440   9.042
    2AU     LIG  568  19.478  13.271   9.356
    2AU     LIG  569  19.573  13.161   9.804
    2AU       S  570  19.116  15.201   8.487
    2AU     LIG  571  19.243  15.200   8.941
    2AU     LIG  572  19.252  14.973   9.352
    2AU     LIG  573  19.368  14.772   9.754
    2AU     LIG  574  19.697  14.834  10.085
    2AU     LIG  575  19.991  15.152  10.286
    2AU    AUSL  576  18.451  15.124   8.273
    2AU    AUSL  577  18.109  15.451   8.274
    2AU     AUL  578  18.355  15.339   8.555
    2AU       S  579  18.789  15.110   8.724
    2AU     LIG  580  18.824  14.836   9.098
    2AU     LIG  581  18.899  14.626   9.518
    2AU     LIG  582  18.933  14.576   9.987
    2AU     LIG  583  18.947  14.620  10.461
    2AU     LIG  584  19.144  14.538  10.892
    2AU       S  585  17.877  15.364   8.757
    2AU     LIG  586  17.640  15.304   9.172
    2AU     LIG  587  17.559  15.133   9.615
    2AU     LIG  588  17.377  15.150  10.051
    2AU     LIG  589  17.281  15.328  10.466
    2AU     LIG  590  17.157  15.625  10.819
    2AU    AUSL  591  18.436  15.497   8.223
    2AU    AUSL  592  18.860  15.534   7.993
    2AU     AUL  593  18.713  15.470   8.361
    2AU       S  594  18.433  15.862   8.572
    2AU     LIG  595  18.697  15.904   8.955
    2AU     LIG  596  18.970  16.021   9.328
    2AU     LIG  597  18.973  16.068   9.818
    2AU     LIG  598  19.029  16.028  10.304
    2AU     LIG  599  19.182  16.010  10.763
    2AU       S  600  19.141  15.733   8.288
    2AU     LIG  601  19.507  15.643   8.519
    2AU     LIG  602  19.809  15.903   8.739
    2AU     LIG  603  20.012  16.155   9.059
    2AU     LIG  604  20.171  16.320   9.462
    2AU     LIG  605  20.545  16.286   9.749
    2AU    AUSL  606  18.741  15.361   6.878
    2AU    AUSL  607  18.586  15.672   6.941
    2AU     AUL  608  18.530  15.712   6.629
    2AU       S  609  18.896  15.372   6.433
    2AU     LIG  610  19.228  15.191   6.163
    2AU     LIG  611  19.287  14.964   5.772
    2AU     LIG  612  19.398  14.911   5.319
    2AU     LIG  613  19.771  14.897   5.026
    2AU     LIG  614  20.156  14.966   4.753
    2AU       S  615  19.034  15.801   6.661
    2AU     LIG  616  19.276  15.993   6.313
    2AU     LIG  617  19.504  16.237   5.965
    2AU     LIG  618  19.695  16.506   5.604
    2AU     LIG  619  19.628  16.794   5.212
    2AU     LIG  620  19.732  17.163   4.925
    2AU    AUSL  621  18.560  15.082   6.806
    2AU    AUSL  622  18.805  14.965   7.041
    2AU     AUL  623  19.015  15.156   6.885
    2AU       S  624  19.010  14.703   6.650
    2AU     LIG  625  19.244  14.380   6.348
    2AU     LIG  626  19.350  13.908   6.251
    2AU     LIG  627  19.619  13.628   5.972
    2AU     LIG  628  19.918  13.604   5.594
    2AU     LIG  629  20.321  13.713   5.335
    2AU       S  630  18.795  15.087   6.398
    2AU     LIG  631  18.932  14.744   6.111
    2AU     LIG  632  18.885  14.676   5.641
    2AU     LIG  633  18.941  14.704   5.163
    2AU     LIG  634  18.967  14.734   4.683
    2AU     LIG  635  19.084  14.525   4.264
    2AU    AUSL  636  18.423  15.382   6.736
    2AU    AUSL  637  18.156  15.123   6.781
    2AU     AUL  638  18.344  14.954   6.580
    2AU       S  639  18.066  15.240   6.266
    2AU     LIG  640  17.990  14.978   5.890
    2AU     LIG  641  17.701  14.755   5.599
    2AU     LIG  642  17.497  14.763   5.177
    2AU     LIG  643  17.283  14.775   4.747
    2AU     LIG  644  17.235  14.598   4.299
    2AU       S  645  18.603  15.321   6.298
    2AU     LIG  646  18.791  15.179   5.878
    2AU     LIG  647  18.943  15.153   5.429
    2AU     LIG  648  19.067  15.179   4.970
    2AU     LIG  649  19.101  15.465   4.583
    2AU     LIG  650  19.083  15.806   4.244
    2AU    AUSL  651  17.796  15.354   8.159
    2AU    AUSL  652  18.008  15.721   8.057
    2AU     AUL  653  17.920  15.705   8.385
    2AU       S  654  17.611  15.369   8.632
    2AU     LIG  655  17.407  14.995   8.824
    2AU     LIG  656  17.267  14.901   9.263
    2AU     LIG  657  17.043  14.999   9.683
    2AU     LIG  658  16.859  15.094  10.122
    2AU     LIG  659  16.646  15.061  10.548
    2AU       S  660  17.541  16.028   8.237
    2AU     LIG  661  17.590  16.155   8.683
    2AU     LIG  662  17.495  16.476   8.990
    2AU     LIG  663  17.263  16.556   9.380
    2AU     LIG  664  17.197  16.816   9.768
    2AU     LIG  665  17.106  17.182  10.050
    2AU    AUSL  666  18.092  15.098   8.273
    2AU    AUSL  667  17.680  15.038   7.976
    2AU     AUL  668  17.734  15.045   8.281
    2AU       S  669  17.397  14.686   8.311
    2AU     LIG  670  16.969  14.579   8.332
    2AU     LIG  671  16.737  14.218   8.473
    2AU     LIG  672  16.545  13.844   8.661
    2AU     LIG  673  16.376  13.524   8.944
    2AU     LIG  674  16.094  13.497   9.321
    2AU       S  675  17.917  15.100   8.736
    2AU     LIG  676  17.812  14.827   9.099
    2AU     LIG  677  17.653  14.636   9.486
    2AU     LIG  678  17.393  14.669   9.866
    2AU     LIG  679  17.158  14.692  10.281
    2AU     LIG  680  16.986  14.429  10.656
    2AU    AUSL  681  17.830  15.243   6.832
    2AU    AUSL  682  17.958  14.861   6.947
    2AU     AUL  683  17.973  14.876   6.621
    2AU       S  684  17.774  15.228   6.312
    2AU     LIG  685  17.489  15.089   5.956
    2AU     LIG  686  17.231  14.991   5.566
    2AU     LIG  687  17.011  14.958   5.152
    2AU     LIG  688  16.717  14.871   4.789
    2AU     LIG  689  16.442  15.043   4.440
    2AU       S  690  17.508  14.696   6.647
    2AU     LIG  691  17.172  14.373   6.452
    2AU     LIG  692  16.915  13.978   6.457
    2AU     LIG  693  16.716  13.666   6.158
    2AU     LIG  694  16.648  13.479   5.717
    2AU     LIG  695  16.908  13.235   5.371
    2AU    AUSL  696  18.099  15.480   6.754
    2AU    AUSL  697  17.698  15.577   7.019
    2AU     AUL  698  17.748  15.559   6.681
    2AU       S  699  17.341  15.844   6.744
    2AU     LIG  700  17.198  16.090   6.351
    2AU     LIG  701  17.126  16.176   5.872
    2AU     LIG  702  16.850  16.261   5.485
    2AU     LIG  703  16.388  16.312   5.344
    2AU     LIG  704  15.975  16.415   5.114
    2AU       S  705  18.080  15.489   6.299
    2AU     LIG  706  17.843  15.474   5.864
    2AU     LIG  707  17.664  15.256   5.478
    2AU     LIG  708  17.430  15.264   5.056
    2AU     LIG  709  17.401  15.476   4.620
    2AU     LIG  710  17.523  15.808   4.284
    2AU    AUSL  711  18.927  15.688   7.477
    2AU    AUSL  712  18.897  15.563   7.125
    2AU     AUL  713  18.992  15.991   7.352
    2AU       S  714  19.179  15.683   6.876
    2AU     LIG  715  19.575  15.709   6.664
    2AU     LIG  716  19.794  15.953   6.320
    2AU     LIG  717  20.015  16.197   5.980
    2AU     LIG  718  20.189  16.342   5.578
    2AU     LIG  719  20.107  16.604   5.217
    2AU       S  720  19.438  15.750   7.297
    2AU     LIG  721  19.935  15.909   7.354
    2AU     LIG  722  20.433  15.936   7.475
    2AU     LIG  723  20.902  16.081   7.506
    2AU     LIG  724  21.126  16.471   7.663
    2AU     LIG  725  21.266  16.921   7.757
    2AU    AUSL  726  19.053  15.358   7.364
    2AU    AUSL  727  18.994  15.083   7.661
    2AU     AUL  728  19.304  15.238   7.720
    2AU       S  729  19.429  15.432   7.233
    2AU     LIG  730  19.889  15.446   7.143
    2AU     LIG  731  20.360  15.490   7.242
    2AU     LIG  732  20.839  15.624   7.258
    2AU     LIG  733  21.277  15.826   7.180
    2AU     LIG  734  21.688  16.066   7.050
    2AU       S  735  19.445  14.749   7.593
    2AU     LIG  736  19.849  14.513   7.771
    2AU     LIG  737  20.296  14.300   7.773
    2AU     LIG  738  20.766  14.154   7.741
    2AU     LIG  739  21.236  14.266   7.774
    2AU     LIG  740  21.634  14.467   7.942
    2AU    AUSL  741  19.009  15.431   7.699
    2AU    AUSL  742  18.777  15.828   7.772
    2AU     AUL  743  19.123  15.753   7.772
    2AU       S  744  19.100  16.031   8.191
    2AU     LIG  745  19.467  16.173   8.454
    2AU     LIG  746  19.764  16.454   8.701
    2AU     LIG  747  19.919  16.895   8.846
    2AU     LIG  748  20.161  17.330   8.798
    2AU     LIG  749  20.593  17.476   8.928
    2AU       S  750  19.519  15.614   7.478
    2AU     LIG  751  19.926  15.501   7.664
    2AU     LIG  752  20.376  15.503   7.761
    2AU     LIG  753  20.823  15.617   7.766
    2AU     LIG  754  21.262  15.750   7.706
    2AU     LIG  755  21.693  15.844   7.907
    2AU    AUSL  756  17.675  15.799   7.524
    2AU    AUSL  757  17.683  15.612   7.950
    2AU     AUL  758  17.376  15.804   7.737
    2AU       S  759  17.409  15.742   8.257
    2AU     LIG  760  17.155  15.899   8.610
    2AU     LIG  761  17.114  16.129   9.023
    2AU     LIG  762  16.846  16.238   9.403
    2AU     LIG  763  16.461  16.235   9.686
    2AU     LIG  764  16.011  16.382   9.750
    2AU       S  765  17.517  16.253   7.503
    2AU     LIG  766  17.133  16.468   7.295
    2AU     LIG  767  16.708  16.716   7.360
    2AU     LIG  768  16.304  16.992   7.441
    2AU     LIG  769  15.904  17.130   7.670
    2AU     LIG  770  15.474  17.285   7.846
    2AU    AUSL  771  17.561  15.479   7.310
    2AU    AUSL  772  17.808  15.876   7.211
    2AU     AUL  773  17.437  15.786   7.249
    2AU       S  774  17.184  15.396   6.953
    2AU     LIG  775  16.819  15.734   6.848
    2AU     LIG  776  16.356  15.959   6.815
    2AU     LIG  777  15.869  16.133   6.792
    2AU     LIG  778  15.376  16.268   6.731
    2AU     LIG  779  14.927  16.203   6.524
    2AU       S  780  17.531  16.229   7.000
    2AU     LIG  781  17.281  16.482   6.706
    2AU     LIG  782  17.278  16.787   6.345
    2AU     LIG  783  17.170  17.247   6.280
    2AU     LIG  784  17.016  17.672   6.128
    2AU     LIG  785  16.658  17.960   6.007
    2AU    AUSL  786  17.532  15.476   7.680
    2AU    AUSL  787  17.477  15.156   7.343
    2AU     AUL  788  17.252  15.511   7.460
    2AU       S  789  17.004  15.064   7.384
    2AU     LIG  790  16.603  14.882   7.217
    2AU     LIG  791  16.197  14.687   7.336
    2AU     LIG  792  15.753  14.721   7.290
    2AU     LIG  793  15.315  14.719   7.219
    2AU     LIG  794  14.898  14.703   7.135
    2AU       S  795  17.153  15.397   7.993
    2AU     LIG  796  16.707  15.568   8.002
    2AU     LIG  797  16.347  15.880   8.110
    2AU     LIG  798  15.942  16.155   8.129
    2AU     LIG  799  15.479  16.299   8.055
    2AU     LIG  800  15.050  16.132   8.135
    2AU    AUSL  801  18.878  14.771   7.566
    2AU    AUSL  802  18.812  14.937   7.923
    2AU     AUL  803  19.131  14.959   7.932
    2AU       S  804  19.265  14.559   7.608
    2AU     LIG  805  19.479  14.171   7.657
    2AU     LIG  806  19.916  14.019   7.551
    2AU     LIG  807  20.377  13.868   7.484
    2AU     LIG  808  20.763  13.634   7.299
    2AU     LIG  809  21.152  13.309   7.287
    2AU       S  810  19.070  14.473   8.065
    2AU     LIG  811  19.282  14.125   8.323
    2AU     LIG  812  19.361  13.827   8.688
    2AU     LIG  813  19.666  13.592   8.981
    2AU     LIG  814  19.922  13.609   9.398
    2AU     LIG  815  20.238  13.676   9.769
    2AU    AUSL  816  19.003  15.024   7.316
    2AU    AUSL  817  18.691  14.687   7.241
    2AU     AUL  818  19.001  14.680   7.201
    2AU       S  819  19.443  14.859   7.355
    2AU     LIG  820  19.753  14.472   7.277
    2AU     LIG  821  20.226  14.321   7.261
    2AU     LIG  822  20.708  14.189   7.238
    2AU     LIG  823  21.195  14.238   7.246
    2AU     LIG  824  21.610  14.116   6.989
    2AU       S  825  18.962  14.462   6.754
    2AU     LIG  826  19.014  14.016   6.656
    2AU     LIG  827  19.054  13.569   6.579
    2AU     LIG  828  19.328  13.341   6.316
    2AU     LIG  829  19.556  13.102   5.998
    2AU     LIG  830  19.716  12.659   5.980
    2AU    AUSL  831  17.604  14.849   7.521
    2AU    AUSL  832  17.659  15.041   7.063
    2AU     AUL  833  17.421  14.799   7.260
    2AU       S  834  17.384  14.921   6.758
    2AU     LIG  835  16.941  14.766   6.728
    2AU     LIG  836  16.660  14.416   6.569
    2AU     LIG  837  16.429  14.089   6.301
    2AU     LIG  838  16.281  13.826   5.931
    2AU     LIG  839  15.935  13.706   5.657
    2AU       S  840  17.005  14.820   7.534
    2AU     LIG  841  16.745  14.424   7.392
    2AU     LIG  842  16.325  14.198   7.371
    2AU     LIG  843  15.900  14.291   7.580
    2AU     LIG  844  15.498  14.019   7.719
    2AU     LIG  845  15.112  13.693   7.796
    2AU    AUSL  846  17.503  15.140   7.694
    2AU    AUSL  847  17.755  14.723   7.817
    2AU     AUL  848  17.420  14.824   7.823
    2AU       S  849  17.471  14.454   8.159
    2AU     LIG  850  17.115  14.129   8.119
    2AU     LIG  851  16.811  13.768   8.207
    2AU     LIG  852  16.726  13.392   8.499
    2AU     LIG  853  16.449  13.055   8.687
    2AU     LIG  854  16.106  12.709   8.632
    2AU       S  855  17.012  15.072   7.632
    2AU     LIG  856  16.553  15.178   7.647
    2AU     LIG  857  16.079  15.100   7.617
    2AU     LIG  858  15.824  14.760   7.791
    2AU     LIG  859  15.448  14.524   7.667
    2AU     LIG  860  15.004  14.495   7.604
    2AU    AUSL  861  18.297  15.931   7.949
    2AU    AUSL  862  17.859  15.907   7.808
    2AU     AUL  863  18.052  16.022   8.186
    2AU       S  864  17.622  16.229   7.989
    2AU     LIG  865  17.451  16.529   8.356
    2AU     LIG  866  17.366  16.890   8.685
    2AU     LIG  867  17.154  17.263   8.903
    2AU     LIG  868  16.921  17.660   8.782
    2AU     LIG  869  16.553  17.842   8.983
    2AU       S  870  18.289  16.443   8.022
    2AU     LIG  871  18.453  16.735   8.346
    2AU     LIG  872  18.554  17.111   8.594
    2AU     LIG  873  18.527  17.437   8.933
    2AU     LIG  874  18.541  17.715   9.325
    2AU     LIG  875  18.567  18.088   9.628
    2AU    AUSL  876  18.129  16.040   7.641
    2AU    AUSL  877  18.461  16.053   7.313
    2AU     AUL  878  18.061  16.282   7.372
    2AU       S  879  18.101  16.459   7.841
    2AU     LIG  880  18.153  16.926   7.960
    2AU     LIG  881  18.307  17.314   8.177
    2AU     LIG  882  18.173  17.767   8.285
    2AU     LIG  883  17.976  18.216   8.321
    2AU     LIG  884  17.886  18.556   8.643
    2AU       S  885  18.552  16.452   7.216
    2AU     LIG  886  18.775  16.806   7.006
    2AU     LIG  887  18.821  17.220   6.789
    2AU     LIG  888  19.121  17.613   6.813
    2AU     LIG  889  19.144  18.084   6.829
    2AU     LIG  890  19.029  18.422   6.556
    2AU    AUSL  891  18.493  16.021   7.656
    2AU    AUSL  892  18.584  15.755   8.061
    2AU     AUL  893  18.646  16.095   7.969
    2AU       S  894  18.901  15.947   8.396
    2AU     LIG  895  19.173  15.925   8.785
    2AU     LIG  896  19.475  16.171   9.035
    2AU     LIG  897  19.714  16.541   9.216
    2AU     LIG  898  19.753  16.883   9.531
    2AU     LIG  899  19.568  17.189   9.847
    2AU       S  900  18.429  16.486   7.717
    2AU     LIG  901  18.661  16.849   7.893
    2AU     LIG  902  18.838  17.192   8.161
    2AU     LIG  903  19.166  17.542   8.234
    2AU     LIG  904  19.214  17.975   8.404
    2AU     LIG  905  19.159  18.419   8.560
    2AU    AUSL  906  18.247  14.645   7.968
    2AU    AUSL  907  18.626  14.655   7.811
    2AU     AUL  908  18.429  14.614   8.257
    2AU       S  909  18.391  14.145   8.041
    2AU     LIG  910  18.343  13.744   8.242
    2AU     LIG  911  18.092  13.400   8.340
    2AU     LIG  912  18.014  12.972   8.426
    2AU     LIG  913  18.154  12.678   8.745
    2AU     LIG  914  18.026  12.489   9.160
    2AU       S  915  18.870  14.353   7.899
    2AU     LIG  916  19.028  13.931   7.921
    2AU     LIG  917  19.161  13.603   8.238
    2AU     LIG  918  19.348  13.325   8.575
    2AU     LIG  919  19.569  13.048   8.885
    2AU     LIG  920  19.838  12.634   8.882
    2AU    AUSL  921  18.041  14.599   7.683
    2AU    AUSL  922  17.967  14.820   8.096
    2AU     AUL  923  17.954  14.453   8.002
    2AU       S  924  18.216  14.028   7.815
    2AU     LIG  925  18.055  13.584   7.821
    2AU     LIG  926  17.799  13.188   7.977
    2AU     LIG  927  17.459  12.850   8.122
    2AU     LIG  928  17.255  12.400   8.146
    2AU     LIG  929  17.373  11.924   8.115
    2AU       S  930  17.662  14.555   8.415
    2AU     LIG  931  17.295  14.258   8.589
    2AU     LIG  932  17.067  13.847   8.641
    2AU     LIG  933  16.895  13.572   8.979
    2AU     LIG  934  16.972  13.562   9.458
    2AU     LIG  935  16.913  13.384   9.904
    2AU    AUSL  936  18.356  14.501   7.659
    2AU    AUSL  937  18.032  14.534   7.336
    2AU     AUL  938  17.894  14.353   7.622
    2AU       S  939  18.069  14.066   7.244
    2AU     LIG  940  17.881  13.652   7.137
    2AU     LIG  941  17.709  13.228   7.021
    2AU     LIG  942  17.701  12.798   6.835
    2AU     LIG  943  17.496  12.363   6.780
    2AU     LIG  944  17.519  11.893   6.716
    2AU       S  945  18.461  14.125   7.765
    2AU     LIG  946  18.594  13.677   7.807
    2AU     LIG  947  18.437  13.279   7.976
    2AU     LIG  948  18.337  12.850   8.052
    2AU     LIG  949  18.574  12.475   8.187
    2AU     LIG  950  18.689  12.014   8.101
    2AU    AUSL  951  18.317  15.900   6.993
    2AU    AUSL  952  18.712  15.826   7.232
    2AU     AUL  953  18.654  16.018   6.962
    2AU       S  954  18.392  16.410   6.821
    2AU     LIG  955  18.592  16.713   6.534
    2AU     LIG  956  18.534  17.130   6.342
    2AU     LIG  957  18.552  17.353   5.917
    2AU     LIG  958  18.581  17.637   5.527
    2AU     LIG  959  18.521  18.058   5.308
    2AU       S  960  19.161  15.967   6.877
    2AU     LIG  961  19.528  16.222   6.697
    2AU     LIG  962  19.760  16.479   6.352
    2AU     LIG  963  19.972  16.871   6.139
    2AU     LIG  964  20.165  17.338   6.149
    2AU     LIG  965  20.267  17.826   6.090
    2AU    AUSL  966  18.136  15.958   7.294
    2AU    AUSL  967  17.994  15.762   6.923
    2AU     AUL  968  18.022  16.109   7.002
    2AU       S  969  18.351  16.515   7.052
    2AU     LIG  970  18.296  16.953   6.871
    2AU     LIG  971  18.310  17.401   6.744
    2AU     LIG  972  18.164  17.842   6.684
    2AU     LIG  973  17.809  18.035   6.448
    2AU     LIG  974  17.630  18.450   6.328
    2AU       S  975  17.611  16.056   6.705
    2AU     LIG  976  17.629  16.373   6.341
    2AU     LIG  977  17.484  16.547   5.924
    2AU     LIG  978  17.334  16.512   5.471
    2AU     LIG  979  17.329  16.736   5.050
    2AU     LIG  980  17.081  16.961   4.717
    2AU    AUSL  981  18.219  14.631   7.041
    2AU    AUSL  982  17.768  14.732   7.221
    2AU     AUL  983  17.900  14.498   6.973
    2AU       S  984  17.416  14.568   6.832
    2AU     LIG  985  17.026  14.318   6.957
    2AU     LIG  986  16.639  14.060   6.936
    2AU     LIG  987  16.505  13.720   6.651
    2AU     LIG  988  16.252  13.512   6.332
    2AU     LIG  989  16.069  13.310   5.960
    2AU       S  990  18.197  14.081   7.003
    2AU     LIG  991  18.301  13.665   6.841
    2AU     LIG  992  18.062  13.317   6.658
    2AU     LIG  993  17.975  12.943   6.402
    2AU     LIG  994  17.949  12.767   5.959
    2AU     LIG  995  18.032  12.395   5.688
    2AU    AUSL  996  18.398  14.522   7.328
    2AU    AUSL  997  18.512  14.778   6.936
    2AU     AUL  998  18.549  14.437   7.028
    2AU       S  999  18.341  14.060   7.296
    2AU     LIG 1000  18.347  13.614   7.363
    2AU     LIG 1001  18.206  13.240   7.156
    2AU     LIG 1002  18.240  12.878   6.873
    2AU     LIG 1003  18.530  12.508   6.822
    2AU     LIG 1004  18.541  12.009   6.783
    2AU       S 1005  18.748  14.601   6.580
    2AU     LIG 1006  18.754  14.250   6.280
    2AU     LIG 1007  18.857  13.802   6.163
    2AU     LIG 1008  19.118  13.518   5.891
    2AU     LIG 1009  19.414  13.359   5.564
    2AU     LIG 1010  19.593  13.303   5.127
    3AU     AUC 1011  43.051   8.347   7.509
    3AU     AUC 1012  43.322   8.328   7.349
    3AU     AUC 1013  43.318   8.334   7.676
    3AU     AUC 1014  42.785   8.360   7.339
    3AU     AUC 1015  42.783   8.364   7.675
    3AU     AUC 1016  42.902   8.622   7.502
    3AU     AUC 1017  43.233   8.605   7.507
    3AU     AUC 1018  42.867   8.090   7.510
    3AU     AUC 1019  43.198   8.068   7.510
    3AU     AUC 1020  43.039   8.187   7.781
    3AU     AUC 1021  43.062   8.516   7.775
    3AU     AUC 1022  43.048   8.178   7.244
    3AU     AUC 1023  43.063   8.507   7.237
    3AU     AUC 1024  43.590   8.320   7.196
    3AU     AUC 1025  43.594   8.310   7.512
    3AU     AUC 1026  43.576   8.318   7.831
    3AU     AUC 1027  42.533   8.367   7.167
    3AU     AUC 1028  42.508   8.372   7.506
    3AU     AUC 1029  42.527   8.382   7.837
    3AU     AUC 1030  42.759   8.887   7.498
    3AU     AUC 1031  43.088   8.890   7.496
    3AU     AUC 1032  43.404   8.860   7.502
    3AU     AUC 1033  42.687   7.846   7.510
    3AU     AUC 1034  43.014   7.804   7.501
    3AU     AUC 1035  43.338   7.792   7.517
    3AU     AUC 1036  43.037   8.032   8.044
    3AU     AUC 1037  43.054   8.353   8.062
    3AU     AUC 1038  43.069   8.681   8.022
    3AU     AUC 1039  43.062   8.019   6.990
    3AU     AUC 1040  43.079   8.341   6.968
    3AU     AUC 1041  43.075   8.657   6.968
    3AU     AUC 1042  43.318   8.172   7.951
    3AU     AUC 1043  43.345   8.506   7.954
    3AU     AUC 1044  43.336   8.168   7.078
    3AU     AUC 1045  43.347   8.498   7.079
    3AU     AUC 1046  42.769   8.200   7.969
    3AU     AUC 1047  42.785   8.530   7.951
    3AU     AUC 1048  42.782   8.192   7.067
    3AU     AUC 1049  42.788   8.520   7.046
    3AU     AUC 1050  43.513   8.586   7.355
    3AU     AUC 1051  43.507   8.602   7.684
    3AU     AUC 1052  42.628   8.645   7.327
    3AU     AUC 1053  42.626   8.652   7.675
    3AU     AUC 1054  43.481   8.038   7.350
    3AU     AUC 1055  43.465   8.042   7.675
    3AU     AUC 1056  42.584   8.097   7.341
    3AU     AUC 1057  42.593   8.096   7.686
    3AU     AUC 1058  42.911   8.805   7.768
    3AU     AUC 1059  43.251   8.789   7.775
    3AU     AUC 1060  42.852   7.926   7.794
    3AU     AUC 1061  43.180   7.896   7.777
    3AU     AUC 1062  42.904   8.782   7.210
    3AU     AUC 1063  43.239   8.780   7.228
    3AU     AUC 1064  42.855   7.911   7.235
    3AU     AUC 1065  43.196   7.888   7.236
    3AU    AUSL 1066  43.559   8.285   8.128
    3AU    AUSL 1067  43.303   7.908   8.076
    3AU     AUL 1068  43.586   7.921   8.282
    3AU       S 1069  43.627   7.406   8.172
    3AU     LIG 1070  43.565   6.982   8.408
    3AU     LIG 1071  43.694   6.599   8.674
    3AU     LIG 1072  43.994   6.408   8.974
    3AU     LIG 1073  44.284   6.399   9.348
    3AU     LIG 1074  44.364   6.308   9.806
    3AU       S 1075  43.907   8.278   8.478
    3AU     LIG 1076  43.999   8.407   8.916
    3AU     LIG 1077  44.000   8.171   9.323
    3AU     LIG 1078  44.180   7.984   9.712
    3AU     LIG 1079  44.487   8.035  10.068
    3AU     LIG 1080  44.845   8.046  10.382
    3AU    AUSL 1081  43.240   8.189   8.273
    3AU    AUSL 1082  42.894   8.518   8.276
    3AU     AUL 1083  43.143   8.402   8.555
    3AU       S 1084  43.583   8.170   8.714
    3AU     LIG 1085  43.598   7.922   9.096
    3AU     LIG 1086  43.724   7.764   9.511
    3AU     LIG 1087  43.761   7.806   9.969
    3AU     LIG 1088  43.811   7.673  10.407
    3AU     LIG 1089  43.907   7.554  10.844
    3AU       S 1090  42.666   8.430   8.753
    3AU     LIG 1091  42.437   8.355   9.161
    3AU     LIG 1092  42.397   8.142   9.577
    3AU     LIG 1093  42.228   8.192  10.003
    3AU     LIG 1094  42.133   8.561  10.287
    3AU     LIG 1095  42.131   8.926  10.587
    3AU    AUSL 1096  43.221   8.563   8.224
    3AU    AUSL 1097  43.644   8.603   8.002
    3AU     AUL 1098  43.494   8.536   8.365
    3AU       S 1099  43.213   8.927   8.575
    3AU     LIG 1100  43.462   8.958   8.972
    3AU     LIG 1101  43.722   9.075   9.356
    3AU     LIG 1102  43.696   9.139   9.846
    3AU     LIG 1103  43.633   9.106  10.335
    3AU     LIG 1104  43.744   9.015  10.796
    3AU       S 1105  43.921   8.803   8.299
    3AU     LIG 1106  44.274   8.705   8.552
    3AU     LIG 1107  44.582   8.963   8.766
    3AU     LIG 1108  44.784   9.218   9.085
    3AU     LIG 1109  44.952   9.425   9.464
    3AU     LIG 1110   0.304   9.437   9.778
    3AU    AUSL 1111  43.532   8.427   6.882
    3AU    AUSL 1112  43.378   8.738   6.944
    3AU     AUL 1113  43.327   8.779   6.631
    3AU       S 1114  43.690   8.435   6.436
    3AU     LIG 1115  44.026   8.248   6.165
    3AU     LIG 1116  44.099   8.002   5.780
    3AU     LIG 1117  44.212   7.941   5.318
    3AU     LIG 1118  44.530   7.894   4.961
    3AU     LIG 1119  44.832   7.861   4.589
    3AU       S 1120  43.831   8.860   6.668
    3AU     LIG 1121  44.047   9.079   6.316
    3AU     LIG 1122  44.246   9.337   5.962
    3AU     LIG 1123  44.450   9.559   5.582
    3AU     LIG 1124  44.481   9.819   5.175
    3AU     LIG 1125  44.502  10.203   4.896
    3AU    AUSL 1126  43.350   8.148   6.808
    3AU    AUSL 1127  43.593   8.027   7.042
    3AU     AUL 1128  43.804   8.221   6.891
    3AU       S 1129  43.797   7.768   6.660
    3AU     LIG 1130  44.075   7.517   6.357
    3AU     LIG 1131  44.221   7.088   6.192
    3AU     LIG 1132  44.495   6.780   5.953
    3AU     LIG 1133  44.805   6.656   5.606
    3AU     LIG 1134   0.164   6.755   5.289
    3AU       S 1135  43.589   8.154   6.402
    3AU     LIG 1136  43.722   7.817   6.119
    3AU     LIG 1137  43.673   7.742   5.663
    3AU     LIG 1138  43.746   7.751   5.199
    3AU     LIG 1139  43.799   7.767   4.737
    3AU     LIG 1140  43.898   7.655   4.298
    3AU    AUSL 1141  43.215   8.450   6.737
    3AU    AUSL 1142  42.947   8.192   6.781
    3AU     AUL 1143  43.135   8.023   6.579
    3AU       S 1144  42.857   8.309   6.262
    3AU     LIG 1145  42.759   8.054   5.878
    3AU     LIG 1146  42.464   7.807   5.606
    3AU     LIG 1147  42.224   7.697   5.215
    3AU     LIG 1148  42.065   7.780   4.777
    3AU     LIG 1149  42.029   7.801   4.310
    3AU       S 1150  43.398   8.389   6.300
    3AU     LIG 1151  43.592   8.250   5.879
    3AU     LIG 1152  43.768   8.212   5.439
    3AU     LIG 1153  43.815   8.234   4.966
    3AU     LIG 1154  43.760   8.449   4.528
    3AU     LIG 1155  43.961   8.663   4.140
    3AU    AUSL 1156  42.582   8.421   8.160
    3AU    AUSL 1157  42.792   8.788   8.057
    3AU     AUL 1158  42.703   8.774   8.384
    3AU       S 1159  42.400   8.433   8.630
    3AU     LIG 1160  42.195   8.058   8.806
    3AU     LIG 1161  42.068   7.945   9.233
    3AU     LIG 1162  41.908   7.926   9.677
    3AU     LIG 1163  41.556   7.895  10.009
    3AU     LIG 1164  41.206   8.121  10.248
    3AU       S 1165  42.324   9.087   8.233
    3AU     LIG 1166  42.353   9.257   8.669
    3AU     LIG 1167  42.295   9.430   9.088
    3AU     LIG 1168  41.984   9.652   9.334
    3AU     LIG 1169  41.828   9.794   9.757
    3AU     LIG 1170  41.692  10.064  10.125
    3AU    AUSL 1171  42.881   8.165   8.274
    3AU    AUSL 1172  42.475   8.110   7.978
    3AU     AUL 1173  42.522   8.104   8.283
    3AU       S 1174  42.173   7.753   8.313
    3AU     LIG 1175  41.751   7.599   8.211
    3AU     LIG 1176  41.526   7.220   8.339
    3AU     LIG 1177  41.329   7.007   8.701
    3AU     LIG 1178  41.126   6.721   9.005
    3AU     LIG 1179  40.868   6.690   9.396
    3AU       S 1180  42.705   8.163   8.739
    3AU     LIG 1181  42.581   7.868   9.099
    3AU     LIG 1182  42.408   7.640   9.478
    3AU     LIG 1183  42.269   7.650   9.924
    3AU     LIG 1184  42.148   7.419  10.325
    3AU     LIG 1185  41.977   7.266  10.746
    3AU    AUSL 1186  42.621   8.312   6.831
    3AU    AUSL 1187  42.748   7.928   6.946
    3AU     AUL 1188  42.762   7.948   6.619
    3AU       S 1189  42.562   8.298   6.307
    3AU     LIG 1190  42.260   8.171   5.947
    3AU     LIG 1191  42.013   8.060   5.542
    3AU     LIG 1192  41.757   7.932   5.160
    3AU     LIG 1193  41.445   7.955   4.798
    3AU     LIG 1194  41.263   8.197   4.427
    3AU       S 1195  42.308   7.743   6.641
    3AU     LIG 1196  42.037   7.352   6.460
    3AU     LIG 1197  41.802   6.938   6.482
    3AU     LIG 1198  41.643   6.645   6.157
    3AU     LIG 1199  41.551   6.451   5.736
    3AU     LIG 1200  41.331   6.304   5.339
    3AU    AUSL 1201  42.892   8.548   6.754
    3AU    AUSL 1202  42.492   8.647   7.018
    3AU     AUL 1203  42.542   8.624   6.680
    3AU       S 1204  42.142   8.915   6.739
    3AU     LIG 1205  41.872   9.064   6.382
    3AU     LIG 1206  41.837   9.219   5.933
    3AU     LIG 1207  41.609   9.303   5.523
    3AU     LIG 1208  41.218   9.494   5.339
    3AU     LIG 1209  40.875   9.770   5.149
    3AU       S 1210  42.874   8.559   6.297
    3AU     LIG 1211  42.626   8.553   5.866
    3AU     LIG 1212  42.463   8.312   5.483
    3AU     LIG 1213  42.232   8.195   5.070
    3AU     LIG 1214  42.225   8.248   4.583
    3AU     LIG 1215  42.388   8.497   4.195
    3AU    AUSL 1216  43.717   8.759   7.482
    3AU    AUSL 1217  43.689   8.626   7.132
    3AU     AUL 1218  43.787   9.057   7.351
    3AU       S 1219  43.984   8.741   6.891
    3AU     LIG 1220  44.368   8.795   6.641
    3AU     LIG 1221  44.568   9.059   6.293
    3AU     LIG 1222  44.761   9.332   5.940
    3AU     LIG 1223  44.966   9.508   5.533
    3AU     LIG 1224   0.307   9.743   5.295
    3AU       S 1225  44.230   8.805   7.321
    3AU     LIG 1226  44.722   8.938   7.409
    3AU     LIG 1227   0.203   8.927   7.544
    3AU     LIG 1228   0.658   9.099   7.507
    3AU     LIG 1229   0.854   9.559   7.517
    3AU     LIG 1230   0.930  10.000   7.715
    3AU    AUSL 1231  43.841   8.425   7.378
    3AU    AUSL 1232  43.785   8.154   7.663
    3AU     AUL 1233  44.070   8.328   7.778
    3AU       S 1234  44.216   8.483   7.263
    3AU     LIG 1235  44.657   8.523   7.113
    3AU     LIG 1236   0.059   8.737   7.060
    3AU     LIG 1237   0.502   8.701   7.161
    3AU     LIG 1238   0.962   8.762   7.191
    3AU     LIG 1239   1.372   8.921   6.990
    3AU       S 1240  44.245   7.892   7.568
    3AU     LIG 1241  44.640   7.727   7.760
    3AU     LIG 1242   0.062   7.561   7.853
    3AU     LIG 1243   0.491   7.706   7.871
    3AU     LIG 1244   0.946   7.608   7.903
    3AU     LIG 1245   1.362   7.409   7.963
    3AU    AUSL 1246  43.779   8.501   7.704
    3AU    AUSL 1247  43.566   8.895   7.777
    3AU     AUL 1248  43.915   8.812   7.781
    3AU       S 1249  43.887   9.098   8.196
    3AU     LIG 1250  44.243   9.238   8.481
    3AU     LIG 1251  44.550   9.526   8.719
    3AU     LIG 1252  44.713   9.975   8.859
    3AU     LIG 1253   0.033  10.341   8.846
    3AU     LIG 1254   0.257  10.774   8.883
    3AU       S 1255  44.319   8.644   7.496
    3AU     LIG 1256  44.734   8.528   7.721
    3AU     LIG 1257   0.163   8.559   7.946
    3AU     LIG 1258   0.602   8.743   7.898
    3AU     LIG 1259   1.059   8.796   7.735
    3AU     LIG 1260   1.420   9.111   7.851
    3AU    AUSL 1261  42.463   8.865   7.521
    3AU    AUSL 1262  42.468   8.677   7.947
    3AU     AUL 1263  42.160   8.868   7.731
    3AU       S 1264  42.186   8.813   8.256
    3AU     LIG 1265  41.894   9.071   8.542
    3AU     LIG 1266  41.817   9.253   8.987
    3AU     LIG 1267  41.592   9.321   9.413
    3AU     LIG 1268  41.224   9.392   9.711
    3AU     LIG 1269  40.777   9.459   9.854
    3AU       S 1270  42.302   9.320   7.502
    3AU     LIG 1271  41.890   9.550   7.375
    3AU     LIG 1272  41.484   9.837   7.397
    3AU     LIG 1273  41.098  10.149   7.362
    3AU     LIG 1274  40.659  10.316   7.465
    3AU     LIG 1275  40.358  10.319   7.837
    3AU    AUSL 1276  42.350   8.546   7.306
    3AU    AUSL 1277  42.600   8.945   7.211
    3AU     AUL 1278  42.227   8.853   7.246
    3AU       S 1279  41.988   8.460   6.938
    3AU     LIG 1280  41.648   8.794   6.803
    3AU     LIG 1281  41.230   9.040   6.788
    3AU     LIG 1282  40.755   9.160   6.800
    3AU     LIG 1283  40.267   9.205   6.831
    3AU     LIG 1284  39.777   9.230   6.843
    3AU       S 1285  42.323   9.299   6.999
    3AU     LIG 1286  42.027   9.466   6.668
    3AU     LIG 1287  41.924   9.643   6.234
    3AU     LIG 1288  41.728  10.038   6.019
    3AU     LIG 1289  41.446  10.451   5.990
    3AU     LIG 1290  41.204  10.849   6.080
    3AU    AUSL 1291  42.318   8.542   7.675
    3AU    AUSL 1292  42.267   8.223   7.343
    3AU     AUL 1293  42.035   8.569   7.450
    3AU       S 1294  41.784   8.115   7.424
    3AU     LIG 1295  41.336   7.929   7.425
    3AU     LIG 1296  40.912   7.758   7.371
    3AU     LIG 1297  40.489   7.743   7.222
    3AU     LIG 1298  40.020   7.716   7.186
    3AU     LIG 1299  39.646   7.617   6.968
    3AU       S 1300  41.942   8.462   7.989
    3AU     LIG 1301  41.578   8.732   8.112
    3AU     LIG 1302  41.136   8.918   8.134
    3AU     LIG 1303  40.662   9.011   8.151
    3AU     LIG 1304  40.184   8.938   8.123
    3AU     LIG 1305  39.746   9.010   8.279
    3AU    AUSL 1306  43.668   7.839   7.568
    3AU    AUSL 1307  43.596   8.004   7.916
    3AU     AUL 1308  43.912   8.011   7.941
    3AU       S 1309  44.091   7.663   7.599
    3AU     LIG 1310  44.367   7.321   7.617
    3AU     LIG 1311  44.810   7.220   7.528
    3AU     LIG 1312   0.083   6.817   7.507
    3AU     LIG 1313   0.464   6.594   7.673
    3AU     LIG 1314   0.908   6.597   7.831
    3AU       S 1315  43.857   7.520   8.037
    3AU     LIG 1316  44.052   7.141   8.261
    3AU     LIG 1317  44.139   6.855   8.624
    3AU     LIG 1318  44.444   6.686   8.941
    3AU     LIG 1319  44.765   6.697   9.301
    3AU     LIG 1320   0.158   6.810   9.558
    3AU    AUSL 1321  43.784   8.093   7.318
    3AU    AUSL 1322  43.477   7.748   7.241
    3AU     AUL 1323  43.789   7.741   7.210
    3AU       S 1324  44.221   7.973   7.338
    3AU     LIG 1325  44.573   7.656   7.259
    3AU     LIG 1326   0.028   7.688   7.360
    3AU     LIG 1327   0.456   7.499   7.403
    3AU     LIG 1328   0.921   7.489   7.352
    3AU     LIG 1329   1.273   7.382   7.071
    3AU       S 1330  43.754   7.518   6.762
    3AU     LIG 1331  43.929   7.098   6.635
    3AU     LIG 1332  44.128   6.682   6.512
    3AU     LIG 1333  44.458   6.403   6.332
    3AU     LIG 1334  44.679   5.973   6.312
    3AU     LIG 1335   0.077   5.694   6.246
    3AU    AUSL 1336  42.389   7.910   7.520
    3AU    AUSL 1337  42.448   8.110   7.058
    3AU     AUL 1338  42.201   7.884   7.245
    3AU       S 1339  42.183   7.976   6.738
    3AU     LIG 1340  41.763   7.762   6.648
    3AU     LIG 1341  41.516   7.378   6.544
    3AU     LIG 1342  41.343   7.055   6.268
    3AU     LIG 1343  41.014   6.890   5.992
    3AU     LIG 1344  40.625   6.743   5.772
    3AU       S 1345  41.813   7.861   7.560
    3AU     LIG 1346  41.508   7.543   7.734
    3AU     LIG 1347  41.056   7.376   7.674
    3AU     LIG 1348  40.588   7.445   7.747
    3AU     LIG 1349  40.137   7.217   7.844
    3AU     LIG 1350  39.872   6.825   7.698
    3AU    AUSL 1351  42.298   8.206   7.693
    3AU    AUSL 1352  42.546   7.791   7.817
    3AU     AUL 1353  42.225   7.902   7.837
    3AU       S 1354  42.260   7.513   8.148
    3AU     LIG 1355  41.960   7.149   8.057
    3AU     LIG 1356  41.705   6.756   8.150
    3AU     LIG 1357  41.434   6.558   8.481
    3AU     LIG 1358  41.234   6.157   8.618
    3AU     LIG 1359  41.062   5.695   8.648
    3AU       S 1360  41.812   8.123   7.647
    3AU     LIG 1361  41.426   8.303   7.783
    3AU     LIG 1362  40.980   8.212   7.681
    3AU     LIG 1363  40.588   7.978   7.702
    3AU     LIG 1364  40.204   7.775   7.658
    3AU     LIG 1365  39.842   7.647   7.817
    3AU    AUSL 1366  43.083   8.999   7.952
    3AU    AUSL 1367  42.645   8.974   7.806
    3AU     AUL 1368  42.833   9.093   8.183
    3AU       S 1369  42.397   9.288   7.987
    3AU     LIG 1370  42.086   9.516   8.299
    3AU     LIG 1371  42.002   9.667   8.735
    3AU     LIG 1372  41.876  10.038   8.996
    3AU     LIG 1373  41.615  10.437   8.982
    3AU     LIG 1374  41.217  10.610   8.806
    3AU       S 1375  43.081   9.510   8.026
    3AU     LIG 1376  43.324   9.771   8.327
    3AU     LIG 1377  43.395  10.124   8.616
    3AU     LIG 1378  43.337  10.466   8.930
    3AU     LIG 1379  43.282  10.705   9.342
    3AU     LIG 1380  43.187  11.123   9.558
    3AU    AUSL 1381  42.917   9.110   7.643
    3AU    AUSL 1382  43.253   9.120   7.315
    3AU     AUL 1383  42.854   9.352   7.373
    3AU       S 1384  42.899   9.535   7.840
    3AU     LIG 1385  43.016  10.003   7.977
    3AU     LIG 1386  43.135  10.382   8.241
    3AU     LIG 1387  42.990  10.825   8.374
    3AU     LIG 1388  42.764  11.256   8.385
    3AU     LIG 1389  42.488  11.589   8.578
    3AU       S 1390  43.349   9.515   7.221
    3AU     LIG 1391  43.611   9.861   7.053
    3AU     LIG 1392  43.739  10.257   6.825
    3AU     LIG 1393  44.133  10.555   6.776
    3AU     LIG 1394  44.388  10.948   6.685
    3AU     LIG 1395  44.184  11.367   6.615
    3AU    AUSL 1396  43.282   9.088   7.659
    3AU    AUSL 1397  43.368   8.822   8.065
    3AU     AUL 1398  43.434   9.160   7.973
    3AU       S 1399  43.682   9.014   8.404
    3AU     LIG 1400  43.939   8.992   8.806
    3AU     LIG 1401  44.248   9.246   9.048
    3AU     LIG 1402  44.496   9.616   9.229
    3AU     LIG 1403  44.675   9.861   9.583
    3AU     LIG 1404  44.612  10.092   9.990
    3AU       S 1405  43.224   9.553   7.719
    3AU     LIG 1406  43.508   9.887   7.863
    3AU     LIG 1407  43.641  10.223   8.166
    3AU     LIG 1408  43.948  10.575   8.306
    3AU     LIG 1409  44.109  10.997   8.486
    3AU     LIG 1410  44.167  11.457   8.435
    3AU    AUSL 1411  43.037   7.713   7.968
    3AU    AUSL 1412  43.413   7.720   7.812
    3AU     AUL 1413  43.219   7.676   8.257
    3AU       S 1414  43.175   7.208   8.038
    3AU     LIG 1415  43.102   6.799   8.212
    3AU     LIG 1416  42.838   6.442   8.267
    3AU     LIG 1417  42.897   6.034   8.448
    3AU     LIG 1418  43.033   5.797   8.817
    3AU     LIG 1419  42.962   5.713   9.281
    3AU       S 1420  43.655   7.410   7.889
    3AU     LIG 1421  43.711   6.951   7.927
    3AU     LIG 1422  43.909   6.621   8.203
    3AU     LIG 1423  44.171   6.354   8.493
    3AU     LIG 1424  44.474   6.001   8.649
    3AU     LIG 1425  44.865   5.693   8.739
    3AU    AUSL 1426  42.830   7.668   7.683
    3AU    AUSL 1427  42.756   7.887   8.096
    3AU     AUL 1428  42.745   7.524   8.005
    3AU       S 1429  42.993   7.100   7.814
    3AU     LIG 1430  42.772   6.697   7.786
    3AU     LIG 1431  42.408   6.414   7.929
    3AU     LIG 1432  42.201   6.079   8.198
    3AU     LIG 1433  41.889   5.712   8.177
    3AU     LIG 1434  41.939   5.284   8.334
    3AU       S 1435  42.436   7.613   8.407
    3AU     LIG 1436  42.047   7.310   8.550
    3AU     LIG 1437  41.831   6.897   8.626
    3AU     LIG 1438  41.631   6.645   8.963
    3AU     LIG 1439  41.545   6.682   9.429
    3AU     LIG 1440  41.523   6.459   9.860
    3AU    AUSL 1441  43.144   7.567   7.659
    3AU    AUSL 1442  42.816   7.602   7.336
    3AU     AUL 1443  42.676   7.428   7.624
    3AU       S 1444  42.821   7.128   7.243
    3AU     LIG 1445  42.554   6.719   7.184
    3AU     LIG 1446  42.263   6.373   7.002
    3AU     LIG 1447  42.151   5.924   6.882
    3AU     LIG 1448  42.258   5.454   6.975
    3AU     LIG 1449  42.399   4.966   6.951
    3AU       S 1450  43.241   7.187   7.765
    3AU     LIG 1451  43.302   6.715   7.754
    3AU     LIG 1452  43.122   6.316   7.866
    3AU     LIG 1453  43.292   5.960   8.119
    3AU     LIG 1454  43.499   5.648   8.404
    3AU     LIG 1455  43.624   5.171   8.417
    3AU    AUSL 1456  43.110   8.968   6.996
    3AU    AUSL 1457  43.504   8.892   7.234
    3AU     AUL 1458  43.447   9.083   6.962
    3AU       S 1459  43.188   9.479   6.829
    3AU     LIG 1460  43.465   9.737   6.569
    3AU     LIG 1461  43.455  10.162   6.376
    3AU     LIG 1462  43.423  10.401   5.955
    3AU     LIG 1463  43.440  10.732   5.607
    3AU     LIG 1464  43.332  11.128   5.368
    3AU       S 1465  43.953   9.025   6.878
    3AU     LIG 1466  44.297   9.301   6.704
    3AU     LIG 1467  44.492   9.566   6.362
    3AU     LIG 1468  44.690   9.954   6.188
    3AU     LIG 1469  44.988  10.313   6.231
    3AU     LIG 1470   0.324  10.568   5.995
    3AU    AUSL 1471  42.927   9.027   7.296
    3AU    AUSL 1472  42.787   8.831   6.924
    3AU     AUL 1473  42.816   9.180   7.005
    3AU       S 1474  43.152   9.586   7.060
    3AU     LIG 1475  43.168  10.029   6.859
    3AU     LIG 1476  43.183  10.480   6.711
    3AU     LIG 1477  42.899  10.881   6.673
    3AU     LIG 1478  42.638  11.290   6.666
    3AU     LIG 1479  42.245  11.505   6.489
    3AU       S 1480  42.408   9.119   6.706
    3AU     LIG 1481  42.324   9.283   6.278
    3AU     LIG 1482  42.273   9.481   5.863
    3AU     LIG 1483  42.027   9.624   5.497
    3AU     LIG 1484  42.020   9.954   5.156
    3AU     LIG 1485  41.869  10.355   4.966
    3AU    AUSL 1486  43.007   7.698   7.043
    3AU    AUSL 1487  42.552   7.799   7.218
    3AU     AUL 1488  42.696   7.568   6.969
    3AU       S 1489  42.213   7.626   6.832
    3AU     LIG 1490  41.858   7.339   6.948
    3AU     LIG 1491  41.525   7.016   6.915
    3AU     LIG 1492  41.328   6.713   6.639
    3AU     LIG 1493  41.183   6.465   6.271
    3AU     LIG 1494  41.055   6.035   6.122
    3AU       S 1495  42.973   7.144   7.015
    3AU     LIG 1496  42.930   6.734   6.830
    3AU     LIG 1497  42.701   6.355   6.701
    3AU     LIG 1498  42.783   5.996   6.407
    3AU     LIG 1499  42.848   5.846   5.947
    3AU     LIG 1500  42.948   5.588   5.555
    3AU    AUSL 1501  43.183   7.585   7.329
    3AU    AUSL 1502  43.301   7.843   6.936
    3AU     AUL 1503  43.331   7.497   7.026
    3AU       S 1504  43.108   7.124   7.299
    3AU     LIG 1505  43.043   6.665   7.327
    3AU     LIG 1506  43.047   6.273   7.076
    3AU     LIG 1507  43.269   5.934   6.820
    3AU     LIG 1508  43.417   5.491   6.704
    3AU     LIG 1509  43.309   5.002   6.721
    3AU       S 1510  43.539   7.667   6.583
    3AU     LIG 1511  43.610   7.316   6.285
    3AU     LIG 1512  43.753   6.872   6.192
    3AU     LIG 1513  44.040   6.532   6.023
    3AU     LIG 1514  44.313   6.374   5.672
    3AU     LIG 1515  44.412   6.344   5.202
    4AU     AUC 1516  10.927   8.142   7.507
    4AU     AUC 1517  11.199   8.126   7.347
    4AU     AUC 1518  11.194   8.129   7.673
    4AU     AUC 1519  10.662   8.154   7.336
    4AU     AUC 1520  10.658   8.156   7.673
    4AU     AUC 1521  10.776   8.415   7.500
    4AU     AUC 1522  11.107   8.401   7.507
    4AU     AUC 1523  10.743   7.884   7.507
    4AU     AUC 1524  11.075   7.864   7.506
    4AU     AUC 1525  10.914   7.980   7.777
    4AU     AUC 1526  10.937   8.309   7.774
    4AU     AUC 1527  10.927   7.975   7.241
    4AU     AUC 1528  10.939   8.303   7.235
    4AU     AUC 1529  11.467   8.121   7.194
    4AU     AUC 1530  11.473   8.107   7.509
    4AU     AUC 1531  11.453   8.112   7.829
    4AU     AUC 1532  10.411   8.157   7.163
    4AU     AUC 1533  10.382   8.163   7.501
    4AU     AUC 1534  10.400   8.172   7.834
    4AU     AUC 1535  10.631   8.678   7.497
    4AU     AUC 1536  10.960   8.684   7.496
    4AU     AUC 1537  11.275   8.656   7.503
    4AU     AUC 1538  10.565   7.639   7.504
    4AU     AUC 1539  10.891   7.598   7.496
    4AU     AUC 1540  11.213   7.588   7.511
    4AU     AUC 1541  10.910   7.824   8.039
    4AU     AUC 1542  10.929   8.144   8.059
    4AU     AUC 1543  10.942   8.473   8.021
    4AU     AUC 1544  10.943   7.818   6.987
    4AU     AUC 1545  10.959   8.140   6.963
    4AU     AUC 1546  10.951   8.454   6.965
    4AU     AUC 1547  11.193   7.966   7.947
    4AU     AUC 1548  11.220   8.299   7.953
    4AU     AUC 1549  11.215   7.970   7.075
    4AU     AUC 1550  11.223   8.299   7.077
    4AU     AUC 1551  10.641   7.991   7.965
    4AU     AUC 1552  10.658   8.321   7.949
    4AU     AUC 1553  10.663   7.987   7.066
    4AU     AUC 1554  10.666   8.312   7.043
    4AU     AUC 1555  11.386   8.384   7.355
    4AU     AUC 1556  11.384   8.396   7.683
    4AU     AUC 1557  10.502   8.436   7.324
    4AU     AUC 1558  10.500   8.444   7.674
    4AU     AUC 1559  11.359   7.837   7.347
    4AU     AUC 1560  11.340   7.837   7.672
    4AU     AUC 1561  10.462   7.891   7.336
    4AU     AUC 1562  10.466   7.889   7.681
    4AU     AUC 1563  10.783   8.597   7.768
    4AU     AUC 1564  11.124   8.582   7.775
    4AU     AUC 1565  10.726   7.718   7.788
    4AU     AUC 1566  11.053   7.690   7.772
    4AU     AUC 1567  10.778   8.575   7.208
    4AU     AUC 1568  11.112   8.578   7.228
    4AU     AUC 1569  10.736   7.706   7.232
    4AU     AUC 1570  11.075   7.687   7.231
    4AU    AUSL 1571  11.433   8.078   8.125
    4AU    AUSL 1572  11.173   7.704   8.066
    4AU     AUL 1573  11.438   7.722   8.290
    4AU       S 1574  11.510   7.218   8.162
    4AU     LIG 1575  11.501   6.847   8.407
    4AU     LIG 1576  11.660   6.561   8.738
    4AU     LIG 1577  11.924   6.391   9.086
    4AU     LIG 1578  11.942   6.147   9.487
    4AU     LIG 1579  12.154   5.848   9.778
    4AU       S 1580  11.778   8.061   8.485
    4AU     LIG 1581  11.897   8.101   8.938
    4AU     LIG 1582  11.960   7.843   9.328
    4AU     LIG 1583  12.204   7.654   9.678
    4AU     LIG 1584  12.566   7.769   9.965
    4AU     LIG 1585  12.882   7.761  10.313
    4AU    AUSL 1586  11.115   7.981   8.270
    4AU    AUSL 1587  10.767   8.307   8.273
    4AU     AUL 1588  11.013   8.188   8.553
    4AU       S 1589  11.453   7.966   8.724
    4AU     LIG 1590  11.505   7.719   9.118
    4AU     LIG 1591  11.629   7.474   9.513
    4AU     LIG 1592  11.632   7.230   9.930
    4AU     LIG 1593  11.689   7.231  10.401
    4AU     LIG 1594  11.610   7.475  10.796
    4AU       S 1595  10.537   8.222   8.754
    4AU     LIG 1596  10.317   8.164   9.174
    4AU     LIG 1597  10.259   7.976   9.610
    4AU     LIG 1598  10.190   8.054  10.071
    4AU     LIG 1599  10.233   8.346  10.456
    4AU     LIG 1600  10.169   8.659  10.819
    4AU    AUSL 1601  11.095   8.355   8.225
    4AU    AUSL 1602  11.519   8.395   7.997
    4AU     AUL 1603  11.371   8.324   8.362
    4AU       S 1604  11.090   8.712   8.579
    4AU     LIG 1605  11.370   8.685   8.963
    4AU     LIG 1606  11.507   8.747   9.422
    4AU     LIG 1607  11.503   8.850   9.897
    4AU     LIG 1608  11.402   8.832  10.367
    4AU     LIG 1609  11.516   8.840  10.828
    4AU       S 1610  11.799   8.590   8.296
    4AU     LIG 1611  12.176   8.508   8.522
    4AU     LIG 1612  12.499   8.766   8.725
    4AU     LIG 1613  12.703   9.035   9.046
    4AU     LIG 1614  12.893   9.331   9.360
    4AU     LIG 1615  13.279   9.409   9.623
    4AU    AUSL 1616  11.412   8.232   6.882
    4AU    AUSL 1617  11.254   8.542   6.945
    4AU     AUL 1618  11.203   8.589   6.632
    4AU       S 1619  11.595   8.256   6.448
    4AU     LIG 1620  11.912   8.077   6.141
    4AU     LIG 1621  11.949   7.830   5.746
    4AU     LIG 1622  12.032   7.724   5.287
    4AU     LIG 1623  12.381   7.626   4.975
    4AU     LIG 1624  12.800   7.784   4.791
    4AU       S 1625  11.704   8.683   6.679
    4AU     LIG 1626  11.895   8.845   6.302
    4AU     LIG 1627  12.084   9.120   5.965
    4AU     LIG 1628  12.335   9.375   5.649
    4AU     LIG 1629  12.428   9.657   5.294
    4AU     LIG 1630  12.627  10.071   5.181
    4AU    AUSL 1631  11.230   7.954   6.803
    4AU    AUSL 1632  11.470   7.831   7.040
    4AU     AUL 1633  11.685   8.024   6.897
    4AU       S 1634  11.677   7.576   6.654
    4AU     LIG 1635  11.952   7.334   6.340
    4AU     LIG 1636  12.104   6.920   6.159
    4AU     LIG 1637  12.395   6.643   5.905
    4AU     LIG 1638  12.743   6.621   5.575
    4AU     LIG 1639  13.207   6.605   5.443
    4AU       S 1640  11.499   7.973   6.399
    4AU     LIG 1641  11.607   7.633   6.104
    4AU     LIG 1642  11.596   7.466   5.659
    4AU     LIG 1643  11.602   7.455   5.179
    4AU     LIG 1644  11.797   7.471   4.751
    4AU     LIG 1645  12.030   7.614   4.368
    4AU    AUSL 1646  11.100   8.260   6.731
    4AU    AUSL 1647  10.834   7.983   6.779
    4AU     AUL 1648  11.029   7.868   6.539
    4AU       S 1649  10.636   8.057   6.281
    4AU     LIG 1650  10.589   7.773   5.912
    4AU     LIG 1651  10.326   7.495   5.627
    4AU     LIG 1652  10.082   7.405   5.224
    4AU     LIG 1653   9.982   7.209   4.784
    4AU     LIG 1654   9.819   7.156   4.315
    4AU       S 1655  11.324   8.219   6.296
    4AU     LIG 1656  11.470   8.062   5.865
    4AU     LIG 1657  11.561   7.929   5.413
    4AU     LIG 1658  11.677   7.932   4.949
    4AU     LIG 1659  11.877   8.104   4.552
    4AU     LIG 1660  11.916   8.519   4.309
    4AU    AUSL 1661  10.456   8.210   8.157
    4AU    AUSL 1662  10.666   8.580   8.057
    4AU     AUL 1663  10.579   8.562   8.383
    4AU       S 1664  10.271   8.222   8.628
    4AU     LIG 1665  10.067   7.858   8.838
    4AU     LIG 1666   9.946   7.739   9.278
    4AU     LIG 1667   9.725   7.738   9.707
    4AU     LIG 1668   9.318   7.844   9.967
    4AU     LIG 1669   9.033   8.017  10.322
    4AU       S 1670  10.199   8.877   8.238
    4AU     LIG 1671  10.257   9.007   8.691
    4AU     LIG 1672  10.205   9.289   9.050
    4AU     LIG 1673   9.880   9.504   9.301
    4AU     LIG 1674   9.661   9.532   9.725
    4AU     LIG 1675   9.642   9.767  10.137
    4AU    AUSL 1676  10.757   7.954   8.271
    4AU    AUSL 1677  10.341   7.900   7.974
    4AU     AUL 1678  10.405   7.895   8.284
    4AU       S 1679  10.043   7.559   8.295
    4AU     LIG 1680   9.608   7.514   8.251
    4AU     LIG 1681   9.298   7.193   8.302
    4AU     LIG 1682   9.099   6.898   8.600
    4AU     LIG 1683   8.899   6.642   8.927
    4AU     LIG 1684   8.590   6.591   9.267
    4AU       S 1685  10.576   7.956   8.743
    4AU     LIG 1686  10.466   7.679   9.119
    4AU     LIG 1687  10.317   7.470   9.511
    4AU     LIG 1688  10.156   7.547   9.934
    4AU     LIG 1689  10.056   7.374  10.355
    4AU     LIG 1690  10.130   7.175  10.779
    4AU    AUSL 1691  10.508   8.092   6.830
    4AU    AUSL 1692  10.627   7.731   6.945
    4AU     AUL 1693  10.705   7.701   6.639
    4AU       S 1694  10.390   8.027   6.368
    4AU     LIG 1695  10.101   7.876   6.010
    4AU     LIG 1696   9.863   7.715   5.617
    4AU     LIG 1697   9.571   7.547   5.278
    4AU     LIG 1698   9.240   7.605   4.936
    4AU     LIG 1699   9.029   7.770   4.549
    4AU       S 1700  10.214   7.594   6.604
    4AU     LIG 1701   9.913   7.231   6.397
    4AU     LIG 1702   9.695   6.801   6.378
    4AU     LIG 1703   9.439   6.550   6.071
    4AU     LIG 1704   9.317   6.478   5.606
    4AU     LIG 1705   9.356   6.244   5.174
    4AU    AUSL 1706  10.770   8.336   6.748
    4AU    AUSL 1707  10.368   8.434   7.013
    4AU     AUL 1708  10.430   8.420   6.675
    4AU       S 1709  10.020   8.700   6.736
    4AU     LIG 1710   9.731   8.881   6.407
    4AU     LIG 1711   9.681   9.063   5.965
    4AU     LIG 1712   9.475   9.134   5.531
    4AU     LIG 1713   9.086   9.215   5.266
    4AU     LIG 1714   8.706   9.437   5.067
    4AU       S 1715  10.731   8.293   6.287
    4AU     LIG 1716  10.441   8.274   5.882
    4AU     LIG 1717  10.290   8.007   5.524
    4AU     LIG 1718  10.167   8.008   5.064
    4AU     LIG 1719  10.119   8.286   4.657
    4AU     LIG 1720  10.043   8.541   4.245
    4AU    AUSL 1721  11.588   8.554   7.483
    4AU    AUSL 1722  11.561   8.432   7.133
    4AU     AUL 1723  11.650   8.860   7.367
    4AU       S 1724  11.846   8.554   6.887
    4AU     LIG 1725  12.219   8.555   6.645
    4AU     LIG 1726  12.403   8.777   6.278
    4AU     LIG 1727  12.588   9.008   5.919
    4AU     LIG 1728  12.881   9.225   5.624
    4AU     LIG 1729  13.321   9.168   5.441
    4AU       S 1730  12.098   8.623   7.311
    4AU     LIG 1731  12.591   8.796   7.375
    4AU     LIG 1732  13.092   8.867   7.480
    4AU     LIG 1733  13.580   8.979   7.506
    4AU     LIG 1734  13.925   9.316   7.457
    4AU     LIG 1735  13.955   9.769   7.261
    4AU    AUSL 1736  11.716   8.223   7.369
    4AU    AUSL 1737  11.657   7.947   7.660
    4AU     AUL 1738  11.965   8.108   7.731
    4AU       S 1739  12.089   8.297   7.242
    4AU     LIG 1740  12.513   8.377   7.090
    4AU     LIG 1741  12.959   8.435   7.230
    4AU     LIG 1742  13.430   8.546   7.230
    4AU     LIG 1743  13.858   8.730   7.143
    4AU     LIG 1744  14.319   8.750   7.005
    4AU       S 1745  12.106   7.626   7.588
    4AU     LIG 1746  12.473   7.366   7.773
    4AU     LIG 1747  12.885   7.125   7.802
    4AU     LIG 1748  13.335   6.999   7.740
    4AU     LIG 1749  13.752   6.815   7.830
    4AU     LIG 1750  14.132   6.944   8.067
    4AU    AUSL 1751  11.667   8.294   7.702
    4AU    AUSL 1752  11.437   8.691   7.778
    4AU     AUL 1753  11.784   8.614   7.780
    4AU       S 1754  11.756   8.890   8.200
    4AU     LIG 1755  12.135   9.029   8.443
    4AU     LIG 1756  12.447   9.294   8.674
    4AU     LIG 1757  12.765   9.543   8.900
    4AU     LIG 1758  13.051   9.910   8.925
    4AU     LIG 1759  13.219  10.343   8.853
    4AU       S 1760  12.177   8.479   7.480
    4AU     LIG 1761  12.569   8.394   7.687
    4AU     LIG 1762  13.022   8.429   7.746
    4AU     LIG 1763  13.476   8.525   7.739
    4AU     LIG 1764  13.857   8.746   7.883
    4AU     LIG 1765  14.140   9.099   7.959
    4AU    AUSL 1766  10.336   8.657   7.520
    4AU    AUSL 1767  10.343   8.467   7.947
    4AU     AUL 1768  10.034   8.657   7.734
    4AU       S 1769  10.063   8.598   8.257
    4AU     LIG 1770   9.788   8.856   8.555
    4AU     LIG 1771   9.737   9.095   8.965
    4AU     LIG 1772   9.534   9.133   9.404
    4AU     LIG 1773   9.209   9.240   9.741
    4AU     LIG 1774   8.760   9.277   9.903
    4AU       S 1775  10.171   9.107   7.503
    4AU     LIG 1776   9.763   9.248   7.273
    4AU     LIG 1777   9.307   9.424   7.314
    4AU     LIG 1778   8.961   9.736   7.440
    4AU     LIG 1779   8.674  10.084   7.575
    4AU     LIG 1780   8.230  10.078   7.519
    4AU    AUSL 1781  10.225   8.335   7.302
    4AU    AUSL 1782  10.472   8.734   7.208
    4AU     AUL 1783  10.101   8.640   7.244
    4AU       S 1784   9.856   8.256   6.939
    4AU     LIG 1785   9.526   8.634   6.856
    4AU     LIG 1786   9.119   8.918   6.866
    4AU     LIG 1787   8.651   9.067   6.794
    4AU     LIG 1788   8.187   9.220   6.869
    4AU     LIG 1789   7.724   9.422   6.935
    4AU       S 1790  10.195   9.086   7.000
    4AU     LIG 1791   9.901   9.270   6.697
    4AU     LIG 1792   9.822   9.463   6.274
    4AU     LIG 1793   9.754   9.844   6.000
    4AU     LIG 1794   9.526  10.269   5.973
    4AU     LIG 1795   9.156  10.522   6.122
    4AU    AUSL 1796  10.195   8.333   7.673
    4AU    AUSL 1797  10.139   8.011   7.335
    4AU     AUL 1798   9.912   8.358   7.451
    4AU       S 1799   9.662   7.905   7.384
    4AU     LIG 1800   9.211   7.700   7.356
    4AU     LIG 1801   8.794   7.629   7.523
    4AU     LIG 1802   8.344   7.655   7.389
    4AU     LIG 1803   7.909   7.549   7.180
    4AU     LIG 1804   7.487   7.320   7.143
    4AU       S 1805   9.820   8.245   7.988
    4AU     LIG 1806   9.403   8.449   8.025
    4AU     LIG 1807   8.941   8.467   8.092
    4AU     LIG 1808   8.591   8.716   8.282
    4AU     LIG 1809   8.132   8.659   8.202
    4AU     LIG 1810   7.696   8.629   8.061
    4AU    AUSL 1811  11.541   7.635   7.563
    4AU    AUSL 1812  11.473   7.796   7.918
    4AU     AUL 1813  11.791   7.823   7.933
    4AU       S 1814  11.935   7.430   7.604
    4AU     LIG 1815  12.109   7.024   7.666
    4AU     LIG 1816  12.527   6.835   7.564
    4AU     LIG 1817  12.989   6.683   7.516
    4AU     LIG 1818  13.468   6.570   7.471
    4AU     LIG 1819  13.913   6.367   7.535
    4AU       S 1820  11.727   7.335   8.048
    4AU     LIG 1821  11.991   7.048   8.283
    4AU     LIG 1822  12.106   6.805   8.666
    4AU     LIG 1823  12.394   6.563   8.937
    4AU     LIG 1824  12.744   6.500   9.239
    4AU     LIG 1825  13.033   6.681   9.573
    4AU    AUSL 1826  11.666   7.889   7.316
    4AU    AUSL 1827  11.355   7.550   7.234
    4AU     AUL 1828  11.664   7.543   7.200
    4AU       S 1829  12.103   7.735   7.351
    4AU     LIG 1830  12.375   7.320   7.278
    4AU     LIG 1831  12.827   7.152   7.290
    4AU     LIG 1832  13.277   7.003   7.228
    4AU     LIG 1833  13.748   6.947   7.258
    4AU     LIG 1834  14.166   7.108   7.094
    4AU       S 1835  11.632   7.329   6.748
    4AU     LIG 1836  11.807   6.917   6.610
    4AU     LIG 1837  12.004   6.511   6.461
    4AU     LIG 1838  12.300   6.224   6.216
    4AU     LIG 1839  12.614   5.878   6.096
    4AU     LIG 1840  12.922   5.548   5.920
    4AU    AUSL 1841  10.268   7.706   7.508
    4AU    AUSL 1842  10.324   7.904   7.057
    4AU     AUL 1843  10.084   7.654   7.234
    4AU       S 1844  10.062   7.792   6.733
    4AU     LIG 1845   9.643   7.560   6.710
    4AU     LIG 1846   9.441   7.164   6.620
    4AU     LIG 1847   9.205   6.991   6.275
    4AU     LIG 1848   8.964   6.726   5.994
    4AU     LIG 1849   8.647   6.564   5.704
    4AU       S 1850   9.682   7.671   7.525
    4AU     LIG 1851   9.389   7.451   7.785
    4AU     LIG 1852   9.032   7.181   7.815
    4AU     LIG 1853   8.588   7.173   7.625
    4AU     LIG 1854   8.128   7.206   7.516
    4AU     LIG 1855   7.844   6.962   7.241
    4AU    AUSL 1856  10.170   7.998   7.685
    4AU    AUSL 1857  10.418   7.585   7.808
    4AU     AUL 1858  10.091   7.688   7.811
    4AU       S 1859  10.120   7.312   8.134
    4AU     LIG 1860   9.716   7.074   8.007
    4AU     LIG 1861   9.349   6.772   8.022
    4AU     LIG 1862   9.138   6.461   8.332
    4AU     LIG 1863   8.937   6.178   8.685
    4AU     LIG 1864   8.644   5.808   8.847
    4AU       S 1865   9.675   7.917   7.629
    4AU     LIG 1866   9.250   8.089   7.686
    4AU     LIG 1867   8.795   8.082   7.751
    4AU     LIG 1868   8.345   7.963   7.819
    4AU     LIG 1869   8.012   7.672   7.836
    4AU     LIG 1870   7.706   7.433   8.094
    4AU    AUSL 1871  10.955   8.790   7.952
    4AU    AUSL 1872  10.516   8.765   7.806
    4AU     AUL 1873  10.708   8.886   8.182
    4AU       S 1874  10.265   9.081   7.995
    4AU     LIG 1875   9.997   9.316   8.368
    4AU     LIG 1876   9.872   9.573   8.765
    4AU     LIG 1877   9.761  10.023   8.945
    4AU     LIG 1878   9.629  10.518   8.945
    4AU     LIG 1879   9.286  10.874   9.001
    4AU       S 1880  10.949   9.309   8.024
    4AU     LIG 1881  11.093   9.624   8.331
    4AU     LIG 1882  10.973  10.046   8.496
    4AU     LIG 1883  11.037  10.394   8.795
    4AU     LIG 1884  11.105  10.720   9.111
    4AU     LIG 1885  11.046  11.027   9.461
    4AU    AUSL 1886  10.788   8.900   7.643
    4AU    AUSL 1887  11.120   8.918   7.318
    4AU     AUL 1888  10.714   9.140   7.376
    4AU       S 1889  10.763   9.328   7.841
    4AU     LIG 1890  10.827   9.813   7.937
    4AU     LIG 1891  10.867  10.280   8.043
    4AU     LIG 1892  10.850  10.722   8.167
    4AU     LIG 1893  10.514  11.048   8.142
    4AU     LIG 1894  10.262  11.449   8.228
    4AU       S 1895  11.208   9.318   7.226
    4AU     LIG 1896  11.431   9.689   7.058
    4AU     LIG 1897  11.485  10.064   6.782
    4AU     LIG 1898  11.431  10.511   6.592
    4AU     LIG 1899  11.538  10.988   6.663
    4AU     LIG 1900  11.660  11.460   6.766
    4AU    AUSL 1901  11.153   8.882   7.661
    4AU    AUSL 1902  11.241   8.614   8.066
    4AU     AUL 1903  11.302   8.955   7.977
    4AU       S 1904  11.556   8.802   8.402
    4AU     LIG 1905  11.837   8.793   8.781
    4AU     LIG 1906  12.161   9.033   9.012
    4AU     LIG 1907  12.380   9.395   9.226
    4AU     LIG 1908  12.431   9.672   9.612
    4AU     LIG 1909  12.210   9.950   9.953
    4AU       S 1910  11.086   9.343   7.718
    4AU     LIG 1911  11.324   9.686   7.863
    4AU     LIG 1912  11.334  10.052   8.128
    4AU     LIG 1913  11.270  10.460   8.334
    4AU     LIG 1914  11.290  10.927   8.368
    4AU     LIG 1915  11.364  11.393   8.294
    4AU    AUSL 1916  10.909   7.503   7.964
    4AU    AUSL 1917  11.286   7.515   7.804
    4AU     AUL 1918  11.093   7.474   8.252
    4AU       S 1919  11.049   7.006   8.041
    4AU     LIG 1920  10.935   6.635   8.282
    4AU     LIG 1921  10.632   6.284   8.355
    4AU     LIG 1922  10.502   5.828   8.388
    4AU     LIG 1923  10.573   5.384   8.584
    4AU     LIG 1924  10.582   4.964   8.823
    4AU       S 1925  11.526   7.209   7.884
    4AU     LIG 1926  11.702   6.797   7.930
    4AU     LIG 1927  11.897   6.535   8.263
    4AU     LIG 1928  12.087   6.285   8.606
    4AU     LIG 1929  12.346   6.047   8.917
    4AU     LIG 1930  12.745   5.797   8.981
    4AU    AUSL 1931  10.704   7.459   7.679
    4AU    AUSL 1932  10.628   7.679   8.088
    4AU     AUL 1933  10.611   7.317   7.998
    4AU       S 1934  10.871   6.897   7.823
    4AU     LIG 1935  10.578   6.555   7.898
    4AU     LIG 1936  10.366   6.150   7.926
    4AU     LIG 1937  10.359   5.697   7.900
    4AU     LIG 1938  10.305   5.331   8.149
    4AU     LIG 1939  10.442   4.941   8.328
    4AU       S 1940  10.293   7.407   8.394
    4AU     LIG 1941   9.869   7.139   8.523
    4AU     LIG 1942   9.584   6.773   8.489
    4AU     LIG 1943   9.372   6.473   8.790
    4AU     LIG 1944   9.178   6.272   9.173
    4AU     LIG 1945   9.200   6.075   9.609
    4AU    AUSL 1946  11.018   7.359   7.653
    4AU    AUSL 1947  10.698   7.396   7.330
    4AU     AUL 1948  10.556   7.215   7.612
    4AU       S 1949  10.711   6.922   7.229
    4AU     LIG 1950  10.472   6.505   7.124
    4AU     LIG 1951  10.301   6.054   7.037
    4AU     LIG 1952  10.227   5.595   6.935
    4AU     LIG 1953  10.153   5.153   6.806
    4AU     LIG 1954  10.129   4.743   6.579
    4AU       S 1955  11.119   6.962   7.766
    4AU     LIG 1956  11.074   6.441   7.823
    4AU     LIG 1957  10.859   6.001   7.986
    4AU     LIG 1958  10.805   5.515   8.122
    4AU     LIG 1959  10.939   5.053   8.207
    4AU     LIG 1960  11.339   4.790   8.120
    4AU    AUSL 1961  10.982   8.765   6.996
    4AU    AUSL 1962  11.374   8.694   7.239
    4AU     AUL 1963  11.316   8.889   6.969
    4AU       S 1964  11.054   9.284   6.836
    4AU     LIG 1965  11.247   9.613   6.579
    4AU     LIG 1966  11.151  10.027   6.400
    4AU     LIG 1967  11.184  10.374   6.093
    4AU     LIG 1968  11.117  10.625   5.689
    4AU     LIG 1969  11.111  11.068   5.514
    4AU       S 1970  11.825   8.836   6.895
    4AU     LIG 1971  12.173   9.066   6.677
    4AU     LIG 1972  12.406   9.291   6.332
    4AU     LIG 1973  12.674   9.513   6.021
    4AU     LIG 1974  12.949   9.864   5.894
    4AU     LIG 1975  13.108  10.299   5.907
    4AU    AUSL 1976  10.797   8.820   7.296
    4AU    AUSL 1977  10.663   8.620   6.920
    4AU     AUL 1978  10.688   8.970   7.001
    4AU       S 1979  11.004   9.388   7.068
    4AU     LIG 1980  10.954   9.852   6.923
    4AU     LIG 1981  11.031  10.299   6.828
    4AU     LIG 1982  10.855  10.712   6.724
    4AU     LIG 1983  10.641  11.142   6.724
    4AU     LIG 1984  10.478  11.572   6.845
    4AU       S 1985  10.278   8.911   6.703
    4AU     LIG 1986  10.182   9.088   6.273
    4AU     LIG 1987  10.112   9.323   5.859
    4AU     LIG 1988   9.912   9.409   5.432
    4AU     LIG 1989   9.855   9.654   5.021
    4AU     LIG 1990   9.799  10.083   4.822
    4AU    AUSL 1991  10.888   7.498   7.038
    4AU    AUSL 1992  10.436   7.594   7.210
    4AU     AUL 1993  10.577   7.364   6.963
    4AU       S 1994  10.118   7.455   6.786
    4AU     LIG 1995   9.868   7.079   6.902
    4AU     LIG 1996   9.515   6.776   6.926
    4AU     LIG 1997   9.258   6.578   6.579
    4AU     LIG 1998   9.035   6.272   6.286
    4AU     LIG 1999   8.811   5.840   6.223
    4AU       S 2000  10.861   6.942   7.003
    4AU     LIG 2001  10.845   6.547   6.779
    4AU     LIG 2002  10.556   6.216   6.623
    4AU     LIG 2003  10.419   5.789   6.484
    4AU     LIG 2004  10.451   5.517   6.094
    4AU     LIG 2005  10.647   5.373   5.692
    4AU    AUSL 2006  11.064   7.381   7.323
    4AU    AUSL 2007  11.179   7.647   6.928
    4AU     AUL 2008  11.212   7.301   7.016
    4AU       S 2009  10.998   6.926   7.292
    4AU     LIG 2010  10.956   6.468   7.298
    4AU     LIG 2011  10.817   6.090   7.050
    4AU     LIG 2012  10.801   5.663   6.832
    4AU     LIG 2013  11.102   5.273   6.749
    4AU     LIG 2014  11.465   4.931   6.699
    4AU       S 2015  11.414   7.484   6.575
    4AU     LIG 2016  11.475   7.153   6.271
    4AU     LIG 2017  11.620   6.736   6.157
    4AU     LIG 2018  11.912   6.450   5.953
    4AU     LIG 2019  12.203   6.201   5.682
    4AU     LIG 2020  12.316   6.098   5.229
    5AU     AUC 2021  34.690   7.164   7.507
    5AU     AUC 2022  34.963   7.145   7.348
    5AU     AUC 2023  34.956   7.149   7.674
    5AU     AUC 2024  34.426   7.179   7.334
    5AU     AUC 2025  34.419   7.182   7.670
    5AU     AUC 2026  34.541   7.439   7.498
    5AU     AUC 2027  34.873   7.421   7.506
    5AU     AUC 2028  34.505   6.909   7.508
    5AU     AUC 2029  34.835   6.885   7.509
    5AU     AUC 2030  34.675   7.004   7.778
    5AU     AUC 2031  34.699   7.332   7.773
    5AU     AUC 2032  34.689   6.996   7.241
    5AU     AUC 2033  34.705   7.324   7.234
    5AU     AUC 2034  35.232   7.136   7.194
    5AU     AUC 2035  35.236   7.125   7.511
    5AU     AUC 2036  35.214   7.131   7.829
    5AU     AUC 2037  34.174   7.185   7.161
    5AU     AUC 2038  34.143   7.189   7.499
    5AU     AUC 2039  34.156   7.200   7.828
    5AU     AUC 2040  34.400   7.704   7.493
    5AU     AUC 2041  34.729   7.707   7.494
    5AU     AUC 2042  35.044   7.675   7.502
    5AU     AUC 2043  34.329   6.665   7.507
    5AU     AUC 2044  34.649   6.620   7.503
    5AU     AUC 2045  34.972   6.610   7.518
    5AU     AUC 2046  34.670   6.847   8.040
    5AU     AUC 2047  34.689   7.168   8.059
    5AU     AUC 2048  34.702   7.494   8.020
    5AU     AUC 2049  34.704   6.836   6.987
    5AU     AUC 2050  34.723   7.158   6.964
    5AU     AUC 2051  34.720   7.474   6.965
    5AU     AUC 2052  34.954   6.986   7.947
    5AU     AUC 2053  34.981   7.318   7.955
    5AU     AUC 2054  34.977   6.985   7.076
    5AU     AUC 2055  34.989   7.314   7.076
    5AU     AUC 2056  34.399   7.019   7.963
    5AU     AUC 2057  34.418   7.347   7.944
    5AU     AUC 2058  34.424   7.011   7.064
    5AU     AUC 2059  34.432   7.338   7.042
    5AU     AUC 2060  35.153   7.400   7.355
    5AU     AUC 2061  35.147   7.414   7.683
    5AU     AUC 2062  34.269   7.463   7.320
    5AU     AUC 2063  34.263   7.470   7.668
    5AU     AUC 2064  35.121   6.857   7.351
    5AU     AUC 2065  35.101   6.857   7.674
    5AU     AUC 2066  34.228   6.920   7.333
    5AU     AUC 2067  34.227   6.922   7.682
    5AU     AUC 2068  34.549   7.620   7.765
    5AU     AUC 2069  34.889   7.602   7.774
    5AU     AUC 2070  34.487   6.743   7.791
    5AU     AUC 2071  34.810   6.709   7.776
    5AU     AUC 2072  34.548   7.600   7.207
    5AU     AUC 2073  34.881   7.596   7.226
    5AU     AUC 2074  34.498   6.728   7.233
    5AU     AUC 2075  34.836   6.707   7.236
    5AU    AUSL 2076  35.199   7.095   8.124
    5AU    AUSL 2077  34.930   6.723   8.064
    5AU     AUL 2078  35.208   6.732   8.284
    5AU       S 2079  35.253   6.214   8.144
    5AU     LIG 2080  35.187   5.815   8.328
    5AU     LIG 2081  35.320   5.574   8.677
    5AU     LIG 2082  35.558   5.376   9.015
    5AU     LIG 2083  35.825   5.242   9.361
    5AU     LIG 2084  35.831   5.003   9.752
    5AU       S 2085  35.538   7.086   8.479
    5AU     LIG 2086  35.631   7.224   8.914
    5AU     LIG 2087  35.716   6.959   9.302
    5AU     LIG 2088  36.017   6.737   9.612
    5AU     LIG 2089  36.350   6.706   9.961
    5AU     LIG 2090  36.662   6.739  10.326
    5AU    AUSL 2091  34.881   7.003   8.267
    5AU    AUSL 2092  34.518   7.330   8.269
    5AU     AUL 2093  34.754   7.194   8.553
    5AU       S 2094  35.213   6.986   8.716
    5AU     LIG 2095  35.257   6.749   9.121
    5AU     LIG 2096  35.228   6.415   9.465
    5AU     LIG 2097  35.319   6.238   9.900
    5AU     LIG 2098  35.333   6.243  10.366
    5AU     LIG 2099  35.375   6.360  10.826
    5AU       S 2100  34.266   7.249   8.742
    5AU     LIG 2101  34.010   7.169   9.138
    5AU     LIG 2102  33.967   6.949   9.556
    5AU     LIG 2103  33.798   6.985  10.004
    5AU     LIG 2104  33.804   7.245  10.416
    5AU     LIG 2105  33.991   7.512  10.782
    5AU    AUSL 2106  34.847   7.379   8.232
    5AU    AUSL 2107  35.281   7.414   7.998
    5AU     AUL 2108  35.124   7.339   8.356
    5AU       S 2109  34.849   7.719   8.589
    5AU     LIG 2110  35.133   7.693   8.978
    5AU     LIG 2111  35.270   7.754   9.444
    5AU     LIG 2112  35.295   7.853   9.927
    5AU     LIG 2113  35.350   7.863  10.408
    5AU     LIG 2114  35.373   7.915  10.894
    5AU       S 2115  35.556   7.602   8.297
    5AU     LIG 2116  35.910   7.483   8.535
    5AU     LIG 2117  36.192   7.730   8.790
    5AU     LIG 2118  36.413   8.035   9.064
    5AU     LIG 2119  36.649   8.336   9.324
    5AU     LIG 2120  37.042   8.385   9.577
    5AU    AUSL 2121  35.175   7.241   6.880
    5AU    AUSL 2122  35.023   7.555   6.942
    5AU     AUL 2123  34.969   7.596   6.628
    5AU       S 2124  35.342   7.255   6.437
    5AU     LIG 2125  35.664   7.067   6.150
    5AU     LIG 2126  35.718   6.821   5.764
    5AU     LIG 2127  35.805   6.718   5.312
    5AU     LIG 2128  36.109   6.657   4.959
    5AU     LIG 2129  36.552   6.608   4.755
    5AU       S 2130  35.473   7.678   6.673
    5AU     LIG 2131  35.680   7.892   6.334
    5AU     LIG 2132  35.860   8.112   5.966
    5AU     LIG 2133  36.101   8.446   5.746
    5AU     LIG 2134  36.233   8.724   5.388
    5AU     LIG 2135  36.227   9.019   5.029
    5AU    AUSL 2136  34.990   6.964   6.802
    5AU    AUSL 2137  35.233   6.847   7.042
    5AU     AUL 2138  35.446   7.027   6.885
    5AU       S 2139  35.428   6.570   6.650
    5AU     LIG 2140  35.586   6.204   6.332
    5AU     LIG 2141  35.804   5.788   6.300
    5AU     LIG 2142  36.096   5.536   6.034
    5AU     LIG 2143  36.358   5.591   5.645
    5AU     LIG 2144  36.762   5.745   5.448
    5AU       S 2145  35.240   6.966   6.395
    5AU     LIG 2146  35.358   6.614   6.104
    5AU     LIG 2147  35.356   6.484   5.631
    5AU     LIG 2148  35.391   6.466   5.142
    5AU     LIG 2149  35.413   6.305   4.679
    5AU     LIG 2150  35.632   6.311   4.252
    5AU    AUSL 2151  34.862   7.269   6.732
    5AU    AUSL 2152  34.586   7.007   6.778
    5AU     AUL 2153  34.774   6.862   6.556
    5AU       S 2154  34.428   7.107   6.271
    5AU     LIG 2155  34.256   6.833   5.931
    5AU     LIG 2156  34.073   6.585   5.592
    5AU     LIG 2157  33.884   6.510   5.186
    5AU     LIG 2158  33.838   6.212   4.827
    5AU     LIG 2159  33.791   6.095   4.378
    5AU       S 2160  35.060   7.213   6.293
    5AU     LIG 2161  35.228   7.048   5.866
    5AU     LIG 2162  35.352   6.954   5.409
    5AU     LIG 2163  35.499   7.031   4.959
    5AU     LIG 2164  35.509   7.342   4.567
    5AU     LIG 2165  35.582   7.577   4.141
    5AU    AUSL 2166  34.207   7.245   8.146
    5AU    AUSL 2167  34.426   7.603   8.052
    5AU     AUL 2168  34.333   7.591   8.379
    5AU       S 2169  33.993   7.258   8.598
    5AU     LIG 2170  33.797   6.890   8.757
    5AU     LIG 2171  33.611   6.819   9.163
    5AU     LIG 2172  33.494   6.751   9.609
    5AU     LIG 2173  33.307   6.800  10.022
    5AU     LIG 2174  32.929   6.899  10.283
    5AU       S 2175  33.955   7.905   8.224
    5AU     LIG 2176  33.799   7.990   8.659
    5AU     LIG 2177  33.718   8.189   9.089
    5AU     LIG 2178  33.665   8.566   9.373
    5AU     LIG 2179  33.627   8.757   9.820
    5AU     LIG 2180  33.414   8.898  10.229
    5AU    AUSL 2181  34.527   6.978   8.273
    5AU    AUSL 2182  34.082   6.932   7.971
    5AU     AUL 2183  34.194   6.943   8.276
    5AU       S 2184  33.757   6.707   8.271
    5AU     LIG 2185  33.457   6.553   8.561
    5AU     LIG 2186  33.184   6.195   8.581
    5AU     LIG 2187  32.913   5.838   8.683
    5AU     LIG 2188  32.677   5.585   8.994
    5AU     LIG 2189  32.459   5.612   9.411
    5AU       S 2190  34.306   6.985   8.750
    5AU     LIG 2191  34.129   6.669   9.071
    5AU     LIG 2192  33.898   6.456   9.425
    5AU     LIG 2193  33.828   6.475   9.885
    5AU     LIG 2194  33.726   6.554  10.327
    5AU     LIG 2195  33.753   6.395  10.776
    5AU    AUSL 2196  34.261   7.130   6.829
    5AU    AUSL 2197  34.391   6.749   6.947
    5AU     AUL 2198  34.416   6.747   6.628
    5AU       S 2199  34.146   7.094   6.358
    5AU     LIG 2200  33.787   7.051   6.053
    5AU     LIG 2201  33.612   6.797   5.694
    5AU     LIG 2202  33.426   6.752   5.270
    5AU     LIG 2203  33.017   6.786   5.025
    5AU     LIG 2204  32.749   6.997   4.698
    5AU       S 2205  33.945   6.573   6.638
    5AU     LIG 2206  33.669   6.152   6.491
    5AU     LIG 2207  33.414   5.770   6.414
    5AU     LIG 2208  33.211   5.497   6.083
    5AU     LIG 2209  33.295   5.312   5.643
    5AU     LIG 2210  33.247   5.192   5.184
    5AU    AUSL 2211  34.539   7.362   6.751
    5AU    AUSL 2212  34.135   7.464   7.010
    5AU     AUL 2213  34.212   7.467   6.676
    5AU       S 2214  33.784   7.718   6.729
    5AU     LIG 2215  33.501   7.760   6.369
    5AU     LIG 2216  33.353   7.943   5.979
    5AU     LIG 2217  33.105   8.052   5.590
    5AU     LIG 2218  32.731   8.206   5.329
    5AU     LIG 2219  32.339   8.493   5.279
    5AU       S 2220  34.506   7.336   6.287
    5AU     LIG 2221  34.193   7.353   5.901
    5AU     LIG 2222  34.002   7.100   5.553
    5AU     LIG 2223  33.872   7.036   5.104
    5AU     LIG 2224  33.923   7.262   4.669
    5AU     LIG 2225  34.008   7.524   4.264
    5AU    AUSL 2226  35.355   7.571   7.483
    5AU    AUSL 2227  35.329   7.441   7.132
    5AU     AUL 2228  35.426   7.870   7.357
    5AU       S 2229  35.619   7.552   6.885
    5AU     LIG 2230  35.992   7.558   6.633
    5AU     LIG 2231  36.168   7.755   6.245
    5AU     LIG 2232  36.371   8.030   5.921
    5AU     LIG 2233  36.699   8.292   5.727
    5AU     LIG 2234  36.751   8.676   5.485
    5AU       S 2235  35.867   7.618   7.309
    5AU     LIG 2236  36.362   7.740   7.304
    5AU     LIG 2237  36.840   7.730   7.430
    5AU     LIG 2238  37.214   8.023   7.529
    5AU     LIG 2239  37.536   8.395   7.511
    5AU     LIG 2240  37.911   8.688   7.610
    5AU    AUSL 2241  35.482   7.238   7.375
    5AU    AUSL 2242  35.422   6.966   7.664
    5AU     AUL 2243  35.721   7.130   7.755
    5AU       S 2244  35.857   7.297   7.251
    5AU     LIG 2245  36.274   7.311   7.049
    5AU     LIG 2246  36.749   7.373   7.064
    5AU     LIG 2247  37.212   7.377   7.221
    5AU     LIG 2248  37.666   7.524   7.192
    5AU     LIG 2249  38.014   7.819   7.086
    5AU       S 2250  35.871   6.666   7.585
    5AU     LIG 2251  36.263   6.487   7.775
    5AU     LIG 2252  36.657   6.244   7.789
    5AU     LIG 2253  37.104   6.140   7.894
    5AU     LIG 2254  37.530   6.144   8.117
    5AU     LIG 2255  37.963   6.192   8.337
    5AU    AUSL 2256  35.427   7.313   7.705
    5AU    AUSL 2257  35.203   7.707   7.779
    5AU     AUL 2258  35.553   7.630   7.779
    5AU       S 2259  35.517   7.898   8.205
    5AU     LIG 2260  35.903   7.999   8.433
    5AU     LIG 2261  36.237   8.240   8.625
    5AU     LIG 2262  36.451   8.544   8.891
    5AU     LIG 2263  36.662   8.948   8.988
    5AU     LIG 2264  36.873   9.372   9.025
    5AU       S 2265  35.954   7.475   7.487
    5AU     LIG 2266  36.392   7.359   7.638
    5AU     LIG 2267  36.837   7.383   7.814
    5AU     LIG 2268  37.269   7.535   7.707
    5AU     LIG 2269  37.714   7.499   7.800
    5AU     LIG 2270  38.023   7.797   7.970
    5AU    AUSL 2271  34.105   7.683   7.514
    5AU    AUSL 2272  34.103   7.500   7.934
    5AU     AUL 2273  33.797   7.685   7.715
    5AU       S 2274  33.818   7.630   8.239
    5AU     LIG 2275  33.485   7.561   8.560
    5AU     LIG 2276  33.402   7.813   8.935
    5AU     LIG 2277  33.174   8.007   9.274
    5AU     LIG 2278  32.768   8.113   9.488
    5AU     LIG 2279  32.430   8.403   9.661
    5AU       S 2280  33.950   8.137   7.492
    5AU     LIG 2281  33.480   8.222   7.451
    5AU     LIG 2282  33.060   8.454   7.476
    5AU     LIG 2283  32.740   8.810   7.524
    5AU     LIG 2284  32.347   9.008   7.694
    5AU     LIG 2285  31.931   9.085   7.918
    5AU    AUSL 2286  33.991   7.367   7.299
    5AU    AUSL 2287  34.243   7.763   7.204
    5AU     AUL 2288  33.870   7.672   7.238
    5AU       S 2289  33.629   7.281   6.932
    5AU     LIG 2290  33.272   7.591   6.803
    5AU     LIG 2291  32.836   7.831   6.782
    5AU     LIG 2292  32.353   7.814   6.654
    5AU     LIG 2293  31.866   7.913   6.611
    5AU     LIG 2294  31.481   8.226   6.639
    5AU       S 2295  33.962   8.111   6.986
    5AU     LIG 2296  33.622   8.220   6.660
    5AU     LIG 2297  33.597   8.508   6.283
    5AU     LIG 2298  33.566   8.958   6.105
    5AU     LIG 2299  33.329   9.379   6.073
    5AU     LIG 2300  32.902   9.603   6.098
    5AU    AUSL 2301  33.954   7.356   7.667
    5AU    AUSL 2302  33.903   7.044   7.331
    5AU     AUL 2303  33.676   7.392   7.444
    5AU       S 2304  33.421   6.954   7.356
    5AU     LIG 2305  33.165   6.628   7.104
    5AU     LIG 2306  32.732   6.468   7.141
    5AU     LIG 2307  32.270   6.455   7.265
    5AU     LIG 2308  31.803   6.379   7.341
    5AU     LIG 2309  31.416   6.361   7.091
    5AU       S 2310  33.573   7.281   7.983
    5AU     LIG 2311  33.285   7.635   8.080
    5AU     LIG 2312  32.958   7.855   8.334
    5AU     LIG 2313  32.506   7.704   8.428
    5AU     LIG 2314  32.050   7.868   8.317
    5AU     LIG 2315  31.698   8.092   8.044
    5AU    AUSL 2316  35.304   6.654   7.567
    5AU    AUSL 2317  35.232   6.814   7.917
    5AU     AUL 2318  35.548   6.830   7.942
    5AU       S 2319  35.705   6.457   7.605
    5AU     LIG 2320  35.901   6.103   7.781
    5AU     LIG 2321  36.300   5.888   7.678
    5AU     LIG 2322  36.767   5.759   7.616
    5AU     LIG 2323  37.148   5.463   7.538
    5AU     LIG 2324  37.496   5.118   7.580
    5AU       S 2325  35.485   6.337   8.045
    5AU     LIG 2326  35.691   5.987   8.292
    5AU     LIG 2327  35.813   5.702   8.643
    5AU     LIG 2328  36.066   5.426   8.930
    5AU     LIG 2329  36.380   5.446   9.277
    5AU     LIG 2330  36.716   5.718   9.497
    5AU    AUSL 2331  35.426   6.907   7.319
    5AU    AUSL 2332  35.119   6.574   7.249
    5AU     AUL 2333  35.431   6.563   7.201
    5AU       S 2334  35.868   6.763   7.353
    5AU     LIG 2335  36.138   6.340   7.306
    5AU     LIG 2336  36.544   6.106   7.285
    5AU     LIG 2337  36.993   6.166   7.385
    5AU     LIG 2338  37.416   6.093   7.191
    5AU     LIG 2339  37.846   6.104   6.919
    5AU       S 2340  35.390   6.323   6.765
    5AU     LIG 2341  35.435   5.843   6.701
    5AU     LIG 2342  35.559   5.405   6.547
    5AU     LIG 2343  35.817   5.138   6.250
    5AU     LIG 2344  36.232   5.002   6.085
    5AU     LIG 2345  36.449   4.572   6.118
    5AU    AUSL 2346  34.045   6.749   7.503
    5AU    AUSL 2347  34.088   6.925   7.055
    5AU     AUL 2348  33.849   6.686   7.257
    5AU       S 2349  33.813   6.801   6.749
    5AU     LIG 2350  33.406   6.578   6.627
    5AU     LIG 2351  33.141   6.203   6.564
    5AU     LIG 2352  32.918   5.875   6.308
    5AU     LIG 2353  32.692   5.631   5.975
    5AU     LIG 2354  32.346   5.652   5.641
    5AU       S 2355  33.438   6.754   7.521
    5AU     LIG 2356  33.272   6.323   7.503
    5AU     LIG 2357  32.964   6.043   7.305
    5AU     LIG 2358  32.490   5.990   7.254
    5AU     LIG 2359  32.020   5.893   7.337
    5AU     LIG 2360  31.792   5.536   7.537
    5AU    AUSL 2361  33.917   7.020   7.683
    5AU    AUSL 2362  34.181   6.629   7.813
    5AU     AUL 2363  33.858   6.662   7.765
    5AU       S 2364  33.862   6.451   8.213
    5AU     LIG 2365  33.450   6.233   8.132
    5AU     LIG 2366  33.185   5.829   8.208
    5AU     LIG 2367  33.039   5.413   8.425
    5AU     LIG 2368  32.781   5.090   8.690
    5AU     LIG 2369  32.507   4.678   8.786
    5AU       S 2370  33.430   6.952   7.635
    5AU     LIG 2371  32.958   6.750   7.557
    5AU     LIG 2372  32.571   6.877   7.405
    5AU     LIG 2373  32.121   6.873   7.515
    5AU     LIG 2374  31.682   6.774   7.679
    5AU     LIG 2375  31.316   6.506   7.859
    5AU    AUSL 2376  34.719   7.811   7.951
    5AU    AUSL 2377  34.285   7.793   7.800
    5AU     AUL 2378  34.469   7.905   8.184
    5AU       S 2379  34.039   8.104   7.977
    5AU     LIG 2380  33.754   8.358   8.289
    5AU     LIG 2381  33.658   8.547   8.717
    5AU     LIG 2382  33.551   8.970   8.921
    5AU     LIG 2383  33.349   9.408   8.840
    5AU     LIG 2384  32.995   9.723   8.974
    5AU       S 2385  34.717   8.321   8.026
    5AU     LIG 2386  34.905   8.578   8.355
    5AU     LIG 2387  34.980   8.987   8.556
    5AU     LIG 2388  35.029   9.300   8.907
    5AU     LIG 2389  35.127   9.608   9.260
    5AU     LIG 2390  35.109   9.925   9.620
    5AU    AUSL 2391  34.560   7.925   7.639
    5AU    AUSL 2392  34.896   7.937   7.316
    5AU     AUL 2393  34.500   8.172   7.372
    5AU       S 2394  34.535   8.346   7.843
    5AU     LIG 2395  34.628   8.810   7.975
    5AU     LIG 2396  34.683   9.219   8.186
    5AU     LIG 2397  34.370   9.573   8.274
    5AU     LIG 2398  34.115   9.962   8.332
    5AU     LIG 2399  34.071  10.440   8.439
    5AU       S 2400  34.997   8.337   7.222
    5AU     LIG 2401  35.239   8.690   7.010
    5AU     LIG 2402  35.261   9.127   6.792
    5AU     LIG 2403  35.470   9.590   6.802
    5AU     LIG 2404  35.757  10.009   6.882
    5AU     LIG 2405  35.860  10.430   6.653
    5AU    AUSL 2406  34.923   7.902   7.661
    5AU    AUSL 2407  35.002   7.630   8.066
    5AU     AUL 2408  35.069   7.970   7.978
    5AU       S 2409  35.314   7.813   8.408
    5AU     LIG 2410  35.598   7.801   8.787
    5AU     LIG 2411  35.893   8.100   8.989
    5AU     LIG 2412  36.116   8.409   9.267
    5AU     LIG 2413  36.113   8.689   9.647
    5AU     LIG 2414  36.049   8.892  10.076
    5AU       S 2415  34.868   8.369   7.725
    5AU     LIG 2416  35.129   8.719   7.913
    5AU     LIG 2417  35.258   9.127   8.132
    5AU     LIG 2418  35.585   9.485   8.214
    5AU     LIG 2419  35.706   9.941   8.296
    5AU     LIG 2420  35.651  10.336   8.545
    5AU    AUSL 2421  34.658   6.521   7.975
    5AU    AUSL 2422  35.047   6.535   7.804
    5AU     AUL 2423  34.866   6.504   8.258
    5AU       S 2424  34.773   6.032   8.073
    5AU     LIG 2425  34.693   5.602   8.314
    5AU     LIG 2426  34.621   5.121   8.386
    5AU     LIG 2427  34.645   4.675   8.530
    5AU     LIG 2428  34.711   4.247   8.703
    5AU     LIG 2429  34.940   3.999   9.028
    5AU       S 2430  35.292   6.217   7.872
    5AU     LIG 2431  35.460   5.788   7.885
    5AU     LIG 2432  35.568   5.466   8.218
    5AU     LIG 2433  35.741   5.202   8.567
    5AU     LIG 2434  36.078   4.939   8.741
    5AU     LIG 2435  36.538   4.825   8.701
    5AU    AUSL 2436  34.455   6.475   7.688
    5AU    AUSL 2437  34.386   6.709   8.091
    5AU     AUL 2438  34.330   6.347   8.007
    5AU       S 2439  34.627   5.933   7.875
    5AU     LIG 2440  34.456   5.535   7.852
    5AU     LIG 2441  34.290   5.127   7.985
    5AU     LIG 2442  34.251   4.728   8.209
    5AU     LIG 2443  34.291   4.298   8.399
    5AU     LIG 2444  34.131   3.868   8.580
    5AU       S 2445  34.029   6.491   8.422
    5AU     LIG 2446  33.722   6.113   8.562
    5AU     LIG 2447  33.430   5.737   8.651
    5AU     LIG 2448  33.171   5.450   8.929
    5AU     LIG 2449  32.995   5.398   9.372
    5AU     LIG 2450  33.009   5.392   9.856
    5AU    AUSL 2451  34.773   6.380   7.662
    5AU    AUSL 2452  34.460   6.420   7.333
    5AU     AUL 2453  34.324   6.221   7.607
    5AU       S 2454  34.494   5.964   7.206
    5AU     LIG 2455  34.240   5.684   6.947
    5AU     LIG 2456  34.247   5.247   6.974
    5AU     LIG 2457  34.319   4.837   6.843
    5AU     LIG 2458  34.356   4.416   6.708
    5AU     LIG 2459  34.454   3.991   6.573
    5AU       S 2460  34.863   6.007   7.776
    5AU     LIG 2461  34.996   5.580   7.919
    5AU     LIG 2462  34.800   5.163   7.909
    5AU     LIG 2463  34.724   4.730   8.000
    5AU     LIG 2464  34.849   4.319   8.201
    5AU     LIG 2465  35.042   3.956   8.442
    5AU    AUSL 2466  34.756   7.787   6.994
    5AU    AUSL 2467  35.145   7.707   7.235
    5AU     AUL 2468  35.092   7.902   6.966
    5AU       S 2469  34.839   8.301   6.827
    5AU     LIG 2470  35.053   8.612   6.535
    5AU     LIG 2471  35.031   9.030   6.310
    5AU     LIG 2472  34.981   9.254   5.871
    5AU     LIG 2473  34.907   9.649   5.596
    5AU     LIG 2474  34.982  10.138   5.598
    5AU       S 2475  35.597   7.834   6.886
    5AU     LIG 2476  35.964   8.062   6.726
    5AU     LIG 2477  36.167   8.260   6.355
    5AU     LIG 2478  36.457   8.527   6.112
    5AU     LIG 2479  36.707   8.893   5.961
    5AU     LIG 2480  37.012   9.263   5.911
    5AU    AUSL 2481  34.569   7.847   7.291
    5AU    AUSL 2482  34.436   7.648   6.922
    5AU     AUL 2483  34.460   8.000   6.998
    5AU       S 2484  34.796   8.405   7.057
    5AU     LIG 2485  34.777   8.864   6.879
    5AU     LIG 2486  34.756   9.311   6.693
    5AU     LIG 2487  34.480   9.729   6.651
    5AU     LIG 2488  34.407  10.201   6.564
    5AU     LIG 2489  34.175  10.617   6.679
    5AU       S 2490  34.048   7.945   6.698
    5AU     LIG 2491  33.904   8.068   6.255
    5AU     LIG 2492  33.808   8.309   5.849
    5AU     LIG 2493  33.850   8.609   5.466
    5AU     LIG 2494  33.794   8.865   5.053
    5AU     LIG 2495  33.607   9.227   4.802
    5AU    AUSL 2496  34.653   6.515   7.040
    5AU    AUSL 2497  34.197   6.615   7.212
    5AU     AUL 2498  34.335   6.393   6.961
    5AU       S 2499  33.846   6.449   6.834
    5AU     LIG 2500  33.455   6.199   6.986
    5AU     LIG 2501  33.193   5.811   6.890
    5AU     LIG 2502  33.027   5.469   6.600
    5AU     LIG 2503  32.811   5.204   6.267
    5AU     LIG 2504  32.685   4.768   6.093
    5AU       S 2505  34.643   5.984   6.964
    5AU     LIG 2506  34.731   5.645   6.661
    5AU     LIG 2507  34.606   5.207   6.582
    5AU     LIG 2508  34.735   4.753   6.538
    5AU     LIG 2509  34.666   4.353   6.274
    5AU     LIG 2510  34.722   4.130   5.852
    5AU    AUSL 2511  34.823   6.407   7.333
    5AU    AUSL 2512  34.945   6.660   6.937
    5AU     AUL 2513  34.992   6.323   7.054
    5AU       S 2514  34.759   5.937   7.292
    5AU     LIG 2515  34.675   5.493   7.143
    5AU     LIG 2516  34.750   5.065   7.046
    5AU     LIG 2517  34.745   4.617   7.044
    5AU     LIG 2518  34.842   4.284   6.767
    5AU     LIG 2519  35.055   3.934   6.607
    5AU       S 2520  35.163   6.479   6.588
    5AU     LIG 2521  35.085   6.077   6.397
    5AU     LIG 2522  35.291   5.711   6.219
    5AU     LIG 2523  35.579   5.470   5.953
    5AU     LIG 2524  35.885   5.183   5.721
    5AU     LIG 2525  36.145   5.229   5.331
    6AU     AUC 2526  14.355  37.229   7.510
    6AU     AUC 2527  14.626  37.209   7.348
    6AU     AUC 2528  14.624  37.214   7.674
    6AU     AUC 2529  14.088  37.242   7.342
    6AU     AUC 2530  14.088  37.246   7.678
    6AU     AUC 2531  14.207  37.504   7.503
    6AU     AUC 2532  14.538  37.486   7.507
    6AU     AUC 2533  14.169  36.972   7.512
    6AU     AUC 2534  14.501  36.949   7.510
    6AU     AUC 2535  14.344  37.068   7.781
    6AU     AUC 2536  14.369  37.397   7.776
    6AU     AUC 2537  14.351  37.060   7.245
    6AU     AUC 2538  14.366  37.389   7.237
    6AU     AUC 2539  14.892  37.201   7.192
    6AU     AUC 2540  14.902  37.188   7.508
    6AU     AUC 2541  14.884  37.196   7.829
    6AU     AUC 2542  13.835  37.247   7.172
    6AU     AUC 2543  13.811  37.255   7.510
    6AU     AUC 2544  13.833  37.266   7.842
    6AU     AUC 2545  14.065  37.770   7.501
    6AU     AUC 2546  14.394  37.772   7.497
    6AU     AUC 2547  14.708  37.739   7.501
    6AU     AUC 2548  13.988  36.727   7.513
    6AU     AUC 2549  14.315  36.685   7.501
    6AU     AUC 2550  14.638  36.673   7.515
    6AU     AUC 2551  14.340  36.913   8.044
    6AU     AUC 2552  14.361  37.234   8.062
    6AU     AUC 2553  14.378  37.562   8.023
    6AU     AUC 2554  14.363  36.901   6.991
    6AU     AUC 2555  14.382  37.223   6.967
    6AU     AUC 2556  14.377  37.538   6.967
    6AU     AUC 2557  14.623  37.052   7.950
    6AU     AUC 2558  14.653  37.385   7.952
    6AU     AUC 2559  14.638  37.051   7.077
    6AU     AUC 2560  14.648  37.380   7.076
    6AU     AUC 2561  14.074  37.082   7.971
    6AU     AUC 2562  14.093  37.413   7.953
    6AU     AUC 2563  14.084  37.073   7.073
    6AU     AUC 2564  14.090  37.399   7.049
    6AU     AUC 2565  14.815  37.465   7.351
    6AU     AUC 2566  14.817  37.478   7.680
    6AU     AUC 2567  13.932  37.527   7.330
    6AU     AUC 2568  13.933  37.536   7.679
    6AU     AUC 2569  14.785  36.919   7.349
    6AU     AUC 2570  14.768  36.921   7.675
    6AU     AUC 2571  13.886  36.980   7.346
    6AU     AUC 2572  13.895  36.980   7.689
    6AU     AUC 2573  14.219  37.687   7.770
    6AU     AUC 2574  14.560  37.669   7.774
    6AU     AUC 2575  14.154  36.807   7.795
    6AU     AUC 2576  14.481  36.777   7.776
    6AU     AUC 2577  14.207  37.663   7.211
    6AU     AUC 2578  14.541  37.661   7.227
    6AU     AUC 2579  14.157  36.792   7.238
    6AU     AUC 2580  14.498  36.770   7.235
    6AU    AUSL 2581  14.863  37.164   8.128
    6AU    AUSL 2582  14.603  36.792   8.072
    6AU     AUL 2583  14.865  36.812   8.297
    6AU       S 2584  14.929  36.303   8.174
    6AU     LIG 2585  14.861  35.891   8.354
    6AU     LIG 2586  15.047  35.617   8.688
    6AU     LIG 2587  15.350  35.369   8.954
    6AU     LIG 2588  15.654  35.178   9.254
    6AU     LIG 2589  15.735  35.086   9.700
    6AU       S 2590  15.212  37.148   8.488
    6AU     LIG 2591  15.292  37.303   8.931
    6AU     LIG 2592  15.343  37.076   9.353
    6AU     LIG 2593  15.599  36.827   9.681
    6AU     LIG 2594  15.892  36.750  10.054
    6AU     LIG 2595  16.187  36.851  10.406
    6AU    AUSL 2596  14.544  37.070   8.275
    6AU    AUSL 2597  14.204  37.399   8.277
    6AU     AUL 2598  14.453  37.283   8.557
    6AU       S 2599  14.887  37.053   8.732
    6AU     LIG 2600  14.928  36.812   9.149
    6AU     LIG 2601  14.855  36.485   9.508
    6AU     LIG 2602  14.870  36.275   9.951
    6AU     LIG 2603  15.068  36.358  10.375
    6AU     LIG 2604  15.179  36.470  10.827
    6AU       S 2605  13.978  37.309   8.756
    6AU     LIG 2606  13.774  37.256   9.178
    6AU     LIG 2607  13.760  37.047   9.602
    6AU     LIG 2608  13.673  37.101  10.059
    6AU     LIG 2609  13.621  37.435  10.405
    6AU     LIG 2610  13.604  37.711  10.808
    6AU    AUSL 2611  14.531  37.443   8.224
    6AU    AUSL 2612  14.954  37.477   7.994
    6AU     AUL 2613  14.805  37.409   8.363
    6AU       S 2614  14.533  37.807   8.576
    6AU     LIG 2615  14.797  37.756   8.967
    6AU     LIG 2616  15.022  37.873   9.373
    6AU     LIG 2617  15.011  37.883   9.865
    6AU     LIG 2618  15.074  37.898  10.349
    6AU     LIG 2619  15.133  37.887  10.829
    6AU       S 2620  15.238  37.666   8.288
    6AU     LIG 2621  15.616  37.593   8.507
    6AU     LIG 2622  15.904  37.862   8.740
    6AU     LIG 2623  16.086  38.141   9.059
    6AU     LIG 2624  16.360  38.235   9.418
    6AU     LIG 2625  16.696  38.457   9.661
    6AU    AUSL 2626  14.834  37.310   6.879
    6AU    AUSL 2627  14.679  37.622   6.941
    6AU     AUL 2628  14.624  37.664   6.628
    6AU       S 2629  15.005  37.328   6.440
    6AU     LIG 2630  15.330  37.143   6.149
    6AU     LIG 2631  15.390  36.893   5.763
    6AU     LIG 2632  15.498  36.777   5.312
    6AU     LIG 2633  15.850  36.689   4.984
    6AU     LIG 2634  16.162  36.835   4.646
    6AU       S 2635  15.126  37.761   6.662
    6AU     LIG 2636  15.326  37.980   6.291
    6AU     LIG 2637  15.544  38.250   5.940
    6AU     LIG 2638  15.773  38.344   5.507
    6AU     LIG 2639  15.873  38.661   5.140
    6AU     LIG 2640  15.702  39.052   4.944
    6AU    AUSL 2641  14.650  37.032   6.805
    6AU    AUSL 2642  14.893  36.911   7.041
    6AU     AUL 2643  15.106  37.100   6.890
    6AU       S 2644  15.097  36.650   6.650
    6AU     LIG 2645  15.351  36.372   6.335
    6AU     LIG 2646  15.518  35.938   6.195
    6AU     LIG 2647  15.783  35.568   6.033
    6AU     LIG 2648  16.077  35.444   5.676
    6AU     LIG 2649  16.396  35.447   5.316
    6AU       S 2650  14.907  37.043   6.396
    6AU     LIG 2651  15.026  36.701   6.103
    6AU     LIG 2652  15.008  36.572   5.640
    6AU     LIG 2653  15.041  36.573   5.153
    6AU     LIG 2654  15.005  36.412   4.693
    6AU     LIG 2655  15.037  36.521   4.226
    6AU    AUSL 2656  14.519  37.337   6.733
    6AU    AUSL 2657  14.250  37.067   6.784
    6AU     AUL 2658  14.442  36.934   6.554
    6AU       S 2659  14.072  37.153   6.284
    6AU     LIG 2660  14.026  36.867   5.920
    6AU     LIG 2661  13.813  36.595   5.608
    6AU     LIG 2662  13.610  36.556   5.189
    6AU     LIG 2663  13.602  36.634   4.717
    6AU     LIG 2664  13.547  36.700   4.251
    6AU       S 2665  14.726  37.285   6.293
    6AU     LIG 2666  14.897  37.130   5.861
    6AU     LIG 2667  15.039  37.039   5.409
    6AU     LIG 2668  15.122  37.128   4.947
    6AU     LIG 2669  15.176  37.472   4.600
    6AU     LIG 2670  15.294  37.784   4.252
    6AU    AUSL 2671  13.892  37.305   8.163
    6AU    AUSL 2672  14.103  37.671   8.060
    6AU     AUL 2673  14.020  37.656   8.390
    6AU       S 2674  13.714  37.318   8.638
    6AU     LIG 2675  13.509  36.956   8.845
    6AU     LIG 2676  13.400  36.855   9.286
    6AU     LIG 2677  13.196  36.776   9.708
    6AU     LIG 2678  12.927  36.730  10.106
    6AU     LIG 2679  12.599  36.820  10.449
    6AU       S 2680  13.640  37.972   8.246
    6AU     LIG 2681  13.618  38.138   8.698
    6AU     LIG 2682  13.552  38.333   9.125
    6AU     LIG 2683  13.385  38.391   9.563
    6AU     LIG 2684  13.230  38.662   9.917
    6AU     LIG 2685  13.052  39.051  10.119
    6AU    AUSL 2686  14.185  37.046   8.275
    6AU    AUSL 2687  13.779  36.991   7.980
    6AU     AUL 2688  13.823  36.993   8.285
    6AU       S 2689  13.495  36.627   8.317
    6AU     LIG 2690  13.062  36.553   8.317
    6AU     LIG 2691  12.814  36.197   8.431
    6AU     LIG 2692  12.583  35.877   8.666
    6AU     LIG 2693  12.367  35.642   8.999
    6AU     LIG 2694  12.174  35.595   9.424
    6AU       S 2695  14.015  37.040   8.739
    6AU     LIG 2696  13.906  36.766   9.123
    6AU     LIG 2697  13.746  36.541   9.511
    6AU     LIG 2698  13.597  36.568   9.951
    6AU     LIG 2699  13.533  36.340  10.357
    6AU     LIG 2700  13.471  36.391  10.820
    6AU    AUSL 2701  13.925  37.183   6.837
    6AU    AUSL 2702  14.044  36.815   6.956
    6AU     AUL 2703  14.102  36.792   6.644
    6AU       S 2704  13.813  37.124   6.367
    6AU     LIG 2705  13.537  36.981   6.008
    6AU     LIG 2706  13.337  36.795   5.618
    6AU     LIG 2707  13.156  36.828   5.192
    6AU     LIG 2708  12.856  37.052   4.906
    6AU     LIG 2709  12.426  37.051   4.694
    6AU       S 2710  13.618  36.656   6.629
    6AU     LIG 2711  13.347  36.251   6.440
    6AU     LIG 2712  13.099  35.836   6.349
    6AU     LIG 2713  12.871  35.515   6.060
    6AU     LIG 2714  12.680  35.360   5.641
    6AU     LIG 2715  12.722  35.357   5.152
    6AU    AUSL 2716  14.192  37.422   6.754
    6AU    AUSL 2717  13.793  37.523   7.019
    6AU     AUL 2718  13.854  37.512   6.680
    6AU       S 2719  13.437  37.783   6.749
    6AU     LIG 2720  13.113  37.945   6.463
    6AU     LIG 2721  13.082  38.144   6.045
    6AU     LIG 2722  12.893  38.192   5.614
    6AU     LIG 2723  12.492  38.285   5.379
    6AU     LIG 2724  12.032  38.261   5.239
    6AU       S 2725  14.156  37.385   6.293
    6AU     LIG 2726  13.880  37.363   5.876
    6AU     LIG 2727  13.736  37.100   5.504
    6AU     LIG 2728  13.606  37.053   5.040
    6AU     LIG 2729  13.549  37.148   4.569
    6AU     LIG 2730  13.649  37.480   4.225
    6AU    AUSL 2731  15.020  37.634   7.477
    6AU    AUSL 2732  14.989  37.511   7.125
    6AU     AUL 2733  15.082  37.939   7.354
    6AU       S 2734  15.273  37.627   6.870
    6AU     LIG 2735  15.653  37.684   6.621
    6AU     LIG 2736  15.844  37.951   6.276
    6AU     LIG 2737  16.057  38.222   5.947
    6AU     LIG 2738  16.301  38.347   5.566
    6AU     LIG 2739  16.719  38.425   5.364
    6AU       S 2740  15.521  37.690   7.294
    6AU     LIG 2741  15.982  37.868   7.303
    6AU     LIG 2742  16.433  37.872   7.474
    6AU     LIG 2743  16.834  38.102   7.471
    6AU     LIG 2744  17.102  38.468   7.574
    6AU     LIG 2745  17.350  38.836   7.777
    6AU    AUSL 2746  15.143  37.303   7.363
    6AU    AUSL 2747  15.084  37.027   7.659
    6AU     AUL 2748  15.395  37.182   7.721
    6AU       S 2749  15.516  37.371   7.231
    6AU     LIG 2750  15.948  37.411   7.080
    6AU     LIG 2751  16.385  37.577   7.070
    6AU     LIG 2752  16.853  37.643   7.181
    6AU     LIG 2753  17.281  37.668   6.957
    6AU     LIG 2754  17.637  37.970   6.854
    6AU       S 2755  15.521  36.694   7.579
    6AU     LIG 2756  15.892  36.587   7.829
    6AU     LIG 2757  16.341  36.535   7.742
    6AU     LIG 2758  16.717  36.283   7.706
    6AU     LIG 2759  17.177  36.296   7.787
    6AU     LIG 2760  17.564  36.325   8.072
    6AU    AUSL 2761  15.100  37.375   7.698
    6AU    AUSL 2762  14.873  37.772   7.774
    6AU     AUL 2763  15.220  37.693   7.772
    6AU       S 2764  15.198  37.965   8.194
    6AU     LIG 2765  15.535  38.118   8.472
    6AU     LIG 2766  15.832  38.402   8.694
    6AU     LIG 2767  16.156  38.744   8.667
    6AU     LIG 2768  16.404  39.133   8.733
    6AU     LIG 2769  16.253  39.546   8.822
    6AU       S 2770  15.610  37.551   7.470
    6AU     LIG 2771  16.028  37.486   7.641
    6AU     LIG 2772  16.466  37.474   7.789
    6AU     LIG 2773  16.890  37.654   7.717
    6AU     LIG 2774  17.282  37.803   7.946
    6AU     LIG 2775  17.678  37.905   8.153
    6AU    AUSL 2776  13.770  37.750   7.525
    6AU    AUSL 2777  13.778  37.562   7.952
    6AU     AUL 2778  13.470  37.754   7.739
    6AU       S 2779  13.505  37.693   8.260
    6AU     LIG 2780  13.187  37.931   8.506
    6AU     LIG 2781  13.125  38.126   8.923
    6AU     LIG 2782  12.929  38.323   9.303
    6AU     LIG 2783  12.524  38.359   9.563
    6AU     LIG 2784  12.136  38.500   9.805
    6AU       S 2785  13.601  38.202   7.502
    6AU     LIG 2786  13.147  38.301   7.305
    6AU     LIG 2787  12.720  38.563   7.338
    6AU     LIG 2788  12.404  38.953   7.435
    6AU     LIG 2789  12.039  39.151   7.692
    6AU     LIG 2790  11.766  39.521   7.849
    6AU    AUSL 2791  13.655  37.428   7.312
    6AU    AUSL 2792  13.903  37.824   7.212
    6AU     AUL 2793  13.533  37.733   7.253
    6AU       S 2794  13.274  37.347   6.957
    6AU     LIG 2795  12.919  37.716   6.899
    6AU     LIG 2796  12.522  37.969   6.726
    6AU     LIG 2797  12.006  38.028   6.759
    6AU     LIG 2798  11.541  38.123   6.906
    6AU     LIG 2799  11.107  38.375   6.958
    6AU       S 2800  13.621  38.175   7.001
    6AU     LIG 2801  13.325  38.356   6.688
    6AU     LIG 2802  13.280  38.579   6.272
    6AU     LIG 2803  13.191  39.006   6.067
    6AU     LIG 2804  12.947  39.433   6.082
    6AU     LIG 2805  12.518  39.684   6.087
    6AU    AUSL 2806  13.626  37.429   7.681
    6AU    AUSL 2807  13.566  37.106   7.349
    6AU     AUL 2808  13.344  37.459   7.462
    6AU       S 2809  13.083  37.012   7.405
    6AU     LIG 2810  12.652  36.764   7.338
    6AU     LIG 2811  12.247  36.590   7.521
    6AU     LIG 2812  11.768  36.544   7.490
    6AU     LIG 2813  11.345  36.450   7.295
    6AU     LIG 2814  10.920  36.338   7.133
    6AU       S 2815  13.241  37.357   7.996
    6AU     LIG 2816  12.794  37.555   7.982
    6AU     LIG 2817  12.449  37.881   8.094
    6AU     LIG 2818  12.069  37.996   8.342
    6AU     LIG 2819  11.594  37.967   8.323
    6AU     LIG 2820  11.104  37.884   8.325
    6AU    AUSL 2821  14.966  36.715   7.564
    6AU    AUSL 2822  14.903  36.881   7.923
    6AU     AUL 2823  15.222  36.903   7.930
    6AU       S 2824  15.352  36.498   7.608
    6AU     LIG 2825  15.663  36.164   7.646
    6AU     LIG 2826  16.131  36.067   7.630
    6AU     LIG 2827  16.534  35.803   7.514
    6AU     LIG 2828  16.770  35.343   7.476
    6AU     LIG 2829  17.062  34.923   7.459
    6AU       S 2830  15.156  36.421   8.068
    6AU     LIG 2831  15.360  36.072   8.322
    6AU     LIG 2832  15.537  35.761   8.622
    6AU     LIG 2833  15.838  35.515   8.875
    6AU     LIG 2834  16.122  35.432   9.236
    6AU     LIG 2835  16.489  35.594   9.489
    6AU    AUSL 2836  15.092  36.969   7.315
    6AU    AUSL 2837  14.780  36.631   7.239
    6AU     AUL 2838  15.092  36.627   7.199
    6AU       S 2839  15.539  36.801   7.355
    6AU     LIG 2840  15.956  36.496   7.335
    6AU     LIG 2841  16.415  36.299   7.272
    6AU     LIG 2842  16.913  36.301   7.241
    6AU     LIG 2843  17.383  36.347   7.174
    6AU     LIG 2844  17.760  36.226   6.889
    6AU       S 2845  15.050  36.403   6.752
    6AU     LIG 2846  15.171  35.970   6.605
    6AU     LIG 2847  15.303  35.542   6.448
    6AU     LIG 2848  15.479  35.168   6.230
    6AU     LIG 2849  15.823  34.983   5.996
    6AU     LIG 2850  16.252  34.902   6.131
    6AU    AUSL 2851  13.690  36.800   7.525
    6AU    AUSL 2852  13.745  36.992   7.066
    6AU     AUL 2853  13.500  36.755   7.254
    6AU       S 2854  13.481  36.868   6.747
    6AU     LIG 2855  13.064  36.650   6.636
    6AU     LIG 2856  12.823  36.261   6.508
    6AU     LIG 2857  12.584  35.897   6.314
    6AU     LIG 2858  12.365  35.587   6.018
    6AU     LIG 2859  12.180  35.503   5.580
    6AU       S 2860  13.106  36.784   7.560
    6AU     LIG 2861  12.936  36.364   7.511
    6AU     LIG 2862  12.538  36.191   7.352
    6AU     LIG 2863  12.069  36.118   7.415
    6AU     LIG 2864  11.608  36.011   7.435
    6AU     LIG 2865  11.332  35.622   7.377
    6AU    AUSL 2866  13.597  37.094   7.700
    6AU    AUSL 2867  13.847  36.674   7.818
    6AU     AUL 2868  13.519  36.785   7.838
    6AU       S 2869  13.563  36.401   8.155
    6AU     LIG 2870  13.190  36.126   8.059
    6AU     LIG 2871  12.890  35.775   8.147
    6AU     LIG 2872  12.718  35.442   8.430
    6AU     LIG 2873  12.486  35.186   8.759
    6AU     LIG 2874  12.190  34.814   8.814
    6AU       S 2875  13.108  37.024   7.649
    6AU     LIG 2876  12.660  37.091   7.730
    6AU     LIG 2877  12.235  37.094   7.510
    6AU     LIG 2878  11.739  37.069   7.555
    6AU     LIG 2879  11.303  36.824   7.649
    6AU     LIG 2880  10.963  36.434   7.661
    6AU    AUSL 2881  14.395  37.879   7.953
    6AU    AUSL 2882  13.954  37.858   7.809
    6AU     AUL 2883  14.147  37.977   8.183
    6AU       S 2884  13.708  38.173   7.990
    6AU     LIG 2885  13.390  38.396   8.311
    6AU     LIG 2886  13.289  38.583   8.737
    6AU     LIG 2887  13.089  38.967   8.958
    6AU     LIG 2888  12.846  39.399   8.979
    6AU     LIG 2889  12.569  39.805   8.958
    6AU       S 2890  14.396  38.393   8.024
    6AU     LIG 2891  14.580  38.610   8.377
    6AU     LIG 2892  14.640  39.041   8.525
    6AU     LIG 2893  14.684  39.305   8.922
    6AU     LIG 2894  14.677  39.505   9.364
    6AU     LIG 2895  14.645  39.894   9.630
    6AU    AUSL 2896  14.228  37.993   7.646
    6AU    AUSL 2897  14.555  38.002   7.317
    6AU     AUL 2898  14.160  38.237   7.382
    6AU       S 2899  14.216  38.427   7.848
    6AU     LIG 2900  14.291  38.897   8.053
    6AU     LIG 2901  14.349  39.370   8.220
    6AU     LIG 2902  14.234  39.864   8.302
    6AU     LIG 2903  14.296  40.344   8.402
    6AU     LIG 2904  13.952  40.647   8.571
    6AU       S 2905  14.648  38.398   7.222
    6AU     LIG 2906  14.951  38.675   7.024
    6AU     LIG 2907  15.048  39.064   6.789
    6AU     LIG 2908  15.122  39.515   6.690
    6AU     LIG 2909  15.111  39.963   6.571
    6AU     LIG 2910  14.802  40.276   6.409
    6AU    AUSL 2911  14.592  37.969   7.660
    6AU    AUSL 2912  14.680  37.699   8.063
    6AU     AUL 2913  14.745  38.038   7.975
    6AU       S 2914  15.002  37.882   8.398
    6AU     LIG 2915  15.265  37.829   8.790
    6AU     LIG 2916  15.548  38.100   9.028
    6AU     LIG 2917  15.733  38.373   9.362
    6AU     LIG 2918  15.709  38.649   9.750
    6AU     LIG 2919  15.653  39.045  10.008
    6AU       S 2920  14.545  38.438   7.724
    6AU     LIG 2921  14.786  38.801   7.946
    6AU     LIG 2922  14.997  39.191   8.160
    6AU     LIG 2923  15.352  39.543   8.229
    6AU     LIG 2924  15.463  40.017   8.208
    6AU     LIG 2925  15.462  40.487   8.322
    6AU    AUSL 2926  14.338  36.593   7.967
    6AU    AUSL 2927  14.714  36.603   7.811
    6AU     AUL 2928  14.516  36.566   8.259
    6AU       S 2929  14.477  36.096   8.047
    6AU     LIG 2930  14.354  35.741   8.308
    6AU     LIG 2931  14.102  35.364   8.375
    6AU     LIG 2932  14.131  34.898   8.364
    6AU     LIG 2933  14.367  34.538   8.563
    6AU     LIG 2934  14.614  34.332   8.906
    6AU       S 2935  14.954  36.303   7.903
    6AU     LIG 2936  15.116  35.889   7.905
    6AU     LIG 2937  15.249  35.565   8.213
    6AU     LIG 2938  15.490  35.260   8.471
    6AU     LIG 2939  15.737  35.019   8.772
    6AU     LIG 2940  16.010  34.726   8.995
    6AU    AUSL 2941  14.131  36.547   7.683
    6AU    AUSL 2942  14.059  36.768   8.098
    6AU     AUL 2943  14.044  36.404   8.000
    6AU       S 2944  14.307  35.979   7.831
    6AU     LIG 2945  14.139  35.547   7.870
    6AU     LIG 2946  13.910  35.133   7.952
    6AU     LIG 2947  13.625  34.750   8.060
    6AU     LIG 2948  13.553  34.266   8.082
    6AU     LIG 2949  13.826  33.875   8.117
    6AU       S 2950  13.752  36.498   8.414
    6AU     LIG 2951  13.361  36.190   8.560
    6AU     LIG 2952  13.097  35.799   8.622
    6AU     LIG 2953  12.868  35.508   8.918
    6AU     LIG 2954  12.668  35.351   9.312
    6AU     LIG 2955  12.823  35.285   9.757
    6AU    AUSL 2956  14.446  36.446   7.658
    6AU    AUSL 2957  14.119  36.484   7.335
    6AU     AUL 2958  13.989  36.296   7.620
    6AU       S 2959  14.137  36.012   7.227
    6AU     LIG 2960  13.915  35.610   7.085
    6AU     LIG 2961  13.826  35.137   7.068
    6AU     LIG 2962  13.576  34.761   6.899
    6AU     LIG 2963  13.479  34.313   6.751
    6AU     LIG 2964  13.703  33.937   6.550
    6AU       S 2965  14.551  36.068   7.765
    6AU     LIG 2966  14.665  35.624   7.918
    6AU     LIG 2967  14.484  35.204   8.065
    6AU     LIG 2968  14.558  34.735   8.107
    6AU     LIG 2969  14.655  34.293   8.218
    6AU     LIG 2970  14.753  33.992   8.546
    6AU    AUSL 2971  14.410  37.850   6.997
    6AU    AUSL 2972  14.803  37.772   7.235
    6AU     AUL 2973  14.748  37.966   6.967
    6AU       S 2974  14.491  38.361   6.826
    6AU     LIG 2975  14.776  38.604   6.544
    6AU     LIG 2976  14.806  39.022   6.334
    6AU     LIG 2977  14.878  39.316   5.969
    6AU     LIG 2978  14.795  39.744   5.791
    6AU     LIG 2979  14.626  40.171   5.908
    6AU       S 2980  15.253  37.915   6.881
    6AU     LIG 2981  15.587  38.194   6.677
    6AU     LIG 2982  15.821  38.472   6.356
    6AU     LIG 2983  16.109  38.859   6.279
    6AU     LIG 2984  16.420  39.119   6.025
    6AU     LIG 2985  16.679  39.521   5.983
    6AU    AUSL 2986  14.229  37.913   7.297
    6AU    AUSL 2987  14.090  37.708   6.925
    6AU     AUL 2988  14.116  38.061   7.002
    6AU       S 2989  14.450  38.468   7.056
    6AU     LIG 2990  14.526  38.917   6.858
    6AU     LIG 2991  14.618  39.369   6.690
    6AU     LIG 2992  14.516  39.849   6.618
    6AU     LIG 2993  14.152  40.174   6.585
    6AU     LIG 2994  13.977  40.623   6.563
    6AU       S 2995  13.699  37.998   6.712
    6AU     LIG 2996  13.564  38.130   6.278
    6AU     LIG 2997  13.522  38.359   5.858
    6AU     LIG 2998  13.568  38.666   5.493
    6AU     LIG 2999  13.493  38.967   5.128
    6AU     LIG 3000  13.215  39.135   4.790
    6AU    AUSL 3001  14.308  36.581   7.041
    6AU    AUSL 3002  13.852  36.681   7.224
    6AU     AUL 3003  13.988  36.454   6.972
    6AU       S 3004  13.509  36.519   6.826
    6AU     LIG 3005  13.138  36.211   6.923
    6AU     LIG 3006  12.847  35.832   6.801
    6AU     LIG 3007  12.683  35.447   6.536
    6AU     LIG 3008  12.435  35.118   6.260
    6AU     LIG 3009  12.272  34.643   6.199
    6AU       S 3010  14.277  36.035   6.998
    6AU     LIG 3011  14.272  35.689   6.718
    6AU     LIG 3012  14.053  35.299   6.642
    6AU     LIG 3013  14.053  34.828   6.651
    6AU     LIG 3014  14.247  34.445   6.414
    6AU     LIG 3015  14.289  34.218   5.979
    6AU    AUSL 3016  14.484  36.468   7.327
    6AU    AUSL 3017  14.601  36.727   6.935
    6AU     AUL 3018  14.636  36.382   7.027
    6AU       S 3019  14.416  36.004   7.294
    6AU     LIG 3020  14.404  35.532   7.201
    6AU     LIG 3021  14.358  35.081   7.009
    6AU     LIG 3022  14.487  34.624   6.869
    6AU     LIG 3023  14.572  34.156   6.777
    6AU     LIG 3024  14.877  33.828   6.977
    6AU       S 3025  14.833  36.560   6.582
    6AU     LIG 3026  14.857  36.234   6.276
    6AU     LIG 3027  15.015  35.839   6.118
    6AU     LIG 3028  15.283  35.529   5.913
    6AU     LIG 3029  15.581  35.307   5.625
    6AU     LIG 3030  15.842  35.329   5.218
    7AU     AUC 3031  33.068  20.886   7.510
    7AU     AUC 3032  33.339  20.867   7.348
    7AU     AUC 3033  33.336  20.870   7.674
    7AU     AUC 3034  32.802  20.900   7.342
    7AU     AUC 3035  32.800  20.903   7.678
    7AU     AUC 3036  32.920  21.161   7.503
    7AU     AUC 3037  33.251  21.143   7.507
    7AU     AUC 3038  32.882  20.630   7.513
    7AU     AUC 3039  33.214  20.606   7.509
    7AU     AUC 3040  33.057  20.724   7.781
    7AU     AUC 3041  33.081  21.053   7.776
    7AU     AUC 3042  33.064  20.718   7.245
    7AU     AUC 3043  33.080  21.046   7.237
    7AU     AUC 3044  33.605  20.858   7.194
    7AU     AUC 3045  33.613  20.846   7.509
    7AU     AUC 3046  33.596  20.852   7.828
    7AU     AUC 3047  32.549  20.905   7.172
    7AU     AUC 3048  32.522  20.912   7.510
    7AU     AUC 3049  32.543  20.922   7.841
    7AU     AUC 3050  32.778  21.426   7.500
    7AU     AUC 3051  33.107  21.429   7.497
    7AU     AUC 3052  33.421  21.397   7.502
    7AU     AUC 3053  32.701  20.386   7.514
    7AU     AUC 3054  33.027  20.343   7.501
    7AU     AUC 3055  33.351  20.329   7.513
    7AU     AUC 3056  33.055  20.568   8.043
    7AU     AUC 3057  33.075  20.888   8.062
    7AU     AUC 3058  33.090  21.217   8.023
    7AU     AUC 3059  33.075  20.559   6.992
    7AU     AUC 3060  33.096  20.881   6.966
    7AU     AUC 3061  33.092  21.196   6.967
    7AU     AUC 3062  33.337  20.707   7.948
    7AU     AUC 3063  33.365  21.040   7.953
    7AU     AUC 3064  33.350  20.709   7.077
    7AU     AUC 3065  33.363  21.038   7.077
    7AU     AUC 3066  32.786  20.738   7.970
    7AU     AUC 3067  32.805  21.068   7.953
    7AU     AUC 3068  32.798  20.731   7.074
    7AU     AUC 3069  32.806  21.057   7.048
    7AU     AUC 3070  33.529  21.123   7.354
    7AU     AUC 3071  33.528  21.135   7.682
    7AU     AUC 3072  32.646  21.184   7.328
    7AU     AUC 3073  32.645  21.192   7.678
    7AU     AUC 3074  33.496  20.575   7.348
    7AU     AUC 3075  33.482  20.576   7.672
    7AU     AUC 3076  32.599  20.640   7.347
    7AU     AUC 3077  32.606  20.638   7.691
    7AU     AUC 3078  32.931  21.342   7.770
    7AU     AUC 3079  33.271  21.325   7.775
    7AU     AUC 3080  32.868  20.464   7.795
    7AU     AUC 3081  33.195  20.432   7.775
    7AU     AUC 3082  32.922  21.320   7.210
    7AU     AUC 3083  33.256  21.319   7.228
    7AU     AUC 3084  32.869  20.451   7.239
    7AU     AUC 3085  33.209  20.428   7.234
    7AU    AUSL 3086  33.579  20.817   8.125
    7AU    AUSL 3087  33.319  20.444   8.068
    7AU     AUL 3088  33.593  20.454   8.283
    7AU       S 3089  33.646  19.939   8.160
    7AU     LIG 3090  33.618  19.507   8.374
    7AU     LIG 3091  33.788  19.153   8.666
    7AU     LIG 3092  34.012  19.021   9.063
    7AU     LIG 3093  34.168  19.160   9.489
    7AU     LIG 3094  34.096  19.115   9.969
    7AU       S 3095  33.930  20.802   8.467
    7AU     LIG 3096  34.046  20.958   8.886
    7AU     LIG 3097  34.173  20.721   9.275
    7AU     LIG 3098  34.471  20.577   9.617
    7AU     LIG 3099  34.670  20.662  10.038
    7AU     LIG 3100  34.842  20.926  10.391
    7AU    AUSL 3101  33.263  20.722   8.272
    7AU    AUSL 3102  32.916  21.054   8.278
    7AU     AUL 3103  33.168  20.932   8.556
    7AU       S 3104  33.611  20.699   8.718
    7AU     LIG 3105  33.547  20.383   9.075
    7AU     LIG 3106  33.496  20.050   9.423
    7AU     LIG 3107  33.521  19.911   9.875
    7AU     LIG 3108  33.558  19.978  10.347
    7AU     LIG 3109  33.700  20.043  10.802
    7AU       S 3110  32.691  20.964   8.756
    7AU     LIG 3111  32.459  20.881   9.163
    7AU     LIG 3112  32.421  20.692   9.592
    7AU     LIG 3113  32.255  20.749  10.028
    7AU     LIG 3114  32.272  21.076  10.366
    7AU     LIG 3115  32.200  21.503  10.569
    7AU    AUSL 3116  33.244  21.096   8.224
    7AU    AUSL 3117  33.664  21.135   7.998
    7AU     AUL 3118  33.517  21.063   8.365
    7AU       S 3119  33.239  21.457   8.579
    7AU     LIG 3120  33.486  21.548   8.970
    7AU     LIG 3121  33.609  21.663   9.420
    7AU     LIG 3122  33.623  21.752   9.895
    7AU     LIG 3123  33.732  21.758  10.359
    7AU     LIG 3124  33.820  21.643  10.812
    7AU       S 3125  33.944  21.328   8.295
    7AU     LIG 3126  34.314  21.250   8.526
    7AU     LIG 3127  34.603  21.512   8.760
    7AU     LIG 3128  34.801  21.831   9.023
    7AU     LIG 3129  35.020  21.938   9.422
    7AU     LIG 3130  35.413  22.013   9.682
    7AU    AUSL 3131  33.549  20.968   6.881
    7AU    AUSL 3132  33.395  21.281   6.943
    7AU     AUL 3133  33.340  21.327   6.630
    7AU       S 3134  33.730  20.991   6.451
    7AU     LIG 3135  34.058  20.828   6.166
    7AU     LIG 3136  34.116  20.590   5.782
    7AU     LIG 3137  34.240  20.533   5.341
    7AU     LIG 3138  34.458  20.668   4.957
    7AU     LIG 3139  34.832  20.865   4.750
    7AU       S 3140  33.843  21.420   6.672
    7AU     LIG 3141  34.037  21.608   6.297
    7AU     LIG 3142  34.235  21.873   5.952
    7AU     LIG 3143  34.437  22.021   5.545
    7AU     LIG 3144  34.644  22.220   5.170
    7AU     LIG 3145  34.749  22.554   4.860
    7AU    AUSL 3146  33.362  20.692   6.804
    7AU    AUSL 3147  33.603  20.566   7.040
    7AU     AUL 3148  33.819  20.755   6.897
    7AU       S 3149  33.803  20.306   6.655
    7AU     LIG 3150  34.078  20.044   6.358
    7AU     LIG 3151  34.190  19.618   6.187
    7AU     LIG 3152  34.408  19.256   5.989
    7AU     LIG 3153  34.679  19.138   5.631
    7AU     LIG 3154  34.963  19.235   5.258
    7AU       S 3155  33.633  20.706   6.401
    7AU     LIG 3156  33.762  20.374   6.114
    7AU     LIG 3157  33.756  20.243   5.658
    7AU     LIG 3158  33.847  20.235   5.183
    7AU     LIG 3159  33.933  20.139   4.723
    7AU     LIG 3160  33.954  20.068   4.245
    7AU    AUSL 3161  33.236  21.000   6.733
    7AU    AUSL 3162  32.966  20.723   6.785
    7AU     AUL 3163  33.158  20.616   6.537
    7AU       S 3164  32.750  20.797   6.294
    7AU     LIG 3165  32.777  20.499   5.952
    7AU     LIG 3166  32.523  20.247   5.665
    7AU     LIG 3167  32.375  20.233   5.234
    7AU     LIG 3168  32.235  20.196   4.789
    7AU     LIG 3169  32.147  20.216   4.333
    7AU       S 3170  33.467  20.956   6.296
    7AU     LIG 3171  33.629  20.800   5.867
    7AU     LIG 3172  33.757  20.706   5.410
    7AU     LIG 3173  33.922  20.721   4.951
    7AU     LIG 3174  33.933  20.978   4.524
    7AU     LIG 3175  34.024  21.272   4.133
    7AU    AUSL 3176  32.603  20.961   8.161
    7AU    AUSL 3177  32.814  21.325   8.060
    7AU     AUL 3178  32.727  21.310   8.389
    7AU       S 3179  32.421  20.969   8.635
    7AU     LIG 3180  32.223  20.581   8.805
    7AU     LIG 3181  32.106  20.477   9.243
    7AU     LIG 3182  31.912  20.591   9.662
    7AU     LIG 3183  31.770  20.516  10.104
    7AU     LIG 3184  31.404  20.556  10.412
    7AU       S 3185  32.351  21.631   8.240
    7AU     LIG 3186  32.335  21.783   8.690
    7AU     LIG 3187  32.279  21.986   9.107
    7AU     LIG 3188  32.068  22.309   9.355
    7AU     LIG 3189  32.096  22.639   9.695
    7AU     LIG 3190  32.033  22.872  10.102
    7AU    AUSL 3191  32.904  20.701   8.274
    7AU    AUSL 3192  32.483  20.648   7.981
    7AU     AUL 3193  32.550  20.651   8.282
    7AU       S 3194  32.193  20.313   8.317
    7AU     LIG 3195  31.760  20.227   8.341
    7AU     LIG 3196  31.512  19.860   8.443
    7AU     LIG 3197  31.280  19.518   8.666
    7AU     LIG 3198  31.071  19.249   8.994
    7AU     LIG 3199  30.828  19.188   9.382
    7AU       S 3200  32.729  20.699   8.739
    7AU     LIG 3201  32.623  20.401   9.083
    7AU     LIG 3202  32.479  20.190   9.467
    7AU     LIG 3203  32.249  20.250   9.857
    7AU     LIG 3204  32.154  20.139  10.293
    7AU     LIG 3205  32.125  19.955  10.736
    7AU    AUSL 3206  32.642  20.836   6.839
    7AU    AUSL 3207  32.755  20.475   6.954
    7AU     AUL 3208  32.837  20.442   6.649
    7AU       S 3209  32.514  20.766   6.379
    7AU     LIG 3210  32.276  20.601   5.986
    7AU     LIG 3211  32.058  20.480   5.564
    7AU     LIG 3212  31.890  20.445   5.107
    7AU     LIG 3213  31.543  20.522   4.761
    7AU     LIG 3214  31.236  20.670   4.400
    7AU       S 3215  32.343  20.341   6.617
    7AU     LIG 3216  32.057  19.959   6.418
    7AU     LIG 3217  31.825  19.531   6.396
    7AU     LIG 3218  31.601  19.196   6.127
    7AU     LIG 3219  31.472  19.050   5.685
    7AU     LIG 3220  31.634  18.978   5.231
    7AU    AUSL 3221  32.907  21.077   6.752
    7AU    AUSL 3222  32.510  21.182   7.018
    7AU     AUL 3223  32.570  21.165   6.680
    7AU       S 3224  32.163  21.449   6.737
    7AU     LIG 3225  31.873  21.619   6.393
    7AU     LIG 3226  31.806  21.801   5.950
    7AU     LIG 3227  31.618  21.921   5.515
    7AU     LIG 3228  31.224  22.034   5.255
    7AU     LIG 3229  30.785  22.123   5.092
    7AU       S 3230  32.858  21.025   6.287
    7AU     LIG 3231  32.614  20.980   5.851
    7AU     LIG 3232  32.496  20.725   5.462
    7AU     LIG 3233  32.351  20.690   4.997
    7AU     LIG 3234  32.353  20.825   4.531
    7AU     LIG 3235  32.291  21.088   4.122
    7AU    AUSL 3236  33.733  21.293   7.481
    7AU    AUSL 3237  33.704  21.167   7.129
    7AU     AUL 3238  33.799  21.596   7.358
    7AU       S 3239  33.991  21.281   6.878
    7AU     LIG 3240  34.360  21.333   6.611
    7AU     LIG 3241  34.560  21.602   6.275
    7AU     LIG 3242  34.759  21.866   5.931
    7AU     LIG 3243  34.971  22.020   5.526
    7AU     LIG 3244  35.149  22.338   5.210
    7AU       S 3245  34.239  21.345   7.304
    7AU     LIG 3246  34.720  21.493   7.325
    7AU     LIG 3247  35.194  21.525   7.450
    7AU     LIG 3248  35.647  21.662   7.464
    7AU     LIG 3249  35.843  22.075   7.355
    7AU     LIG 3250  35.957  22.504   7.493
    7AU    AUSL 3251  33.857  20.960   7.370
    7AU    AUSL 3252  33.801  20.686   7.657
    7AU     AUL 3253  34.102  20.849   7.742
    7AU       S 3254  34.235  21.025   7.243
    7AU     LIG 3255  34.710  20.995   7.188
    7AU     LIG 3256  35.188  21.056   7.260
    7AU     LIG 3257  35.613  21.272   7.117
    7AU     LIG 3258  36.070  21.345   6.932
    7AU     LIG 3259  36.519  21.371   6.780
    7AU       S 3260  34.259  20.386   7.566
    7AU     LIG 3261  34.685  20.157   7.682
    7AU     LIG 3262  35.110  19.941   7.746
    7AU     LIG 3263  35.541  19.773   7.759
    7AU     LIG 3264  35.944  19.906   7.950
    7AU     LIG 3265  36.241  20.063   8.249
    7AU    AUSL 3266  33.807  21.033   7.701
    7AU    AUSL 3267  33.584  21.429   7.777
    7AU     AUL 3268  33.930  21.351   7.778
    7AU       S 3269  33.907  21.625   8.200
    7AU     LIG 3270  34.258  21.780   8.473
    7AU     LIG 3271  34.496  22.121   8.709
    7AU     LIG 3272  34.634  22.585   8.770
    7AU     LIG 3273  35.032  22.826   8.757
    7AU     LIG 3274  35.222  23.244   8.817
    7AU       S 3275  34.323  21.206   7.480
    7AU     LIG 3276  34.726  21.123   7.687
    7AU     LIG 3277  35.166  21.140   7.787
    7AU     LIG 3278  35.593  21.152   7.618
    7AU     LIG 3279  35.943  21.357   7.804
    7AU     LIG 3280  36.348  21.413   8.067
    7AU    AUSL 3281  32.484  21.407   7.523
    7AU    AUSL 3282  32.489  21.218   7.950
    7AU     AUL 3283  32.183  21.413   7.735
    7AU       S 3284  32.216  21.356   8.258
    7AU     LIG 3285  31.897  21.596   8.497
    7AU     LIG 3286  31.842  21.787   8.919
    7AU     LIG 3287  31.680  21.950   9.327
    7AU     LIG 3288  31.318  21.914   9.647
    7AU     LIG 3289  30.873  21.958   9.826
    7AU       S 3290  32.326  21.860   7.502
    7AU     LIG 3291  31.893  22.052   7.377
    7AU     LIG 3292  31.457  22.280   7.461
    7AU     LIG 3293  31.037  22.517   7.581
    7AU     LIG 3294  30.608  22.735   7.697
    7AU     LIG 3295  30.327  23.063   7.901
    7AU    AUSL 3296  32.368  21.085   7.308
    7AU    AUSL 3297  32.619  21.482   7.210
    7AU     AUL 3298  32.248  21.393   7.246
    7AU       S 3299  32.001  21.001   6.947
    7AU     LIG 3300  31.670  21.337   6.812
    7AU     LIG 3301  31.262  21.586   6.789
    7AU     LIG 3302  30.779  21.646   6.783
    7AU     LIG 3303  30.299  21.610   6.722
    7AU     LIG 3304  29.848  21.742   6.675
    7AU       S 3305  32.341  21.836   6.998
    7AU     LIG 3306  32.037  22.010   6.688
    7AU     LIG 3307  31.909  22.205   6.271
    7AU     LIG 3308  31.636  22.578   6.099
    7AU     LIG 3309  31.315  22.957   6.130
    7AU     LIG 3310  30.954  23.287   6.047
    7AU    AUSL 3311  32.338  21.086   7.678
    7AU    AUSL 3312  32.277  20.764   7.350
    7AU     AUL 3313  32.056  21.120   7.457
    7AU       S 3314  31.795  20.675   7.401
    7AU     LIG 3315  31.324  20.484   7.385
    7AU     LIG 3316  30.840  20.393   7.441
    7AU     LIG 3317  30.363  20.252   7.361
    7AU     LIG 3318  29.926  20.009   7.352
    7AU     LIG 3319  29.514  20.066   7.119
    7AU       S 3320  31.958  21.016   7.999
    7AU     LIG 3321  31.531  21.220   8.068
    7AU     LIG 3322  31.048  21.250   8.006
    7AU     LIG 3323  30.560  21.324   8.006
    7AU     LIG 3324  30.138  21.568   7.978
    7AU     LIG 3325  29.732  21.819   7.907
    7AU    AUSL 3326  33.682  20.373   7.561
    7AU    AUSL 3327  33.617  20.536   7.915
    7AU     AUL 3328  33.936  20.549   7.928
    7AU       S 3329  34.090  20.179   7.591
    7AU     LIG 3330  34.301  19.799   7.667
    7AU     LIG 3331  34.723  19.607   7.623
    7AU     LIG 3332  35.170  19.463   7.536
    7AU     LIG 3333  35.614  19.273   7.575
    7AU     LIG 3334  35.834  18.931   7.837
    7AU       S 3335  33.875  20.060   8.040
    7AU     LIG 3336  34.095  19.735   8.319
    7AU     LIG 3337  34.199  19.470   8.700
    7AU     LIG 3338  34.465  19.257   9.036
    7AU     LIG 3339  34.815  19.066   9.281
    7AU     LIG 3340  35.223  19.095   9.524
    7AU    AUSL 3341  33.801  20.627   7.313
    7AU    AUSL 3342  33.488  20.287   7.236
    7AU     AUL 3343  33.799  20.278   7.199
    7AU       S 3344  34.237  20.491   7.332
    7AU     LIG 3345  34.499  20.087   7.220
    7AU     LIG 3346  34.950  19.897   7.259
    7AU     LIG 3347  35.431  19.797   7.250
    7AU     LIG 3348  35.871  19.796   7.086
    7AU     LIG 3349  36.304  19.663   7.054
    7AU       S 3350  33.755  20.057   6.751
    7AU     LIG 3351  33.869  19.622   6.598
    7AU     LIG 3352  33.994  19.191   6.422
    7AU     LIG 3353  34.221  18.831   6.227
    7AU     LIG 3354  34.663  18.788   6.105
    7AU     LIG 3355  34.938  18.419   6.060
    7AU    AUSL 3356  32.405  20.462   7.523
    7AU    AUSL 3357  32.457  20.652   7.070
    7AU     AUL 3358  32.212  20.404   7.258
    7AU       S 3359  32.191  20.544   6.752
    7AU     LIG 3360  31.773  20.346   6.637
    7AU     LIG 3361  31.536  19.955   6.526
    7AU     LIG 3362  31.313  19.583   6.344
    7AU     LIG 3363  31.130  19.351   5.973
    7AU     LIG 3364  30.876  19.400   5.578
    7AU       S 3365  31.812  20.463   7.551
    7AU     LIG 3366  31.602  20.069   7.540
    7AU     LIG 3367  31.183  19.964   7.383
    7AU     LIG 3368  30.729  19.886   7.444
    7AU     LIG 3369  30.310  19.811   7.634
    7AU     LIG 3370  29.933  19.535   7.579
    7AU    AUSL 3371  32.306  20.751   7.701
    7AU    AUSL 3372  32.559  20.334   7.819
    7AU     AUL 3373  32.227  20.429   7.823
    7AU       S 3374  32.277  20.079   8.174
    7AU     LIG 3375  31.904  19.818   8.069
    7AU     LIG 3376  31.634  19.452   8.154
    7AU     LIG 3377  31.506  19.113   8.438
    7AU     LIG 3378  31.278  18.850   8.725
    7AU     LIG 3379  30.858  18.763   8.894
    7AU       S 3380  31.814  20.691   7.653
    7AU     LIG 3381  31.365  20.849   7.741
    7AU     LIG 3382  30.873  20.860   7.697
    7AU     LIG 3383  30.439  20.648   7.690
    7AU     LIG 3384  30.082  20.338   7.790
    7AU     LIG 3385  29.614  20.256   7.836
    7AU    AUSL 3386  33.104  21.534   7.952
    7AU    AUSL 3387  32.667  21.513   7.809
    7AU     AUL 3388  32.859  21.626   8.188
    7AU       S 3389  32.425  21.831   7.990
    7AU     LIG 3390  32.113  22.060   8.310
    7AU     LIG 3391  32.013  22.239   8.740
    7AU     LIG 3392  31.793  22.574   8.995
    7AU     LIG 3393  31.492  22.952   8.996
    7AU     LIG 3394  31.086  23.209   8.915
    7AU       S 3395  33.098  22.041   8.021
    7AU     LIG 3396  33.302  22.231   8.373
    7AU     LIG 3397  33.507  22.595   8.547
    7AU     LIG 3398  33.432  23.014   8.728
    7AU     LIG 3399  33.289  23.274   9.101
    7AU     LIG 3400  33.166  23.534   9.483
    7AU    AUSL 3401  32.938  21.648   7.644
    7AU    AUSL 3402  33.270  21.659   7.318
    7AU     AUL 3403  32.875  21.894   7.377
    7AU       S 3404  32.916  22.073   7.847
    7AU     LIG 3405  33.023  22.531   8.027
    7AU     LIG 3406  33.255  22.901   8.219
    7AU     LIG 3407  33.146  23.328   8.422
    7AU     LIG 3408  32.840  23.680   8.568
    7AU     LIG 3409  32.664  24.072   8.795
    7AU       S 3410  33.367  22.056   7.228
    7AU     LIG 3411  33.624  22.436   7.210
    7AU     LIG 3412  33.754  22.817   6.968
    7AU     LIG 3413  33.901  23.259   6.903
    7AU     LIG 3414  33.920  23.685   6.714
    7AU     LIG 3415  34.007  24.155   6.680
    7AU    AUSL 3416  33.302  21.625   7.661
    7AU    AUSL 3417  33.389  21.356   8.066
    7AU     AUL 3418  33.456  21.695   7.973
    7AU       S 3419  33.704  21.541   8.401
    7AU     LIG 3420  33.966  21.512   8.792
    7AU     LIG 3421  34.260  21.783   9.031
    7AU     LIG 3422  34.480  22.021   9.376
    7AU     LIG 3423  34.478  22.262   9.776
    7AU     LIG 3424  34.492  22.670  10.008
    7AU       S 3425  33.250  22.096   7.728
    7AU     LIG 3426  33.520  22.434   7.952
    7AU     LIG 3427  33.785  22.785   8.147
    7AU     LIG 3428  33.975  23.213   8.177
    7AU     LIG 3429  33.977  23.677   8.117
    7AU     LIG 3430  34.254  24.060   8.186
    7AU    AUSL 3431  33.052  20.247   7.969
    7AU    AUSL 3432  33.430  20.254   7.806
    7AU     AUL 3433  33.243  20.215   8.255
    7AU       S 3434  33.188  19.750   8.038
    7AU     LIG 3435  33.093  19.405   8.298
    7AU     LIG 3436  32.864  19.026   8.346
    7AU     LIG 3437  32.851  18.577   8.389
    7AU     LIG 3438  33.055  18.225   8.617
    7AU     LIG 3439  33.144  18.065   9.053
    7AU       S 3440  33.675  19.942   7.880
    7AU     LIG 3441  33.856  19.509   7.925
    7AU     LIG 3442  34.079  19.200   8.246
    7AU     LIG 3443  34.291  18.968   8.627
    7AU     LIG 3444  34.626  18.769   8.890
    7AU     LIG 3445  34.936  18.394   8.796
    7AU    AUSL 3446  32.843  20.205   7.685
    7AU    AUSL 3447  32.774  20.425   8.096
    7AU     AUL 3448  32.753  20.061   8.004
    7AU       S 3449  33.014  19.636   7.821
    7AU     LIG 3450  32.852  19.206   7.849
    7AU     LIG 3451  32.651  18.789   7.939
    7AU     LIG 3452  32.415  18.432   8.130
    7AU     LIG 3453  32.340  17.974   8.186
    7AU     LIG 3454  32.311  17.514   8.123
    7AU       S 3455  32.461  20.167   8.421
    7AU     LIG 3456  32.068  19.872   8.574
    7AU     LIG 3457  31.808  19.486   8.649
    7AU     LIG 3458  31.582  19.228   8.975
    7AU     LIG 3459  31.404  19.293   9.423
    7AU     LIG 3460  31.409  19.138   9.886
    7AU    AUSL 3461  33.156  20.104   7.656
    7AU    AUSL 3462  32.829  20.142   7.338
    7AU     AUL 3463  32.693  19.960   7.624
    7AU       S 3464  32.858  19.678   7.239
    7AU     LIG 3465  32.607  19.315   7.127
    7AU     LIG 3466  32.616  18.855   7.093
    7AU     LIG 3467  32.623  18.431   6.873
    7AU     LIG 3468  32.369  18.015   6.779
    7AU     LIG 3469  32.292  17.562   6.625
    7AU       S 3470  33.257  19.721   7.760
    7AU     LIG 3471  33.365  19.259   7.891
    7AU     LIG 3472  33.179  18.799   7.985
    7AU     LIG 3473  33.114  18.315   8.045
    7AU     LIG 3474  33.216  17.904   8.252
    7AU     LIG 3475  33.367  17.476   8.344
    7AU    AUSL 3476  33.126  21.508   6.997
    7AU    AUSL 3477  33.520  21.431   7.236
    7AU     AUL 3478  33.462  21.626   6.967
    7AU       S 3479  33.203  22.022   6.833
    7AU     LIG 3480  33.379  22.264   6.488
    7AU     LIG 3481  33.409  22.691   6.299
    7AU     LIG 3482  33.406  22.882   5.853
    7AU     LIG 3483  33.281  23.212   5.540
    7AU     LIG 3484  33.289  23.620   5.284
    7AU       S 3485  33.970  21.571   6.885
    7AU     LIG 3486  34.302  21.846   6.668
    7AU     LIG 3487  34.508  22.127   6.325
    7AU     LIG 3488  34.652  22.542   6.100
    7AU     LIG 3489  34.848  22.991   6.031
    7AU     LIG 3490  35.222  23.213   5.818
    7AU    AUSL 3491  32.944  21.569   7.297
    7AU    AUSL 3492  32.807  21.366   6.922
    7AU     AUL 3493  32.833  21.718   7.004
    7AU       S 3494  33.172  22.131   7.063
    7AU     LIG 3495  33.273  22.585   6.868
    7AU     LIG 3496  33.340  23.060   6.737
    7AU     LIG 3497  33.154  23.535   6.734
    7AU     LIG 3498  32.857  23.955   6.779
    7AU     LIG 3499  32.479  24.300   6.811
    7AU       S 3500  32.425  21.658   6.704
    7AU     LIG 3501  32.319  21.849   6.282
    7AU     LIG 3502  32.243  22.058   5.869
    7AU     LIG 3503  32.103  22.140   5.423
    7AU     LIG 3504  32.081  22.458   5.069
    7AU     LIG 3505  32.012  22.875   4.876
    7AU    AUSL 3506  33.015  20.240   7.041
    7AU    AUSL 3507  32.566  20.343   7.224
    7AU     AUL 3508  32.693  20.111   6.977
    7AU       S 3509  32.229  20.216   6.804
    7AU     LIG 3510  31.884  19.912   6.915
    7AU     LIG 3511  31.581  19.556   6.855
    7AU     LIG 3512  31.455  19.170   6.624
    7AU     LIG 3513  31.324  18.791   6.373
    7AU     LIG 3514  31.036  18.496   6.153
    7AU       S 3515  32.980  19.690   6.998
    7AU     LIG 3516  32.945  19.326   6.733
    7AU     LIG 3517  32.852  18.890   6.638
    7AU     LIG 3518  33.015  18.479   6.523
    7AU     LIG 3519  33.106  18.099   6.253
    7AU     LIG 3520  32.955  17.754   5.927
    7AU    AUSL 3521  33.195  20.125   7.325
    7AU    AUSL 3522  33.308  20.386   6.932
    7AU     AUL 3523  33.338  20.040   7.021
    7AU       S 3524  33.130  19.654   7.289
    7AU     LIG 3525  33.090  19.166   7.207
    7AU     LIG 3526  33.105  18.692   7.048
    7AU     LIG 3527  33.169  18.230   6.935
    7AU     LIG 3528  33.282  17.784   6.866
    7AU     LIG 3529  33.265  17.434   6.558
    7AU       S 3530  33.537  20.219   6.577
    7AU     LIG 3531  33.595  19.899   6.256
    7AU     LIG 3532  33.699  19.476   6.108
    7AU     LIG 3533  33.915  19.123   5.896
    7AU     LIG 3534  33.991  18.957   5.469
    7AU     LIG 3535  34.223  18.987   5.056
    8AU     AUC 3536  26.236  40.726   7.514
    8AU     AUC 3537  26.506  40.707   7.351
    8AU     AUC 3538  26.505  40.713   7.677
    8AU     AUC 3539  25.969  40.739   7.346
    8AU     AUC 3540  25.969  40.743   7.682
    8AU     AUC 3541  26.086  41.001   7.507
    8AU     AUC 3542  26.417  40.984   7.509
    8AU     AUC 3543  26.052  40.470   7.517
    8AU     AUC 3544  26.384  40.447   7.513
    8AU     AUC 3545  26.226  40.566   7.785
    8AU     AUC 3546  26.249  40.895   7.779
    8AU     AUC 3547  26.231  40.557   7.249
    8AU     AUC 3548  26.245  40.886   7.240
    8AU     AUC 3549  26.772  40.700   7.193
    8AU     AUC 3550  26.781  40.689   7.510
    8AU     AUC 3551  26.765  40.696   7.830
    8AU     AUC 3552  25.715  40.742   7.176
    8AU     AUC 3553  25.691  40.750   7.516
    8AU     AUC 3554  25.711  40.761   7.847
    8AU     AUC 3555  25.944  41.266   7.504
    8AU     AUC 3556  26.272  41.270   7.499
    8AU     AUC 3557  26.586  41.238   7.504
    8AU     AUC 3558  25.875  40.225   7.519
    8AU     AUC 3559  26.200  40.184   7.507
    8AU     AUC 3560  26.524  40.172   7.518
    8AU     AUC 3561  26.226  40.409   8.047
    8AU     AUC 3562  26.244  40.730   8.065
    8AU     AUC 3563  26.258  41.059   8.026
    8AU     AUC 3564  26.243  40.397   6.995
    8AU     AUC 3565  26.259  40.719   6.971
    8AU     AUC 3566  26.253  41.034   6.970
    8AU     AUC 3567  26.507  40.550   7.951
    8AU     AUC 3568  26.534  40.883   7.956
    8AU     AUC 3569  26.518  40.548   7.080
    8AU     AUC 3570  26.526  40.877   7.079
    8AU     AUC 3571  25.954  40.579   7.975
    8AU     AUC 3572  25.972  40.909   7.957
    8AU     AUC 3573  25.964  40.568   7.075
    8AU     AUC 3574  25.968  40.896   7.052
    8AU     AUC 3575  26.694  40.964   7.354
    8AU     AUC 3576  26.695  40.979   7.683
    8AU     AUC 3577  25.811  41.023   7.334
    8AU     AUC 3578  25.812  41.032   7.683
    8AU     AUC 3579  26.667  40.418   7.351
    8AU     AUC 3580  26.653  40.421   7.676
    8AU     AUC 3581  25.770  40.478   7.350
    8AU     AUC 3582  25.777  40.478   7.697
    8AU     AUC 3583  26.098  41.184   7.773
    8AU     AUC 3584  26.438  41.167   7.777
    8AU     AUC 3585  26.039  40.304   7.800
    8AU     AUC 3586  26.367  40.274   7.780
    8AU     AUC 3587  26.085  41.160   7.214
    8AU     AUC 3588  26.417  41.158   7.229
    8AU     AUC 3589  26.040  40.289   7.243
    8AU     AUC 3590  26.381  40.268   7.239
    8AU    AUSL 3591  26.750  40.660   8.128
    8AU    AUSL 3592  26.492  40.287   8.072
    8AU     AUL 3593  26.768  40.300   8.288
    8AU       S 3594  26.822  39.782   8.153
    8AU     LIG 3595  26.757  39.350   8.332
    8AU     LIG 3596  26.872  39.010   8.648
    8AU     LIG 3597  27.178  38.833   8.940
    8AU     LIG 3598  27.484  38.749   9.289
    8AU     LIG 3599  27.532  38.718   9.756
    8AU       S 3600  27.091  40.648   8.499
    8AU     LIG 3601  27.167  40.830   8.939
    8AU     LIG 3602  27.321  40.674   9.372
    8AU     LIG 3603  27.579  40.462   9.742
    8AU     LIG 3604  27.876  40.320  10.117
    8AU     LIG 3605  28.097  40.436  10.525
    8AU    AUSL 3606  26.432  40.564   8.275
    8AU    AUSL 3607  26.082  40.896   8.278
    8AU     AUL 3608  26.329  40.771   8.556
    8AU       S 3609  26.768  40.545   8.726
    8AU     LIG 3610  26.701  40.276   9.117
    8AU     LIG 3611  26.699  39.961   9.487
    8AU     LIG 3612  26.794  39.734   9.906
    8AU     LIG 3613  27.020  39.731  10.330
    8AU     LIG 3614  27.261  39.894  10.699
    8AU       S 3615  25.853  40.814   8.758
    8AU     LIG 3616  25.619  40.764   9.167
    8AU     LIG 3617  25.613  40.601   9.611
    8AU     LIG 3618  25.696  40.768  10.059
    8AU     LIG 3619  25.812  41.060  10.434
    8AU     LIG 3620  25.705  41.395  10.766
    8AU    AUSL 3621  26.411  40.939   8.229
    8AU    AUSL 3622  26.833  40.978   7.998
    8AU     AUL 3623  26.686  40.905   8.363
    8AU       S 3624  26.414  41.292   8.591
    8AU     LIG 3625  26.691  41.179   8.980
    8AU     LIG 3626  26.946  41.275   9.389
    8AU     LIG 3627  26.916  41.399   9.877
    8AU     LIG 3628  26.864  41.407  10.369
    8AU     LIG 3629  27.059  41.356  10.812
    8AU       S 3630  27.114  41.170   8.295
    8AU     LIG 3631  27.458  41.044   8.538
    8AU     LIG 3632  27.731  41.268   8.813
    8AU     LIG 3633  27.939  41.505   9.143
    8AU     LIG 3634  28.173  41.853   9.330
    8AU     LIG 3635  28.575  42.000   9.515
    8AU    AUSL 3636  26.711  40.808   6.880
    8AU    AUSL 3637  26.554  41.118   6.941
    8AU     AUL 3638  26.498  41.156   6.629
    8AU       S 3639  26.867  40.818   6.433
    8AU     LIG 3640  27.193  40.628   6.145
    8AU     LIG 3641  27.249  40.374   5.760
    8AU     LIG 3642  27.362  40.287   5.302
    8AU     LIG 3643  27.730  40.267   4.985
    8AU     LIG 3644  28.097  40.398   4.691
    8AU       S 3645  27.001  41.246   6.664
    8AU     LIG 3646  27.205  41.475   6.324
    8AU     LIG 3647  27.355  41.683   5.935
    8AU     LIG 3648  27.545  42.030   5.681
    8AU     LIG 3649  27.842  42.243   5.406
    8AU     LIG 3650  27.868  42.446   4.967
    8AU    AUSL 3651  26.530  40.528   6.810
    8AU    AUSL 3652  26.775  40.409   7.043
    8AU     AUL 3653  26.984  40.601   6.886
    8AU       S 3654  26.980  40.145   6.657
    8AU     LIG 3655  27.189  39.836   6.339
    8AU     LIG 3656  27.315  39.408   6.208
    8AU     LIG 3657  27.573  39.136   5.930
    8AU     LIG 3658  27.931  39.193   5.626
    8AU     LIG 3659  28.365  39.216   5.442
    8AU       S 3660  26.769  40.534   6.397
    8AU     LIG 3661  26.889  40.187   6.110
    8AU     LIG 3662  26.904  39.998   5.673
    8AU     LIG 3663  26.948  39.990   5.192
    8AU     LIG 3664  26.982  40.006   4.714
    8AU     LIG 3665  27.217  39.933   4.309
    8AU    AUSL 3666  26.392  40.827   6.738
    8AU    AUSL 3667  26.129  40.565   6.786
    8AU     AUL 3668  26.320  40.399   6.583
    8AU       S 3669  26.024  40.672   6.278
    8AU     LIG 3670  25.970  40.380   5.925
    8AU     LIG 3671  25.699  40.107   5.667
    8AU     LIG 3672  25.532  40.073   5.233
    8AU     LIG 3673  25.346  39.993   4.804
    8AU     LIG 3674  25.297  39.844   4.345
    8AU       S 3675  26.572  40.766   6.298
    8AU     LIG 3676  26.751  40.617   5.870
    8AU     LIG 3677  26.868  40.463   5.427
    8AU     LIG 3678  26.972  40.473   4.964
    8AU     LIG 3679  26.942  40.729   4.563
    8AU     LIG 3680  27.001  40.945   4.150
    8AU    AUSL 3681  25.770  40.800   8.166
    8AU    AUSL 3682  25.984  41.170   8.063
    8AU     AUL 3683  25.900  41.154   8.389
    8AU       S 3684  25.584  40.815   8.631
    8AU     LIG 3685  25.397  40.434   8.833
    8AU     LIG 3686  25.297  40.339   9.280
    8AU     LIG 3687  25.148  40.282   9.730
    8AU     LIG 3688  24.778  40.216  10.052
    8AU     LIG 3689  24.462  40.368  10.389
    8AU       S 3690  25.521  41.472   8.248
    8AU     LIG 3691  25.547  41.615   8.703
    8AU     LIG 3692  25.507  41.865   9.092
    8AU     LIG 3693  25.225  42.146   9.328
    8AU     LIG 3694  25.053  42.307   9.741
    8AU     LIG 3695  24.953  42.596  10.109
    8AU    AUSL 3696  26.074  40.543   8.279
    8AU    AUSL 3697  25.649  40.485   7.986
    8AU     AUL 3698  25.725  40.485   8.293
    8AU       S 3699  25.357  40.155   8.314
    8AU     LIG 3700  24.924  40.070   8.315
    8AU     LIG 3701  24.659  39.715   8.403
    8AU     LIG 3702  24.422  39.430   8.683
    8AU     LIG 3703  24.248  39.255   9.085
    8AU     LIG 3704  23.986  39.385   9.473
    8AU       S 3705  25.893  40.551   8.751
    8AU     LIG 3706  25.805  40.291   9.139
    8AU     LIG 3707  25.662  40.081   9.538
    8AU     LIG 3708  25.432  39.866   9.882
    8AU     LIG 3709  25.253  39.806  10.305
    8AU     LIG 3710  25.112  39.939  10.725
    8AU    AUSL 3711  25.802  40.678   6.840
    8AU    AUSL 3712  25.927  40.308   6.956
    8AU     AUL 3713  25.959  40.303   6.635
    8AU       S 3714  25.736  40.647   6.329
    8AU     LIG 3715  25.465  40.477   5.973
    8AU     LIG 3716  25.234  40.330   5.576
    8AU     LIG 3717  25.019  40.166   5.179
    8AU     LIG 3718  24.743  40.259   4.806
    8AU     LIG 3719  24.488  40.590   4.557
    8AU       S 3720  25.484  40.152   6.648
    8AU     LIG 3721  25.209  39.787   6.433
    8AU     LIG 3722  24.970  39.379   6.359
    8AU     LIG 3723  24.736  39.080   6.069
    8AU     LIG 3724  24.542  38.977   5.633
    8AU     LIG 3725  24.630  38.911   5.154
    8AU    AUSL 3726  26.067  40.921   6.759
    8AU    AUSL 3727  25.671  41.020   7.025
    8AU     AUL 3728  25.716  40.991   6.687
    8AU       S 3729  25.313  41.277   6.755
    8AU     LIG 3730  25.020  41.470   6.461
    8AU     LIG 3731  24.978  41.744   6.093
    8AU     LIG 3732  24.828  41.849   5.675
    8AU     LIG 3733  24.430  41.921   5.436
    8AU     LIG 3734  23.975  41.985   5.304
    8AU       S 3735  26.044  40.919   6.301
    8AU     LIG 3736  25.810  40.869   5.864
    8AU     LIG 3737  25.679  40.593   5.500
    8AU     LIG 3738  25.576  40.557   5.038
    8AU     LIG 3739  25.608  40.813   4.630
    8AU     LIG 3740  25.565  41.117   4.261
    8AU    AUSL 3741  26.898  41.140   7.479
    8AU    AUSL 3742  26.865  41.009   7.127
    8AU     AUL 3743  26.950  41.445   7.348
    8AU       S 3744  27.153  41.125   6.876
    8AU     LIG 3745  27.523  41.149   6.609
    8AU     LIG 3746  27.695  41.351   6.212
    8AU     LIG 3747  27.865  41.639   5.869
    8AU     LIG 3748  28.198  41.818   5.594
    8AU     LIG 3749  28.608  41.796   5.336
    8AU       S 3750  27.395  41.205   7.303
    8AU     LIG 3751  27.862  41.393   7.346
    8AU     LIG 3752  28.328  41.425   7.511
    8AU     LIG 3753  28.798  41.513   7.532
    8AU     LIG 3754  29.138  41.807   7.607
    8AU     LIG 3755  29.371  42.223   7.724
    8AU    AUSL 3756  27.022  40.807   7.368
    8AU    AUSL 3757  26.971  40.533   7.661
    8AU     AUL 3758  27.272  40.701   7.739
    8AU       S 3759  27.391  40.875   7.240
    8AU     LIG 3760  27.797  40.965   7.065
    8AU     LIG 3761  28.227  41.017   7.217
    8AU     LIG 3762  28.665  41.181   7.168
    8AU     LIG 3763  29.099  41.400   7.117
    8AU     LIG 3764  29.542  41.546   6.990
    8AU       S 3765  27.424  40.228   7.582
    8AU     LIG 3766  27.811  39.971   7.732
    8AU     LIG 3767  28.233  39.730   7.719
    8AU     LIG 3768  28.678  39.674   7.893
    8AU     LIG 3769  29.055  39.735   8.177
    8AU     LIG 3770  29.432  39.464   8.265
    8AU    AUSL 3771  26.973  40.881   7.699
    8AU    AUSL 3772  26.750  41.271   7.778
    8AU     AUL 3773  27.097  41.197   7.778
    8AU       S 3774  27.077  41.468   8.202
    8AU     LIG 3775  27.449  41.574   8.483
    8AU     LIG 3776  27.748  41.812   8.771
    8AU     LIG 3777  28.024  42.172   8.941
    8AU     LIG 3778  28.314  42.580   8.901
    8AU     LIG 3779  28.613  42.981   8.847
    8AU       S 3780  27.482  41.060   7.468
    8AU     LIG 3781  27.892  40.976   7.640
    8AU     LIG 3782  28.342  40.958   7.728
    8AU     LIG 3783  28.738  41.139   7.871
    8AU     LIG 3784  29.170  41.342   7.872
    8AU     LIG 3785  29.599  41.534   7.918
    8AU    AUSL 3786  25.650  41.245   7.529
    8AU    AUSL 3787  25.658  41.059   7.957
    8AU     AUL 3788  25.352  41.253   7.744
    8AU       S 3789  25.385  41.193   8.266
    8AU     LIG 3790  25.093  41.442   8.542
    8AU     LIG 3791  25.049  41.681   8.946
    8AU     LIG 3792  24.831  41.810   9.350
    8AU     LIG 3793  24.435  41.942   9.581
    8AU     LIG 3794  24.051  41.993   9.868
    8AU       S 3795  25.492  41.701   7.509
    8AU     LIG 3796  25.077  41.956   7.486
    8AU     LIG 3797  24.696  42.193   7.663
    8AU     LIG 3798  24.298  42.469   7.644
    8AU     LIG 3799  23.959  42.722   7.425
    8AU     LIG 3800  23.504  42.724   7.339
    8AU    AUSL 3801  25.535  40.923   7.317
    8AU    AUSL 3802  25.781  41.320   7.216
    8AU     AUL 3803  25.411  41.231   7.257
    8AU       S 3804  25.161  40.831   6.961
    8AU     LIG 3805  24.794  41.136   6.840
    8AU     LIG 3806  24.306  41.242   6.845
    8AU     LIG 3807  23.842  41.338   6.728
    8AU     LIG 3808  23.368  41.249   6.781
    8AU     LIG 3809  22.904  41.434   6.897
    8AU       S 3810  25.498  41.670   7.002
    8AU     LIG 3811  25.228  41.881   6.686
    8AU     LIG 3812  25.222  42.160   6.320
    8AU     LIG 3813  24.999  42.569   6.282
    8AU     LIG 3814  24.751  42.968   6.205
    8AU     LIG 3815  24.488  43.278   5.960
    8AU    AUSL 3816  25.506  40.924   7.687
    8AU    AUSL 3817  25.448  40.601   7.353
    8AU     AUL 3818  25.227  40.959   7.466
    8AU       S 3819  24.974  40.517   7.383
    8AU     LIG 3820  24.549  40.299   7.263
    8AU     LIG 3821  24.110  40.153   7.318
    8AU     LIG 3822  23.684  40.034   7.178
    8AU     LIG 3823  23.246  40.156   7.112
    8AU     LIG 3824  22.861  40.021   6.911
    8AU       S 3825  25.118  40.857   8.001
    8AU     LIG 3826  24.642  41.012   7.996
    8AU     LIG 3827  24.170  41.193   8.007
    8AU     LIG 3828  23.886  41.575   8.108
    8AU     LIG 3829  23.412  41.671   8.075
    8AU     LIG 3830  22.972  41.894   8.056
    8AU    AUSL 3831  26.854  40.220   7.566
    8AU    AUSL 3832  26.788  40.381   7.918
    8AU     AUL 3833  27.104  40.405   7.937
    8AU       S 3834  27.254  40.027   7.602
    8AU     LIG 3835  27.411  39.641   7.732
    8AU     LIG 3836  27.807  39.462   7.565
    8AU     LIG 3837  28.227  39.274   7.444
    8AU     LIG 3838  28.525  38.917   7.475
    8AU     LIG 3839  28.949  38.915   7.632
    8AU       S 3840  27.049  39.911   8.046
    8AU     LIG 3841  27.260  39.552   8.276
    8AU     LIG 3842  27.333  39.274   8.653
    8AU     LIG 3843  27.663  39.048   8.912
    8AU     LIG 3844  27.962  38.995   9.278
    8AU     LIG 3845  28.355  39.097   9.538
    8AU    AUSL 3846  26.972  40.473   7.316
    8AU    AUSL 3847  26.664  40.127   7.242
    8AU     AUL 3848  26.975  40.128   7.202
    8AU       S 3849  27.411  40.332   7.346
    8AU     LIG 3850  27.651  39.903   7.257
    8AU     LIG 3851  28.095  39.720   7.211
    8AU     LIG 3852  28.519  39.524   7.061
    8AU     LIG 3853  29.005  39.554   7.041
    8AU     LIG 3854  29.437  39.677   7.156
    8AU       S 3855  26.934  39.885   6.768
    8AU     LIG 3856  26.986  39.430   6.630
    8AU     LIG 3857  27.105  38.993   6.453
    8AU     LIG 3858  27.367  38.715   6.171
    8AU     LIG 3859  27.584  38.315   6.049
    8AU     LIG 3860  27.994  38.110   5.903
    8AU    AUSL 3861  25.582  40.304   7.527
    8AU    AUSL 3862  25.627  40.483   7.074
    8AU     AUL 3863  25.390  40.234   7.276
    8AU       S 3864  25.352  40.364   6.773
    8AU     LIG 3865  24.932  40.170   6.674
    8AU     LIG 3866  24.689  39.798   6.522
    8AU     LIG 3867  24.455  39.453   6.307
    8AU     LIG 3868  24.222  39.088   6.097
    8AU     LIG 3869  23.976  38.951   5.726
    8AU       S 3870  24.977  40.312   7.547
    8AU     LIG 3871  24.799  39.898   7.487
    8AU     LIG 3872  24.379  39.724   7.408
    8AU     LIG 3873  23.914  39.735   7.531
    8AU     LIG 3874  23.482  39.608   7.420
    8AU     LIG 3875  23.362  39.164   7.351
    8AU    AUSL 3876  25.473  40.589   7.706
    8AU    AUSL 3877  25.731  40.172   7.824
    8AU     AUL 3878  25.396  40.261   7.816
    8AU       S 3879  25.445  39.917   8.173
    8AU     LIG 3880  25.074  39.656   8.052
    8AU     LIG 3881  24.758  39.323   8.082
    8AU     LIG 3882  24.511  39.044   8.351
    8AU     LIG 3883  24.238  38.766   8.615
    8AU     LIG 3884  24.115  38.344   8.777
    8AU       S 3885  24.984  40.530   7.649
    8AU     LIG 3886  24.519  40.649   7.639
    8AU     LIG 3887  24.051  40.598   7.551
    8AU     LIG 3888  23.690  40.299   7.630
    8AU     LIG 3889  23.288  40.058   7.627
    8AU     LIG 3890  22.886  40.132   7.875
    8AU    AUSL 3891  26.274  41.377   7.955
    8AU    AUSL 3892  25.834  41.356   7.812
    8AU     AUL 3893  26.028  41.477   8.185
    8AU       S 3894  25.584  41.673   8.001
    8AU     LIG 3895  25.298  41.908   8.357
    8AU     LIG 3896  25.210  42.148   8.774
    8AU     LIG 3897  25.096  42.557   9.020
    8AU     LIG 3898  24.834  42.965   9.063
    8AU     LIG 3899  24.697  43.416   8.965
    8AU       S 3900  26.282  41.895   8.031
    8AU     LIG 3901  26.501  42.151   8.358
    8AU     LIG 3902  26.578  42.570   8.562
    8AU     LIG 3903  26.729  42.950   8.811
    8AU     LIG 3904  26.722  43.152   9.252
    8AU     LIG 3905  26.581  43.445   9.605
    8AU    AUSL 3906  26.106  41.490   7.648
    8AU    AUSL 3907  26.433  41.500   7.318
    8AU     AUL 3908  26.040  41.735   7.382
    8AU       S 3909  26.104  41.924   7.846
    8AU     LIG 3910  26.213  42.400   8.009
    8AU     LIG 3911  26.278  42.842   8.223
    8AU     LIG 3912  26.090  43.286   8.337
    8AU     LIG 3913  25.841  43.708   8.388
    8AU     LIG 3914  25.597  44.056   8.641
    8AU       S 3915  26.528  41.902   7.213
    8AU     LIG 3916  26.790  42.254   7.035
    8AU     LIG 3917  26.844  42.680   6.806
    8AU     LIG 3918  27.079  43.111   6.686
    8AU     LIG 3919  27.010  43.537   6.450
    8AU     LIG 3920  27.169  44.015   6.508
    8AU    AUSL 3921  26.470  41.467   7.661
    8AU    AUSL 3922  26.557  41.197   8.069
    8AU     AUL 3923  26.625  41.535   7.978
    8AU       S 3924  26.876  41.381   8.404
    8AU     LIG 3925  27.135  41.339   8.801
    8AU     LIG 3926  27.412  41.559   9.090
    8AU     LIG 3927  27.654  41.918   9.280
    8AU     LIG 3928  27.694  42.204   9.657
    8AU     LIG 3929  27.624  42.366  10.107
    8AU       S 3930  26.426  41.931   7.719
    8AU     LIG 3931  26.698  42.273   7.895
    8AU     LIG 3932  26.773  42.700   8.104
    8AU     LIG 3933  26.849  43.139   8.310
    8AU     LIG 3934  26.915  43.631   8.346
    8AU     LIG 3935  26.956  44.123   8.311
    8AU    AUSL 3936  26.224  40.088   7.976
    8AU    AUSL 3937  26.604  40.099   7.809
    8AU     AUL 3938  26.422  40.057   8.259
    8AU       S 3939  26.359  39.590   8.049
    8AU     LIG 3940  26.253  39.207   8.280
    8AU     LIG 3941  26.130  38.783   8.372
    8AU     LIG 3942  26.097  38.403   8.602
    8AU     LIG 3943  26.191  38.059   8.881
    8AU     LIG 3944  26.063  37.801   9.259
    8AU       S 3945  26.859  39.786   7.877
    8AU     LIG 3946  27.006  39.338   7.887
    8AU     LIG 3947  27.159  39.033   8.225
    8AU     LIG 3948  27.457  38.794   8.511
    8AU     LIG 3949  27.721  38.487   8.768
    8AU     LIG 3950  28.045  38.109   8.709
    8AU    AUSL 3951  26.016  40.045   7.692
    8AU    AUSL 3952  25.944  40.266   8.100
    8AU     AUL 3953  25.925  39.901   8.011
    8AU       S 3954  26.195  39.482   7.827
    8AU     LIG 3955  26.037  39.075   7.791
    8AU     LIG 3956  25.830  38.694   7.954
    8AU     LIG 3957  25.838  38.276   8.164
    8AU     LIG 3958  25.692  37.813   8.236
    8AU     LIG 3959  25.709  37.329   8.312
    8AU       S 3960  25.619  40.001   8.419
    8AU     LIG 3961  25.215  39.705   8.559
    8AU     LIG 3962  24.930  39.314   8.577
    8AU     LIG 3963  24.675  39.012   8.844
    8AU     LIG 3964  24.582  38.895   9.284
    8AU     LIG 3965  24.699  38.798   9.733
    8AU    AUSL 3966  26.330  39.947   7.663
    8AU    AUSL 3967  26.005  39.980   7.344
    8AU     AUL 3968  25.867  39.800   7.632
    8AU       S 3969  26.045  39.520   7.254
    8AU     LIG 3970  25.811  39.144   7.212
    8AU     LIG 3971  25.841  38.722   7.044
    8AU     LIG 3972  25.808  38.289   6.879
    8AU     LIG 3973  25.785  37.859   6.660
    8AU     LIG 3974  25.653  37.387   6.627
    8AU       S 3975  26.438  39.566   7.773
    8AU     LIG 3976  26.550  39.107   7.882
    8AU     LIG 3977  26.348  38.688   7.929
    8AU     LIG 3978  26.403  38.305   8.206
    8AU     LIG 3979  26.829  38.068   8.312
    8AU     LIG 3980  27.073  37.617   8.385
    8AU    AUSL 3981  26.287  41.346   6.998
    8AU    AUSL 3982  26.676  41.267   7.236
    8AU     AUL 3983  26.626  41.462   6.969
    8AU       S 3984  26.365  41.852   6.818
    8AU     LIG 3985  26.638  42.129   6.555
    8AU     LIG 3986  26.643  42.547   6.334
    8AU     LIG 3987  26.690  42.756   5.894
    8AU     LIG 3988  26.541  43.001   5.499
    8AU     LIG 3989  26.317  43.401   5.331
    8AU       S 3990  27.130  41.404   6.880
    8AU     LIG 3991  27.490  41.651   6.710
    8AU     LIG 3992  27.665  41.854   6.316
    8AU     LIG 3993  27.912  42.138   6.022
    8AU     LIG 3994  28.025  42.587   5.918
    8AU     LIG 3995  28.215  43.028   5.889
    8AU    AUSL 3996  26.107  41.409   7.299
    8AU    AUSL 3997  25.965  41.206   6.927
    8AU     AUL 3998  25.991  41.556   7.006
    8AU       S 3999  26.328  41.958   7.051
    8AU     LIG 4000  26.332  42.393   6.860
    8AU     LIG 4001  26.325  42.828   6.706
    8AU     LIG 4002  26.015  43.194   6.735
    8AU     LIG 4003  25.815  43.603   6.609
    8AU     LIG 4004  25.659  44.062   6.660
    8AU       S 4005  25.580  41.489   6.708
    8AU     LIG 4006  25.469  41.675   6.281
    8AU     LIG 4007  25.404  41.930   5.881
    8AU     LIG 4008  25.255  42.051   5.454
    8AU     LIG 4009  25.185  42.356   5.111
    8AU     LIG 4010  24.929  42.516   4.760
    8AU    AUSL 4011  26.188  40.078   7.047
    8AU    AUSL 4012  25.740  40.176   7.229
    8AU     AUL 4013  25.871  39.944   6.980
    8AU       S 4014  25.387  40.017   6.838
    8AU     LIG 4015  25.018  39.713   6.919
    8AU     LIG 4016  24.703  39.360   6.800
    8AU     LIG 4017  24.484  39.004   6.553
    8AU     LIG 4018  24.102  38.708   6.475
    8AU     LIG 4019  23.917  38.299   6.346
    8AU       S 4020  26.160  39.521   7.009
    8AU     LIG 4021  26.155  39.089   6.826
    8AU     LIG 4022  26.189  38.657   6.655
    8AU     LIG 4023  26.096  38.247   6.455
    8AU     LIG 4024  25.899  38.025   6.085
    8AU     LIG 4025  25.906  37.948   5.608
    8AU    AUSL 4026  26.370  39.967   7.332
    8AU    AUSL 4027  26.482  40.224   6.941
    8AU     AUL 4028  26.508  39.882   7.024
    8AU       S 4029  26.314  39.504   7.303
    8AU     LIG 4030  26.300  39.049   7.321
    8AU     LIG 4031  26.328  38.613   7.148
    8AU     LIG 4032  26.312  38.192   6.942
    8AU     LIG 4033  26.484  37.735   6.952
    8AU     LIG 4034  26.549  37.273   6.811
    8AU       S 4035  26.730  40.054   6.592
    8AU     LIG 4036  26.688  39.731   6.300
    8AU     LIG 4037  26.803  39.331   6.161
    8AU     LIG 4038  27.054  39.047   5.946
    8AU     LIG 4039  27.253  38.846   5.612
    8AU     LIG 4040  27.281  38.726   5.173
    9AU     AUC 4041  22.678   3.116   7.508
    9AU     AUC 4042  22.949   3.099   7.349
    9AU     AUC 4043  22.944   3.102   7.676
    9AU     AUC 4044  22.412   3.127   7.339
    9AU     AUC 4045  22.410   3.133   7.672
    9AU     AUC 4046  22.527   3.390   7.499
    9AU     AUC 4047  22.859   3.374   7.506
    9AU     AUC 4048  22.495   2.857   7.509
    9AU     AUC 4049  22.826   2.837   7.508
    9AU     AUC 4050  22.665   2.955   7.777
    9AU     AUC 4051  22.687   3.285   7.774
    9AU     AUC 4052  22.677   2.947   7.243
    9AU     AUC 4053  22.689   3.276   7.234
    9AU     AUC 4054  23.214   3.096   7.195
    9AU     AUC 4055  23.224   3.083   7.512
    9AU     AUC 4056  23.199   3.085   7.838
    9AU     AUC 4057  22.160   3.128   7.171
    9AU     AUC 4058  22.133   3.137   7.509
    9AU     AUC 4059  22.155   3.152   7.837
    9AU     AUC 4060  22.384   3.652   7.494
    9AU     AUC 4061  22.711   3.658   7.493
    9AU     AUC 4062  23.025   3.628   7.503
    9AU     AUC 4063  22.315   2.610   7.510
    9AU     AUC 4064  22.644   2.572   7.495
    9AU     AUC 4065  22.965   2.561   7.512
    9AU     AUC 4066  22.649   2.801   8.040
    9AU     AUC 4067  22.667   3.123   8.059
    9AU     AUC 4068  22.693   3.450   8.024
    9AU     AUC 4069  22.691   2.789   6.990
    9AU     AUC 4070  22.708   3.110   6.964
    9AU     AUC 4071  22.700   3.425   6.963
    9AU     AUC 4072  22.935   2.942   7.954
    9AU     AUC 4073  22.966   3.275   7.952
    9AU     AUC 4074  22.962   2.944   7.077
    9AU     AUC 4075  22.972   3.273   7.075
    9AU     AUC 4076  22.396   2.970   7.954
    9AU     AUC 4077  22.411   3.304   7.948
    9AU     AUC 4078  22.411   2.957   7.072
    9AU     AUC 4079  22.415   3.282   7.044
    9AU     AUC 4080  23.134   3.358   7.351
    9AU     AUC 4081  23.141   3.364   7.683
    9AU     AUC 4082  22.253   3.409   7.324
    9AU     AUC 4083  22.251   3.421   7.673
    9AU     AUC 4084  23.109   2.809   7.352
    9AU     AUC 4085  23.084   2.807   7.685
    9AU     AUC 4086  22.211   2.863   7.347
    9AU     AUC 4087  22.221   2.860   7.686
    9AU     AUC 4088  22.536   3.572   7.768
    9AU     AUC 4089  22.876   3.556   7.774
    9AU     AUC 4090  22.480   2.688   7.788
    9AU     AUC 4091  22.803   2.665   7.774
    9AU     AUC 4092  22.527   3.547   7.206
    9AU     AUC 4093  22.861   3.551   7.225
    9AU     AUC 4094  22.485   2.678   7.236
    9AU     AUC 4095  22.828   2.659   7.232
    9AU    AUSL 4096  23.156   3.055   8.141
    9AU    AUSL 4097  22.913   2.687   8.074
    9AU     AUL 4098  23.101   2.713   8.349
    9AU       S 4099  23.283   2.241   8.212
    9AU     LIG 4100  23.283   1.812   8.378
    9AU     LIG 4101  23.426   1.461   8.671
    9AU     LIG 4102  23.628   1.149   8.971
    9AU     LIG 4103  23.949   1.036   9.279
    9AU     LIG 4104  24.105   1.067   9.713
    9AU       S 4105  23.519   3.011   8.466
    9AU     LIG 4106  23.719   3.060   8.892
    9AU     LIG 4107  23.795   2.866   9.309
    9AU     LIG 4108  24.001   2.570   9.621
    9AU     LIG 4109  24.256   2.503  10.019
    9AU     LIG 4110  24.532   2.725  10.335
    9AU    AUSL 4111  22.823   2.961   8.275
    9AU    AUSL 4112  22.524   3.287   8.284
    9AU     AUL 4113  22.778   3.174   8.564
    9AU       S 4114  23.229   2.980   8.742
    9AU     LIG 4115  23.246   2.650   9.084
    9AU     LIG 4116  23.224   2.319   9.433
    9AU     LIG 4117  23.380   2.146   9.847
    9AU     LIG 4118  23.443   2.228  10.302
    9AU     LIG 4119  23.464   2.364  10.762
    9AU       S 4120  22.312   3.141   8.753
    9AU     LIG 4121  22.097   3.061   9.174
    9AU     LIG 4122  22.065   2.893   9.612
    9AU     LIG 4123  21.943   3.000  10.050
    9AU     LIG 4124  21.978   3.415  10.312
    9AU     LIG 4125  21.940   3.721  10.684
    9AU    AUSL 4126  22.849   3.328   8.222
    9AU    AUSL 4127  23.271   3.361   7.992
    9AU     AUL 4128  23.127   3.312   8.364
    9AU       S 4129  22.845   3.697   8.578
    9AU     LIG 4130  23.107   3.654   8.972
    9AU     LIG 4131  23.343   3.767   9.377
    9AU     LIG 4132  23.346   3.886   9.853
    9AU     LIG 4133  23.430   3.970  10.321
    9AU     LIG 4134  23.683   4.048  10.722
    9AU       S 4135  23.564   3.554   8.289
    9AU     LIG 4136  23.902   3.412   8.559
    9AU     LIG 4137  24.259   3.618   8.750
    9AU     LIG 4138  24.468   3.906   9.051
    9AU     LIG 4139  24.693   4.196   9.336
    9AU     LIG 4140  25.036   4.189   9.670
    9AU    AUSL 4141  23.162   3.203   6.880
    9AU    AUSL 4142  23.002   3.516   6.942
    9AU     AUL 4143  22.955   3.554   6.623
    9AU       S 4144  23.364   3.218   6.451
    9AU     LIG 4145  23.714   2.940   6.218
    9AU     LIG 4146  23.783   2.706   5.814
    9AU     LIG 4147  23.825   2.603   5.347
    9AU     LIG 4148  23.977   2.593   4.901
    9AU     LIG 4149  24.363   2.551   4.624
    9AU       S 4150  23.450   3.663   6.669
    9AU     LIG 4151  23.653   3.916   6.341
    9AU     LIG 4152  23.880   4.144   5.992
    9AU     LIG 4153  24.107   4.320   5.611
    9AU     LIG 4154  24.090   4.591   5.225
    9AU     LIG 4155  24.157   4.982   4.974
    9AU    AUSL 4156  22.979   2.925   6.803
    9AU    AUSL 4157  23.216   2.813   7.050
    9AU     AUL 4158  23.437   2.996   6.905
    9AU       S 4159  23.416   2.549   6.660
    9AU     LIG 4160  23.753   2.426   6.389
    9AU     LIG 4161  24.005   2.065   6.273
    9AU     LIG 4162  24.108   1.674   6.049
    9AU     LIG 4163  24.391   1.546   5.706
    9AU     LIG 4164  24.726   1.677   5.396
    9AU       S 4165  23.252   2.940   6.404
    9AU     LIG 4166  23.346   2.591   6.107
    9AU     LIG 4167  23.347   2.483   5.651
    9AU     LIG 4168  23.348   2.489   5.175
    9AU     LIG 4169  23.499   2.431   4.733
    9AU     LIG 4170  23.609   2.273   4.304
    9AU    AUSL 4171  22.850   3.231   6.730
    9AU    AUSL 4172  22.580   2.949   6.783
    9AU     AUL 4173  22.776   2.848   6.533
    9AU       S 4174  22.359   3.012   6.290
    9AU     LIG 4175  22.382   2.732   5.922
    9AU     LIG 4176  22.163   2.444   5.625
    9AU     LIG 4177  21.943   2.359   5.218
    9AU     LIG 4178  21.725   2.390   4.796
    9AU     LIG 4179  21.694   2.369   4.316
    9AU       S 4180  23.095   3.184   6.296
    9AU     LIG 4181  23.319   3.044   5.884
    9AU     LIG 4182  23.449   2.943   5.432
    9AU     LIG 4183  23.548   2.925   4.954
    9AU     LIG 4184  23.540   3.190   4.534
    9AU     LIG 4185  23.623   3.535   4.192
    9AU    AUSL 4186  22.215   3.206   8.150
    9AU    AUSL 4187  22.414   3.557   8.066
    9AU     AUL 4188  22.305   3.531   8.403
    9AU       S 4189  22.080   3.119   8.652
    9AU     LIG 4190  21.822   2.778   8.830
    9AU     LIG 4191  21.733   2.672   9.281
    9AU     LIG 4192  21.582   2.739   9.740
    9AU     LIG 4193  21.270   2.785  10.099
    9AU     LIG 4194  21.015   2.814  10.503
    9AU       S 4195  21.961   3.888   8.218
    9AU     LIG 4196  21.980   4.077   8.647
    9AU     LIG 4197  21.976   4.338   9.038
    9AU     LIG 4198  21.760   4.626   9.325
    9AU     LIG 4199  21.617   4.894   9.685
    9AU     LIG 4200  21.305   5.035  10.023
    9AU    AUSL 4201  22.430   2.945   8.241
    9AU    AUSL 4202  22.138   2.865   7.984
    9AU     AUL 4203  21.959   3.018   8.186
    9AU       S 4204  21.943   2.549   8.372
    9AU     LIG 4205  21.511   2.472   8.499
    9AU     LIG 4206  21.196   2.135   8.551
    9AU     LIG 4207  20.927   1.772   8.663
    9AU     LIG 4208  20.669   1.529   8.968
    9AU     LIG 4209  20.460   1.459   9.389
    9AU       S 4210  22.297   2.873   8.615
    9AU     LIG 4211  22.271   2.610   9.003
    9AU     LIG 4212  22.163   2.418   9.418
    9AU     LIG 4213  21.975   2.419   9.842
    9AU     LIG 4214  21.860   2.496  10.278
    9AU     LIG 4215  21.955   2.376  10.724
    9AU    AUSL 4216  22.255   3.061   6.837
    9AU    AUSL 4217  22.369   2.702   6.952
    9AU     AUL 4218  22.456   2.666   6.649
    9AU       S 4219  22.128   2.991   6.384
    9AU     LIG 4220  21.888   2.819   6.008
    9AU     LIG 4221  21.684   2.639   5.615
    9AU     LIG 4222  21.457   2.539   5.222
    9AU     LIG 4223  21.257   2.636   4.818
    9AU     LIG 4224  20.890   2.806   4.574
    9AU       S 4225  21.959   2.571   6.620
    9AU     LIG 4226  21.600   2.277   6.403
    9AU     LIG 4227  21.355   1.857   6.400
    9AU     LIG 4228  21.080   1.539   6.149
    9AU     LIG 4229  20.826   1.314   5.813
    9AU     LIG 4230  20.871   1.153   5.375
    9AU    AUSL 4231  22.519   3.302   6.748
    9AU    AUSL 4232  22.115   3.400   7.013
    9AU     AUL 4233  22.186   3.395   6.675
    9AU       S 4234  21.756   3.645   6.741
    9AU     LIG 4235  21.400   3.821   6.490
    9AU     LIG 4236  21.318   3.940   6.050
    9AU     LIG 4237  21.094   4.028   5.643
    9AU     LIG 4238  20.675   4.112   5.440
    9AU     LIG 4239  20.396   4.330   5.120
    9AU       S 4240  22.469   3.246   6.284
    9AU     LIG 4241  22.209   3.217   5.863
    9AU     LIG 4242  22.086   2.940   5.497
    9AU     LIG 4243  21.975   2.853   5.033
    9AU     LIG 4244  22.060   3.027   4.579
    9AU     LIG 4245  22.085   3.259   4.148
    9AU    AUSL 4246  23.337   3.517   7.487
    9AU    AUSL 4247  23.308   3.413   7.122
    9AU     AUL 4248  23.405   3.826   7.367
    9AU       S 4249  23.590   3.541   6.883
    9AU     LIG 4250  23.958   3.542   6.623
    9AU     LIG 4251  24.151   3.783   6.272
    9AU     LIG 4252  24.391   4.051   5.958
    9AU     LIG 4253  24.653   4.141   5.570
    9AU     LIG 4254  25.090   4.255   5.405
    9AU       S 4255  23.859   3.593   7.343
    9AU     LIG 4256  24.376   3.678   7.441
    9AU     LIG 4257  24.877   3.547   7.509
    9AU     LIG 4258  25.332   3.785   7.532
    9AU     LIG 4259  25.629   4.201   7.494
    9AU     LIG 4260  25.767   4.594   7.222
    9AU    AUSL 4261  23.458   3.203   7.348
    9AU    AUSL 4262  23.371   2.912   7.671
    9AU     AUL 4263  23.698   2.988   7.573
    9AU       S 4264  23.861   3.335   7.234
    9AU     LIG 4265  24.315   3.290   7.130
    9AU     LIG 4266  24.803   3.283   7.054
    9AU     LIG 4267  25.271   3.421   7.040
    9AU     LIG 4268  25.779   3.450   7.096
    9AU     LIG 4269  26.161   3.721   6.945
    9AU       S 4270  23.787   2.472   7.699
    9AU     LIG 4271  24.151   2.239   7.846
    9AU     LIG 4272  24.590   2.118   7.796
    9AU     LIG 4273  25.052   2.171   7.876
    9AU     LIG 4274  25.521   2.058   7.832
    9AU     LIG 4275  26.019   2.129   7.905
    9AU    AUSL 4276  23.447   3.251   7.704
    9AU    AUSL 4277  23.184   3.663   7.777
    9AU     AUL 4278  23.521   3.593   7.777
    9AU       S 4279  23.510   3.860   8.199
    9AU     LIG 4280  23.910   3.921   8.448
    9AU     LIG 4281  24.243   4.152   8.664
    9AU     LIG 4282  24.523   4.436   8.893
    9AU     LIG 4283  24.619   4.892   8.932
    9AU     LIG 4284  24.596   5.339   9.063
    9AU       S 4285  23.942   3.423   7.555
    9AU     LIG 4286  24.334   3.231   7.684
    9AU     LIG 4287  24.743   3.082   7.847
    9AU     LIG 4288  25.143   3.284   7.909
    9AU     LIG 4289  25.561   3.513   7.936
    9AU     LIG 4290  25.956   3.710   7.770
    9AU    AUSL 4291  22.094   3.634   7.519
    9AU    AUSL 4292  22.090   3.454   7.940
    9AU     AUL 4293  21.791   3.647   7.716
    9AU       S 4294  21.810   3.605   8.233
    9AU     LIG 4295  21.537   3.835   8.531
    9AU     LIG 4296  21.514   4.110   8.917
    9AU     LIG 4297  21.256   4.127   9.319
    9AU     LIG 4298  20.848   4.120   9.575
    9AU     LIG 4299  20.415   4.253   9.715
    9AU       S 4300  21.929   4.095   7.484
    9AU     LIG 4301  21.508   4.282   7.338
    9AU     LIG 4302  21.041   4.451   7.385
    9AU     LIG 4303  20.681   4.784   7.450
    9AU     LIG 4304  20.363   5.017   7.700
    9AU     LIG 4305  19.908   4.960   7.772
    9AU    AUSL 4306  21.975   3.306   7.305
    9AU    AUSL 4307  22.220   3.703   7.203
    9AU     AUL 4308  21.854   3.614   7.246
    9AU       S 4309  21.598   3.212   6.954
    9AU     LIG 4310  21.262   3.595   6.933
    9AU     LIG 4311  20.936   3.927   6.749
    9AU     LIG 4312  20.436   3.817   6.771
    9AU     LIG 4313  19.947   3.882   6.826
    9AU     LIG 4314  19.500   4.075   6.706
    9AU       S 4315  21.930   4.054   6.983
    9AU     LIG 4316  21.885   4.387   6.640
    9AU     LIG 4317  21.856   4.701   6.276
    9AU     LIG 4318  21.692   5.119   6.111
    9AU     LIG 4319  21.294   5.354   6.133
    9AU     LIG 4320  20.964   5.681   6.143
    9AU    AUSL 4321  21.941   3.310   7.673
    9AU    AUSL 4322  21.893   2.985   7.356
    9AU     AUL 4323  21.664   3.339   7.449
    9AU       S 4324  21.414   2.884   7.405
    9AU     LIG 4325  20.947   2.715   7.413
    9AU     LIG 4326  20.472   2.629   7.362
    9AU     LIG 4327  20.039   2.819   7.297
    9AU     LIG 4328  19.639   2.613   7.168
    9AU     LIG 4329  19.448   2.257   6.918
    9AU       S 4330  21.533   3.266   7.961
    9AU     LIG 4331  21.146   3.496   8.078
    9AU     LIG 4332  20.862   3.840   8.171
    9AU     LIG 4333  20.424   3.966   8.182
    9AU     LIG 4334  19.995   4.150   8.113
    9AU     LIG 4335  19.507   4.188   8.208
    9AU    AUSL 4336  23.284   2.602   7.564
    9AU    AUSL 4337  23.227   2.771   7.954
    9AU     AUL 4338  23.551   2.853   7.902
    9AU       S 4339  23.591   2.327   7.619
    9AU     LIG 4340  23.865   1.984   7.507
    9AU     LIG 4341  24.302   1.833   7.484
    9AU     LIG 4342  24.762   1.702   7.540
    9AU     LIG 4343  25.219   1.539   7.539
    9AU     LIG 4344  25.480   1.127   7.634
    9AU       S 4345  23.484   2.390   8.114
    9AU     LIG 4346  23.760   2.037   8.279
    9AU     LIG 4347  23.868   1.723   8.627
    9AU     LIG 4348  24.068   1.428   8.945
    9AU     LIG 4349  24.376   1.357   9.296
    9AU     LIG 4350  24.781   1.531   9.484
    9AU    AUSL 4351  23.419   2.863   7.331
    9AU    AUSL 4352  23.117   2.515   7.233
    9AU     AUL 4353  23.443   2.565   7.192
    9AU       S 4354  23.859   2.518   7.452
    9AU     LIG 4355  24.265   2.345   7.337
    9AU     LIG 4356  24.650   2.158   7.268
    9AU     LIG 4357  25.060   2.074   7.361
    9AU     LIG 4358  25.483   1.956   7.310
    9AU     LIG 4359  25.856   2.076   7.045
    9AU       S 4360  23.391   2.299   6.772
    9AU     LIG 4361  23.688   1.965   6.666
    9AU     LIG 4362  23.933   1.582   6.530
    9AU     LIG 4363  24.026   1.185   6.280
    9AU     LIG 4364  24.197   0.722   6.257
    9AU     LIG 4365  24.392   0.267   6.272
    9AU    AUSL 4366  22.011   2.679   7.531
    9AU    AUSL 4367  22.071   2.878   7.070
    9AU     AUL 4368  21.833   2.629   7.251
    9AU       S 4369  21.805   2.766   6.749
    9AU     LIG 4370  21.370   2.586   6.762
    9AU     LIG 4371  21.086   2.235   6.664
    9AU     LIG 4372  20.837   1.909   6.424
    9AU     LIG 4373  20.499   1.739   6.129
    9AU     LIG 4374  20.247   1.494   5.816
    9AU       S 4375  21.443   2.648   7.558
    9AU     LIG 4376  21.258   2.366   7.218
    9AU     LIG 4377  20.821   2.226   7.157
    9AU     LIG 4378  20.445   2.094   7.425
    9AU     LIG 4379  20.030   1.887   7.525
    9AU     LIG 4380  19.608   1.656   7.505
    9AU    AUSL 4381  21.928   2.974   7.714
    9AU    AUSL 4382  22.175   2.550   7.817
    9AU     AUL 4383  21.844   2.673   7.869
    9AU       S 4384  21.926   2.318   8.210
    9AU     LIG 4385  21.527   2.068   8.157
    9AU     LIG 4386  21.202   1.730   8.212
    9AU     LIG 4387  21.080   1.330   8.429
    9AU     LIG 4388  20.934   0.927   8.641
    9AU     LIG 4389  20.549   0.660   8.721
    9AU       S 4390  21.439   2.896   7.644
    9AU     LIG 4391  21.048   3.139   7.711
    9AU     LIG 4392  20.613   3.016   7.672
    9AU     LIG 4393  20.230   2.842   7.798
    9AU     LIG 4394  19.782   2.846   7.774
    9AU     LIG 4395  19.446   2.571   7.661
    9AU    AUSL 4396  22.706   3.765   7.949
    9AU    AUSL 4397  22.279   3.741   7.806
    9AU     AUL 4398  22.469   3.851   8.195
    9AU       S 4399  22.063   4.070   7.958
    9AU     LIG 4400  22.013   4.430   8.255
    9AU     LIG 4401  21.751   4.547   8.628
    9AU     LIG 4402  21.543   4.847   8.899
    9AU     LIG 4403  21.482   5.301   8.894
    9AU     LIG 4404  21.167   5.649   8.911
    9AU       S 4405  22.686   4.276   8.013
    9AU     LIG 4406  22.834   4.511   8.375
    9AU     LIG 4407  22.679   4.865   8.627
    9AU     LIG 4408  22.726   5.297   8.748
    9AU     LIG 4409  22.632   5.693   8.939
    9AU     LIG 4410  22.679   5.904   9.349
    9AU    AUSL 4411  22.544   3.876   7.636
    9AU    AUSL 4412  22.868   3.891   7.316
    9AU     AUL 4413  22.468   4.117   7.375
    9AU       S 4414  22.510   4.312   7.839
    9AU     LIG 4415  22.511   4.767   8.074
    9AU     LIG 4416  22.496   5.221   8.275
    9AU     LIG 4417  22.610   5.675   8.398
    9AU     LIG 4418  22.659   6.142   8.456
    9AU     LIG 4419  22.378   6.476   8.614
    9AU       S 4420  22.949   4.295   7.211
    9AU     LIG 4421  23.140   4.698   7.095
    9AU     LIG 4422  23.264   5.034   6.803
    9AU     LIG 4423  23.186   5.459   6.597
    9AU     LIG 4424  23.123   5.929   6.504
    9AU     LIG 4425  23.262   6.383   6.399
    9AU    AUSL 4426  22.906   3.857   7.659
    9AU    AUSL 4427  22.994   3.589   8.066
    9AU     AUL 4428  23.053   3.932   7.977
    9AU       S 4429  23.316   3.781   8.396
    9AU     LIG 4430  23.574   3.739   8.785
    9AU     LIG 4431  23.931   3.924   9.008
    9AU     LIG 4432  24.152   4.284   9.219
    9AU     LIG 4433  24.148   4.642   9.530
    9AU     LIG 4434  24.088   4.958   9.884
    9AU       S 4435  22.840   4.319   7.714
    9AU     LIG 4436  22.996   4.694   7.907
    9AU     LIG 4437  22.993   5.005   8.245
    9AU     LIG 4438  23.070   5.434   8.396
    9AU     LIG 4439  23.100   5.904   8.361
    9AU     LIG 4440  23.085   6.386   8.289
    9AU    AUSL 4441  22.669   2.470   7.955
    9AU    AUSL 4442  23.036   2.493   7.819
    9AU     AUL 4443  22.822   2.434   8.250
    9AU       S 4444  22.819   1.969   8.023
    9AU     LIG 4445  22.729   1.556   8.206
    9AU     LIG 4446  22.434   1.207   8.279
    9AU     LIG 4447  22.374   0.759   8.396
    9AU     LIG 4448  22.373   0.465   8.783
    9AU     LIG 4449  22.414   0.262   9.224
    9AU       S 4450  23.266   2.210   7.961
    9AU     LIG 4451  23.485   1.828   7.900
    9AU     LIG 4452  23.669   1.503   8.200
    9AU     LIG 4453  23.862   1.199   8.520
    9AU     LIG 4454  24.117   0.907   8.800
    9AU     LIG 4455  24.268   0.442   8.840
    9AU    AUSL 4456  22.460   2.430   7.675
    9AU    AUSL 4457  22.399   2.639   8.090
    9AU     AUL 4458  22.374   2.272   7.987
    9AU       S 4459  22.642   1.862   7.794
    9AU     LIG 4460  22.446   1.445   7.766
    9AU     LIG 4461  22.244   1.013   7.837
    9AU     LIG 4462  21.993   0.643   8.024
    9AU     LIG 4463  21.814   0.242   8.227
    9AU     LIG 4464  21.639  44.801   8.203
    9AU       S 4465  22.157   2.427   8.433
    9AU     LIG 4466  21.802   2.063   8.612
    9AU     LIG 4467  21.456   1.699   8.662
    9AU     LIG 4468  21.175   1.397   8.930
    9AU     LIG 4469  20.959   1.302   9.343
    9AU     LIG 4470  20.982   1.166   9.800
    9AU    AUSL 4471  22.777   2.335   7.647
    9AU    AUSL 4472  22.451   2.368   7.330
    9AU     AUL 4473  22.312   2.186   7.612
    9AU       S 4474  22.475   1.891   7.237
    9AU     LIG 4475  22.229   1.473   7.290
    9AU     LIG 4476  22.065   1.032   7.194
    9AU     LIG 4477  22.060   0.628   6.951
    9AU     LIG 4478  21.816   0.269   6.737
    9AU     LIG 4479  21.815  44.993   6.358
    9AU       S 4480  22.900   1.961   7.744
    9AU     LIG 4481  22.979   1.494   7.761
    9AU     LIG 4482  22.785   1.089   7.914
    9AU     LIG 4483  22.847   0.679   8.117
    9AU     LIG 4484  23.200   0.355   8.135
    9AU     LIG 4485  23.380  44.942   8.094
    9AU    AUSL 4486  22.729   3.737   6.991
    9AU    AUSL 4487  23.123   3.668   7.243
    9AU     AUL 4488  23.068   3.859   6.973
    9AU       S 4489  22.794   4.238   6.816
    9AU     LIG 4490  23.043   4.553   6.610
    9AU     LIG 4491  22.941   4.949   6.420
    9AU     LIG 4492  22.771   5.344   6.323
    9AU     LIG 4493  22.771   5.767   6.133
    9AU     LIG 4494  22.842   6.043   5.755
    9AU       S 4495  23.576   3.821   6.893
    9AU     LIG 4496  23.961   4.045   6.726
    9AU     LIG 4497  24.189   4.285   6.385
    9AU     LIG 4498  24.441   4.592   6.122
    9AU     LIG 4499  24.655   5.041   6.138
    9AU     LIG 4500  24.839   5.500   6.155
    9AU    AUSL 4501  22.544   3.795   7.288
    9AU    AUSL 4502  22.411   3.587   6.919
    9AU     AUL 4503  22.424   3.937   6.992
    9AU       S 4504  22.748   4.347   7.043
    9AU     LIG 4505  22.671   4.787   6.885
    9AU     LIG 4506  22.782   5.231   6.845
    9AU     LIG 4507  22.721   5.681   6.741
    9AU     LIG 4508  22.623   6.070   6.521
    9AU     LIG 4509  22.386   6.455   6.562
    9AU       S 4510  22.007   3.873   6.704
    9AU     LIG 4511  21.835   4.007   6.285
    9AU     LIG 4512  21.815   4.274   5.896
    9AU     LIG 4513  21.886   4.371   5.427
    9AU     LIG 4514  21.835   4.644   5.040
    9AU     LIG 4515  21.608   5.028   4.888
    9AU    AUSL 4516  22.633   2.471   7.035
    9AU    AUSL 4517  22.183   2.568   7.225
    9AU     AUL 4518  22.314   2.334   6.974
    9AU       S 4519  21.849   2.430   6.803
    9AU     LIG 4520  21.532   2.081   6.877
    9AU     LIG 4521  21.164   1.777   6.877
    9AU     LIG 4522  20.929   1.445   6.631
    9AU     LIG 4523  20.631   1.268   6.291
    9AU     LIG 4524  20.264   1.034   6.063
    9AU       S 4525  22.602   1.910   6.996
    9AU     LIG 4526  22.470   1.469   6.839
    9AU     LIG 4527  22.241   1.054   6.695
    9AU     LIG 4528  22.135   0.657   6.435
    9AU     LIG 4529  22.157   0.440   5.994
    9AU     LIG 4530  22.425   0.355   5.593
    9AU    AUSL 4531  22.817   2.357   7.317
    9AU    AUSL 4532  22.930   2.620   6.936
    9AU     AUL 4533  22.952   2.273   7.008
    9AU       S 4534  22.754   1.892   7.283
    9AU     LIG 4535  22.734   1.425   7.298
    9AU     LIG 4536  22.573   1.017   7.090
    9AU     LIG 4537  22.572   0.621   6.789
    9AU     LIG 4538  22.837   0.205   6.644
    9AU     LIG 4539  23.148  44.805   6.558
    9AU       S 4540  23.168   2.453   6.578
    9AU     LIG 4541  23.347   2.115   6.299
    9AU     LIG 4542  23.593   1.747   6.185
    9AU     LIG 4543  23.694   1.389   5.913
    9AU     LIG 4544  23.704   1.274   5.464
    9AU     LIG 4545  23.868   1.135   5.060
   10AU     AUC 4546  24.559  25.649   7.512
   10AU     AUC 4547  24.830  25.629   7.352
   10AU     AUC 4548  24.826  25.634   7.678
   10AU     AUC 4549  24.293  25.662   7.342
   10AU     AUC 4550  24.293  25.667   7.677
   10AU     AUC 4551  24.411  25.925   7.504
   10AU     AUC 4552  24.742  25.906   7.509
   10AU     AUC 4553  24.374  25.391   7.513
   10AU     AUC 4554  24.705  25.369   7.513
   10AU     AUC 4555  24.546  25.487   7.782
   10AU     AUC 4556  24.572  25.817   7.778
   10AU     AUC 4557  24.555  25.479   7.247
   10AU     AUC 4558  24.571  25.809   7.239
   10AU     AUC 4559  25.098  25.621   7.197
   10AU     AUC 4560  25.104  25.609   7.514
   10AU     AUC 4561  25.084  25.616   7.836
   10AU     AUC 4562  24.040  25.668   7.171
   10AU     AUC 4563  24.017  25.676   7.510
   10AU     AUC 4564  24.039  25.689   7.840
   10AU     AUC 4565  24.271  26.191   7.502
   10AU     AUC 4566  24.599  26.193   7.498
   10AU     AUC 4567  24.913  26.159   7.503
   10AU     AUC 4568  24.191  25.146   7.514
   10AU     AUC 4569  24.520  25.105   7.504
   10AU     AUC 4570  24.843  25.093   7.520
   10AU     AUC 4571  24.534  25.331   8.047
   10AU     AUC 4572  24.557  25.652   8.064
   10AU     AUC 4573  24.581  25.982   8.026
   10AU     AUC 4574  24.569  25.319   6.994
   10AU     AUC 4575  24.585  25.642   6.971
   10AU     AUC 4576  24.580  25.958   6.970
   10AU     AUC 4577  24.820  25.472   7.954
   10AU     AUC 4578  24.853  25.805   7.954
   10AU     AUC 4579  24.844  25.470   7.081
   10AU     AUC 4580  24.853  25.798   7.080
   10AU     AUC 4581  24.279  25.503   7.966
   10AU     AUC 4582  24.297  25.835   7.954
   10AU     AUC 4583  24.288  25.492   7.072
   10AU     AUC 4584  24.295  25.822   7.050
   10AU     AUC 4585  25.019  25.886   7.355
   10AU     AUC 4586  25.018  25.898   7.685
   10AU     AUC 4587  24.137  25.949   7.330
   10AU     AUC 4588  24.138  25.957   7.679
   10AU     AUC 4589  24.990  25.340   7.354
   10AU     AUC 4590  24.971  25.342   7.680
   10AU     AUC 4591  24.090  25.399   7.346
   10AU     AUC 4592  24.101  25.398   7.686
   10AU     AUC 4593  24.423  26.108   7.772
   10AU     AUC 4594  24.762  26.089   7.776
   10AU     AUC 4595  24.356  25.224   7.796
   10AU     AUC 4596  24.683  25.197   7.779
   10AU     AUC 4597  24.412  26.085   7.213
   10AU     AUC 4598  24.747  26.081   7.230
   10AU     AUC 4599  24.363  25.211   7.239
   10AU     AUC 4600  24.704  25.190   7.239
   10AU    AUSL 4601  25.053  25.584   8.136
   10AU    AUSL 4602  24.802  25.212   8.074
   10AU     AUL 4603  25.061  25.225   8.299
   10AU       S 4604  25.135  24.717   8.171
   10AU     LIG 4605  25.085  24.297   8.349
   10AU     LIG 4606  25.256  24.005   8.680
   10AU     LIG 4607  25.518  23.851   9.036
   10AU     LIG 4608  25.789  23.815   9.409
   10AU     LIG 4609  25.824  23.629   9.836
   10AU       S 4610  25.412  25.562   8.480
   10AU     LIG 4611  25.539  25.689   8.909
   10AU     LIG 4612  25.583  25.423   9.308
   10AU     LIG 4613  25.819  25.202   9.665
   10AU     LIG 4614  26.091  25.199  10.053
   10AU     LIG 4615  26.390  25.278  10.405
   10AU    AUSL 4616  24.726  25.484   8.280
   10AU    AUSL 4617  24.413  25.820   8.283
   10AU     AUL 4618  24.668  25.713   8.561
   10AU       S 4619  25.093  25.468   8.731
   10AU     LIG 4620  24.951  25.212   9.103
   10AU     LIG 4621  24.963  25.002   9.530
   10AU     LIG 4622  25.170  24.953   9.956
   10AU     LIG 4623  25.252  24.886  10.426
   10AU     LIG 4624  25.398  24.906  10.892
   10AU       S 4625  24.203  25.701   8.762
   10AU     LIG 4626  24.013  25.632   9.193
   10AU     LIG 4627  23.976  25.422   9.611
   10AU     LIG 4628  23.795  25.434  10.037
   10AU     LIG 4629  23.779  25.749  10.392
   10AU     LIG 4630  23.729  26.149  10.651
   10AU    AUSL 4631  24.738  25.855   8.219
   10AU    AUSL 4632  25.154  25.897   8.003
   10AU     AUL 4633  25.007  25.836   8.374
   10AU       S 4634  24.728  26.236   8.570
   10AU     LIG 4635  24.985  26.282   8.950
   10AU     LIG 4636  25.286  26.407   9.291
   10AU     LIG 4637  25.271  26.551   9.745
   10AU     LIG 4638  25.171  26.538  10.211
   10AU     LIG 4639  25.239  26.422  10.667
   10AU       S 4640  25.443  26.086   8.295
   10AU     LIG 4641  25.826  26.017   8.524
   10AU     LIG 4642  26.115  26.292   8.754
   10AU     LIG 4643  26.307  26.572   9.064
   10AU     LIG 4644  26.684  26.685   9.301
   10AU     LIG 4645  26.974  26.850   9.629
   10AU    AUSL 4646  25.039  25.730   6.882
   10AU    AUSL 4647  24.882  26.038   6.946
   10AU     AUL 4648  24.828  26.078   6.632
   10AU       S 4649  25.196  25.741   6.438
   10AU     LIG 4650  25.514  25.545   6.148
   10AU     LIG 4651  25.564  25.299   5.761
   10AU     LIG 4652  25.660  25.200   5.306
   10AU     LIG 4653  26.050  25.107   5.025
   10AU     LIG 4654  26.411  25.197   4.717
   10AU       S 4655  25.328  26.186   6.660
   10AU     LIG 4656  25.502  26.510   6.321
   10AU     LIG 4657  25.701  26.748   5.922
   10AU     LIG 4658  25.706  26.923   5.446
   10AU     LIG 4659  25.989  27.116   5.068
   10AU     LIG 4660  26.223  27.460   4.833
   10AU    AUSL 4661  24.857  25.450   6.811
   10AU    AUSL 4662  25.103  25.331   7.044
   10AU     AUL 4663  25.313  25.528   6.891
   10AU       S 4664  25.306  25.077   6.658
   10AU     LIG 4665  25.597  24.828   6.367
   10AU     LIG 4666  25.778  24.391   6.273
   10AU     LIG 4667  25.945  24.000   6.044
   10AU     LIG 4668  26.225  23.861   5.680
   10AU     LIG 4669  26.530  23.980   5.325
   10AU       S 4670  25.090  25.455   6.402
   10AU     LIG 4671  25.220  25.106   6.117
   10AU     LIG 4672  25.157  25.005   5.656
   10AU     LIG 4673  25.181  25.001   5.173
   10AU     LIG 4674  25.154  25.024   4.688
   10AU     LIG 4675  25.336  24.926   4.260
   10AU    AUSL 4676  24.719  25.749   6.740
   10AU    AUSL 4677  24.453  25.491   6.785
   10AU     AUL 4678  24.639  25.318   6.588
   10AU       S 4679  24.375  25.609   6.268
   10AU     LIG 4680  24.320  25.329   5.900
   10AU     LIG 4681  24.052  25.068   5.620
   10AU     LIG 4682  23.850  25.031   5.200
   10AU     LIG 4683  23.683  24.818   4.808
   10AU     LIG 4684  23.767  24.571   4.400
   10AU       S 4685  24.901  25.685   6.302
   10AU     LIG 4686  25.068  25.529   5.874
   10AU     LIG 4687  25.212  25.468   5.420
   10AU     LIG 4688  25.267  25.469   4.947
   10AU     LIG 4689  25.192  25.677   4.514
   10AU     LIG 4690  25.284  26.028   4.195
   10AU    AUSL 4691  24.101  25.730   8.162
   10AU    AUSL 4692  24.304  26.090   8.066
   10AU     AUL 4693  24.213  26.070   8.399
   10AU       S 4694  23.957  25.714   8.675
   10AU     LIG 4695  23.746  25.333   8.866
   10AU     LIG 4696  23.663  25.169   9.303
   10AU     LIG 4697  23.444  25.160   9.737
   10AU     LIG 4698  23.097  25.068  10.071
   10AU     LIG 4699  22.699  25.151  10.343
   10AU       S 4700  23.841  26.392   8.239
   10AU     LIG 4701  23.886  26.557   8.672
   10AU     LIG 4702  23.865  26.781   9.062
   10AU     LIG 4703  23.561  27.026   9.286
   10AU     LIG 4704  23.290  27.129   9.651
   10AU     LIG 4705  23.224  27.391  10.038
   10AU    AUSL 4706  24.346  25.471   8.264
   10AU    AUSL 4707  24.011  25.409   7.972
   10AU     AUL 4708  23.912  25.470   8.255
   10AU       S 4709  23.746  25.005   8.315
   10AU     LIG 4710  23.291  24.952   8.349
   10AU     LIG 4711  23.008  24.596   8.418
   10AU     LIG 4712  22.766  24.249   8.622
   10AU     LIG 4713  22.562  24.014   8.970
   10AU     LIG 4714  22.393  23.936   9.394
   10AU       S 4715  24.217  25.424   8.672
   10AU     LIG 4716  24.197  25.173   9.067
   10AU     LIG 4717  24.111  24.944   9.455
   10AU     LIG 4718  23.896  24.949   9.855
   10AU     LIG 4719  23.592  24.959  10.207
   10AU     LIG 4720  23.454  24.829  10.643
   10AU    AUSL 4721  24.127  25.611   6.837
   10AU    AUSL 4722  24.255  25.227   6.953
   10AU     AUL 4723  24.261  25.249   6.625
   10AU       S 4724  24.084  25.600   6.305
   10AU     LIG 4725  23.815  25.414   5.963
   10AU     LIG 4726  23.568  25.252   5.590
   10AU     LIG 4727  23.351  25.209   5.186
   10AU     LIG 4728  22.949  25.257   4.945
   10AU     LIG 4729  22.778  25.433   4.546
   10AU       S 4730  23.812  25.029   6.656
   10AU     LIG 4731  23.535  24.634   6.483
   10AU     LIG 4732  23.291  24.225   6.422
   10AU     LIG 4733  23.052  23.918   6.144
   10AU     LIG 4734  22.875  23.814   5.718
   10AU     LIG 4735  22.924  23.813   5.240
   10AU    AUSL 4736  24.396  25.848   6.757
   10AU    AUSL 4737  23.999  25.949   7.022
   10AU     AUL 4738  24.041  25.916   6.683
   10AU       S 4739  23.642  26.207   6.755
   10AU     LIG 4740  23.397  26.299   6.387
   10AU     LIG 4741  23.343  26.486   5.971
   10AU     LIG 4742  23.092  26.776   5.719
   10AU     LIG 4743  22.660  26.770   5.513
   10AU     LIG 4744  22.255  26.830   5.269
   10AU       S 4745  24.379  25.862   6.300
   10AU     LIG 4746  24.154  25.816   5.851
   10AU     LIG 4747  23.977  25.560   5.481
   10AU     LIG 4748  23.807  25.516   5.031
   10AU     LIG 4749  23.852  25.623   4.553
   10AU     LIG 4750  23.816  25.783   4.092
   10AU    AUSL 4751  25.221  26.052   7.482
   10AU    AUSL 4752  25.195  25.928   7.130
   10AU     AUL 4753  25.291  26.353   7.372
   10AU       S 4754  25.483  26.055   6.873
   10AU     LIG 4755  25.853  26.248   6.626
   10AU     LIG 4756  26.009  26.445   6.231
   10AU     LIG 4757  26.230  26.570   5.842
   10AU     LIG 4758  26.639  26.708   5.626
   10AU     LIG 4759  27.025  26.798   5.339
   10AU       S 4760  25.727  26.100   7.302
   10AU     LIG 4761  26.217  26.136   7.237
   10AU     LIG 4762  26.650  26.225   7.445
   10AU     LIG 4763  27.101  26.415   7.507
   10AU     LIG 4764  27.455  26.762   7.458
   10AU     LIG 4765  27.731  27.110   7.642
   10AU    AUSL 4766  25.347  25.723   7.374
   10AU    AUSL 4767  25.287  25.450   7.667
   10AU     AUL 4768  25.592  25.610   7.745
   10AU       S 4769  25.716  25.791   7.247
   10AU     LIG 4770  26.121  25.599   7.260
   10AU     LIG 4771  26.555  25.732   7.255
   10AU     LIG 4772  26.983  25.879   7.267
   10AU     LIG 4773  27.394  26.098   7.235
   10AU     LIG 4774  27.688  26.457   7.084
   10AU       S 4775  25.737  25.138   7.585
   10AU     LIG 4776  26.071  24.875   7.801
   10AU     LIG 4777  26.497  24.678   7.773
   10AU     LIG 4778  26.925  24.494   7.827
   10AU     LIG 4779  27.349  24.627   7.712
   10AU     LIG 4780  27.729  24.457   7.924
   10AU    AUSL 4781  25.298  25.797   7.707
   10AU    AUSL 4782  25.075  26.191   7.778
   10AU     AUL 4783  25.419  26.115   7.778
   10AU       S 4784  25.401  26.387   8.201
   10AU     LIG 4785  25.727  26.543   8.502
   10AU     LIG 4786  25.998  26.839   8.755
   10AU     LIG 4787  26.418  27.033   8.830
   10AU     LIG 4788  26.632  27.459   8.843
   10AU     LIG 4789  26.556  27.916   8.824
   10AU       S 4790  25.821  25.968   7.496
   10AU     LIG 4791  26.259  25.864   7.676
   10AU     LIG 4792  26.719  25.807   7.738
   10AU     LIG 4793  27.133  26.012   7.854
   10AU     LIG 4794  27.519  26.111   8.112
   10AU     LIG 4795  27.956  26.299   8.154
   10AU    AUSL 4796  23.979  26.173   7.526
   10AU    AUSL 4797  23.980  25.982   7.950
   10AU     AUL 4798  23.675  26.180   7.734
   10AU       S 4799  23.702  26.113   8.255
   10AU     LIG 4800  23.428  26.363   8.551
   10AU     LIG 4801  23.392  26.595   8.958
   10AU     LIG 4802  23.132  26.744   9.322
   10AU     LIG 4803  22.800  26.882   9.623
   10AU     LIG 4804  22.359  26.846   9.804
   10AU       S 4805  23.826  26.629   7.506
   10AU     LIG 4806  23.393  26.860   7.515
   10AU     LIG 4807  22.991  27.139   7.603
   10AU     LIG 4808  22.672  27.441   7.814
   10AU     LIG 4809  22.199  27.517   7.845
   10AU     LIG 4810  21.736  27.656   7.805
   10AU    AUSL 4811  23.858  25.849   7.311
   10AU    AUSL 4812  24.111  26.249   7.214
   10AU     AUL 4813  23.739  26.159   7.257
   10AU       S 4814  23.486  25.761   6.954
   10AU     LIG 4815  23.113  26.096   6.927
   10AU     LIG 4816  22.696  26.369   6.979
   10AU     LIG 4817  22.221  26.482   6.936
   10AU     LIG 4818  21.765  26.603   6.967
   10AU     LIG 4819  21.308  26.657   7.100
   10AU       S 4820  23.831  26.597   6.996
   10AU     LIG 4821  23.522  26.733   6.651
   10AU     LIG 4822  23.440  26.929   6.223
   10AU     LIG 4823  23.288  27.307   5.971
   10AU     LIG 4824  23.007  27.713   5.969
   10AU     LIG 4825  22.575  27.958   5.981
   10AU    AUSL 4826  23.829  25.852   7.678
   10AU    AUSL 4827  23.775  25.526   7.350
   10AU     AUL 4828  23.546  25.876   7.458
   10AU       S 4829  23.296  25.423   7.410
   10AU     LIG 4830  22.921  25.167   7.273
   10AU     LIG 4831  22.526  25.072   7.476
   10AU     LIG 4832  22.070  25.117   7.398
   10AU     LIG 4833  21.637  24.974   7.331
   10AU     LIG 4834  21.377  24.620   7.189
   10AU       S 4835  23.433  25.782   7.982
   10AU     LIG 4836  22.948  25.889   8.021
   10AU     LIG 4837  22.571  26.178   8.148
   10AU     LIG 4838  22.189  26.439   8.236
   10AU     LIG 4839  21.722  26.354   8.238
   10AU     LIG 4840  21.261  26.462   8.322
   10AU    AUSL 4841  25.171  25.138   7.571
   10AU    AUSL 4842  25.103  25.303   7.928
   10AU     AUL 4843  25.421  25.323   7.940
   10AU       S 4844  25.568  24.937   7.615
   10AU     LIG 4845  25.761  24.543   7.563
   10AU     LIG 4846  26.192  24.412   7.455
   10AU     LIG 4847  26.651  24.292   7.443
   10AU     LIG 4848  27.007  24.011   7.587
   10AU     LIG 4849  27.370  23.756   7.784
   10AU       S 4850  25.358  24.839   8.064
   10AU     LIG 4851  25.580  24.520   8.331
   10AU     LIG 4852  25.713  24.253   8.694
   10AU     LIG 4853  26.010  23.997   8.965
   10AU     LIG 4854  26.292  23.968   9.352
   10AU     LIG 4855  26.645  23.963   9.679
   10AU    AUSL 4856  25.295  25.390   7.322
   10AU    AUSL 4857  24.986  25.056   7.245
   10AU     AUL 4858  25.297  25.043   7.210
   10AU       S 4859  25.735  25.247   7.355
   10AU     LIG 4860  26.086  24.905   7.293
   10AU     LIG 4861  26.523  24.734   7.201
   10AU     LIG 4862  26.967  24.878   7.021
   10AU     LIG 4863  27.424  24.721   7.110
   10AU     LIG 4864  27.897  24.651   6.983
   10AU       S 4865  25.261  24.838   6.756
   10AU     LIG 4866  25.440  24.432   6.674
   10AU     LIG 4867  25.609  24.014   6.600
   10AU     LIG 4868  25.720  23.649   6.357
   10AU     LIG 4869  26.045  23.396   6.164
   10AU     LIG 4870  26.479  23.236   6.167
   10AU    AUSL 4871  23.889  25.217   7.532
   10AU    AUSL 4872  23.955  25.409   7.064
   10AU     AUL 4873  23.712  25.185   7.253
   10AU       S 4874  23.688  25.265   6.748
   10AU     LIG 4875  23.264  25.052   6.672
   10AU     LIG 4876  23.019  24.663   6.565
   10AU     LIG 4877  22.779  24.291   6.400
   10AU     LIG 4878  22.543  24.008   6.100
   10AU     LIG 4879  22.177  23.887   5.811
   10AU       S 4880  23.327  25.174   7.571
   10AU     LIG 4881  23.136  24.758   7.505
   10AU     LIG 4882  22.723  24.610   7.347
   10AU     LIG 4883  22.241  24.623   7.416
   10AU     LIG 4884  21.782  24.489   7.489
   10AU     LIG 4885  21.398  24.185   7.469
   10AU    AUSL 4886  23.807  25.518   7.702
   10AU    AUSL 4887  24.045  25.087   7.817
   10AU     AUL 4888  23.722  25.243   7.872
   10AU       S 4889  23.766  24.813   8.131
   10AU     LIG 4890  23.382  24.562   8.029
   10AU     LIG 4891  23.088  24.210   8.085
   10AU     LIG 4892  22.922  23.862   8.330
   10AU     LIG 4893  22.622  23.645   8.613
   10AU     LIG 4894  22.533  23.469   9.036
   10AU       S 4895  23.305  25.435   7.640
   10AU     LIG 4896  22.822  25.532   7.630
   10AU     LIG 4897  22.346  25.548   7.512
   10AU     LIG 4898  21.874  25.502   7.681
   10AU     LIG 4899  21.418  25.315   7.653
   10AU     LIG 4900  21.145  24.900   7.668
   10AU    AUSL 4901  24.596  26.299   7.954
   10AU    AUSL 4902  24.161  26.278   7.812
   10AU     AUL 4903  24.349  26.394   8.188
   10AU       S 4904  23.913  26.595   7.995
   10AU     LIG 4905  23.610  26.823   8.324
   10AU     LIG 4906  23.543  27.038   8.742
   10AU     LIG 4907  23.394  27.422   8.987
   10AU     LIG 4908  23.194  27.858   9.038
   10AU     LIG 4909  22.882  28.221   9.082
   10AU       S 4910  24.598  26.809   8.028
   10AU     LIG 4911  24.851  27.055   8.325
   10AU     LIG 4912  24.976  27.449   8.539
   10AU     LIG 4913  24.878  27.754   8.895
   10AU     LIG 4914  24.803  27.956   9.328
   10AU     LIG 4915  24.677  28.292   9.645
   10AU    AUSL 4916  24.431  26.415   7.646
   10AU    AUSL 4917  24.766  26.422   7.317
   10AU     AUL 4918  24.382  26.664   7.375
   10AU       S 4919  24.422  26.840   7.845
   10AU     LIG 4920  24.572  27.307   7.965
   10AU     LIG 4921  24.702  27.717   8.188
   10AU     LIG 4922  24.521  28.140   8.380
   10AU     LIG 4923  24.213  28.517   8.523
   10AU     LIG 4924  24.097  28.962   8.702
   10AU       S 4925  24.896  26.825   7.209
   10AU     LIG 4926  25.279  27.121   7.048
   10AU     LIG 4927  25.373  27.583   6.896
   10AU     LIG 4928  25.474  28.059   6.801
   10AU     LIG 4929  25.593  28.528   6.675
   10AU     LIG 4930  25.730  28.996   6.650
   10AU    AUSL 4931  24.796  26.389   7.662
   10AU    AUSL 4932  24.881  26.120   8.068
   10AU     AUL 4933  24.948  26.456   7.978
   10AU       S 4934  25.204  26.307   8.406
   10AU     LIG 4935  25.465  26.233   8.805
   10AU     LIG 4936  25.757  26.488   9.061
   10AU     LIG 4937  25.935  26.837   9.312
   10AU     LIG 4938  25.931  27.005   9.752
   10AU     LIG 4939  26.031  27.391  10.013
   10AU       S 4940  24.755  26.856   7.721
   10AU     LIG 4941  25.073  27.186   7.874
   10AU     LIG 4942  25.315  27.542   8.085
   10AU     LIG 4943  25.469  27.966   8.228
   10AU     LIG 4944  25.582  28.364   8.438
   10AU     LIG 4945  25.559  28.830   8.451
   10AU    AUSL 4946  24.541  25.011   7.970
   10AU    AUSL 4947  24.917  25.022   7.814
   10AU     AUL 4948  24.722  24.980   8.259
   10AU       S 4949  24.682  24.510   8.044
   10AU     LIG 4950  24.561  24.166   8.309
   10AU     LIG 4951  24.345  23.764   8.371
   10AU     LIG 4952  24.342  23.293   8.389
   10AU     LIG 4953  24.471  22.836   8.506
   10AU     LIG 4954  24.606  22.589   8.904
   10AU       S 4955  25.161  24.717   7.896
   10AU     LIG 4956  25.352  24.309   7.911
   10AU     LIG 4957  25.525  24.011   8.237
   10AU     LIG 4958  25.722  23.754   8.575
   10AU     LIG 4959  25.918  23.384   8.760
   10AU     LIG 4960  26.284  23.135   8.914
   10AU    AUSL 4961  24.334  24.968   7.685
   10AU    AUSL 4962  24.260  25.181   8.099
   10AU     AUL 4963  24.251  24.818   8.000
   10AU       S 4964  24.505  24.396   7.819
   10AU     LIG 4965  24.306  23.981   7.881
   10AU     LIG 4966  24.105  23.559   7.958
   10AU     LIG 4967  24.099  23.089   7.991
   10AU     LIG 4968  23.997  22.720   8.263
   10AU     LIG 4969  23.893  22.241   8.245
   10AU       S 4970  23.976  24.941   8.415
   10AU     LIG 4971  23.593  24.569   8.530
   10AU     LIG 4972  23.288  24.185   8.570
   10AU     LIG 4973  23.047  23.860   8.837
   10AU     LIG 4974  22.895  23.752   9.272
   10AU     LIG 4975  22.910  23.806   9.741
   10AU    AUSL 4976  24.648  24.866   7.662
   10AU    AUSL 4977  24.328  24.903   7.339
   10AU     AUL 4978  24.186  24.722   7.623
   10AU       S 4979  24.358  24.442   7.241
   10AU     LIG 4980  24.064  24.118   7.122
   10AU     LIG 4981  24.003  23.667   7.119
   10AU     LIG 4982  24.065  23.221   6.996
   10AU     LIG 4983  24.173  22.780   6.831
   10AU     LIG 4984  23.941  22.373   6.770
   10AU       S 4985  24.753  24.483   7.770
   10AU     LIG 4986  24.828  24.010   7.899
   10AU     LIG 4987  24.626  23.559   7.984
   10AU     LIG 4988  24.627  23.067   8.023
   10AU     LIG 4989  24.820  22.665   8.160
   10AU     LIG 4990  24.759  22.327   8.490
   10AU    AUSL 4991  24.613  26.268   6.998
   10AU    AUSL 4992  25.014  26.195   7.234
   10AU     AUL 4993  24.939  26.378   6.959
   10AU       S 4994  24.703  26.784   6.821
   10AU     LIG 4995  25.070  26.982   6.597
   10AU     LIG 4996  25.139  27.425   6.449
   10AU     LIG 4997  25.217  27.705   6.062
   10AU     LIG 4998  25.086  28.039   5.734
   10AU     LIG 4999  24.830  28.325   5.440
   10AU       S 5000  25.441  26.343   6.893
   10AU     LIG 5001  25.631  26.731   6.759
   10AU     LIG 5002  25.879  26.918   6.407
   10AU     LIG 5003  26.133  27.323   6.399
   10AU     LIG 5004  26.486  27.585   6.220
   10AU     LIG 5005  26.438  27.975   5.952
   10AU    AUSL 5006  24.438  26.335   7.299
   10AU    AUSL 5007  24.293  26.133   6.925
   10AU     AUL 5008  24.327  26.488   7.008
   10AU       S 5009  24.686  26.883   7.057
   10AU     LIG 5010  24.830  27.318   6.900
   10AU     LIG 5011  24.802  27.759   6.724
   10AU     LIG 5012  24.481  28.136   6.679
   10AU     LIG 5013  24.141  28.495   6.654
   10AU     LIG 5014  24.071  28.952   6.553
   10AU       S 5015  23.919  26.414   6.706
   10AU     LIG 5016  23.825  26.560   6.265
   10AU     LIG 5017  23.763  26.759   5.847
   10AU     LIG 5018  23.674  27.009   5.472
   10AU     LIG 5019  23.539  27.260   5.105
   10AU     LIG 5020  23.456  27.647   4.843
   10AU    AUSL 5021  24.518  24.998   7.045
   10AU    AUSL 5022  24.059  25.099   7.228
   10AU     AUL 5023  24.203  24.871   6.976
   10AU       S 5024  23.714  24.909   6.853
   10AU     LIG 5025  23.338  24.637   6.982
   10AU     LIG 5026  23.058  24.260   6.886
   10AU     LIG 5027  22.928  23.862   6.648
   10AU     LIG 5028  22.705  23.561   6.350
   10AU     LIG 5029  22.510  23.514   5.935
   10AU       S 5030  24.490  24.450   7.003
   10AU     LIG 5031  24.422  24.069   6.761
   10AU     LIG 5032  24.200  23.689   6.640
   10AU     LIG 5033  24.335  23.252   6.570
   10AU     LIG 5034  24.499  22.851   6.421
   10AU     LIG 5035  24.568  22.545   6.079
   10AU    AUSL 5036  24.694  24.888   7.332
   10AU    AUSL 5037  24.810  25.144   6.940
   10AU     AUL 5038  24.849  24.800   7.035
   10AU       S 5039  24.628  24.422   7.299
   10AU     LIG 5040  24.536  23.955   7.260
   10AU     LIG 5041  24.498  23.539   7.029
   10AU     LIG 5042  24.567  23.071   7.009
   10AU     LIG 5043  24.723  22.676   6.846
   10AU     LIG 5044  24.901  22.453   6.473
   10AU       S 5045  25.044  24.967   6.584
   10AU     LIG 5046  25.140  24.609   6.292
   10AU     LIG 5047  25.317  24.176   6.202
   10AU     LIG 5048  25.473  23.816   5.934
   10AU     LIG 5049  25.779  23.597   5.645
   10AU     LIG 5050  25.968  23.570   5.195
   11POPC   NC3 5051  27.311  43.848   9.636
   11POPC   PO4 5052  27.893  44.246   9.571
   11POPC   GL1 5053  27.639  44.018   9.230
   11POPC   GL2 5054  27.325  44.159   9.174
   11POPC   C1A 5055  27.740  43.976   8.762
   11POPC   D2A 5056  27.795  44.181   8.345
   11POPC   C3A 5057  27.712  43.922   7.972
   11POPC   C4A 5058  27.549  44.025   7.565
   11POPC   C1B 5059  27.237  43.905   8.782
   11POPC   C2B 5060  27.379  43.861   8.348
   11POPC   C3B 5061  27.206  43.820   7.906
   11POPC   C4B 5062  27.064  43.953   7.461
   12POPC   NC3 5063  22.031  37.276   9.317
   12POPC   PO4 5064  22.010  37.974   9.514
   12POPC   GL1 5065  21.995  37.784   9.166
   12POPC   GL2 5066  22.314  37.660   9.156
   12POPC   C1A 5067  21.938  37.703   8.772
   12POPC   D2A 5068  22.144  37.728   8.414
   12POPC   C3A 5069  21.983  37.727   8.056
   12POPC   C4A 5070  22.127  37.483   7.717
   12POPC   C1B 5071  22.503  37.710   8.781
   12POPC   C2B 5072  22.620  37.890   8.381
   12POPC   C3B 5073  22.465  37.811   7.979
   12POPC   C4B 5074  22.615  37.845   7.593
   13POPC   NC3 5075   9.072  12.078   9.421
   13POPC   PO4 5076   8.385  11.925   9.480
   13POPC   GL1 5077   8.564  12.082   9.141
   13POPC   GL2 5078   8.792  11.827   9.096
   13POPC   C1A 5079   8.710  12.185   8.742
   13POPC   D2A 5080   8.713  11.910   8.406
   13POPC   C3A 5081   8.635  12.139   8.062
   13POPC   C4A 5082   9.003  12.234   7.832
   13POPC   C1B 5083   9.084  11.809   8.764
   13POPC   C2B 5084   9.210  11.895   8.344
   13POPC   C3B 5085   9.052  11.730   7.976
   13POPC   C4B 5086   9.360  11.498   7.768
   14POPC   NC3 5087  34.877  31.665   9.452
   14POPC   PO4 5088  34.444  31.135   9.531
   14POPC   GL1 5089  34.712  31.234   9.187
   14POPC   GL2 5090  34.430  31.432   9.100
   14POPC   C1A 5091  34.752  31.328   8.733
   14POPC   D2A 5092  34.463  31.392   8.405
   14POPC   C3A 5093  34.599  31.219   8.020
   14POPC   C4A 5094  35.021  31.300   7.904
   14POPC   C1B 5095  34.340  31.753   8.813
   14POPC   C2B 5096  34.209  31.853   8.417
   14POPC   C3B 5097  34.487  31.861   8.103
   14POPC   C4B 5098  34.699  31.682   7.784
   15POPC   NC3 5099  24.440  21.386   9.523
   15POPC   PO4 5100  24.122  22.040   9.537
   15POPC   GL1 5101  24.213  21.680   9.166
   15POPC   GL2 5102  24.119  21.294   9.109
   15POPC   C1A 5103  24.520  21.448   8.857
   15POPC   D2A 5104  24.731  21.521   8.457
   15POPC   C3A 5105  24.634  21.395   8.030
   15POPC   C4A 5106  24.690  21.583   7.630
   15POPC   C1B 5107  24.034  21.436   8.691
   15POPC   C2B 5108  24.181  21.328   8.287
   15POPC   C3B 5109  24.217  21.123   7.882
   15POPC   C4B 5110  24.327  21.218   7.447
   16POPC   NC3 5111  32.596   1.314   9.534
   16POPC   PO4 5112  33.212   1.032   9.530
   16POPC   GL1 5113  33.154   1.301   9.182
   16POPC   GL2 5114  32.823   1.153   9.092
   16POPC   C1A 5115  33.108   1.372   8.722
   16POPC   D2A 5116  33.351   1.224   8.383
   16POPC   C3A 5117  33.283   1.402   8.003
   16POPC   C4A 5118  32.918   1.316   7.785
   16POPC   C1B 5119  32.782   0.974   8.661
   16POPC   C2B 5120  32.866   1.035   8.207
   16POPC   C3B 5121  32.901   0.807   7.791
   16POPC   C4B 5122  32.965   0.803   7.355
   17POPC   NC3 5123  41.013   3.106   9.383
   17POPC   PO4 5124  40.878   3.671   9.653
   17POPC   GL1 5125  40.783   3.576   9.240
   17POPC   GL2 5126  40.692   3.883   9.143
   17POPC   C1A 5127  40.636   3.465   8.815
   17POPC   D2A 5128  40.813   3.504   8.404
   17POPC   C3A 5129  40.688   3.204   8.089
   17POPC   C4A 5130  40.803   3.267   7.671
   17POPC   C1B 5131  40.808   3.934   8.706
   17POPC   C2B 5132  40.655   3.986   8.289
   17POPC   C3B 5133  40.520   3.684   8.009
   17POPC   C4B 5134  40.376   3.611   7.636
   18POPC   NC3 5135   7.762   0.121   9.441
   18POPC   PO4 5136   7.142   0.352   9.617
   18POPC   GL1 5137   7.188   0.507   9.189
   18POPC   GL2 5138   7.539   0.429   9.105
   18POPC   C1A 5139   7.186   0.437   8.747
   18POPC   D2A 5140   7.182   0.577   8.341
   18POPC   C3A 5141   7.226   0.236   8.040
   18POPC   C4A 5142   7.273   0.363   7.625
   18POPC   C1B 5143   7.732   0.354   8.710
   18POPC   C2B 5144   7.664   0.246   8.281
   18POPC   C3B 5145   7.787   0.216   7.857
   18POPC   C4B 5146   7.774   0.471   7.511
   19POPC   NC3 5147  17.173   6.416   9.665
   19POPC   PO4 5148  17.898   6.272   9.467
   19POPC   GL1 5149  17.806   6.575   9.083
   19POPC   GL2 5150  17.458   6.609   8.923
   19POPC   C1A 5151  17.903   6.793   8.738
   19POPC   D2A 5152  17.705   6.867   8.382
   19POPC   C3A 5153  17.627   6.540   8.165
   19POPC   C4A 5154  17.809   6.624   7.789
   19POPC   C1B 5155  17.262   6.901   8.673
   19POPC   C2B 5156  17.189   6.832   8.268
   19POPC   C3B 5157  17.335   6.823   7.867
   19POPC   C4B 5158  17.347   7.103   7.532
   20POPC   NC3 5159  31.532  18.166   9.482
   20POPC   PO4 5160  31.306  18.655   9.366
   20POPC   GL1 5161  31.474  18.396   9.019
   20POPC   GL2 5162  31.265  18.097   9.028
   20POPC   C1A 5163  31.609  18.152   8.627
   20POPC   D2A 5164  31.806  18.072   8.199
   20POPC   C3A 5165  31.599  18.185   7.799
   20POPC   C4A 5166  31.303  18.418   7.520
   20POPC   C1B 5167  31.134  18.343   8.647
   20POPC   C2B 5168  31.278  18.332   8.206
   20POPC   C3B 5169  31.114  18.038   7.875
   20POPC   C4B 5170  30.857  18.128   7.512
   21POPC   NC3 5171  44.528  30.212   9.444
   21POPC   PO4 5172  44.844  29.620   9.580
   21POPC   GL1 5173  44.734  29.813   9.198
   21POPC   GL2 5174  44.996  30.062   9.210
   21POPC   C1A 5175  44.676  30.080   8.804
   21POPC   D2A 5176  44.497  30.105   8.409
   21POPC   C3A 5177  44.772  30.124   8.093
   21POPC   C4A 5178  44.552  30.012   7.754
   21POPC   C1B 5179   0.063  29.744   8.831
   21POPC   C2B 5180   0.004  29.819   8.420
   21POPC   C3B 5181  44.978  29.666   7.980
   21POPC   C4B 5182   0.030  29.904   7.601
   22POPC   NC3 5183   6.087   0.172   9.508
   22POPC   PO4 5184   5.570   0.686   9.537
   22POPC   GL1 5185   5.710   0.382   9.206
   22POPC   GL2 5186   5.470   0.510   9.000
   22POPC   C1A 5187   5.853   0.241   8.782
   22POPC   D2A 5188   5.798   0.478   8.386
   22POPC   C3A 5189   5.922   0.376   7.969
   22POPC   C4A 5190   5.978  44.993   7.733
   22POPC   C1B 5191   5.778   0.806   8.831
   22POPC   C2B 5192   5.940   0.970   8.431
   22POPC   C3B 5193   5.823   0.940   7.986
   22POPC   C4B 5194   5.824   0.713   7.578
   23POPC   NC3 5195  39.652   0.480   9.877
   23POPC   PO4 5196  39.079   0.260   9.543
   23POPC   GL1 5197  39.185   0.252   9.103
   23POPC   GL2 5198  39.491   0.073   9.125
   23POPC   C1A 5199  39.417   0.401   8.727
   23POPC   D2A 5200  39.472   0.561   8.321
   23POPC   C3A 5201  39.117   0.623   8.078
   23POPC   C4A 5202  39.231   0.591   7.675
   23POPC   C1B 5203  39.404  44.881   8.730
   23POPC   C2B 5204  39.217   0.067   8.359
   23POPC   C3B 5205  39.393   0.189   7.951
   23POPC   C4B 5206  39.486   0.169   7.481
   24POPC   NC3 5207  29.506   1.889   9.482
   24POPC   PO4 5208  28.900   2.175   9.235
   24POPC   GL1 5209  28.957   2.005   8.896
   24POPC   GL2 5210  29.288   1.855   8.985
   24POPC   C1A 5211  28.802   1.805   8.545
   24POPC   D2A 5212  29.066   1.520   8.327
   24POPC   C3A 5213  29.286   1.800   8.017
   24POPC   C4A 5214  28.954   1.898   7.706
   24POPC   C1B 5215  29.294   1.953   8.520
   24POPC   C2B 5216  29.476   2.296   8.288
   24POPC   C3B 5217  29.605   2.369   7.871
   24POPC   C4B 5218  29.427   2.058   7.572
   25POPC   NC3 5219  11.426  20.496   9.443
   25POPC   PO4 5220  11.033  21.051   9.327
   25POPC   GL1 5221  11.100  20.716   9.069
   25POPC   GL2 5222  11.436  20.841   9.078
   25POPC   C1A 5223  11.311  20.503   8.713
   25POPC   D2A 5224  11.446  20.340   8.308
   25POPC   C3A 5225  11.195  20.336   7.951
   25POPC   C4A 5226  11.155  20.577   7.585
   25POPC   C1B 5227  11.670  20.894   8.729
   25POPC   C2B 5228  11.488  20.874   8.337
   25POPC   C3B 5229  11.530  20.744   7.905
   25POPC   C4B 5230  11.499  20.992   7.513
   26POPC   NC3 5231   8.091  15.264   9.520
   26POPC   PO4 5232   8.682  15.317   9.380
   26POPC   GL1 5233   8.338  15.217   9.085
   26POPC   GL2 5234   8.023  15.005   9.086
   26POPC   C1A 5235   8.197  15.327   8.694
   26POPC   D2A 5236   8.411  15.469   8.354
   26POPC   C3A 5237   8.181  15.321   8.033
   26POPC   C4A 5238   8.097  15.241   7.630
   26POPC   C1B 5239   8.210  14.818   8.732
   26POPC   C2B 5240   8.041  14.880   8.318
   26POPC   C3B 5241   8.282  14.803   7.935
   26POPC   C4B 5242   8.308  14.793   7.482
   27POPC   NC3 5243   4.552   8.722   9.493
   27POPC   PO4 5244   4.100   9.129   9.367
   27POPC   GL1 5245   4.369   8.914   9.057
   27POPC   GL2 5246   4.399   8.544   9.030
   27POPC   C1A 5247   4.398   8.951   8.626
   27POPC   D2A 5248   4.288   9.321   8.395
   27POPC   C3A 5249   4.307   9.213   7.984
   27POPC   C4A 5250   4.566   8.939   7.788
   27POPC   C1B 5251   4.081   8.560   8.743
   27POPC   C2B 5252   4.021   8.489   8.325
   27POPC   C3B 5253   4.244   8.643   8.039
   27POPC   C4B 5254   4.080   8.779   7.691
   28POPC   NC3 5255   2.377  36.042   9.452
   28POPC   PO4 5256   1.666  36.193   9.417
   28POPC   GL1 5257   2.026  36.313   9.148
   28POPC   GL2 5258   2.155  36.625   9.309
   28POPC   C1A 5259   2.218  36.145   8.737
   28POPC   D2A 5260   2.166  35.959   8.300
   28POPC   C3A 5261   1.951  36.107   7.915
   28POPC   C4A 5262   1.692  36.475   7.759
   28POPC   C1B 5263   2.268  36.669   8.861
   28POPC   C2B 5264   2.089  36.579   8.483
   28POPC   C3B 5265   2.198  36.511   8.089
   28POPC   C4B 5266   2.194  36.669   7.719
   29POPC   NC3 5267  20.265  26.032   9.349
   29POPC   PO4 5268  19.790  25.629   9.571
   29POPC   GL1 5269  19.794  25.843   9.204
   29POPC   GL2 5270  20.038  25.669   9.075
   29POPC   C1A 5271  19.720  26.102   8.865
   29POPC   D2A 5272  19.709  26.276   8.461
   29POPC   C3A 5273  19.717  26.136   8.065
   29POPC   C4A 5274  20.036  26.335   7.876
   29POPC   C1B 5275  19.781  25.607   8.711
   29POPC   C2B 5276  19.904  25.706   8.296
   29POPC   C3B 5277  20.091  25.791   7.901
   29POPC   C4B 5278  19.990  25.567   7.561
   30POPC   NC3 5279   3.634   1.527   9.433
   30POPC   PO4 5280   3.229   0.994   9.465
   30POPC   GL1 5281   3.464   1.130   9.134
   30POPC   GL2 5282   3.840   1.115   9.143
   30POPC   C1A 5283   3.557   0.989   8.742
   30POPC   D2A 5284   3.660   1.103   8.346
   30POPC   C3A 5285   3.421   1.287   8.038
   30POPC   C4A 5286   3.449   1.154   7.590
   30POPC   C1B 5287   4.000   1.273   8.701
   30POPC   C2B 5288   4.127   1.340   8.235
   30POPC   C3B 5289   3.918   1.309   7.791
   30POPC   C4B 5290   3.812   1.464   7.334
   31POPC   NC3 5291   8.524  30.540   9.482
   31POPC   PO4 5292   7.981  31.022   9.403
   31POPC   GL1 5293   8.166  30.937   9.043
   31POPC   GL2 5294   8.211  30.588   9.078
   31POPC   C1A 5295   8.546  30.968   8.845
   31POPC   D2A 5296   8.661  30.914   8.421
   31POPC   C3A 5297   8.429  30.700   8.085
   31POPC   C4A 5298   8.007  30.626   7.952
   31POPC   C1B 5299   8.293  30.562   8.641
   31POPC   C2B 5300   8.074  30.873   8.437
   31POPC   C3B 5301   7.849  31.099   8.128
   31POPC   C4B 5302   7.730  30.976   7.719
   32POPC   NC3 5303   6.522  24.072   9.809
   32POPC   PO4 5304   6.792  23.562   9.399
   32POPC   GL1 5305   6.551  23.681   9.065
   32POPC   GL2 5306   6.846  23.846   8.956
   32POPC   C1A 5307   6.402  23.897   8.696
   32POPC   D2A 5308   6.490  23.821   8.304
   32POPC   C3A 5309   6.460  24.094   8.021
   32POPC   C4A 5310   6.428  23.950   7.646
   32POPC   C1B 5311   6.931  23.778   8.546
   32POPC   C2B 5312   6.971  23.941   8.134
   32POPC   C3B 5313   6.772  23.674   7.888
   32POPC   C4B 5314   6.899  23.256   7.825
   33POPC   NC3 5315  18.367  39.949   9.594
   33POPC   PO4 5316  18.569  40.524   9.218
   33POPC   GL1 5317  18.443  40.107   9.120
   33POPC   GL2 5318  18.628  39.761   9.194
   33POPC   C1A 5319  18.269  39.837   8.821
   33POPC   D2A 5320  18.196  39.965   8.424
   33POPC   C3A 5321  18.294  39.709   8.109
   33POPC   C4A 5322  17.987  39.738   7.784
   33POPC   C1B 5323  18.790  39.885   8.801
   33POPC   C2B 5324  18.724  40.020   8.407
   33POPC   C3B 5325  18.636  40.093   8.003
   33POPC   C4B 5326  18.502  39.848   7.667
   34POPC   NC3 5327  36.329   4.731   9.316
   34POPC   PO4 5328  35.776   4.422   9.387
   34POPC   GL1 5329  35.922   4.186   9.046
   34POPC   GL2 5330  36.265   4.108   9.158
   34POPC   C1A 5331  35.900   4.262   8.630
   34POPC   D2A 5332  36.054   4.572   8.377
   34POPC   C3A 5333  36.153   4.437   7.980
   34POPC   C4A 5334  35.906   4.367   7.640
   34POPC   C1B 5335  36.426   4.323   8.764
   34POPC   C2B 5336  36.562   4.472   8.335
   34POPC   C3B 5337  36.603   4.651   7.905
   34POPC   C4B 5338  36.333   4.667   7.526
   35POPC   NC3 5339  22.033  43.665   9.499
   35POPC   PO4 5340  22.658  43.870   9.546
   35POPC   GL1 5341  22.383  43.847   9.174
   35POPC   GL2 5342  22.000  43.989   9.112
   35POPC   C1A 5343  22.402  43.947   8.770
   35POPC   D2A 5344  22.207  43.836   8.386
   35POPC   C3A 5345  21.972  44.068   8.098
   35POPC   C4A 5346  22.097  44.124   7.658
   35POPC   C1B 5347  21.991  43.641   8.814
   35POPC   C2B 5348  21.866  43.441   8.403
   35POPC   C3B 5349  22.046  43.552   7.970
   35POPC   C4B 5350  21.999  43.628   7.513
   36POPC   NC3 5351   7.932  11.766   9.546
   36POPC   PO4 5352   7.815  12.418   9.448
   36POPC   GL1 5353   8.029  12.159   9.150
   36POPC   GL2 5354   8.008  11.834   9.060
   36POPC   C1A 5355   8.197  12.308   8.767
   36POPC   D2A 5356   7.994  12.441   8.388
   36POPC   C3A 5357   8.117  12.276   7.989
   36POPC   C4A 5358   8.362  12.346   7.626
   36POPC   C1B 5359   8.313  11.827   8.762
   36POPC   C2B 5360   8.213  11.943   8.359
   36POPC   C3B 5361   8.276  11.786   7.940
   36POPC   C4B 5362   8.625  11.867   7.636
   37POPC   NC3 5363  15.137  18.713   9.634
   37POPC   PO4 5364  15.188  19.336   9.589
   37POPC   GL1 5365  15.205  19.065   9.225
   37POPC   GL2 5366  15.511  18.998   9.128
   37POPC   C1A 5367  15.182  18.996   8.760
   37POPC   D2A 5368  15.264  18.775   8.403
   37POPC   C3A 5369  15.162  19.001   8.070
   37POPC   C4A 5370  15.078  18.871   7.691
   37POPC   C1B 5371  15.605  19.262   8.823
   37POPC   C2B 5372  15.483  19.254   8.420
   37POPC   C3B 5373  15.640  19.257   8.022
   37POPC   C4B 5374  15.499  19.184   7.632
   38POPC   NC3 5375  43.575  27.837   9.548
   38POPC   PO4 5376  42.920  27.514   9.503
   38POPC   GL1 5377  43.010  27.487   9.116
   38POPC   GL2 5378  43.212  27.784   9.097
   38POPC   C1A 5379  42.806  27.250   8.804
   38POPC   D2A 5380  42.685  27.387   8.429
   38POPC   C3A 5381  43.012  27.513   8.167
   38POPC   C4A 5382  42.828  27.487   7.761
   38POPC   C1B 5383  43.195  27.628   8.654
   38POPC   C2B 5384  43.477  27.351   8.423
   38POPC   C3B 5385  43.519  27.171   8.018
   38POPC   C4B 5386  43.334  27.473   7.749
   39POPC   NC3 5387  14.197  42.776  10.014
   39POPC   PO4 5388  14.467  43.141   9.493
   39POPC   GL1 5389  14.468  43.087   9.101
   39POPC   GL2 5390  14.768  42.882   9.137
   39POPC   C1A 5391  14.359  42.957   8.698
   39POPC   D2A 5392  14.295  42.685   8.371
   39POPC   C3A 5393  14.198  42.856   7.984
   39POPC   C4A 5394  14.336  43.185   7.766
   39POPC   C1B 5395  14.842  43.154   8.762
   39POPC   C2B 5396  14.646  43.188   8.340
   39POPC   C3B 5397  14.743  43.400   7.963
   39POPC   C4B 5398  14.850  43.387   7.509
   40POPC   NC3 5399  35.634  26.742   9.563
   40POPC   PO4 5400  34.980  27.043   9.548
   40POPC   GL1 5401  35.317  27.044   9.186
   40POPC   GL2 5402  35.375  26.686   9.123
   40POPC   C1A 5403  35.257  26.954   8.715
   40POPC   D2A 5404  35.320  26.765   8.307
   40POPC   C3A 5405  35.063  26.912   7.935
   40POPC   C4A 5406  35.265  27.018   7.532
   40POPC   C1B 5407  35.613  26.560   8.758
   40POPC   C2B 5408  35.672  26.348   8.354
   40POPC   C3B 5409  35.301  26.303   8.122
   40POPC   C4B 5410  35.330  26.545   7.751
   41POPC   NC3 5411  27.369  22.205   9.606
   41POPC   PO4 5412  26.747  22.049   9.613
   41POPC   GL1 5413  26.722  21.992   9.175
   41POPC   GL2 5414  27.054  22.159   9.121
   41POPC   C1A 5415  26.716  22.116   8.755
   41POPC   D2A 5416  26.937  22.328   8.501
   41POPC   C3A 5417  26.758  22.304   8.133
   41POPC   C4A 5418  26.930  22.209   7.764
   41POPC   C1B 5419  27.194  21.924   8.721
   41POPC   C2B 5420  27.053  21.872   8.275
   41POPC   C3B 5421  27.236  21.804   7.865
   41POPC   C4B 5422  27.250  21.975   7.436
   42POPC   NC3 5423  28.668  11.011   9.253
   42POPC   PO4 5424  28.151  10.765   9.673
   42POPC   GL1 5425  28.355  10.632   9.163
   42POPC   GL2 5426  28.486  10.321   9.115
   42POPC   C1A 5427  28.503  10.578   8.681
   42POPC   D2A 5428  28.538  10.309   8.291
   42POPC   C3A 5429  28.477  10.562   7.893
   42POPC   C4A 5430  28.225  10.968   7.851
   42POPC   C1B 5431  28.133  10.239   8.787
   42POPC   C2B 5432  28.022  10.204   8.343
   42POPC   C3B 5433  28.204  10.109   7.933
   42POPC   C4B 5434  28.176  10.230   7.504
   43POPC   NC3 5435  25.818   1.221   9.881
   43POPC   PO4 5436  26.265   0.890   9.549
   43POPC   GL1 5437  26.345   1.009   9.077
   43POPC   GL2 5438  26.511   1.363   9.008
   43POPC   C1A 5439  26.211   1.033   8.650
   43POPC   D2A 5440  26.067   1.254   8.267
   43POPC   C3A 5441  25.952   1.079   7.850
   43POPC   C4A 5442  25.929   1.253   7.395
   43POPC   C1B 5443  26.460   1.461   8.589
   43POPC   C2B 5444  26.572   1.202   8.239
   43POPC   C3B 5445  26.405   1.295   7.850
   43POPC   C4B 5446  26.423   1.423   7.426
   44POPC   NC3 5447   1.426  33.474   9.482
   44POPC   PO4 5448   1.283  34.135   9.484
   44POPC   GL1 5449   1.073  33.944   9.179
   44POPC   GL2 5450   1.375  33.804   9.075
   44POPC   C1A 5451   0.888  33.887   8.792
   44POPC   D2A 5452   1.021  33.733   8.411
   44POPC   C3A 5453   0.963  33.872   8.013
   44POPC   C4A 5454   1.225  34.111   7.780
   44POPC   C1B 5455   1.369  33.534   8.733
   44POPC   C2B 5456   1.399  33.423   8.291
   44POPC   C3B 5457   1.384  33.578   7.835
   44POPC   C4B 5458   1.478  33.289   7.476
   45POPC   NC3 5459  43.129  17.319   9.564
   45POPC   PO4 5460  43.735  17.374   9.433
   45POPC   GL1 5461  43.312  17.537   9.124
   45POPC   GL2 5462  42.929  17.423   9.075
   45POPC   C1A 5463  43.113  17.718   8.693
   45POPC   D2A 5464  42.979  17.965   8.309
   45POPC   C3A 5465  42.884  17.731   7.943
   45POPC   C4A 5466  43.066  17.583   7.549
   45POPC   C1B 5467  43.056  17.218   8.657
   45POPC   C2B 5468  43.145  17.260   8.172
   45POPC   C3B 5469  42.804  17.210   7.824
   45POPC   C4B 5470  42.721  17.234   7.353
   46POPC   NC3 5471   6.103  28.839   9.396
   46POPC   PO4 5472   5.838  28.183   9.420
   46POPC   GL1 5473   5.695  28.285   9.033
   46POPC   GL2 5474   5.761  28.646   9.038
   46POPC   C1A 5475   5.644  28.355   8.628
   46POPC   D2A 5476   5.892  28.240   8.340
   46POPC   C3A 5477   5.719  28.172   7.976
   46POPC   C4A 5478   5.676  28.571   7.835
   46POPC   C1B 5479   6.074  28.617   8.733
   46POPC   C2B 5480   6.250  28.614   8.354
   46POPC   C3B 5481   6.162  28.692   7.956
   46POPC   C4B 5482   6.382  28.577   7.616
   47POPC   NC3 5483  36.499  37.818   9.685
   47POPC   PO4 5484  35.884  37.694   9.461
   47POPC   GL1 5485  36.130  37.757   9.131
   47POPC   GL2 5486  36.466  37.675   9.185
   47POPC   C1A 5487  36.022  37.661   8.730
   47POPC   D2A 5488  36.266  37.859   8.437
   47POPC   C3A 5489  36.007  37.863   8.096
   47POPC   C4A 5490  36.040  38.038   7.714
   47POPC   C1B 5491  36.443  37.395   8.817
   47POPC   C2B 5492  36.341  37.350   8.395
   47POPC   C3B 5493  36.431  37.547   8.021
   47POPC   C4B 5494  36.340  37.406   7.603
   48POPC   NC3 5495  20.430  35.468   9.546
   48POPC   PO4 5496  20.744  35.899   9.296
   48POPC   GL1 5497  20.709  35.510   9.097
   48POPC   GL2 5498  20.503  35.170   9.119
   48POPC   C1A 5499  20.561  35.579   8.695
   48POPC   D2A 5500  20.300  35.569   8.351
   48POPC   C3A 5501  20.521  35.533   7.950
   48POPC   C4A 5502  20.657  35.347   7.542
   48POPC   C1B 5503  20.794  35.135   8.767
   48POPC   C2B 5504  20.834  35.295   8.344
   48POPC   C3B 5505  20.749  35.068   7.967
   48POPC   C4B 5506  20.697  34.855   7.579
   49POPC   NC3 5507  23.083  29.990   9.598
   49POPC   PO4 5508  23.686  30.142   9.693
   49POPC   GL1 5509  23.638  30.233   9.214
   49POPC   GL2 5510  23.273  30.264   9.159
   49POPC   C1A 5511  23.860  30.327   8.811
   49POPC   D2A 5512  24.170  30.207   8.479
   49POPC   C3A 5513  23.933  30.109   8.099
   49POPC   C4A 5514  23.804  29.683   7.956
   49POPC   C1B 5515  23.354  30.045   8.792
   49POPC   C2B 5516  23.548  30.153   8.422
   49POPC   C3B 5517  23.411  30.038   8.023
   49POPC   C4B 5518  23.391  29.819   7.639
   50POPC   NC3 5519  20.411  22.771   9.547
   50POPC   PO4 5520  20.894  23.172   9.751
   50POPC   GL1 5521  20.715  23.046   9.277
   50POPC   GL2 5522  20.760  22.675   9.182
   50POPC   C1A 5523  20.732  23.040   8.796
   50POPC   D2A 5524  20.448  23.156   8.445
   50POPC   C3A 5525  20.540  23.028   8.024
   50POPC   C4A 5526  20.261  23.034   7.688
   50POPC   C1B 5527  20.724  22.516   8.749
   50POPC   C2B 5528  20.812  22.589   8.310
   50POPC   C3B 5529  20.613  22.525   7.906
   50POPC   C4B 5530  20.928  22.620   7.621
   51POPC   NC3 5531  38.931  12.220   9.480
   51POPC   PO4 5532  39.442  11.793   9.523
   51POPC   GL1 5533  39.177  11.871   9.148
   51POPC   GL2 5534  38.849  11.937   8.965
   51POPC   C1A 5535  39.287  11.970   8.746
   51POPC   D2A 5536  39.444  11.770   8.392
   51POPC   C3A 5537  39.280  11.937   8.005
   51POPC   C4A 5538  39.397  12.099   7.599
   51POPC   C1B 5539  38.869  12.031   8.468
   51POPC   C2B 5540  38.957  12.390   8.170
   51POPC   C3B 5541  39.003  12.385   7.786
   51POPC   C4B 5542  38.781  11.976   7.814
   52POPC   NC3 5543   8.776   3.870   9.699
   52POPC   PO4 5544   8.751   3.329   9.417
   52POPC   GL1 5545   8.908   3.524   9.000
   52POPC   GL2 5546   9.262   3.454   8.922
   52POPC   C1A 5547   8.872   3.393   8.600
   52POPC   D2A 5548   8.968   3.078   8.304
   52POPC   C3A 5549   8.807   3.362   8.027
   52POPC   C4A 5550   8.936   3.708   7.811
   52POPC   C1B 5551   9.319   3.682   8.611
   52POPC   C2B 5552   9.282   3.535   8.223
   52POPC   C3B 5553   9.455   3.576   7.845
   52POPC   C4B 5554   9.207   3.382   7.539
   53POPC   NC3 5555  30.382   5.186   9.624
   53POPC   PO4 5556  31.000   4.956   9.589
   53POPC   GL1 5557  30.694   5.016   9.202
   53POPC   GL2 5558  30.366   5.220   9.132
   53POPC   C1A 5559  30.760   5.155   8.763
   53POPC   D2A 5560  30.922   5.069   8.327
   53POPC   C3A 5561  30.773   5.301   7.950
   53POPC   C4A 5562  30.851   5.177   7.533
   53POPC   C1B 5563  30.269   4.969   8.790
   53POPC   C2B 5564  30.402   5.093   8.393
   53POPC   C3B 5565  30.287   5.102   7.976
   53POPC   C4B 5566  30.368   4.969   7.565
   54POPC   NC3 5567  36.466  28.132   9.571
   54POPC   PO4 5568  35.899  28.463   9.327
   54POPC   GL1 5569  36.270  28.411   9.148
   54POPC   GL2 5570  36.371  28.065   9.085
   54POPC   C1A 5571  36.344  28.465   8.739
   54POPC   D2A 5572  36.431  28.270   8.372
   54POPC   C3A 5573  36.166  28.412   8.064
   54POPC   C4A 5574  36.221  28.273   7.647
   54POPC   C1B 5575  35.996  28.048   8.827
   54POPC   C2B 5576  35.862  28.114   8.393
   54POPC   C3B 5577  36.023  27.943   7.985
   54POPC   C4B 5578  35.841  27.859   7.578
   55POPC   NC3 5579  35.790   1.022   9.441
   55POPC   PO4 5580  36.144   1.450   9.815
   55POPC   GL1 5581  36.087   1.393   9.182
   55POPC   GL2 5582  35.904   1.172   8.990
   55POPC   C1A 5583  36.306   1.271   8.717
   55POPC   D2A 5584  36.663   1.173   8.382
   55POPC   C3A 5585  36.441   1.160   8.005
   55POPC   C4A 5586  36.021   1.254   7.822
   55POPC   C1B 5587  35.799   1.501   8.720
   55POPC   C2B 5588  35.816   1.384   8.303
   55POPC   C3B 5589  35.810   0.949   8.182
   55POPC   C4B 5590  35.719   0.838   7.746
   56POPC   NC3 5591  17.570   7.361   9.570
   56POPC   PO4 5592  17.474   6.691   9.439
   56POPC   GL1 5593  17.535   7.071   9.139
   56POPC   GL2 5594  17.358   7.426   9.072
   56POPC   C1A 5595  17.649   7.245   8.723
   56POPC   D2A 5596  17.432   7.294   8.317
   56POPC   C3A 5597  17.667   7.190   7.962
   56POPC   C4A 5598  17.924   7.507   7.860
   56POPC   C1B 5599  17.075   7.392   8.691
   56POPC   C2B 5600  16.923   7.287   8.251
   56POPC   C3B 5601  17.120   7.481   7.858
   56POPC   C4B 5602  17.114   7.793   7.479
   57POPC   NC3 5603  36.369  26.586   9.860
   57POPC   PO4 5604  35.913  27.021   9.819
   57POPC   GL1 5605  36.099  27.084   9.371
   57POPC   GL2 5606  35.884  26.893   9.156
   57POPC   C1A 5607  36.268  27.126   8.905
   57POPC   D2A 5608  36.363  26.890   8.489
   57POPC   C3A 5609  36.199  27.057   8.062
   57POPC   C4A 5610  36.291  26.938   7.622
   57POPC   C1B 5611  35.781  27.042   8.764
   57POPC   C2B 5612  35.853  26.828   8.384
   57POPC   C3B 5613  35.778  26.705   7.971
   57POPC   C4B 5614  35.764  26.993   7.644
   58POPC   NC3 5615  16.006   2.192   9.506
   58POPC   PO4 5616  16.240   1.550   9.357
   58POPC   GL1 5617  15.913   1.840   9.149
   58POPC   GL2 5618  15.715   2.209   9.113
   58POPC   C1A 5619  15.777   1.872   8.749
   58POPC   D2A 5620  16.110   1.869   8.429
   58POPC   C3A 5621  15.973   1.715   8.041
   58POPC   C4A 5622  15.596   1.622   7.830
   58POPC   C1B 5623  16.065   2.284   8.810
   58POPC   C2B 5624  15.995   2.362   8.351
   58POPC   C3B 5625  16.095   2.221   7.904
   58POPC   C4B 5626  16.216   2.145   7.443
   59POPC   NC3 5627  13.919  21.515   9.584
   59POPC   PO4 5628  13.440  21.185   9.433
   59POPC   GL1 5629  13.628  21.457   9.142
   59POPC   GL2 5630  13.900  21.710   9.108
   59POPC   C1A 5631  13.779  21.337   8.743
   59POPC   D2A 5632  13.609  21.123   8.404
   59POPC   C3A 5633  13.610  21.306   8.043
   59POPC   C4A 5634  13.248  21.383   7.796
   59POPC   C1B 5635  13.600  21.818   8.803
   59POPC   C2B 5636  13.444  21.632   8.483
   59POPC   C3B 5637  13.453  21.776   8.115
   59POPC   C4B 5638  13.720  21.776   7.827
   60POPC   NC3 5639  32.510  33.853   9.609
   60POPC   PO4 5640  31.994  34.092   9.302
   60POPC   GL1 5641  32.179  33.743   9.169
   60POPC   GL2 5642  32.479  33.520   9.220
   60POPC   C1A 5643  32.022  33.621   8.795
   60POPC   D2A 5644  32.256  33.687   8.401
   60POPC   C3A 5645  32.102  33.711   8.039
   60POPC   C4A 5646  31.862  33.718   7.727
   60POPC   C1B 5647  32.535  33.740   8.820
   60POPC   C2B 5648  32.557  34.074   8.500
   60POPC   C3B 5649  32.519  34.054   8.065
   60POPC   C4B 5650  32.506  33.707   7.740
   61POPC   NC3 5651   5.720  25.387   9.436
   61POPC   PO4 5652   6.338  25.166   9.392
   61POPC   GL1 5653   6.053  25.205   9.089
   61POPC   GL2 5654   5.901  24.878   9.153
   61POPC   C1A 5655   5.856  25.484   8.788
   61POPC   D2A 5656   5.963  25.390   8.396
   61POPC   C3A 5657   5.769  25.449   8.025
   61POPC   C4A 5658   5.730  25.251   7.664
   61POPC   C1B 5659   5.841  24.941   8.681
   61POPC   C2B 5660   5.602  25.016   8.288
   61POPC   C3B 5661   5.431  24.908   7.888
   61POPC   C4B 5662   5.204  25.073   7.563
   62POPC   NC3 5663  20.172  32.483   9.453
   62POPC   PO4 5664  19.968  31.833   9.453
   62POPC   GL1 5665  19.711  32.113   9.188
   62POPC   GL2 5666  19.576  32.435   9.320
   62POPC   C1A 5667  19.830  32.088   8.749
   62POPC   D2A 5668  20.008  31.992   8.360
   62POPC   C3A 5669  20.103  31.985   7.916
   62POPC   C4A 5670  19.772  32.046   7.598
   62POPC   C1B 5671  19.774  32.560   8.915
   62POPC   C2B 5672  19.864  32.512   8.453
   62POPC   C3B 5673  19.763  32.346   8.029
   62POPC   C4B 5674  19.829  32.532   7.621
   63POPC   NC3 5675   1.410  16.373   9.505
   63POPC   PO4 5676   1.141  16.894   9.659
   63POPC   GL1 5677   1.265  16.777   9.229
   63POPC   GL2 5678   1.524  16.971   9.060
   63POPC   C1A 5679   1.066  16.895   8.825
   63POPC   D2A 5680   0.977  16.722   8.432
   63POPC   C3A 5681   1.261  16.805   8.113
   63POPC   C4A 5682   1.204  16.667   7.687
   63POPC   C1B 5683   1.542  16.939   8.607
   63POPC   C2B 5684   1.746  16.628   8.333
   63POPC   C3B 5685   1.648  16.397   7.966
   63POPC   C4B 5686   1.651  16.519   7.506
   64POPC   NC3 5687  39.548  22.796   9.353
   64POPC   PO4 5688  39.109  23.323   9.482
   64POPC   GL1 5689  39.090  22.949   9.222
   64POPC   GL2 5690  39.216  23.142   8.981
   64POPC   C1A 5691  39.176  22.656   8.836
   64POPC   D2A 5692  39.106  22.593   8.371
   64POPC   C3A 5693  39.137  22.992   8.105
   64POPC   C4A 5694  39.337  23.147   7.703
   64POPC   C1B 5695  39.350  23.050   8.568
   64POPC   C2B 5696  39.578  22.777   8.276
   64POPC   C3B 5697  39.444  22.646   7.875
   64POPC   C4B 5698  39.534  22.740   7.440
   65POPC   NC3 5699  24.323   6.611   9.535
   65POPC   PO4 5700  24.914   6.300   9.755
   65POPC   GL1 5701  24.749   6.555   9.229
   65POPC   GL2 5702  24.400   6.756   9.078
   65POPC   C1A 5703  24.609   6.450   8.777
   65POPC   D2A 5704  24.598   6.647   8.423
   65POPC   C3A 5705  24.519   6.428   8.073
   65POPC   C4A 5706  24.531   6.591   7.684
   65POPC   C1B 5707  24.197   6.938   8.683
   65POPC   C2B 5708  24.174   6.859   8.193
   65POPC   C3B 5709  24.093   6.968   7.726
   65POPC   C4B 5710  23.921   6.848   7.283
   66POPC   NC3 5711  21.846  16.435   9.827
   66POPC   PO4 5712  22.408  16.851   9.647
   66POPC   GL1 5713  22.279  16.628   9.303
   66POPC   GL2 5714  22.565  16.497   9.155
   66POPC   C1A 5715  22.198  16.727   8.872
   66POPC   D2A 5716  22.228  16.862   8.450
   66POPC   C3A 5717  22.155  16.496   8.166
   66POPC   C4A 5718  21.895  16.494   7.782
   66POPC   C1B 5719  22.590  16.421   8.732
   66POPC   C2B 5720  22.655  16.607   8.352
   66POPC   C3B 5721  22.508  16.802   7.985
   66POPC   C4B 5722  22.415  16.569   7.648
   67POPC   NC3 5723  40.918  38.297   9.507
   67POPC   PO4 5724  40.519  38.736   9.783
   67POPC   GL1 5725  40.937  38.744   9.294
   67POPC   GL2 5726  40.907  38.426   9.035
   67POPC   C1A 5727  40.976  38.889   8.818
   67POPC   D2A 5728  40.753  38.792   8.412
   67POPC   C3A 5729  40.957  38.638   8.047
   67POPC   C4A 5730  41.009  38.726   7.614
   67POPC   C1B 5731  41.043  38.109   8.741
   67POPC   C2B 5732  40.814  38.249   8.396
   67POPC   C3B 5733  40.611  38.288   8.018
   67POPC   C4B 5734  40.891  38.177   7.724
   68POPC   NC3 5735   6.253   3.315   9.770
   68POPC   PO4 5736   6.769   3.712   9.777
   68POPC   GL1 5737   6.722   3.678   9.306
   68POPC   GL2 5738   6.371   3.540   9.285
   68POPC   C1A 5739   6.823   3.647   8.836
   68POPC   D2A 5740   6.798   3.415   8.438
   68POPC   C3A 5741   6.749   3.673   8.060
   68POPC   C4A 5742   6.978   3.798   7.723
   68POPC   C1B 5743   6.309   3.541   8.836
   68POPC   C2B 5744   6.301   3.302   8.444
   68POPC   C3B 5745   6.498   3.224   8.032
   68POPC   C4B 5746   6.393   3.502   7.724
   69POPC   NC3 5747  38.709  23.464   9.693
   69POPC   PO4 5748  38.345  22.900   9.530
   69POPC   GL1 5749  38.326  23.103   9.123
   69POPC   GL2 5750  38.628  22.924   9.034
   69POPC   C1A 5751  38.371  23.154   8.647
   69POPC   D2A 5752  38.504  23.268   8.232
   69POPC   C3A 5753  38.335  23.071   7.869
   69POPC   C4A 5754  38.322  22.649   7.655
   69POPC   C1B 5755  38.837  22.978   8.634
   69POPC   C2B 5756  38.621  22.775   8.314
   69POPC   C3B 5757  38.726  22.748   7.938
   69POPC   C4B 5758  38.816  23.161   7.730
   70POPC   NC3 5759  10.955  38.373   9.676
   70POPC   PO4 5760  10.327  38.207   9.543
   70POPC   GL1 5761  10.477  38.429   9.166
   70POPC   GL2 5762  10.507  38.812   9.139
   70POPC   C1A 5763  10.328  38.314   8.763
   70POPC   D2A 5764  10.457  38.152   8.386
   70POPC   C3A 5765  10.253  38.342   8.085
   70POPC   C4A 5766  10.267  38.474   7.694
   70POPC   C1B 5767  10.666  38.693   8.738
   70POPC   C2B 5768  10.670  38.612   8.290
   70POPC   C3B 5769  10.712  38.647   7.848
   70POPC   C4B 5770  10.756  38.428   7.415
   71POPC   NC3 5771  28.971   0.961   9.461
   71POPC   PO4 5772  29.395   1.451   9.609
   71POPC   GL1 5773  29.317   1.282   9.188
   71POPC   GL2 5774  28.971   1.346   9.061
   71POPC   C1A 5775  29.381   1.017   8.810
   71POPC   D2A 5776  29.211   0.893   8.404
   71POPC   C3A 5777  29.298   1.151   8.037
   71POPC   C4A 5778  29.029   1.413   7.825
   71POPC   C1B 5779  28.838   0.977   8.802
   71POPC   C2B 5780  28.673   0.942   8.379
   71POPC   C3B 5781  28.852   0.812   8.009
   71POPC   C4B 5782  29.052   0.939   7.656
   72POPC   NC3 5783   9.805  25.221   9.575
   72POPC   PO4 5784   9.403  25.757   9.692
   72POPC   GL1 5785   9.596  25.598   9.243
   72POPC   GL2 5786   9.656  25.207   9.095
   72POPC   C1A 5787   9.666  25.626   8.782
   72POPC   D2A 5788   9.665  25.408   8.398
   72POPC   C3A 5789   9.913  25.410   8.078
   72POPC   C4A 5790   9.803  25.354   7.666
   72POPC   C1B 5791   9.588  24.968   8.721
   72POPC   C2B 5792   9.756  24.922   8.286
   72POPC   C3B 5793   9.561  24.967   7.889
   72POPC   C4B 5794   9.569  24.881   7.414
   73POPC   NC3 5795  39.216  26.395   9.506
   73POPC   PO4 5796  39.042  25.752   9.411
   73POPC   GL1 5797  39.127  26.025   9.127
   73POPC   GL2 5798  39.464  25.979   9.149
   73POPC   C1A 5799  39.213  25.996   8.703
   73POPC   D2A 5800  39.259  26.141   8.316
   73POPC   C3A 5801  38.895  26.033   8.107
   73POPC   C4A 5802  38.811  25.816   7.722
   73POPC   C1B 5803  39.624  26.284   8.830
   73POPC   C2B 5804  39.669  26.447   8.403
   73POPC   C3B 5805  39.627  26.257   7.988
   73POPC   C4B 5806  39.265  26.109   7.775
   74POPC   NC3 5807  10.938  27.499   9.405
   74POPC   PO4 5808  11.599  27.661   9.544
   74POPC   GL1 5809  11.475  27.794   9.150
   74POPC   GL2 5810  11.145  27.960   9.203
   74POPC   C1A 5811  11.499  27.662   8.710
   74POPC   D2A 5812  11.668  27.508   8.304
   74POPC   C3A 5813  11.364  27.491   7.972
   74POPC   C4A 5814  11.311  27.708   7.545
   74POPC   C1B 5815  11.008  27.799   8.794
   74POPC   C2B 5816  11.128  27.741   8.349
   74POPC   C3B 5817  10.951  27.791   7.911
   74POPC   C4B 5818  10.812  27.720   7.464
   75POPC   NC3 5819  14.767  23.790   9.518
   75POPC   PO4 5820  15.389  24.066   9.433
   75POPC   GL1 5821  15.142  23.843   9.147
   75POPC   GL2 5822  15.085  23.501   9.213
   75POPC   C1A 5823  15.230  23.710   8.737
   75POPC   D2A 5824  15.319  23.984   8.381
   75POPC   C3A 5825  15.246  23.746   8.032
   75POPC   C4A 5826  15.075  23.771   7.659
   75POPC   C1B 5827  14.906  23.302   8.847
   75POPC   C2B 5828  14.974  23.254   8.394
   75POPC   C3B 5829  14.899  23.351   7.953
   75POPC   C4B 5830  15.062  23.272   7.530
   76POPC   NC3 5831  15.373  24.525   9.580
   76POPC   PO4 5832  14.742  24.403   9.751
   76POPC   GL1 5833  14.849  24.274   9.279
   76POPC   GL2 5834  15.091  24.521   9.172
   76POPC   C1A 5835  14.990  24.198   8.795
   76POPC   D2A 5836  14.901  24.338   8.348
   76POPC   C3A 5837  15.124  24.280   7.940
   76POPC   C4A 5838  15.475  24.115   7.679
   76POPC   C1B 5839  15.189  24.675   8.786
   76POPC   C2B 5840  15.288  24.710   8.363
   76POPC   C3B 5841  15.431  24.711   7.955
   76POPC   C4B 5842  15.309  24.641   7.534
   77POPC   NC3 5843  24.095  33.858   9.433
   77POPC   PO4 5844  24.750  33.961   9.559
   77POPC   GL1 5845  24.626  33.980   9.133
   77POPC   GL2 5846  24.541  33.641   9.097
   77POPC   C1A 5847  24.488  33.982   8.697
   77POPC   D2A 5848  24.507  33.795   8.293
   77POPC   C3A 5849  24.388  33.962   7.876
   77POPC   C4A 5850  24.078  33.716   7.675
   77POPC   C1B 5851  24.886  33.657   8.774
   77POPC   C2B 5852  25.008  33.758   8.337
   77POPC   C3B 5853  24.823  33.638   7.931
   77POPC   C4B 5854  24.428  33.417   7.925
   78POPC   NC3 5855  14.905  13.202   9.450
   78POPC   PO4 5856  14.596  13.714   9.483
   78POPC   GL1 5857  14.152  13.650   9.275
   78POPC   GL2 5858  14.087  13.307   9.189
   78POPC   C1A 5859  14.112  13.673   8.834
   78POPC   D2A 5860  14.433  13.630   8.518
   78POPC   C3A 5861  14.398  13.629   8.062
   78POPC   C4A 5862  14.609  13.843   7.682
   78POPC   C1B 5863  13.992  13.172   8.747
   78POPC   C2B 5864  14.188  13.224   8.320
   78POPC   C3B 5865  14.159  13.196   7.869
   78POPC   C4B 5866  14.216  13.541   7.575
   79POPC   NC3 5867  44.978  26.728   9.268
   79POPC   PO4 5868  44.444  27.021   9.574
   79POPC   GL1 5869  44.438  26.814   9.169
   79POPC   GL2 5870  44.553  26.473   9.223
   79POPC   C1A 5871  44.585  26.910   8.743
   79POPC   D2A 5872  44.391  26.923   8.324
   79POPC   C3A 5873  44.632  26.970   7.973
   79POPC   C4A 5874  44.744  26.819   7.572
   79POPC   C1B 5875  44.738  26.424   8.768
   79POPC   C2B 5876  44.780  26.594   8.382
   79POPC   C3B 5877  44.625  26.483   8.000
   79POPC   C4B 5878  44.562  26.311   7.600
   80POPC   NC3 5879   6.378  23.342   9.424
   80POPC   PO4 5880   6.808  22.841   9.484
   80POPC   GL1 5881   6.644  22.850   9.093
   80POPC   GL2 5882   6.697  23.192   9.055
   80POPC   C1A 5883   6.742  22.894   8.661
   80POPC   D2A 5884   6.589  22.659   8.374
   80POPC   C3A 5885   6.776  22.843   8.092
   80POPC   C4A 5886   6.707  22.819   7.688
   80POPC   C1B 5887   6.569  23.400   8.658
   80POPC   C2B 5888   6.615  23.327   8.251
   80POPC   C3B 5889   6.382  23.300   7.884
   80POPC   C4B 5890   6.522  23.270   7.462
   81POPC   NC3 5891   0.853  21.225   9.478
   81POPC   PO4 5892   1.054  21.750   9.848
   81POPC   GL1 5893   1.356  21.656   9.380
   81POPC   GL2 5894   1.332  21.295   9.246
   81POPC   C1A 5895   1.355  21.594   8.840
   81POPC   D2A 5896   1.146  21.722   8.410
   81POPC   C3A 5897   1.234  21.485   8.004
   81POPC   C4A 5898   1.525  21.180   7.798
   81POPC   C1B 5899   1.069  21.142   8.851
   81POPC   C2B 5900   0.893  21.246   8.428
   81POPC   C3B 5901   0.854  21.072   8.037
   81POPC   C4B 5902   1.003  21.092   7.638
   82POPC   NC3 5903  31.390  32.782   9.501
   82POPC   PO4 5904  31.522  32.091   9.636
   82POPC   GL1 5905  31.455  32.322   9.291
   82POPC   GL2 5906  31.788  32.422   9.328
   82POPC   C1A 5907  31.259  32.320   8.879
   82POPC   D2A 5908  31.369  32.050   8.533
   82POPC   C3A 5909  31.300  32.201   8.118
   82POPC   C4A 5910  31.419  32.020   7.732
   82POPC   C1B 5911  31.780  32.269   8.899
   82POPC   C2B 5912  31.675  32.474   8.525
   82POPC   C3B 5913  31.780  32.441   8.106
   82POPC   C4B 5914  31.676  32.477   7.688
   83POPC   NC3 5915  14.731   5.920   9.539
   83POPC   PO4 5916  15.350   5.577   9.363
   83POPC   GL1 5917  15.075   5.839   9.175
   83POPC   GL2 5918  14.820   5.584   9.161
   83POPC   C1A 5919  15.057   6.103   8.813
   83POPC   D2A 5920  14.968   5.932   8.418
   83POPC   C3A 5921  15.274   5.918   8.147
   83POPC   C4A 5922  15.177   6.137   7.798
   83POPC   C1B 5923  14.990   5.555   8.757
   83POPC   C2B 5924  15.157   5.452   8.367
   83POPC   C3B 5925  14.987   5.554   7.955
   83POPC   C4B 5926  15.307   5.669   7.676
   84POPC   NC3 5927  30.839  25.627   9.480
   84POPC   PO4 5928  30.649  24.964   9.411
   84POPC   GL1 5929  30.723  25.274   9.108
   84POPC   GL2 5930  30.407  25.462   9.116
   84POPC   C1A 5931  30.736  25.343   8.657
   84POPC   D2A 5932  30.973  25.479   8.288
   84POPC   C3A 5933  30.784  25.374   7.911
   84POPC   C4A 5934  30.684  25.096   7.592
   84POPC   C1B 5935  30.189  25.457   8.699
   84POPC   C2B 5936  30.376  25.505   8.304
   84POPC   C3B 5937  30.421  25.742   7.945
   84POPC   C4B 5938  30.410  25.528   7.593
   85POPC   NC3 5939  40.912  28.892   9.456
   85POPC   PO4 5940  40.559  29.467   9.435
   85POPC   GL1 5941  40.643  29.172   9.119
   85POPC   GL2 5942  40.982  29.232   9.046
   85POPC   C1A 5943  40.739  28.900   8.742
   85POPC   D2A 5944  40.930  28.971   8.301
   85POPC   C3A 5945  40.671  28.806   7.924
   85POPC   C4A 5946  40.707  28.834   7.460
   85POPC   C1B 5947  40.881  29.376   8.679
   85POPC   C2B 5948  40.672  29.623   8.427
   85POPC   C3B 5949  40.675  29.440   8.015
   85POPC   C4B 5950  41.010  29.187   7.826
   86POPC   NC3 5951  29.657  32.646   9.352
   86POPC   PO4 5952  29.230  33.180   9.600
   86POPC   GL1 5953  29.312  33.024   9.186
   86POPC   GL2 5954  29.206  32.644   9.123
   86POPC   C1A 5955  29.346  33.207   8.756
   86POPC   D2A 5956  29.329  33.035   8.331
   86POPC   C3A 5957  29.167  33.292   7.993
   86POPC   C4A 5958  29.422  33.434   7.637
   86POPC   C1B 5959  29.090  32.707   8.686
   86POPC   C2B 5960  28.993  32.658   8.246
   86POPC   C3B 5961  29.208  32.746   7.880
   86POPC   C4B 5962  29.383  32.659   7.474
   87POPC   NC3 5963  20.348  31.608   9.313
   87POPC   PO4 5964  20.628  31.151   9.598
   87POPC   GL1 5965  20.552  31.132   9.095
   87POPC   GL2 5966  20.647  31.455   8.924
   87POPC   C1A 5967  20.427  31.126   8.615
   87POPC   D2A 5968  20.472  31.507   8.336
   87POPC   C3A 5969  20.427  31.435   7.898
   87POPC   C4A 5970  20.822  31.326   7.741
   87POPC   C1B 5971  20.694  31.884   8.737
   87POPC   C2B 5972  20.771  32.020   8.310
   87POPC   C3B 5973  20.824  31.811   7.934
   87POPC   C4B 5974  20.577  31.819   7.565
   88POPC   NC3 5975   6.203   8.566   9.539
   88POPC   PO4 5976   5.587   8.670   9.601
   88POPC   GL1 5977   5.836   8.804   9.245
   88POPC   GL2 5978   5.849   9.169   9.166
   88POPC   C1A 5979   5.985   8.797   8.821
   88POPC   D2A 5980   5.770   8.772   8.429
   88POPC   C3A 5981   5.923   8.645   8.014
   88POPC   C4A 5982   5.674   8.646   7.612
   88POPC   C1B 5983   5.986   9.294   8.740
   88POPC   C2B 5984   6.146   9.107   8.318
   88POPC   C3B 5985   5.946   9.143   7.891
   88POPC   C4B 5986   5.768   9.255   7.438
   89POPC   NC3 5987  24.092  12.263   9.340
   89POPC   PO4 5988  23.557  11.926   9.624
   89POPC   GL1 5989  23.650  11.976   9.166
   89POPC   GL2 5990  23.472  12.263   8.976
   89POPC   C1A 5991  23.877  11.959   8.774
   89POPC   D2A 5992  23.979  12.085   8.363
   89POPC   C3A 5993  23.616  12.193   8.105
   89POPC   C4A 5994  23.539  12.091   7.680
   89POPC   C1B 5995  23.839  12.467   8.763
   89POPC   C2B 5996  23.805  12.615   8.369
   89POPC   C3B 5997  24.046  12.507   8.049
   89POPC   C4B 5998  23.803  12.516   7.702
   90POPC   NC3 5999  23.654  36.542   9.444
   90POPC   PO4 6000  23.928  37.133   9.626
   90POPC   GL1 6001  23.893  36.945   9.217
   90POPC   GL2 6002  23.936  36.645   9.031
   90POPC   C1A 6003  23.669  37.012   8.829
   90POPC   D2A 6004  23.947  37.012   8.488
   90POPC   C3A 6005  23.776  37.103   8.059
   90POPC   C4A 6006  23.474  36.874   7.802
   90POPC   C1B 6007  24.095  36.527   8.645
   90POPC   C2B 6008  24.138  36.596   8.229
   90POPC   C3B 6009  23.917  36.617   7.876
   90POPC   C4B 6010  24.104  36.504   7.518
   91POPC   NC3 6011   1.576  39.733   9.430
   91POPC   PO4 6012   1.014  40.175   9.502
   91POPC   GL1 6013   1.066  40.080   9.106
   91POPC   GL2 6014   1.429  40.113   9.115
   91POPC   C1A 6015   0.954  39.977   8.683
   91POPC   D2A 6016   1.206  39.726   8.390
   91POPC   C3A 6017   1.265  39.858   7.997
   91POPC   C4A 6018   1.138  40.003   7.609
   91POPC   C1B 6019   1.370  40.278   8.740
   91POPC   C2B 6020   1.518  40.156   8.368
   91POPC   C3B 6021   1.485  40.313   7.996
   91POPC   C4B 6022   1.628  40.111   7.646
   92POPC   NC3 6023   1.475   4.554   9.770
   92POPC   PO4 6024   1.311   5.193   9.450
   92POPC   GL1 6025   1.131   4.962   9.065
   92POPC   GL2 6026   0.808   4.765   9.081
   92POPC   C1A 6027   1.211   4.871   8.609
   92POPC   D2A 6028   1.603   4.792   8.391
   92POPC   C3A 6029   1.463   4.743   7.972
   92POPC   C4A 6030   1.220   5.072   7.767
   92POPC   C1B 6031   0.754   5.051   8.715
   92POPC   C2B 6032   0.850   5.100   8.264
   92POPC   C3B 6033   0.924   5.426   7.992
   92POPC   C4B 6034   0.945   5.459   7.554
   93POPC   NC3 6035   9.698   3.134   9.461
   93POPC   PO4 6036   9.859   2.487   9.607
   93POPC   GL1 6037   9.813   2.689   9.203
   93POPC   GL2 6038   9.455   2.784   9.149
   93POPC   C1A 6039   9.771   2.588   8.767
   93POPC   D2A 6040   9.958   2.674   8.375
   93POPC   C3A 6041   9.710   2.644   7.987
   93POPC   C4A 6042   9.479   2.430   7.659
   93POPC   C1B 6043   9.567   3.054   8.794
   93POPC   C2B 6044   9.637   3.105   8.355
   93POPC   C3B 6045   9.435   3.085   7.970
   93POPC   C4B 6046   9.436   2.923   7.529
   94POPC   NC3 6047   9.738  34.087   9.518
   94POPC   PO4 6048   9.669  33.349   9.481
   94POPC   GL1 6049   9.863  33.569   9.129
   94POPC   GL2 6050   9.702  33.892   9.039
   94POPC   C1A 6051   9.999  33.636   8.712
   94POPC   D2A 6052   9.697  33.878   8.437
   94POPC   C3A 6053   9.522  33.702   8.053
   94POPC   C4A 6054   9.636  33.634   7.633
   94POPC   C1B 6055   9.996  34.147   8.784
   94POPC   C2B 6056  10.059  34.234   8.334
   94POPC   C3B 6057   9.976  33.928   7.970
   94POPC   C4B 6058  10.268  33.711   7.690
   95POPC   NC3 6059  23.424  11.523   9.415
   95POPC   PO4 6060  22.798  11.573   9.652
   95POPC   GL1 6061  22.731  11.426   9.198
   95POPC   GL2 6062  23.026  11.470   9.100
   95POPC   C1A 6063  22.661  11.265   8.752
   95POPC   D2A 6064  22.813  11.424   8.330
   95POPC   C3A 6065  22.865  11.175   7.934
   95POPC   C4A 6066  22.899  11.084   7.445
   95POPC   C1B 6067  23.165  11.325   8.716
   95POPC   C2B 6068  23.472  11.168   8.460
   95POPC   C3B 6069  23.340  11.321   8.082
   95POPC   C4B 6070  23.316  11.135   7.705
   96POPC   NC3 6071  37.137  44.111   9.437
   96POPC   PO4 6072  36.983  43.399   9.559
   96POPC   GL1 6073  36.968  43.682   9.181
   96POPC   GL2 6074  36.769  44.004   9.083
   96POPC   C1A 6075  37.058  43.678   8.742
   96POPC   D2A 6076  36.844  43.632   8.344
   96POPC   C3A 6077  37.033  43.502   7.950
   96POPC   C4A 6078  36.951  43.686   7.528
   96POPC   C1B 6079  37.035  44.205   8.750
   96POPC   C2B 6080  36.996  44.113   8.309
   96POPC   C3B 6081  36.797  43.976   7.944
   96POPC   C4B 6082  36.600  44.205   7.635
   97POPC   NC3 6083  11.439  41.090   9.376
   97POPC   PO4 6084  11.139  40.498   9.453
   97POPC   GL1 6085  10.952  40.592   9.057
   97POPC   GL2 6086  11.184  40.879   8.993
   97POPC   C1A 6087  11.045  40.587   8.608
   97POPC   D2A 6088  11.395  40.833   8.485
   97POPC   C3A 6089  11.375  40.947   8.091
   97POPC   C4A 6090  11.153  40.707   7.812
   97POPC   C1B 6091  11.454  40.532   8.896
   97POPC   C2B 6092  11.464  40.321   8.486
   97POPC   C3B 6093  11.698  40.497   8.136
   97POPC   C4B 6094  11.645  40.679   7.732
   98POPC   NC3 6095   6.307  30.688   9.791
   98POPC   PO4 6096   5.626  30.677   9.475
   98POPC   GL1 6097   6.010  30.698   9.226
   98POPC   GL2 6098   6.232  31.001   9.298
   98POPC   C1A 6099   6.042  30.585   8.775
   98POPC   D2A 6100   5.819  30.398   8.412
   98POPC   C3A 6101   5.916  30.530   7.982
   98POPC   C4A 6102   6.256  30.407   7.731
   98POPC   C1B 6103   6.138  31.077   8.848
   98POPC   C2B 6104   5.946  30.994   8.435
   98POPC   C3B 6105   6.098  31.003   8.010
   98POPC   C4B 6106   6.252  30.885   7.611
   99POPC   NC3 6107  25.440  15.517   9.468
   99POPC   PO4 6108  25.321  14.869   9.523
   99POPC   GL1 6109  25.228  15.111   9.154
   99POPC   GL2 6110  25.244  15.445   9.007
   99POPC   C1A 6111  25.329  15.035   8.720
   99POPC   D2A 6112  25.470  15.054   8.293
   99POPC   C3A 6113  25.181  14.903   7.985
   99POPC   C4A 6114  25.051  15.068   7.594
   99POPC   C1B 6115  25.120  15.522   8.568
   99POPC   C2B 6116  25.329  15.558   8.186
   99POPC   C3B 6117  25.433  15.358   7.811
   99POPC   C4B 6118  25.308  15.486   7.399
  100POPC   NC3 6119  39.475   5.997   9.533
  100POPC   PO4 6120  39.104   5.404   9.515
  100POPC   GL1 6121  39.178   5.721   9.192
  100POPC   GL2 6122  39.056   6.072   9.230
  100POPC   C1A 6123  39.049   5.763   8.778
  100POPC   D2A 6124  39.199   5.537   8.455
  100POPC   C3A 6125  39.178   5.780   8.086
  100POPC   C4A 6126  39.242   5.953   7.673
  100POPC   C1B 6127  39.370   6.130   8.904
  100POPC   C2B 6128  39.361   6.063   8.467
  100POPC   C3B 6129  39.623   6.014   8.104
  100POPC   C4B 6130  39.672   6.288   7.760
  101POPC   NC3 6131  16.294   6.667   9.589
  101POPC   PO4 6132  15.749   6.316   9.427
  101POPC   GL1 6133  15.995   6.585   9.158
  101POPC   GL2 6134  15.755   6.832   9.038
  101POPC   C1A 6135  16.123   6.501   8.727
  101POPC   D2A 6136  15.836   6.696   8.430
  101POPC   C3A 6137  15.923   6.780   8.003
  101POPC   C4A 6138  16.204   6.709   7.659
  101POPC   C1B 6139  15.551   6.478   8.780
  101POPC   C2B 6140  15.448   6.373   8.305
  101POPC   C3B 6141  15.520   6.511   7.850
  101POPC   C4B 6142  15.745   6.630   7.449
  102POPC   NC3 6143  37.938  23.101   9.494
  102POPC   PO4 6144  37.337  23.146   9.635
  102POPC   GL1 6145  37.515  23.108   9.185
  102POPC   GL2 6146  37.757  22.825   9.124
  102POPC   C1A 6147  37.512  22.974   8.725
  102POPC   D2A 6148  37.664  23.068   8.330
  102POPC   C3A 6149  37.434  23.140   7.963
  102POPC   C4A 6150  37.285  23.426   7.648
  102POPC   C1B 6151  38.004  22.809   8.720
  102POPC   C2B 6152  38.111  22.858   8.274
  102POPC   C3B 6153  37.876  22.831   7.866
  102POPC   C4B 6154  37.887  22.641   7.424
  103POPC   NC3 6155  38.580  17.255   9.762
  103POPC   PO4 6156  38.098  17.606   9.523
  103POPC   GL1 6157  38.303  17.559   9.145
  103POPC   GL2 6158  38.573  17.316   9.258
  103POPC   C1A 6159  38.338  17.831   8.774
  103POPC   D2A 6160  38.214  17.825   8.347
  103POPC   C3A 6161  38.406  17.578   8.006
  103POPC   C4A 6162  38.549  17.494   7.554
  103POPC   C1B 6163  38.664  17.155   8.865
  103POPC   C2B 6164  38.573  17.252   8.445
  103POPC   C3B 6165  38.740  17.204   8.062
  103POPC   C4B 6166  38.911  17.135   7.712
  104POPC   NC3 6167  38.329  12.965   9.699
  104POPC   PO4 6168  38.800  13.350   9.797
  104POPC   GL1 6169  38.655  13.129   9.315
  104POPC   GL2 6170  38.360  12.871   9.201
  104POPC   C1A 6171  38.452  13.194   8.840
  104POPC   D2A 6172  38.305  13.033   8.435
  104POPC   C3A 6173  38.381  13.053   8.000
  104POPC   C4A 6174  38.370  12.909   7.576
  104POPC   C1B 6175  38.240  12.675   8.775
  104POPC   C2B 6176  38.081  12.584   8.330
  104POPC   C3B 6177  37.856  12.500   7.963
  104POPC   C4B 6178  38.008  12.536   7.553
  105POPC   NC3 6179  33.804  15.661   9.368
  105POPC   PO4 6180  33.456  15.944   9.847
  105POPC   GL1 6181  33.720  16.160   9.380
  105POPC   GL2 6182  33.518  16.167   9.109
  105POPC   C1A 6183  33.920  16.165   8.846
  105POPC   D2A 6184  33.705  16.223   8.418
  105POPC   C3A 6185  33.678  15.941   8.087
  105POPC   C4A 6186  34.041  15.882   7.813
  105POPC   C1B 6187  33.538  15.862   8.729
  105POPC   C2B 6188  33.563  15.558   8.414
  105POPC   C3B 6189  33.375  15.540   8.001
  105POPC   C4B 6190  33.573  15.705   7.644
  106POPC   NC3 6191  30.746   8.301   9.572
  106POPC   PO4 6192  30.326   7.785   9.272
  106POPC   GL1 6193  30.473   8.203   9.045
  106POPC   GL2 6194  30.767   8.387   9.079
  106POPC   C1A 6195  30.514   8.374   8.601
  106POPC   D2A 6196  30.333   8.367   8.185
  106POPC   C3A 6197  30.638   8.305   7.872
  106POPC   C4A 6198  30.887   7.971   7.692
  106POPC   C1B 6199  30.994   8.456   8.710
  106POPC   C2B 6200  30.912   8.550   8.268
  106POPC   C3B 6201  31.165   8.358   7.924
  106POPC   C4B 6202  31.398   8.156   7.583
  107POPC   NC3 6203   3.700  21.893   9.335
  107POPC   PO4 6204   3.376  21.328   9.404
  107POPC   GL1 6205   3.614  21.450   9.041
  107POPC   GL2 6206   3.441  21.710   8.923
  107POPC   C1A 6207   3.585  21.448   8.524
  107POPC   D2A 6208   3.727  21.130   8.231
  107POPC   C3A 6209   3.837  21.312   7.899
  107POPC   C4A 6210   3.619  21.656   7.935
  107POPC   C1B 6211   3.225  21.244   8.802
  107POPC   C2B 6212   3.082  20.947   8.518
  107POPC   C3B 6213   3.248  20.932   8.110
  107POPC   C4B 6214   3.286  21.266   7.813
  108POPC   NC3 6215  14.147   1.710   9.461
  108POPC   PO4 6216  14.477   2.327   9.412
  108POPC   GL1 6217  14.540   1.948   9.189
  108POPC   GL2 6218  14.236   1.930   8.987
  108POPC   C1A 6219  14.714   1.815   8.805
  108POPC   D2A 6220  14.462   1.863   8.443
  108POPC   C3A 6221  14.680   1.870   8.049
  108POPC   C4A 6222  14.452   1.981   7.669
  108POPC   C1B 6223  14.241   2.313   8.715
  108POPC   C2B 6224  14.013   2.395   8.322
  108POPC   C3B 6225  14.030   2.167   7.942
  108POPC   C4B 6226  14.030   2.334   7.525
  109POPC   NC3 6227  28.227  12.328   9.582
  109POPC   PO4 6228  28.511  11.616   9.563
  109POPC   GL1 6229  28.393  11.933   9.249
  109POPC   GL2 6230  28.559  12.225   9.177
  109POPC   C1A 6231  28.173  12.066   8.884
  109POPC   D2A 6232  28.116  12.086   8.452
  109POPC   C3A 6233  28.412  12.001   8.137
  109POPC   C4A 6234  28.251  11.820   7.790
  109POPC   C1B 6235  28.481  12.483   8.821
  109POPC   C2B 6236  28.504  12.447   8.386
  109POPC   C3B 6237  28.438  12.500   7.960
  109POPC   C4B 6238  28.215  12.314   7.635
  110POPC   NC3 6239  27.185  35.273   9.388
  110POPC   PO4 6240  26.545  35.554   9.495
  110POPC   GL1 6241  26.771  35.480   9.089
  110POPC   GL2 6242  27.079  35.645   9.033
  110POPC   C1A 6243  26.915  35.353   8.655
  110POPC   D2A 6244  26.890  35.085   8.293
  110POPC   C3A 6245  26.666  35.149   7.889
  110POPC   C4A 6246  26.872  35.153   7.452
  110POPC   C1B 6247  27.337  35.688   8.695
  110POPC   C2B 6248  27.254  35.523   8.303
  110POPC   C3B 6249  26.841  35.574   8.150
  110POPC   C4B 6250  26.906  35.565   7.756
  111POPC   NC3 6251   6.841  38.146   9.442
  111POPC   PO4 6252   6.406  37.626   9.455
  111POPC   GL1 6253   6.626  37.779   9.114
  111POPC   GL2 6254   6.430  38.097   9.091
  111POPC   C1A 6255   6.727  37.586   8.695
  111POPC   D2A 6256   6.836  37.362   8.297
  111POPC   C3A 6257   6.717  37.622   7.933
  111POPC   C4A 6258   6.290  37.543   7.777
  111POPC   C1B 6259   6.272  37.826   8.751
  111POPC   C2B 6260   6.331  37.699   8.309
  111POPC   C3B 6261   6.369  37.996   7.954
  111POPC   C4B 6262   6.530  37.929   7.502
  112POPC   NC3 6263  13.943   2.847   9.868
  112POPC   PO4 6264  13.430   2.552   9.607
  112POPC   GL1 6265  13.571   2.767   9.227
  112POPC   GL2 6266  13.871   2.909   9.164
  112POPC   C1A 6267  13.364   2.827   8.843
  112POPC   D2A 6268  13.314   2.962   8.423
  112POPC   C3A 6269  13.456   2.698   8.102
  112POPC   C4A 6270  13.488   2.789   7.688
  112POPC   C1B 6271  13.834   2.676   8.742
  112POPC   C2B 6272  13.856   2.896   8.332
  112POPC   C3B 6273  13.949   2.720   7.905
  112POPC   C4B 6274  13.936   2.839   7.468
  113POPC   NC3 6275  15.658  21.672   9.468
  113POPC   PO4 6276  15.108  21.262   9.552
  113POPC   GL1 6277  15.127  21.393   9.151
  113POPC   GL2 6278  14.812  21.380   9.091
  113POPC   C1A 6279  15.212  21.478   8.705
  113POPC   D2A 6280  15.434  21.305   8.321
  113POPC   C3A 6281  15.223  21.292   7.891
  113POPC   C4A 6282  15.256  21.317   7.431
  113POPC   C1B 6283  14.722  21.447   8.667
  113POPC   C2B 6284  14.906  21.492   8.259
  113POPC   C3B 6285  14.686  21.381   7.899
  113POPC   C4B 6286  14.767  21.234   7.524
  114POPC   NC3 6287   4.530  42.281   9.416
  114POPC   PO4 6288   4.182  42.779   9.554
  114POPC   GL1 6289   4.080  42.465   9.209
  114POPC   GL2 6290   4.077  42.074   9.231
  114POPC   C1A 6291   4.303  42.309   8.823
  114POPC   D2A 6292   4.579  42.501   8.556
  114POPC   C3A 6293   4.471  42.328   8.176
  114POPC   C4A 6294   4.239  42.566   7.954
  114POPC   C1B 6295   3.892  42.022   8.806
  114POPC   C2B 6296   4.056  42.010   8.335
  114POPC   C3B 6297   4.068  42.096   7.869
  114POPC   C4B 6298   4.188  41.893   7.471
  115POPC   NC3 6299   7.620  37.409   9.481
  115POPC   PO4 6300   7.259  37.963   9.389
  115POPC   GL1 6301   7.360  37.603   9.089
  115POPC   GL2 6302   7.696  37.401   8.982
  115POPC   C1A 6303   7.239  37.492   8.692
  115POPC   D2A 6304   7.456  37.432   8.332
  115POPC   C3A 6305   7.234  37.453   7.956
  115POPC   C4A 6306   7.544  37.483   7.640
  115POPC   C1B 6307   7.701  37.735   8.696
  115POPC   C2B 6308   7.444  37.982   8.426
  115POPC   C3B 6309   7.343  37.984   7.988
  115POPC   C4B 6310   7.544  37.967   7.593
  116POPC   NC3 6311  35.998   0.295   9.442
  116POPC   PO4 6312  36.294   0.965   9.382
  116POPC   GL1 6313  36.050   0.685   9.111
  116POPC   GL2 6314  36.170   0.345   8.979
  116POPC   C1A 6315  35.973   0.752   8.691
  116POPC   D2A 6316  36.288   0.842   8.406
  116POPC   C3A 6317  36.216   0.700   8.031
  116POPC   C4A 6318  36.033   0.374   7.843
  116POPC   C1B 6319  36.330   0.357   8.577
  116POPC   C2B 6320  36.528   0.345   8.180
  116POPC   C3B 6321  36.436   0.061   7.810
  116POPC   C4B 6322  36.615   0.082   7.396
  117POPC   NC3 6323  23.634  15.105   9.566
  117POPC   PO4 6324  24.065  15.158   9.082
  117POPC   GL1 6325  23.665  15.217   9.046
  117POPC   GL2 6326  23.342  15.039   9.106
  117POPC   C1A 6327  23.586  14.990   8.665
  117POPC   D2A 6328  23.849  14.930   8.337
  117POPC   C3A 6329  23.601  15.109   8.045
  117POPC   C4A 6330  23.464  14.898   7.706
  117POPC   C1B 6331  23.260  15.400   8.838
  117POPC   C2B 6332  23.481  15.456   8.445
  117POPC   C3B 6333  23.353  15.589   8.036
  117POPC   C4B 6334  23.152  15.296   7.788
  118POPC   NC3 6335  10.236  37.688   9.557
  118POPC   PO4 6336  10.783  37.260   9.548
  118POPC   GL1 6337  10.556  37.556   9.194
  118POPC   GL2 6338  10.216  37.486   9.078
  118POPC   C1A 6339  10.403  37.815   8.780
  118POPC   D2A 6340  10.518  37.650   8.353
  118POPC   C3A 6341  10.397  37.838   7.970
  118POPC   C4A 6342  10.653  38.141   7.822
  118POPC   C1B 6343  10.518  37.312   8.760
  118POPC   C2B 6344  10.532  37.148   8.337
  118POPC   C3B 6345  10.506  37.324   7.949
  118POPC   C4B 6346  10.724  37.289   7.596
  119POPC   NC3 6347  44.009  28.152   9.238
  119POPC   PO4 6348  43.920  27.521   9.505
  119POPC   GL1 6349  44.097  27.672   9.133
  119POPC   GL2 6350  43.738  27.775   9.039
  119POPC   C1A 6351  44.276  27.847   8.737
  119POPC   D2A 6352  44.472  27.826   8.330
  119POPC   C3A 6353  44.204  27.749   7.990
  119POPC   C4A 6354  44.018  28.011   7.741
  119POPC   C1B 6355  43.859  27.437   8.773
  119POPC   C2B 6356  43.957  27.591   8.400
  119POPC   C3B 6357  43.703  27.670   8.064
  119POPC   C4B 6358  43.831  27.547   7.678
  120POPC   NC3 6359   1.462  17.219   9.547
  120POPC   PO4 6360   1.139  17.848   9.628
  120POPC   GL1 6361   1.231  17.580   9.237
  120POPC   GL2 6362   1.103  17.259   9.177
  120POPC   C1A 6363   1.439  17.415   8.840
  120POPC   D2A 6364   1.397  17.567   8.407
  120POPC   C3A 6365   1.272  17.419   8.015
  120POPC   C4A 6366   1.404  17.122   7.730
  120POPC   C1B 6367   0.963  17.481   8.767
  120POPC   C2B 6368   0.987  17.233   8.400
  120POPC   C3B 6369   0.840  17.155   8.005
  120POPC   C4B 6370   0.806  17.507   7.722
  121POPC   NC3 6371  32.307   0.332   9.592
  121POPC   PO4 6372  32.292   0.988   9.667
  121POPC   GL1 6373  32.236   0.732   9.248
  121POPC   GL2 6374  32.268   0.360   9.105
  121POPC   C1A 6375  32.150   0.727   8.793
  121POPC   D2A 6376  32.229   0.532   8.407
  121POPC   C3A 6377  32.199   0.657   8.022
  121POPC   C4A 6378  32.217   0.648   7.606
  121POPC   C1B 6379  32.093   0.179   8.741
  121POPC   C2B 6380  31.953   0.113   8.284
  121POPC   C3B 6381  31.952   0.249   7.830
  121POPC   C4B 6382  32.219   0.099   7.460
  122POPC   NC3 6383   4.132  12.597   9.408
  122POPC   PO4 6384   4.609  13.016   9.689
  122POPC   GL1 6385   4.479  12.919   9.217
  122POPC   GL2 6386   4.156  12.902   9.017
  122POPC   C1A 6387   4.564  12.902   8.739
  122POPC   D2A 6388   4.566  13.109   8.336
  122POPC   C3A 6389   4.591  12.871   7.960
  122POPC   C4A 6390   4.296  12.719   7.689
  122POPC   C1B 6391   3.977  12.870   8.644
  122POPC   C2B 6392   4.082  12.976   8.264
  122POPC   C3B 6393   3.890  12.876   7.971
  122POPC   C4B 6394   3.844  13.001   7.607
  123POPC   NC3 6395   1.098   1.692   9.408
  123POPC   PO4 6396   1.107   0.962   9.464
  123POPC   GL1 6397   1.187   1.240   9.135
  123POPC   GL2 6398   0.847   1.392   9.058
  123POPC   C1A 6399   1.461   1.172   8.755
  123POPC   D2A 6400   1.707   1.262   8.369
  123POPC   C3A 6401   1.469   1.165   7.985
  123POPC   C4A 6402   1.182   0.830   7.765
  123POPC   C1B 6403   1.117   1.579   8.749
  123POPC   C2B 6404   1.176   1.395   8.357
  123POPC   C3B 6405   0.953   1.102   8.118
  123POPC   C4B 6406   0.854   1.215   7.707
  124POPC   NC3 6407  16.178   5.015   9.414
  124POPC   PO4 6408  15.591   5.020   9.817
  124POPC   GL1 6409  15.672   5.113   9.300
  124POPC   GL2 6410  15.871   5.407   9.172
  124POPC   C1A 6411  15.835   5.019   8.813
  124POPC   D2A 6412  15.858   4.738   8.433
  124POPC   C3A 6413  15.703   4.824   8.010
  124POPC   C4A 6414  15.839   4.872   7.571
  124POPC   C1B 6415  16.070   5.454   8.748
  124POPC   C2B 6416  16.186   5.194   8.374
  124POPC   C3B 6417  16.052   5.180   7.937
  124POPC   C4B 6418  16.151   5.321   7.480
  125POPC   NC3 6419   9.539  28.186   9.677
  125POPC   PO4 6420   9.680  28.804   9.602
  125POPC   GL1 6421   9.719  28.458   9.252
  125POPC   GL2 6422   9.389  28.254   9.202
  125POPC   C1A 6423   9.830  28.357   8.794
  125POPC   D2A 6424   9.804  28.596   8.382
  125POPC   C3A 6425   9.835  28.417   7.958
  125POPC   C4A 6426  10.096  28.100   7.738
  125POPC   C1B 6427   9.325  28.413   8.803
  125POPC   C2B 6428   9.456  28.223   8.450
  125POPC   C3B 6429   9.387  28.206   8.067
  125POPC   C4B 6430   9.499  28.047   7.680
  126POPC   NC3 6431  21.492  35.082   9.701
  126POPC   PO4 6432  20.833  35.194   9.519
  126POPC   GL1 6433  21.131  35.174   9.164
  126POPC   GL2 6434  21.408  35.412   9.108
  126POPC   C1A 6435  21.287  35.061   8.748
  126POPC   D2A 6436  21.493  35.072   8.361
  126POPC   C3A 6437  21.251  35.201   8.024
  126POPC   C4A 6438  21.148  35.092   7.615
  126POPC   C1B 6439  21.656  35.409   8.728
  126POPC   C2B 6440  21.765  35.519   8.287
  126POPC   C3B 6441  21.660  35.474   7.858
  126POPC   C4B 6442  21.499  35.794   7.530
  127POPC   NC3 6443  25.945  30.174   9.425
  127POPC   PO4 6444  26.280  29.623   9.214
  127POPC   GL1 6445  26.228  29.991   8.997
  127POPC   GL2 6446  26.329  30.311   9.077
  127POPC   C1A 6447  26.211  29.955   8.573
  127POPC   D2A 6448  26.217  29.589   8.381
  127POPC   C3A 6449  26.183  29.727   7.989
  127POPC   C4A 6450  25.972  29.539   7.688
  127POPC   C1B 6451  26.053  30.399   8.739
  127POPC   C2B 6452  25.863  30.321   8.311
  127POPC   C3B 6453  25.937  30.182   7.880
  127POPC   C4B 6454  26.175  30.404   7.568
  128POPC   NC3 6455   6.589   4.141   9.723
  128POPC   PO4 6456   6.410   4.472   9.237
  128POPC   GL1 6457   6.775   4.403   9.017
  128POPC   GL2 6458   7.003   4.643   9.153
  128POPC   C1A 6459   6.813   4.141   8.642
  128POPC   D2A 6460   6.499   3.867   8.452
  128POPC   C3A 6461   6.288   4.080   8.099
  128POPC   C4A 6462   6.444   4.010   7.687
  128POPC   C1B 6463   7.125   4.570   8.693
  128POPC   C2B 6464   7.178   4.342   8.315
  128POPC   C3B 6465   6.836   4.188   8.074
  128POPC   C4B 6466   6.669   4.450   7.757
  129POPC   NC3 6467  35.455  11.308   9.523
  129POPC   PO4 6468  35.417  11.930   9.373
  129POPC   GL1 6469  35.363  11.554   9.087
  129POPC   GL2 6470  35.617  11.275   9.032
  129POPC   C1A 6471  35.176  11.404   8.729
  129POPC   D2A 6472  35.179  11.153   8.356
  129POPC   C3A 6473  35.171  11.352   7.955
  129POPC   C4A 6474  35.275  11.427   7.539
  129POPC   C1B 6475  35.659  11.302   8.581
  129POPC   C2B 6476  35.678  11.305   8.147
  129POPC   C3B 6477  35.594  11.112   7.769
  129POPC   C4B 6478  35.656  11.152   7.311
  130POPC   NC3 6479  41.471  22.122   9.593
  130POPC   PO4 6480  42.117  22.194   9.537
  130POPC   GL1 6481  41.783  22.079   9.201
  130POPC   GL2 6482  41.569  22.371   9.143
  130POPC   C1A 6483  41.559  21.977   8.826
  130POPC   D2A 6484  41.490  22.225   8.450
  130POPC   C3A 6485  41.499  22.057   8.054
  130POPC   C4A 6486  41.609  22.214   7.639
  130POPC   C1B 6487  41.848  22.413   8.799
  130POPC   C2B 6488  42.008  22.315   8.370
  130POPC   C3B 6489  41.838  22.487   7.982
  130POPC   C4B 6490  41.910  22.638   7.509
  131POPC   NC3 6491   0.108  31.845   9.245
  131POPC   PO4 6492   0.703  32.225   9.433
  131POPC   GL1 6493   0.409  32.244   9.137
  131POPC   GL2 6494   0.180  32.512   9.235
  131POPC   C1A 6495   0.419  32.045   8.731
  131POPC   D2A 6496   0.539  32.327   8.476
  131POPC   C3A 6497   0.535  32.251   8.029
  131POPC   C4A 6498   0.571  31.867   7.801
  131POPC   C1B 6499   0.121  32.506   8.784
  131POPC   C2B 6500   0.045  32.237   8.412
  131POPC   C3B 6501   0.066  32.418   8.017
  131POPC   C4B 6502   0.293  32.659   7.731
  132POPC   NC3 6503  37.540  38.244   9.601
  132POPC   PO4 6504  37.773  38.926   9.682
  132POPC   GL1 6505  37.770  38.710   9.242
  132POPC   GL2 6506  37.961  38.443   9.332
  132POPC   C1A 6507  37.515  38.612   8.821
  132POPC   D2A 6508  37.606  38.630   8.345
  132POPC   C3A 6509  37.497  38.408   7.964
  132POPC   C4A 6510  37.564  38.604   7.542
  132POPC   C1B 6511  38.084  38.428   8.907
  132POPC   C2B 6512  38.041  38.705   8.586
  132POPC   C3B 6513  38.084  38.672   8.142
  132POPC   C4B 6514  37.995  38.448   7.783
  133POPC   NC3 6515  11.823  31.472   9.466
  133POPC   PO4 6516  12.372  31.781   9.464
  133POPC   GL1 6517  12.287  31.627   9.058
  133POPC   GL2 6518  12.081  31.316   9.046
  133POPC   C1A 6519  12.082  31.709   8.676
  133POPC   D2A 6520  12.238  31.714   8.301
  133POPC   C3A 6521  12.332  31.331   8.137
  133POPC   C4A 6522  12.135  31.482   7.798
  133POPC   C1B 6523  11.703  31.388   8.757
  133POPC   C2B 6524  11.762  31.387   8.280
  133POPC   C3B 6525  11.665  31.644   7.888
  133POPC   C4B 6526  11.741  31.544   7.411
  134POPC   NC3 6527  15.347   9.835   9.578
  134POPC   PO4 6528  14.974  10.343   9.440
  134POPC   GL1 6529  15.174  10.002   9.111
  134POPC   GL2 6530  15.211   9.594   9.157
  134POPC   C1A 6531  15.159   9.765   8.685
  134POPC   D2A 6532  15.346   9.777   8.259
  134POPC   C3A 6533  15.061   9.745   7.895
  134POPC   C4A 6534  14.875   9.751   7.487
  134POPC   C1B 6535  15.417   9.324   8.830
  134POPC   C2B 6536  15.565   9.322   8.382
  134POPC   C3B 6537  15.392   9.351   7.941
  134POPC   C4B 6538  15.280   9.436   7.482
  135POPC   NC3 6539  39.829  40.452   9.531
  135POPC   PO4 6540  40.210  40.999   9.490
  135POPC   GL1 6541  40.011  40.778   9.173
  135POPC   GL2 6542  39.712  40.989   9.183
  135POPC   C1A 6543  40.149  40.595   8.791
  135POPC   D2A 6544  40.390  40.908   8.563
  135POPC   C3A 6545  40.290  40.942   8.154
  135POPC   C4A 6546  40.296  40.912   7.696
  135POPC   C1B 6547  39.743  40.936   8.721
  135POPC   C2B 6548  39.579  41.119   8.317
  135POPC   C3B 6549  39.843  41.107   7.947
  135POPC   C4B 6550  39.908  40.669   7.938
  136POPC   NC3 6551  11.497  24.892   9.503
  136POPC   PO4 6552  11.018  25.285   9.427
  136POPC   GL1 6553  11.321  25.390   9.134
  136POPC   GL2 6554  11.692  25.286   9.216
  136POPC   C1A 6555  11.193  25.341   8.707
  136POPC   D2A 6556  11.117  25.219   8.292
  136POPC   C3A 6557  11.088  25.593   8.048
  136POPC   C4A 6558  11.103  25.356   7.709
  136POPC   C1B 6559  11.697  25.452   8.799
  136POPC   C2B 6560  11.545  25.566   8.389
  136POPC   C3B 6561  11.544  25.346   8.000
  136POPC   C4B 6562  11.571  25.543   7.620
  137POPC   NC3 6563  10.639  20.864   9.554
  137POPC   PO4 6564  10.949  20.231   9.474
  137POPC   GL1 6565  10.671  20.368   9.144
  137POPC   GL2 6566  10.562  20.703   9.089
  137POPC   C1A 6567  10.802  20.429   8.725
  137POPC   D2A 6568  10.958  20.593   8.342
  137POPC   C3A 6569  10.701  20.437   8.000
  137POPC   C4A 6570  10.651  20.671   7.643
  137POPC   C1B 6571  10.621  20.925   8.702
  137POPC   C2B 6572  10.438  20.743   8.327
  137POPC   C3B 6573  10.263  20.877   7.917
  137POPC   C4B 6574  10.058  20.841   7.495
  138POPC   NC3 6575  11.574  42.767   9.403
  138POPC   PO4 6576  11.276  42.291   9.653
  138POPC   GL1 6577  11.249  42.385   9.216
  138POPC   GL2 6578  11.589  42.290   9.197
  138POPC   C1A 6579  11.269  42.205   8.777
  138POPC   D2A 6580  11.056  42.199   8.384
  138POPC   C3A 6581  11.304  42.190   8.005
  138POPC   C4A 6582  11.080  42.287   7.603
  138POPC   C1B 6583  11.639  42.531   8.801
  138POPC   C2B 6584  11.429  42.581   8.397
  138POPC   C3B 6585  11.606  42.601   7.975
  138POPC   C4B 6586  11.551  42.427   7.597
  139POPC   NC3 6587  38.143  11.532   9.788
  139POPC   PO4 6588  38.660  11.839   9.425
  139POPC   GL1 6589  38.370  12.079   9.172
  139POPC   GL2 6590  38.533  12.393   9.203
  139POPC   C1A 6591  38.116  12.160   8.787
  139POPC   D2A 6592  38.344  12.144   8.394
  139POPC   C3A 6593  38.217  12.135   8.018
  139POPC   C4A 6594  38.351  12.167   7.629
  139POPC   C1B 6595  38.601  12.326   8.773
  139POPC   C2B 6596  38.579  12.601   8.394
  139POPC   C3B 6597  38.517  12.551   7.922
  139POPC   C4B 6598  38.647  12.524   7.444
  140POPC   NC3 6599  25.016  17.856   9.591
  140POPC   PO4 6600  24.663  17.272   9.507
  140POPC   GL1 6601  24.534  17.547   9.153
  140POPC   GL2 6602  24.678  17.875   9.199
  140POPC   C1A 6603  24.387  17.423   8.754
  140POPC   D2A 6604  24.634  17.370   8.393
  140POPC   C3A 6605  24.388  17.437   8.019
  140POPC   C4A 6606  24.529  17.194   7.696
  140POPC   C1B 6607  24.445  17.943   8.815
  140POPC   C2B 6608  24.374  17.816   8.367
  140POPC   C3B 6609  24.500  17.943   7.938
  140POPC   C4B 6610  24.169  17.912   7.622
  141POPC   NC3 6611  39.525  23.550   9.428
  141POPC   PO4 6612  38.803  23.818   9.400
  141POPC   GL1 6613  39.182  23.772   9.119
  141POPC   GL2 6614  39.479  23.965   9.145
  141POPC   C1A 6615  39.296  23.571   8.727
  141POPC   D2A 6616  39.032  23.411   8.409
  141POPC   C3A 6617  39.226  23.517   8.039
  141POPC   C4A 6618  39.075  23.614   7.661
  141POPC   C1B 6619  39.578  23.983   8.746
  141POPC   C2B 6620  39.606  23.742   8.331
  141POPC   C3B 6621  39.631  23.899   7.921
  141POPC   C4B 6622  39.433  23.962   7.514
  142POPC   NC3 6623   7.138  31.131   9.455
  142POPC   PO4 6624   7.676  31.496   9.587
  142POPC   GL1 6625   7.689  31.314   9.125
  142POPC   GL2 6626   7.344  31.361   9.005
  142POPC   C1A 6627   7.694  31.154   8.688
  142POPC   D2A 6628   7.372  31.283   8.372
  142POPC   C3A 6629   7.434  31.365   7.929
  142POPC   C4A 6630   7.424  31.680   7.585
  142POPC   C1B 6631   7.212  31.672   8.694
  142POPC   C2B 6632   7.377  31.839   8.331
  142POPC   C3B 6633   7.151  31.826   7.965
  142POPC   C4B 6634   6.961  31.904   7.527
  143POPC   NC3 6635   8.959  41.599   9.613
  143POPC   PO4 6636   9.314  41.577   9.068
  143POPC   GL1 6637   8.911  41.523   8.998
  143POPC   GL2 6638   8.793  41.229   9.131
  143POPC   C1A 6639   8.900  41.602   8.573
  143POPC   D2A 6640   9.118  41.903   8.357
  143POPC   C3A 6641   9.174  41.773   7.940
  143POPC   C4A 6642   8.836  41.682   7.618
  143POPC   C1B 6643   8.556  41.264   8.731
  143POPC   C2B 6644   8.525  41.442   8.286
  143POPC   C3B 6645   8.902  41.379   8.066
  143POPC   C4B 6646   9.069  41.216   7.681
  144POPC   NC3 6647  25.976  36.190   9.554
  144POPC   PO4 6648  25.766  35.636   9.205
  144POPC   GL1 6649  26.079  35.918   9.074
  144POPC   GL2 6650  26.148  36.276   9.091
  144POPC   C1A 6651  26.084  35.954   8.629
  144POPC   D2A 6652  25.844  35.977   8.240
  144POPC   C3A 6653  26.100  35.872   7.897
  144POPC   C4A 6654  26.517  35.908   7.722
  144POPC   C1B 6655  25.913  36.415   8.773
  144POPC   C2B 6656  26.041  36.427   8.374
  144POPC   C3B 6657  26.032  36.382   7.938
  144POPC   C4B 6658  25.946  36.619   7.566
  145POPC   NC3 6659   8.913  14.910   9.379
  145POPC   PO4 6660   9.489  15.271   9.600
  145POPC   GL1 6661   9.259  15.173   9.099
  145POPC   GL2 6662   8.973  15.324   8.979
  145POPC   C1A 6663   9.147  14.991   8.665
  145POPC   D2A 6664   8.973  15.359   8.386
  145POPC   C3A 6665   9.146  15.305   7.980
  145POPC   C4A 6666   9.236  14.844   7.927
  145POPC   C1B 6667   8.662  15.117   8.730
  145POPC   C2B 6668   8.547  14.983   8.342
  145POPC   C3B 6669   8.661  15.154   7.952
  145POPC   C4B 6670   8.607  15.198   7.523
  146POPC   NC3 6671  41.930   3.825   9.304
  146POPC   PO4 6672  41.446   4.300   9.542
  146POPC   GL1 6673  41.552   4.190   9.138
  146POPC   GL2 6674  41.807   4.370   9.010
  146POPC   C1A 6675  41.378   4.408   8.726
  146POPC   D2A 6676  41.602   4.386   8.422
  146POPC   C3A 6677  41.502   4.275   8.049
  146POPC   C4A 6678  41.757   4.404   7.677
  146POPC   C1B 6679  41.833   4.029   8.724
  146POPC   C2B 6680  41.790   3.876   8.356
  146POPC   C3B 6681  41.894   3.978   7.962
  146POPC   C4B 6682  41.521   3.883   7.737
  147POPC   NC3 6683  40.518  23.436   9.400
  147POPC   PO4 6684  40.999  23.925   9.579
  147POPC   GL1 6685  40.847  23.788   9.212
  147POPC   GL2 6686  40.518  23.959   9.200
  147POPC   C1A 6687  40.873  23.573   8.822
  147POPC   D2A 6688  40.723  23.378   8.484
  147POPC   C3A 6689  40.952  23.431   8.119
  147POPC   C4A 6690  40.712  23.166   7.825
  147POPC   C1B 6691  40.768  24.070   8.808
  147POPC   C2B 6692  41.008  23.928   8.455
  147POPC   C3B 6693  40.925  23.923   8.011
  147POPC   C4B 6694  41.142  24.211   7.790
  148POPC   NC3 6695  36.166  42.629   9.501
  148POPC   PO4 6696  36.274  42.005   9.602
  148POPC   GL1 6697  36.364  42.170   9.213
  148POPC   GL2 6698  36.054  42.303   9.123
  148POPC   C1A 6699  36.309  42.041   8.769
  148POPC   D2A 6700  36.203  42.342   8.440
  148POPC   C3A 6701  36.324  42.348   8.049
  148POPC   C4A 6702  36.544  42.170   7.720
  148POPC   C1B 6703  35.818  42.248   8.750
  148POPC   C2B 6704  35.703  42.351   8.340
  148POPC   C3B 6705  35.852  42.553   7.966
  148POPC   C4B 6706  36.066  42.339   7.612
  149POPC   NC3 6707   8.270  37.809   9.461
  149POPC   PO4 6708   7.933  38.417   9.457
  149POPC   GL1 6709   8.136  38.375   9.077
  149POPC   GL2 6710   8.439  38.257   9.189
  149POPC   C1A 6711   8.274  38.559   8.696
  149POPC   D2A 6712   8.636  38.600   8.417
  149POPC   C3A 6713   8.404  38.639   8.052
  149POPC   C4A 6714   8.272  38.476   7.638
  149POPC   C1B 6715   8.596  38.185   8.758
  149POPC   C2B 6716   8.469  37.955   8.404
  149POPC   C3B 6717   8.394  38.122   8.032
  149POPC   C4B 6718   8.728  38.285   7.848
  150POPC   NC3 6719  35.082   5.466   9.875
  150POPC   PO4 6720  35.134   4.960   9.627
  150POPC   GL1 6721  35.307   4.941   9.152
  150POPC   GL2 6722  35.656   4.840   9.108
  150POPC   C1A 6723  35.266   5.069   8.708
  150POPC   D2A 6724  35.109   5.268   8.321
  150POPC   C3A 6725  35.297   5.112   7.934
  150POPC   C4A 6726  35.490   5.148   7.524
  150POPC   C1B 6727  35.626   4.701   8.696
  150POPC   C2B 6728  35.602   4.818   8.264
  150POPC   C3B 6729  35.698   4.785   7.838
  150POPC   C4B 6730  35.481   4.598   7.488
  151POPC   NC3 6731   6.684  11.684   9.422
  151POPC   PO4 6732   6.296  11.153   9.536
  151POPC   GL1 6733   6.492  11.271   9.181
  151POPC   GL2 6734   6.676  11.001   9.161
  151POPC   C1A 6735   6.707  11.346   8.778
  151POPC   D2A 6736   6.690  11.602   8.409
  151POPC   C3A 6737   6.634  11.399   8.027
  151POPC   C4A 6738   6.284  11.164   7.827
  151POPC   C1B 6739   6.376  10.931   8.813
  151POPC   C2B 6740   6.537  11.052   8.397
  151POPC   C3B 6741   6.678  10.897   8.016
  151POPC   C4B 6742   6.548  10.739   7.614
  152POPC   NC3 6743  36.657  21.713   9.678
  152POPC   PO4 6744  36.998  22.206   9.642
  152POPC   GL1 6745  37.034  22.244   9.182
  152POPC   GL2 6746  36.902  21.918   9.171
  152POPC   C1A 6747  37.265  22.108   8.783
  152POPC   D2A 6748  37.220  22.250   8.339
  152POPC   C3A 6749  37.187  22.044   7.932
  152POPC   C4A 6750  37.300  22.284   7.547
  152POPC   C1B 6751  36.765  22.086   8.737
  152POPC   C2B 6752  36.814  21.933   8.289
  152POPC   C3B 6753  36.683  21.796   7.858
  152POPC   C4B 6754  36.804  21.741   7.419
  153POPC   NC3 6755   0.141   1.851   9.449
  153POPC   PO4 6756  44.703   2.301   9.751
  153POPC   GL1 6757  44.694   2.110   9.232
  153POPC   GL2 6758  44.772   1.780   9.141
  153POPC   C1A 6759  44.751   2.162   8.793
  153POPC   D2A 6760  44.500   2.267   8.471
  153POPC   C3A 6761  44.688   2.312   8.091
  153POPC   C4A 6762  44.598   2.149   7.702
  153POPC   C1B 6763  44.857   1.629   8.752
  153POPC   C2B 6764   0.107   1.652   8.352
  153POPC   C3B 6765  44.993   1.823   7.935
  153POPC   C4B 6766   0.109   2.234   7.766
  154POPC   NC3 6767  26.151  31.035   9.562
  154POPC   PO4 6768  25.756  30.584   9.515
  154POPC   GL1 6769  25.954  30.670   9.158
  154POPC   GL2 6770  26.286  30.807   9.149
  154POPC   C1A 6771  25.758  30.797   8.798
  154POPC   D2A 6772  25.580  30.739   8.425
  154POPC   C3A 6773  25.800  30.963   8.137
  154POPC   C4A 6774  25.814  30.680   7.825
  154POPC   C1B 6775  26.267  30.929   8.756
  154POPC   C2B 6776  26.172  30.734   8.396
  154POPC   C3B 6777  26.305  30.650   8.016
  154POPC   C4B 6778  26.274  30.986   7.735
  155POPC   NC3 6779  42.643  39.143   9.444
  155POPC   PO4 6780  41.995  39.040   9.513
  155POPC   GL1 6781  42.161  39.356   9.236
  155POPC   GL2 6782  42.282  39.069   9.076
  155POPC   C1A 6783  42.204  39.584   8.825
  155POPC   D2A 6784  42.523  39.645   8.495
  155POPC   C3A 6785  42.466  39.323   8.172
  155POPC   C4A 6786  42.190  39.253   7.811
  155POPC   C1B 6787  42.367  39.110   8.656
  155POPC   C2B 6788  42.538  38.832   8.354
  155POPC   C3B 6789  42.685  38.870   7.959
  155POPC   C4B 6790  42.565  38.990   7.566
  156POPC   NC3 6791  10.138  33.347   9.503
  156POPC   PO4 6792   9.838  32.682   9.565
  156POPC   GL1 6793   9.934  32.933   9.221
  156POPC   GL2 6794  10.208  32.738   9.135
  156POPC   C1A 6795   9.829  33.142   8.806
  156POPC   D2A 6796   9.785  33.337   8.371
  156POPC   C3A 6797   9.672  33.204   7.960
  156POPC   C4A 6798  10.015  33.254   7.690
  156POPC   C1B 6799   9.985  32.643   8.791
  156POPC   C2B 6800   9.725  32.769   8.472
  156POPC   C3B 6801   9.808  32.723   8.071
  156POPC   C4B 6802   9.794  32.800   7.642
  157POPC   NC3 6803  28.514  31.369   9.434
  157POPC   PO4 6804  27.868  31.126   9.573
  157POPC   GL1 6805  28.069  31.275   9.195
  157POPC   GL2 6806  28.178  31.617   9.111
  157POPC   C1A 6807  28.044  31.201   8.781
  157POPC   D2A 6808  28.271  31.230   8.417
  157POPC   C3A 6809  28.119  31.414   8.054
  157POPC   C4A 6810  28.317  31.541   7.693
  157POPC   C1B 6811  28.508  31.451   8.804
  157POPC   C2B 6812  28.778  31.652   8.497
  157POPC   C3B 6813  28.626  31.672   8.081
  157POPC   C4B 6814  28.826  31.559   7.672
  158POPC   NC3 6815  43.305  40.080   9.554
  158POPC   PO4 6816  42.765  39.594   9.365
  158POPC   GL1 6817  43.053  39.893   9.134
  158POPC   GL2 6818  43.299  40.176   9.072
  158POPC   C1A 6819  43.040  39.916   8.711
  158POPC   D2A 6820  43.315  39.920   8.405
  158POPC   C3A 6821  43.170  39.692   8.083
  158POPC   C4A 6822  42.998  39.852   7.753
  158POPC   C1B 6823  43.622  40.174   8.755
  158POPC   C2B 6824  43.652  40.315   8.323
  158POPC   C3B 6825  43.482  40.113   7.952
  158POPC   C4B 6826  43.572  39.718   7.755
  159POPC   NC3 6827  18.848   6.056   9.406
  159POPC   PO4 6828  19.438   5.812   9.608
  159POPC   GL1 6829  19.273   5.904   9.162
  159POPC   GL2 6830  19.025   5.697   9.048
  159POPC   C1A 6831  19.147   6.132   8.764
  159POPC   D2A 6832  18.898   6.070   8.395
  159POPC   C3A 6833  19.041   6.128   7.948
  159POPC   C4A 6834  19.068   5.874   7.557
  159POPC   C1B 6835  19.213   5.639   8.656
  159POPC   C2B 6836  19.250   5.739   8.233
  159POPC   C3B 6837  19.282   5.541   7.863
  159POPC   C4B 6838  19.050   5.357   7.543
  160POPC   NC3 6839  25.901   0.283   9.546
  160POPC   PO4 6840  26.445   0.059   9.403
  160POPC   GL1 6841  26.199   0.189   9.089
  160POPC   GL2 6842  26.184   0.517   9.174
  160POPC   C1A 6843  26.277   0.180   8.642
  160POPC   D2A 6844  25.974   0.276   8.333
  160POPC   C3A 6845  26.047   0.112   7.945
  160POPC   C4A 6846  26.402   0.248   7.758
  160POPC   C1B 6847  25.994   0.585   8.765
  160POPC   C2B 6848  25.881   0.766   8.324
  160POPC   C3B 6849  25.834   0.579   7.891
  160POPC   C4B 6850  25.848   0.746   7.455
  161POPC   NC3 6851  32.686   2.609   9.466
  161POPC   PO4 6852  33.373   2.492   9.494
  161POPC   GL1 6853  33.104   2.447   9.173
  161POPC   GL2 6854  33.023   2.791   9.097
  161POPC   C1A 6855  33.040   2.401   8.746
  161POPC   D2A 6856  33.152   2.713   8.456
  161POPC   C3A 6857  33.187   2.552   8.057
  161POPC   C4A 6858  33.224   2.702   7.697
  161POPC   C1B 6859  32.657   2.730   8.776
  161POPC   C2B 6860  32.673   2.884   8.343
  161POPC   C3B 6861  33.012   3.054   8.059
  161POPC   C4B 6862  32.944   3.136   7.630
  162POPC   NC3 6863   4.479  15.663   9.477
  162POPC   PO4 6864   3.825  16.008   9.479
  162POPC   GL1 6865   4.056  16.241   9.154
  162POPC   GL2 6866   4.321  16.046   9.147
  162POPC   C1A 6867   4.077  16.118   8.673
  162POPC   D2A 6868   3.965  16.341   8.305
  162POPC   C3A 6869   4.013  16.173   7.901
  162POPC   C4A 6870   4.399  16.159   7.655
  162POPC   C1B 6871   4.522  15.865   8.825
  162POPC   C2B 6872   4.388  15.714   8.472
  162POPC   C3B 6873   4.431  15.906   8.105
  162POPC   C4B 6874   4.196  15.711   7.827
  163POPC   NC3 6875  11.789  27.255   9.357
  163POPC   PO4 6876  11.576  26.674   9.706
  163POPC   GL1 6877  12.033  26.739   9.343
  163POPC   GL2 6878  12.223  27.067   9.224
  163POPC   C1A 6879  12.108  26.726   8.844
  163POPC   D2A 6880  12.026  26.963   8.448
  163POPC   C3A 6881  11.932  26.722   8.068
  163POPC   C4A 6882  11.735  26.851   7.700
  163POPC   C1B 6883  12.388  27.152   8.815
  163POPC   C2B 6884  12.557  26.945   8.484
  163POPC   C3B 6885  12.398  26.944   8.071
  163POPC   C4B 6886  12.285  26.776   7.676
  164POPC   NC3 6887  12.006  26.570   9.818
  164POPC   PO4 6888  11.903  25.977   9.507
  164POPC   GL1 6889  12.030  25.939   9.115
  164POPC   GL2 6890  12.345  25.706   9.122
  164POPC   C1A 6891  12.038  26.222   8.762
  164POPC   D2A 6892  12.213  26.335   8.362
  164POPC   C3A 6893  11.974  26.199   8.036
  164POPC   C4A 6894  11.859  26.356   7.670
  164POPC   C1B 6895  12.179  25.626   8.761
  164POPC   C2B 6896  12.028  25.831   8.424
  164POPC   C3B 6897  11.944  25.675   8.049
  164POPC   C4B 6898  11.953  25.864   7.643
  165POPC   NC3 6899  34.668  28.316   9.459
  165POPC   PO4 6900  34.100  27.926   9.316
  165POPC   GL1 6901  34.375  28.175   9.055
  165POPC   GL2 6902  34.424  28.529   9.075
  165POPC   C1A 6903  34.753  28.251   8.784
  165POPC   D2A 6904  34.882  28.064   8.422
  165POPC   C3A 6905  34.971  28.264   8.060
  165POPC   C4A 6906  34.690  28.425   7.820
  165POPC   C1B 6907  34.516  28.678   8.634
  165POPC   C2B 6908  34.472  28.390   8.286
  165POPC   C3B 6909  34.200  28.319   7.906
  165POPC   C4B 6910  34.338  28.507   7.485
  166POPC   NC3 6911  24.938   6.118   9.335
  166POPC   PO4 6912  25.254   5.635   9.704
  166POPC   GL1 6913  25.297   5.732   9.235
  166POPC   GL2 6914  24.997   5.640   9.144
  166POPC   C1A 6915  25.353   5.832   8.758
  166POPC   D2A 6916  25.424   6.043   8.321
  166POPC   C3A 6917  25.325   5.905   7.878
  166POPC   C4A 6918  25.384   5.484   7.674
  166POPC   C1B 6919  24.906   5.586   8.701
  166POPC   C2B 6920  25.052   5.687   8.292
  166POPC   C3B 6921  24.882   5.652   7.874
  166POPC   C4B 6922  24.970   5.747   7.432
  167POPC   NC3 6923  29.591  15.578   9.788
  167POPC   PO4 6924  29.959  15.083   9.535
  167POPC   GL1 6925  29.975  15.242   9.166
  167POPC   GL2 6926  29.668  15.063   9.082
  167POPC   C1A 6927  30.013  15.271   8.748
  167POPC   D2A 6928  30.078  15.382   8.341
  167POPC   C3A 6929  30.131  15.062   8.019
  167POPC   C4A 6930  29.863  15.312   7.760
  167POPC   C1B 6931  29.560  15.033   8.642
  167POPC   C2B 6932  29.645  15.103   8.191
  167POPC   C3B 6933  29.431  15.049   7.791
  167POPC   C4B 6934  29.558  15.108   7.384
  168POPC   NC3 6935  27.468   8.832   9.375
  168POPC   PO4 6936  27.633   9.412   9.717
  168POPC   GL1 6937  27.719   9.213   9.225
  168POPC   GL2 6938  27.778   8.916   8.984
  168POPC   C1A 6939  27.394   9.119   8.783
  168POPC   D2A 6940  27.618   8.955   8.460
  168POPC   C3A 6941  27.547   9.051   8.052
  168POPC   C4A 6942  27.359   8.846   7.715
  168POPC   C1B 6943  27.953   8.646   8.706
  168POPC   C2B 6944  27.880   8.586   8.241
  168POPC   C3B 6945  27.940   8.755   7.829
  168POPC   C4B 6946  27.975   8.611   7.408
  169POPC   NC3 6947   6.655  37.241   9.376
  169POPC   PO4 6948   6.267  36.636   9.445
  169POPC   GL1 6949   6.522  36.831   9.095
  169POPC   GL2 6950   6.882  36.781   9.043
  169POPC   C1A 6951   6.572  36.988   8.679
  169POPC   D2A 6952   6.480  36.782   8.293
  169POPC   C3A 6953   6.397  37.079   7.983
  169POPC   C4A 6954   6.793  37.153   7.785
  169POPC   C1B 6955   7.124  36.547   8.784
  169POPC   C2B 6956   7.013  36.561   8.374
  169POPC   C3B 6957   7.087  36.780   7.999
  169POPC   C4B 6958   7.066  36.580   7.607
  170POPC   NC3 6959  33.018  24.909   9.384
  170POPC   PO4 6960  32.846  25.558   9.575
  170POPC   GL1 6961  32.868  25.395   9.183
  170POPC   GL2 6962  33.213  25.454   9.062
  170POPC   C1A 6963  32.818  25.378   8.764
  170POPC   D2A 6964  33.062  25.480   8.456
  170POPC   C3A 6965  32.827  25.405   8.118
  170POPC   C4A 6966  32.672  25.351   7.741
  170POPC   C1B 6967  33.374  25.172   8.722
  170POPC   C2B 6968  33.336  25.059   8.235
  170POPC   C3B 6969  33.378  25.079   7.728
  170POPC   C4B 6970  33.511  25.207   7.259
  171POPC   NC3 6971   0.890   0.561   9.319
  171POPC   PO4 6972   1.065  44.974   9.682
  171POPC   GL1 6973   1.271   0.210   9.223
  171POPC   GL2 6974   1.430   0.550   9.307
  171POPC   C1A 6975   1.071   0.297   8.732
  171POPC   D2A 6976   1.090   0.578   8.360
  171POPC   C3A 6977   0.895   0.452   7.982
  171POPC   C4A 6978   0.652   0.749   7.763
  171POPC   C1B 6979   1.502   0.538   8.857
  171POPC   C2B 6980   1.557   0.364   8.431
  171POPC   C3B 6981   1.536   0.555   8.031
  171POPC   C4B 6982   1.421   0.402   7.617
  172POPC   NC3 6983  22.684  18.562   9.435
  172POPC   PO4 6984  23.258  18.251   9.456
  172POPC   GL1 6985  23.231  18.261   9.061
  172POPC   GL2 6986  23.393  18.540   8.964
  172POPC   C1A 6987  23.164  18.093   8.688
  172POPC   D2A 6988  23.073  18.342   8.356
  172POPC   C3A 6989  22.987  18.245   7.943
  172POPC   C4A 6990  22.928  18.279   7.490
  172POPC   C1B 6991  22.985  18.662   8.815
  172POPC   C2B 6992  22.791  18.849   8.474
  172POPC   C3B 6993  22.887  18.725   8.090
  172POPC   C4B 6994  22.816  18.729   7.690
  173POPC   NC3 6995  42.097  30.561   9.604
  173POPC   PO4 6996  42.685  30.734   9.278
  173POPC   GL1 6997  42.322  30.521   9.149
  173POPC   GL2 6998  42.070  30.776   9.105
  173POPC   C1A 6999  42.178  30.382   8.758
  173POPC   D2A 7000  42.484  30.486   8.402
  173POPC   C3A 7001  42.342  30.583   7.965
  173POPC   C4A 7002  42.549  30.731   7.604
  173POPC   C1B 7003  42.303  30.862   8.734
  173POPC   C2B 7004  42.206  30.928   8.341
  173POPC   C3B 7005  42.256  31.086   7.963
  173POPC   C4B 7006  42.092  30.955   7.560
  174POPC   NC3 7007  24.059  31.311   9.446
  174POPC   PO4 7008  23.619  31.776   9.721
  174POPC   GL1 7009  23.578  31.582   9.283
  174POPC   GL2 7010  23.583  31.217   9.228
  174POPC   C1A 7011  23.755  31.546   8.846
  174POPC   D2A 7012  23.898  31.389   8.432
  174POPC   C3A 7013  23.735  31.530   8.010
  174POPC   C4A 7014  23.804  31.378   7.544
  174POPC   C1B 7015  23.422  31.144   8.793
  174POPC   C2B 7016  23.469  31.111   8.350
  174POPC   C3B 7017  23.594  31.044   7.928
  174POPC   C4B 7018  23.718  30.821   7.543
  175POPC   NC3 7019  27.918   4.203   9.760
  175POPC   PO4 7020  27.474   4.666   9.760
  175POPC   GL1 7021  27.396   4.364   9.317
  175POPC   GL2 7022  27.465   3.989   9.182
  175POPC   C1A 7023  27.372   4.339   8.837
  175POPC   D2A 7024  27.236   4.104   8.488
  175POPC   C3A 7025  27.504   4.154   8.153
  175POPC   C4A 7026  27.610   4.531   7.910
  175POPC   C1B 7027  27.692   3.911   8.742
  175POPC   C2B 7028  27.957   3.940   8.342
  175POPC   C3B 7029  27.927   4.058   7.870
  175POPC   C4B 7030  27.737   3.804   7.523
  176POPC   NC3 7031   0.177  22.562   9.376
  176POPC   PO4 7032   0.714  22.957   9.367
  176POPC   GL1 7033   0.391  22.898   9.070
  176POPC   GL2 7034   0.316  23.222   9.060
  176POPC   C1A 7035   0.212  22.837   8.661
  176POPC   D2A 7036   0.261  22.989   8.253
  176POPC   C3A 7037  44.983  22.799   7.966
  176POPC   C4A 7038   0.148  22.494   7.692
  176POPC   C1B 7039   0.632  23.154   8.695
  176POPC   C2B 7040   0.786  23.170   8.279
  176POPC   C3B 7041   0.647  22.950   7.931
  176POPC   C4B 7042   0.286  23.097   7.685
  177POPC   NC3 7043  38.743  31.525   9.756
  177POPC   PO4 7044  38.163  31.696   9.342
  177POPC   GL1 7045  38.290  31.480   8.991
  177POPC   GL2 7046  38.602  31.310   9.100
  177POPC   C1A 7047  38.426  31.549   8.577
  177POPC   D2A 7048  38.418  31.373   8.161
  177POPC   C3A 7049  38.121  31.484   7.832
  177POPC   C4A 7050  38.084  31.608   7.373
  177POPC   C1B 7051  38.921  31.364   8.793
  177POPC   C2B 7052  39.057  31.417   8.351
  177POPC   C3B 7053  38.886  31.356   7.925
  177POPC   C4B 7054  38.577  31.595   7.695
  178POPC   NC3 7055   4.460  35.736   9.670
  178POPC   PO4 7056   4.492  36.396   9.603
  178POPC   GL1 7057   4.464  36.281   9.180
  178POPC   GL2 7058   4.348  35.953   9.175
  178POPC   C1A 7059   4.242  36.266   8.780
  178POPC   D2A 7060   3.937  36.409   8.501
  178POPC   C3A 7061   4.135  36.394   8.116
  178POPC   C4A 7062   4.384  36.183   7.795
  178POPC   C1B 7063   4.187  35.755   8.788
  178POPC   C2B 7064   4.098  35.909   8.364
  178POPC   C3B 7065   4.125  35.766   7.962
  178POPC   C4B 7066   4.063  35.860   7.549
  179POPC   NC3 7067  37.893  37.357  10.157
  179POPC   PO4 7068  37.574  37.785   9.670
  179POPC   GL1 7069  37.679  37.742   9.219
  179POPC   GL2 7070  37.749  38.006   9.209
  179POPC   C1A 7071  37.726  37.647   8.729
  179POPC   D2A 7072  37.579  37.637   8.248
  179POPC   C3A 7073  37.824  37.404   7.881
  179POPC   C4A 7074  37.759  37.318   7.413
  179POPC   C1B 7075  37.676  38.144   8.861
  179POPC   C2B 7076  37.643  38.135   8.468
  179POPC   C3B 7077  37.893  38.140   8.158
  179POPC   C4B 7078  37.720  37.999   7.760
  180POPC   NC3 7079  42.399  36.089   9.615
  180POPC   PO4 7080  42.032  36.629   9.412
  180POPC   GL1 7081  42.196  36.330   9.128
  180POPC   GL2 7082  42.476  36.077   9.122
  180POPC   C1A 7083  42.315  36.321   8.697
  180POPC   D2A 7084  42.236  36.037   8.371
  180POPC   C3A 7085  42.128  36.158   7.954
  180POPC   C4A 7086  41.912  35.833   7.739
  180POPC   C1B 7087  42.492  35.760   8.781
  180POPC   C2B 7088  42.642  35.740   8.358
  180POPC   C3B 7089  42.438  35.753   7.951
  180POPC   C4B 7090  42.584  35.643   7.517
  181POPC   NC3 7091   8.846  26.568   9.366
  181POPC   PO4 7092   9.199  27.125   9.418
  181POPC   GL1 7093   9.001  26.964   9.065
  181POPC   GL2 7094   9.249  26.699   9.070
  181POPC   C1A 7095   8.776  27.005   8.667
  181POPC   D2A 7096   8.610  27.116   8.223
  181POPC   C3A 7097   8.905  27.002   7.869
  181POPC   C4A 7098   8.828  26.893   7.420
  181POPC   C1B 7099   9.062  26.537   8.712
  181POPC   C2B 7100   8.954  26.668   8.320
  181POPC   C3B 7101   8.870  26.501   7.956
  181POPC   C4B 7102   9.177  26.599   7.665
  182POPC   NC3 7103  14.418   8.296   9.538
  182POPC   PO4 7104  14.795   7.779   9.411
  182POPC   GL1 7105  14.889   8.104   9.052
  182POPC   GL2 7106  14.670   8.397   9.076
  182POPC   C1A 7107  14.879   8.156   8.565
  182POPC   D2A 7108  14.618   8.018   8.212
  182POPC   C3A 7109  14.614   8.145   7.783
  182POPC   C4A 7110  14.429   7.966   7.364
  182POPC   C1B 7111  14.653   8.613   8.651
  182POPC   C2B 7112  14.675   8.529   8.197
  182POPC   C3B 7113  14.385   8.636   7.859
  182POPC   C4B 7114  14.192   8.871   7.501
  183POPC   NC3 7115  39.701  22.044   9.577
  183POPC   PO4 7116  39.214  22.482   9.498
  183POPC   GL1 7117  39.352  22.271   9.120
  183POPC   GL2 7118  39.391  21.903   9.128
  183POPC   C1A 7119  39.122  22.159   8.709
  183POPC   D2A 7120  39.164  22.042   8.274
  183POPC   C3A 7121  39.050  22.300   7.936
  183POPC   C4A 7122  38.886  21.979   7.674
  183POPC   C1B 7123  39.608  22.036   8.737
  183POPC   C2B 7124  39.570  22.299   8.402
  183POPC   C3B 7125  39.586  22.165   7.973
  183POPC   C4B 7126  39.510  21.878   7.650
  184POPC   NC3 7127   7.785  41.851   9.508
  184POPC   PO4 7128   8.496  41.704   9.546
  184POPC   GL1 7129   8.394  41.555   9.125
  184POPC   GL2 7130   8.114  41.298   9.095
  184POPC   C1A 7131   8.279  41.683   8.706
  184POPC   D2A 7132   8.036  41.863   8.401
  184POPC   C3A 7133   8.265  41.865   8.045
  184POPC   C4A 7134   8.380  41.558   7.774
  184POPC   C1B 7135   7.825  41.539   8.842
  184POPC   C2B 7136   7.695  41.486   8.448
  184POPC   C3B 7137   7.835  41.566   8.033
  184POPC   C4B 7138   7.748  41.446   7.614
  185POPC   NC3 7139   6.823   2.541   9.496
  185POPC   PO4 7140   6.254   2.864   9.648
  185POPC   GL1 7141   6.339   3.014   9.218
  185POPC   GL2 7142   6.524   2.706   9.094
  185POPC   C1A 7143   6.624   3.149   8.865
  185POPC   D2A 7144   6.726   2.856   8.555
  185POPC   C3A 7145   6.830   2.859   8.146
  185POPC   C4A 7146   6.636   2.751   7.762
  185POPC   C1B 7147   6.680   2.382   8.793
  185POPC   C2B 7148   6.934   2.366   8.397
  185POPC   C3B 7149   6.966   2.411   7.946
  185POPC   C4B 7150   6.816   2.273   7.552
  186POPC   NC3 7151  20.372  26.677   9.584
  186POPC   PO4 7152  20.772  27.146   9.357
  186POPC   GL1 7153  20.476  26.861   9.085
  186POPC   GL2 7154  20.386  26.493   9.125
  186POPC   C1A 7155  20.458  26.777   8.609
  186POPC   D2A 7156  20.769  26.908   8.271
  186POPC   C3A 7157  20.847  26.676   7.885
  186POPC   C4A 7158  20.917  26.652   7.443
  186POPC   C1B 7159  20.094  26.447   8.806
  186POPC   C2B 7160  20.201  26.391   8.359
  186POPC   C3B 7161  20.350  26.693   8.057
  186POPC   C4B 7162  20.419  26.580   7.622
  187POPC   NC3 7163  34.984  11.850   9.228
  187POPC   PO4 7164  34.777  12.348   9.561
  187POPC   GL1 7165  34.477  12.148   9.244
  187POPC   GL2 7166  34.492  11.810   9.093
  187POPC   C1A 7167  34.446  12.238   8.801
  187POPC   D2A 7168  34.696  12.034   8.538
  187POPC   C3A 7169  34.879  12.080   8.157
  187POPC   C4A 7170  34.675  12.071   7.772
  187POPC   C1B 7171  34.659  11.570   8.735
  187POPC   C2B 7172  34.859  11.576   8.349
  187POPC   C3B 7173  34.689  11.599   7.971
  187POPC   C4B 7174  34.332  11.697   7.719
  188POPC   NC3 7175   3.622  31.816   9.321
  188POPC   PO4 7176   3.731  31.125   9.487
  188POPC   GL1 7177   3.698  31.348   9.131
  188POPC   GL2 7178   3.371  31.309   9.066
  188POPC   C1A 7179   3.711  31.555   8.728
  188POPC   D2A 7180   3.673  31.839   8.386
  188POPC   C3A 7181   3.611  31.519   8.075
  188POPC   C4A 7182   3.751  31.314   7.705
  188POPC   C1B 7183   3.182  31.594   8.750
  188POPC   C2B 7184   3.155  31.829   8.372
  188POPC   C3B 7185   3.360  31.950   7.983
  188POPC   C4B 7186   3.316  31.634   7.681
  189POPC   NC3 7187  29.783  44.598   9.606
  189POPC   PO4 7188  30.164   0.084   9.412
  189POPC   GL1 7189  29.928  44.790   9.136
  189POPC   GL2 7190  30.004  44.404   9.183
  189POPC   C1A 7191  29.670  44.843   8.758
  189POPC   D2A 7192  29.548  44.854   8.317
  189POPC   C3A 7193  29.956  44.889   8.142
  189POPC   C4A 7194  30.045  44.848   7.707
  189POPC   C1B 7195  29.632  44.378   8.917
  189POPC   C2B 7196  29.670  44.373   8.444
  189POPC   C3B 7197  29.831  44.425   7.997
  189POPC   C4B 7198  29.680  44.543   7.572
  190POPC   NC3 7199   4.968  24.727   9.424
  190POPC   PO4 7200   5.346  24.195   9.482
  190POPC   GL1 7201   5.149  24.315   9.120
  190POPC   GL2 7202   5.228  24.660   8.986
  190POPC   C1A 7203   4.955  24.283   8.736
  190POPC   D2A 7204   4.943  24.592   8.434
  190POPC   C3A 7205   5.274  24.509   8.155
  190POPC   C4A 7206   5.185  24.221   7.823
  190POPC   C1B 7207   5.231  24.979   8.645
  190POPC   C2B 7208   5.050  25.049   8.234
  190POPC   C3B 7209   4.923  24.765   7.889
  190POPC   C4B 7210   4.936  24.653   7.422
  191POPC   NC3 7211   6.421  18.737   9.411
  191POPC   PO4 7212   7.062  19.108   9.516
  191POPC   GL1 7213   6.746  19.084   9.168
  191POPC   GL2 7214   6.808  18.770   9.044
  191POPC   C1A 7215   6.468  19.165   8.788
  191POPC   D2A 7216   6.598  19.106   8.368
  191POPC   C3A 7217   6.449  19.155   8.003
  191POPC   C4A 7218   6.488  19.017   7.611
  191POPC   C1B 7219   6.953  18.964   8.714
  191POPC   C2B 7220   7.111  18.932   8.352
  191POPC   C3B 7221   6.908  18.871   7.975
  191POPC   C4B 7222   7.107  18.921   7.600
  192POPC   NC3 7223  19.352  43.036   9.455
  192POPC   PO4 7224  18.747  43.033   9.822
  192POPC   GL1 7225  18.791  43.074   9.250
  192POPC   GL2 7226  19.058  43.255   9.111
  192POPC   C1A 7227  18.703  43.001   8.801
  192POPC   D2A 7228  18.956  42.821   8.521
  192POPC   C3A 7229  18.851  42.960   8.136
  192POPC   C4A 7230  19.043  42.827   7.743
  192POPC   C1B 7231  19.114  43.489   8.756
  192POPC   C2B 7232  19.132  43.343   8.367
  192POPC   C3B 7233  19.263  43.229   7.988
  192POPC   C4B 7234  19.000  43.367   7.668
  193POPC   NC3 7235   8.526  11.516   9.657
  193POPC   PO4 7236   9.175  11.591   9.554
  193POPC   GL1 7237   9.119  11.429   9.158
  193POPC   GL2 7238   8.855  11.202   9.159
  193POPC   C1A 7239   9.216  11.321   8.742
  193POPC   D2A 7240   8.991  11.410   8.368
  193POPC   C3A 7241   9.062  11.161   7.992
  193POPC   C4A 7242   9.108  10.965   7.584
  193POPC   C1B 7243   8.816  11.001   8.727
  193POPC   C2B 7244   8.673  10.988   8.282
  193POPC   C3B 7245   8.825  10.689   7.942
  193POPC   C4B 7246   8.735  10.638   7.484
  194POPC   NC3 7247  10.951   2.798   9.347
  194POPC   PO4 7248  11.490   3.191   9.394
  194POPC   GL1 7249  11.465   2.850   9.111
  194POPC   GL2 7250  11.454   2.490   9.252
  194POPC   C1A 7251  11.190   2.784   8.744
  194POPC   D2A 7252  10.994   3.004   8.400
  194POPC   C3A 7253  11.092   2.773   8.020
  194POPC   C4A 7254  11.351   2.889   7.673
  194POPC   C1B 7255  11.591   2.454   8.807
  194POPC   C2B 7256  11.458   2.563   8.354
  194POPC   C3B 7257  11.550   2.480   7.905
  194POPC   C4B 7258  11.666   2.304   7.499
  195POPC   NC3 7259  42.900  23.239   9.544
  195POPC   PO4 7260  43.311  22.777   9.739
  195POPC   GL1 7261  43.223  22.990   9.229
  195POPC   GL2 7262  42.904  22.997   9.086
  195POPC   C1A 7263  43.284  22.862   8.740
  195POPC   D2A 7264  43.370  22.592   8.342
  195POPC   C3A 7265  43.206  22.786   7.934
  195POPC   C4A 7266  43.031  23.190   7.765
  195POPC   C1B 7267  42.719  22.961   8.686
  195POPC   C2B 7268  42.837  22.914   8.267
  195POPC   C3B 7269  42.610  22.982   7.896
  195POPC   C4B 7270  42.708  22.938   7.432
  196POPC   NC3 7271  41.646  19.154   9.453
  196POPC   PO4 7272  41.113  18.707   9.377
  196POPC   GL1 7273  41.427  18.921   9.065
  196POPC   GL2 7274  41.848  18.969   9.031
  196POPC   C1A 7275  41.484  19.189   8.715
  196POPC   D2A 7276  41.230  19.290   8.359
  196POPC   C3A 7277  41.409  19.211   7.990
  196POPC   C4A 7278  41.807  19.237   7.864
  196POPC   C1B 7279  41.711  18.737   8.669
  196POPC   C2B 7280  41.508  18.832   8.311
  196POPC   C3B 7281  41.742  18.730   7.957
  196POPC   C4B 7282  41.798  18.575   7.563
  197POPC   NC3 7283  19.209  10.788   9.538
  197POPC   PO4 7284  18.939  10.183   9.537
  197POPC   GL1 7285  19.022  10.442   9.162
  197POPC   GL2 7286  18.737  10.562   8.994
  197POPC   C1A 7287  19.087  10.296   8.731
  197POPC   D2A 7288  18.918  10.208   8.313
  197POPC   C3A 7289  18.995  10.371   7.884
  197POPC   C4A 7290  18.669  10.329   7.557
  197POPC   C1B 7291  18.735  10.637   8.554
  197POPC   C2B 7292  19.051  10.730   8.241
  197POPC   C3B 7293  19.386  10.764   7.914
  197POPC   C4B 7294  19.264  10.836   7.484
  198POPC   NC3 7295   6.800   0.026   9.455
  198POPC   PO4 7296   6.417  44.517   9.659
  198POPC   GL1 7297   6.471  44.710   9.192
  198POPC   GL2 7298   6.847  44.691   9.105
  198POPC   C1A 7299   6.558  44.709   8.711
  198POPC   D2A 7300   6.909  44.770   8.415
  198POPC   C3A 7301   6.658  44.802   8.083
  198POPC   C4A 7302   6.374  44.672   7.792
  198POPC   C1B 7303   6.993  44.466   8.819
  198POPC   C2B 7304   6.770  44.272   8.543
  198POPC   C3B 7305   6.769  44.302   8.121
  198POPC   C4B 7306   7.039  44.528   7.823
  199POPC   NC3 7307  22.851  35.885   9.402
  199POPC   PO4 7308  23.215  36.444   9.498
  199POPC   GL1 7309  22.995  36.302   9.118
  199POPC   GL2 7310  22.662  36.374   9.135
  199POPC   C1A 7311  22.913  36.118   8.692
  199POPC   D2A 7312  23.003  35.853   8.328
  199POPC   C3A 7313  23.072  36.079   7.936
  199POPC   C4A 7314  22.799  36.132   7.549
  199POPC   C1B 7315  22.612  36.524   8.747
  199POPC   C2B 7316  22.840  36.491   8.348
  199POPC   C3B 7317  22.678  36.405   7.966
  199POPC   C4B 7318  22.481  36.564   7.634
  200POPC   NC3 7319  24.494  22.320   9.534
  200POPC   PO4 7320  24.851  21.788   9.456
  200POPC   GL1 7321  24.607  22.019   9.112
  200POPC   GL2 7322  24.272  22.202   9.068
  200POPC   C1A 7323  24.466  21.923   8.691
  200POPC   D2A 7324  24.288  21.888   8.290
  200POPC   C3A 7325  24.472  21.988   7.880
  200POPC   C4A 7326  24.610  22.103   7.453
  200POPC   C1B 7327  24.235  22.368   8.614
  200POPC   C2B 7328  24.376  22.408   8.163
  200POPC   C3B 7329  24.486  22.560   7.733
  200POPC   C4B 7330  24.412  22.548   7.249
  201POPC   NC3 7331  21.077  35.624   9.441
  201POPC   PO4 7332  21.422  36.231   9.507
  201POPC   GL1 7333  21.429  35.925   9.217
  201POPC   GL2 7334  21.144  35.956   9.025
  201POPC   C1A 7335  21.539  35.913   8.764
  201POPC   D2A 7336  21.259  36.065   8.476
  201POPC   C3A 7337  21.415  36.311   8.149
  201POPC   C4A 7338  21.389  36.242   7.733
  201POPC   C1B 7339  21.087  35.605   8.760
  201POPC   C2B 7340  21.284  35.548   8.413
  201POPC   C3B 7341  21.330  35.781   8.058
  201POPC   C4B 7342  21.006  35.625   7.822
  202POPC   NC3 7343  33.185  28.011   9.405
  202POPC   PO4 7344  32.737  27.522   9.456
  202POPC   GL1 7345  32.804  27.705   9.086
  202POPC   GL2 7346  33.148  27.611   9.034
  202POPC   C1A 7347  32.832  27.564   8.664
  202POPC   D2A 7348  33.028  27.397   8.310
  202POPC   C3A 7349  32.753  27.330   8.005
  202POPC   C4A 7350  32.776  27.716   7.868
  202POPC   C1B 7351  33.197  27.905   8.739
  202POPC   C2B 7352  33.248  28.063   8.340
  202POPC   C3B 7353  33.189  28.037   7.916
  202POPC   C4B 7354  33.271  27.753   7.572
  203POPC   NC3 7355  37.371  37.356   9.526
  203POPC   PO4 7356  36.653  37.389   9.588
  203POPC   GL1 7357  36.948  37.532   9.295
  203POPC   GL2 7358  37.183  37.805   9.333
  203POPC   C1A 7359  36.916  37.562   8.891
  203POPC   D2A 7360  36.759  37.636   8.483
  203POPC   C3A 7361  37.050  37.519   8.190
  203POPC   C4A 7362  36.892  37.417   7.836
  203POPC   C1B 7363  37.217  37.963   8.922
  203POPC   C2B 7364  37.179  37.924   8.478
  203POPC   C3B 7365  37.256  37.959   8.012
  203POPC   C4B 7366  37.382  37.599   7.745
  204POPC   NC3 7367  17.853   3.057   9.529
  204POPC   PO4 7368  18.551   2.796   9.514
  204POPC   GL1 7369  18.245   2.912   9.212
  204POPC   GL2 7370  18.151   2.618   9.154
  204POPC   C1A 7371  18.348   2.952   8.778
  204POPC   D2A 7372  18.543   3.169   8.405
  204POPC   C3A 7373  18.355   2.947   8.064
  204POPC   C4A 7374  18.249   2.772   7.689
  204POPC   C1B 7375  17.959   2.578   8.791
  204POPC   C2B 7376  18.028   2.793   8.424
  204POPC   C3B 7377  17.954   2.597   8.043
  204POPC   C4B 7378  17.817   2.434   7.649
  205POPC   NC3 7379  34.883  25.055   9.279
  205POPC   PO4 7380  34.329  25.396   9.398
  205POPC   GL1 7381  34.510  25.340   9.067
  205POPC   GL2 7382  34.741  25.611   9.121
  205POPC   C1A 7383  34.429  25.385   8.642
  205POPC   D2A 7384  34.428  25.642   8.313
  205POPC   C3A 7385  34.185  25.441   8.008
  205POPC   C4A 7386  34.281  25.021   7.760
  205POPC   C1B 7387  34.907  25.409   8.756
  205POPC   C2B 7388  34.833  25.048   8.513
  205POPC   C3B 7389  34.598  25.065   8.159
  205POPC   C4B 7390  34.665  25.409   7.886
  206POPC   NC3 7391  29.015  30.842   9.481
  206POPC   PO4 7392  29.042  30.171   9.498
  206POPC   GL1 7393  29.071  30.445   9.140
  206POPC   GL2 7394  29.384  30.505   8.971
  206POPC   C1A 7395  28.952  30.724   8.789
  206POPC   D2A 7396  29.040  30.606   8.375
  206POPC   C3A 7397  28.878  30.774   8.022
  206POPC   C4A 7398  28.897  31.005   7.651
  206POPC   C1B 7399  29.457  30.869   8.711
  206POPC   C2B 7400  29.348  31.020   8.306
  206POPC   C3B 7401  29.356  30.905   7.878
  206POPC   C4B 7402  29.347  30.808   7.438
  207POPC   NC3 7403  28.832  18.805   9.528
  207POPC   PO4 7404  28.774  19.406   9.361
  207POPC   GL1 7405  28.824  19.044   9.075
  207POPC   GL2 7406  29.138  18.830   9.128
  207POPC   C1A 7407  28.908  19.045   8.645
  207POPC   D2A 7408  29.166  19.290   8.361
  207POPC   C3A 7409  29.034  19.255   7.947
  207POPC   C4A 7410  29.112  19.293   7.507
  207POPC   C1B 7411  29.167  18.592   8.759
  207POPC   C2B 7412  29.287  18.766   8.362
  207POPC   C3B 7413  29.274  18.815   7.936
  207POPC   C4B 7414  28.883  18.797   7.725
  208POPC   NC3 7415  38.914  42.465   9.574
  208POPC   PO4 7416  38.393  42.108   9.434
  208POPC   GL1 7417  38.352  42.338   9.076
  208POPC   GL2 7418  38.656  42.511   9.078
  208POPC   C1A 7419  38.526  42.317   8.634
  208POPC   D2A 7420  38.607  42.440   8.217
  208POPC   C3A 7421  38.288  42.316   7.918
  208POPC   C4A 7422  38.020  42.306   7.552
  208POPC   C1B 7423  38.914  42.667   8.717
  208POPC   C2B 7424  38.999  42.818   8.287
  208POPC   C3B 7425  38.972  42.672   7.907
  208POPC   C4B 7426  38.569  42.730   7.791
  209POPC   NC3 7427  27.928   4.277   9.245
  209POPC   PO4 7428  28.454   4.670   9.560
  209POPC   GL1 7429  28.343   4.561   9.150
  209POPC   GL2 7430  28.574   4.265   9.059
  209POPC   C1A 7431  28.352   4.530   8.697
  209POPC   D2A 7432  28.745   4.420   8.509
  209POPC   C3A 7433  28.726   4.488   8.063
  209POPC   C4A 7434  28.424   4.322   7.768
  209POPC   C1B 7435  28.427   4.030   8.687
  209POPC   C2B 7436  28.480   4.060   8.238
  209POPC   C3B 7437  28.381   3.822   7.875
  209POPC   C4B 7438  28.236   3.962   7.429
  210POPC   NC3 7439  11.712  43.757   9.442
  210POPC   PO4 7440  12.232  44.237   9.466
  210POPC   GL1 7441  12.045  44.052   9.158
  210POPC   GL2 7442  12.236  43.755   9.180
  210POPC   C1A 7443  11.884  43.857   8.808
  210POPC   D2A 7444  11.835  44.020   8.443
  210POPC   C3A 7445  11.763  43.798   8.079
  210POPC   C4A 7446  11.825  44.109   7.779
  210POPC   C1B 7447  12.366  43.648   8.753
  210POPC   C2B 7448  12.224  43.714   8.304
  210POPC   C3B 7449  12.208  43.770   7.812
  210POPC   C4B 7450  12.296  43.622   7.344
  211POPC   NC3 7451   0.569  20.565   9.539
  211POPC   PO4 7452   0.323  21.185   9.482
  211POPC   GL1 7453   0.332  20.861   9.169
  211POPC   GL2 7454   0.698  20.851   9.126
  211POPC   C1A 7455   0.294  20.686   8.734
  211POPC   D2A 7456   0.581  20.758   8.382
  211POPC   C3A 7457   0.390  20.834   7.973
  211POPC   C4A 7458   0.415  20.711   7.537
  211POPC   C1B 7459   0.895  20.609   8.809
  211POPC   C2B 7460   1.039  20.545   8.385
  211POPC   C3B 7461   0.837  20.554   7.976
  211POPC   C4B 7462   0.749  20.315   7.652
  212POPC   NC3 7463  28.200  32.419   9.625
  212POPC   PO4 7464  28.473  31.824   9.475
  212POPC   GL1 7465  28.280  32.154   9.193
  212POPC   GL2 7466  28.594  32.285   9.118
  212POPC   C1A 7467  28.282  32.448   8.761
  212POPC   D2A 7468  28.314  32.318   8.290
  212POPC   C3A 7469  28.580  32.542   7.937
  212POPC   C4A 7470  28.276  32.542   7.650
  212POPC   C1B 7471  28.433  31.956   8.767
  212POPC   C2B 7472  28.178  31.806   8.418
  212POPC   C3B 7473  28.180  31.933   7.979
  212POPC   C4B 7474  28.524  32.055   7.733
  213POPC   NC3 7475  30.235  10.690   9.506
  213POPC   PO4 7476  29.727  10.387   9.658
  213POPC   GL1 7477  29.863  10.464   9.206
  213POPC   GL2 7478  29.804  10.828   9.131
  213POPC   C1A 7479  29.905  10.489   8.723
  213POPC   D2A 7480  29.875  10.776   8.347
  213POPC   C3A 7481  29.940  10.653   7.953
  213POPC   C4A 7482  29.886  10.527   7.569
  213POPC   C1B 7483  29.575  10.956   8.714
  213POPC   C2B 7484  29.481  11.098   8.248
  213POPC   C3B 7485  29.719  11.092   7.851
  213POPC   C4B 7486  29.868  11.053   7.407
  214POPC   NC3 7487  42.479  20.843   9.665
  214POPC   PO4 7488  41.884  20.710   9.602
  214POPC   GL1 7489  42.169  20.659   9.247
  214POPC   GL2 7490  42.518  20.630   9.179
  214POPC   C1A 7491  42.148  20.563   8.818
  214POPC   D2A 7492  42.263  20.341   8.458
  214POPC   C3A 7493  42.261  20.563   8.086
  214POPC   C4A 7494  42.253  20.359   7.712
  214POPC   C1B 7495  42.630  20.375   8.819
  214POPC   C2B 7496  42.779  20.275   8.395
  214POPC   C3B 7497  42.728  20.423   7.979
  214POPC   C4B 7498  42.568  20.764   7.699
  215POPC   NC3 7499   2.032  26.787   9.343
  215POPC   PO4 7500   1.426  26.817   9.714
  215POPC   GL1 7501   1.570  26.596   9.213
  215POPC   GL2 7502   1.875  26.512   8.935
  215POPC   C1A 7503   1.551  26.787   8.717
  215POPC   D2A 7504   1.882  26.821   8.431
  215POPC   C3A 7505   1.831  26.866   8.010
  215POPC   C4A 7506   2.028  26.684   7.689
  215POPC   C1B 7507   2.284  26.741   8.768
  215POPC   C2B 7508   2.325  27.064   8.506
  215POPC   C3B 7509   2.338  26.940   8.080
  215POPC   C4B 7510   2.177  27.179   7.735
  216POPC   NC3 7511  23.305  22.791   9.341
  216POPC   PO4 7512  22.707  22.704   9.518
  216POPC   GL1 7513  22.683  22.732   9.099
  216POPC   GL2 7514  22.852  23.037   9.129
  216POPC   C1A 7515  22.940  22.701   8.735
  216POPC   D2A 7516  22.896  22.858   8.330
  216POPC   C3A 7517  22.657  22.692   8.023
  216POPC   C4A 7518  22.895  22.519   7.706
  216POPC   C1B 7519  22.872  23.212   8.728
  216POPC   C2B 7520  22.910  23.355   8.285
  216POPC   C3B 7521  22.931  23.163   7.876
  216POPC   C4B 7522  22.887  23.338   7.446
  217POPC   NC3 7523  18.490  38.975   9.679
  217POPC   PO4 7524  18.215  39.511   9.693
  217POPC   GL1 7525  18.418  39.310   9.289
  217POPC   GL2 7526  18.412  38.939   9.167
  217POPC   C1A 7527  18.540  39.357   8.838
  217POPC   D2A 7528  18.413  39.036   8.505
  217POPC   C3A 7529  18.509  39.012   8.091
  217POPC   C4A 7530  18.573  39.342   7.820
  217POPC   C1B 7531  18.080  39.130   8.873
  217POPC   C2B 7532  18.046  39.390   8.449
  217POPC   C3B 7533  18.061  39.266   7.977
  217POPC   C4B 7534  18.216  38.954   7.683
  218POPC   NC3 7535  42.858  41.668   9.654
  218POPC   PO4 7536  43.411  41.828   9.226
  218POPC   GL1 7537  43.063  41.605   8.992
  218POPC   GL2 7538  42.758  41.564   9.156
  218POPC   C1A 7539  42.721  41.710   8.666
  218POPC   D2A 7540  42.686  41.682   8.236
  218POPC   C3A 7541  43.095  41.546   8.117
  218POPC   C4A 7542  43.384  41.519   7.789
  218POPC   C1B 7543  42.639  41.258   8.867
  218POPC   C2B 7544  42.848  41.218   8.470
  218POPC   C3B 7545  42.732  41.183   8.066
  218POPC   C4B 7546  42.902  41.320   7.681
  219POPC   NC3 7547  14.022   3.924   9.476
  219POPC   PO4 7548  14.014   3.197   9.580
  219POPC   GL1 7549  13.783   3.489   9.261
  219POPC   GL2 7550  13.428   3.514   9.208
  219POPC   C1A 7551  13.840   3.558   8.798
  219POPC   D2A 7552  14.027   3.406   8.376
  219POPC   C3A 7553  13.847   3.648   8.025
  219POPC   C4A 7554  13.470   3.698   7.785
  219POPC   C1B 7555  13.328   3.361   8.795
  219POPC   C2B 7556  13.512   3.438   8.378
  219POPC   C3B 7557  13.560   3.207   7.992
  219POPC   C4B 7558  13.259   3.245   7.650
  220POPC   NC3 7559  34.150  39.048   9.326
  220POPC   PO4 7560  34.547  38.492   9.564
  220POPC   GL1 7561  34.606  38.341   9.159
  220POPC   GL2 7562  34.279  38.435   9.056
  220POPC   C1A 7563  34.650  38.250   8.738
  220POPC   D2A 7564  34.561  38.471   8.389
  220POPC   C3A 7565  34.728  38.276   8.049
  220POPC   C4A 7566  34.764  38.377   7.598
  220POPC   C1B 7567  34.110  38.282   8.644
  220POPC   C2B 7568  34.202  38.106   8.231
  220POPC   C3B 7569  34.299  38.235   7.800
  220POPC   C4B 7570  34.296  38.403   7.364
  221POPC   NC3 7571  40.988   0.626   9.502
  221POPC   PO4 7572  40.445   0.106   9.543
  221POPC   GL1 7573  40.614   0.244   9.154
  221POPC   GL2 7574  40.992   0.324   9.096
  221POPC   C1A 7575  40.660   0.337   8.709
  221POPC   D2A 7576  40.536   0.533   8.326
  221POPC   C3A 7577  40.675   0.292   7.982
  221POPC   C4A 7578  40.690   0.456   7.538
  221POPC   C1B 7579  41.179   0.503   8.700
  221POPC   C2B 7580  41.049   0.527   8.297
  221POPC   C3B 7581  40.987   0.676   7.900
  221POPC   C4B 7582  41.185   0.607   7.507
  222POPC   NC3 7583   6.659   9.137   9.566
  222POPC   PO4 7584   6.656   8.473   9.531
  222POPC   GL1 7585   6.600   8.772   9.197
  222POPC   GL2 7586   6.321   8.982   9.200
  222POPC   C1A 7587   6.484   8.772   8.762
  222POPC   D2A 7588   6.654   8.855   8.372
  222POPC   C3A 7589   6.445   8.778   8.004
  222POPC   C4A 7590   6.641   8.833   7.579
  222POPC   C1B 7591   6.477   9.300   8.886
  222POPC   C2B 7592   6.711   9.386   8.500
  222POPC   C3B 7593   6.766   9.299   8.060
  222POPC   C4B 7594   6.425   9.234   7.810
  223POPC   NC3 7595   7.061   5.589   9.481
  223POPC   PO4 7596   7.555   6.030   9.524
  223POPC   GL1 7597   7.467   5.749   9.197
  223POPC   GL2 7598   7.713   5.898   9.041
  223POPC   C1A 7599   7.393   5.640   8.756
  223POPC   D2A 7600   7.329   5.837   8.318
  223POPC   C3A 7601   7.495   5.684   7.920
  223POPC   C4A 7602   7.339   5.378   7.661
  223POPC   C1B 7603   7.510   6.138   8.699
  223POPC   C2B 7604   7.715   6.165   8.284
  223POPC   C3B 7605   7.734   6.139   7.839
  223POPC   C4B 7606   7.818   6.436   7.469
  224POPC   NC3 7607   6.074  32.389   9.505
  224POPC   PO4 7608   5.503  32.076   9.594
  224POPC   GL1 7609   5.743  31.975   9.215
  224POPC   GL2 7610   5.609  32.296   9.094
  224POPC   C1A 7611   5.923  31.995   8.782
  224POPC   D2A 7612   5.772  32.252   8.446
  224POPC   C3A 7613   5.947  32.338   8.062
  224POPC   C4A 7614   5.873  32.304   7.636
  224POPC   C1B 7615   5.394  32.069   8.762
  224POPC   C2B 7616   5.472  31.839   8.364
  224POPC   C3B 7617   5.687  31.887   7.955
  224POPC   C4B 7618   5.556  31.919   7.490
  225POPC   NC3 7619  13.249  11.458   9.850
  225POPC   PO4 7620  12.692  11.289   9.459
  225POPC   GL1 7621  12.750  11.426   9.002
  225POPC   GL2 7622  13.060  11.205   8.945
  225POPC   C1A 7623  12.734  11.532   8.528
  225POPC   D2A 7624  12.949  11.335   8.157
  225POPC   C3A 7625  12.664  11.228   7.794
  225POPC   C4A 7626  12.570  11.287   7.351
  225POPC   C1B 7627  13.178  11.581   8.751
  225POPC   C2B 7628  13.158  11.829   8.411
  225POPC   C3B 7629  13.238  11.727   8.019
  225POPC   C4B 7630  13.035  11.548   7.690
  226POPC   NC3 7631   2.782   0.881   9.423
  226POPC   PO4 7632   2.194   1.209   9.400
  226POPC   GL1 7633   2.494   1.161   9.082
  226POPC   GL2 7634   2.837   1.313   9.153
  226POPC   C1A 7635   2.590   1.305   8.680
  226POPC   D2A 7636   2.824   1.347   8.319
  226POPC   C3A 7637   2.557   1.400   8.008
  226POPC   C4A 7638   2.341   1.298   7.658
  226POPC   C1B 7639   3.088   1.246   8.785
  226POPC   C2B 7640   3.131   0.964   8.482
  226POPC   C3B 7641   3.063   0.931   8.082
  226POPC   C4B 7642   2.950   1.224   7.744
  227POPC   NC3 7643  41.506  44.833   9.619
  227POPC   PO4 7644  41.924  44.457   9.233
  227POPC   GL1 7645  41.701  44.786   9.127
  227POPC   GL2 7646  41.351  44.726   9.150
  227POPC   C1A 7647  41.775  44.964   8.723
  227POPC   D2A 7648  41.800  44.766   8.344
  227POPC   C3A 7649  41.799   0.029   7.991
  227POPC   C4A 7650  41.783  44.755   7.643
  227POPC   C1B 7651  41.376  44.509   8.756
  227POPC   C2B 7652  41.258  44.644   8.373
  227POPC   C3B 7653  41.414  44.668   7.997
  227POPC   C4B 7654  41.206  44.636   7.638
  228POPC   NC3 7655   4.578   7.950   9.638
  228POPC   PO4 7656   4.160   8.440   9.470
  228POPC   GL1 7657   4.229   8.074   9.184
  228POPC   GL2 7658   4.557   7.962   9.129
  228POPC   C1A 7659   4.214   8.068   8.759
  228POPC   D2A 7660   4.436   8.141   8.381
  228POPC   C3A 7661   4.241   8.136   7.989
  228POPC   C4A 7662   4.314   8.357   7.586
  228POPC   C1B 7663   4.774   7.953   8.741
  228POPC   C2B 7664   4.769   7.752   8.368
  228POPC   C3B 7665   4.655   7.837   7.969
  228POPC   C4B 7666   4.413   7.874   7.591
  229POPC   NC3 7667  39.684  30.219   9.341
  229POPC   PO4 7668  39.265  29.857   9.803
  229POPC   GL1 7669  39.290  29.875   9.335
  229POPC   GL2 7670  39.113  30.226   9.302
  229POPC   C1A 7671  39.424  29.713   8.892
  229POPC   D2A 7672  39.258  29.907   8.501
  229POPC   C3A 7673  39.272  29.778   8.076
  229POPC   C4A 7674  39.460  30.040   7.717
  229POPC   C1B 7675  38.990  29.995   8.925
  229POPC   C2B 7676  38.739  29.802   8.565
  229POPC   C3B 7677  38.724  29.906   8.113
  229POPC   C4B 7678  38.946  29.979   7.701
  230POPC   NC3 7679  15.732  43.243   9.958
  230POPC   PO4 7680  16.031  43.141   9.318
  230POPC   GL1 7681  15.990  42.964   9.000
  230POPC   GL2 7682  16.245  42.726   9.090
  230POPC   C1A 7683  15.868  43.241   8.671
  230POPC   D2A 7684  15.654  43.408   8.327
  230POPC   C3A 7685  15.638  43.119   8.027
  230POPC   C4A 7686  15.886  43.326   7.769
  230POPC   C1B 7687  16.383  42.938   8.705
  230POPC   C2B 7688  16.187  43.063   8.306
  230POPC   C3B 7689  16.354  43.236   7.954
  230POPC   C4B 7690  16.302  43.136   7.541
  231POPC   NC3 7691  24.304  37.643   9.664
  231POPC   PO4 7692  24.646  37.201   9.625
  231POPC   GL1 7693  24.369  37.276   9.239
  231POPC   GL2 7694  24.343  37.630   9.165
  231POPC   C1A 7695  24.484  37.354   8.771
  231POPC   D2A 7696  24.362  37.534   8.381
  231POPC   C3A 7697  24.593  37.498   7.989
  231POPC   C4A 7698  24.839  37.683   7.646
  231POPC   C1B 7699  24.283  37.853   8.787
  231POPC   C2B 7700  24.213  38.030   8.366
  231POPC   C3B 7701  24.449  37.983   7.996
  231POPC   C4B 7702  24.352  37.820   7.602
  232POPC   NC3 7703  20.806  30.137   9.602
  232POPC   PO4 7704  20.230  29.808   9.484
  232POPC   GL1 7705  20.488  29.852   9.121
  232POPC   GL2 7706  20.826  29.744   9.206
  232POPC   C1A 7707  20.349  29.793   8.682
  232POPC   D2A 7708  20.509  29.636   8.259
  232POPC   C3A 7709  20.587  30.005   7.974
  232POPC   C4A 7710  20.397  30.292   7.665
  232POPC   C1B 7711  20.879  29.684   8.744
  232POPC   C2B 7712  21.043  29.763   8.313
  232POPC   C3B 7713  20.964  29.668   7.869
  232POPC   C4B 7714  20.565  29.532   7.725
  233POPC   NC3 7715   1.598   8.761   9.577
  233POPC   PO4 7716   1.925   9.276   9.425
  233POPC   GL1 7717   2.083   9.029   9.091
  233POPC   GL2 7718   1.839   8.758   9.117
  233POPC   C1A 7719   2.059   9.136   8.637
  233POPC   D2A 7720   1.886   9.224   8.192
  233POPC   C3A 7721   2.195   9.164   7.858
  233POPC   C4A 7722   2.082   8.993   7.434
  233POPC   C1B 7723   1.756   8.611   8.690
  233POPC   C2B 7724   1.665   8.744   8.249
  233POPC   C3B 7725   1.817   8.801   7.826
  233POPC   C4B 7726   1.541   8.782   7.450
  234POPC   NC3 7727   3.522  23.115   9.460
  234POPC   PO4 7728   3.598  23.810   9.473
  234POPC   GL1 7729   3.505  23.761   9.090
  234POPC   GL2 7730   3.440  23.411   9.058
  234POPC   C1A 7731   3.620  23.989   8.743
  234POPC   D2A 7732   3.581  24.243   8.400
  234POPC   C3A 7733   3.603  23.967   8.057
  234POPC   C4A 7734   3.439  24.062   7.664
  234POPC   C1B 7735   3.409  23.505   8.624
  234POPC   C2B 7736   3.719  23.485   8.310
  234POPC   C3B 7737   3.893  23.525   7.901
  234POPC   C4B 7738   3.638  23.620   7.547
  235POPC   NC3 7739   2.826   6.695   9.566
  235POPC   PO4 7740   2.615   6.138   9.445
  235POPC   GL1 7741   2.566   6.460   9.118
  235POPC   GL2 7742   2.548   6.830   9.162
  235POPC   C1A 7743   2.838   6.535   8.764
  235POPC   D2A 7744   2.977   6.749   8.383
  235POPC   C3A 7745   2.986   6.408   8.058
  235POPC   C4A 7746   2.618   6.227   7.815
  235POPC   C1B 7747   2.728   7.035   8.807
  235POPC   C2B 7748   2.544   7.101   8.416
  235POPC   C3B 7749   2.513   7.004   8.007
  235POPC   C4B 7750   2.739   6.737   7.764
  236POPC   NC3 7751   3.667  29.034   9.523
  236POPC   PO4 7752   3.068  28.746   9.426
  236POPC   GL1 7753   3.334  28.978   9.161
  236POPC   GL2 7754   3.658  28.888   9.035
  236POPC   C1A 7755   3.314  29.178   8.784
  236POPC   D2A 7756   3.317  28.920   8.473
  236POPC   C3A 7757   3.238  29.124   8.082
  236POPC   C4A 7758   3.247  28.932   7.710
  236POPC   C1B 7759   3.813  29.115   8.712
  236POPC   C2B 7760   3.678  29.239   8.333
  236POPC   C3B 7761   3.709  28.993   7.966
  236POPC   C4B 7762   3.746  28.852   7.565
  237POPC   NC3 7763  31.272  17.345   9.653
  237POPC   PO4 7764  31.719  17.772   9.588
  237POPC   GL1 7765  31.410  17.628   9.218
  237POPC   GL2 7766  31.129  17.353   9.164
  237POPC   C1A 7767  31.349  17.660   8.745
  237POPC   D2A 7768  31.340  17.847   8.309
  237POPC   C3A 7769  31.541  17.680   7.942
  237POPC   C4A 7770  31.856  17.350   7.848
  237POPC   C1B 7771  31.200  17.163   8.783
  237POPC   C2B 7772  31.488  17.153   8.445
  237POPC   C3B 7773  31.394  17.184   8.027
  237POPC   C4B 7774  31.104  17.154   7.720
  238POPC   NC3 7775  34.328  18.472   9.458
  238POPC   PO4 7776  34.453  17.837   9.650
  238POPC   GL1 7777  34.545  17.910   9.155
  238POPC   GL2 7778  34.502  18.266   9.019
  238POPC   C1A 7779  34.666  17.939   8.665
  238POPC   D2A 7780  34.432  18.051   8.248
  238POPC   C3A 7781  34.618  18.295   7.921
  238POPC   C4A 7782  35.014  18.187   7.690
  238POPC   C1B 7783  34.449  18.424   8.577
  238POPC   C2B 7784  34.429  18.688   8.204
  238POPC   C3B 7785  34.294  18.688   7.765
  238POPC   C4B 7786  34.286  18.520   7.335
  239POPC   NC3 7787  17.581  20.419   9.453
  239POPC   PO4 7788  17.001  20.753   9.572
  239POPC   GL1 7789  17.209  20.614   9.155
  239POPC   GL2 7790  17.550  20.756   9.070
  239POPC   C1A 7791  17.280  20.507   8.712
  239POPC   D2A 7792  17.555  20.715   8.383
  239POPC   C3A 7793  17.330  20.606   8.003
  239POPC   C4A 7794  17.298  20.540   7.531
  239POPC   C1B 7795  17.777  20.453   8.800
  239POPC   C2B 7796  17.712  20.235   8.399
  239POPC   C3B 7797  17.921  20.253   8.038
  239POPC   C4B 7798  17.774  20.611   7.787
  240POPC   NC3 7799  29.704  31.977   9.707
  240POPC   PO4 7800  29.978  32.588   9.687
  240POPC   GL1 7801  30.052  32.332   9.274
  240POPC   GL2 7802  30.030  31.960   9.230
  240POPC   C1A 7803  29.991  32.308   8.818
  240POPC   D2A 7804  30.231  32.188   8.422
  240POPC   C3A 7805  30.018  32.187   8.017
  240POPC   C4A 7806  30.051  32.393   7.633
  240POPC   C1B 7807  29.761  31.865   8.845
  240POPC   C2B 7808  29.719  32.058   8.431
  240POPC   C3B 7809  29.640  31.835   8.056
  240POPC   C4B 7810  29.757  31.709   7.657
  241POPC   NC3 7811  36.651  43.258   9.249
  241POPC   PO4 7812  36.015  43.147   9.530
  241POPC   GL1 7813  36.132  43.078   9.134
  241POPC   GL2 7814  36.385  42.830   9.106
  241POPC   C1A 7815  36.008  43.209   8.734
  241POPC   D2A 7816  36.081  43.352   8.304
  241POPC   C3A 7817  35.867  43.131   7.984
  241POPC   C4A 7818  35.723  43.195   7.524
  241POPC   C1B 7819  36.065  42.701   8.799
  241POPC   C2B 7820  36.050  42.818   8.376
  241POPC   C3B 7821  36.298  42.875   8.032
  241POPC   C4B 7822  36.366  42.749   7.652
  242POPC   NC3 7823  39.070  35.402   9.884
  242POPC   PO4 7824  39.560  34.982   9.724
  242POPC   GL1 7825  39.412  35.401   9.406
  242POPC   GL2 7826  39.123  35.343   9.183
  242POPC   C1A 7827  39.499  35.547   8.903
  242POPC   D2A 7828  39.709  35.484   8.438
  242POPC   C3A 7829  39.414  35.269   8.107
  242POPC   C4A 7830  39.096  35.534   7.864
  242POPC   C1B 7831  38.885  35.170   8.835
  242POPC   C2B 7832  38.969  35.028   8.398
  242POPC   C3B 7833  38.845  35.133   8.003
  242POPC   C4B 7834  39.149  35.040   7.650
  243POPC   NC3 7835  43.854  19.859   9.492
  243POPC   PO4 7836  43.373  20.296   9.240
  243POPC   GL1 7837  43.684  20.024   9.047
  243POPC   GL2 7838  44.068  20.029   9.065
  243POPC   C1A 7839  43.793  19.892   8.642
  243POPC   D2A 7840  43.681  19.998   8.246
  243POPC   C3A 7841  43.746  19.707   7.902
  243POPC   C4A 7842  43.881  19.602   7.496
  243POPC   C1B 7843  44.317  19.932   8.702
  243POPC   C2B 7844  44.194  19.895   8.280
  243POPC   C3B 7845  44.057  20.191   7.961
  243POPC   C4B 7846  43.672  20.197   7.769
  244POPC   NC3 7847   4.410  41.249   9.473
  244POPC   PO4 7848   4.589  41.843   9.364
  244POPC   GL1 7849   4.341  41.641   9.103
  244POPC   GL2 7850   4.024  41.523   9.228
  244POPC   C1A 7851   4.326  41.785   8.712
  244POPC   D2A 7852   4.408  41.593   8.364
  244POPC   C3A 7853   4.486  41.812   8.007
  244POPC   C4A 7854   4.463  41.515   7.663
  244POPC   C1B 7855   3.922  41.473   8.801
  244POPC   C2B 7856   3.852  41.543   8.370
  244POPC   C3B 7857   4.028  41.596   8.000
  244POPC   C4B 7858   3.965  41.321   7.690
  245POPC   NC3 7859  42.494  36.680   9.429
  245POPC   PO4 7860  42.290  37.306   9.561
  245POPC   GL1 7861  42.471  37.119   9.159
  245POPC   GL2 7862  42.282  36.856   8.999
  245POPC   C1A 7863  42.571  37.253   8.724
  245POPC   D2A 7864  42.704  37.144   8.291
  245POPC   C3A 7865  42.375  36.981   7.993
  245POPC   C4A 7866  42.348  37.133   7.549
  245POPC   C1B 7867  42.363  36.818   8.545
  245POPC   C2B 7868  42.416  36.514   8.217
  245POPC   C3B 7869  42.472  36.512   7.774
  245POPC   C4B 7870  42.174  36.612   7.466
  246POPC   NC3 7871  22.517  31.914   9.448
  246POPC   PO4 7872  22.004  31.612   9.778
  246POPC   GL1 7873  22.165  31.486   9.294
  246POPC   GL2 7874  22.140  31.098   9.213
  246POPC   C1A 7875  22.267  31.663   8.832
  246POPC   D2A 7876  22.152  31.906   8.409
  246POPC   C3A 7877  22.386  31.762   8.067
  246POPC   C4A 7878  22.240  31.667   7.663
  246POPC   C1B 7879  22.118  31.146   8.761
  246POPC   C2B 7880  22.172  31.390   8.380
  246POPC   C3B 7881  22.292  31.263   7.963
  246POPC   C4B 7882  22.648  31.057   7.735
  247POPC   NC3 7883  10.419  17.725   9.516
  247POPC   PO4 7884  10.636  17.081   9.583
  247POPC   GL1 7885  10.686  17.288   9.184
  247POPC   GL2 7886  10.389  17.429   9.091
  247POPC   C1A 7887  10.854  17.269   8.743
  247POPC   D2A 7888  10.588  17.264   8.364
  247POPC   C3A 7889  10.772  17.226   7.978
  247POPC   C4A 7890  10.732  17.352   7.562
  247POPC   C1B 7891  10.548  17.670   8.705
  247POPC   C2B 7892  10.786  17.732   8.296
  247POPC   C3B 7893  10.502  17.654   7.958
  247POPC   C4B 7894  10.180  17.868   7.786
  248POPC   NC3 7895   1.878   5.371   9.395
  248POPC   PO4 7896   1.999   4.727   9.405
  248POPC   GL1 7897   1.901   4.804   8.999
  248POPC   GL2 7898   1.574   4.696   8.921
  248POPC   C1A 7899   2.058   5.067   8.665
  248POPC   D2A 7900   2.194   5.321   8.301
  248POPC   C3A 7901   2.123   5.062   7.942
  248POPC   C4A 7902   2.206   5.060   7.504
  248POPC   C1B 7903   1.568   5.163   8.825
  248POPC   C2B 7904   1.702   5.385   8.462
  248POPC   C3B 7905   1.622   5.231   8.053
  248POPC   C4B 7906   1.781   5.302   7.635
  249POPC   NC3 7907  28.856   4.857   9.417
  249POPC   PO4 7908  29.215   5.321   9.712
  249POPC   GL1 7909  29.120   5.298   9.245
  249POPC   GL2 7910  29.383   5.104   9.152
  249POPC   C1A 7911  28.919   5.159   8.813
  249POPC   D2A 7912  28.906   5.327   8.374
  249POPC   C3A 7913  28.880   5.069   7.975
  249POPC   C4A 7914  29.076   4.699   7.764
  249POPC   C1B 7915  29.365   5.393   8.799
  249POPC   C2B 7916  29.524   5.507   8.413
  249POPC   C3B 7917  29.365   5.471   8.024
  249POPC   C4B 7918  29.355   5.138   7.785
  250POPC   NC3 7919   6.010  41.864   9.533
  250POPC   PO4 7920   5.930  42.583   9.605
  250POPC   GL1 7921   5.746  42.332   9.256
  250POPC   GL2 7922   5.987  42.125   9.089
  250POPC   C1A 7923   5.577  42.264   8.808
  250POPC   D2A 7924   5.747  42.444   8.420
  250POPC   C3A 7925   5.656  42.225   8.054
  250POPC   C4A 7926   5.738  42.422   7.686
  250POPC   C1B 7927   6.013  42.539   8.848
  250POPC   C2B 7928   6.269  42.565   8.467
  250POPC   C3B 7929   6.169  42.430   8.035
  250POPC   C4B 7930   6.254  42.440   7.585
  251POPC   NC3 7931  16.644  30.503   9.229
  251POPC   PO4 7932  17.234  30.293   9.543
  251POPC   GL1 7933  17.066  30.349   9.024
  251POPC   GL2 7934  17.043  30.734   8.876
  251POPC   C1A 7935  16.783  30.420   8.594
  251POPC   D2A 7936  16.401  30.503   8.301
  251POPC   C3A 7937  16.557  30.549   7.881
  251POPC   C4A 7938  16.997  30.496   7.880
  251POPC   C1B 7939  16.842  31.024   8.623
  251POPC   C2B 7940  16.801  30.852   8.237
  251POPC   C3B 7941  16.868  31.017   7.864
  251POPC   C4B 7942  16.885  30.830   7.490
  252POPC   NC3 7943   6.543  10.757   9.589
  252POPC   PO4 7944   6.299  10.167   9.369
  252POPC   GL1 7945   6.437  10.508   9.153
  252POPC   GL2 7946   6.817  10.513   9.156
  252POPC   C1A 7947   6.510  10.428   8.750
  252POPC   D2A 7948   6.321  10.598   8.395
  252POPC   C3A 7949   6.443  10.409   8.001
  252POPC   C4A 7950   6.559  10.199   7.625
  252POPC   C1B 7951   6.863  10.776   8.744
  252POPC   C2B 7952   6.824  10.506   8.350
  252POPC   C3B 7953   6.957  10.508   7.906
  252POPC   C4B 7954   7.041  10.850   7.571
  253POPC   NC3 7955   5.992  11.583   9.705
  253POPC   PO4 7956   5.564  12.171   9.543
  253POPC   GL1 7957   5.735  12.191   9.146
  253POPC   GL2 7958   6.088  12.138   9.211
  253POPC   C1A 7959   5.727  12.259   8.692
  253POPC   D2A 7960   5.844  12.346   8.262
  253POPC   C3A 7961   5.721  12.031   7.959
  253POPC   C4A 7962   5.399  11.858   7.729
  253POPC   C1B 7963   6.054  11.882   8.833
  253POPC   C2B 7964   6.113  11.935   8.382
  253POPC   C3B 7965   6.220  12.086   7.967
  253POPC   C4B 7966   6.246  11.677   7.819
  254POPC   NC3 7967  39.554  15.057   9.425
  254POPC   PO4 7968  39.096  15.462   9.655
  254POPC   GL1 7969  39.021  15.118   9.353
  254POPC   GL2 7970  39.215  15.326   9.165
  254POPC   C1A 7971  38.974  14.992   8.886
  254POPC   D2A 7972  38.975  15.209   8.475
  254POPC   C3A 7973  39.013  15.026   8.079
  254POPC   C4A 7974  38.848  15.220   7.706
  254POPC   C1B 7975  39.393  15.301   8.766
  254POPC   C2B 7976  39.407  15.451   8.343
  254POPC   C3B 7977  39.450  15.237   7.971
  254POPC   C4B 7978  39.651  15.186   7.617
  255POPC   NC3 7979  23.726   0.627  10.178
  255POPC   PO4 7980  23.829   0.214   9.795
  255POPC   GL1 7981  23.862   0.185   9.294
  255POPC   GL2 7982  23.891   0.524   9.180
  255POPC   C1A 7983  23.877   0.095   8.837
  255POPC   D2A 7984  23.657   0.198   8.441
  255POPC   C3A 7985  23.854   0.150   8.031
  255POPC   C4A 7986  23.997   0.291   7.617
  255POPC   C1B 7987  23.707   0.614   8.782
  255POPC   C2B 7988  23.801   0.696   8.349
  255POPC   C3B 7989  23.608   0.608   7.947
  255POPC   C4B 7990  23.197   0.674   7.720
  256POPC   NC3 7991  24.914  31.360   9.392
  256POPC   PO4 7992  24.367  31.772   9.495
  256POPC   GL1 7993  24.542  31.612   9.093
  256POPC   GL2 7994  24.886  31.707   8.958
  256POPC   C1A 7995  24.576  31.369   8.723
  256POPC   D2A 7996  24.315  31.093   8.516
  256POPC   C3A 7997  24.263  31.199   8.108
  256POPC   C4A 7998  24.202  31.514   7.831
  256POPC   C1B 7999  24.599  31.885   8.667
  256POPC   C2B 8000  24.398  31.687   8.322
  256POPC   C3B 8001  24.646  31.697   7.960
  256POPC   C4B 8002  24.736  31.435   7.580
  257POPC   NC3 8003   5.787   4.140   9.448
  257POPC   PO4 8004   6.238   4.547   9.741
  257POPC   GL1 8005   5.932   4.571   9.247
  257POPC   GL2 8006   5.614   4.433   9.085
  257POPC   C1A 8007   5.999   4.535   8.750
  257POPC   D2A 8008   6.146   4.701   8.339
  257POPC   C3A 8009   5.952   4.551   7.957
  257POPC   C4A 8010   5.496   4.545   7.851
  257POPC   C1B 8011   5.619   4.178   8.763
  257POPC   C2B 8012   5.790   4.241   8.349
  257POPC   C3B 8013   5.718   4.094   7.961
  257POPC   C4B 8014   5.956   3.782   7.811
  258POPC   NC3 8015  32.536  30.462   9.432
  258POPC   PO4 8016  31.931  30.748   9.532
  258POPC   GL1 8017  32.107  30.651   9.161
  258POPC   GL2 8018  32.089  30.314   9.177
  258POPC   C1A 8019  32.169  30.812   8.741
  258POPC   D2A 8020  31.949  30.905   8.354
  258POPC   C3A 8021  32.046  30.632   8.007
  258POPC   C4A 8022  32.425  30.813   7.820
  258POPC   C1B 8023  32.365  30.288   8.833
  258POPC   C2B 8024  32.261  30.333   8.439
  258POPC   C3B 8025  32.456  30.330   8.082
  258POPC   C4B 8026  32.345  30.317   7.711
  259POPC   NC3 8027   1.181  29.908   9.463
  259POPC   PO4 8028   1.238  30.574   9.423
  259POPC   GL1 8029   1.140  30.213   9.065
  259POPC   GL2 8030   1.211  29.797   8.974
  259POPC   C1A 8031   1.029  30.101   8.628
  259POPC   D2A 8032   1.257  29.852   8.317
  259POPC   C3A 8033   1.181  29.973   7.902
  259POPC   C4A 8034   1.432  29.976   7.535
  259POPC   C1B 8035   1.414  29.492   8.683
  259POPC   C2B 8036   1.579  29.431   8.272
  259POPC   C3B 8037   1.412  29.511   7.833
  259POPC   C4B 8038   1.485  29.499   7.372
  260POPC   NC3 8039  35.662  25.089   9.417
  260POPC   PO4 8040  35.033  25.443   9.495
  260POPC   GL1 8041  35.277  25.303   9.109
  260POPC   GL2 8042  35.595  25.388   9.016
  260POPC   C1A 8043  35.318  25.100   8.697
  260POPC   D2A 8044  35.417  25.315   8.304
  260POPC   C3A 8045  35.108  25.165   8.082
  260POPC   C4A 8046  35.049  25.150   7.679
  260POPC   C1B 8047  35.819  25.113   8.735
  260POPC   C2B 8048  35.674  24.893   8.358
  260POPC   C3B 8049  35.727  25.062   7.959
  260POPC   C4B 8050  35.528  24.966   7.544
  261POPC   NC3 8051  18.853  23.347   9.479
  261POPC   PO4 8052  19.204  22.788   9.592
  261POPC   GL1 8053  19.091  22.977   9.195
  261POPC   GL2 8054  18.721  23.091   9.064
  261POPC   C1A 8055  19.011  22.750   8.829
  261POPC   D2A 8056  18.825  22.949   8.496
  261POPC   C3A 8057  18.908  22.776   8.101
  261POPC   C4A 8058  19.246  22.845   7.810
  261POPC   C1B 8059  18.611  23.388   8.714
  261POPC   C2B 8060  18.690  23.397   8.269
  261POPC   C3B 8061  18.951  23.267   7.948
  261POPC   C4B 8062  18.903  23.112   7.537
  262POPC   NC3 8063  17.557  27.379   9.386
  262POPC   PO4 8064  17.720  26.771   9.579
  262POPC   GL1 8065  17.538  26.685   9.148
  262POPC   GL2 8066  17.590  27.014   9.065
  262POPC   C1A 8067  17.476  26.771   8.662
  262POPC   D2A 8068  17.774  26.799   8.372
  262POPC   C3A 8069  17.661  26.654   8.016
  262POPC   C4A 8070  17.497  26.811   7.647
  262POPC   C1B 8071  17.903  27.196   8.790
  262POPC   C2B 8072  17.843  27.301   8.388
  262POPC   C3B 8073  17.793  27.187   7.984
  262POPC   C4B 8074  17.884  27.387   7.633
  263POPC   NC3 8075  39.437  25.509   9.429
  263POPC   PO4 8076  39.111  24.852   9.349
  263POPC   GL1 8077  39.368  25.137   9.057
  263POPC   GL2 8078  39.170  25.461   9.004
  263POPC   C1A 8079  39.508  25.117   8.618
  263POPC   D2A 8080  39.209  25.174   8.284
  263POPC   C3A 8081  39.275  25.115   7.853
  263POPC   C4A 8082  38.901  25.323   7.760
  263POPC   C1B 8083  39.527  25.600   8.781
  263POPC   C2B 8084  39.409  25.633   8.367
  263POPC   C3B 8085  39.270  25.633   7.967
  263POPC   C4B 8086  39.517  25.526   7.623
  264POPC   NC3 8087  37.949  18.797   9.313
  264POPC   PO4 8088  37.359  19.028   9.656
  264POPC   GL1 8089  37.444  18.892   9.240
  264POPC   GL2 8090  37.642  19.178   9.158
  264POPC   C1A 8091  37.427  18.930   8.775
  264POPC   D2A 8092  37.402  19.299   8.482
  264POPC   C3A 8093  37.619  19.268   8.087
  264POPC   C4A 8094  37.525  18.958   7.755
  264POPC   C1B 8095  37.848  19.237   8.732
  264POPC   C2B 8096  38.056  19.101   8.332
  264POPC   C3B 8097  38.015  18.936   7.894
  264POPC   C4B 8098  37.930  18.696   7.501
  265POPC   NC3 8099  43.378   1.942   9.498
  265POPC   PO4 8100  42.697   1.980   9.646
  265POPC   GL1 8101  42.920   2.013   9.181
  265POPC   GL2 8102  43.254   2.195   9.088
  265POPC   C1A 8103  43.041   1.982   8.699
  265POPC   D2A 8104  43.008   1.733   8.335
  265POPC   C3A 8105  42.888   1.886   7.931
  265POPC   C4A 8106  43.092   2.203   7.684
  265POPC   C1B 8107  43.490   1.830   8.893
  265POPC   C2B 8108  43.511   1.774   8.472
  265POPC   C3B 8109  43.358   2.033   8.144
  265POPC   C4B 8110  43.427   1.842   7.766
  266POPC   NC3 8111  29.495  43.722   9.551
  266POPC   PO4 8112  28.834  43.941   9.425
  266POPC   GL1 8113  29.174  43.926   9.147
  266POPC   GL2 8114  29.325  43.599   9.079
  266POPC   C1A 8115  29.100  43.923   8.716
  266POPC   D2A 8116  29.174  43.741   8.302
  266POPC   C3A 8117  29.123  43.941   7.872
  266POPC   C4A 8118  29.263  43.837   7.424
  266POPC   C1B 8119  29.484  43.417   8.690
  266POPC   C2B 8120  29.352  43.276   8.271
  266POPC   C3B 8121  29.256  43.456   7.870
  266POPC   C4B 8122  28.883  43.558   7.599
  267POPC   NC3 8123  20.731  41.102   9.416
  267POPC   PO4 8124  20.460  40.404   9.572
  267POPC   GL1 8125  20.450  40.667   9.189
  267POPC   GL2 8126  20.300  40.942   9.189
  267POPC   C1A 8127  20.669  40.700   8.781
  267POPC   D2A 8128  20.894  40.614   8.401
  267POPC   C3A 8129  20.745  40.817   8.052
  267POPC   C4A 8130  20.629  40.763   7.659
  267POPC   C1B 8131  20.163  40.837   8.757
  267POPC   C2B 8132  20.302  40.749   8.330
  267POPC   C3B 8133  20.285  41.000   7.947
  267POPC   C4B 8134  20.326  41.205   7.546
  268POPC   NC3 8135   8.391  24.367   9.452
  268POPC   PO4 8136   8.065  24.785   9.872
  268POPC   GL1 8137   8.273  24.813   9.300
  268POPC   GL2 8138   8.067  24.507   9.092
  268POPC   C1A 8139   8.331  24.819   8.797
  268POPC   D2A 8140   8.285  24.964   8.318
  268POPC   C3A 8141   8.470  24.691   7.941
  268POPC   C4A 8142   8.526  24.631   7.477
  268POPC   C1B 8143   8.400  24.301   8.803
  268POPC   C2B 8144   8.531  24.384   8.377
  268POPC   C3B 8145   8.426  24.174   8.023
  268POPC   C4B 8146   8.223  24.208   7.648
  269POPC   NC3 8147  43.511  20.697   9.461
  269POPC   PO4 8148  42.881  20.681   9.536
  269POPC   GL1 8149  43.051  20.685   9.136
  269POPC   GL2 8150  43.241  20.967   9.127
  269POPC   C1A 8151  43.099  20.537   8.708
  269POPC   D2A 8152  43.406  20.379   8.441
  269POPC   C3A 8153  43.254  20.406   8.026
  269POPC   C4A 8154  43.046  20.602   7.635
  269POPC   C1B 8155  43.310  20.993   8.692
  269POPC   C2B 8156  43.194  20.849   8.284
  269POPC   C3B 8157  43.001  21.030   7.927
  269POPC   C4B 8158  43.111  21.087   7.502
  270POPC   NC3 8159  38.851  30.603   9.598
  270POPC   PO4 8160  39.509  30.614   9.565
  270POPC   GL1 8161  39.423  30.645   9.147
  270POPC   GL2 8162  39.101  30.820   9.175
  270POPC   C1A 8163  39.393  30.485   8.719
  270POPC   D2A 8164  39.162  30.721   8.391
  270POPC   C3A 8165  39.344  30.866   7.998
  270POPC   C4A 8166  39.467  30.811   7.568
  270POPC   C1B 8167  38.914  30.506   8.900
  270POPC   C2B 8168  38.914  30.275   8.500
  270POPC   C3B 8169  39.122  30.273   8.102
  270POPC   C4B 8170  39.136  30.449   7.687
  271POPC   NC3 8171  34.483   0.864   9.652
  271POPC   PO4 8172  34.630   0.267   9.469
  271POPC   GL1 8173  34.768   0.467   9.122
  271POPC   GL2 8174  34.911   0.222   8.900
  271POPC   C1A 8175  34.604   0.597   8.739
  271POPC   D2A 8176  34.774   0.728   8.348
  271POPC   C3A 8177  34.538   0.505   8.036
  271POPC   C4A 8178  34.434   0.606   7.627
  271POPC   C1B 8179  34.765   0.189   8.466
  271POPC   C2B 8180  34.694   0.032   8.047
  271POPC   C3B 8181  34.578   0.113   7.642
  271POPC   C4B 8182  34.320   0.213   7.235
  272POPC   NC3 8183  23.992  12.029   9.776
  272POPC   PO4 8184  23.835  11.424   9.601
  272POPC   GL1 8185  23.794  11.239   9.194
  272POPC   GL2 8186  23.481  11.155   9.062
  272POPC   C1A 8187  23.973  11.107   8.815
  272POPC   D2A 8188  23.990  10.930   8.407
  272POPC   C3A 8189  23.831  11.169   8.068
  272POPC   C4A 8190  23.892  11.273   7.659
  272POPC   C1B 8191  23.646  11.509   8.799
  272POPC   C2B 8192  23.851  11.563   8.403
  272POPC   C3B 8193  23.709  11.682   7.993
  272POPC   C4B 8194  23.495  11.589   7.624
  273POPC   NC3 8195   6.513   9.772   9.415
  273POPC   PO4 8196   7.021   9.402   9.469
  273POPC   GL1 8197   6.862   9.592   9.087
  273POPC   GL2 8198   6.958   9.942   9.101
  273POPC   C1A 8199   6.611   9.835   8.738
  273POPC   D2A 8200   6.379  10.085   8.409
  273POPC   C3A 8201   6.342   9.902   7.998
  273POPC   C4A 8202   6.613   9.684   7.726
  273POPC   C1B 8203   7.111   9.749   8.683
  273POPC   C2B 8204   6.996   9.754   8.240
  273POPC   C3B 8205   6.974  10.000   7.868
  273POPC   C4B 8206   6.943   9.924   7.400
  274POPC   NC3 8207   1.816  22.508   9.537
  274POPC   PO4 8208   2.383  22.181   9.684
  274POPC   GL1 8209   2.240  22.236   9.241
  274POPC   GL2 8210   1.926  22.166   9.174
  274POPC   C1A 8211   2.257  22.222   8.761
  274POPC   D2A 8212   2.210  21.997   8.364
  274POPC   C3A 8213   2.034  22.041   7.988
  274POPC   C4A 8214   2.273  22.333   7.796
  274POPC   C1B 8215   1.829  22.479   8.856
  274POPC   C2B 8216   1.848  22.346   8.472
  274POPC   C3B 8217   1.929  22.508   8.131
  274POPC   C4B 8218   1.768  22.476   7.747
  275POPC   NC3 8219  14.917   8.923   9.856
  275POPC   PO4 8220  15.267   9.408   9.766
  275POPC   GL1 8221  15.174   9.123   9.404
  275POPC   GL2 8222  15.466   8.972   9.243
  275POPC   C1A 8223  15.029   9.001   8.960
  275POPC   D2A 8224  15.185   8.980   8.509
  275POPC   C3A 8225  15.026   8.888   8.110
  275POPC   C4A 8226  14.936   9.159   7.740
  275POPC   C1B 8227  15.514   8.809   8.846
  275POPC   C2B 8228  15.675   8.811   8.420
  275POPC   C3B 8229  15.675   8.938   8.002
  275POPC   C4B 8230  15.366   8.861   7.744
  276POPC   NC3 8231  27.105  33.025   9.363
  276POPC   PO4 8232  26.495  32.935   9.506
  276POPC   GL1 8233  26.577  33.123   9.112
  276POPC   GL2 8234  26.866  33.345   9.047
  276POPC   C1A 8235  26.471  33.289   8.697
  276POPC   D2A 8236  26.706  33.274   8.301
  276POPC   C3A 8237  26.527  33.158   7.894
  276POPC   C4A 8238  26.575  33.263   7.430
  276POPC   C1B 8239  26.882  32.972   8.734
  276POPC   C2B 8240  26.846  32.728   8.361
  276POPC   C3B 8241  26.941  32.789   7.958
  276POPC   C4B 8242  27.025  33.187   7.776
  277POPC   NC3 8243  29.235  36.024   9.540
  277POPC   PO4 8244  29.311  36.631   9.292
  277POPC   GL1 8245  29.293  36.369   8.997
  277POPC   GL2 8246  29.109  36.088   9.058
  277POPC   C1A 8247  29.269  36.264   8.609
  277POPC   D2A 8248  29.446  36.269   8.262
  277POPC   C3A 8249  29.306  36.196   7.937
  277POPC   C4A 8250  29.215  36.359   7.633
  277POPC   C1B 8251  28.954  35.856   8.713
  277POPC   C2B 8252  29.154  35.834   8.330
  277POPC   C3B 8253  29.240  35.705   7.928
  277POPC   C4B 8254  28.980  35.866   7.617
  278POPC   NC3 8255  13.348  17.360   9.539
  278POPC   PO4 8256  13.979  17.418   9.557
  278POPC   GL1 8257  13.751  17.302   9.190
  278POPC   GL2 8258  13.517  17.594   9.112
  278POPC   C1A 8259  13.789  17.378   8.747
  278POPC   D2A 8260  13.756  17.761   8.492
  278POPC   C3A 8261  13.628  17.669   8.066
  278POPC   C4A 8262  13.793  17.368   7.759
  278POPC   C1B 8263  13.324  17.217   8.862
  278POPC   C2B 8264  13.284  17.116   8.403
  278POPC   C3B 8265  13.310  17.282   7.956
  278POPC   C4B 8266  13.285  17.075   7.561
  279POPC   NC3 8267  30.406  14.426   9.598
  279POPC   PO4 8268  30.953  14.079   9.418
  279POPC   GL1 8269  30.571  14.178   9.188
  279POPC   GL2 8270  30.501  14.528   9.108
  279POPC   C1A 8271  30.353  14.094   8.813
  279POPC   D2A 8272  30.369  14.408   8.491
  279POPC   C3A 8273  30.619  14.250   8.136
  279POPC   C4A 8274  30.706  14.190   7.694
  279POPC   C1B 8275  30.828  14.422   8.808
  279POPC   C2B 8276  30.878  14.633   8.428
  279POPC   C3B 8277  30.570  14.764   8.136
  279POPC   C4B 8278  30.806  14.661   7.814
  280POPC   NC3 8279  42.560  42.684   9.453
  280POPC   PO4 8280  42.207  43.178   9.783
  280POPC   GL1 8281  42.262  43.115   9.319
  280POPC   GL2 8282  42.630  43.194   9.258
  280POPC   C1A 8283  42.317  43.220   8.847
  280POPC   D2A 8284  42.183  43.294   8.411
  280POPC   C3A 8285  42.202  42.981   8.077
  280POPC   C4A 8286  42.049  43.172   7.676
  280POPC   C1B 8287  42.801  43.088   8.833
  280POPC   C2B 8288  42.657  43.046   8.432
  280POPC   C3B 8289  42.640  43.249   8.054
  280POPC   C4B 8290  42.534  42.998   7.684
  281POPC   NC3 8291   9.689  21.509   9.670
  281POPC   PO4 8292  10.323  21.635   9.579
  281POPC   GL1 8293   9.960  21.487   9.238
  281POPC   GL2 8294   9.560  21.551   9.196
  281POPC   C1A 8295   9.775  21.213   8.869
  281POPC   D2A 8296   9.534  21.116   8.472
  281POPC   C3A 8297   9.803  21.100   8.092
  281POPC   C4A 8298   9.816  21.244   7.690
  281POPC   C1B 8299   9.362  21.525   8.805
  281POPC   C2B 8300   9.563  21.680   8.446
  281POPC   C3B 8301   9.602  21.577   8.043
  281POPC   C4B 8302   9.363  21.537   7.694
  282POPC   NC3 8303  33.613  11.605   9.906
  282POPC   PO4 8304  33.900  12.124   9.482
  282POPC   GL1 8305  33.734  12.112   9.071
  282POPC   GL2 8306  34.034  12.035   8.976
  282POPC   C1A 8307  33.759  12.220   8.599
  282POPC   D2A 8308  33.498  12.149   8.204
  282POPC   C3A 8309  33.637  12.252   7.762
  282POPC   C4A 8310  33.567  12.318   7.298
  282POPC   C1B 8311  34.217  11.806   8.633
  282POPC   C2B 8312  34.326  11.921   8.201
  282POPC   C3B 8313  34.195  12.209   7.876
  282POPC   C4B 8314  34.035  12.092   7.473
  283POPC   NC3 8315   2.400   9.343   9.447
  283POPC   PO4 8316   2.913   9.991   9.443
  283POPC   GL1 8317   2.769   9.898   9.082
  283POPC   GL2 8318   2.702   9.574   9.114
  283POPC   C1A 8319   2.884   9.954   8.675
  283POPC   D2A 8320   3.080   9.878   8.315
  283POPC   C3A 8321   2.888  10.019   7.968
  283POPC   C4A 8322   2.465   9.933   7.942
  283POPC   C1B 8323   2.805   9.448   8.714
  283POPC   C2B 8324   2.654   9.583   8.317
  283POPC   C3B 8325   2.717   9.481   7.902
  283POPC   C4B 8326   3.131   9.584   7.788
  284POPC   NC3 8327  24.885   5.854   9.866
  284POPC   PO4 8328  24.475   6.171   9.421
  284POPC   GL1 8329  24.506   5.838   9.144
  284POPC   GL2 8330  24.710   5.993   8.911
  284POPC   C1A 8331  24.392   5.674   8.712
  284POPC   D2A 8332  24.590   5.905   8.361
  284POPC   C3A 8333  24.442   5.925   7.922
  284POPC   C4A 8334  24.467   5.673   7.533
  284POPC   C1B 8335  24.990   6.157   8.600
  284POPC   C2B 8336  24.971   6.185   8.162
  284POPC   C3B 8337  24.866   6.150   7.753
  284POPC   C4B 8338  24.623   6.147   7.421
  285POPC   NC3 8339  31.891  12.007   9.537
  285POPC   PO4 8340  31.238  12.390   9.495
  285POPC   GL1 8341  31.458  12.052   9.270
  285POPC   GL2 8342  31.197  12.048   9.037
  285POPC   C1A 8343  31.627  11.834   8.901
  285POPC   D2A 8344  31.489  11.944   8.480
  285POPC   C3A 8345  31.651  11.976   8.047
  285POPC   C4A 8346  31.418  11.815   7.684
  285POPC   C1B 8347  31.534  12.350   8.849
  285POPC   C2B 8348  31.439  12.455   8.441
  285POPC   C3B 8349  31.103  12.294   8.200
  285POPC   C4B 8350  31.228  12.270   7.799
  286POPC   NC3 8351  40.249   0.544   9.522
  286POPC   PO4 8352  39.760   0.079   9.689
  286POPC   GL1 8353  39.909   0.275   9.299
  286POPC   GL2 8354  40.079   0.021   9.211
  286POPC   C1A 8355  40.172   0.428   8.898
  286POPC   D2A 8356  39.993   0.528   8.498
  286POPC   C3A 8357  40.130   0.798   8.168
  286POPC   C4A 8358  40.290   0.579   7.830
  286POPC   C1B 8359  39.879   0.021   8.799
  286POPC   C2B 8360  39.727   0.114   8.393
  286POPC   C3B 8361  39.903   0.262   8.020
  286POPC   C4B 8362  39.851  44.916   7.740
  287POPC   NC3 8363  34.048  16.579   9.540
  287POPC   PO4 8364  33.412  16.685   9.416
  287POPC   GL1 8365  33.667  16.882   9.115
  287POPC   GL2 8366  33.830  16.599   9.075
  287POPC   C1A 8367  33.547  17.032   8.680
  287POPC   D2A 8368  33.672  17.068   8.246
  287POPC   C3A 8369  33.933  16.728   8.086
  287POPC   C4A 8370  33.735  16.380   7.862
  287POPC   C1B 8371  33.936  16.655   8.642
  287POPC   C2B 8372  34.188  16.388   8.379
  287POPC   C3B 8373  34.248  16.343   7.928
  287POPC   C4B 8374  34.272  16.608   7.571
  288POPC   NC3 8375  39.046  37.253   9.411
  288POPC   PO4 8376  38.986  36.517   9.462
  288POPC   GL1 8377  39.220  36.698   9.123
  288POPC   GL2 8378  39.300  37.058   9.038
  288POPC   C1A 8379  39.047  36.687   8.723
  288POPC   D2A 8380  38.811  36.560   8.338
  288POPC   C3A 8381  39.015  36.661   7.974
  288POPC   C4A 8382  39.364  36.828   7.777
  288POPC   C1B 8383  38.966  37.194   8.773
  288POPC   C2B 8384  39.071  37.048   8.344
  288POPC   C3B 8385  39.390  37.226   8.056
  288POPC   C4B 8386  39.280  37.275   7.553
  289POPC   NC3 8387  34.943   3.770   9.895
  289POPC   PO4 8388  34.495   3.515   9.488
  289POPC   GL1 8389  34.577   3.475   9.098
  289POPC   GL2 8390  34.669   3.145   9.153
  289POPC   C1A 8391  34.639   3.713   8.711
  289POPC   D2A 8392  34.559   3.877   8.293
  289POPC   C3A 8393  34.686   3.641   7.933
  289POPC   C4A 8394  34.999   3.352   7.784
  289POPC   C1B 8395  34.788   3.188   8.741
  289POPC   C2B 8396  34.676   3.333   8.358
  289POPC   C3B 8397  34.563   3.146   8.009
  289POPC   C4B 8398  34.507   3.238   7.589
  290POPC   NC3 8399  26.734  16.652   9.607
  290POPC   PO4 8400  27.384  16.857   9.343
  290POPC   GL1 8401  27.032  16.576   9.158
  290POPC   GL2 8402  26.632  16.505   9.153
  290POPC   C1A 8403  26.893  16.759   8.783
  290POPC   D2A 8404  26.795  16.919   8.383
  290POPC   C3A 8405  27.007  16.820   8.004
  290POPC   C4A 8406  26.810  16.813   7.587
  290POPC   C1B 8407  26.614  16.340   8.770
  290POPC   C2B 8408  26.817  16.384   8.396
  290POPC   C3B 8409  26.672  16.422   7.994
  290POPC   C4B 8410  26.571  16.365   7.553
  291POPC   NC3 8411   6.591  27.234   9.523
  291POPC   PO4 8412   6.795  27.893   9.441
  291POPC   GL1 8413   6.548  27.616   9.125
  291POPC   GL2 8414   6.390  27.267   9.061
  291POPC   C1A 8415   6.482  27.688   8.688
  291POPC   D2A 8416   6.768  27.852   8.349
  291POPC   C3A 8417   6.516  27.744   8.014
  291POPC   C4A 8418   6.649  27.576   7.656
  291POPC   C1B 8419   6.704  27.217   8.752
  291POPC   C2B 8420   6.673  27.346   8.320
  291POPC   C3B 8421   6.591  27.125   7.930
  291POPC   C4B 8422   6.680  27.073   7.491
  292POPC   NC3 8423  26.739   8.109   9.413
  292POPC   PO4 8424  27.189   8.528   9.572
  292POPC   GL1 8425  26.948   8.473   9.131
  292POPC   GL2 8426  27.135   8.702   8.932
  292POPC   C1A 8427  26.547   8.299   8.834
  292POPC   D2A 8428  26.380   8.193   8.422
  292POPC   C3A 8429  26.689   8.253   8.101
  292POPC   C4A 8430  26.648   8.146   7.660
  292POPC   C1B 8431  26.985   8.431   8.568
  292POPC   C2B 8432  27.192   8.058   8.340
  292POPC   C3B 8433  27.153   8.069   7.909
  292POPC   C4B 8434  27.044   8.467   7.759
  293POPC   NC3 8435  44.361  24.741   9.394
  293POPC   PO4 8436  44.945  24.458   9.452
  293POPC   GL1 8437  44.689  24.482   9.105
  293POPC   GL2 8438  44.762  24.844   9.115
  293POPC   C1A 8439  44.618  24.249   8.714
  293POPC   D2A 8440  44.846  24.276   8.329
  293POPC   C3A 8441  44.581  24.273   7.956
  293POPC   C4A 8442  44.537  24.206   7.513
  293POPC   C1B 8443  44.493  24.891   8.755
  293POPC   C2B 8444  44.533  24.695   8.350
  293POPC   C3B 8445  44.724  24.777   7.959
  293POPC   C4B 8446  44.602  24.693   7.576
  294POPC   NC3 8447  41.152  17.198   9.401
  294POPC   PO4 8448  41.311  17.846   9.407
  294POPC   GL1 8449  41.315  17.606   9.057
  294POPC   GL2 8450  41.572  17.351   9.097
  294POPC   C1A 8451  41.399  17.687   8.632
  294POPC   D2A 8452  41.693  17.828   8.303
  294POPC   C3A 8453  41.589  17.685   7.907
  294POPC   C4A 8454  41.352  17.579   7.554
  294POPC   C1B 8455  41.452  17.184   8.693
  294POPC   C2B 8456  41.257  17.318   8.297
  294POPC   C3B 8457  41.391  17.221   7.885
  294POPC   C4B 8458  41.796  17.211   7.606
  295POPC   NC3 8459   4.388  19.767   9.440
  295POPC   PO4 8460   3.946  20.157   9.643
  295POPC   GL1 8461   4.177  20.145   9.142
  295POPC   GL2 8462   4.495  19.932   8.984
  295POPC   C1A 8463   4.191  20.165   8.679
  295POPC   D2A 8464   4.145  19.959   8.347
  295POPC   C3A 8465   4.428  19.978   8.048
  295POPC   C4A 8466   4.276  20.063   7.657
  295POPC   C1B 8467   4.392  19.629   8.657
  295POPC   C2B 8468   4.155  19.463   8.285
  295POPC   C3B 8469   4.021  19.696   7.932
  295POPC   C4B 8470   4.376  19.559   7.683
  296POPC   NC3 8471  38.466  34.283   9.707
  296POPC   PO4 8472  38.689  34.889   9.659
  296POPC   GL1 8473  38.446  34.691   9.305
  296POPC   GL2 8474  38.442  34.366   9.145
  296POPC   C1A 8475  38.557  34.744   8.839
  296POPC   D2A 8476  38.473  34.448   8.478
  296POPC   C3A 8477  38.499  34.713   8.104
  296POPC   C4A 8478  38.635  34.817   7.691
  296POPC   C1B 8479  38.252  34.068   8.822
  296POPC   C2B 8480  38.041  34.106   8.481
  296POPC   C3B 8481  38.127  34.314   8.091
  296POPC   C4B 8482  38.307  34.199   7.699
  297POPC   NC3 8483  39.315  31.126   9.549
  297POPC   PO4 8484  39.036  31.750   9.471
  297POPC   GL1 8485  39.300  31.522   9.164
  297POPC   GL2 8486  39.504  31.193   9.098
  297POPC   C1A 8487  39.354  31.642   8.736
  297POPC   D2A 8488  39.515  31.755   8.337
  297POPC   C3A 8489  39.316  31.659   7.962
  297POPC   C4A 8490  39.061  31.743   7.609
  297POPC   C1B 8491  39.374  31.116   8.676
  297POPC   C2B 8492  39.559  31.251   8.291
  297POPC   C3B 8493  39.640  31.276   7.862
  297POPC   C4B 8494  39.304  31.288   7.598
  298POPC   NC3 8495   2.148  15.907   9.805
  298POPC   PO4 8496   1.526  15.920   9.604
  298POPC   GL1 8497   1.815  15.701   9.277
  298POPC   GL2 8498   2.137  15.855   9.303
  298POPC   C1A 8499   1.793  15.689   8.797
  298POPC   D2A 8500   1.692  15.945   8.368
  298POPC   C3A 8501   1.772  15.864   7.878
  298POPC   C4A 8502   1.540  15.714   7.523
  298POPC   C1B 8503   2.289  15.773   8.939
  298POPC   C2B 8504   2.194  15.818   8.517
  298POPC   C3B 8505   2.178  15.984   8.131
  298POPC   C4B 8506   2.336  15.825   7.753
  299POPC   NC3 8507  26.004  11.167   9.560
  299POPC   PO4 8508  25.514  10.833   9.330
  299POPC   GL1 8509  25.832  11.087   9.070
  299POPC   GL2 8510  26.141  11.323   9.104
  299POPC   C1A 8511  25.940  11.120   8.624
  299POPC   D2A 8512  26.161  11.171   8.268
  299POPC   C3A 8513  25.817  11.205   8.029
  299POPC   C4A 8514  25.752  11.101   7.648
  299POPC   C1B 8515  26.005  11.583   8.778
  299POPC   C2B 8516  25.889  11.622   8.349
  299POPC   C3B 8517  25.949  11.683   7.893
  299POPC   C4B 8518  26.086  11.495   7.487
  300POPC   NC3 8519  33.311  39.071   9.316
  300POPC   PO4 8520  33.899  39.246   9.671
  300POPC   GL1 8521  33.793  39.371   9.184
  300POPC   GL2 8522  33.459  39.514   9.133
  300POPC   C1A 8523  33.937  39.222   8.731
  300POPC   D2A 8524  33.787  39.454   8.365
  300POPC   C3A 8525  34.039  39.437   8.011
  300POPC   C4A 8526  34.254  39.131   7.769
  300POPC   C1B 8527  33.444  39.259   8.731
  300POPC   C2B 8528  33.426  39.062   8.336
  300POPC   C3B 8529  33.736  39.014   8.001
  300POPC   C4B 8530  33.798  39.227   7.594
  301POPC   NC3 8531  12.410   1.609   9.639
  301POPC   PO4 8532  12.319   0.895   9.481
  301POPC   GL1 8533  12.053   1.234   9.243
  301POPC   GL2 8534  12.266   1.116   9.026
  301POPC   C1A 8535  12.026   1.457   8.776
  301POPC   D2A 8536  12.270   1.409   8.381
  301POPC   C3A 8537  12.023   1.543   8.013
  301POPC   C4A 8538  11.726   1.423   7.690
  301POPC   C1B 8539  12.153   0.957   8.651
  301POPC   C2B 8540  12.122   0.923   8.216
  301POPC   C3B 8541  12.107   1.073   7.821
  301POPC   C4B 8542  12.400   1.374   7.704
  302POPC   NC3 8543  17.773  17.390   9.883
  302POPC   PO4 8544  17.401  17.711   9.635
  302POPC   GL1 8545  17.550  17.556   9.233
  302POPC   GL2 8546  17.309  17.752   9.081
  302POPC   C1A 8547  17.612  17.436   8.774
  302POPC   D2A 8548  17.289  17.469   8.450
  302POPC   C3A 8549  17.374  17.538   7.997
  302POPC   C4A 8550  17.271  17.666   7.567
  302POPC   C1B 8551  17.539  17.935   8.735
  302POPC   C2B 8552  17.658  17.814   8.329
  302POPC   C3B 8553  17.815  17.800   7.899
  302POPC   C4B 8554  17.701  17.951   7.480
  303POPC   NC3 8555  39.343  43.030   9.752
  303POPC   PO4 8556  39.201  43.513   9.269
  303POPC   GL1 8557  39.064  43.167   9.013
  303POPC   GL2 8558  39.087  42.839   9.186
  303POPC   C1A 8559  39.244  43.120   8.601
  303POPC   D2A 8560  39.455  43.309   8.262
  303POPC   C3A 8561  39.304  43.315   7.866
  303POPC   C4A 8562  38.891  43.167   7.797
  303POPC   C1B 8563  39.406  42.727   8.864
  303POPC   C2B 8564  39.487  42.667   8.423
  303POPC   C3B 8565  39.447  42.846   8.011
  303POPC   C4B 8566  39.661  42.764   7.633
  304POPC   NC3 8567   8.076   1.398   9.529
  304POPC   PO4 8568   8.426   0.783   9.517
  304POPC   GL1 8569   8.320   1.101   9.188
  304POPC   GL2 8570   7.949   1.148   9.133
  304POPC   C1A 8571   8.283   1.340   8.798
  304POPC   D2A 8572   8.514   1.235   8.458
  304POPC   C3A 8573   8.471   1.328   8.029
  304POPC   C4A 8574   8.412   0.994   7.791
  304POPC   C1B 8575   7.724   1.277   8.813
  304POPC   C2B 8576   7.828   1.235   8.421
  304POPC   C3B 8577   7.695   1.202   8.021
  304POPC   C4B 8578   8.013   1.349   7.780
  305POPC   NC3 8579  18.591   3.253   9.383
  305POPC   PO4 8580  18.002   3.507   9.552
  305POPC   GL1 8581  18.150   3.437   9.176
  305POPC   GL2 8582  18.402   3.697   9.160
  305POPC   C1A 8583  18.262   3.444   8.763
  305POPC   D2A 8584  18.058   3.352   8.444
  305POPC   C3A 8585  18.247   3.426   8.079
  305POPC   C4A 8586  18.136   3.288   7.716
  305POPC   C1B 8587  18.546   3.867   8.770
  305POPC   C2B 8588  18.358   3.800   8.393
  305POPC   C3B 8589  18.543   3.845   8.001
  305POPC   C4B 8590  18.237   3.803   7.756
  306POPC   NC3 8591   2.683  31.814   9.465
  306POPC   PO4 8592   2.722  32.502   9.585
  306POPC   GL1 8593   2.805  32.278   9.241
  306POPC   GL2 8594   2.487  32.383   9.111
  306POPC   C1A 8595   2.917  32.044   8.873
  306POPC   D2A 8596   2.722  32.092   8.476
  306POPC   C3A 8597   2.911  32.181   8.074
  306POPC   C4A 8598   2.925  31.957   7.650
  306POPC   C1B 8599   2.791  32.542   8.795
  306POPC   C2B 8600   2.722  32.586   8.363
  306POPC   C3B 8601   2.473  32.488   8.031
  306POPC   C4B 8602   2.695  32.420   7.685
  307POPC   NC3 8603  38.735  13.753   9.558
  307POPC   PO4 8604  38.165  13.307   9.434
  307POPC   GL1 8605  38.451  13.587   9.162
  307POPC   GL2 8606  38.368  13.935   9.111
  307POPC   C1A 8607  38.574  13.660   8.708
  307POPC   D2A 8608  38.285  13.529   8.404
  307POPC   C3A 8609  38.261  13.549   7.937
  307POPC   C4A 8610  38.376  13.754   7.558
  307POPC   C1B 8611  38.667  14.144   8.798
  307POPC   C2B 8612  38.782  14.017   8.357
  307POPC   C3B 8613  38.705  13.877   7.921
  307POPC   C4B 8614  38.916  13.880   7.525
  308POPC   NC3 8615  25.577  42.799   9.821
  308POPC   PO4 8616  25.154  43.147   9.654
  308POPC   GL1 8617  25.316  43.003   9.252
  308POPC   GL2 8618  25.502  43.292   9.153
  308POPC   C1A 8619  25.260  43.006   8.778
  308POPC   D2A 8620  25.076  43.286   8.451
  308POPC   C3A 8621  25.163  43.246   7.973
  308POPC   C4A 8622  24.950  43.100   7.589
  308POPC   C1B 8623  25.572  43.404   8.712
  308POPC   C2B 8624  25.572  43.274   8.284
  308POPC   C3B 8625  25.616  43.515   7.901
  308POPC   C4B 8626  25.848  43.459   7.489
  309POPC   NC3 8627  23.946  19.878   9.513
  309POPC   PO4 8628  23.382  19.795   9.692
  309POPC   GL1 8629  23.574  19.664   9.239
  309POPC   GL2 8630  23.953  19.569   9.121
  309POPC   C1A 8631  23.546  19.513   8.800
  309POPC   D2A 8632  23.484  19.586   8.367
  309POPC   C3A 8633  23.453  19.940   8.133
  309POPC   C4A 8634  23.497  19.905   7.756
  309POPC   C1B 8635  23.817  19.950   8.876
  309POPC   C2B 8636  23.840  19.998   8.452
  309POPC   C3B 8637  23.923  19.731   8.109
  309POPC   C4B 8638  24.013  19.849   7.721
  310POPC   NC3 8639  41.376  39.508   9.425
  310POPC   PO4 8640  41.867  40.028   9.444
  310POPC   GL1 8641  41.705  40.056   9.067
  310POPC   GL2 8642  41.735  39.687   9.030
  310POPC   C1A 8643  41.435  40.229   8.750
  310POPC   D2A 8644  41.261  39.995   8.384
  310POPC   C3A 8645  41.301  40.168   7.939
  310POPC   C4A 8646  41.260  40.037   7.540
  310POPC   C1B 8647  41.806  39.877   8.597
  310POPC   C2B 8648  41.717  39.974   8.155
  310POPC   C3B 8649  41.595  39.741   7.798
  310POPC   C4B 8650  41.867  39.523   7.513
  311POPC   NC3 8651  16.821  33.647   9.628
  311POPC   PO4 8652  16.677  34.311   9.489
  311POPC   GL1 8653  16.754  33.949   9.223
  311POPC   GL2 8654  16.541  33.616   9.210
  311POPC   C1A 8655  16.848  33.940   8.804
  311POPC   D2A 8656  16.699  33.919   8.404
  311POPC   C3A 8657  16.984  33.914   8.067
  311POPC   C4A 8658  16.649  33.999   7.786
  311POPC   C1B 8659  16.814  33.430   8.878
  311POPC   C2B 8660  16.745  33.421   8.408
  311POPC   C3B 8661  16.804  33.466   7.954
  311POPC   C4B 8662  16.791  33.585   7.527
  312POPC   NC3 8663  44.536  41.231   9.456
  312POPC   PO4 8664  44.960  41.756   9.469
  312POPC   GL1 8665  44.842  41.547   9.130
  312POPC   GL2 8666  44.956  41.205   9.168
  312POPC   C1A 8667  44.740  41.694   8.731
  312POPC   D2A 8668  44.451  41.735   8.368
  312POPC   C3A 8669  44.574  41.687   7.945
  312POPC   C4A 8670  44.365  41.697   7.554
  312POPC   C1B 8671  44.689  41.196   8.795
  312POPC   C2B 8672  44.762  41.315   8.373
  312POPC   C3B 8673  44.616  41.173   7.990
  312POPC   C4B 8674  44.706  41.327   7.577
  313POPC   NC3 8675   4.657  14.159   9.368
  313POPC   PO4 8676   4.280  14.646   9.392
  313POPC   GL1 8677   4.357  14.405   9.038
  313POPC   GL2 8678   4.695  14.509   8.969
  313POPC   C1A 8679   4.202  14.427   8.634
  313POPC   D2A 8680   4.141  14.723   8.287
  313POPC   C3A 8681   4.171  14.542   7.886
  313POPC   C4A 8682   4.279  14.135   7.760
  313POPC   C1B 8683   4.675  14.164   8.684
  313POPC   C2B 8684   4.464  14.146   8.282
  313POPC   C3B 8685   4.708  13.941   7.998
  313POPC   C4B 8686   4.856  14.031   7.638
  314POPC   NC3 8687  22.714  33.533   9.558
  314POPC   PO4 8688  23.313  33.872   9.321
  314POPC   GL1 8689  22.998  34.041   9.076
  314POPC   GL2 8690  22.701  33.840   9.147
  314POPC   C1A 8691  22.905  33.928   8.650
  314POPC   D2A 8692  23.120  33.626   8.383
  314POPC   C3A 8693  23.170  33.808   7.992
  314POPC   C4A 8694  22.863  34.095   7.796
  314POPC   C1B 8695  22.648  33.515   8.814
  314POPC   C2B 8696  22.465  33.546   8.426
  314POPC   C3B 8697  22.676  33.649   8.051
  314POPC   C4B 8698  22.923  33.395   7.797
  315POPC   NC3 8699   2.721  34.568   9.672
  315POPC   PO4 8700   2.011  34.586   9.527
  315POPC   GL1 8701   1.936  34.523   9.164
  315POPC   GL2 8702   1.723  34.218   9.150
  315POPC   C1A 8703   2.178  34.692   8.818
  315POPC   D2A 8704   2.081  34.799   8.409
  315POPC   C3A 8705   2.277  34.721   8.019
  315POPC   C4A 8706   2.052  34.768   7.662
  315POPC   C1B 8707   2.032  34.210   8.797
  315POPC   C2B 8708   1.881  34.234   8.429
  315POPC   C3B 8709   2.017  34.299   8.054
  315POPC   C4B 8710   2.142  34.287   7.627
  316POPC   NC3 8711  41.968  42.782   9.724
  316POPC   PO4 8712  42.444  42.269   9.620
  316POPC   GL1 8713  42.434  42.037   9.171
  316POPC   GL2 8714  42.174  42.191   9.009
  316POPC   C1A 8715  42.540  42.196   8.691
  316POPC   D2A 8716  42.391  42.457   8.326
  316POPC   C3A 8717  42.490  42.308   7.901
  316POPC   C4A 8718  42.354  42.557   7.524
  316POPC   C1B 8719  41.937  42.231   8.633
  316POPC   C2B 8720  41.768  42.119   8.264
  316POPC   C3B 8721  41.978  42.324   7.960
  316POPC   C4B 8722  41.986  42.226   7.520
  317POPC   NC3 8723  38.758  22.534   9.575
  317POPC   PO4 8724  38.380  22.036   9.653
  317POPC   GL1 8725  38.475  22.251   9.206
  317POPC   GL2 8726  38.837  22.363   9.114
  317POPC   C1A 8727  38.235  22.348   8.779
  317POPC   D2A 8728  38.099  22.343   8.329
  317POPC   C3A 8729  38.189  21.944   8.126
  317POPC   C4A 8730  38.472  21.708   7.849
  317POPC   C1B 8731  38.715  22.478   8.716
  317POPC   C2B 8732  38.665  22.260   8.320
  317POPC   C3B 8733  38.530  22.264   7.895
  317POPC   C4B 8734  38.691  22.367   7.433
  318POPC   NC3 8735  30.368  24.482   9.456
  318POPC   PO4 8736  29.814  24.834   9.534
  318POPC   GL1 8737  29.850  24.616   9.148
  318POPC   GL2 8738  29.872  24.248   9.163
  318POPC   C1A 8739  30.063  24.637   8.755
  318POPC   D2A 8740  30.185  24.516   8.342
  318POPC   C3A 8741  29.948  24.743   8.059
  318POPC   C4A 8742  29.846  24.622   7.655
  318POPC   C1B 8743  30.079  24.149   8.738
  318POPC   C2B 8744  29.910  24.103   8.337
  318POPC   C3B 8745  29.612  24.294   8.047
  318POPC   C4B 8746  29.579  24.136   7.633
  319POPC   NC3 8747  16.804  23.615   9.609
  319POPC   PO4 8748  16.297  24.098   9.337
  319POPC   GL1 8749  16.524  23.734   9.210
  319POPC   GL2 8750  16.874  23.740   9.117
  319POPC   C1A 8751  16.474  23.488   8.823
  319POPC   D2A 8752  16.695  23.627   8.469
  319POPC   C3A 8753  16.844  23.460   8.104
  319POPC   C4A 8754  16.670  23.638   7.740
  319POPC   C1B 8755  16.709  24.012   8.821
  319POPC   C2B 8756  16.700  24.149   8.427
  319POPC   C3B 8757  16.848  23.990   8.051
  319POPC   C4B 8758  17.035  24.014   7.642
  320POPC   NC3 8759  34.702  32.400   9.530
  320POPC   PO4 8760  34.423  31.822   9.452
  320POPC   GL1 8761  34.315  32.204   9.191
  320POPC   GL2 8762  34.583  32.462   9.053
  320POPC   C1A 8763  34.230  32.266   8.760
  320POPC   D2A 8764  34.514  32.288   8.412
  320POPC   C3A 8765  34.393  32.378   7.983
  320POPC   C4A 8766  34.412  32.087   7.642
  320POPC   C1B 8767  34.749  32.070   8.826
  320POPC   C2B 8768  34.946  32.018   8.385
  320POPC   C3B 8769  34.878  32.177   7.971
  320POPC   C4B 8770  34.773  32.498   7.654
  321POPC   NC3 8771   0.207  26.997   9.679
  321POPC   PO4 8772   0.404  26.375   9.658
  321POPC   GL1 8773   0.495  26.703   9.279
  321POPC   GL2 8774   0.771  26.493   9.160
  321POPC   C1A 8775   0.387  27.031   8.850
  321POPC   D2A 8776   0.059  27.039   8.473
  321POPC   C3A 8777   0.115  26.783   8.057
  321POPC   C4A 8778   0.275  26.793   7.612
  321POPC   C1B 8779   0.597  26.586   8.789
  321POPC   C2B 8780   0.484  26.703   8.402
  321POPC   C3B 8781   0.635  26.757   8.006
  321POPC   C4B 8782   0.694  26.497   7.613
  322POPC   NC3 8783  33.964  32.816   9.446
  322POPC   PO4 8784  33.498  33.191   9.688
  322POPC   GL1 8785  33.518  32.922   9.199
  322POPC   GL2 8786  33.868  32.978   8.979
  322POPC   C1A 8787  33.444  32.887   8.723
  322POPC   D2A 8788  33.680  33.181   8.449
  322POPC   C3A 8789  33.786  33.262   8.026
  322POPC   C4A 8790  33.575  33.132   7.694
  322POPC   C1B 8791  34.123  33.251   8.682
  322POPC   C2B 8792  34.172  33.039   8.290
  322POPC   C3B 8793  33.938  32.779   7.964
  322POPC   C4B 8794  33.939  32.854   7.499
  323POPC   NC3 8795  18.657  35.361   9.546
  323POPC   PO4 8796  19.276  35.090   9.571
  323POPC   GL1 8797  19.128  35.246   9.121
  323POPC   GL2 8798  18.767  35.167   9.087
  323POPC   C1A 8799  19.175  35.569   8.725
  323POPC   D2A 8800  19.221  35.544   8.261
  323POPC   C3A 8801  19.057  35.161   8.097
  323POPC   C4A 8802  19.081  34.978   7.693
  323POPC   C1B 8803  18.874  35.178   8.636
  323POPC   C2B 8804  18.688  35.435   8.296
  323POPC   C3B 8805  18.660  35.365   7.831
  323POPC   C4B 8806  18.615  35.044   7.492
  324POPC   NC3 8807  33.656  29.291   9.478
  324POPC   PO4 8808  34.133  28.802   9.401
  324POPC   GL1 8809  33.819  28.962   9.103
  324POPC   GL2 8810  33.463  28.840   9.043
  324POPC   C1A 8811  33.880  29.075   8.683
  324POPC   D2A 8812  33.693  29.060   8.294
  324POPC   C3A 8813  33.985  29.152   7.959
  324POPC   C4A 8814  34.138  29.235   7.567
  324POPC   C1B 8815  33.382  29.151   8.710
  324POPC   C2B 8816  33.532  29.523   8.459
  324POPC   C3B 8817  33.597  29.484   8.005
  324POPC   C4B 8818  33.502  29.035   7.822
  325POPC   NC3 8819  11.342  15.387   9.427
  325POPC   PO4 8820  11.354  14.756   9.454
  325POPC   GL1 8821  11.369  14.973   9.102
  325POPC   GL2 8822  11.033  15.024   9.078
  325POPC   C1A 8823  11.605  15.002   8.732
  325POPC   D2A 8824  11.794  15.006   8.363
  325POPC   C3A 8825  11.563  14.996   7.982
  325POPC   C4A 8826  11.472  14.955   7.526
  325POPC   C1B 8827  11.155  15.269   8.692
  325POPC   C2B 8828  11.348  15.412   8.261
  325POPC   C3B 8829  11.307  15.384   7.773
  325POPC   C4B 8830  11.476  15.442   7.323
  326POPC   NC3 8831  29.397  24.487   9.449
  326POPC   PO4 8832  28.869  24.113   9.274
  326POPC   GL1 8833  29.023  24.466   9.024
  326POPC   GL2 8834  29.375  24.572   8.945
  326POPC   C1A 8835  29.145  24.251   8.638
  326POPC   D2A 8836  28.999  24.089   8.277
  326POPC   C3A 8837  29.063  24.425   8.001
  326POPC   C4A 8838  28.889  24.767   7.768
  326POPC   C1B 8839  29.596  24.486   8.543
  326POPC   C2B 8840  29.464  24.760   8.224
  326POPC   C3B 8841  29.397  24.732   7.807
  326POPC   C4B 8842  29.437  24.885   7.366
  327POPC   NC3 8843  44.019  30.644   9.482
  327POPC   PO4 8844  43.456  30.237   9.675
  327POPC   GL1 8845  43.593  30.420   9.259
  327POPC   GL2 8846  43.611  30.795   9.240
  327POPC   C1A 8847  43.703  30.565   8.802
  327POPC   D2A 8848  43.526  30.780   8.418
  327POPC   C3A 8849  43.641  30.565   8.045
  327POPC   C4A 8850  43.973  30.681   7.788
  327POPC   C1B 8851  43.641  31.099   8.880
  327POPC   C2B 8852  43.849  31.178   8.470
  327POPC   C3B 8853  43.775  31.101   8.010
  327POPC   C4B 8854  44.077  31.154   7.638
  328POPC   NC3 8855  31.479   1.962   9.654
  328POPC   PO4 8856  31.925   2.345   9.323
  328POPC   GL1 8857  31.490   2.213   9.186
  328POPC   GL2 8858  31.407   1.835   9.126
  328POPC   C1A 8859  31.422   2.143   8.736
  328POPC   D2A 8860  31.408   1.845   8.397
  328POPC   C3A 8861  31.547   2.037   8.053
  328POPC   C4A 8862  31.710   1.862   7.729
  328POPC   C1B 8863  31.069   1.780   8.770
  328POPC   C2B 8864  30.943   1.664   8.351
  328POPC   C3B 8865  31.112   1.709   7.946
  328POPC   C4B 8866  31.137   1.573   7.511
  329POPC   NC3 8867  23.106  17.820   9.323
  329POPC   PO4 8868  22.442  17.733   9.438
  329POPC   GL1 8869  22.709  17.533   9.108
  329POPC   GL2 8870  23.054  17.335   9.145
  329POPC   C1A 8871  22.840  17.584   8.667
  329POPC   D2A 8872  22.865  17.869   8.313
  329POPC   C3A 8873  22.931  17.695   7.895
  329POPC   C4A 8874  22.730  17.589   7.481
  329POPC   C1B 8875  23.237  17.246   8.728
  329POPC   C2B 8876  23.122  17.312   8.281
  329POPC   C3B 8877  23.177  17.248   7.879
  329POPC   C4B 8878  23.219  17.477   7.519
  330POPC   NC3 8879   5.097  26.331   9.444
  330POPC   PO4 8880   5.389  25.733   9.500
  330POPC   GL1 8881   5.054  25.842   9.157
  330POPC   GL2 8882   4.777  26.120   9.125
  330POPC   C1A 8883   5.105  25.981   8.725
  330POPC   D2A 8884   5.247  25.949   8.293
  330POPC   C3A 8885   4.972  25.832   7.949
  330POPC   C4A 8886   4.800  26.117   7.675
  330POPC   C1B 8887   4.887  26.433   8.802
  330POPC   C2B 8888   5.069  26.483   8.392
  330POPC   C3B 8889   5.157  26.347   7.970
  330POPC   C4B 8890   5.317  26.384   7.522
  331POPC   NC3 8891  31.469   4.737   9.545
  331POPC   PO4 8892  31.612   5.416   9.484
  331POPC   GL1 8893  31.469   5.073   9.157
  331POPC   GL2 8894  31.180   4.808   9.137
  331POPC   C1A 8895  31.631   4.956   8.744
  331POPC   D2A 8896  31.445   5.002   8.331
  331POPC   C3A 8897  31.488   5.196   7.891
  331POPC   C4A 8898  31.299   5.426   7.545
  331POPC   C1B 8899  31.146   4.788   8.717
  331POPC   C2B 8900  31.151   4.560   8.350
  331POPC   C3B 8901  31.215   4.747   7.975
  331POPC   C4B 8902  31.651   4.711   7.877
  332POPC   NC3 8903  40.510  41.879   9.597
  332POPC   PO4 8904  40.887  41.372   9.586
  332POPC   GL1 8905  40.919  41.553   9.155
  332POPC   GL2 8906  40.848  41.923   9.194
  332POPC   C1A 8907  41.072  41.623   8.715
  332POPC   D2A 8908  41.251  41.502   8.313
  332POPC   C3A 8909  40.973  41.591   7.940
  332POPC   C4A 8910  40.863  41.458   7.488
  332POPC   C1B 8911  40.775  42.048   8.769
  332POPC   C2B 8912  40.796  41.866   8.354
  332POPC   C3B 8913  40.631  41.971   7.999
  332POPC   C4B 8914  40.761  41.946   7.601
  333POPC   NC3 8915   8.759  43.672   9.565
  333POPC   PO4 8916   9.292  44.132   9.578
  333POPC   GL1 8917   9.019  44.015   9.236
  333POPC   GL2 8918   8.999  44.363   9.161
  333POPC   C1A 8919   8.972  43.699   8.877
  333POPC   D2A 8920   9.111  43.612   8.426
  333POPC   C3A 8921   8.850  43.741   8.058
  333POPC   C4A 8922   8.746  43.811   7.621
  333POPC   C1B 8923   8.942  44.191   8.739
  333POPC   C2B 8924   9.096  44.141   8.314
  333POPC   C3B 8925   8.942  44.199   7.885
  333POPC   C4B 8926   8.927  44.228   7.384
  334POPC   NC3 8927  31.758  42.843   9.520
  334POPC   PO4 8928  31.906  43.535   9.216
  334POPC   GL1 8929  31.611  43.229   8.999
  334POPC   GL2 8930  31.573  42.883   9.052
  334POPC   C1A 8931  31.388  43.114   8.622
  334POPC   D2A 8932  31.208  43.358   8.286
  334POPC   C3A 8933  31.343  43.246   7.905
  334POPC   C4A 8934  31.525  43.197   7.499
  334POPC   C1B 8935  31.509  42.615   8.729
  334POPC   C2B 8936  31.717  42.770   8.358
  334POPC   C3B 8937  31.494  42.764   8.015
  334POPC   C4B 8938  31.297  42.772   7.627
  335POPC   NC3 8939   6.674  19.339   9.593
  335POPC   PO4 8940   6.931  19.939   9.597
  335POPC   GL1 8941   6.826  19.739   9.242
  335POPC   GL2 8942   6.614  20.035   9.183
  335POPC   C1A 8943   6.651  19.655   8.853
  335POPC   D2A 8944   6.420  19.639   8.498
  335POPC   C3A 8945   6.621  19.630   8.110
  335POPC   C4A 8946   6.610  19.867   7.752
  335POPC   C1B 8947   6.742  20.167   8.754
  335POPC   C2B 8948   6.805  20.049   8.343
  335POPC   C3B 8949   6.766  20.311   7.983
  335POPC   C4B 8950   6.509  20.375   7.587
  336POPC   NC3 8951   8.467  29.733   9.484
  336POPC   PO4 8952   8.053  30.267   9.480
  336POPC   GL1 8953   8.356  30.118   9.183
  336POPC   GL2 8954   8.155  29.837   9.072
  336POPC   C1A 8955   8.473  30.086   8.756
  336POPC   D2A 8956   8.188  29.995   8.456
  336POPC   C3A 8957   8.266  30.190   8.105
  336POPC   C4A 8958   8.263  30.141   7.661
  336POPC   C1B 8959   7.817  29.771   8.739
  336POPC   C2B 8960   7.770  29.752   8.277
  336POPC   C3B 8961   8.027  29.752   7.897
  336POPC   C4B 8962   8.245  29.539   7.564
  337POPC   NC3 8963  42.924  20.244   9.388
  337POPC   PO4 8964  42.830  19.589   9.607
  337POPC   GL1 8965  43.063  19.717   9.221
  337POPC   GL2 8966  42.758  19.843   9.064
  337POPC   C1A 8967  43.273  19.839   8.792
  337POPC   D2A 8968  43.141  19.923   8.379
  337POPC   C3A 8969  43.276  19.894   7.973
  337POPC   C4A 8970  43.017  20.088   7.723
  337POPC   C1B 8971  42.906  19.491   8.788
  337POPC   C2B 8972  42.979  19.432   8.385
  337POPC   C3B 8973  42.843  19.645   8.029
  337POPC   C4B 8974  42.966  19.599   7.641
  338POPC   NC3 8975  43.169  24.875   9.576
  338POPC   PO4 8976  43.407  24.222   9.602
  338POPC   GL1 8977  43.276  24.511   9.213
  338POPC   GL2 8978  42.923  24.658   9.184
  338POPC   C1A 8979  43.155  24.525   8.744
  338POPC   D2A 8980  42.946  24.400   8.363
  338POPC   C3A 8981  43.103  24.499   7.942
  338POPC   C4A 8982  43.204  24.607   7.518
  338POPC   C1B 8983  42.790  24.881   8.806
  338POPC   C2B 8984  42.503  24.734   8.476
  338POPC   C3B 8985  42.626  24.649   8.049
  338POPC   C4B 8986  42.801  24.937   7.737
  339POPC   NC3 8987  35.980   3.100   9.626
  339POPC   PO4 8988  36.528   2.864   9.494
  339POPC   GL1 8989  36.285   2.736   9.141
  339POPC   GL2 8990  36.105   3.059   9.133
  339POPC   C1A 8991  36.072   2.764   8.719
  339POPC   D2A 8992  36.192   2.993   8.332
  339POPC   C3A 8993  36.095   2.719   8.002
  339POPC   C4A 8994  36.159   2.460   7.640
  339POPC   C1B 8995  35.809   3.199   8.805
  339POPC   C2B 8996  35.680   3.054   8.385
  339POPC   C3B 8997  35.746   3.109   7.940
  339POPC   C4B 8998  35.801   2.833   7.600
  340POPC   NC3 8999  37.365   3.294   9.557
  340POPC   PO4 9000  37.769   2.908   9.430
  340POPC   GL1 9001  37.940   3.152   9.071
  340POPC   GL2 9002  37.719   3.436   9.089
  340POPC   C1A 9003  38.003   3.325   8.668
  340POPC   D2A 9004  37.690   3.520   8.381
  340POPC   C3A 9005  37.486   3.422   7.995
  340POPC   C4A 9006  37.402   3.651   7.595
  340POPC   C1B 9007  37.850   3.792   8.782
  340POPC   C2B 9008  38.004   3.923   8.350
  340POPC   C3B 9009  37.776   3.831   7.984
  340POPC   C4B 9010  37.873   3.889   7.606
  341POPC   NC3 9011   6.850  13.025   9.392
  341POPC   PO4 9012   6.292  12.831   9.731
  341POPC   GL1 9013   6.508  12.677   9.226
  341POPC   GL2 9014   6.573  12.965   8.995
  341POPC   C1A 9015   6.800  12.604   8.756
  341POPC   D2A 9016   6.637  12.654   8.268
  341POPC   C3A 9017   6.876  12.727   7.888
  341POPC   C4A 9018   6.862  13.105   7.640
  341POPC   C1B 9019   6.347  12.810   8.680
  341POPC   C2B 9020   6.243  12.989   8.315
  341POPC   C3B 9021   6.089  12.726   8.007
  341POPC   C4B 9022   6.401  12.885   7.775
  342POPC   NC3 9023  44.305  20.727   9.700
  342POPC   PO4 9024  43.814  20.323   9.616
  342POPC   GL1 9025  43.896  20.492   9.209
  342POPC   GL2 9026  44.087  20.780   9.238
  342POPC   C1A 9027  43.809  20.433   8.778
  342POPC   D2A 9028  43.987  20.386   8.415
  342POPC   C3A 9029  43.740  20.603   8.105
  342POPC   C4A 9030  43.530  20.682   7.702
  342POPC   C1B 9031  44.317  20.940   8.877
  342POPC   C2B 9032  44.202  20.858   8.452
  342POPC   C3B 9033  44.096  20.993   8.032
  342POPC   C4B 9034  44.029  20.740   7.702
  343POPC   NC3 9035   5.858  21.822   9.418
  343POPC   PO4 9036   5.521  22.253   9.733
  343POPC   GL1 9037   5.675  22.293   9.252
  343POPC   GL2 9038   6.038  22.335   9.162
  343POPC   C1A 9039   5.705  22.250   8.778
  343POPC   D2A 9040   6.008  21.975   8.557
  343POPC   C3A 9041   6.038  21.970   8.104
  343POPC   C4A 9042   5.708  22.028   7.810
  343POPC   C1B 9043   6.282  22.473   8.804
  343POPC   C2B 9044   6.078  22.509   8.414
  343POPC   C3B 9045   5.793  22.447   8.104
  343POPC   C4B 9046   6.053  22.412   7.735
  344POPC   NC3 9047  24.375  10.485   9.556
  344POPC   PO4 9048  25.005  10.402   9.423
  344POPC   GL1 9049  24.673  10.467   9.127
  344POPC   GL2 9050  24.400  10.745   9.116
  344POPC   C1A 9051  24.597  10.488   8.700
  344POPC   D2A 9052  24.312  10.534   8.366
  344POPC   C3A 9053  24.418  10.368   8.000
  344POPC   C4A 9054  24.593  10.680   7.712
  344POPC   C1B 9055  24.106  10.599   8.837
  344POPC   C2B 9056  23.880  10.346   8.557
  344POPC   C3B 9057  23.872  10.467   8.124
  344POPC   C4B 9058  24.120  10.784   7.900
  345POPC   NC3 9059  20.820   8.795   9.318
  345POPC   PO4 9060  20.238   9.091   9.472
  345POPC   GL1 9061  20.518   9.144   9.111
  345POPC   GL2 9062  20.876   9.226   9.048
  345POPC   C1A 9063  20.564   8.834   8.739
  345POPC   D2A 9064  20.675   8.535   8.443
  345POPC   C3A 9065  20.578   8.721   8.061
  345POPC   C4A 9066  20.664   8.707   7.623
  345POPC   C1B 9067  20.677   9.326   8.665
  345POPC   C2B 9068  20.569   9.241   8.243
  345POPC   C3B 9069  20.724   9.483   7.889
  345POPC   C4B 9070  20.945   9.375   7.496
  346POPC   NC3 9071  19.434  28.038   9.541
  346POPC   PO4 9072  20.169  28.071   9.462
  346POPC   GL1 9073  19.821  28.193   9.166
  346POPC   GL2 9074  20.043  28.438   9.077
  346POPC   C1A 9075  19.630  28.363   8.739
  346POPC   D2A 9076  19.448  28.348   8.296
  346POPC   C3A 9077  19.678  28.267   7.901
  346POPC   C4A 9078  20.027  27.994   7.904
  346POPC   C1B 9079  20.110  28.252   8.691
  346POPC   C2B 9080  19.979  28.360   8.290
  346POPC   C3B 9081  20.156  28.531   7.897
  346POPC   C4B 9082  20.250  28.655   7.453
  347POPC   NC3 9083  11.603  30.530   9.568
  347POPC   PO4 9084  12.155  30.948   9.435
  347POPC   GL1 9085  11.933  30.645   9.174
  347POPC   GL2 9086  11.608  30.857   9.146
  347POPC   C1A 9087  12.139  30.499   8.792
  347POPC   D2A 9088  12.471  30.680   8.483
  347POPC   C3A 9089  12.374  30.456   8.089
  347POPC   C4A 9090  12.166  30.475   7.677
  347POPC   C1B 9091  11.853  30.912   8.743
  347POPC   C2B 9092  11.999  30.749   8.341
  347POPC   C3B 9093  12.101  30.915   7.932
  347POPC   C4B 9094  11.747  31.127   7.794
  348POPC   NC3 9095   1.498   7.906   9.620
  348POPC   PO4 9096   1.176   8.595   9.590
  348POPC   GL1 9097   1.350   8.472   9.145
  348POPC   GL2 9098   1.359   8.096   9.127
  348POPC   C1A 9099   1.257   8.382   8.690
  348POPC   D2A 9100   0.935   8.404   8.321
  348POPC   C3A 9101   1.071   8.314   7.924
  348POPC   C4A 9102   1.471   8.429   7.814
  348POPC   C1B 9103   1.289   7.853   8.729
  348POPC   C2B 9104   1.196   7.914   8.271
  348POPC   C3B 9105   1.376   7.915   7.851
  348POPC   C4B 9106   1.406   7.661   7.489
  349POPC   NC3 9107  21.593  42.421  10.101
  349POPC   PO4 9108  21.136  42.514   9.582
  349POPC   GL1 9109  21.309  42.375   9.210
  349POPC   GL2 9110  21.275  42.062   9.173
  349POPC   C1A 9111  21.236  42.415   8.777
  349POPC   D2A 9112  21.276  42.619   8.415
  349POPC   C3A 9113  21.376  42.416   8.045
  349POPC   C4A 9114  21.323  42.622   7.651
  349POPC   C1B 9115  21.013  41.960   8.795
  349POPC   C2B 9116  21.146  42.062   8.361
  349POPC   C3B 9117  20.982  42.113   7.925
  349POPC   C4B 9118  21.229  42.138   7.561
  350POPC   NC3 9119  42.823  31.118   9.486
  350POPC   PO4 9120  43.112  31.779   9.561
  350POPC   GL1 9121  43.111  31.489   9.278
  350POPC   GL2 9122  42.770  31.534   9.205
  350POPC   C1A 9123  43.162  31.408   8.882
  350POPC   D2A 9124  43.005  31.451   8.492
  350POPC   C3A 9125  43.226  31.202   8.188
  350POPC   C4A 9126  43.159  31.348   7.748
  350POPC   C1B 9127  42.637  31.734   8.852
  350POPC   C2B 9128  42.660  31.837   8.433
  350POPC   C3B 9129  42.929  31.774   8.085
  350POPC   C4B 9130  42.769  31.723   7.679
  351POPC   NC3 9131   1.569  10.491   9.680
  351POPC   PO4 9132   1.435  11.102   9.556
  351POPC   GL1 9133   1.463  10.815   9.201
  351POPC   GL2 9134   1.422  10.440   9.195
  351POPC   C1A 9135   1.301  10.725   8.779
  351POPC   D2A 9136   1.460  10.843   8.384
  351POPC   C3A 9137   1.203  10.689   8.036
  351POPC   C4A 9138   1.283  10.415   7.672
  351POPC   C1B 9139   1.596  10.293   8.802
  351POPC   C2B 9140   1.372  10.325   8.414
  351POPC   C3B 9141   1.335  10.090   8.041
  351POPC   C4B 9142   1.635  10.018   7.719
  352POPC   NC3 9143   2.197  40.467   9.286
  352POPC   PO4 9144   2.278  41.110   9.329
  352POPC   GL1 9145   1.970  40.875   9.049
  352POPC   GL2 9146   1.717  40.578   9.116
  352POPC   C1A 9147   2.158  40.829   8.633
  352POPC   D2A 9148   2.075  41.002   8.242
  352POPC   C3A 9149   2.310  40.863   7.900
  352POPC   C4A 9150   2.387  41.060   7.543
  352POPC   C1B 9151   1.848  40.433   8.715
  352POPC   C2B 9152   1.758  40.619   8.339
  352POPC   C3B 9153   1.567  40.836   8.007
  352POPC   C4B 9154   1.779  40.605   7.711
  353POPC   NC3 9155  23.391  44.197   9.250
  353POPC   PO4 9156  24.017  44.284   9.479
  353POPC   GL1 9157  23.861  44.113   9.119
  353POPC   GL2 9158  23.705  43.801   9.077
  353POPC   C1A 9159  23.825  44.200   8.715
  353POPC   D2A 9160  23.557  44.217   8.371
  353POPC   C3A 9161  23.643  43.999   7.986
  353POPC   C4A 9162  23.819  43.811   7.627
  353POPC   C1B 9163  23.420  43.846   8.701
  353POPC   C2B 9164  23.295  43.686   8.293
  353POPC   C3B 9165  23.451  43.542   7.882
  353POPC   C4B 9166  23.389  43.601   7.423
  354POPC   NC3 9167  37.416  31.324   9.717
  354POPC   PO4 9168  36.811  31.569   9.402
  354POPC   GL1 9169  36.870  31.640   8.988
  354POPC   GL2 9170  37.144  31.816   9.042
  354POPC   C1A 9171  36.987  31.400   8.622
  354POPC   D2A 9172  36.793  31.232   8.265
  354POPC   C3A 9173  36.819  31.597   7.962
  354POPC   C4A 9174  36.699  31.643   7.495
  354POPC   C1B 9175  37.192  32.046   8.678
  354POPC   C2B 9176  37.162  31.917   8.245
  354POPC   C3B 9177  37.297  31.858   7.831
  354POPC   C4B 9178  37.180  31.508   7.615
  355POPC   NC3 9179  22.702  37.683   9.485
  355POPC   PO4 9180  23.187  37.254   9.641
  355POPC   GL1 9181  23.132  37.539   9.260
  355POPC   GL2 9182  23.354  37.801   9.169
  355POPC   C1A 9183  22.995  37.657   8.839
  355POPC   D2A 9184  22.898  37.466   8.463
  355POPC   C3A 9185  22.948  37.652   8.065
  355POPC   C4A 9186  22.741  37.386   7.753
  355POPC   C1B 9187  23.323  38.018   8.767
  355POPC   C2B 9188  23.115  38.064   8.387
  355POPC   C3B 9189  23.284  38.079   7.984
  355POPC   C4B 9190  23.124  37.872   7.649
  356POPC   NC3 9191  12.759  29.692   9.455
  356POPC   PO4 9192  12.936  30.331   9.343
  356POPC   GL1 9193  12.947  30.010   9.047
  356POPC   GL2 9194  12.604  29.857   9.008
  356POPC   C1A 9195  13.154  29.995   8.640
  356POPC   D2A 9196  13.094  29.900   8.194
  356POPC   C3A 9197  12.907  30.008   7.805
  356POPC   C4A 9198  12.934  30.100   7.347
  356POPC   C1B 9199  12.777  29.644   8.649
  356POPC   C2B 9200  12.854  29.438   8.252
  356POPC   C3B 9201  12.663  29.563   7.868
  356POPC   C4B 9202  12.813  29.630   7.455
  357POPC   NC3 9203  20.966  32.622   9.862
  357POPC   PO4 9204  21.374  32.169   9.581
  357POPC   GL1 9205  21.419  32.451   9.213
  357POPC   GL2 9206  21.119  32.371   9.024
  357POPC   C1A 9207  21.546  32.467   8.760
  357POPC   D2A 9208  21.692  32.227   8.397
  357POPC   C3A 9209  21.784  32.491   8.042
  357POPC   C4A 9210  21.546  32.460   7.686
  357POPC   C1B 9211  21.262  31.994   8.758
  357POPC   C2B 9212  21.257  31.857   8.342
  357POPC   C3B 9213  21.419  32.024   7.980
  357POPC   C4B 9214  21.186  32.042   7.610
  358POPC   NC3 9215  34.428  13.935   9.341
  358POPC   PO4 9216  34.615  14.485   9.529
  358POPC   GL1 9217  34.625  14.628   9.121
  358POPC   GL2 9218  34.345  14.386   9.062
  358POPC   C1A 9219  34.643  14.522   8.674
  358POPC   D2A 9220  34.429  14.414   8.296
  358POPC   C3A 9221  34.696  14.523   7.965
  358POPC   C4A 9222  34.975  14.786   7.729
  358POPC   C1B 9223  34.442  14.062   8.721
  358POPC   C2B 9224  34.648  13.962   8.356
  358POPC   C3B 9225  34.460  14.002   7.969
  358POPC   C4B 9226  34.669  14.154   7.613
  359POPC   NC3 9227   2.968  16.253   9.595
  359POPC   PO4 9228   2.728  16.935   9.507
  359POPC   GL1 9229   2.803  16.659   9.188
  359POPC   GL2 9230   3.141  16.567   9.227
  359POPC   C1A 9231   2.520  16.607   8.844
  359POPC   D2A 9232   2.464  16.795   8.452
  359POPC   C3A 9233   2.698  16.715   8.077
  359POPC   C4A 9234   2.447  16.718   7.712
  359POPC   C1B 9235   3.020  16.487   8.757
  359POPC   C2B 9236   2.978  16.331   8.321
  359POPC   C3B 9237   3.068  16.392   7.863
  359POPC   C4B 9238   2.895  16.604   7.514
  360POPC   NC3 9239  20.743  42.832   9.559
  360POPC   PO4 9240  20.359  43.404   9.353
  360POPC   GL1 9241  20.560  43.380   9.017
  360POPC   GL2 9242  20.793  43.124   9.123
  360POPC   C1A 9243  20.486  43.115   8.684
  360POPC   D2A 9244  20.381  42.820   8.339
  360POPC   C3A 9245  20.517  42.973   7.942
  360POPC   C4A 9246  20.536  43.313   7.638
  360POPC   C1B 9247  21.059  42.918   8.809
  360POPC   C2B 9248  20.879  42.957   8.386
  360POPC   C3B 9249  20.980  43.183   8.000
  360POPC   C4B 9250  20.951  42.992   7.617
  361POPC   NC3 9251  30.956  34.300   9.289
  361POPC   PO4 9252  30.456  34.718   9.508
  361POPC   GL1 9253  30.589  34.657   9.091
  361POPC   GL2 9254  30.938  34.715   8.969
  361POPC   C1A 9255  30.576  34.874   8.673
  361POPC   D2A 9256  30.821  34.931   8.317
  361POPC   C3A 9257  30.470  34.832   8.081
  361POPC   C4A 9258  30.299  34.634   7.694
  361POPC   C1B 9259  30.696  34.365   8.699
  361POPC   C2B 9260  30.714  34.118   8.350
  361POPC   C3B 9261  30.694  34.320   7.949
  361POPC   C4B 9262  30.830  34.705   7.760
  362POPC   NC3 9263  44.678  24.015   9.359
  362POPC   PO4 9264  44.362  23.363   9.206
  362POPC   GL1 9265  44.591  23.646   9.003
  362POPC   GL2 9266  44.948  23.652   9.049
  362POPC   C1A 9267  44.733  23.663   8.601
  362POPC   D2A 9268  44.764  23.785   8.242
  362POPC   C3A 9269  44.366  23.760   8.050
  362POPC   C4A 9270  44.244  23.440   7.734
  362POPC   C1B 9271   0.083  24.011   8.758
  362POPC   C2B 9272   0.251  23.950   8.323
  362POPC   C3B 9273   0.106  24.004   7.919
  362POPC   C4B 9274  44.767  23.818   7.749
  363POPC   NC3 9275  31.936  28.842   9.442
  363POPC   PO4 9276  32.522  29.207   9.475
  363POPC   GL1 9277  32.273  29.196   9.118
  363POPC   GL2 9278  31.946  29.305   9.091
  363POPC   C1A 9279  32.120  28.947   8.790
  363POPC   D2A 9280  32.150  28.808   8.380
  363POPC   C3A 9281  32.122  28.981   7.965
  363POPC   C4A 9282  32.331  28.885   7.586
  363POPC   C1B 9283  32.023  29.466   8.738
  363POPC   C2B 9284  32.195  29.340   8.396
  363POPC   C3B 9285  32.117  29.491   8.012
  363POPC   C4B 9286  32.188  29.359   7.581
  364POPC   NC3 9287   2.475  37.123   9.556
  364POPC   PO4 9288   2.633  36.449   9.414
  364POPC   GL1 9289   2.630  36.811   9.181
  364POPC   GL2 9290   2.931  36.847   9.303
  364POPC   C1A 9291   2.663  36.966   8.763
  364POPC   D2A 9292   2.596  36.819   8.356
  364POPC   C3A 9293   2.810  37.123   8.120
  364POPC   C4A 9294   3.092  37.197   7.769
  364POPC   C1B 9295   3.048  36.670   8.906
  364POPC   C2B 9296   3.034  36.596   8.488
  364POPC   C3B 9297   3.209  36.798   8.154
  364POPC   C4B 9298   3.179  36.674   7.758
  365POPC   NC3 9299  19.951   3.733   9.522
  365POPC   PO4 9300  19.440   3.252   9.554
  365POPC   GL1 9301  19.631   3.426   9.168
  365POPC   GL2 9302  19.670   3.777   9.085
  365POPC   C1A 9303  19.738   3.431   8.717
  365POPC   D2A 9304  19.608   3.247   8.319
  365POPC   C3A 9305  19.799   3.345   7.926
  365POPC   C4A 9306  20.043   3.257   7.567
  365POPC   C1B 9307  19.680   3.950   8.680
  365POPC   C2B 9308  19.742   3.740   8.285
  365POPC   C3B 9309  19.688   3.833   7.864
  365POPC   C4B 9310  19.915   4.103   7.591
  366POPC   NC3 9311  33.598  14.937   9.437
  366POPC   PO4 9312  33.365  14.382   9.513
  366POPC   GL1 9313  33.670  14.459   9.198
  366POPC   GL2 9314  33.868  14.155   9.191
  366POPC   C1A 9315  33.718  14.715   8.829
  366POPC   D2A 9316  33.877  14.649   8.430
  366POPC   C3A 9317  33.546  14.557   8.140
  366POPC   C4A 9318  33.595  14.524   7.675
  366POPC   C1B 9319  33.953  14.238   8.770
  366POPC   C2B 9320  34.040  14.081   8.371
  366POPC   C3B 9321  33.991  14.328   8.049
  366POPC   C4B 9322  34.231  14.387   7.732
  367POPC   NC3 9323  44.411  22.038   9.504
  367POPC   PO4 9324  43.871  21.941   9.930
  367POPC   GL1 9325  43.912  21.882   9.380
  367POPC   GL2 9326  44.208  21.828   9.090
  367POPC   C1A 9327  43.765  21.980   8.907
  367POPC   D2A 9328  43.880  21.989   8.454
  367POPC   C3A 9329  43.783  22.302   8.178
  367POPC   C4A 9330  43.680  22.613   7.909
  367POPC   C1B 9331  44.253  22.179   8.757
  367POPC   C2B 9332  44.393  22.189   8.309
  367POPC   C3B 9333  44.297  22.173   7.900
  367POPC   C4B 9334  43.926  22.136   7.713
  368POPC   NC3 9335  39.689  11.414   9.640
  368POPC   PO4 9336  40.229  11.663   9.578
  368POPC   GL1 9337  39.987  11.496   9.224
  368POPC   GL2 9338  39.843  11.143   9.238
  368POPC   C1A 9339  40.053  11.322   8.810
  368POPC   D2A 9340  40.173  11.268   8.376
  368POPC   C3A 9341  39.951  11.460   8.024
  368POPC   C4A 9342  40.159  11.136   7.835
  368POPC   C1B 9343  39.578  11.109   8.858
  368POPC   C2B 9344  39.652  11.263   8.466
  368POPC   C3B 9345  39.743  11.008   8.107
  368POPC   C4B 9346  39.653  11.113   7.671
  369POPC   NC3 9347  34.975  43.622   9.828
  369POPC   PO4 9348  35.077  44.250   9.705
  369POPC   GL1 9349  35.196  43.901   9.431
  369POPC   GL2 9350  35.513  43.963   9.309
  369POPC   C1A 9351  35.180  43.789   8.985
  369POPC   D2A 9352  35.269  43.911   8.546
  369POPC   C3A 9353  35.002  43.947   8.187
  369POPC   C4A 9354  35.221  43.826   7.830
  369POPC   C1B 9355  35.640  44.034   8.900
  369POPC   C2B 9356  35.795  44.081   8.510
  369POPC   C3B 9357  35.625  44.022   8.133
  369POPC   C4B 9358  35.646  44.041   7.716
  370POPC   NC3 9359  32.419  35.412   9.267
  370POPC   PO4 9360  31.967  34.928   9.479
  370POPC   GL1 9361  32.160  35.031   9.063
  370POPC   GL2 9362  32.077  35.372   8.914
  370POPC   C1A 9363  32.288  35.070   8.580
  370POPC   D2A 9364  32.092  35.261   8.205
  370POPC   C3A 9365  32.220  35.133   7.783
  370POPC   C4A 9366  32.400  35.011   7.340
  370POPC   C1B 9367  32.103  35.649   8.631
  370POPC   C2B 9368  32.405  35.708   8.341
  370POPC   C3B 9369  32.354  35.612   7.922
  370POPC   C4B 9370  31.902  35.560   7.795
  371POPC   NC3 9371  28.049   1.588   9.703
  371POPC   PO4 9372  28.590   1.318   9.421
  371POPC   GL1 9373  28.397   1.385   9.075
  371POPC   GL2 9374  28.285   1.071   9.006
  371POPC   C1A 9375  28.548   1.397   8.672
  371POPC   D2A 9376  28.348   1.479   8.279
  371POPC   C3A 9377  28.547   1.286   7.935
  371POPC   C4A 9378  28.563   0.981   7.601
  371POPC   C1B 9379  28.218   1.035   8.582
  371POPC   C2B 9380  28.181   1.009   8.145
  371POPC   C3B 9381  28.074   0.978   7.725
  371POPC   C4B 9382  28.206   1.329   7.525
  372POPC   NC3 9383   6.977   0.080   9.955
  372POPC   PO4 9384   6.523   0.407   9.546
  372POPC   GL1 9385   6.683   0.438   9.117
  372POPC   GL2 9386   6.811   0.159   8.949
  372POPC   C1A 9387   6.699   0.564   8.662
  372POPC   D2A 9388   6.754   0.281   8.304
  372POPC   C3A 9389   6.833   0.524   7.912
  372POPC   C4A 9390   6.804   0.465   7.469
  372POPC   C1B 9391   6.373   0.172   8.765
  372POPC   C2B 9392   6.219   0.087   8.326
  372POPC   C3B 9393   6.410   0.211   7.911
  372POPC   C4B 9394   6.448   0.103   7.487
  373POPC   NC3 9395  25.662  44.323   9.402
  373POPC   PO4 9396  26.155  44.566   9.748
  373POPC   GL1 9397  26.029  44.744   9.343
  373POPC   GL2 9398  25.746  44.924   9.225
  373POPC   C1A 9399  26.132  44.702   8.898
  373POPC   D2A 9400  26.438  44.710   8.553
  373POPC   C3A 9401  26.326  44.735   8.133
  373POPC   C4A 9402  26.220  44.472   7.782
  373POPC   C1B 9403  25.808   0.062   8.777
  373POPC   C2B 9404  25.869  44.792   8.427
  373POPC   C3B 9405  25.795  44.674   8.007
  373POPC   C4B 9406  25.851  44.742   7.543
  374POPC   NC3 9407  38.052   2.053   9.560
  374POPC   PO4 9408  37.348   2.053   9.732
  374POPC   GL1 9409  37.524   2.117   9.250
  374POPC   GL2 9410  37.795   1.900   9.144
  374POPC   C1A 9411  37.570   2.145   8.749
  374POPC   D2A 9412  37.755   2.227   8.300
  374POPC   C3A 9413  37.520   2.200   7.919
  374POPC   C4A 9414  37.645   2.100   7.488
  374POPC   C1B 9415  37.848   1.715   8.733
  374POPC   C2B 9416  37.640   1.732   8.335
  374POPC   C3B 9417  37.733   1.748   7.900
  374POPC   C4B 9418  37.475   1.638   7.491
  375POPC   NC3 9419  20.087  20.204   9.439
  375POPC   PO4 9420  19.449  20.449   9.639
  375POPC   GL1 9421  19.619  20.395   9.193
  375POPC   GL2 9422  19.416  20.301   8.937
  375POPC   C1A 9423  19.720  20.682   8.793
  375POPC   D2A 9424  19.534  20.740   8.372
  375POPC   C3A 9425  19.794  20.697   8.019
  375POPC   C4A 9426  20.181  20.684   7.772
  375POPC   C1B 9427  19.862  20.193   8.806
  375POPC   C2B 9428  19.891  20.327   8.418
  375POPC   C3B 9429  19.971  20.230   8.006
  375POPC   C4B 9430  19.627  20.294   7.700
  376POPC   NC3 9431  24.326  30.562   9.527
  376POPC   PO4 9432  24.491  31.164   9.339
  376POPC   GL1 9433  24.371  30.835   9.108
  376POPC   GL2 9434  24.703  30.667   9.198
  376POPC   C1A 9435  24.278  30.645   8.731
  376POPC   D2A 9436  24.518  30.640   8.369
  376POPC   C3A 9437  24.414  30.378   8.059
  376POPC   C4A 9438  24.490  30.624   7.726
  376POPC   C1B 9439  24.772  30.879   8.788
  376POPC   C2B 9440  24.820  31.066   8.386
  376POPC   C3B 9441  24.733  31.048   7.974
  376POPC   C4B 9442  24.889  30.933   7.604
  377POPC   NC3 9443   1.735  11.404   9.382
  377POPC   PO4 9444   2.367  11.504   9.480
  377POPC   GL1 9445   2.235  11.358   9.100
  377POPC   GL2 9446   2.117  11.040   9.160
  377POPC   C1A 9447   2.012  11.357   8.719
  377POPC   D2A 9448   2.101  11.519   8.292
  377POPC   C3A 9449   1.897  11.353   7.927
  377POPC   C4A 9450   1.579  11.533   7.672
  377POPC   C1B 9451   2.280  10.899   8.741
  377POPC   C2B 9452   2.060  10.992   8.353
  377POPC   C3B 9453   2.095  10.863   7.935
  377POPC   C4B 9454   2.267  11.134   7.617
  378POPC   NC3 9455  19.716  35.083   9.710
  378POPC   PO4 9456  20.139  34.586   9.583
  378POPC   GL1 9457  19.899  34.740   9.160
  378POPC   GL2 9458  19.523  34.831   9.091
  378POPC   C1A 9459  19.874  34.619   8.686
  378POPC   D2A 9460  20.141  34.349   8.388
  378POPC   C3A 9461  20.110  34.523   7.969
  378POPC   C4A 9462  20.249  34.954   7.820
  378POPC   C1B 9463  19.493  34.944   8.613
  378POPC   C2B 9464  19.671  34.692   8.229
  378POPC   C3B 9465  19.657  34.676   7.767
  378POPC   C4B 9466  19.426  34.723   7.385
  379POPC   NC3 9467   1.435  38.288   9.504
  379POPC   PO4 9468   2.058  38.597   9.476
  379POPC   GL1 9469   1.893  38.347   9.172
  379POPC   GL2 9470   1.646  38.554   9.113
  379POPC   C1A 9471   1.991  38.352   8.744
  379POPC   D2A 9472   1.974  38.636   8.405
  379POPC   C3A 9473   2.027  38.464   8.019
  379POPC   C4A 9474   2.149  38.457   7.619
  379POPC   C1B 9475   1.507  38.633   8.736
  379POPC   C2B 9476   1.450  38.818   8.377
  379POPC   C3B 9477   1.576  38.712   8.022
  379POPC   C4B 9478   1.636  38.550   7.659
  380POPC   NC3 9479  38.651  41.573   9.711
  380POPC   PO4 9480  39.321  41.451   9.553
  380POPC   GL1 9481  39.348  41.477   9.129
  380POPC   GL2 9482  39.344  41.798   8.985
  380POPC   C1A 9483  39.028  41.450   8.800
  380POPC   D2A 9484  38.833  41.477   8.402
  380POPC   C3A 9485  39.107  41.409   8.057
  380POPC   C4A 9486  38.968  41.689   7.752
  380POPC   C1B 9487  39.449  41.725   8.576
  380POPC   C2B 9488  39.313  41.877   8.190
  380POPC   C3B 9489  39.432  41.859   7.774
  380POPC   C4B 9490  39.510  41.417   7.701
  381POPC   NC3 9491  41.286  32.713   9.498
  381POPC   PO4 9492  41.379  33.400   9.436
  381POPC   GL1 9493  41.338  33.110   9.086
  381POPC   GL2 9494  41.489  32.767   9.037
  381POPC   C1A 9495  41.236  33.160   8.665
  381POPC   D2A 9496  41.324  32.986   8.298
  381POPC   C3A 9497  41.374  33.229   7.937
  381POPC   C4A 9498  41.318  32.892   7.674
  381POPC   C1B 9499  41.750  33.001   8.767
  381POPC   C2B 9500  41.994  32.988   8.390
  381POPC   C3B 9501  41.790  32.949   8.032
  381POPC   C4B 9502  41.836  32.790   7.659
  382POPC   NC3 9503  28.489   7.955   9.396
  382POPC   PO4 9504  27.953   8.109   9.727
  382POPC   GL1 9505  28.033   8.230   9.251
  382POPC   GL2 9506  28.324   8.425   9.185
  382POPC   C1A 9507  28.124   8.182   8.774
  382POPC   D2A 9508  28.252   8.220   8.358
  382POPC   C3A 9509  28.081   8.191   7.967
  382POPC   C4A 9510  28.385   8.085   7.683
  382POPC   C1B 9511  28.644   8.382   8.873
  382POPC   C2B 9512  28.722   8.380   8.455
  382POPC   C3B 9513  28.899   8.440   8.088
  382POPC   C4B 9514  28.841   8.344   7.690
  383POPC   NC3 9515   0.833   5.200   9.437
  383POPC   PO4 9516   0.196   5.209   9.767
  383POPC   GL1 9517   0.148   5.167   9.226
  383POPC   GL2 9518   0.459   5.168   9.101
  383POPC   C1A 9519   0.179   4.906   8.788
  383POPC   D2A 9520   0.382   4.936   8.401
  383POPC   C3A 9521   0.331   5.051   8.007
  383POPC   C4A 9522   0.682   5.025   7.742
  383POPC   C1B 9523   0.330   5.385   8.730
  383POPC   C2B 9524   0.469   5.462   8.276
  383POPC   C3B 9525   0.413   5.548   7.807
  383POPC   C4B 9526   0.131   5.655   7.429
  384POPC   NC3 9527  14.172  18.572   9.415
  384POPC   PO4 9528  14.830  18.375   9.572
  384POPC   GL1 9529  14.758  18.289   9.163
  384POPC   GL2 9530  14.415  18.171   9.185
  384POPC   C1A 9531  14.592  18.410   8.750
  384POPC   D2A 9532  14.370  18.604   8.400
  384POPC   C3A 9533  14.317  18.420   7.997
  384POPC   C4A 9534  14.634  18.445   7.677
  384POPC   C1B 9535  14.114  18.258   8.821
  384POPC   C2B 9536  14.035  18.205   8.397
  384POPC   C3B 9537  14.103  17.888   8.110
  384POPC   C4B 9538  13.959  17.881   7.703
  385POPC   NC3 9539  27.523   2.289   9.610
  385POPC   PO4 9540  27.843   2.901   9.592
  385POPC   GL1 9541  27.816   2.754   9.217
  385POPC   GL2 9542  27.508   2.921   9.155
  385POPC   C1A 9543  27.821   2.628   8.816
  385POPC   D2A 9544  27.855   2.840   8.449
  385POPC   C3A 9545  27.780   2.651   8.064
  385POPC   C4A 9546  27.804   2.527   7.671
  385POPC   C1B 9547  27.441   2.964   8.722
  385POPC   C2B 9548  27.366   2.694   8.396
  385POPC   C3B 9549  27.247   2.848   8.072
  385POPC   C4B 9550  27.404   2.872   7.707
  386POPC   NC3 9551   2.064  32.297   9.741
  386POPC   PO4 9552   2.263  31.919   9.263
  386POPC   GL1 9553   1.975  32.231   9.107
  386POPC   GL2 9554   1.964  32.557   9.236
  386POPC   C1A 9555   1.975  32.317   8.680
  386POPC   D2A 9556   1.979  32.021   8.337
  386POPC   C3A 9557   2.166  32.068   7.949
  386POPC   C4A 9558   1.846  31.965   7.679
  386POPC   C1B 9559   1.734  32.734   8.893
  386POPC   C2B 9560   1.658  32.650   8.435
  386POPC   C3B 9561   1.708  32.781   8.026
  386POPC   C4B 9562   1.963  32.554   7.763
  387POPC   NC3 9563   8.435   4.376   9.455
  387POPC   PO4 9564   9.102   4.139   9.518
  387POPC   GL1 9565   8.901   4.311   9.204
  387POPC   GL2 9566   8.717   3.994   9.174
  387POPC   C1A 9567   8.992   4.510   8.823
  387POPC   D2A 9568   9.134   4.360   8.440
  387POPC   C3A 9569   8.973   4.512   8.062
  387POPC   C4A 9570   9.255   4.580   7.742
  387POPC   C1B 9571   8.928   3.990   8.777
  387POPC   C2B 9572   8.923   3.892   8.339
  387POPC   C3B 9573   9.210   4.058   8.021
  387POPC   C4B 9574   8.928   4.187   7.668
  388POPC   NC3 9575  10.127   0.731   9.459
  388POPC   PO4 9576  10.633   0.381   9.665
  388POPC   GL1 9577  10.641   0.362   9.182
  388POPC   GL2 9578  10.415   0.581   9.072
  388POPC   C1A 9579  10.808   0.501   8.754
  388POPC   D2A 9580  10.989   0.473   8.339
  388POPC   C3A 9581  10.662   0.519   8.010
  388POPC   C4A 9582  10.605   0.306   7.545
  388POPC   C1B 9583  10.097   0.504   8.744
  388POPC   C2B 9584  10.040   0.294   8.364
  388POPC   C3B 9585  10.181   0.333   7.955
  388POPC   C4B 9586  10.308   0.686   7.690
  389POPC   NC3 9587  40.752  24.327   9.508
  389POPC   PO4 9588  41.042  24.946   9.494
  389POPC   GL1 9589  40.771  24.822   9.115
  389POPC   GL2 9590  40.618  24.501   9.048
  389POPC   C1A 9591  40.598  24.925   8.711
  389POPC   D2A 9592  40.485  24.782   8.300
  389POPC   C3A 9593  40.787  24.864   7.961
  389POPC   C4A 9594  40.903  24.679   7.560
  389POPC   C1B 9595  40.962  24.525   8.741
  389POPC   C2B 9596  40.981  24.426   8.297
  389POPC   C3B 9597  40.667  24.350   8.015
  389POPC   C4B 9598  40.679  24.207   7.585
  390POPC   NC3 9599  14.081  44.476   9.756
  390POPC   PO4 9600  13.521  44.623   9.400
  390POPC   GL1 9601  13.689  44.558   9.029
  390POPC   GL2 9602  13.930  44.305   9.163
  390POPC   C1A 9603  13.722  44.775   8.633
  390POPC   D2A 9604  13.855   0.038   8.287
  390POPC   C3A 9605  13.779  44.826   7.928
  390POPC   C4A 9606  13.463  44.836   7.635
  390POPC   C1B 9607  13.796  44.168   8.739
  390POPC   C2B 9608  13.575  44.324   8.384
  390POPC   C3B 9609  13.476  44.417   7.967
  390POPC   C4B 9610  13.748  44.420   7.605
  391POPC   NC3 9611  10.066  13.267   9.382
  391POPC   PO4 9612   9.826  13.940   9.512
  391POPC   GL1 9613   9.746  13.627   9.182
  391POPC   GL2 9614   9.406  13.670   9.080
  391POPC   C1A 9615   9.920  13.485   8.774
  391POPC   D2A 9616   9.982  13.664   8.347
  391POPC   C3A 9617   9.776  13.514   7.954
  391POPC   C4A 9618   9.837  13.331   7.535
  391POPC   C1B 9619   9.416  13.465   8.689
  391POPC   C2B 9620   9.371  13.684   8.291
  391POPC   C3B 9621   9.373  13.886   7.863
  391POPC   C4B 9622   9.644  13.783   7.473
  392POPC   NC3 9623  35.037  12.715   9.388
  392POPC   PO4 9624  35.507  13.169   9.555
  392POPC   GL1 9625  35.397  13.031   9.163
  392POPC   GL2 9626  35.076  13.185   9.166
  392POPC   C1A 9627  35.358  12.849   8.761
  392POPC   D2A 9628  35.628  12.790   8.414
  392POPC   C3A 9629  35.393  12.744   8.069
  392POPC   C4A 9630  35.267  12.875   7.678
  392POPC   C1B 9631  34.942  13.121   8.757
  392POPC   C2B 9632  34.990  12.901   8.356
  392POPC   C3B 9633  35.033  13.165   8.000
  392POPC   C4B 9634  34.913  13.226   7.574
  393POPC   NC3 9635  38.940   9.941   9.629
  393POPC   PO4 9636  38.399   9.492   9.650
  393POPC   GL1 9637  38.519   9.818   9.289
  393POPC   GL2 9638  38.284   9.975   9.156
  393POPC   C1A 9639  38.586  10.030   8.781
  393POPC   D2A 9640  38.363  10.199   8.458
  393POPC   C3A 9641  38.493  10.013   8.042
  393POPC   C4A 9642  38.641   9.631   7.797
  393POPC   C1B 9643  38.409   9.583   8.844
  393POPC   C2B 9644  38.313   9.672   8.412
  393POPC   C3B 9645  38.161   9.634   7.995
  393POPC   C4B 9646  38.214   9.256   7.769
  394POPC   NC3 9647  42.140  34.504   9.661
  394POPC   PO4 9648  41.971  35.080   9.345
  394POPC   GL1 9649  42.175  34.770   9.095
  394POPC   GL2 9650  42.173  34.388   9.062
  394POPC   C1A 9651  42.335  34.721   8.696
  394POPC   D2A 9652  42.069  34.853   8.363
  394POPC   C3A 9653  42.101  34.598   7.999
  394POPC   C4A 9654  42.447  34.660   7.745
  394POPC   C1B 9655  42.506  34.204   8.832
  394POPC   C2B 9656  42.678  34.085   8.460
  394POPC   C3B 9657  42.681  34.374   8.127
  394POPC   C4B 9658  42.815  34.308   7.715
  395POPC   NC3 9659  34.635  26.744   9.522
  395POPC   PO4 9660  34.109  27.010   9.339
  395POPC   GL1 9661  34.474  26.906   9.059
  395POPC   GL2 9662  34.855  26.874   9.069
  395POPC   C1A 9663  34.577  26.966   8.638
  395POPC   D2A 9664  34.427  27.155   8.264
  395POPC   C3A 9665  34.547  26.931   7.907
  395POPC   C4A 9666  34.474  26.784   7.506
  395POPC   C1B 9667  34.984  26.542   8.753
  395POPC   C2B 9668  34.819  26.652   8.333
  395POPC   C3B 9669  34.574  26.441   8.045
  395POPC   C4B 9670  34.730  26.390   7.668
  396POPC   NC3 9671  14.303  20.181   9.464
  396POPC   PO4 9672  14.136  19.601   9.667
  396POPC   GL1 9673  14.133  19.667   9.205
  396POPC   GL2 9674  14.099  19.982   8.991
  396POPC   C1A 9675  14.280  19.525   8.791
  396POPC   D2A 9676  14.491  19.397   8.394
  396POPC   C3A 9677  14.456  19.693   8.053
  396POPC   C4A 9678  14.501  19.628   7.642
  396POPC   C1B 9679  13.962  20.343   8.712
  396POPC   C2B 9680  14.091  20.394   8.261
  396POPC   C3B 9681  14.066  20.083   7.914
  396POPC   C4B 9682  14.153  20.034   7.469
  397POPC   NC3 9683  39.215  38.834   9.584
  397POPC   PO4 9684  39.294  39.503   9.614
  397POPC   GL1 9685  39.239  39.122   9.176
  397POPC   GL2 9686  39.329  38.779   9.083
  397POPC   C1A 9687  39.034  39.001   8.734
  397POPC   D2A 9688  38.976  39.069   8.255
  397POPC   C3A 9689  39.193  39.390   7.982
  397POPC   C4A 9690  39.104  39.515   7.560
  397POPC   C1B 9691  39.567  38.914   8.734
  397POPC   C2B 9692  39.617  39.044   8.295
  397POPC   C3B 9693  39.417  38.935   7.923
  397POPC   C4B 9694  39.380  39.102   7.506
  398POPC   NC3 9695  33.696  11.697   9.400
  398POPC   PO4 9696  34.075  11.211   9.737
  398POPC   GL1 9697  33.938  11.263   9.252
  398POPC   GL2 9698  34.024  11.548   9.065
  398POPC   C1A 9699  33.627  11.211   8.879
  398POPC   D2A 9700  33.390  11.100   8.473
  398POPC   C3A 9701  33.582  11.217   8.050
  398POPC   C4A 9702  33.765  11.004   7.649
  398POPC   C1B 9703  33.713  11.695   8.745
  398POPC   C2B 9704  33.804  11.779   8.335
  398POPC   C3B 9705  33.851  11.820   7.927
  398POPC   C4B 9706  33.874  11.487   7.713
  399POPC   NC3 9707   4.861  20.862   9.552
  399POPC   PO4 9708   4.908  21.464   9.767
  399POPC   GL1 9709   4.870  21.303   9.264
  399POPC   GL2 9710   5.157  21.107   9.132
  399POPC   C1A 9711   4.996  21.443   8.778
  399POPC   D2A 9712   5.011  21.687   8.362
  399POPC   C3A 9713   4.916  21.460   7.958
  399POPC   C4A 9714   5.005  21.596   7.533
  399POPC   C1B 9715   5.465  21.140   8.805
  399POPC   C2B 9716   5.439  21.327   8.404
  399POPC   C3B 9717   5.421  21.114   8.029
  399POPC   C4B 9718   5.259  21.178   7.630
  400POPC   NC3 9719   3.509  20.239   9.502
  400POPC   PO4 9720   3.948  19.719   9.313
  400POPC   GL1 9721   3.507  19.743   9.227
  400POPC   GL2 9722   3.341  20.008   9.089
  400POPC   C1A 9723   3.405  19.626   8.783
  400POPC   D2A 9724   3.599  19.769   8.395
  400POPC   C3A 9725   3.353  19.769   8.048
  400POPC   C4A 9726   3.506  19.606   7.684
  400POPC   C1B 9727   3.715  20.046   8.809
  400POPC   C2B 9728   3.745  20.248   8.384
  400POPC   C3B 9729   3.696  20.126   7.920
  400POPC   C4B 9730   3.629  20.052   7.445
  401POPC   NC3 9731  44.740   2.757   9.594
  401POPC   PO4 9732   0.132   2.295   9.322
  401POPC   GL1 9733  44.845   2.592   9.123
  401POPC   GL2 9734  44.880   2.965   9.156
  401POPC   C1A 9735  44.615   2.673   8.750
  401POPC   D2A 9736  44.846   2.758   8.367
  401POPC   C3A 9737  44.725   2.794   7.936
  401POPC   C4A 9738  44.368   2.619   7.720
  401POPC   C1B 9739  44.816   3.133   8.731
  401POPC   C2B 9740  44.553   3.208   8.325
  401POPC   C3B 9741  44.361   3.157   7.899
  401POPC   C4B 9742  44.547   3.036   7.469
  402POPC   NC3 9743  22.428  11.890   9.588
  402POPC   PO4 9744  22.027  11.370   9.498
  402POPC   GL1 9745  22.191  11.442   9.117
  402POPC   GL2 9746  22.267  11.139   9.104
  402POPC   C1A 9747  22.156  11.291   8.644
  402POPC   D2A 9748  22.402  11.089   8.303
  402POPC   C3A 9749  22.403  11.357   7.985
  402POPC   C4A 9750  22.500  11.340   7.587
  402POPC   C1B 9751  21.894  10.916   8.886
  402POPC   C2B 9752  21.843  10.911   8.418
  402POPC   C3B 9753  21.956  11.097   7.993
  402POPC   C4B 9754  21.944  11.274   7.550
  403POPC   NC3 9755   1.830  15.272   9.566
  403POPC   PO4 9756   1.174  15.182   9.602
  403POPC   GL1 9757   1.452  15.145   9.241
  403POPC   GL2 9758   1.517  14.827   9.067
  403POPC   C1A 9759   1.408  15.346   8.852
  403POPC   D2A 9760   1.403  15.497   8.428
  403POPC   C3A 9761   1.278  15.296   8.040
  403POPC   C4A 9762   1.652  15.353   7.849
  403POPC   C1B 9763   1.671  14.955   8.649
  403POPC   C2B 9764   1.630  14.972   8.211
  403POPC   C3B 9765   1.467  14.862   7.810
  403POPC   C4B 9766   1.334  14.732   7.387
  404POPC   NC3 9767  24.007  20.875   9.471
  404POPC   PO4 9768  23.720  20.287   9.450
  404POPC   GL1 9769  23.820  20.526   9.103
  404POPC   GL2 9770  23.657  20.852   9.095
  404POPC   C1A 9771  23.815  20.458   8.683
  404POPC   D2A 9772  23.593  20.454   8.310
  404POPC   C3A 9773  23.836  20.276   7.994
  404POPC   C4A 9774  23.617  20.387   7.659
  404POPC   C1B 9775  23.944  20.945   8.755
  404POPC   C2B 9776  24.038  20.810   8.314
  404POPC   C3B 9777  23.814  20.799   7.903
  404POPC   C4B 9778  23.880  20.830   7.430
  405POPC   NC3 9779   0.545   2.359   9.509
  405POPC   PO4 9780   0.592   1.649   9.415
  405POPC   GL1 9781   0.507   1.966   9.118
  405POPC   GL2 9782   0.504   2.305   9.007
  405POPC   C1A 9783   0.237   1.979   8.750
  405POPC   D2A 9784   0.445   2.087   8.403
  405POPC   C3A 9785   0.506   1.881   8.035
  405POPC   C4A 9786   0.552   1.998   7.616
  405POPC   C1B 9787   0.680   2.507   8.729
  405POPC   C2B 9788   0.835   2.418   8.354
  405POPC   C3B 9789   0.606   2.370   7.979
  405POPC   C4B 9790   0.663   2.496   7.580
  406POPC   NC3 9791   3.895   9.547   9.474
  406POPC   PO4 9792   4.410  10.059   9.562
  406POPC   GL1 9793   4.237   9.864   9.161
  406POPC   GL2 9794   4.261   9.513   9.103
  406POPC   C1A 9795   4.181   9.763   8.680
  406POPC   D2A 9796   4.383   9.998   8.348
  406POPC   C3A 9797   4.434   9.900   7.925
  406POPC   C4A 9798   4.085  10.072   7.782
  406POPC   C1B 9799   4.580   9.400   8.825
  406POPC   C2B 9800   4.700   9.621   8.480
  406POPC   C3B 9801   4.778   9.581   8.092
  406POPC   C4B 9802   4.627   9.473   7.692
  407POPC   NC3 9803  41.017  16.454   9.571
  407POPC   PO4 9804  41.407  16.843   9.504
  407POPC   GL1 9805  41.371  16.865   9.079
  407POPC   GL2 9806  41.740  16.844   9.035
  407POPC   C1A 9807  41.078  16.845   8.700
  407POPC   D2A 9808  40.916  16.734   8.276
  407POPC   C3A 9809  41.122  16.801   7.883
  407POPC   C4A 9810  41.558  16.755   7.745
  407POPC   C1B 9811  41.549  16.644   8.667
  407POPC   C2B 9812  41.451  16.863   8.286
  407POPC   C3B 9813  41.818  17.073   8.091
  407POPC   C4B 9814  42.057  16.791   7.831
  408POPC   NC3 9815  37.265  28.682   9.329
  408POPC   PO4 9816  36.808  28.394   9.731
  408POPC   GL1 9817  36.765  28.409   9.260
  408POPC   GL2 9818  36.709  28.768   9.252
  408POPC   C1A 9819  36.765  28.197   8.809
  408POPC   D2A 9820  37.044  28.307   8.444
  408POPC   C3A 9821  36.939  28.182   8.028
  408POPC   C4A 9822  36.546  28.020   7.934
  408POPC   C1B 9823  36.811  28.694   8.822
  408POPC   C2B 9824  36.691  28.697   8.401
  408POPC   C3B 9825  36.631  28.614   7.973
  408POPC   C4B 9826  36.399  28.737   7.598
  409POPC   NC3 9827   9.971  14.988   9.562
  409POPC   PO4 9828   9.358  14.795   9.397
  409POPC   GL1 9829   9.720  15.005   9.139
  409POPC   GL2 9830   9.815  15.371   9.212
  409POPC   C1A 9831   9.650  15.101   8.717
  409POPC   D2A 9832   9.493  15.135   8.307
  409POPC   C3A 9833   9.829  15.085   8.042
  409POPC   C4A 9834  10.059  14.800   7.781
  409POPC   C1B 9835   9.536  15.542   8.937
  409POPC   C2B 9836   9.462  15.613   8.522
  409POPC   C3B 9837   9.604  15.610   8.084
  409POPC   C4B 9838   9.921  15.494   7.741
  410POPC   NC3 9839  41.517  27.043   9.472
  410POPC   PO4 9840  41.980  26.691   9.139
  410POPC   GL1 9841  41.558  26.671   9.056
  410POPC   GL2 9842  41.226  26.805   9.065
  410POPC   C1A 9843  41.489  26.877   8.663
  410POPC   D2A 9844  41.534  26.901   8.256
  410POPC   C3A 9845  41.854  26.648   8.061
  410POPC   C4A 9846  41.813  26.765   7.637
  410POPC   C1B 9847  41.172  26.466   8.778
  410POPC   C2B 9848  41.371  26.436   8.366
  410POPC   C3B 9849  41.350  26.557   7.905
  410POPC   C4B 9850  41.369  26.413   7.451
  411POPC   NC3 9851  28.449  26.840   9.564
  411POPC   PO4 9852  28.144  26.361   9.451
  411POPC   GL1 9853  28.379  26.566   9.118
  411POPC   GL2 9854  28.707  26.530   9.187
  411POPC   C1A 9855  28.416  26.797   8.701
  411POPC   D2A 9856  28.129  26.764   8.329
  411POPC   C3A 9857  28.172  26.966   7.933
  411POPC   C4A 9858  28.550  26.983   7.739
  411POPC   C1B 9859  28.724  26.391   8.776
  411POPC   C2B 9860  28.462  26.351   8.402
  411POPC   C3B 9861  28.443  26.515   7.971
  411POPC   C4B 9862  28.596  26.524   7.525
  412POPC   NC3 9863  43.124   3.373   9.597
  412POPC   PO4 9864  42.675   2.873   9.558
  412POPC   GL1 9865  42.961   3.123   9.171
  412POPC   GL2 9866  43.197   3.494   9.118
  412POPC   C1A 9867  43.117   3.204   8.731
  412POPC   D2A 9868  43.241   3.512   8.434
  412POPC   C3A 9869  43.042   3.389   8.087
  412POPC   C4A 9870  43.174   3.210   7.710
  412POPC   C1B 9871  42.920   3.706   8.785
  412POPC   C2B 9872  42.865   3.885   8.352
  412POPC   C3B 9873  43.148   3.875   7.986
  412POPC   C4B 9874  43.444   3.682   7.707
  413POPC   NC3 9875  29.287  25.481   9.432
  413POPC   PO4 9876  29.406  26.166   9.486
  413POPC   GL1 9877  29.319  25.904   9.133
  413POPC   GL2 9878  29.038  26.003   8.956
  413POPC   C1A 9879  29.482  25.913   8.713
  413POPC   D2A 9880  29.460  26.147   8.342
  413POPC   C3A 9881  29.454  25.975   7.907
  413POPC   C4A 9882  29.239  26.238   7.614
  413POPC   C1B 9883  29.043  25.621   8.705
  413POPC   C2B 9884  29.173  25.730   8.291
  413POPC   C3B 9885  28.995  26.119   8.050
  413POPC   C4B 9886  28.710  26.064   7.702
  414POPC   NC3 9887  36.696  12.466   9.291
  414POPC   PO4 9888  37.064  13.035   9.540
  414POPC   GL1 9889  36.793  12.984   9.192
  414POPC   GL2 9890  36.437  12.990   9.281
  414POPC   C1A 9891  36.902  12.873   8.777
  414POPC   D2A 9892  36.931  12.592   8.425
  414POPC   C3A 9893  36.993  12.873   8.081
  414POPC   C4A 9894  37.037  12.629   7.734
  414POPC   C1B 9895  36.421  13.079   8.830
  414POPC   C2B 9896  36.587  13.010   8.390
  414POPC   C3B 9897  36.501  13.121   7.955
  414POPC   C4B 9898  36.758  13.026   7.594
  415POPC   NC3 9899  41.780   4.027   9.753
  415POPC   PO4 9900  41.822   3.374   9.512
  415POPC   GL1 9901  41.541   3.503   9.180
  415POPC   GL2 9902  41.266   3.760   9.237
  415POPC   C1A 9903  41.640   3.540   8.743
  415POPC   D2A 9904  41.758   3.266   8.436
  415POPC   C3A 9905  41.668   3.459   8.056
  415POPC   C4A 9906  41.917   3.537   7.710
  415POPC   C1B 9907  41.138   3.479   8.867
  415POPC   C2B 9908  41.241   3.242   8.507
  415POPC   C3B 9909  41.178   3.281   8.086
  415POPC   C4B 9910  41.297   3.429   7.715
  416POPC   NC3 9911   8.028  28.012   9.421
  416POPC   PO4 9912   8.420  28.506   9.430
  416POPC   GL1 9913   8.393  28.190   9.098
  416POPC   GL2 9914   8.390  28.491   8.905
  416POPC   C1A 9915   8.105  28.108   8.734
  416POPC   D2A 9916   7.975  28.415   8.387
  416POPC   C3A 9917   8.045  28.342   7.941
  416POPC   C4A 9918   8.003  28.215   7.482
  416POPC   C1B 9919   8.584  28.201   8.614
  416POPC   C2B 9920   8.555  28.223   8.194
  416POPC   C3B 9921   8.517  28.582   7.946
  416POPC   C4B 9922   8.755  28.824   7.643
  417POPC   NC3 9923   5.653  19.375   9.368
  417POPC   PO4 9924   6.276  19.205   9.421
  417POPC   GL1 9925   5.988  19.092   9.079
  417POPC   GL2 9926   5.614  18.967   9.069
  417POPC   C1A 9927   5.875  19.318   8.714
  417POPC   D2A 9928   6.061  19.356   8.292
  417POPC   C3A 9929   5.946  19.043   7.976
  417POPC   C4A 9930   5.686  19.058   7.598
  417POPC   C1B 9931   5.785  18.817   8.685
  417POPC   C2B 9932   6.194  18.779   8.491
  417POPC   C3B 9933   6.192  18.588   8.091
  417POPC   C4B 9934   5.753  18.541   7.911
  418POPC   NC3 9935  37.955  26.531   9.532
  418POPC   PO4 9936  37.535  25.927   9.582
  418POPC   GL1 9937  37.581  25.966   9.181
  418POPC   GL2 9938  37.751  26.277   9.134
  418POPC   C1A 9939  37.623  25.899   8.771
  418POPC   D2A 9940  37.582  26.199   8.445
  418POPC   C3A 9941  37.655  25.957   8.113
  418POPC   C4A 9942  37.523  26.001   7.726
  418POPC   C1B 9943  37.991  26.254   8.742
  418POPC   C2B 9944  38.075  26.218   8.285
  418POPC   C3B 9945  37.961  26.289   7.854
  418POPC   C4B 9946  37.908  26.128   7.440
  419POPC   NC3 9947  12.387  20.319   9.341
  419POPC   PO4 9948  11.777  20.773   9.620
  419POPC   GL1 9949  11.865  20.587   9.166
  419POPC   GL2 9950  12.177  20.643   8.961
  419POPC   C1A 9951  11.813  20.428   8.690
  419POPC   D2A 9952  11.886  20.561   8.244
  419POPC   C3A 9953  12.118  20.770   7.924
  419POPC   C4A 9954  11.902  20.651   7.534
  419POPC   C1B 9955  12.301  20.652   8.505
  419POPC   C2B 9956  12.356  20.351   8.155
  419POPC   C3B 9957  12.161  20.284   7.783
  419POPC   C4B 9958  12.249  20.319   7.347
  420POPC   NC3 9959   7.891  32.420   9.642
  420POPC   PO4 9960   8.296  31.968   9.470
  420POPC   GL1 9961   8.280  32.233   9.127
  420POPC   GL2 9962   8.224  32.568   9.214
  420POPC   C1A 9963   8.166  32.216   8.710
  420POPC   D2A 9964   8.253  31.904   8.406
  420POPC   C3A 9965   8.177  32.092   8.004
  420POPC   C4A 9966   8.110  31.955   7.608
  420POPC   C1B 9967   7.904  32.654   8.889
  420POPC   C2B 9968   7.772  32.676   8.461
  420POPC   C3B 9969   7.904  32.562   8.042
  420POPC   C4B 9970   7.995  32.457   7.641
  421POPC   NC3 9971   5.812  39.439   9.382
  421POPC   PO4 9972   6.479  39.217   9.523
  421POPC   GL1 9973   6.261  39.361   9.121
  421POPC   GL2 9974   6.002  39.146   9.002
  421POPC   C1A 9975   6.136  39.521   8.683
  421POPC   D2A 9976   5.836  39.542   8.332
  421POPC   C3A 9977   5.952  39.378   7.939
  421POPC   C4A 9978   6.220  39.210   7.624
  421POPC   C1B 9979   5.835  38.860   8.687
  421POPC   C2B 9980   5.929  38.695   8.323
  421POPC   C3B 9981   5.686  38.933   8.026
  421POPC   C4B 9982   5.730  39.038   7.609
  422POPC   NC3 9983  43.170  34.671   9.566
  422POPC   PO4 9984  42.517  34.539   9.397
  422POPC   GL1 9985  42.876  34.521   9.121
  422POPC   GL2 9986  43.145  34.789   9.082
  422POPC   C1A 9987  42.977  34.472   8.665
  422POPC   D2A 9988  43.019  34.813   8.341
  422POPC   C3A 9989  42.956  34.759   7.877
  422POPC   C4A 9990  42.869  34.706   7.414
  422POPC   C1B 9991  43.427  34.446   8.933
  422POPC   C2B 9992  43.528  34.463   8.490
  422POPC   C3B 9993  43.296  34.309   8.142
  422POPC   C4B 9994  43.350  34.435   7.732
  423POPC   NC3 9995  21.393  38.486   9.742
  423POPC   PO4 9996  20.761  38.654   9.530
  423POPC   GL1 9997  21.168  38.497   9.255
  423POPC   GL2 9998  21.544  38.436   9.252
  423POPC   C1A 9999  21.321  38.493   8.798
  423POPC   D2A10000  21.557  38.556   8.403
  423POPC   C3A10001  21.355  38.493   8.005
  423POPC   C4A10002  21.395  38.307   7.605
  423POPC   C1B10003  21.719  38.166   8.926
  423POPC   C2B10004  21.772  38.106   8.479
  423POPC   C3B10005  21.668  38.109   8.038
  423POPC   C4B10006  21.871  38.209   7.638
  424POPC   NC310007  15.828  26.159   9.570
  424POPC   PO410008  16.471  26.000   9.420
  424POPC   GL110009  16.152  26.236   9.137
  424POPC   GL210010  15.817  26.034   9.080
  424POPC   C1A10011  16.101  26.474   8.711
  424POPC   D2A10012  16.203  26.503   8.239
  424POPC   C3A10013  16.063  26.101   8.019
  424POPC   C4A10014  16.195  25.674   7.916
  424POPC   C1B10015  15.589  26.264   8.763
  424POPC   C2B10016  15.695  26.520   8.375
  424POPC   C3B10017  15.733  26.467   7.930
  424POPC   C4B10018  15.761  26.142   7.598
  425POPC   NC310019  34.211  13.274   9.455
  425POPC   PO410020  34.794  13.780   9.569
  425POPC   GL110021  34.851  13.643   9.159
  425POPC   GL210022  34.540  13.465   9.095
  425POPC   C1A10023  34.837  13.626   8.702
  425POPC   D2A10024  35.002  13.600   8.273
  425POPC   C3A10025  34.706  13.564   7.905
  425POPC   C4A10026  34.713  13.689   7.438
  425POPC   C1B10027  34.288  13.578   8.723
  425POPC   C2B10028  34.277  13.622   8.308
  425POPC   C3B10029  34.198  13.348   7.979
  425POPC   C4B10030  34.262  13.504   7.571
  426POPC   NC310031  39.560   7.667   9.662
  426POPC   PO410032  39.068   7.245   9.611
  426POPC   GL110033  39.144   7.433   9.212
  426POPC   GL210034  39.475   7.543   9.151
  426POPC   C1A10035  39.031   7.446   8.766
  426POPC   D2A10036  38.838   7.358   8.357
  426POPC   C3A10037  39.101   7.399   7.990
  426POPC   C4A10038  39.130   7.292   7.575
  426POPC   C1B10039  39.651   7.475   8.703
  426POPC   C2B10040  39.669   7.363   8.229
  426POPC   C3B10041  39.579   7.233   7.797
  426POPC   C4B10042  39.763   7.260   7.357
  427POPC   NC310043  36.531  41.670   9.407
  427POPC   PO410044  37.069  41.281   9.615
  427POPC   GL110045  36.881  41.302   9.198
  427POPC   GL210046  36.553  41.118   9.235
  427POPC   C1A10047  37.031  41.444   8.765
  427POPC   D2A10048  37.348  41.634   8.478
  427POPC   C3A10049  37.241  41.553   8.055
  427POPC   C4A10050  37.011  41.807   7.735
  427POPC   C1B10051  36.691  41.045   8.794
  427POPC   C2B10052  36.682  41.293   8.418
  427POPC   C3B10053  36.741  41.474   8.036
  427POPC   C4B10054  36.946  41.240   7.731
  428POPC   NC310055  18.604   7.574   9.493
  428POPC   PO410056  18.009   7.206   9.613
  428POPC   GL110057  18.235   7.295   9.217
  428POPC   GL210058  18.265   7.670   9.130
  428POPC   C1A10059  18.198   7.312   8.766
  428POPC   D2A10060  18.002   7.293   8.355
  428POPC   C3A10061  18.286   7.177   8.047
  428POPC   C4A10062  18.332   7.273   7.641
  428POPC   C1B10063  18.438   7.805   8.741
  428POPC   C2B10064  18.456   7.568   8.354
  428POPC   C3B10065  18.389   7.701   7.947
  428POPC   C4B10066  18.592   7.783   7.598
  429POPC   NC310067  29.812  42.249  10.323
  429POPC   PO410068  29.889  42.468   9.723
  429POPC   GL110069  29.867  42.484   9.208
  429POPC   GL210070  30.165  42.575   9.010
  429POPC   C1A10071  29.943  42.173   8.817
  429POPC   D2A10072  30.090  42.110   8.363
  429POPC   C3A10073  29.874  42.016   7.948
  429POPC   C4A10074  30.099  41.846   7.588
  429POPC   C1B10075  30.102  42.598   8.582
  429POPC   C2B10076  30.069  42.583   8.179
  429POPC   C3B10077  29.801  42.594   7.867
  429POPC   C4B10078  30.012  42.741   7.518
  430POPC   NC310079   0.757  43.812   9.418
  430POPC   PO410080   0.331  44.304   9.488
  430POPC   GL110081   0.522  44.165   9.119
  430POPC   GL210082   0.330  43.830   9.091
  430POPC   C1A10083   0.431  44.116   8.684
  430POPC   D2A10084   0.571  43.890   8.333
  430POPC   C3A10085   0.484  44.064   7.938
  430POPC   C4A10086   0.731  44.033   7.529
  430POPC   C1B10087   0.638  43.635   8.786
  430POPC   C2B10088   0.569  43.369   8.422
  430POPC   C3B10089   0.354  43.511   8.059
  430POPC   C4B10090   0.587  43.601   7.749
  431POPC   NC310091  18.299  44.812   9.559
  431POPC   PO410092  18.317  44.291   9.222
  431POPC   GL110093  18.265  44.651   8.997
  431POPC   GL210094  18.012  44.886   9.086
  431POPC   C1A10095  18.423  44.768   8.576
  431POPC   D2A10096  18.610  44.548   8.216
  431POPC   C3A10097  18.505  44.749   7.829
  431POPC   C4A10098  18.122  44.952   7.644
  431POPC   C1B10099  17.912  44.683   8.645
  431POPC   C2B10100  18.127  44.411   8.322
  431POPC   C3B10101  18.179  44.319   7.867
  431POPC   C4B10102  17.870  44.289   7.502
  432POPC   NC310103  35.690  34.208   9.203
  432POPC   PO410104  35.794  34.727   9.559
  432POPC   GL110105  35.633  34.779   9.146
  432POPC   GL210106  35.303  34.592   9.144
  432POPC   C1A10107  35.737  34.850   8.688
  432POPC   D2A10108  35.606  34.853   8.227
  432POPC   C3A10109  35.451  34.452   8.083
  432POPC   C4A10110  35.417  34.234   7.707
  432POPC   C1B10111  34.944  34.611   8.821
  432POPC   C2B10112  34.881  34.825   8.439
  432POPC   C3B10113  34.897  34.852   8.022
  432POPC   C4B10114  35.279  34.812   7.771
  433POPC   NC310115  41.545   1.677   9.384
  433POPC   PO410116  41.247   1.068   9.527
  433POPC   GL110117  41.430   1.042   9.134
  433POPC   GL210118  41.156   0.848   9.048
  433POPC   C1A10119  41.757   1.124   8.807
  433POPC   D2A10120  41.962   1.007   8.393
  433POPC   C3A10121  41.776   1.163   8.014
  433POPC   C4A10122  41.450   1.481   7.959
  433POPC   C1B10123  41.279   1.024   8.637
  433POPC   C2B10124  41.206   1.032   8.202
  433POPC   C3B10125  41.332   1.025   7.776
  433POPC   C4B10126  41.232   1.166   7.381
  434POPC   NC310127   7.366   2.081   9.700
  434POPC   PO410128   7.234   2.766   9.539
  434POPC   GL110129   7.222   2.757   9.117
  434POPC   GL210130   7.554   2.640   9.032
  434POPC   C1A10131   7.188   2.719   8.684
  434POPC   D2A10132   7.419   2.483   8.375
  434POPC   C3A10133   7.332   2.738   8.059
  434POPC   C4A10134   7.143   2.861   7.702
  434POPC   C1B10135   7.719   2.283   8.794
  434POPC   C2B10136   7.888   2.148   8.396
  434POPC   C3B10137   7.703   2.232   8.026
  434POPC   C4B10138   7.685   2.562   7.734
  435POPC   NC310139  41.347  41.345   9.477
  435POPC   PO410140  41.527  42.002   9.458
  435POPC   GL110141  41.398  41.766   9.085
  435POPC   GL210142  41.449  41.421   8.999
  435POPC   C1A10143  41.622  41.768   8.661
  435POPC   D2A10144  41.893  41.565   8.357
  435POPC   C3A10145  41.744  41.458   7.939
  435POPC   C4A10146  41.758  41.743   7.582
  435POPC   C1B10147  41.609  41.227   8.643
  435POPC   C2B10148  41.524  41.066   8.242
  435POPC   C3B10149  41.165  41.097   7.989
  435POPC   C4B10150  41.310  41.306   7.664
  436POPC   NC310151   6.178  16.179   9.543
  436POPC   PO410152   5.508  16.197   9.510
  436POPC   GL110153   5.681  16.001   9.161
  436POPC   GL210154   6.004  15.808   9.158
  436POPC   C1A10155   5.636  15.930   8.744
  436POPC   D2A10156   5.623  15.766   8.358
  436POPC   C3A10157   5.544  16.018   8.013
  436POPC   C4A10158   5.442  15.814   7.662
  436POPC   C1B10159   6.141  15.939   8.733
  436POPC   C2B10160   5.939  16.175   8.362
  436POPC   C3B10161   6.045  16.155   7.914
  436POPC   C4B10162   5.920  16.025   7.467
  437POPC   NC310163  40.528  25.018   9.510
  437POPC   PO410164  39.864  25.321   9.379
  437POPC   GL110165  39.939  25.059   9.030
  437POPC   GL210166  40.275  25.040   9.085
  437POPC   C1A10167  40.026  25.057   8.604
  437POPC   D2A10168  39.896  25.438   8.422
  437POPC   C3A10169  39.694  25.287   8.075
  437POPC   C4A10170  39.907  25.193   7.693
  437POPC   C1B10171  40.339  25.396   8.804
  437POPC   C2B10172  40.418  25.347   8.357
  437POPC   C3B10173  40.205  25.476   7.978
  437POPC   C4B10174  40.332  25.413   7.513
  438POPC   NC310175  31.148  31.812   9.513
  438POPC   PO410176  31.831  31.658   9.302
  438POPC   GL110177  31.443  31.513   9.152
  438POPC   GL210178  31.445  31.871   9.060
  438POPC   C1A10179  31.224  31.302   8.784
  438POPC   D2A10180  31.281  31.164   8.311
  438POPC   C3A10181  31.440  31.226   7.833
  438POPC   C4A10182  31.523  31.554   7.450
  438POPC   C1B10183  31.095  31.788   8.870
  438POPC   C2B10184  31.029  31.665   8.458
  438POPC   C3B10185  31.275  31.679   8.112
  438POPC   C4B10186  31.110  31.602   7.737
  439POPC   NC310187   2.986  18.765   9.494
  439POPC   PO410188   2.525  19.204   9.382
  439POPC   GL110189   2.635  18.868   9.100
  439POPC   GL210190   2.969  18.927   9.021
  439POPC   C1A10191   2.603  18.948   8.657
  439POPC   D2A10192   2.261  19.052   8.365
  439POPC   C3A10193   2.416  19.156   7.963
  439POPC   C4A10194   2.713  19.013   7.684
  439POPC   C1B10195   2.975  19.332   8.793
  439POPC   C2B10196   3.192  19.412   8.379
  439POPC   C3B10197   3.122  19.236   7.969
  439POPC   C4B10198   3.176  19.170   7.519
  440POPC   NC310199   8.858  42.793   9.313
  440POPC   PO410200   9.165  43.316   9.538
  440POPC   GL110201   9.116  43.221   9.151
  440POPC   GL210202   8.768  43.318   9.165
  440POPC   C1A10203   9.259  42.932   8.808
  440POPC   D2A10204   9.261  42.741   8.397
  440POPC   C3A10205   9.041  43.013   8.142
  440POPC   C4A10206   9.106  43.345   7.903
  440POPC   C1B10207   8.829  43.217   8.720
  440POPC   C2B10208   8.677  43.353   8.332
  440POPC   C3B10209   8.588  43.303   7.904
  440POPC   C4B10210   8.716  42.925   7.711
  441POPC   NC310211  19.735  27.087   9.602
  441POPC   PO410212  19.972  26.373   9.481
  441POPC   GL110213  19.984  26.797   9.259
  441POPC   GL210214  19.657  26.888   9.142
  441POPC   C1A10215  20.048  26.997   8.845
  441POPC   D2A10216  19.898  26.781   8.483
  441POPC   C3A10217  19.837  26.799   8.058
  441POPC   C4A10218  20.047  26.957   7.697
  441POPC   C1B10219  19.545  26.598   8.819
  441POPC   C2B10220  19.405  26.683   8.376
  441POPC   C3B10221  19.406  26.550   7.922
  441POPC   C4B10222  19.442  26.528   7.454
  442POPC   NC310223   9.440  32.930   9.404
  442POPC   PO410224   8.843  33.253   9.312
  442POPC   GL110225   8.915  33.101   8.985
  442POPC   GL210226   9.007  32.742   8.982
  442POPC   C1A10227   8.882  33.217   8.599
  442POPC   D2A10228   8.848  32.869   8.392
  442POPC   C3A10229   8.646  32.922   8.039
  442POPC   C4A10230   8.820  32.838   7.664
  442POPC   C1B10231   9.332  32.983   8.746
  442POPC   C2B10232   9.335  33.095   8.343
  442POPC   C3B10233   9.214  32.896   7.988
  442POPC   C4B10234   9.295  32.838   7.535
  443POPC   NC310235  10.999  32.435   9.598
  443POPC   PO410236  10.587  32.960   9.554
  443POPC   GL110237  10.561  33.091   9.154
  443POPC   GL210238  10.278  33.259   9.018
  443POPC   C1A10239  10.504  32.878   8.739
  443POPC   D2A10240  10.189  32.963   8.420
  443POPC   C3A10241  10.299  32.833   7.991
  443POPC   C4A10242  10.305  32.836   7.552
  443POPC   C1B10243  10.491  33.372   8.642
  443POPC   C2B10244  10.542  33.255   8.199
  443POPC   C3B10245  10.589  33.201   7.750
  443POPC   C4B10246  10.401  33.306   7.360
  444POPC   NC310247  16.452   7.544   9.488
  444POPC   PO410248  17.110   7.288   9.473
  444POPC   GL110249  16.804   7.317   9.126
  444POPC   GL210250  16.576   7.050   9.170
  444POPC   C1A10251  16.551   7.331   8.714
  444POPC   D2A10252  16.307   7.475   8.331
  444POPC   C3A10253  16.547   7.469   7.942
  444POPC   C4A10254  16.483   7.689   7.574
  444POPC   C1B10255  16.239   6.957   8.888
  444POPC   C2B10256  16.254   6.972   8.440
  444POPC   C3B10257  16.431   6.980   8.027
  444POPC   C4B10258  16.454   7.135   7.562
  445POPC   NC310259  26.622   6.349   9.528
  445POPC   PO410260  26.926   6.986   9.498
  445POPC   GL110261  26.836   6.932   9.081
  445POPC   GL210262  26.818   6.596   9.110
  445POPC   C1A10263  26.932   6.802   8.653
  445POPC   D2A10264  26.957   7.001   8.257
  445POPC   C3A10265  26.828   6.706   7.961
  445POPC   C4A10266  27.006   6.306   8.040
  445POPC   C1B10267  26.548   6.400   8.795
  445POPC   C2B10268  26.563   6.241   8.359
  445POPC   C3B10269  26.445   6.369   7.944
  445POPC   C4B10270  26.503   6.476   7.481
  446POPC   NC310271  19.167   5.453   9.482
  446POPC   PO410272  18.929   4.849   9.505
  446POPC   GL110273  19.043   5.008   9.125
  446POPC   GL210274  18.743   4.926   8.979
  446POPC   C1A10275  19.241   4.911   8.694
  446POPC   D2A10276  19.309   5.211   8.319
  446POPC   C3A10277  19.312   5.033   7.879
  446POPC   C4A10278  19.544   5.211   7.518
  446POPC   C1B10279  18.880   5.243   8.702
  446POPC   C2B10280  18.830   5.067   8.299
  446POPC   C3B10281  18.719   5.141   7.900
  446POPC   C4B10282  18.876   4.864   7.638
  447POPC   NC310283  31.762   1.023   9.960
  447POPC   PO410284  31.451   1.290   9.413
  447POPC   GL110285  31.395   1.031   9.086
  447POPC   GL210286  31.183   1.279   8.952
  447POPC   C1A10287  31.273   0.863   8.672
  447POPC   D2A10288  31.232   1.180   8.359
  447POPC   C3A10289  31.476   0.977   8.059
  447POPC   C4A10290  31.738   0.763   7.772
  447POPC   C1B10291  31.507   1.473   8.752
  447POPC   C2B10292  31.715   1.404   8.355
  447POPC   C3B10293  31.543   1.470   7.998
  447POPC   C4B10294  31.528   1.249   7.616
  448POPC   NC310295  11.889   4.445   9.753
  448POPC   PO410296  12.429   3.998   9.613
  448POPC   GL110297  12.375   4.227   9.213
  448POPC   GL210298  12.021   4.363   9.191
  448POPC   C1A10299  12.271   4.166   8.771
  448POPC   D2A10300  12.275   4.054   8.352
  448POPC   C3A10301  12.208   4.323   8.031
  448POPC   C4A10302  12.364   4.467   7.647
  448POPC   C1B10303  11.855   4.473   8.771
  448POPC   C2B10304  11.709   4.422   8.315
  448POPC   C3B10305  11.802   4.644   7.901
  448POPC   C4B10306  11.893   4.488   7.472
  449POPC   NC310307  40.001  24.178   9.480
  449POPC   PO410308  40.090  23.509   9.534
  449POPC   GL110309  39.950  23.722   9.144
  449POPC   GL210310  40.049  24.041   8.981
  449POPC   C1A10311  39.903  23.603   8.711
  449POPC   D2A10312  40.152  23.471   8.351
  449POPC   C3A10313  39.996  23.547   7.928
  449POPC   C4A10314  39.926  23.709   7.504
  449POPC   C1B10315  40.370  23.768   8.751
  449POPC   C2B10316  40.533  23.832   8.345
  449POPC   C3B10317  40.497  23.604   7.987
  449POPC   C4B10318  40.476  23.737   7.598
  450POPC   NC310319  25.557  13.788   9.372
  450POPC   PO410320  25.203  13.227   9.544
  450POPC   GL110321  25.252  13.230   9.098
  450POPC   GL210322  25.601  13.297   9.141
  450POPC   C1A10323  25.015  13.383   8.697
  450POPC   D2A10324  25.154  13.681   8.396
  450POPC   C3A10325  25.041  13.807   8.020
  450POPC   C4A10326  25.385  13.841   7.777
  450POPC   C1B10327  25.484  13.520   8.770
  450POPC   C2B10328  25.556  13.386   8.389
  450POPC   C3B10329  25.434  13.375   7.980
  450POPC   C4B10330  25.754  13.427   7.663
  451POPC   NC310331   6.300  27.949   9.433
  451POPC   PO410332   6.584  28.631   9.396
  451POPC   GL110333   6.554  28.287   9.154
  451POPC   GL210334   6.210  28.368   9.142
  451POPC   C1A10335   6.736  28.138   8.786
  451POPC   D2A10336   6.869  28.436   8.471
  451POPC   C3A10337   6.707  28.358   8.081
  451POPC   C4A10338   6.895  28.059   7.823
  451POPC   C1B10339   6.177  28.111   8.788
  451POPC   C2B10340   6.368  28.126   8.403
  451POPC   C3B10341   6.249  28.178   7.980
  451POPC   C4B10342   6.462  28.079   7.597
  452POPC   NC310343  20.148  41.696   9.443
  452POPC   PO410344  20.849  41.622   9.421
  452POPC   GL110345  20.513  41.468   9.152
  452POPC   GL210346  20.431  41.761   9.042
  452POPC   C1A10347  20.522  41.190   8.812
  452POPC   D2A10348  20.691  41.110   8.459
  452POPC   C3A10349  20.587  41.364   8.167
  452POPC   C4A10350  20.752  41.325   7.770
  452POPC   C1B10351  20.606  41.654   8.653
  452POPC   C2B10352  20.683  41.870   8.297
  452POPC   C3B10353  20.569  41.794   7.893
  452POPC   C4B10354  20.536  42.039   7.566
  453POPC   NC310355  24.135  14.783   9.344
  453POPC   PO410356  23.705  14.260   9.443
  453POPC   GL110357  23.536  14.432   9.104
  453POPC   GL210358  23.722  14.703   9.062
  453POPC   C1A10359  23.583  14.278   8.705
  453POPC   D2A10360  23.454  14.040   8.365
  453POPC   C3A10361  23.673  14.094   7.999
  453POPC   C4A10362  24.156  14.182   7.927
  453POPC   C1B10363  24.005  14.589   8.721
  453POPC   C2B10364  23.904  14.405   8.331
  453POPC   C3B10365  23.800  14.585   7.934
  453POPC   C4B10366  24.037  14.588   7.561
  454POPC   NC310367  14.765   4.235   9.484
  454POPC   PO410368  14.108   4.410   9.642
  454POPC   GL110369  14.211   4.288   9.195
  454POPC   GL210370  14.507   4.442   9.120
  454POPC   C1A10371  14.067   4.088   8.802
  454POPC   D2A10372  14.082   3.980   8.348
  454POPC   C3A10373  14.180   4.341   8.084
  454POPC   C4A10374  14.377   4.393   7.643
  454POPC   C1B10375  14.619   4.101   8.835
  454POPC   C2B10376  14.569   4.158   8.426
  454POPC   C3B10377  14.689   4.231   8.026
  454POPC   C4B10378  14.927   4.207   7.684
  455POPC   NC310379  32.099  29.565   9.499
  455POPC   PO410380  32.631  29.998   9.436
  455POPC   GL110381  32.495  29.662   9.186
  455POPC   GL210382  32.204  29.811   9.074
  455POPC   C1A10383  32.526  29.515   8.790
  455POPC   D2A10384  32.456  29.812   8.471
  455POPC   C3A10385  32.597  29.658   8.081
  455POPC   C4A10386  32.406  29.803   7.698
  455POPC   C1B10387  31.952  29.980   8.769
  455POPC   C2B10388  31.957  29.847   8.377
  455POPC   C3B10389  32.034  30.013   8.002
  455POPC   C4B10390  31.919  29.783   7.641
  456POPC   NC310391   3.224  17.956   9.364
  456POPC   PO410392   3.584  17.447   9.583
  456POPC   GL110393   3.616  17.329   9.178
  456POPC   GL210394   3.296  17.493   9.133
  456POPC   C1A10395   3.661  17.236   8.735
  456POPC   D2A10396   3.666  17.511   8.369
  456POPC   C3A10397   3.617  17.326   7.934
  456POPC   C4A10398   3.592  17.619   7.594
  456POPC   C1B10399   3.167  17.409   8.724
  456POPC   C2B10400   3.248  17.254   8.327
  456POPC   C3B10401   3.090  17.300   7.942
  456POPC   C4B10402   3.093  17.531   7.574
  457POPC   NC310403   6.492   4.850   9.473
  457POPC   PO410404   6.499   5.406   9.907
  457POPC   GL110405   6.565   5.387   9.343
  457POPC   GL210406   6.749   5.131   9.131
  457POPC   C1A10407   6.516   5.417   8.803
  457POPC   D2A10408   6.715   5.432   8.335
  457POPC   C3A10409   6.551   5.382   7.899
  457POPC   C4A10410   6.370   5.320   7.471
  457POPC   C1B10411   6.713   4.870   8.778
  457POPC   C2B10412   6.678   4.610   8.417
  457POPC   C3B10413   6.567   4.858   8.073
  457POPC   C4B10414   6.616   4.929   7.651
  458POPC   NC310415   9.312  13.998   9.472
  458POPC   PO410416   8.887  13.445   9.465
  458POPC   GL110417   8.884  13.735   9.168
  458POPC   GL210418   8.688  14.023   9.313
  458POPC   C1A10419   8.963  13.702   8.726
  458POPC   D2A10420   8.716  13.571   8.395
  458POPC   C3A10421   8.976  13.450   8.103
  458POPC   C4A10422   8.853  13.528   7.730
  458POPC   C1B10423   8.776  14.139   8.882
  458POPC   C2B10424   8.727  14.118   8.448
  458POPC   C3B10425   8.908  13.967   8.083
  458POPC   C4B10426   8.736  14.005   7.657
  459POPC   NC310427  39.359  41.921   9.464
  459POPC   PO410428  39.356  42.608   9.555
  459POPC   GL110429  39.308  42.340   9.176
  459POPC   GL210430  39.009  42.156   9.111
  459POPC   C1A10431  39.355  42.244   8.724
  459POPC   D2A10432  39.110  42.327   8.348
  459POPC   C3A10433  39.371  42.343   7.983
  459POPC   C4A10434  39.302  42.412   7.560
  459POPC   C1B10435  38.939  41.947   8.661
  459POPC   C2B10436  38.804  41.949   8.201
  459POPC   C3B10437  38.863  42.181   7.814
  459POPC   C4B10438  38.958  42.040   7.372
  460POPC   NC310439  41.265  11.004   9.362
  460POPC   PO410440  41.117  11.583   9.427
  460POPC   GL110441  41.318  11.424   9.036
  460POPC   GL210442  41.245  11.111   8.869
  460POPC   C1A10443  41.439  11.502   8.600
  460POPC   D2A10444  41.694  11.362   8.226
  460POPC   C3A10445  41.774  11.628   7.867
  460POPC   C4A10446  41.858  11.517   7.426
  460POPC   C1B10447  40.918  10.967   8.568
  460POPC   C2B10448  40.903  10.904   8.102
  460POPC   C3B10449  41.280  10.972   7.848
  460POPC   C4B10450  41.395  11.355   7.621
  461POPC   NC310451  13.250  19.850   9.524
  461POPC   PO410452  13.854  20.133   9.400
  461POPC   GL110453  13.636  19.814   9.183
  461POPC   GL210454  13.322  19.906   9.038
  461POPC   C1A10455  13.741  19.559   8.832
  461POPC   D2A10456  13.616  19.597   8.399
  461POPC   C3A10457  13.949  19.622   8.131
  461POPC   C4A10458  13.973  19.615   7.700
  461POPC   C1B10459  13.561  20.026   8.698
  461POPC   C2B10460  13.669  20.118   8.288
  461POPC   C3B10461  13.552  19.893   7.952
  461POPC   C4B10462  13.450  19.526   7.713
  462POPC   NC310463   3.494  31.501   9.729
  462POPC   PO410464   4.079  31.666   9.449
  462POPC   GL110465   4.204  31.437   9.116
  462POPC   GL210466   4.533  31.422   9.066
  462POPC   C1A10467   4.225  31.527   8.691
  462POPC   D2A10468   4.052  31.507   8.321
  462POPC   C3A10469   4.195  31.344   7.961
  462POPC   C4A10470   4.230  31.520   7.586
  462POPC   C1B10471   4.681  31.295   8.700
  462POPC   C2B10472   4.495  31.176   8.324
  462POPC   C3B10473   4.688  31.163   7.876
  462POPC   C4B10474   4.738  31.218   7.380
  463POPC   NC310475  29.903  12.212   9.644
  463POPC   PO410476  29.454  11.827   9.303
  463POPC   GL110477  29.810  11.900   9.064
  463POPC   GL210478  30.126  12.038   9.189
  463POPC   C1A10479  29.886  12.067   8.652
  463POPC   D2A10480  30.069  11.918   8.284
  463POPC   C3A10481  29.851  11.926   7.900
  463POPC   C4A10482  29.727  12.280   7.718
  463POPC   C1B10483  30.291  12.327   8.866
  463POPC   C2B10484  30.216  12.398   8.427
  463POPC   C3B10485  30.146  12.383   7.993
  463POPC   C4B10486  30.238  12.355   7.541
  464POPC   NC310487   3.047  43.218   9.417
  464POPC   PO410488   2.656  42.683   9.502
  464POPC   GL110489   2.637  42.796   9.084
  464POPC   GL210490   2.981  42.818   9.107
  464POPC   C1A10491   2.626  42.856   8.640
  464POPC   D2A10492   2.623  43.272   8.425
  464POPC   C3A10493   2.513  43.220   8.016
  464POPC   C4A10494   2.458  42.786   7.822
  464POPC   C1B10495   3.000  43.156   8.765
  464POPC   C2B10496   3.027  42.959   8.337
  464POPC   C3B10497   2.947  42.970   7.915
  464POPC   C4B10498   3.134  43.222   7.615
  465POPC   NC310499  37.456  10.242   9.577
  465POPC   PO410500  38.118  10.308   9.708
  465POPC   GL110501  37.921  10.323   9.297
  465POPC   GL210502  37.723  10.650   9.219
  465POPC   C1A10503  37.989  10.382   8.844
  465POPC   D2A10504  37.836  10.239   8.433
  465POPC   C3A10505  38.062  10.317   8.074
  465POPC   C4A10506  37.994  10.146   7.689
  465POPC   C1B10507  37.668  10.789   8.746
  465POPC   C2B10508  37.581  10.659   8.295
  465POPC   C3B10509  37.601  10.400   7.898
  465POPC   C4B10510  37.536  10.475   7.437
  466POPC   NC310511  24.196   8.398   9.441
  466POPC   PO410512  24.898   8.430   9.458
  466POPC   GL110513  24.647   8.242   9.151
  466POPC   GL210514  24.684   7.893   9.150
  466POPC   C1A10515  24.488   8.409   8.767
  466POPC   D2A10516  24.668   8.459   8.368
  466POPC   C3A10517  24.446   8.383   8.021
  466POPC   C4A10518  24.339   8.223   7.626
  466POPC   C1B10519  24.290   7.947   8.853
  466POPC   C2B10520  24.179   8.076   8.413
  466POPC   C3B10521  24.276   7.885   8.002
  466POPC   C4B10522  24.519   7.776   7.605
  467POPC   NC310523  36.871  31.157   9.217
  467POPC   PO410524  36.788  30.573   9.482
  467POPC   GL110525  36.604  30.716   9.130
  467POPC   GL210526  36.955  30.696   9.020
  467POPC   C1A10527  36.553  30.794   8.688
  467POPC   D2A10528  36.725  30.662   8.278
  467POPC   C3A10529  36.574  30.901   7.932
  467POPC   C4A10530  36.836  31.162   7.711
  467POPC   C1B10531  37.045  30.881   8.654
  467POPC   C2B10532  37.241  30.642   8.434
  467POPC   C3B10533  37.274  30.557   8.034
  467POPC   C4B10534  37.002  30.677   7.747
  468POPC   NC310535  28.801  18.120   9.593
  468POPC   PO410536  29.246  18.564   9.582
  468POPC   GL110537  29.218  18.287   9.182
  468POPC   GL210538  28.953  18.036   9.110
  468POPC   C1A10539  29.330  18.099   8.744
  468POPC   D2A10540  29.181  18.243   8.360
  468POPC   C3A10541  29.248  18.067   7.979
  468POPC   C4A10542  29.236  18.324   7.587
  468POPC   C1B10543  28.828  17.989   8.675
  468POPC   C2B10544  28.728  18.010   8.237
  468POPC   C3B10545  28.784  18.219   7.822
  468POPC   C4B10546  28.741  17.990   7.458
  469POPC   NC310547  19.293   3.684   9.480
  469POPC   PO410548  18.782   4.029   9.337
  469POPC   GL110549  18.907   3.693   9.107
  469POPC   GL210550  19.206   3.649   8.964
  469POPC   C1A10551  18.815   3.433   8.746
  469POPC   D2A10552  18.827   3.618   8.347
  469POPC   C3A10553  18.816   3.385   7.956
  469POPC   C4A10554  18.615   3.166   7.618
  469POPC   C1B10555  19.295   3.649   8.535
  469POPC   C2B10556  19.287   3.611   8.106
  469POPC   C3B10557  19.203   3.738   7.718
  469POPC   C4B10558  19.147   3.941   7.304
  470POPC   NC310559   8.344  12.467   9.408
  470POPC   PO410560   8.050  13.145   9.448
  470POPC   GL110561   8.307  12.996   9.131
  470POPC   GL210562   8.651  12.986   9.239
  470POPC   C1A10563   8.165  12.818   8.753
  470POPC   D2A10564   8.065  12.943   8.365
  470POPC   C3A10565   8.251  12.773   8.005
  470POPC   C4A10566   8.280  12.864   7.565
  470POPC   C1B10567   8.654  12.734   8.814
  470POPC   C2B10568   8.504  12.548   8.423
  470POPC   C3B10569   8.738  12.636   8.078
  470POPC   C4B10570   8.742  12.672   7.664
  471POPC   NC310571   9.750  15.638   9.671
  471POPC   PO410572  10.129  16.198   9.567
  471POPC   GL110573   9.887  15.897   9.256
  471POPC   GL210574   9.551  15.904   9.288
  471POPC   C1A10575   9.960  15.771   8.809
  471POPC   D2A10576   9.842  15.980   8.405
  471POPC   C3A10577  10.025  15.921   7.988
  471POPC   C4A10578  10.044  16.106   7.540
  471POPC   C1B10579   9.534  16.060   8.865
  471POPC   C2B10580   9.489  16.342   8.512
  471POPC   C3B10581   9.523  16.243   8.082
  471POPC   C4B10582   9.606  15.993   7.723
  472POPC   NC310583  42.600  31.908   9.526
  472POPC   PO410584  42.369  31.271   9.540
  472POPC   GL110585  42.256  31.559   9.195
  472POPC   GL210586  42.287  31.265   9.028
  472POPC   C1A10587  42.152  31.640   8.737
  472POPC   D2A10588  42.337  31.418   8.409
  472POPC   C3A10589  42.322  31.602   7.990
  472POPC   C4A10590  42.277  31.476   7.544
  472POPC   C1B10591  42.667  31.214   8.812
  472POPC   C2B10592  42.700  31.047   8.416
  472POPC   C3B10593  42.729  31.299   8.083
  472POPC   C4B10594  42.661  31.219   7.708
  473POPC   NC310595  39.142  15.896   9.780
  473POPC   PO410596  39.358  16.427   9.619
  473POPC   GL110597  39.098  16.175   9.281
  473POPC   GL210598  39.013  15.801   9.254
  473POPC   C1A10599  38.949  16.127   8.849
  473POPC   D2A10600  39.034  16.252   8.421
  473POPC   C3A10601  39.316  15.951   8.143
  473POPC   C4A10602  39.464  15.697   7.745
  473POPC   C1B10603  38.951  15.589   8.839
  473POPC   C2B10604  38.942  15.715   8.415
  473POPC   C3B10605  39.022  15.558   8.015
  473POPC   C4B10606  38.973  15.728   7.592
  474POPC   NC310607  29.143  17.135   9.383
  474POPC   PO410608  28.783  17.681   9.493
  474POPC   GL110609  28.858  17.511   9.088
  474POPC   GL210610  28.955  17.177   8.912
  474POPC   C1A10611  29.162  17.633   8.823
  474POPC   D2A10612  29.262  17.708   8.397
  474POPC   C3A10613  29.104  17.538   8.036
  474POPC   C4A10614  28.749  17.674   7.836
  474POPC   C1B10615  29.384  17.211   8.683
  474POPC   C2B10616  29.492  17.222   8.244
  474POPC   C3B10617  29.424  17.258   7.741
  474POPC   C4B10618  29.462  17.207   7.278
  475POPC   NC310619  27.293  42.855   9.759
  475POPC   PO410620  27.276  43.398   9.699
  475POPC   GL110621  27.342  43.500   9.235
  475POPC   GL210622  27.226  43.164   9.160
  475POPC   C1A10623  27.579  43.501   8.805
  475POPC   D2A10624  27.822  43.621   8.398
  475POPC   C3A10625  27.716  43.399   8.004
  475POPC   C4A10626  27.760  43.109   7.628
  475POPC   C1B10627  27.107  43.325   8.747
  475POPC   C2B10628  27.335  43.346   8.344
  475POPC   C3B10629  27.202  43.301   7.899
  475POPC   C4B10630  27.038  43.414   7.452
  476POPC   NC310631  15.850  30.552   9.456
  476POPC   PO410632  16.474  30.789   9.556
  476POPC   GL110633  16.170  30.798   9.115
  476POPC   GL210634  15.843  30.551   8.970
  476POPC   C1A10635  16.100  30.788   8.637
  476POPC   D2A10636  15.814  30.557   8.379
  476POPC   C3A10637  16.012  30.719   8.025
  476POPC   C4A10638  16.067  30.562   7.662
  476POPC   C1B10639  15.612  30.888   8.808
  476POPC   C2B10640  15.691  31.050   8.405
  476POPC   C3B10641  15.566  30.947   8.015
  476POPC   C4B10642  15.553  30.592   7.725
  477POPC   NC310643  40.670  30.499   9.632
  477POPC   PO410644  40.547  31.140   9.569
  477POPC   GL110645  40.721  30.812   9.215
  477POPC   GL210646  40.555  30.438   9.136
  477POPC   C1A10647  40.655  30.777   8.756
  477POPC   D2A10648  40.400  30.843   8.398
  477POPC   C3A10649  40.624  30.723   8.052
  477POPC   C4A10650  40.620  30.870   7.640
  477POPC   C1B10651  40.929  30.373   8.843
  477POPC   C2B10652  41.091  30.522   8.426
  477POPC   C3B10653  40.999  30.374   7.999
  477POPC   C4B10654  40.627  30.321   7.717
  478POPC   NC310655  42.958  35.794   9.463
  478POPC   PO410656  43.211  35.143   9.569
  478POPC   GL110657  43.123  35.323   9.170
  478POPC   GL210658  43.327  35.645   9.156
  478POPC   C1A10659  43.229  35.164   8.757
  478POPC   D2A10660  43.446  35.121   8.362
  478POPC   C3A10661  43.199  35.182   7.991
  478POPC   C4A10662  43.115  35.139   7.542
  478POPC   C1B10663  43.080  35.683   8.794
  478POPC   C2B10664  43.086  35.503   8.405
  478POPC   C3B10665  43.067  35.718   8.053
  478POPC   C4B10666  43.058  35.623   7.692
  479POPC   NC310667   9.880  18.523   9.543
  479POPC   PO410668   9.800  19.194   9.564
  479POPC   GL110669   9.597  19.046   9.215
  479POPC   GL210670   9.573  18.721   9.184
  479POPC   C1A10671   9.537  19.195   8.811
  479POPC   D2A10672   9.787  19.379   8.483
  479POPC   C3A10673   9.734  19.239   8.058
  479POPC   C4A10674   9.403  19.081   7.813
  479POPC   C1B10675   9.839  18.765   8.828
  479POPC   C2B10676   9.710  18.846   8.423
  479POPC   C3B10677   9.634  18.656   8.030
  479POPC   C4B10678   9.905  18.801   7.779
  480POPC   NC310679  18.934  36.179   9.720
  480POPC   PO410680  18.847  35.690   9.272
  480POPC   GL110681  19.009  36.084   9.132
  480POPC   GL210682  19.168  36.419   9.183
  480POPC   C1A10683  19.022  36.225   8.704
  480POPC   D2A10684  19.054  36.438   8.301
  480POPC   C3A10685  18.970  36.171   7.948
  480POPC   C4A10686  18.789  35.842   7.678
  480POPC   C1B10687  19.408  36.548   8.807
  480POPC   C2B10688  19.562  36.495   8.376
  480POPC   C3B10689  19.450  36.320   7.999
  480POPC   C4B10690  19.300  36.396   7.597
  481POPC   NC310691  42.945  23.950   9.678
  481POPC   PO410692  43.353  23.495   9.472
  481POPC   GL110693  43.092  23.500   9.140
  481POPC   GL210694  42.882  23.795   9.198
  481POPC   C1A10695  43.229  23.388   8.745
  481POPC   D2A10696  43.345  23.686   8.435
  481POPC   C3A10697  43.374  23.489   8.048
  481POPC   C4A10698  43.264  23.625   7.653
  481POPC   C1B10699  42.931  23.945   8.786
  481POPC   C2B10700  42.861  23.893   8.364
  481POPC   C3B10701  43.129  23.977   8.007
  481POPC   C4B10702  43.241  24.120   7.581
  482POPC   NC310703  13.979  31.036   9.229
  482POPC   PO410704  14.553  31.265   9.527
  482POPC   GL110705  14.432  31.245   9.121
  482POPC   GL210706  14.255  31.511   9.121
  482POPC   C1A10707  14.612  31.287   8.697
  482POPC   D2A10708  14.794  31.438   8.319
  482POPC   C3A10709  14.719  31.323   7.923
  482POPC   C4A10710  14.452  31.632   7.751
  482POPC   C1B10711  14.362  31.741   8.781
  482POPC   C2B10712  14.450  31.813   8.375
  482POPC   C3B10713  14.280  31.440   8.186
  482POPC   C4B10714  14.194  31.193   7.824
  483POPC   NC310715   5.694  26.077   9.625
  483POPC   PO410716   6.079  25.667   9.479
  483POPC   GL110717   5.792  25.864   9.159
  483POPC   GL210718   5.487  26.117   9.163
  483POPC   C1A10719   5.767  26.038   8.748
  483POPC   D2A10720   5.737  25.862   8.373
  483POPC   C3A10721   6.073  25.847   8.117
  483POPC   C4A10722   5.897  25.867   7.718
  483POPC   C1B10723   5.406  26.399   8.812
  483POPC   C2B10724   5.570  26.394   8.377
  483POPC   C3B10725   5.673  26.271   7.941
  483POPC   C4B10726   5.848  26.437   7.525
  484POPC   NC310727  18.138  26.817   9.759
  484POPC   PO410728  18.631  27.171   9.478
  484POPC   GL110729  18.373  26.877   9.197
  484POPC   GL210730  18.060  26.820   9.222
  484POPC   C1A10731  18.448  26.818   8.791
  484POPC   D2A10732  18.557  26.924   8.401
  484POPC   C3A10733  18.210  26.936   8.166
  484POPC   C4A10734  18.187  26.979   7.748
  484POPC   C1B10735  17.960  26.694   8.827
  484POPC   C2B10736  18.207  26.516   8.461
  484POPC   C3B10737  18.159  26.437   8.019
  484POPC   C4B10738  17.972  26.556   7.614
  485POPC   NC310739  36.274  24.301   9.483
  485POPC   PO410740  36.107  24.938   9.509
  485POPC   GL110741  36.055  24.794   9.095
  485POPC   GL210742  36.359  24.588   9.038
  485POPC   C1A10743  35.992  24.624   8.669
  485POPC   D2A10744  35.869  24.431   8.268
  485POPC   C3A10745  35.817  24.574   7.829
  485POPC   C4A10746  36.004  24.766   7.477
  485POPC   C1B10747  36.455  24.426   8.623
  485POPC   C2B10748  36.376  24.449   8.223
  485POPC   C3B10749  36.288  24.316   7.824
  485POPC   C4B10750  36.449  24.524   7.451
  486POPC   NC310751  20.756  43.585   9.471
  486POPC   PO410752  20.275  44.151   9.419
  486POPC   GL110753  20.601  43.906   9.103
  486POPC   GL210754  20.981  43.701   9.042
  486POPC   C1A10755  20.661  43.829   8.668
  486POPC   D2A10756  20.393  43.902   8.328
  486POPC   C3A10757  20.548  44.122   7.977
  486POPC   C4A10758  20.829  44.135   7.668
  486POPC   C1B10759  20.946  43.404   8.690
  486POPC   C2B10760  20.675  43.431   8.339
  486POPC   C3B10761  20.758  43.663   8.023
  486POPC   C4B10762  20.911  43.638   7.667
  487POPC   NC310763  30.632  30.024   9.488
  487POPC   PO410764  31.267  30.093   9.544
  487POPC   GL110765  31.011  30.182   9.186
  487POPC   GL210766  30.996  29.815   9.170
  487POPC   C1A10767  30.704  30.127   8.826
  487POPC   D2A10768  30.504  30.231   8.428
  487POPC   C3A10769  30.655  30.335   8.054
  487POPC   C4A10770  30.505  30.200   7.684
  487POPC   C1B10771  31.042  29.756   8.763
  487POPC   C2B10772  30.697  29.697   8.444
  487POPC   C3B10773  30.432  29.865   8.090
  487POPC   C4B10774  30.337  29.730   7.672
  488POPC   NC310775  17.474  18.997   9.936
  488POPC   PO410776  17.885  19.349   9.518
  488POPC   GL110777  17.616  19.229   9.161
  488POPC   GL210778  17.318  19.043   9.243
  488POPC   C1A10779  17.663  19.029   8.758
  488POPC   D2A10780  17.605  19.262   8.383
  488POPC   C3A10781  17.677  19.094   8.039
  488POPC   C4A10782  17.894  18.904   7.739
  488POPC   C1B10783  17.170  19.037   8.833
  488POPC   C2B10784  17.237  18.929   8.395
  488POPC   C3B10785  17.184  18.904   7.955
  488POPC   C4B10786  17.392  19.123   7.628
  489POPC   NC310787  35.384  35.843   9.594
  489POPC   PO410788  35.030  36.390   9.442
  489POPC   GL110789  35.339  36.185   9.184
  489POPC   GL210790  35.484  35.825   9.096
  489POPC   C1A10791  35.468  36.296   8.821
  489POPC   D2A10792  35.283  36.369   8.462
  489POPC   C3A10793  35.438  36.088   8.201
  489POPC   C4A10794  35.353  36.253   7.822
  489POPC   C1B10795  35.203  35.845   8.722
  489POPC   C2B10796  35.113  35.701   8.295
  489POPC   C3B10797  35.206  35.766   7.841
  489POPC   C4B10798  35.291  35.586   7.440
  490POPC   NC310799   1.141  24.764   9.530
  490POPC   PO410800   1.548  24.272   9.521
  490POPC   GL110801   1.468  24.465   9.128
  490POPC   GL210802   1.352  24.797   9.083
  490POPC   C1A10803   1.200  24.405   8.761
  490POPC   D2A10804   1.088  24.160   8.411
  490POPC   C3A10805   1.134  24.337   7.999
  490POPC   C4A10806   0.970  24.161   7.582
  490POPC   C1B10807   1.391  24.866   8.662
  490POPC   C2B10808   1.217  24.806   8.249
  490POPC   C3B10809   1.405  25.014   7.880
  490POPC   C4B10810   1.435  25.038   7.431
  491POPC   NC310811  29.003  16.330   9.489
  491POPC   PO410812  28.682  16.942   9.365
  491POPC   GL110813  28.987  16.686   9.071
  491POPC   GL210814  29.252  16.391   9.031
  491POPC   C1A10815  29.175  16.753   8.684
  491POPC   D2A10816  29.345  16.712   8.274
  491POPC   C3A10817  29.097  16.989   8.020
  491POPC   C4A10818  28.734  16.974   7.769
  491POPC   C1B10819  29.189  16.267   8.552
  491POPC   C2B10820  28.867  16.494   8.299
  491POPC   C3B10821  28.952  16.527   7.882
  491POPC   C4B10822  29.371  16.496   7.790
  492POPC   NC310823  41.716  18.008   9.236
  492POPC   PO410824  41.792  18.645   9.428
  492POPC   GL110825  41.847  18.449   9.052
  492POPC   GL210826  41.472  18.418   9.018
  492POPC   C1A10827  41.729  18.222   8.638
  492POPC   D2A10828  41.541  18.328   8.256
  492POPC   C3A10829  41.749  18.180   7.886
  492POPC   C4A10830  41.623  18.016   7.480
  492POPC   C1B10831  41.212  18.142   8.759
  492POPC   C2B10832  41.140  17.999   8.317
  492POPC   C3B10833  41.249  18.082   7.893
  492POPC   C4B10834  41.299  18.513   7.822
  493POPC   NC310835  38.831  35.983   9.631
  493POPC   PO410836  39.526  35.921   9.503
  493POPC   GL110837  39.388  36.019   9.112
  493POPC   GL210838  39.070  35.853   9.192
  493POPC   C1A10839  39.411  36.319   8.758
  493POPC   D2A10840  39.421  36.611   8.386
  493POPC   C3A10841  39.514  36.414   8.014
  493POPC   C4A10842  39.519  36.047   7.790
  493POPC   C1B10843  38.973  35.986   8.781
  493POPC   C2B10844  38.822  36.037   8.371
  493POPC   C3B10845  39.064  36.138   8.031
  493POPC   C4B10846  38.980  35.967   7.639
  494POPC   NC310847  10.030  40.589   9.607
  494POPC   PO410848   9.402  40.635   9.393
  494POPC   GL110849   9.739  40.734   9.130
  494POPC   GL210850   9.950  40.949   9.260
  494POPC   C1A10851   9.872  40.503   8.780
  494POPC   D2A10852  10.047  40.338   8.417
  494POPC   C3A10853   9.930  40.521   8.028
  494POPC   C4A10854   9.707  40.439   7.615
  494POPC   C1B10855  10.097  41.035   8.872
  494POPC   C2B10856   9.962  40.881   8.458
  494POPC   C3B10857   9.956  41.063   8.084
  494POPC   C4B10858   9.837  40.912   7.729
  495POPC   NC310859  19.272  30.686   9.646
  495POPC   PO410860  18.640  30.644   9.583
  495POPC   GL110861  18.905  30.651   9.192
  495POPC   GL210862  19.276  30.620   9.155
  495POPC   C1A10863  18.979  30.572   8.753
  495POPC   D2A10864  18.913  30.979   8.594
  495POPC   C3A10865  18.995  31.000   8.176
  495POPC   C4A10866  18.895  30.876   7.788
  495POPC   C1B10867  19.395  30.893   8.800
  495POPC   C2B10868  19.474  30.974   8.343
  495POPC   C3B10869  19.380  30.784   7.923
  495POPC   C4B10870  19.123  30.418   7.893
  496POPC   NC310871  24.907  19.923   9.083
  496POPC   PO410872  24.413  19.807   9.530
  496POPC   GL110873  24.339  19.966   9.154
  496POPC   GL210874  24.470  19.686   8.924
  496POPC   C1A10875  24.283  20.129   8.760
  496POPC   D2A10876  24.328  19.852   8.420
  496POPC   C3A10877  24.334  20.096   8.060
  496POPC   C4A10878  24.468  20.037   7.663
  496POPC   C1B10879  24.784  19.641   8.528
  496POPC   C2B10880  24.700  19.676   8.087
  496POPC   C3B10881  24.438  19.531   7.754
  496POPC   C4B10882  24.646  19.666   7.370
  497POPC   NC310883  16.001  39.473   9.408
  497POPC   PO410884  16.187  38.880   9.329
  497POPC   GL110885  15.950  39.121   8.991
  497POPC   GL210886  15.750  39.433   8.968
  497POPC   C1A10887  15.942  39.240   8.544
  497POPC   D2A10888  16.268  39.440   8.320
  497POPC   C3A10889  16.152  39.372   7.907
  497POPC   C4A10890  16.306  39.034   7.605
  497POPC   C1B10891  15.762  39.725   8.616
  497POPC   C2B10892  15.864  39.710   8.198
  497POPC   C3B10893  15.673  39.610   7.809
  497POPC   C4B10894  15.583  39.617   7.334
  498POPC   NC310895  33.408   3.018   9.477
  498POPC   PO410896  34.054   2.640   9.565
  498POPC   GL110897  33.776   2.761   9.233
  498POPC   GL210898  33.990   2.691   9.011
  498POPC   C1A10899  33.528   2.639   8.818
  498POPC   D2A10900  33.713   2.603   8.376
  498POPC   C3A10901  33.647   2.833   7.991
  498POPC   C4A10902  33.452   3.161   7.774
  498POPC   C1B10903  33.928   2.955   8.669
  498POPC   C2B10904  34.137   3.020   8.274
  498POPC   C3B10905  34.059   3.124   7.850
  498POPC   C4B10906  34.033   3.191   7.401
  499POPC   NC310907  38.648   5.379   9.602
  499POPC   PO410908  38.294   5.907   9.579
  499POPC   GL110909  38.471   6.051   9.204
  499POPC   GL210910  38.673   5.747   9.241
  499POPC   C1A10911  38.317   6.109   8.763
  499POPC   D2A10912  38.547   5.941   8.419
  499POPC   C3A10913  38.339   5.957   8.044
  499POPC   C4A10914  38.200   6.261   7.768
  499POPC   C1B10915  38.567   5.646   8.849
  499POPC   C2B10916  38.647   5.439   8.487
  499POPC   C3B10917  38.709   5.569   8.092
  499POPC   C4B10918  38.765   5.838   7.791
  500POPC   NC310919  37.448  39.083   9.368
  500POPC   PO410920  36.779  39.038   9.662
  500POPC   GL110921  36.936  39.169   9.268
  500POPC   GL210922  37.048  38.857   9.133
  500POPC   C1A10923  36.815  39.357   8.868
  500POPC   D2A10924  36.934  39.438   8.430
  500POPC   C3A10925  36.773  39.269   8.050
  500POPC   C4A10926  36.823  38.954   7.789
  500POPC   C1B10927  37.187  39.021   8.735
  500POPC   C2B10928  37.060  38.940   8.326
  500POPC   C3B10929  37.269  38.841   7.970
  500POPC   C4B10930  37.266  39.012   7.558
  501POPC   NC310931  21.070  37.348   9.208
  501POPC   PO410932  20.880  36.750   9.351
  501POPC   GL110933  20.529  37.001   9.130
  501POPC   GL210934  20.248  36.771   9.012
  501POPC   C1A10935  20.562  37.263   8.737
  501POPC   D2A10936  20.909  37.228   8.412
  501POPC   C3A10937  20.745  37.002   8.071
  501POPC   C4A10938  20.417  37.068   7.790
  501POPC   C1B10939  20.613  36.737   8.701
  501POPC   C2B10940  20.715  36.509   8.322
  501POPC   C3B10941  20.662  36.532   7.870
  501POPC   C4B10942  20.999  36.512   7.611
  502POPC   NC310943  21.013  18.776   9.418
  502POPC   PO410944  20.415  19.055   9.671
  502POPC   GL110945  20.636  19.069   9.257
  502POPC   GL210946  20.598  18.750   9.087
  502POPC   C1A10947  20.576  19.187   8.825
  502POPC   D2A10948  20.439  18.997   8.452
  502POPC   C3A10949  20.504  19.219   8.084
  502POPC   C4A10950  20.547  19.060   7.681
  502POPC   C1B10951  20.864  18.762   8.713
  502POPC   C2B10952  20.901  18.684   8.252
  502POPC   C3B10953  20.614  18.601   7.870
  502POPC   C4B10954  20.690  18.707   7.368
  503POPC   NC310955   0.808  42.922   9.406
  503POPC   PO410956   0.366  42.622   9.762
  503POPC   GL110957   0.324  42.840   9.294
  503POPC   GL210958   0.129  43.164   9.279
  503POPC   C1A10959   0.484  42.840   8.818
  503POPC   D2A10960   0.510  42.781   8.338
  503POPC   C3A10961   0.433  43.022   7.948
  503POPC   C4A10962   0.432  42.905   7.501
  503POPC   C1B10963   0.247  43.290   8.845
  503POPC   C2B10964   0.096  43.143   8.436
  503POPC   C3B10965  44.937  43.214   8.020
  503POPC   C4B10966   0.122  43.335   7.598
  504POPC   NC310967   3.944  10.267   9.506
  504POPC   PO410968   3.490  10.806   9.501
  504POPC   GL110969   3.688  10.615   9.181
  504POPC   GL210970   3.592  10.288   9.131
  504POPC   C1A10971   3.583  10.618   8.746
  504POPC   D2A10972   3.784  10.673   8.351
  504POPC   C3A10973   3.481  10.627   7.994
  504POPC   C4A10974   3.518  10.817   7.593
  504POPC   C1B10975   3.307  10.185   8.824
  504POPC   C2B10976   3.350  10.304   8.399
  504POPC   C3B10977   3.716  10.196   8.155
  504POPC   C4B10978   3.577  10.139   7.763
  505POPC   NC310979  19.123   2.935   9.654
  505POPC   PO410980  18.858   3.544   9.603
  505POPC   GL110981  19.050   3.225   9.213
  505POPC   GL210982  19.308   2.983   9.151
  505POPC   C1A10983  18.858   2.928   8.847
  505POPC   D2A10984  18.702   2.699   8.437
  505POPC   C3A10985  18.849   2.858   8.007
  505POPC   C4A10986  19.033   2.858   7.597
  505POPC   C1B10987  19.284   3.188   8.748
  505POPC   C2B10988  19.105   3.175   8.324
  505POPC   C3B10989  19.321   3.162   7.869
  505POPC   C4B10990  19.488   3.040   7.411
  506POPC   NC310991  32.594  40.437   9.470
  506POPC   PO410992  32.105  40.916   9.486
  506POPC   GL110993  32.252  40.940   9.098
  506POPC   GL210994  32.611  40.909   9.135
  506POPC   C1A10995  32.151  40.728   8.747
  506POPC   D2A10996  31.998  40.415   8.471
  506POPC   C3A10997  32.195  40.409   8.091
  506POPC   C4A10998  32.123  40.720   7.792
  506POPC   C1B10999  32.589  40.982   8.701
  506POPC   C2B11000  32.395  40.841   8.314
  506POPC   C3B11001  32.557  40.920   7.929
  506POPC   C4B11002  32.499  41.165   7.572
  507POPC   NC311003  30.225   9.051   9.393
  507POPC   PO411004  29.811   8.611   9.385
  507POPC   GL111005  29.896   8.609   8.997
  507POPC   GL211006  29.956   8.992   8.973
  507POPC   C1A11007  29.649   8.754   8.665
  507POPC   D2A11008  29.726   9.068   8.403
  507POPC   C3A11009  29.589   8.866   8.052
  507POPC   C4A11010  29.738   8.885   7.648
  507POPC   C1B11011  30.287   9.224   8.729
  507POPC   C2B11012  30.171   9.371   8.324
  507POPC   C3B11013  30.006   9.232   7.936
  507POPC   C4B11014  30.174   9.175   7.542
  508POPC   NC311015   3.466  32.693   9.775
  508POPC   PO411016   3.581  32.011   9.734
  508POPC   GL111017   3.326  32.201   9.265
  508POPC   GL211018   3.346  32.516   9.006
  508POPC   C1A11019   3.414  32.074   8.779
  508POPC   D2A11020   3.200  32.334   8.491
  508POPC   C3A11021   3.346  32.467   8.080
  508POPC   C4A11022   3.230  32.340   7.682
  508POPC   C1B11023   3.761  32.450   8.762
  508POPC   C2B11024   3.776  32.353   8.352
  508POPC   C3B11025   3.809  32.249   7.937
  508POPC   C4B11026   4.100  32.459   7.678
  509POPC   NC311027  29.160  38.002   9.687
  509POPC   PO411028  28.888  37.290   9.587
  509POPC   GL111029  29.192  37.437   9.241
  509POPC   GL211030  29.073  37.741   9.168
  509POPC   C1A11031  29.426  37.606   8.819
  509POPC   D2A11032  29.318  37.792   8.366
  509POPC   C3A11033  29.367  37.679   7.895
  509POPC   C4A11034  29.340  37.627   7.436
  509POPC   C1B11035  28.899  37.464   8.806
  509POPC   C2B11036  28.836  37.538   8.341
  509POPC   C3B11037  28.919  37.876   8.031
  509POPC   C4B11038  29.005  37.978   7.604
  510POPC   NC311039   1.117  27.228   9.474
  510POPC   PO411040   1.388  27.792   9.497
  510POPC   GL111041   1.331  27.590   9.112
  510POPC   GL211042   1.005  27.559   9.089
  510POPC   C1A11043   1.429  27.713   8.703
  510POPC   D2A11044   1.604  27.642   8.293
  510POPC   C3A11045   1.321  27.676   7.930
  510POPC   C4A11046   1.089  27.803   7.568
  510POPC   C1B11047   0.783  27.440   8.743
  510POPC   C2B11048   0.765  27.136   8.457
  510POPC   C3B11049   0.929  27.212   8.072
  510POPC   C4B11050   0.695  27.166   7.721
  511POPC   NC311051   2.684  15.550   9.473
  511POPC   PO411052   2.489  16.189   9.634
  511POPC   GL111053   2.605  16.079   9.205
  511POPC   GL211054   2.923  16.135   9.099
  511POPC   C1A11055   2.586  16.120   8.731
  511POPC   D2A11056   2.653  15.947   8.331
  511POPC   C3A11057   2.602  16.213   7.976
  511POPC   C4A11058   2.763  16.072   7.609
  511POPC   C1B11059   3.071  15.975   8.709
  511POPC   C2B11060   3.185  15.851   8.339
  511POPC   C3B11061   3.054  15.885   7.972
  511POPC   C4B11062   3.294  15.934   7.625
  512POPC   NC311063   5.757  36.720   9.451
  512POPC   PO411064   5.618  37.389   9.547
  512POPC   GL111065   5.714  37.167   9.193
  512POPC   GL211066   6.055  37.051   9.145
  512POPC   C1A11067   5.645  36.965   8.813
  512POPC   D2A11068   5.672  36.775   8.410
  512POPC   C3A11069   5.863  36.944   8.035
  512POPC   C4A11070   5.645  36.955   7.654
  512POPC   C1B11071   6.106  36.719   8.798
  512POPC   C2B11072   6.099  36.443   8.430
  512POPC   C3B11073   6.180  36.489   7.989
  512POPC   C4B11074   6.050  36.644   7.595
  513POPC   NC311075   8.185  38.797   9.331
  513POPC   PO411076   8.361  39.438   9.558
  513POPC   GL111077   8.240  39.272   9.156
  513POPC   GL211078   8.423  38.994   8.937
  513POPC   C1A11079   8.073  39.467   8.826
  513POPC   D2A11080   8.191  39.545   8.423
  513POPC   C3A11081   8.048  39.306   8.079
  513POPC   C4A11082   8.227  39.506   7.743
  513POPC   C1B11083   8.199  39.046   8.546
  513POPC   C2B11084   7.858  38.874   8.306
  513POPC   C3B11085   7.942  38.796   7.891
  513POPC   C4B11086   8.275  38.993   7.692
  514POPC   NC311087  19.799  34.212   9.227
  514POPC   PO411088  20.025  33.606   9.527
  514POPC   GL111089  19.986  33.762   9.117
  514POPC   GL211090  19.697  33.868   8.861
  514POPC   C1A11091  20.172  33.833   8.740
  514POPC   D2A11092  19.922  33.853   8.391
  514POPC   C3A11093  20.177  33.921   8.049
  514POPC   C4A11094  20.048  34.075   7.681
  514POPC   C1B11095  19.373  33.607   8.703
  514POPC   C2B11096  19.343  33.754   8.299
  514POPC   C3B11097  19.666  33.758   7.958
  514POPC   C4B11098  19.560  33.897   7.548
  515POPC   NC311099  10.443  20.107   9.534
  515POPC   PO411100  10.757  19.486   9.578
  515POPC   GL111101  10.573  19.612   9.199
  515POPC   GL211102  10.855  19.425   9.070
  515POPC   C1A11103  10.408  19.947   8.910
  515POPC   D2A11104  10.364  20.240   8.551
  515POPC   C3A11105  10.335  20.056   8.127
  515POPC   C4A11106  10.340  20.185   7.710
  515POPC   C1B11107  10.898  19.802   8.818
  515POPC   C2B11108  10.687  19.835   8.443
  515POPC   C3B11109  10.638  19.631   8.060
  515POPC   C4B11110  10.829  19.815   7.762
  516POPC   NC311111  34.391  40.606   9.537
  516POPC   PO411112  35.023  40.983   9.599
  516POPC   GL111113  34.609  40.980   9.256
  516POPC   GL211114  34.513  40.627   9.052
  516POPC   C1A11115  34.365  41.043   8.840
  516POPC   D2A11116  34.562  41.057   8.445
  516POPC   C3A11117  34.453  41.000   8.061
  516POPC   C4A11118  34.760  41.029   7.762
  516POPC   C1B11119  34.541  40.567   8.585
  516POPC   C2B11120  34.307  40.527   8.178
  516POPC   C3B11121  34.374  40.639   7.713
  516POPC   C4B11122  34.264  40.479   7.283
  517POPC   NC311123  28.247  22.670   9.714
  517POPC   PO411124  28.730  23.138   9.449
  517POPC   GL111125  28.534  22.888   9.091
  517POPC   GL211126  28.196  22.747   9.193
  517POPC   C1A11127  28.620  22.862   8.657
  517POPC   D2A11128  28.597  23.146   8.297
  517POPC   C3A11129  28.482  22.916   7.931
  517POPC   C4A11130  28.306  22.996   7.527
  517POPC   C1B11131  28.149  22.633   8.778
  517POPC   C2B11132  28.190  22.792   8.373
  517POPC   C3B11133  28.032  23.083   8.089
  517POPC   C4B11134  27.858  22.928   7.745
  518POPC   NC311135  13.289  12.302   9.570
  518POPC   PO411136  13.600  11.639   9.558
  518POPC   GL111137  13.428  11.847   9.201
  518POPC   GL211138  13.591  12.161   9.182
  518POPC   C1A11139  13.587  11.854   8.764
  518POPC   D2A11140  13.626  12.041   8.339
  518POPC   C3A11141  13.655  11.950   7.885
  518POPC   C4A11142  13.402  11.821   7.484
  518POPC   C1B11143  13.630  12.344   8.793
  518POPC   C2B11144  13.846  12.485   8.450
  518POPC   C3B11145  13.643  12.501   8.102
  518POPC   C4B11146  13.909  12.388   7.810
  519POPC   NC311147  13.603  10.582   9.722
  519POPC   PO411148  13.316  10.094   9.514
  519POPC   GL111149  13.580  10.408   9.221
  519POPC   GL211150  13.718  10.769   9.276
  519POPC   C1A11151  13.737  10.402   8.775
  519POPC   D2A11152  13.884  10.261   8.343
  519POPC   C3A11153  13.732  10.489   7.943
  519POPC   C4A11154  13.316  10.523   7.712
  519POPC   C1B11155  13.426  10.805   8.941
  519POPC   C2B11156  13.486  10.805   8.480
  519POPC   C3B11157  13.450  10.921   8.034
  519POPC   C4B11158  13.619  10.917   7.614
  520POPC   NC311159  25.933  21.047   9.529
  520POPC   PO411160  26.435  21.526   9.453
  520POPC   GL111161  26.088  21.516   9.217
  520POPC   GL211162  26.180  21.189   9.105
  520POPC   C1A11163  25.906  21.544   8.820
  520POPC   D2A11164  26.082  21.594   8.420
  520POPC   C3A11165  25.850  21.498   8.091
  520POPC   C4A11166  25.919  21.408   7.712
  520POPC   C1B11167  26.386  21.348   8.777
  520POPC   C2B11168  26.531  21.220   8.406
  520POPC   C3B11169  26.382  21.349   8.016
  520POPC   C4B11170  26.382  21.124   7.629
  521POPC   NC311171  13.133  40.299   9.705
  521POPC   PO411172  13.476  39.875   9.764
  521POPC   GL111173  13.477  40.011   9.291
  521POPC   GL211174  13.782  40.194   9.149
  521POPC   C1A11175  13.478  39.912   8.805
  521POPC   D2A11176  13.707  39.790   8.377
  521POPC   C3A11177  13.622  39.916   7.907
  521POPC   C4A11178  13.651  39.828   7.427
  521POPC   C1B11179  13.916  40.149   8.688
  521POPC   C2B11180  13.831  40.274   8.223
  521POPC   C3B11181  13.951  40.542   7.843
  521POPC   C4B11182  13.899  40.658   7.379
  522POPC   NC311183  14.756   2.690   9.556
  522POPC   PO411184  15.298   2.439   9.377
  522POPC   GL111185  15.328   2.644   9.012
  522POPC   GL211186  15.062   2.834   9.131
  522POPC   C1A11187  15.396   3.021   8.779
  522POPC   D2A11188  15.245   3.170   8.402
  522POPC   C3A11189  15.230   2.907   8.006
  522POPC   C4A11190  15.309   2.512   7.713
  522POPC   C1B11191  14.902   2.937   8.771
  522POPC   C2B11192  14.857   2.807   8.404
  522POPC   C3B11193  14.718   2.808   8.039
  522POPC   C4B11194  14.874   2.758   7.651
  523POPC   NC311195  31.647  28.032   9.491
  523POPC   PO411196  31.090  28.472   9.459
  523POPC   GL111197  31.278  28.238   9.196
  523POPC   GL211198  31.536  28.472   9.186
  523POPC   C1A11199  31.495  28.138   8.818
  523POPC   D2A11200  31.587  28.093   8.430
  523POPC   C3A11201  31.262  28.335   8.195
  523POPC   C4A11202  31.297  28.371   7.747
  523POPC   C1B11203  31.770  28.572   8.804
  523POPC   C2B11204  31.670  28.614   8.381
  523POPC   C3B11205  31.732  28.376   8.017
  523POPC   C4B11206  31.848  28.428   7.609
  524POPC   NC311207   7.800  16.226   9.540
  524POPC   PO411208   7.188  15.831   9.411
  524POPC   GL111209   7.318  16.036   9.099
  524POPC   GL211210   7.659  16.065   9.093
  524POPC   C1A11211   7.237  15.996   8.696
  524POPC   D2A11212   7.404  15.773   8.374
  524POPC   C3A11213   7.302  16.009   8.040
  524POPC   C4A11214   7.477  15.924   7.673
  524POPC   C1B11215   7.890  16.279   8.790
  524POPC   C2B11216   7.706  16.182   8.398
  524POPC   C3B11217   7.836  16.137   7.973
  524POPC   C4B11218   7.832  16.299   7.564
  525POPC   NC311219  28.677  36.106   9.316
  525POPC   PO411220  28.016  35.994   9.348
  525POPC   GL111221  28.284  35.971   8.998
  525POPC   GL211222  28.385  36.331   8.946
  525POPC   C1A11223  28.458  35.982   8.560
  525POPC   D2A11224  28.424  36.339   8.318
  525POPC   C3A11225  28.286  36.287   7.922
  525POPC   C4A11226  28.386  35.901   7.783
  525POPC   C1B11227  28.777  36.341   8.697
  525POPC   C2B11228  28.940  36.434   8.279
  525POPC   C3B11229  28.800  36.183   7.977
  525POPC   C4B11230  28.711  36.318   7.586
  526POPC   NC311231   1.386  20.248   9.608
  526POPC   PO411232   0.990  20.781   9.553
  526POPC   GL111233   1.241  20.780   9.172
  526POPC   GL211234   1.339  20.475   9.156
  526POPC   C1A11235   1.406  20.762   8.712
  526POPC   D2A11236   1.329  20.982   8.291
  526POPC   C3A11237   1.297  20.747   7.903
  526POPC   C4A11238   1.136  20.605   7.509
  526POPC   C1B11239   1.412  20.247   8.801
  526POPC   C2B11240   1.510  20.355   8.376
  526POPC   C3B11241   1.279  20.258   8.017
  526POPC   C4B11242   1.422  20.178   7.648
  527POPC   NC311243  21.071  33.554   9.633
  527POPC   PO411244  21.630  33.780   9.458
  527POPC   GL111245  21.435  33.778   9.088
  527POPC   GL211246  21.100  33.659   9.133
  527POPC   C1A11247  21.580  33.801   8.678
  527POPC   D2A11248  21.488  33.613   8.307
  527POPC   C3A11249  21.639  33.782   7.978
  527POPC   C4A11250  21.580  33.972   7.637
  527POPC   C1B11251  21.144  33.569   8.700
  527POPC   C2B11252  20.988  33.643   8.288
  527POPC   C3B11253  21.082  33.647   7.847
  527POPC   C4B11254  20.942  33.629   7.413
  528POPC   NC311255   9.711   1.427   9.455
  528POPC   PO411256   9.629   0.757   9.534
  528POPC   GL111257   9.787   0.983   9.175
  528POPC   GL211258   9.551   1.188   9.039
  528POPC   C1A11259   9.919   1.004   8.746
  528POPC   D2A11260   9.597   1.103   8.440
  528POPC   C3A11261   9.821   1.284   8.110
  528POPC   C4A11262   9.957   1.084   7.752
  528POPC   C1B11263   9.763   1.482   8.759
  528POPC   C2B11264   9.535   1.711   8.480
  528POPC   C3B11265   9.377   1.568   8.118
  528POPC   C4B11266   9.464   1.399   7.729
  529POPC   NC311267  10.406   3.554   9.446
  529POPC   PO411268  10.500   2.891   9.356
  529POPC   GL111269  10.435   3.195   9.083
  529POPC   GL211270  10.748   3.302   9.109
  529POPC   C1A11271  10.312   3.496   8.767
  529POPC   D2A11272  10.519   3.553   8.373
  529POPC   C3A11273  10.594   3.206   8.135
  529POPC   C4A11274  10.398   3.343   7.783
  529POPC   C1B11275  10.833   3.577   8.773
  529POPC   C2B11276  11.037   3.616   8.353
  529POPC   C3B11277  10.859   3.601   7.931
  529POPC   C4B11278  10.948   3.571   7.498
  530POPC   NC311279  25.549  34.626   9.542
  530POPC   PO411280  24.996  34.924   9.451
  530POPC   GL111281  25.207  34.813   9.093
  530POPC   GL211282  25.311  34.483   9.085
  530POPC   C1A11283  25.081  34.672   8.681
  530POPC   D2A11284  24.818  34.792   8.346
  530POPC   C3A11285  25.051  34.664   7.990
  530POPC   C4A11286  25.434  34.738   7.740
  530POPC   C1B11287  25.484  34.338   8.699
  530POPC   C2B11288  25.476  34.500   8.261
  530POPC   C3B11289  25.375  34.262   7.886
  530POPC   C4B11290  25.291  34.042   7.515
  531POPC   NC311291  44.336  30.711  10.035
  531POPC   PO411292  44.858  30.545   9.560
  531POPC   GL111293  44.604  30.693   9.238
  531POPC   GL211294  44.414  30.957   9.336
  531POPC   C1A11295  44.648  30.698   8.805
  531POPC   D2A11296  44.846  30.493   8.480
  531POPC   C3A11297  44.797  30.652   8.087
  531POPC   C4A11298  44.873  30.423   7.698
  531POPC   C1B11299  44.181  30.892   8.914
  531POPC   C2B11300  44.215  30.777   8.474
  531POPC   C3B11301  44.312  30.980   8.084
  531POPC   C4B11302  44.485  30.829   7.717
  532POPC   NC311303  21.859  35.910   9.553
  532POPC   PO411304  22.421  36.241   9.548
  532POPC   GL111305  22.189  36.131   9.180
  532POPC   GL211306  21.822  36.255   9.159
  532POPC   C1A11307  22.429  36.047   8.806
  532POPC   D2A11308  22.527  36.090   8.365
  532POPC   C3A11309  22.216  36.239   8.107
  532POPC   C4A11310  22.268  36.113   7.702
  532POPC   C1B11311  21.984  36.280   8.732
  532POPC   C2B11312  21.809  36.037   8.355
  532POPC   C3B11313  21.789  36.019   7.920
  532POPC   C4B11314  21.862  36.432   7.748
  533POPC   NC311315  25.048  33.605   9.593
  533POPC   PO411316  25.424  34.187   9.478
  533POPC   GL111317  25.454  33.994   9.110
  533POPC   GL211318  25.125  33.901   9.150
  533POPC   C1A11319  25.382  33.809   8.702
  533POPC   D2A11320  25.438  33.997   8.309
  533POPC   C3A11321  25.347  33.729   7.930
  533POPC   C4A11322  25.618  33.452   7.620
  533POPC   C1B11323  25.006  34.151   8.776
  533POPC   C2B11324  25.004  34.280   8.341
  533POPC   C3B11325  24.869  34.160   7.918
  533POPC   C4B11326  24.793  33.985   7.486
  534POPC   NC311327   8.465  16.934   9.302
  534POPC   PO411328   8.207  16.392   9.674
  534POPC   GL111329   8.086  16.559   9.212
  534POPC   GL211330   7.796  16.702   9.087
  534POPC   C1A11331   8.177  16.739   8.738
  534POPC   D2A11332   8.396  17.024   8.389
  534POPC   C3A11333   8.503  16.744   8.027
  534POPC   C4A11334   8.364  16.316   7.863
  534POPC   C1B11335   7.840  17.104   8.892
  534POPC   C2B11336   7.895  17.123   8.461
  534POPC   C3B11337   7.777  16.982   8.067
  534POPC   C4B11338   7.990  16.660   7.873
  535POPC   NC311339  40.777  44.051   9.610
  535POPC   PO411340  40.848  43.403   9.550
  535POPC   GL111341  40.876  43.733   9.179
  535POPC   GL211342  41.114  43.942   9.231
  535POPC   C1A11343  40.650  43.905   8.795
  535POPC   D2A11344  40.693  44.111   8.399
  535POPC   C3A11345  40.586  43.936   8.008
  535POPC   C4A11346  40.402  44.104   7.607
  535POPC   C1B11347  41.121  44.045   8.808
  535POPC   C2B11348  41.206  44.137   8.396
  535POPC   C3B11349  41.009  44.326   8.037
  535POPC   C4B11350  40.894  44.224   7.622
  536POPC   NC311351  40.112  44.780   9.701
  536POPC   PO411352  39.600  44.410   9.461
  536POPC   GL111353  39.737  44.615   9.112
  536POPC   GL211354  40.117  44.533   9.088
  536POPC   C1A11355  39.774  44.516   8.678
  536POPC   D2A11356  39.993  44.683   8.358
  536POPC   C3A11357  39.928  44.468   7.991
  536POPC   C4A11358  39.996  44.428   7.559
  536POPC   C1B11359  40.360  44.886   8.810
  536POPC   C2B11360  40.290   0.094   8.431
  536POPC   C3B11361  40.304  44.930   8.025
  536POPC   C4B11362  40.326   0.105   7.637
  537POPC   NC311363  24.720  14.018   9.611
  537POPC   PO411364  24.615  14.676   9.436
  537POPC   GL111365  24.605  14.341   9.105
  537POPC   GL211366  24.604  13.944   9.117
  537POPC   C1A11367  24.547  14.407   8.653
  537POPC   D2A11368  24.344  14.660   8.318
  537POPC   C3A11369  24.627  14.837   8.027
  537POPC   C4A11370  24.536  14.662   7.628
  537POPC   C1B11371  24.830  13.889   8.726
  537POPC   C2B11372  24.944  14.160   8.408
  537POPC   C3B11373  24.711  14.345   8.120
  537POPC   C4B11374  24.723  14.184   7.735
  538POPC   NC311375   8.690  32.830   9.403
  538POPC   PO411376   7.976  32.881   9.557
  538POPC   GL111377   8.035  33.070   9.175
  538POPC   GL211378   8.395  33.045   9.044
  538POPC   C1A11379   8.018  33.191   8.752
  538POPC   D2A11380   8.373  33.145   8.502
  538POPC   C3A11381   8.160  32.993   8.189
  538POPC   C4A11382   8.070  33.011   7.783
  538POPC   C1B11383   8.430  32.684   8.729
  538POPC   C2B11384   8.375  32.509   8.276
  538POPC   C3B11385   8.465  32.483   7.804
  538POPC   C4B11386   8.374  32.771   7.429
  539POPC   NC311387  24.844  15.084   9.589
  539POPC   PO411388  24.121  15.151   9.628
  539POPC   GL111389  24.524  15.140   9.227
  539POPC   GL211390  24.479  14.850   8.961
  539POPC   C1A11391  24.817  15.209   8.843
  539POPC   D2A11392  24.928  15.076   8.399
  539POPC   C3A11393  24.866  15.327   8.008
  539POPC   C4A11394  24.527  15.203   7.700
  539POPC   C1B11395  24.419  15.094   8.553
  539POPC   C2B11396  24.255  15.191   8.151
  539POPC   C3B11397  24.041  15.038   7.786
  539POPC   C4B11398  24.208  15.036   7.346
  540POPC   NC311399  28.368  34.077   9.591
  540POPC   PO411400  29.014  33.904   9.480
  540POPC   GL111401  28.639  33.947   9.189
  540POPC   GL211402  28.531  33.670   9.175
  540POPC   C1A11403  28.295  33.963   8.820
  540POPC   D2A11404  28.059  33.871   8.399
  540POPC   C3A11405  28.176  33.995   7.991
  540POPC   C4A11406  28.331  33.863   7.600
  540POPC   C1B11407  28.665  33.561   8.776
  540POPC   C2B11408  28.485  33.558   8.372
  540POPC   C3B11409  28.315  33.490   7.966
  540POPC   C4B11410  28.618  33.440   7.624
  541POPC   NC311411  41.529  36.430   9.353
  541POPC   PO411412  41.949  35.977   9.604
  541POPC   GL111413  41.814  35.953   9.161
  541POPC   GL211414  41.456  35.874   9.098
  541POPC   C1A11415  41.816  36.147   8.732
  541POPC   D2A11416  41.848  36.389   8.322
  541POPC   C3A11417  41.636  36.280   7.928
  541POPC   C4A11418  41.406  35.997   7.675
  541POPC   C1B11419  41.277  36.056   8.718
  541POPC   C2B11420  41.289  36.256   8.313
  541POPC   C3B11421  41.201  36.551   7.981
  541POPC   C4B11422  41.268  36.470   7.542
  542POPC   NC311423  14.145   5.447   9.756
  542POPC   PO411424  14.280   6.026   9.628
  542POPC   GL111425  14.367   5.838   9.202
  542POPC   GL211426  14.302   5.473   9.213
  542POPC   C1A11427  14.584   5.894   8.787
  542POPC   D2A11428  14.495   6.079   8.349
  542POPC   C3A11429  14.685   6.035   7.947
  542POPC   C4A11430  14.294   6.032   7.732
  542POPC   C1B11431  14.502   5.378   8.803
  542POPC   C2B11432  14.618   5.539   8.371
  542POPC   C3B11433  14.476   5.558   7.913
  542POPC   C4B11434  14.632   5.730   7.501
  543POPC   NC311435  20.658  24.373  10.026
  543POPC   PO411436  20.668  24.524   9.429
  543POPC   GL111437  20.458  24.468   9.065
  543POPC   GL211438  20.273  24.740   9.089
  543POPC   C1A11439  20.533  24.529   8.616
  543POPC   D2A11440  20.922  24.497   8.380
  543POPC   C3A11441  20.912  24.402   7.944
  543POPC   C4A11442  20.544  24.302   7.712
  543POPC   C1B11443  20.233  24.923   8.706
  543POPC   C2B11444  20.361  24.910   8.277
  543POPC   C3B11445  20.578  24.790   7.922
  543POPC   C4B11446  20.632  24.898   7.519
  544POPC   NC311447   5.306  21.341   9.552
  544POPC   PO411448   6.040  21.389   9.515
  544POPC   GL111449   5.807  21.285   9.185
  544POPC   GL211450   5.543  21.522   9.123
  544POPC   C1A11451   5.932  21.390   8.784
  544POPC   D2A11452   5.932  21.179   8.426
  544POPC   C3A11453   5.849  21.429   8.075
  544POPC   C4A11454   5.795  21.208   7.683
  544POPC   C1B11455   5.556  21.725   8.715
  544POPC   C2B11456   5.528  21.840   8.270
  544POPC   C3B11457   5.406  21.622   7.880
  544POPC   C4B11458   5.510  21.595   7.426
  545POPC   NC311459  40.219  28.286   9.392
  545POPC   PO411460  39.695  28.277   9.860
  545POPC   GL111461  39.772  28.520   9.388
  545POPC   GL211462  39.667  28.399   9.049
  545POPC   C1A11463  40.040  28.787   9.039
  545POPC   D2A11464  40.226  28.666   8.651
  545POPC   C3A11465  40.147  28.684   8.203
  545POPC   C4A11466  40.103  28.652   7.775
  545POPC   C1B11467  39.889  28.178   8.703
  545POPC   C2B11468  40.137  28.179   8.366
  545POPC   C3B11469  39.863  28.271   8.066
  545POPC   C4B11470  39.731  28.017   7.754
  546POPC   NC311471  35.167  13.491   9.588
  546POPC   PO411472  35.489  14.146   9.627
  546POPC   GL111473  35.312  13.894   9.302
  546POPC   GL211474  35.507  13.572   9.205
  546POPC   C1A11475  35.319  13.946   8.867
  546POPC   D2A11476  35.256  14.064   8.443
  546POPC   C3A11477  35.461  13.776   8.153
  546POPC   C4A11478  35.243  13.596   7.783
  546POPC   C1B11479  35.370  13.422   8.796
  546POPC   C2B11480  35.363  13.239   8.386
  546POPC   C3B11481  35.576  13.222   7.970
  546POPC   C4B11482  35.560  13.303   7.508
  547POPC   NC311483  36.452  11.385   9.547
  547POPC   PO411484  35.830  11.030   9.514
  547POPC   GL111485  36.099  11.307   9.202
  547POPC   GL211486  36.439  11.213   9.090
  547POPC   C1A11487  36.121  11.481   8.778
  547POPC   D2A11488  36.403  11.475   8.437
  547POPC   C3A11489  36.208  11.470   8.048
  547POPC   C4A11490  35.984  11.430   7.658
  547POPC   C1B11491  36.364  11.024   8.723
  547POPC   C2B11492  36.087  11.067   8.406
  547POPC   C3B11493  36.055  10.994   8.004
  547POPC   C4B11494  36.333  11.066   7.682
  548POPC   NC311495   9.825  25.942   9.607
  548POPC   PO411496   9.261  26.265   9.372
  548POPC   GL111497   9.580  26.306   9.045
  548POPC   GL211498   9.874  26.265   9.207
  548POPC   C1A11499   9.592  26.282   8.572
  548POPC   D2A11500   9.657  25.908   8.296
  548POPC   C3A11501   9.761  25.843   7.840
  548POPC   C4A11502   9.936  25.783   7.395
  548POPC   C1B11503   9.968  26.025   8.864
  548POPC   C2B11504  10.095  26.162   8.491
  548POPC   C3B11505  10.063  26.161   8.104
  548POPC   C4B11506  10.212  26.069   7.714
  549POPC   NC311507  12.206  22.048   9.468
  549POPC   PO411508  11.886  22.651   9.326
  549POPC   GL111509  12.033  22.456   9.007
  549POPC   GL211510  11.931  22.126   9.025
  549POPC   C1A11511  11.940  22.447   8.591
  549POPC   D2A11512  12.017  22.137   8.293
  549POPC   C3A11513  11.881  22.190   7.879
  549POPC   C4A11514  11.834  21.985   7.530
  549POPC   C1B11515  12.322  22.105   8.774
  549POPC   C2B11516  12.507  21.936   8.408
  549POPC   C3B11517  12.395  21.944   7.985
  549POPC   C4B11518  12.341  22.072   7.561
  550POPC   NC311519  16.561   8.817   9.868
  550POPC   PO411520  17.105   8.639   9.461
  550POPC   GL111521  16.823   8.902   9.239
  550POPC   GL211522  16.473   8.965   9.377
  550POPC   C1A11523  16.911   9.137   8.846
  550POPC   D2A11524  16.851   9.230   8.419
  550POPC   C3A11525  16.937   8.911   8.106
  550POPC   C4A11526  16.988   9.086   7.697
  550POPC   C1B11527  16.440   8.962   8.935
  550POPC   C2B11528  16.493   8.895   8.496
  550POPC   C3B11529  16.475   9.117   8.093
  550POPC   C4B11530  16.513   8.881   7.740
  551POPC   NC311531   3.733  44.582   9.269
  551POPC   PO411532   4.320  44.782   9.502
  551POPC   GL111533   4.207  44.781   9.111
  551POPC   GL211534   4.221   0.145   9.079
  551POPC   C1A11535   4.277  44.556   8.723
  551POPC   D2A11536   4.541  44.746   8.365
  551POPC   C3A11537   4.450  44.533   7.972
  551POPC   C4A11538   4.386  44.567   7.525
  551POPC   C1B11539   4.221   0.053   8.664
  551POPC   C2B11540   3.950  44.841   8.362
  551POPC   C3B11541   3.986  44.751   7.900
  551POPC   C4B11542   3.954  44.828   7.443
  552POPC   NC311543  34.689  35.139   9.447
  552POPC   PO411544  34.065  35.203   9.458
  552POPC   GL111545  34.244  35.330   9.071
  552POPC   GL211546  34.568  35.324   8.996
  552POPC   C1A11547  34.161  35.585   8.725
  552POPC   D2A11548  33.985  35.626   8.327
  552POPC   C3A11549  34.239  35.548   7.979
  552POPC   C4A11550  34.474  35.187   7.830
  552POPC   C1B11551  34.852  35.278   8.688
  552POPC   C2B11552  34.771  35.306   8.263
  552POPC   C3B11553  34.757  35.580   7.940
  552POPC   C4B11554  34.796  35.652   7.501
  553POPC   NC311555  39.615   9.705   9.867
  553POPC   PO411556  39.084   9.470   9.614
  553POPC   GL111557  39.207   9.783   9.231
  553POPC   GL211558  38.943  10.011   9.122
  553POPC   C1A11559  39.329  10.009   8.806
  553POPC   D2A11560  39.269   9.814   8.381
  553POPC   C3A11561  39.190   9.921   7.943
  553POPC   C4A11562  39.397   9.851   7.513
  553POPC   C1B11563  38.931   9.677   8.781
  553POPC   C2B11564  38.810   9.589   8.333
  553POPC   C3B11565  39.086   9.435   8.000
  553POPC   C4B11566  39.060   9.436   7.557
  554POPC   NC311567  40.813  25.835   9.723
  554POPC   PO411568  40.344  26.231   9.555
  554POPC   GL111569  40.743  26.145   9.291
  554POPC   GL211570  40.838  26.493   9.217
  554POPC   C1A11571  40.879  25.908   8.874
  554POPC   D2A11572  40.710  25.800   8.419
  554POPC   C3A11573  40.959  25.834   8.035
  554POPC   C4A11574  41.077  26.052   7.635
  554POPC   C1B11575  40.664  26.393   8.804
  554POPC   C2B11576  40.851  26.300   8.406
  554POPC   C3B11577  40.633  26.227   8.041
  554POPC   C4B11578  40.637  26.289   7.615
  555POPC   NC311579  18.091  22.699   9.442
  555POPC   PO411580  18.361  23.316   9.486
  555POPC   GL111581  18.204  23.096   9.125
  555POPC   GL211582  17.836  23.108   9.107
  555POPC   C1A11583  18.336  22.945   8.697
  555POPC   D2A11584  18.394  22.960   8.244
  555POPC   C3A11585  18.515  22.962   7.827
  555POPC   C4A11586  18.344  23.125   7.461
  555POPC   C1B11587  17.815  22.922   8.691
  555POPC   C2B11588  17.917  23.100   8.288
  555POPC   C3B11589  17.962  22.995   7.842
  555POPC   C4B11590  18.004  22.720   7.481
  556POPC   NC311591  42.613   2.578   9.924
  556POPC   PO411592  43.092   2.308   9.565
  556POPC   GL111593  43.089   2.640   9.264
  556POPC   GL211594  42.816   2.536   9.007
  556POPC   C1A11595  43.245   2.701   8.839
  556POPC   D2A11596  42.993   2.462   8.519
  556POPC   C3A11597  43.123   2.514   8.115
  556POPC   C4A11598  43.133   2.705   7.724
  556POPC   C1B11599  42.741   2.860   8.741
  556POPC   C2B11600  42.819   2.960   8.334
  556POPC   C3B11601  42.703   2.834   7.943
  556POPC   C4B11602  42.737   2.962   7.504
  557POPC   NC311603   5.448   9.167   9.483
  557POPC   PO411604   4.974   8.749   9.668
  557POPC   GL111605   5.003   8.921   9.212
  557POPC   GL211606   5.126   9.292   9.101
  557POPC   C1A11607   4.914   8.989   8.752
  557POPC   D2A11608   5.075   9.289   8.415
  557POPC   C3A11609   4.984   9.137   7.985
  557POPC   C4A11610   5.061   8.728   7.794
  557POPC   C1B11611   5.465   9.327   8.757
  557POPC   C2B11612   5.604   9.248   8.293
  557POPC   C3B11613   5.461   9.070   7.850
  557POPC   C4B11614   5.338   8.993   7.394
  558POPC   NC311615  20.067  10.300   9.652
  558POPC   PO411616  19.653  10.881   9.479
  558POPC   GL111617  19.942  10.706   9.170
  558POPC   GL211618  20.057  10.366   9.151
  558POPC   C1A11619  20.032  10.684   8.765
  558POPC   D2A11620  19.961  10.435   8.462
  558POPC   C3A11621  19.854  10.672   8.143
  558POPC   C4A11622  19.871  10.579   7.732
  558POPC   C1B11623  19.609  10.408   8.895
  558POPC   C2B11624  19.458  10.446   8.434
  558POPC   C3B11625  19.519  10.297   8.011
  558POPC   C4B11626  19.447  10.352   7.577
  559POPC   NC311627   0.115  38.803   9.399
  559POPC   PO411628   0.447  39.354   9.562
  559POPC   GL111629   0.486  39.079   9.181
  559POPC   GL211630   0.204  39.155   9.037
  559POPC   C1A11631   0.637  39.087   8.769
  559POPC   D2A11632   0.364  39.249   8.426
  559POPC   C3A11633   0.436  39.063   8.027
  559POPC   C4A11634   0.482  39.335   7.695
  559POPC   C1B11635   0.029  39.462   8.775
  559POPC   C2B11636  44.872  39.436   8.374
  559POPC   C3B11637   0.075  39.436   7.998
  559POPC   C4B11638   0.023  39.531   7.566
  560POPC   NC311639  36.450   1.438   9.487
  560POPC   PO411640  37.030   1.252   9.395
  560POPC   GL111641  37.018   1.017   8.995
  560POPC   GL211642  36.664   1.029   8.959
  560POPC   C1A11643  37.134   1.045   8.595
  560POPC   D2A11644  37.193   1.370   8.303
  560POPC   C3A11645  36.979   1.225   7.957
  560POPC   C4A11646  37.160   0.902   7.684
  560POPC   C1B11647  36.815   1.445   8.773
  560POPC   C2B11648  36.811   1.690   8.359
  560POPC   C3B11649  36.713   1.661   7.888
  560POPC   C4B11650  36.427   1.437   7.595
  561POPC   NC311651   1.787   0.984   9.448
  561POPC   PO411652   1.588   1.672   9.337
  561POPC   GL111653   1.826   1.355   9.059
  561POPC   GL211654   1.911   0.967   8.972
  561POPC   C1A11655   2.082   1.416   8.704
  561POPC   D2A11656   2.228   1.615   8.330
  561POPC   C3A11657   1.957   1.482   7.978
  561POPC   C4A11658   1.832   1.361   7.576
  561POPC   C1B11659   2.240   0.936   8.697
  561POPC   C2B11660   2.215   1.110   8.277
  561POPC   C3B11661   2.011   0.982   7.908
  561POPC   C4B11662   1.678   0.868   7.642
  562POPC   NC311663  10.944   4.199   9.536
  562POPC   PO411664  11.603   4.099   9.587
  562POPC   GL111665  11.388   4.158   9.167
  562POPC   GL211666  11.151   4.461   9.150
  562POPC   C1A11667  11.355   4.322   8.713
  562POPC   D2A11668  11.150   4.347   8.305
  562POPC   C3A11669  11.366   4.300   7.948
  562POPC   C4A11670  11.772   4.140   7.864
  562POPC   C1B11671  10.877   4.531   8.770
  562POPC   C2B11672  10.683   4.509   8.341
  562POPC   C3B11673  10.871   4.607   7.918
  562POPC   C4B11674  10.903   4.538   7.446
  563POPC   NC311675  20.599  10.187   9.367
  563POPC   PO411676  20.317  10.684   9.564
  563POPC   GL111677  20.490  10.647   9.137
  563POPC   GL211678  20.859  10.584   9.073
  563POPC   C1A11679  20.437  10.390   8.750
  563POPC   D2A11680  20.404  10.261   8.325
  563POPC   C3A11681  20.338  10.507   7.959
  563POPC   C4A11682  20.308  10.281   7.593
  563POPC   C1B11683  20.858  10.651   8.610
  563POPC   C2B11684  20.837  10.573   8.163
  563POPC   C3B11685  20.782  10.332   7.785
  563POPC   C4B11686  20.680  10.544   7.374
  564POPC   NC311687  16.503   2.685   9.360
  564POPC   PO411688  16.982   3.077   9.545
  564POPC   GL111689  16.943   2.806   9.138
  564POPC   GL211690  17.120   2.465   9.186
  564POPC   C1A11691  16.684   2.842   8.733
  564POPC   D2A11692  16.583   2.509   8.415
  564POPC   C3A11693  16.462   2.638   8.007
  564POPC   C4A11694  16.228   2.630   7.604
  564POPC   C1B11695  16.998   2.438   8.752
  564POPC   C2B11696  17.044   2.727   8.390
  564POPC   C3B11697  16.941   2.834   7.999
  564POPC   C4B11698  16.822   2.692   7.618
  565POPC   NC311699  12.687  14.729   9.638
  565POPC   PO411700  13.107  14.268   9.621
  565POPC   GL111701  12.884  14.422   9.286
  565POPC   GL211702  13.151  14.509   9.143
  565POPC   C1A11703  12.723  14.346   8.872
  565POPC   D2A11704  12.719  14.119   8.510
  565POPC   C3A11705  12.670  14.291   8.113
  565POPC   C4A11706  12.810  14.062   7.750
  565POPC   C1B11707  13.246  14.704   8.812
  565POPC   C2B11708  13.144  14.396   8.509
  565POPC   C3B11709  13.171  14.233   8.119
  565POPC   C4B11710  13.253  14.428   7.774
  566POPC   NC311711   2.848  44.353   9.372
  566POPC   PO411712   2.807  43.671   9.476
  566POPC   GL111713   3.002  43.654   9.096
  566POPC   GL211714   3.132  43.986   9.090
  566POPC   C1A11715   2.914  43.667   8.660
  566POPC   D2A11716   2.591  43.785   8.382
  566POPC   C3A11717   2.802  43.872   8.041
  566POPC   C4A11718   2.909  43.688   7.673
  566POPC   C1B11719   3.006  44.180   8.725
  566POPC   C2B11720   2.728  44.288   8.426
  566POPC   C3B11721   2.921  44.396   8.070
  566POPC   C4B11722   2.891  44.247   7.673
  567POPC   NC311723   0.992  11.935   9.535
  567POPC   PO411724   1.369  12.503   9.542
  567POPC   GL111725   1.241  12.211   9.178
  567POPC   GL211726   0.852  12.108   9.095
  567POPC   C1A11727   1.156  12.214   8.726
  567POPC   D2A11728   1.268  12.036   8.357
  567POPC   C3A11729   1.188  12.181   7.931
  567POPC   C4A11730   1.274  11.931   7.554
  567POPC   C1B11731   0.771  11.864   8.695
  567POPC   C2B11732   0.783  11.922   8.216
  567POPC   C3B11733   0.783  11.952   7.743
  567POPC   C4B11734   0.894  12.233   7.385
  568POPC   NC311735  37.667  12.479   9.530
  568POPC   PO411736  37.820  11.821   9.574
  568POPC   GL111737  37.810  12.021   9.197
  568POPC   GL211738  37.487  12.074   9.227
  568POPC   C1A11739  37.692  11.845   8.785
  568POPC   D2A11740  37.950  11.800   8.418
  568POPC   C3A11741  37.733  12.015   8.088
  568POPC   C4A11742  37.851  12.062   7.644
  568POPC   C1B11743  37.513  12.321   8.873
  568POPC   C2B11744  37.611  12.448   8.465
  568POPC   C3B11745  37.334  12.418   8.127
  568POPC   C4B11746  37.381  12.237   7.767
  569POPC   NC311747  38.631  36.353   9.190
  569POPC   PO411748  38.384  35.835   9.553
  569POPC   GL111749  38.336  35.936   9.145
  569POPC   GL211750  38.095  36.166   9.191
  569POPC   C1A11751  38.416  35.976   8.720
  569POPC   D2A11752  38.385  36.301   8.470
  569POPC   C3A11753  38.378  36.119   8.087
  569POPC   C4A11754  38.637  36.308   7.821
  569POPC   C1B11755  37.940  36.217   8.764
  569POPC   C2B11756  37.913  36.377   8.331
  569POPC   C3B11757  37.949  36.322   7.893
  569POPC   C4B11758  37.935  35.986   7.580
  570POPC   NC311759  27.102  11.255   9.345
  570POPC   PO411760  26.464  11.136   9.471
  570POPC   GL111761  26.642  11.115   9.082
  570POPC   GL211762  26.656  11.462   9.078
  570POPC   C1A11763  26.925  11.201   8.707
  570POPC   D2A11764  26.889  11.441   8.314
  570POPC   C3A11765  26.873  11.245   7.891
  570POPC   C4A11766  27.050  11.333   7.491
  570POPC   C1B11767  26.460  11.410   8.672
  570POPC   C2B11768  26.399  11.620   8.292
  570POPC   C3B11769  26.430  11.498   7.869
  570POPC   C4B11770  26.258  11.083   7.751
  571POPC   NC311771  16.979   5.248   9.561
  571POPC   PO411772  16.571   4.768   9.528
  571POPC   GL111773  16.621   5.088   9.199
  571POPC   GL211774  16.921   5.161   9.031
  571POPC   C1A11775  16.461   4.998   8.798
  571POPC   D2A11776  16.771   5.100   8.520
  571POPC   C3A11777  16.663   5.074   8.091
  571POPC   C4A11778  16.467   5.010   7.697
  571POPC   C1B11779  17.108   5.478   8.759
  571POPC   C2B11780  17.103   5.632   8.335
  571POPC   C3B11781  16.927   5.523   7.971
  571POPC   C4B11782  16.922   5.249   7.634
  572POPC   NC311783  16.382  19.983   9.329
  572POPC   PO411784  15.802  19.722   9.626
  572POPC   GL111785  15.865  19.961   9.227
  572POPC   GL211786  16.036  19.673   9.084
  572POPC   C1A11787  16.069  20.081   8.784
  572POPC   D2A11788  16.092  19.813   8.424
  572POPC   C3A11789  16.242  19.966   8.045
  572POPC   C4A11790  16.170  19.784   7.667
  572POPC   C1B11791  15.698  19.745   8.784
  572POPC   C2B11792  15.565  19.770   8.382
  572POPC   C3B11793  15.748  19.765   8.001
  572POPC   C4B11794  15.449  19.694   7.708
  573POPC   NC311795   8.127  31.458   9.506
  573POPC   PO411796   8.737  31.469   9.483
  573POPC   GL111797   8.437  31.606   9.120
  573POPC   GL211798   8.043  31.761   9.076
  573POPC   C1A11799   8.201  31.385   8.795
  573POPC   D2A11800   8.252  31.346   8.378
  573POPC   C3A11801   8.301  31.566   8.009
  573POPC   C4A11802   8.263  31.163   7.808
  573POPC   C1B11803   7.803  31.682   8.653
  573POPC   C2B11804   7.824  31.606   8.197
  573POPC   C3B11805   7.878  31.508   7.722
  573POPC   C4B11806   7.864  31.650   7.245
  574POPC   NC311807   8.543  17.601   9.517
  574POPC   PO411808   8.899  17.083   9.463
  574POPC   GL111809   8.973  17.441   9.182
  574POPC   GL211810   8.651  17.353   9.059
  574POPC   C1A11811   9.175  17.665   8.790
  574POPC   D2A11812   9.101  17.870   8.431
  574POPC   C3A11813   9.115  17.716   8.034
  574POPC   C4A11814   9.088  17.963   7.694
  574POPC   C1B11815   8.693  17.580   8.699
  574POPC   C2B11816   8.762  17.455   8.326
  574POPC   C3B11817   8.667  17.287   7.964
  574POPC   C4B11818   8.844  17.482   7.642
  575POPC   NC311819  16.565  11.759   9.348
  575POPC   PO411820  17.096  12.172   9.513
  575POPC   GL111821  16.777  12.193   9.141
  575POPC   GL211822  16.392  12.209   9.145
  575POPC   C1A11823  16.669  12.046   8.698
  575POPC   D2A11824  16.731  11.766   8.322
  575POPC   C3A11825  16.915  11.886   7.911
  575POPC   C4A11826  16.979  11.821   7.432
  575POPC   C1B11827  16.192  12.221   8.732
  575POPC   C2B11828  16.330  12.272   8.332
  575POPC   C3B11829  16.531  12.185   7.995
  575POPC   C4B11830  16.767  12.260   7.615
  576POPC   NC311831  28.395  37.544   9.552
  576POPC   PO411832  28.763  38.055   9.440
  576POPC   GL111833  28.561  37.742   9.110
  576POPC   GL211834  28.201  37.607   9.093
  576POPC   C1A11835  28.448  37.735   8.666
  576POPC   D2A11836  28.271  37.545   8.307
  576POPC   C3A11837  28.440  37.740   7.972
  576POPC   C4A11838  28.597  37.676   7.574
  576POPC   C1B11839  27.971  37.505   8.739
  576POPC   C2B11840  27.800  37.734   8.413
  576POPC   C3B11841  27.912  37.783   7.998
  576POPC   C4B11842  28.099  37.580   7.644
  577POPC   NC311843  10.083  29.945   9.741
  577POPC   PO411844   9.661  29.748   9.163
  577POPC   GL111845   9.681  30.124   8.944
  577POPC   GL211846   9.400  30.279   9.023
  577POPC   C1A11847   9.585  30.014   8.557
  577POPC   D2A11848   9.678  29.632   8.366
  577POPC   C3A11849   9.597  29.744   7.967
  577POPC   C4A11850   9.962  29.911   7.751
  577POPC   C1B11851   9.317  30.497   8.666
  577POPC   C2B11852   9.367  30.383   8.242
  577POPC   C3B11853   9.552  30.232   7.881
  577POPC   C4B11854   9.319  30.028   7.526
  578POPC   NC311855   5.678  43.323   9.567
  578POPC   PO411856   6.191  43.021   9.307
  578POPC   GL111857   5.856  43.246   9.109
  578POPC   GL211858   5.540  43.039   9.138
  578POPC   C1A11859   5.694  43.266   8.711
  578POPC   D2A11860   5.926  42.997   8.488
  578POPC   C3A11861   5.907  43.214   8.142
  578POPC   C4A11862   6.116  43.031   7.822
  578POPC   C1B11863   5.512  42.783   8.746
  578POPC   C2B11864   5.467  42.870   8.282
  578POPC   C3B11865   5.625  42.897   7.862
  578POPC   C4B11866   5.691  43.207   7.512
  579POPC   NC311867  31.960  26.634   9.788
  579POPC   PO411868  31.379  26.933   9.507
  579POPC   GL111869  31.550  26.938   9.136
  579POPC   GL211870  31.882  26.948   9.111
  579POPC   C1A11871  31.587  26.810   8.724
  579POPC   D2A11872  31.375  26.704   8.372
  579POPC   C3A11873  31.442  26.953   8.029
  579POPC   C4A11874  31.291  26.770   7.706
  579POPC   C1B11875  32.053  27.097   8.741
  579POPC   C2B11876  32.174  27.160   8.341
  579POPC   C3B11877  31.956  27.027   7.963
  579POPC   C4B11878  31.762  26.888   7.595
  580POPC   NC311879  22.015  21.524   9.472
  580POPC   PO411880  22.532  21.078   9.319
  580POPC   GL111881  22.220  21.274   9.065
  580POPC   GL211882  22.298  21.626   9.030
  580POPC   C1A11883  22.068  21.308   8.634
  580POPC   D2A11884  22.075  21.506   8.237
  580POPC   C3A11885  22.113  21.257   7.806
  580POPC   C4A11886  22.065  21.046   7.379
  580POPC   C1B11887  22.632  21.762   8.729
  580POPC   C2B11888  22.685  21.657   8.292
  580POPC   C3B11889  22.390  21.773   7.961
  580POPC   C4B11890  22.424  21.748   7.547
  581POPC   NC311891  37.275  36.011   9.600
  581POPC   PO411892  36.689  36.304   9.712
  581POPC   GL111893  36.820  36.079   9.316
  581POPC   GL211894  36.727  36.362   9.152
  581POPC   C1A11895  36.986  36.041   8.858
  581POPC   D2A11896  37.099  36.225   8.437
  581POPC   C3A11897  37.094  36.023   8.021
  581POPC   C4A11898  36.765  35.846   7.835
  581POPC   C1B11899  36.933  36.576   8.828
  581POPC   C2B11900  36.776  36.627   8.439
  581POPC   C3B11901  36.598  36.585   8.075
  581POPC   C4B11902  36.789  36.367   7.794
  582POPC   NC311903  41.041  35.694   9.389
  582POPC   PO411904  40.383  35.469   9.430
  582POPC   GL111905  40.652  35.538   9.105
  582POPC   GL211906  40.876  35.248   9.108
  582POPC   C1A11907  40.882  35.587   8.732
  582POPC   D2A11908  40.795  35.318   8.423
  582POPC   C3A11909  40.972  35.399   8.035
  582POPC   C4A11910  40.812  35.578   7.685
  582POPC   C1B11911  40.534  35.100   8.832
  582POPC   C2B11912  40.470  34.924   8.421
  582POPC   C3B11913  40.521  35.122   8.042
  582POPC   C4B11914  40.777  35.023   7.705
  583POPC   NC311915  33.046  41.820   9.485
  583POPC   PO411916  32.866  41.167   9.503
  583POPC   GL111917  32.963  41.372   9.122
  583POPC   GL211918  33.062  41.730   8.999
  583POPC   C1A11919  32.898  41.393   8.671
  583POPC   D2A11920  33.084  41.332   8.314
  583POPC   C3A11921  32.797  41.367   7.980
  583POPC   C4A11922  33.105  41.366   7.640
  583POPC   C1B11923  32.701  41.851   8.728
  583POPC   C2B11924  32.727  41.802   8.286
  583POPC   C3B11925  33.102  41.771   8.016
  583POPC   C4B11926  33.104  41.884   7.609
  584POPC   NC311927  36.942  28.832   9.774
  584POPC   PO411928  37.193  29.227   9.292
  584POPC   GL111929  36.932  29.165   8.954
  584POPC   GL211930  36.769  29.474   8.836
  584POPC   C1A11931  37.009  29.092   8.555
  584POPC   D2A11932  37.115  28.913   8.208
  584POPC   C3A11933  37.032  29.182   7.926
  584POPC   C4A11934  36.892  28.903   7.620
  584POPC   C1B11935  36.675  29.465   8.445
  584POPC   C2B11936  36.599  29.155   8.194
  584POPC   C3B11937  36.537  29.229   7.791
  584POPC   C4B11938  36.813  29.477   7.540
  585POPC   NC311939   4.928  23.170   9.545
  585POPC   PO411940   4.941  22.554   9.445
  585POPC   GL111941   4.928  22.868   9.133
  585POPC   GL211942   5.241  23.091   9.159
  585POPC   C1A11943   4.843  23.111   8.760
  585POPC   D2A11944   4.735  23.264   8.358
  585POPC   C3A11945   4.975  23.130   8.057
  585POPC   C4A11946   5.110  22.769   7.792
  585POPC   C1B11947   5.305  22.848   8.793
  585POPC   C2B11948   5.382  22.584   8.452
  585POPC   C3B11949   5.443  22.893   8.152
  585POPC   C4B11950   5.403  23.211   7.810
  586POPC   NC311951   7.460  38.396   9.444
  586POPC   PO411952   7.762  39.004   9.270
  586POPC   GL111953   7.648  38.644   9.049
  586POPC   GL211954   7.647  38.242   8.999
  586POPC   C1A11955   7.288  38.613   8.783
  586POPC   D2A11956   7.224  38.833   8.391
  586POPC   C3A11957   7.100  38.568   8.056
  586POPC   C4A11958   7.293  38.402   7.688
  586POPC   C1B11959   7.753  38.448   8.608
  586POPC   C2B11960   7.575  38.455   8.206
  586POPC   C3B11961   7.775  38.327   7.863
  586POPC   C4B11962   7.807  38.364   7.421
  587POPC   NC311963   6.640  12.546   9.739
  587POPC   PO411964   6.344  11.923   9.642
  587POPC   GL111965   6.594  12.189   9.353
  587POPC   GL211966   6.949  12.175   9.209
  587POPC   C1A11967   6.518  12.169   8.924
  587POPC   D2A11968   6.416  12.301   8.538
  587POPC   C3A11969   6.649  12.074   8.220
  587POPC   C4A11970   6.713  11.850   7.829
  587POPC   C1B11971   7.005  12.137   8.741
  587POPC   C2B11972   7.054  12.341   8.326
  587POPC   C3B11973   7.019  12.238   7.874
  587POPC   C4B11974   7.073  12.453   7.467
  588POPC   NC311975  12.849  16.550   9.626
  588POPC   PO411976  13.460  16.880   9.516
  588POPC   GL111977  13.622  16.805   9.093
  588POPC   GL211978  13.672  16.450   8.953
  588POPC   C1A11979  13.699  16.882   8.647
  588POPC   D2A11980  13.783  17.152   8.275
  588POPC   C3A11981  13.627  16.898   7.949
  588POPC   C4A11982  13.710  16.831   7.517
  588POPC   C1B11983  13.276  16.604   8.765
  588POPC   C2B11984  13.376  16.521   8.353
  588POPC   C3B11985  13.670  16.392   8.057
  588POPC   C4B11986  13.427  16.476   7.728
  589POPC   NC311987  17.697  30.509   9.543
  589POPC   PO411988  17.048  30.740   9.366
  589POPC   GL111989  17.454  30.648   9.144
  589POPC   GL211990  17.833  30.688   9.102
  589POPC   C1A11991  17.475  30.464   8.734
  589POPC   D2A11992  17.236  30.597   8.403
  589POPC   C3A11993  17.463  30.560   8.049
  589POPC   C4A11994  17.339  30.845   7.750
  589POPC   C1B11995  17.645  30.940   8.796
  589POPC   C2B11996  17.708  30.834   8.404
  589POPC   C3B11997  17.862  30.861   7.970
  589POPC   C4B11998  17.764  31.024   7.570
  590POPC   NC311999  22.749   7.648   9.534
  590POPC   PO412000  22.903   8.267   9.587
  590POPC   GL112001  22.983   8.307   9.143
  590POPC   GL212002  22.981   7.954   9.108
  590POPC   C1A12003  22.898   8.239   8.682
  590POPC   D2A12004  23.086   8.215   8.250
  590POPC   C3A12005  22.750   8.190   7.929
  590POPC   C4A12006  22.745   8.367   7.507
  590POPC   C1B12007  23.264   7.824   8.766
  590POPC   C2B12008  23.373   7.727   8.315
  590POPC   C3B12009  23.096   7.801   7.940
  590POPC   C4B12010  23.182   8.117   7.629
  591POPC   NC312011  12.657   1.194   9.362
  591POPC   PO412012  13.088   1.614   9.663
  591POPC   GL112013  13.132   1.489   9.160
  591POPC   GL212014  13.020   1.195   9.029
  591POPC   C1A12015  13.074   1.474   8.615
  591POPC   D2A12016  12.798   1.339   8.263
  591POPC   C3A12017  12.927   1.287   7.868
  591POPC   C4A12018  12.834   1.639   7.684
  591POPC   C1B12019  12.645   1.216   8.721
  591POPC   C2B12020  12.595   0.882   8.398
  591POPC   C3B12021  12.571   0.932   7.958
  591POPC   C4B12022  12.633   0.981   7.487
  592POPC   NC312023  22.284  42.100   9.453
  592POPC   PO412024  21.659  42.068   9.801
  592POPC   GL112025  21.782  42.254   9.380
  592POPC   GL212026  22.020  42.562   9.346
  592POPC   C1A12027  21.727  42.315   8.918
  592POPC   D2A12028  21.631  42.196   8.472
  592POPC   C3A12029  21.977  42.151   8.178
  592POPC   C4A12030  22.100  42.134   7.722
  592POPC   C1B12031  22.202  42.516   8.917
  592POPC   C2B12032  22.283  42.493   8.459
  592POPC   C3B12033  22.277  42.554   7.995
  592POPC   C4B12034  22.210  42.641   7.517
  593POPC   NC312035   6.364  42.608   9.433
  593POPC   PO412036   6.438  41.939   9.338
  593POPC   GL112037   6.709  42.153   9.063
  593POPC   GL212038   6.444  42.356   9.011
  593POPC   C1A12039   6.772  42.401   8.646
  593POPC   D2A12040   6.894  42.440   8.213
  593POPC   C3A12041   6.673  42.543   7.871
  593POPC   C4A12042   6.736  42.458   7.436
  593POPC   C1B12043   6.335  42.079   8.687
  593POPC   C2B12044   6.543  42.044   8.316
  593POPC   C3B12045   6.530  42.076   7.897
  593POPC   C4B12046   6.248  41.929   7.572
  594POPC   NC312047  31.512  34.990   9.548
  594POPC   PO412048  31.141  35.489   9.426
  594POPC   GL112049  31.351  35.293   9.090
  594POPC   GL212050  31.683  35.261   9.175
  594POPC   C1A12051  31.566  35.496   8.717
  594POPC   D2A12052  31.719  35.616   8.307
  594POPC   C3A12053  31.415  35.547   8.020
  594POPC   C4A12054  31.377  35.514   7.604
  594POPC   C1B12055  31.711  35.024   8.790
  594POPC   C2B12056  31.338  34.886   8.533
  594POPC   C3B12057  31.291  35.029   8.096
  594POPC   C4B12058  31.682  35.102   7.851
  595POPC   NC312059  19.121  29.612   9.467
  595POPC   PO412060  19.039  30.299   9.534
  595POPC   GL112061  19.067  30.146   9.096
  595POPC   GL212062  19.135  29.814   9.013
  595POPC   C1A12063  18.797  30.070   8.718
  595POPC   D2A12064  18.930  30.233   8.323
  595POPC   C3A12065  18.882  29.968   7.934
  595POPC   C4A12066  18.871  29.696   7.565
  595POPC   C1B12067  19.301  29.988   8.645
  595POPC   C2B12068  19.210  29.793   8.292
  595POPC   C3B12069  19.271  29.583   7.941
  595POPC   C4B12070  19.376  29.700   7.532
  596POPC   NC312071  25.738  10.352   9.414
  596POPC   PO412072  26.138  10.771   9.758
  596POPC   GL112073  26.151  10.718   9.296
  596POPC   GL212074  26.216  10.353   9.189
  596POPC   C1A12075  26.009  10.682   8.851
  596POPC   D2A12076  26.210  10.671   8.434
  596POPC   C3A12077  26.016  10.716   8.007
  596POPC   C4A12078  25.946  10.653   7.552
  596POPC   C1B12079  26.096  10.214   8.738
  596POPC   C2B12080  25.879  10.276   8.348
  596POPC   C3B12081  25.846  10.246   7.905
  596POPC   C4B12082  26.088   9.946   7.702
  597POPC   NC312083   5.589  27.793   9.464
  597POPC   PO412084   6.156  27.433   9.481
  597POPC   GL112085   5.982  27.625   9.161
  597POPC   GL212086   5.704  27.394   9.172
  597POPC   C1A12087   5.846  27.720   8.765
  597POPC   D2A12088   6.023  27.740   8.360
  597POPC   C3A12089   5.733  27.656   8.029
  597POPC   C4A12090   6.021  27.768   7.741
  597POPC   C1B12091   5.919  27.202   8.824
  597POPC   C2B12092   5.826  27.268   8.384
  597POPC   C3B12093   6.088  27.290   7.997
  597POPC   C4B12094   6.209  27.338   7.546
  598POPC   NC312095  39.364  44.821   9.550
  598POPC   PO412096  38.884  44.286   9.659
  598POPC   GL112097  39.096  44.427   9.261
  598POPC   GL212098  39.103  44.745   9.128
  598POPC   C1A12099  39.285  44.380   8.842
  598POPC   D2A12100  39.160  44.521   8.450
  598POPC   C3A12101  39.465  44.670   8.155
  598POPC   C4A12102  39.258  44.742   7.770
  598POPC   C1B12103  38.908  44.889   8.750
  598POPC   C2B12104  38.697  44.907   8.365
  598POPC   C3B12105  38.871   0.019   7.988
  598POPC   C4B12106  38.840   0.200   7.617
  599POPC   NC312107  18.481   3.830   9.624
  599POPC   PO412108  18.089   4.376   9.844
  599POPC   GL112109  18.140   4.118   9.400
  599POPC   GL212110  18.361   4.316   9.165
  599POPC   C1A12111  18.066   3.992   8.918
  599POPC   D2A12112  18.276   4.258   8.574
  599POPC   C3A12113  18.232   4.231   8.098
  599POPC   C4A12114  18.056   4.264   7.663
  599POPC   C1B12115  18.316   4.677   8.855
  599POPC   C2B12116  18.534   4.683   8.440
  599POPC   C3B12117  18.641   4.573   8.015
  599POPC   C4B12118  18.494   4.544   7.574
  600POPC   NC312119  38.686  36.971   9.685
  600POPC   PO412120  38.314  36.669   9.245
  600POPC   GL112121  38.702  36.857   9.105
  600POPC   GL212122  38.610  37.164   9.187
  600POPC   C1A12123  38.580  36.896   8.670
  600POPC   D2A12124  38.200  36.807   8.458
  600POPC   C3A12125  38.311  36.657   8.055
  600POPC   C4A12126  38.591  36.885   7.789
  600POPC   C1B12127  38.286  37.295   8.904
  600POPC   C2B12128  38.370  37.322   8.473
  600POPC   C3B12129  38.260  37.189   8.053
  600POPC   C4B12130  38.290  37.353   7.633
  601POPC   NC312131  27.562  30.100   9.418
  601POPC   PO412132  27.238  29.482   9.460
  601POPC   GL112133  27.532  29.668   9.165
  601POPC   GL212134  27.888  29.660   9.212
  601POPC   C1A12135  27.564  29.919   8.791
  601POPC   D2A12136  27.703  29.890   8.381
  601POPC   C3A12137  27.806  30.170   8.101
  601POPC   C4A12138  27.526  30.236   7.787
  601POPC   C1B12139  27.998  29.656   8.755
  601POPC   C2B12140  28.092  29.540   8.313
  601POPC   C3B12141  27.848  29.646   7.951
  601POPC   C4B12142  27.827  29.890   7.595
  602POPC   NC312143   2.663  24.920   9.457
  602POPC   PO412144   3.019  25.428   9.471
  602POPC   GL112145   2.810  25.285   9.135
  602POPC   GL212146   3.010  25.033   9.106
  602POPC   C1A12147   2.686  25.262   8.721
  602POPC   D2A12148   2.833  25.045   8.374
  602POPC   C3A12149   2.755  25.264   8.005
  602POPC   C4A12150   2.711  25.368   7.572
  602POPC   C1B12151   3.134  24.858   8.756
  602POPC   C2B12152   3.343  24.932   8.401
  602POPC   C3B12153   3.250  25.027   8.013
  602POPC   C4B12154   3.000  24.959   7.662
  603POPC   NC312155  19.030  22.363   9.517
  603POPC   PO412156  18.994  21.744   9.786
  603POPC   GL112157  18.893  21.897   9.326
  603POPC   GL212158  19.211  21.755   9.226
  603POPC   C1A12159  18.837  22.245   8.930
  603POPC   D2A12160  18.620  22.457   8.572
  603POPC   C3A12161  18.892  22.276   8.265
  603POPC   C4A12162  19.164  22.346   7.919
  603POPC   C1B12163  19.395  21.618   8.844
  603POPC   C2B12164  19.508  21.659   8.419
  603POPC   C3B12165  19.382  21.828   8.039
  603POPC   C4B12166  19.387  22.007   7.630
  604POPC   NC312167   9.248  29.599   9.315
  604POPC   PO412168   8.788  30.103   9.496
  604POPC   GL112169   8.913  30.080   9.106
  604POPC   GL212170   8.746  29.789   9.047
  604POPC   C1A12171   9.065  30.053   8.680
  604POPC   D2A12172   9.185  29.797   8.319
  604POPC   C3A12173   9.059  29.986   7.956
  604POPC   C4A12174   8.710  30.248   7.889
  604POPC   C1B12175   8.781  29.639   8.642
  604POPC   C2B12176   8.661  29.871   8.292
  604POPC   C3B12177   8.565  29.773   7.882
  604POPC   C4B12178   8.788  29.765   7.469
  605POPC   NC312179  21.569  41.751   9.458
  605POPC   PO412180  21.837  41.128   9.482
  605POPC   GL112181  21.648  41.390   9.091
  605POPC   GL212182  21.271  41.557   9.086
  605POPC   C1A12183  21.456  41.368   8.656
  605POPC   D2A12184  21.074  41.538   8.458
  605POPC   C3A12185  21.147  41.637   8.018
  605POPC   C4A12186  21.474  41.356   7.814
  605POPC   C1B12187  21.520  41.835   8.806
  605POPC   C2B12188  21.804  41.700   8.505
  605POPC   C3B12189  21.641  41.723   8.150
  605POPC   C4B12190  21.618  42.018   7.841
  606POPC   NC312191  40.008  26.423   9.806
  606POPC   PO412192  40.021  27.047   9.505
  606POPC   GL112193  39.923  26.913   9.128
  606POPC   GL212194  39.979  26.589   9.108
  606POPC   C1A12195  39.787  26.829   8.714
  606POPC   D2A12196  40.032  26.865   8.343
  606POPC   C3A12197  39.905  26.678   7.997
  606POPC   C4A12198  39.563  26.707   7.769
  606POPC   C1B12199  40.300  26.790   8.780
  606POPC   C2B12200  40.504  26.686   8.363
  606POPC   C3B12201  40.409  26.663   7.890
  606POPC   C4B12202  40.430  26.673   7.398
  607POPC   NC312203  21.374   6.912   9.342
  607POPC   PO412204  21.846   6.473   9.677
  607POPC   GL112205  21.599   6.450   9.230
  607POPC   GL212206  21.210   6.470   9.121
  607POPC   C1A12207  21.551   6.617   8.767
  607POPC   D2A12208  21.493   6.955   8.429
  607POPC   C3A12209  21.428   6.833   7.974
  607POPC   C4A12210  21.529   6.418   7.781
  607POPC   C1B12211  21.047   6.727   8.740
  607POPC   C2B12212  20.962   6.788   8.284
  607POPC   C3B12213  20.982   6.571   7.869
  607POPC   C4B12214  21.113   6.244   7.559
  608POPC   NC312215  26.829  18.426   9.540
  608POPC   PO412216  27.156  17.773   9.479
  608POPC   GL112217  26.848  18.032   9.184
  608POPC   GL212218  26.587  18.325   9.108
  608POPC   C1A12219  26.910  18.153   8.727
  608POPC   D2A12220  26.843  17.968   8.294
  608POPC   C3A12221  26.983  18.199   7.881
  608POPC   C4A12222  26.995  18.004   7.443
  608POPC   C1B12223  26.405  18.134   8.759
  608POPC   C2B12224  26.524  18.356   8.390
  608POPC   C3B12225  26.540  18.482   7.966
  608POPC   C4B12226  26.565  18.309   7.557
  609POPC   NC312227  29.767   6.909   9.612
  609POPC   PO412228  30.162   6.394   9.414
  609POPC   GL112229  29.834   6.640   9.149
  609POPC   GL212230  29.719   6.983   9.137
  609POPC   C1A12231  29.689   6.623   8.729
  609POPC   D2A12232  29.952   6.617   8.358
  609POPC   C3A12233  29.849   6.595   7.898
  609POPC   C4A12234  30.073   6.316   7.613
  609POPC   C1B12235  29.935   7.074   8.808
  609POPC   C2B12236  29.939   7.141   8.422
  609POPC   C3B12237  30.116   7.005   8.074
  609POPC   C4B12238  29.980   7.079   7.676
  610POPC   NC312239   3.766  38.661   9.886
  610POPC   PO412240   4.352  38.317   9.728
  610POPC   GL112241   4.343  38.527   9.242
  610POPC   GL212242   4.644  38.666   9.149
  610POPC   C1A12243   4.157  38.681   8.797
  610POPC   D2A12244   3.944  38.678   8.369
  610POPC   C3A12245   4.100  38.629   7.949
  610POPC   C4A12246   4.141  38.328   7.633
  610POPC   C1B12247   4.606  38.453   8.785
  610POPC   C2B12248   4.359  38.262   8.463
  610POPC   C3B12249   4.458  38.265   8.042
  610POPC   C4B12250   4.579  38.557   7.734
  611POPC   NC312251  38.805  20.669   9.572
  611POPC   PO412252  38.338  20.194   9.526
  611POPC   GL112253  38.365  20.609   9.267
  611POPC   GL212254  38.703  20.734   9.090
  611POPC   C1A12255  38.246  20.806   8.883
  611POPC   D2A12256  38.558  20.810   8.584
  611POPC   C3A12257  38.401  20.655   8.205
  611POPC   C4A12258  38.603  20.724   7.812
  611POPC   C1B12259  38.775  20.375   8.842
  611POPC   C2B12260  38.843  20.405   8.420
  611POPC   C3B12261  38.735  20.269   8.024
  611POPC   C4B12262  38.919  20.298   7.665
  612POPC   NC312263  41.651   2.343   9.480
  612POPC   PO412264  41.091   1.928   9.398
  612POPC   GL112265  41.279   2.250   9.110
  612POPC   GL212266  41.584   2.056   9.017
  612POPC   C1A12267  41.432   2.348   8.666
  612POPC   D2A12268  41.651   2.041   8.389
  612POPC   C3A12269  41.457   2.001   7.970
  612POPC   C4A12270  41.565   2.251   7.619
  612POPC   C1B12271  41.753   1.695   8.774
  612POPC   C2B12272  41.761   1.525   8.374
  612POPC   C3B12273  41.894   1.716   7.969
  612POPC   C4B12274  41.838   1.818   7.522
  613POPC   NC312275  19.772  37.377   9.481
  613POPC   PO412276  20.084  37.919   9.562
  613POPC   GL112277  19.871  37.806   9.144
  613POPC   GL212278  19.721  37.498   9.002
  613POPC   C1A12279  19.702  37.968   8.765
  613POPC   D2A12280  19.605  37.726   8.407
  613POPC   C3A12281  19.656  37.924   8.024
  613POPC   C4A12282  19.894  37.841   7.688
  613POPC   C1B12283  20.048  37.223   8.820
  613POPC   C2B12284  20.054  37.177   8.378
  613POPC   C3B12285  19.825  37.402   8.041
  613POPC   C4B12286  20.027  37.366   7.670
  614POPC   NC312287  27.396   5.113   9.654
  614POPC   PO412288  27.758   4.703   9.282
  614POPC   GL112289  27.554   4.792   8.980
  614POPC   GL212290  27.317   4.943   9.172
  614POPC   C1A12291  27.803   4.942   8.641
  614POPC   D2A12292  27.747   5.187   8.297
  614POPC   C3A12293  27.778   5.018   7.892
  614POPC   C4A12294  27.651   5.124   7.486
  614POPC   C1B12295  27.427   5.258   8.818
  614POPC   C2B12296  27.241   5.258   8.378
  614POPC   C3B12297  27.273   5.141   7.931
  614POPC   C4B12298  27.269   5.464   7.580
  615POPC   NC312299  17.656  42.844   9.367
  615POPC   PO412300  17.024  43.082   9.422
  615POPC   GL112301  17.304  43.221   9.154
  615POPC   GL212302  17.628  43.372   9.282
  615POPC   C1A12303  17.347  42.991   8.773
  615POPC   D2A12304  17.197  43.009   8.374
  615POPC   C3A12305  17.378  43.130   8.019
  615POPC   C4A12306  17.232  43.314   7.629
  615POPC   C1B12307  17.657  43.379   8.840
  615POPC   C2B12308  17.771  43.102   8.472
  615POPC   C3B12309  17.879  43.252   8.056
  615POPC   C4B12310  18.117  43.349   7.713
  616POPC   NC312311  43.664  38.120  10.019
  616POPC   PO412312  43.891  38.584   9.508
  616POPC   GL112313  43.864  38.361   9.113
  616POPC   GL212314  43.874  37.985   9.145
  616POPC   C1A12315  43.931  38.382   8.675
  616POPC   D2A12316  44.242  38.200   8.423
  616POPC   C3A12317  44.073  38.144   8.027
  616POPC   C4A12318  44.003  38.489   7.761
  616POPC   C1B12319  43.683  37.943   8.753
  616POPC   C2B12320  43.673  38.081   8.335
  616POPC   C3B12321  43.611  38.447   8.103
  616POPC   C4B12322  43.414  38.577   7.714
  617POPC   NC312323  20.571  34.762   9.480
  617POPC   PO412324  20.229  34.334   9.101
  617POPC   GL112325  20.528  34.617   9.004
  617POPC   GL212326  20.859  34.466   9.157
  617POPC   C1A12327  20.504  34.748   8.602
  617POPC   D2A12328  20.683  34.434   8.375
  617POPC   C3A12329  20.609  34.557   7.999
  617POPC   C4A12330  20.610  34.366   7.630
  617POPC   C1B12331  20.991  34.643   8.755
  617POPC   C2B12332  21.032  34.811   8.323
  617POPC   C3B12333  21.087  34.650   7.886
  617POPC   C4B12334  21.096  34.554   7.424
  618POPC   NC312335  12.415  12.369  10.236
  618POPC   PO412336  12.134  12.072   9.733
  618POPC   GL112337  12.077  12.056   9.276
  618POPC   GL212338  11.770  12.322   9.241
  618POPC   C1A12339  12.459  12.023   8.918
  618POPC   D2A12340  12.703  12.077   8.475
  618POPC   C3A12341  12.600  11.857   8.089
  618POPC   C4A12342  12.200  11.972   7.858
  618POPC   C1B12343  11.661  12.174   8.812
  618POPC   C2B12344  11.619  12.362   8.371
  618POPC   C3B12345  11.675  12.290   7.931
  618POPC   C4B12346  11.685  11.871   7.751
  619POPC   NC312347  23.722  35.286   9.526
  619POPC   PO412348  23.109  35.515   9.565
  619POPC   GL112349  23.431  35.363   9.141
  619POPC   GL212350  23.672  35.130   9.032
  619POPC   C1A12351  23.802  35.607   8.899
  619POPC   D2A12352  23.964  35.649   8.445
  619POPC   C3A12353  23.834  35.406   8.119
  619POPC   C4A12354  23.855  35.622   7.704
  619POPC   C1B12355  23.550  35.310   8.600
  619POPC   C2B12356  23.286  35.392   8.239
  619POPC   C3B12357  23.404  35.333   7.814
  619POPC   C4B12358  23.761  35.106   7.711
  620POPC   NC312359  20.014  29.424   9.332
  620POPC   PO412360  19.460  29.418   9.749
  620POPC   GL112361  19.590  29.075   9.269
  620POPC   GL212362  19.910  28.917   9.193
  620POPC   C1A12363  19.730  29.121   8.770
  620POPC   D2A12364  20.049  29.371   8.516
  620POPC   C3A12365  20.083  29.352   8.071
  620POPC   C4A12366  19.754  29.465   7.785
  620POPC   C1B12367  20.188  28.851   8.791
  620POPC   C2B12368  20.079  28.867   8.358
  620POPC   C3B12369  19.807  28.888   8.021
  620POPC   C4B12370  19.997  29.029   7.670
  621POPC   NC312371  26.277  27.883   9.407
  621POPC   PO412372  26.448  27.285   9.463
  621POPC   GL112373  26.164  27.386   9.104
  621POPC   GL212374  25.980  27.690   9.041
  621POPC   C1A12375  26.172  27.459   8.633
  621POPC   D2A12376  26.345  27.797   8.363
  621POPC   C3A12377  26.259  27.768   7.920
  621POPC   C4A12378  26.074  27.429   7.657
  621POPC   C1B12379  25.854  27.853   8.635
  621POPC   C2B12380  25.853  27.624   8.224
  621POPC   C3B12381  25.736  27.781   7.815
  621POPC   C4B12382  25.509  27.734   7.397
  622POPC   NC312383  29.666  32.976   9.743
  622POPC   PO412384  30.176  32.862   9.268
  622POPC   GL112385  29.854  33.067   9.092
  622POPC   GL212386  29.668  32.825   8.874
  622POPC   C1A12387  29.968  33.253   8.730
  622POPC   D2A12388  29.822  33.161   8.320
  622POPC   C3A12389  30.015  33.132   7.918
  622POPC   C4A12390  29.937  33.326   7.479
  622POPC   C1B12391  30.029  32.769   8.622
  622POPC   C2B12392  29.991  32.648   8.229
  622POPC   C3B12393  29.723  32.687   7.901
  622POPC   C4B12394  29.855  32.833   7.493
  623POPC   NC312395  10.808  24.258   9.639
  623POPC   PO412396  10.181  24.024   9.589
  623POPC   GL112397  10.381  24.347   9.285
  623POPC   GL212398  10.711  24.291   9.135
  623POPC   C1A12399  10.397  24.613   8.859
  623POPC   D2A12400  10.667  24.795   8.500
  623POPC   C3A12401  10.577  24.673   8.066
  623POPC   C4A12402  10.402  24.607   7.629
  623POPC   C1B12403  10.792  24.293   8.709
  623POPC   C2B12404  10.965  24.034   8.404
  623POPC   C3B12405  10.849  24.233   8.049
  623POPC   C4B12406  10.930  24.495   7.721
  624POPC   NC312407  11.148  19.767   9.465
  624POPC   PO412408  11.724  20.118   9.462
  624POPC   GL112409  11.604  19.891   9.098
  624POPC   GL212410  11.357  19.648   9.010
  624POPC   C1A12411  11.516  19.996   8.685
  624POPC   D2A12412  11.219  19.884   8.372
  624POPC   C3A12413  11.466  19.897   7.989
  624POPC   C4A12414  11.286  19.975   7.603
  624POPC   C1B12415  11.203  19.401   8.712
  624POPC   C2B12416  10.983  19.414   8.384
  624POPC   C3B12417  11.147  19.494   8.028
  624POPC   C4B12418  11.217  19.464   7.628
  625POPC   NC312419  31.892   1.088   9.440
  625POPC   PO412420  32.396   1.541   9.203
  625POPC   GL112421  32.304   1.178   9.007
  625POPC   GL212422  31.963   1.166   8.975
  625POPC   C1A12423  32.271   1.162   8.553
  625POPC   D2A12424  32.285   1.533   8.307
  625POPC   C3A12425  32.463   1.474   7.935
  625POPC   C4A12426  32.464   1.072   7.730
  625POPC   C1B12427  31.744   1.022   8.700
  625POPC   C2B12428  31.878   0.902   8.343
  625POPC   C3B12429  32.034   1.134   8.028
  625POPC   C4B12430  31.997   1.450   7.780
  626POPC   NC312431  19.224  11.463   9.423
  626POPC   PO412432  18.761  10.910   9.493
  626POPC   GL112433  19.018  10.974   9.117
  626POPC   GL212434  19.056  11.275   8.977
  626POPC   C1A12435  19.197  10.804   8.743
  626POPC   D2A12436  19.339  11.107   8.407
  626POPC   C3A12437  19.184  11.211   7.973
  626POPC   C4A12438  19.320  11.527   7.687
  626POPC   C1B12439  18.830  11.136   8.628
  626POPC   C2B12440  18.721  11.270   8.219
  626POPC   C3B12441  18.831  11.569   7.868
  626POPC   C4B12442  18.914  11.872   7.539
  627POPC   NC312443   5.462   2.729  10.026
  627POPC   PO412444   5.538   2.683   9.319
  627POPC   GL112445   5.588   3.007   9.025
  627POPC   GL212446   5.897   2.884   8.952
  627POPC   C1A12447   5.476   2.963   8.642
  627POPC   D2A12448   5.757   2.717   8.409
  627POPC   C3A12449   5.617   2.751   8.004
  627POPC   C4A12450   5.715   2.886   7.601
  627POPC   C1B12451   6.222   2.845   8.696
  627POPC   C2B12452   6.291   2.817   8.268
  627POPC   C3B12453   6.130   2.808   7.889
  627POPC   C4B12454   6.244   2.917   7.495
  628POPC   NC312455  29.636  12.392   9.165
  628POPC   PO412456  29.582  12.881   9.616
  628POPC   GL112457  29.791  12.949   9.079
  628POPC   GL212458  29.571  12.937   8.731
  628POPC   C1A12459  30.025  12.743   8.747
  628POPC   D2A12460  29.853  12.728   8.353
  628POPC   C3A12461  30.018  12.912   8.009
  628POPC   C4A12462  29.935  12.742   7.673
  628POPC   C1B12463  29.420  12.514   8.543
  628POPC   C2B12464  29.600  12.264   8.248
  628POPC   C3B12465  29.511  12.624   7.993
  628POPC   C4B12466  29.433  12.695   7.567
  629POPC   NC312467  30.655   9.806   9.714
  629POPC   PO412468  30.339  10.250   9.390
  629POPC   GL112469  30.518   9.881   9.158
  629POPC   GL212470  30.816   9.721   9.200
  629POPC   C1A12471  30.435   9.829   8.721
  629POPC   D2A12472  30.580  10.040   8.322
  629POPC   C3A12473  30.456   9.996   7.890
  629POPC   C4A12474  30.680   9.792   7.524
  629POPC   C1B12475  30.751   9.447   8.819
  629POPC   C2B12476  30.653   9.541   8.370
  629POPC   C3B12477  30.509   9.465   7.941
  629POPC   C4B12478  30.658   9.288   7.564
  630POPC   NC312479  29.488  31.160   9.517
  630POPC   PO412480  29.955  31.591   9.612
  630POPC   GL112481  29.771  31.506   9.232
  630POPC   GL212482  30.048  31.302   9.158
  630POPC   C1A12483  29.626  31.348   8.836
  630POPC   D2A12484  29.546  31.481   8.411
  630POPC   C3A12485  29.842  31.327   8.057
  630POPC   C4A12486  29.751  31.161   7.639
  630POPC   C1B12487  30.140  31.527   8.802
  630POPC   C2B12488  30.026  31.666   8.403
  630POPC   C3B12489  30.179  31.703   7.993
  630POPC   C4B12490  30.200  31.461   7.645
  631POPC   NC312491  30.962  13.614   9.419
  631POPC   PO412492  30.547  13.112   9.492
  631POPC   GL112493  30.675  13.334   9.090
  631POPC   GL212494  30.541  13.677   9.136
  631POPC   C1A12495  30.452  13.504   8.679
  631POPC   D2A12496  30.420  13.818   8.359
  631POPC   C3A12497  30.528  13.583   7.999
  631POPC   C4A12498  30.607  13.690   7.576
  631POPC   C1B12499  30.816  13.855   8.789
  631POPC   C2B12500  30.930  13.689   8.383
  631POPC   C3B12501  30.951  13.864   7.979
  631POPC   C4B12502  31.163  13.810   7.576
  632POPC   NC312503  10.971  16.891   9.331
  632POPC   PO412504  11.458  17.126   9.643
  632POPC   GL112505  11.450  16.847   9.219
  632POPC   GL212506  11.245  16.546   9.073
  632POPC   C1A12507  11.590  16.722   8.776
  632POPC   D2A12508  11.464  16.848   8.376
  632POPC   C3A12509  11.627  16.683   7.996
  632POPC   C4A12510  11.596  16.868   7.608
  632POPC   C1B12511  11.019  16.749   8.718
  632POPC   C2B12512  10.963  16.921   8.336
  632POPC   C3B12513  11.157  16.881   7.938
  632POPC   C4B12514  11.149  16.722   7.499
  633POPC   NC312515  11.738  13.608   9.474
  633POPC   PO412516  12.411  13.576   9.583
  633POPC   GL112517  12.199  13.564   9.219
  633POPC   GL212518  12.171  13.200   9.193
  633POPC   C1A12519  11.999  13.868   8.885
  633POPC   D2A12520  11.810  14.074   8.508
  633POPC   C3A12521  11.965  13.980   8.100
  633POPC   C4A12522  11.942  13.797   7.698
  633POPC   C1B12523  11.927  13.360   8.848
  633POPC   C2B12524  11.884  13.557   8.441
  633POPC   C3B12525  12.015  13.432   8.038
  633POPC   C4B12526  11.723  13.294   7.722
  634POPC   NC312527   0.102  27.666   9.368
  634POPC   PO412528   0.603  27.173   9.513
  634POPC   GL112529   0.499  27.432   9.160
  634POPC   GL212530   0.563  27.812   9.201
  634POPC   C1A12531   0.305  27.585   8.756
  634POPC   D2A12532   0.474  27.578   8.347
  634POPC   C3A12533   0.373  27.231   8.110
  634POPC   C4A12534   0.044  27.215   7.801
  634POPC   C1B12535   0.710  27.951   8.806
  634POPC   C2B12536   0.847  27.963   8.369
  634POPC   C3B12537   0.797  27.717   7.973
  634POPC   C4B12538   0.433  27.590   7.742
  635POPC   NC312539   7.425  41.049   9.581
  635POPC   PO412540   7.317  41.808   9.533
  635POPC   GL112541   7.422  41.725   9.129
  635POPC   GL212542   7.563  41.408   9.240
  635POPC   C1A12543   7.379  41.798   8.677
  635POPC   D2A12544   7.536  41.919   8.278
  635POPC   C3A12545   7.449  41.843   7.855
  635POPC   C4A12546   7.279  41.845   7.442
  635POPC   C1B12547   7.350  41.307   8.838
  635POPC   C2B12548   7.113  41.393   8.522
  635POPC   C3B12549   7.270  41.452   8.138
  635POPC   C4B12550   7.261  41.339   7.726
  636POPC   NC312551  37.346  21.956   9.447
  636POPC   PO412552  36.928  21.353   9.601
  636POPC   GL112553  36.940  21.377   9.179
  636POPC   GL212554  37.247  21.498   9.181
  636POPC   C1A12555  36.949  21.617   8.777
  636POPC   D2A12556  36.742  21.455   8.452
  636POPC   C3A12557  36.929  21.423   8.088
  636POPC   C4A12558  36.712  21.270   7.746
  636POPC   C1B12559  37.215  21.205   8.786
  636POPC   C2B12560  37.142  21.043   8.359
  636POPC   C3B12561  37.120  20.992   7.868
  636POPC   C4B12562  37.251  21.028   7.414
  637POPC   NC312563  37.213  32.806   9.547
  637POPC   PO412564  36.613  33.221   9.515
  637POPC   GL112565  36.895  33.137   9.190
  637POPC   GL212566  36.908  32.786   9.137
  637POPC   C1A12567  37.104  33.075   8.779
  637POPC   D2A12568  36.950  32.922   8.392
  637POPC   C3A12569  37.001  33.277   8.095
  637POPC   C4A12570  37.093  33.388   7.661
  637POPC   C1B12571  36.670  32.611   8.769
  637POPC   C2B12572  36.469  32.617   8.366
  637POPC   C3B12573  36.712  32.608   7.988
  637POPC   C4B12574  36.637  32.502   7.566
  638POPC   NC312575  30.239  21.330   9.581
  638POPC   PO412576  29.685  21.055   9.595
  638POPC   GL112577  29.598  21.317   9.220
  638POPC   GL212578  29.929  21.345   9.122
  638POPC   C1A12579  29.529  21.441   8.762
  638POPC   D2A12580  29.748  21.525   8.338
  638POPC   C3A12581  29.705  21.276   7.932
  638POPC   C4A12582  29.874  21.473   7.532
  638POPC   C1B12583  30.013  21.229   8.686
  638POPC   C2B12584  30.095  21.119   8.238
  638POPC   C3B12585  30.156  21.077   7.786
  638POPC   C4B12586  30.411  21.093   7.400
  639POPC   NC312587  18.930   8.244   9.391
  639POPC   PO412588  19.468   7.758   9.195
  639POPC   GL112589  19.208   8.037   9.026
  639POPC   GL212590  19.175   8.351   8.978
  639POPC   C1A12591  18.914   8.000   8.700
  639POPC   D2A12592  18.948   7.761   8.350
  639POPC   C3A12593  18.930   7.899   7.945
  639POPC   C4A12594  19.174   8.034   7.591
  639POPC   C1B12595  18.999   8.501   8.625
  639POPC   C2B12596  18.999   8.304   8.243
  639POPC   C3B12597  18.995   8.453   7.819
  639POPC   C4B12598  18.633   8.667   7.663
  640POPC   NC312599  19.336  28.983   9.683
  640POPC   PO412600  18.710  29.069   9.442
  640POPC   GL112601  19.018  28.965   9.115
  640POPC   GL212602  19.165  29.296   9.054
  640POPC   C1A12603  19.097  29.020   8.642
  640POPC   D2A12604  18.981  29.285   8.289
  640POPC   C3A12605  18.685  29.013   8.069
  640POPC   C4A12606  18.800  28.743   7.738
  640POPC   C1B12607  19.365  29.466   8.649
  640POPC   C2B12608  19.552  29.276   8.279
  640POPC   C3B12609  19.310  29.035   7.973
  640POPC   C4B12610  18.998  29.220   7.712
  641POPC   NC312611  35.957  14.105   9.569
  641POPC   PO412612  36.280  13.486   9.479
  641POPC   GL112613  36.046  13.701   9.144
  641POPC   GL212614  35.796  13.999   9.109
  641POPC   C1A12615  36.067  13.481   8.757
  641POPC   D2A12616  35.804  13.472   8.392
  641POPC   C3A12617  36.066  13.420   8.036
  641POPC   C4A12618  36.424  13.665   7.907
  641POPC   C1B12619  35.833  13.918   8.684
  641POPC   C2B12620  36.168  13.834   8.390
  641POPC   C3B12621  35.964  13.928   8.054
  641POPC   C4B12622  35.973  13.793   7.664
  642POPC   NC312623  18.748  34.074   9.282
  642POPC   PO412624  18.202  33.622   9.403
  642POPC   GL112625  18.223  33.948   9.097
  642POPC   GL212626  18.497  33.767   8.951
  642POPC   C1A12627  18.040  33.923   8.677
  642POPC   D2A12628  17.949  34.155   8.304
  642POPC   C3A12629  17.979  33.931   7.932
  642POPC   C4A12630  18.254  33.601   7.774
  642POPC   C1B12631  18.538  33.959   8.554
  642POPC   C2B12632  18.444  33.980   8.132
  642POPC   C3B12633  18.684  33.955   7.771
  642POPC   C4B12634  18.755  34.215   7.405
  643POPC   NC312635  43.995  44.431   9.474
  643POPC   PO412636  43.604  44.946   9.541
  643POPC   GL112637  43.857  44.813   9.173
  643POPC   GL212638  44.091   0.061   9.141
  643POPC   C1A12639  43.734  44.511   8.836
  643POPC   D2A12640  43.829  44.578   8.407
  643POPC   C3A12641  43.535  44.619   8.063
  643POPC   C4A12642  43.496  44.481   7.619
  643POPC   C1B12643  44.118  44.922   8.706
  643POPC   C2B12644  44.285  44.855   8.296
  643POPC   C3B12645  44.190  44.572   8.020
  643POPC   C4B12646  43.927  44.700   7.731
  644POPC   NC312647   7.541  31.778   9.267
  644POPC   PO412648   7.408  32.423   9.528
  644POPC   GL112649   7.501  32.432   9.151
  644POPC   GL212650   7.780  32.227   9.164
  644POPC   C1A12651   7.364  32.613   8.790
  644POPC   D2A12652   7.323  32.393   8.404
  644POPC   C3A12653   7.387  32.558   8.033
  644POPC   C4A12654   7.312  32.261   7.751
  644POPC   C1B12655   7.644  32.173   8.736
  644POPC   C2B12656   7.784  32.145   8.322
  644POPC   C3B12657   7.694  31.994   7.894
  644POPC   C4B12658   7.670  32.093   7.410
  645POPC   NC312659  30.916  37.817   9.740
  645POPC   PO412660  30.389  37.949   9.464
  645POPC   GL112661  30.668  37.708   9.207
  645POPC   GL212662  30.946  37.943   9.243
  645POPC   C1A12663  30.795  37.416   8.869
  645POPC   D2A12664  30.823  37.504   8.467
  645POPC   C3A12665  30.707  37.487   8.058
  645POPC   C4A12666  30.667  37.689   7.680
  645POPC   C1B12667  31.018  37.849   8.820
  645POPC   C2B12668  31.179  37.845   8.413
  645POPC   C3B12669  31.060  37.858   7.964
  645POPC   C4B12670  31.089  37.883   7.490
  646POPC   NC312671  28.275  10.324   9.574
  646POPC   PO412672  28.442   9.654   9.463
  646POPC   GL112673  28.327   9.828   9.120
  646POPC   GL212674  28.158   9.495   9.052
  646POPC   C1A12675  28.576   9.988   8.749
  646POPC   D2A12676  28.706   9.709   8.469
  646POPC   C3A12677  28.692   9.851   8.059
  646POPC   C4A12678  28.512   9.834   7.637
  646POPC   C1B12679  28.202   9.667   8.667
  646POPC   C2B12680  28.237   9.752   8.285
  646POPC   C3B12681  28.173   9.572   7.918
  646POPC   C4B12682  27.936   9.257   7.685
  647POPC   NC312683   5.730  23.521   9.547
  647POPC   PO412684   6.276  23.829   9.501
  647POPC   GL112685   6.037  23.695   9.143
  647POPC   GL212686   5.677  23.772   9.108
  647POPC   C1A12687   5.970  23.584   8.708
  647POPC   D2A12688   6.123  23.485   8.321
  647POPC   C3A12689   6.087  23.736   7.967
  647POPC   C4A12690   5.931  24.027   7.626
  647POPC   C1B12691   5.483  23.407   8.853
  647POPC   C2B12692   5.283  23.376   8.450
  647POPC   C3B12693   5.597  23.566   8.175
  647POPC   C4B12694   5.648  23.635   7.740
  648POPC   NC312695   3.825  21.191   9.509
  648POPC   PO412696   3.472  20.700   9.498
  648POPC   GL112697   3.563  20.927   9.144
  648POPC   GL212698   3.280  20.774   8.988
  648POPC   C1A12699   3.679  20.997   8.737
  648POPC   D2A12700   3.545  20.705   8.451
  648POPC   C3A12701   3.697  20.646   8.058
  648POPC   C4A12702   3.603  20.862   7.731
  648POPC   C1B12703   3.355  20.387   8.773
  648POPC   C2B12704   3.236  20.257   8.333
  648POPC   C3B12705   3.250  20.433   7.918
  648POPC   C4B12706   3.368  20.481   7.484
  649POPC   NC312707  22.959  38.651   9.445
  649POPC   PO412708  23.060  37.982   9.549
  649POPC   GL112709  22.907  38.078   9.179
  649POPC   GL212710  23.161  38.303   9.132
  649POPC   C1A12711  22.775  38.162   8.775
  649POPC   D2A12712  22.724  38.397   8.365
  649POPC   C3A12713  22.794  38.185   7.947
  649POPC   C4A12714  22.836  38.291   7.471
  649POPC   C1B12715  23.155  38.501   8.713
  649POPC   C2B12716  23.277  38.524   8.257
  649POPC   C3B12717  23.112  38.562   7.833
  649POPC   C4B12718  23.082  38.744   7.430
  650POPC   NC312719   4.198   7.059   9.465
  650POPC   PO412720   4.186   7.716   9.586
  650POPC   GL112721   4.317   7.502   9.200
  650POPC   GL212722   4.119   7.215   9.005
  650POPC   C1A12723   4.441   7.563   8.787
  650POPC   D2A12724   4.253   7.346   8.470
  650POPC   C3A12725   4.498   7.378   8.152
  650POPC   C4A12726   4.478   7.401   7.743
  650POPC   C1B12727   4.444   6.998   8.792
  650POPC   C2B12728   4.517   6.892   8.361
  650POPC   C3B12729   4.390   6.942   7.916
  650POPC   C4B12730   4.242   6.984   7.488
  651POPC   NC312731  13.061  15.657   9.410
  651POPC   PO412732  12.697  15.176   9.748
  651POPC   GL112733  12.820  15.219   9.287
  651POPC   GL212734  13.106  14.989   9.288
  651POPC   C1A12735  13.093  15.234   8.856
  651POPC   D2A12736  13.162  15.052   8.431
  651POPC   C3A12737  13.108  15.269   8.048
  651POPC   C4A12738  12.787  15.164   7.745
  651POPC   C1B12739  12.771  14.848   8.947
  651POPC   C2B12740  12.750  14.722   8.482
  651POPC   C3B12741  12.920  14.744   8.028
  651POPC   C4B12742  12.891  14.698   7.529
  652POPC   NC312743  30.206   1.833   9.458
  652POPC   PO412744  29.696   2.283   9.643
  652POPC   GL112745  29.782   2.184   9.170
  652POPC   GL212746  30.124   2.037   9.012
  652POPC   C1A12747  29.708   2.134   8.736
  652POPC   D2A12748  30.039   2.051   8.442
  652POPC   C3A12749  29.867   1.981   8.023
  652POPC   C4A12750  29.961   2.103   7.591
  652POPC   C1B12751  30.272   1.588   8.835
  652POPC   C2B12752  30.057   1.524   8.473
  652POPC   C3B12753  30.252   1.697   8.145
  652POPC   C4B12754  30.269   1.682   7.735
  653POPC   NC312755  23.251  41.026   9.439
  653POPC   PO412756  23.233  40.435   9.638
  653POPC   GL112757  23.464  40.594   9.227
  653POPC   GL212758  23.298  40.819   8.975
  653POPC   C1A12759  23.682  40.550   8.798
  653POPC   D2A12760  23.518  40.635   8.366
  653POPC   C3A12761  23.746  40.729   7.971
  653POPC   C4A12762  23.586  40.824   7.575
  653POPC   C1B12763  23.582  41.050   8.710
  653POPC   C2B12764  23.672  41.136   8.276
  653POPC   C3B12765  23.613  41.243   7.839
  653POPC   C4B12766  23.517  41.319   7.388
  654POPC   NC312767  14.579  22.946   9.526
  654POPC   PO412768  14.095  23.294   9.225
  654POPC   GL112769  14.223  22.899   9.127
  654POPC   GL212770  13.947  22.644   9.113
  654POPC   C1A12771  14.575  22.789   8.878
  654POPC   D2A12772  14.533  23.051   8.541
  654POPC   C3A12773  14.577  22.964   8.114
  654POPC   C4A12774  14.349  23.179   7.786
  654POPC   C1B12775  14.114  22.694   8.673
  654POPC   C2B12776  14.064  22.879   8.269
  654POPC   C3B12777  14.178  22.671   7.910
  654POPC   C4B12778  14.575  22.605   7.741
  655POPC   NC312779  18.575  41.707   9.735
  655POPC   PO412780  19.018  41.289   9.429
  655POPC   GL112781  19.214  41.465   9.110
  655POPC   GL212782  19.038  41.795   9.140
  655POPC   C1A12783  19.139  41.564   8.693
  655POPC   D2A12784  19.299  41.705   8.317
  655POPC   C3A12785  19.093  41.519   8.052
  655POPC   C4A12786  19.120  41.287   7.730
  655POPC   C1B12787  18.742  41.896   8.786
  655POPC   C2B12788  18.698  41.658   8.424
  655POPC   C3B12789  18.634  41.774   8.010
  655POPC   C4B12790  18.835  41.685   7.642
  656POPC   NC312791  28.437  24.218   9.376
  656POPC   PO412792  28.271  24.840   9.409
  656POPC   GL112793  28.494  24.604   9.056
  656POPC   GL212794  28.666  24.821   8.834
  656POPC   C1A12795  28.651  24.311   8.710
  656POPC   D2A12796  28.789  24.553   8.394
  656POPC   C3A12797  28.516  24.566   8.054
  656POPC   C4A12798  28.226  24.319   7.843
  656POPC   C1B12799  28.287  24.600   8.559
  656POPC   C2B12800  28.066  24.786   8.210
  656POPC   C3B12801  28.085  24.803   7.782
  656POPC   C4B12802  28.396  24.708   7.509
  657POPC   NC312803  10.493  44.977   9.477
  657POPC   PO412804  10.356  44.306   9.623
  657POPC   GL112805  10.300  44.504   9.189
  657POPC   GL212806  10.236  44.853   9.058
  657POPC   C1A12807  10.590  44.553   8.817
  657POPC   D2A12808  10.677  44.687   8.385
  657POPC   C3A12809  10.431  44.503   8.054
  657POPC   C4A12810  10.316  44.505   7.618
  657POPC   C1B12811  10.493   0.078   8.772
  657POPC   C2B12812  10.543   0.175   8.353
  657POPC   C3B12813  10.590  44.982   7.942
  657POPC   C4B12814  10.939  44.800   7.707
  658POPC   NC312815  19.021   6.623   9.676
  658POPC   PO412816  18.715   7.127   9.364
  658POPC   GL112817  18.858   6.705   9.193
  658POPC   GL212818  19.107   6.427   9.172
  658POPC   C1A12819  18.776   6.523   8.806
  658POPC   D2A12820  18.824   6.856   8.548
  658POPC   C3A12821  18.765   6.838   8.093
  658POPC   C4A12822  18.861   6.580   7.729
  658POPC   C1B12823  19.261   6.648   8.769
  658POPC   C2B12824  19.148   6.525   8.337
  658POPC   C3B12825  19.298   6.707   7.961
  658POPC   C4B12826  19.364   6.593   7.539
  659POPC   NC312827  21.726   9.217   9.282
  659POPC   PO412828  21.120   9.103   9.465
  659POPC   GL112829  21.322   8.893   9.128
  659POPC   GL212830  21.392   9.176   8.898
  659POPC   C1A12831  21.591   8.724   8.803
  659POPC   D2A12832  21.663   8.970   8.418
  659POPC   C3A12833  21.471   8.777   8.055
  659POPC   C4A12834  21.634   8.642   7.645
  659POPC   C1B12835  21.088   8.936   8.683
  659POPC   C2B12836  20.982   8.928   8.289
  659POPC   C3B12837  20.956   9.027   7.884
  659POPC   C4B12838  21.330   9.059   7.645
  660POPC   NC312839  23.565  18.007   9.698
  660POPC   PO412840  23.901  18.541   9.614
  660POPC   GL112841  23.733  18.269   9.250
  660POPC   GL212842  23.608  17.930   9.210
  660POPC   C1A12843  23.691  18.168   8.794
  660POPC   D2A12844  23.563  18.269   8.427
  660POPC   C3A12845  23.534  18.325   8.011
  660POPC   C4A12846  23.747  18.243   7.659
  660POPC   C1B12847  23.514  17.678   8.852
  660POPC   C2B12848  23.377  17.686   8.481
  660POPC   C3B12849  23.337  17.883   8.129
  660POPC   C4B12850  23.319  17.965   7.691
  661POPC   NC312851  16.819  30.481   9.694
  661POPC   PO412852  16.728  29.811   9.549
  661POPC   GL112853  16.679  29.973   9.141
  661POPC   GL212854  16.350  29.919   8.962
  661POPC   C1A12855  16.823  29.915   8.726
  661POPC   D2A12856  16.620  30.016   8.315
  661POPC   C3A12857  16.761  30.045   7.899
  661POPC   C4A12858  16.760  30.247   7.497
  661POPC   C1B12859  16.482  29.548   8.748
  661POPC   C2B12860  16.719  29.507   8.369
  661POPC   C3B12861  16.499  29.581   7.979
  661POPC   C4B12862  16.441  29.754   7.591
  662POPC   NC312863   7.872  22.639   9.494
  662POPC   PO412864   8.315  23.136   9.550
  662POPC   GL112865   8.216  22.907   9.149
  662POPC   GL212866   8.055  22.592   9.034
  662POPC   C1A12867   8.449  22.768   8.758
  662POPC   D2A12868   8.329  22.936   8.359
  662POPC   C3A12869   8.458  22.778   7.950
  662POPC   C4A12870   8.404  22.911   7.512
  662POPC   C1B12871   7.772  22.741   8.794
  662POPC   C2B12872   7.825  22.909   8.429
  662POPC   C3B12873   7.931  22.717   8.061
  662POPC   C4B12874   8.006  22.644   7.643
  663POPC   NC312875  27.097   7.428   9.463
  663POPC   PO412876  26.457   7.730   9.347
  663POPC   GL112877  26.712   7.447   9.119
  663POPC   GL212878  26.938   7.701   9.076
  663POPC   C1A12879  26.833   7.312   8.705
  663POPC   D2A12880  26.578   7.361   8.339
  663POPC   C3A12881  26.679   7.261   7.921
  663POPC   C4A12882  27.042   7.117   7.743
  663POPC   C1B12883  26.933   7.972   8.779
  663POPC   C2B12884  26.734   7.843   8.423
  663POPC   C3B12885  26.745   7.752   7.975
  663POPC   C4B12886  26.954   7.719   7.550
  664POPC   NC312887   7.963  33.415   9.580
  664POPC   PO412888   8.458  33.757   9.546
  664POPC   GL112889   8.205  33.686   9.183
  664POPC   GL212890   8.022  33.975   9.064
  664POPC   C1A12891   8.275  33.633   8.733
  664POPC   D2A12892   8.057  33.522   8.328
  664POPC   C3A12893   8.228  33.526   7.931
  664POPC   C4A12894   8.096  33.473   7.506
  664POPC   C1B12895   8.233  34.145   8.715
  664POPC   C2B12896   8.483  34.116   8.362
  664POPC   C3B12897   8.214  34.026   8.035
  664POPC   C4B12898   7.896  34.285   7.806
  665POPC   NC312899  29.582  15.548   9.256
  665POPC   PO412900  30.252  15.680   9.427
  665POPC   GL112901  29.999  15.821   9.100
  665POPC   GL212902  29.714  16.050   9.239
  665POPC   C1A12903  30.011  15.798   8.645
  665POPC   D2A12904  30.055  16.018   8.248
  665POPC   C3A12905  30.017  15.844   7.830
  665POPC   C4A12906  30.165  15.984   7.429
  665POPC   C1B12907  29.561  16.025   8.813
  665POPC   C2B12908  29.559  15.909   8.376
  665POPC   C3B12909  29.620  16.103   7.977
  665POPC   C4B12910  29.698  16.186   7.531
  666POPC   NC312911  44.338  28.468   9.688
  666POPC   PO412912  43.640  28.311   9.473
  666POPC   GL112913  43.697  28.561   9.111
  666POPC   GL212914  44.042  28.616   9.007
  666POPC   C1A12915  43.625  28.407   8.699
  666POPC   D2A12916  43.519  28.035   8.457
  666POPC   C3A12917  43.588  28.166   8.035
  666POPC   C4A12918  43.536  27.976   7.633
  666POPC   C1B12919  44.174  28.363   8.654
  666POPC   C2B12920  44.040  28.123   8.317
  666POPC   C3B12921  44.130  28.411   7.994
  666POPC   C4B12922  43.925  28.663   7.699
  667POPC   NC312923  35.358   4.581   9.501
  667POPC   PO412924  35.311   3.887   9.635
  667POPC   GL112925  35.434   4.048   9.203
  667POPC   GL212926  35.397   4.388   9.042
  667POPC   C1A12927  35.464   4.004   8.746
  667POPC   D2A12928  35.401   4.336   8.430
  667POPC   C3A12929  35.649   4.319   8.083
  667POPC   C4A12930  35.443   4.141   7.712
  667POPC   C1B12931  35.108   4.586   8.770
  667POPC   C2B12932  35.109   4.754   8.338
  667POPC   C3B12933  35.221   4.593   7.936
  667POPC   C4B12934  34.990   4.397   7.587
  668POPC   NC312935  29.000  44.400   9.370
  668POPC   PO412936  29.438  44.898   9.513
  668POPC   GL112937  29.205  44.885   9.117
  668POPC   GL212938  28.883  44.735   8.966
  668POPC   C1A12939  29.197   0.003   8.690
  668POPC   D2A12940  28.860  44.933   8.442
  668POPC   C3A12941  28.955  44.782   8.045
  668POPC   C4A12942  29.268  44.898   7.766
  668POPC   C1B12943  29.164  44.479   8.709
  668POPC   C2B12944  29.182  44.260   8.330
  668POPC   C3B12945  29.321  44.417   7.966
  668POPC   C4B12946  29.223  44.334   7.567
  669POPC   NC312947  44.789  19.325   9.293
  669POPC   PO412948  44.473  18.828   9.654
  669POPC   GL112949  44.506  18.809   9.179
  669POPC   GL212950  44.868  18.826   9.080
  669POPC   C1A12951  44.521  18.977   8.733
  669POPC   D2A12952  44.681  18.980   8.277
  669POPC   C3A12953  44.383  19.135   7.936
  669POPC   C4A12954  44.245  19.566   7.855
  669POPC   C1B12955   0.008  19.149   8.723
  669POPC   C2B12956   0.236  19.088   8.347
  669POPC   C3B12957   0.097  18.768   8.048
  669POPC   C4B12958  44.923  19.043   7.759
  670POPC   NC312959  15.024   2.048   9.387
  670POPC   PO412960  15.592   1.788   9.559
  670POPC   GL112961  15.399   1.796   9.129
  670POPC   GL212962  15.241   2.120   8.952
  670POPC   C1A12963  15.235   1.679   8.737
  670POPC   D2A12964  15.052   1.991   8.445
  670POPC   C3A12965  15.277   1.987   8.062
  670POPC   C4A12966  15.092   1.748   7.759
  670POPC   C1B12967  15.484   2.278   8.642
  670POPC   C2B12968  15.298   2.545   8.389
  670POPC   C3B12969  15.011   2.414   8.109
  670POPC   C4B12970  14.878   2.240   7.735
  671POPC   NC312971  42.032  33.379   9.484
  671POPC   PO412972  42.472  32.952   9.738
  671POPC   GL112973  42.411  32.907   9.198
  671POPC   GL212974  42.072  32.853   9.133
  671POPC   C1A12975  42.298  33.134   8.771
  671POPC   D2A12976  42.488  33.181   8.360
  671POPC   C3A12977  42.239  33.201   7.994
  671POPC   C4A12978  42.231  33.119   7.575
  671POPC   C1B12979  42.120  32.632   8.734
  671POPC   C2B12980  42.369  32.606   8.358
  671POPC   C3B12981  42.265  32.700   7.926
  671POPC   C4B12982  42.422  32.648   7.497
  672POPC   NC312983  12.262  15.110   9.520
  672POPC   PO412984  11.778  15.521   9.556
  672POPC   GL112985  11.953  15.403   9.177
  672POPC   GL212986  12.302  15.403   9.103
  672POPC   C1A12987  11.861  15.448   8.757
  672POPC   D2A12988  12.136  15.422   8.417
  672POPC   C3A12989  11.864  15.436   8.067
  672POPC   C4A12990  11.812  15.298   7.664
  672POPC   C1B12991  12.593  15.325   8.756
  672POPC   C2B12992  12.665  15.296   8.312
  672POPC   C3B12993  12.377  15.384   7.965
  672POPC   C4B12994  12.287  15.221   7.563
  673POPC   NC312995  17.257  19.515   9.455
  673POPC   PO412996  17.253  20.111   9.377
  673POPC   GL112997  17.468  20.107   9.054
  673POPC   GL212998  17.572  19.754   9.120
  673POPC   C1A12999  17.378  19.983   8.678
  673POPC   D2A13000  17.523  19.756   8.381
  673POPC   C3A13001  17.346  19.936   8.069
  673POPC   C4A13002  17.520  20.151   7.758
  673POPC   C1B13003  17.391  19.486   8.793
  673POPC   C2B13004  17.117  19.447   8.420
  673POPC   C3B13005  17.260  19.429   8.012
  673POPC   C4B13006  17.428  19.637   7.656
  674POPC   NC313007   0.258  29.529   9.402
  674POPC   PO413008   0.122  28.863   9.534
  674POPC   GL113009   0.302  28.947   9.153
  674POPC   GL213010   0.584  29.171   9.205
  674POPC   C1A13011   0.538  28.887   8.781
  674POPC   D2A13012   0.714  29.014   8.389
  674POPC   C3A13013   0.662  28.871   7.953
  674POPC   C4A13014   0.586  29.060   7.556
  674POPC   C1B13015   0.470  29.394   8.797
  674POPC   C2B13016   0.403  29.476   8.362
  674POPC   C3B13017   0.378  29.325   7.963
  674POPC   C4B13018   0.190  29.402   7.527
  675POPC   NC313019  11.798  29.603   9.474
  675POPC   PO413020  12.361  29.973   9.513
  675POPC   GL113021  12.195  30.138   9.166
  675POPC   GL213022  11.859  30.143   9.338
  675POPC   C1A13023  12.210  30.000   8.713
  675POPC   D2A13024  12.449  29.925   8.343
  675POPC   C3A13025  12.250  29.866   7.951
  675POPC   C4A13026  12.452  29.976   7.598
  675POPC   C1B13027  11.761  30.094   8.934
  675POPC   C2B13028  11.720  30.001   8.511
  675POPC   C3B13029  11.933  30.194   8.178
  675POPC   C4B13030  11.815  30.131   7.758
  676POPC   NC313031   8.983   1.798   9.403
  676POPC   PO413032   8.713   2.395   9.351
  676POPC   GL113033   9.060   2.214   9.063
  676POPC   GL213034   9.054   1.840   8.907
  676POPC   C1A13035   9.173   2.235   8.631
  676POPC   D2A13036   9.084   1.914   8.387
  676POPC   C3A13037   8.920   2.144   8.098
  676POPC   C4A13038   8.978   2.184   7.699
  676POPC   C1B13039   8.718   1.655   8.687
  676POPC   C2B13040   8.632   1.737   8.266
  676POPC   C3B13041   8.929   1.673   7.908
  676POPC   C4B13042   9.060   1.695   7.472
  677POPC   NC313043  41.004   4.849   9.456
  677POPC   PO413044  40.382   5.037   9.317
  677POPC   GL113045  40.615   4.901   8.998
  677POPC   GL213046  40.893   5.137   9.033
  677POPC   C1A13047  40.663   4.974   8.541
  677POPC   D2A13048  40.905   5.246   8.250
  677POPC   C3A13049  40.691   5.213   7.851
  677POPC   C4A13050  40.417   4.861   7.900
  677POPC   C1B13051  41.075   4.816   8.792
  677POPC   C2B13052  41.136   4.769   8.391
  677POPC   C3B13053  40.974   4.798   7.987
  677POPC   C4B13054  41.183   5.140   7.775
  678POPC   NC313055  34.519  38.924   9.755
  678POPC   PO413056  34.393  39.463   9.380
  678POPC   GL113057  34.619  39.237   9.099
  678POPC   GL213058  34.547  38.878   9.036
  678POPC   C1A13059  34.502  39.271   8.681
  678POPC   D2A13060  34.379  39.131   8.278
  678POPC   C3A13061  34.702  39.249   7.973
  678POPC   C4A13062  34.679  39.433   7.561
  678POPC   C1B13063  34.236  38.792   8.668
  678POPC   C2B13064  34.130  38.668   8.208
  678POPC   C3B13065  34.472  38.703   7.894
  678POPC   C4B13066  34.668  38.898   7.515
  679POPC   NC313067  14.200  41.066   9.640
  679POPC   PO413068  14.141  40.548   9.441
  679POPC   GL113069  14.239  40.883   9.100
  679POPC   GL213070  14.435  41.190   9.176
  679POPC   C1A13071  14.391  40.876   8.649
  679POPC   D2A13072  14.271  40.818   8.197
  679POPC   C3A13073  14.538  40.593   7.935
  679POPC   C4A13074  14.752  40.721   7.537
  679POPC   C1B13075  14.697  41.253   8.787
  679POPC   C2B13076  14.801  41.036   8.353
  679POPC   C3B13077  14.660  41.107   7.909
  679POPC   C4B13078  14.632  41.223   7.463
  680POPC   NC313079  28.573   8.734   9.500
  680POPC   PO413080  27.918   8.695   9.404
  680POPC   GL113081  28.245   8.949   9.160
  680POPC   GL213082  28.500   9.181   9.242
  680POPC   C1A13083  28.483   8.859   8.789
  680POPC   D2A13084  28.331   8.729   8.395
  680POPC   C3A13085  28.423   8.576   7.992
  680POPC   C4A13086  28.596   8.799   7.659
  680POPC   C1B13087  28.608   9.356   8.834
  680POPC   C2B13088  28.423   9.260   8.423
  680POPC   C3B13089  28.347   9.098   8.019
  680POPC   C4B13090  28.503   9.298   7.654
  681POPC   NC313091  28.062  44.709   9.526
  681POPC   PO413092  28.727  44.758   9.442
  681POPC   GL113093  28.426  44.611   9.168
  681POPC   GL213094  28.509  44.277   9.194
  681POPC   C1A13095  28.401  44.690   8.738
  681POPC   D2A13096  28.172  44.660   8.353
  681POPC   C3A13097  28.424  44.755   8.011
  681POPC   C4A13098  28.117  44.673   7.704
  681POPC   C1B13099  28.699  44.276   8.799
  681POPC   C2B13100  28.710  44.463   8.389
  681POPC   C3B13101  28.781  44.305   7.987
  681POPC   C4B13102  28.513  44.360   7.700
  682POPC   NC313103   5.930  44.283   9.559
  682POPC   PO413104   6.012  43.604   9.663
  682POPC   GL113105   5.866  43.756   9.268
  682POPC   GL213106   5.879  44.099   9.109
  682POPC   C1A13107   5.963  43.691   8.837
  682POPC   D2A13108   6.002  43.929   8.473
  682POPC   C3A13109   6.089  43.734   8.099
  682POPC   C4A13110   5.988  43.542   7.756
  682POPC   C1B13111   5.787  44.312   8.739
  682POPC   C2B13112   5.559  44.154   8.391
  682POPC   C3B13113   5.686  44.031   7.966
  682POPC   C4B13114   5.612  44.036   7.518
  683POPC   NC313115  11.664  14.449   9.299
  683POPC   PO413116  12.296  14.659   9.432
  683POPC   GL113117  12.078  14.660   9.093
  683POPC   GL213118  11.879  14.910   9.150
  683POPC   C1A13119  11.950  14.570   8.685
  683POPC   D2A13120  12.255  14.371   8.443
  683POPC   C3A13121  12.193  14.451   8.037
  683POPC   C4A13122  12.297  14.170   7.743
  683POPC   C1B13123  12.162  15.031   8.770
  683POPC   C2B13124  12.297  14.924   8.337
  683POPC   C3B13125  12.078  14.943   7.939
  683POPC   C4B13126  11.803  14.623   7.752
  684POPC   NC313127  44.651  35.088   9.771
  684POPC   PO413128   0.202  35.490   9.692
  684POPC   GL113129  44.871  35.481   9.343
  684POPC   GL213130  44.733  35.139   9.261
  684POPC   C1A13131  44.758  35.503   8.874
  684POPC   D2A13132  44.597  35.699   8.471
  684POPC   C3A13133  44.672  35.475   8.062
  684POPC   C4A13134  44.387  35.506   7.705
  684POPC   C1B13135  44.828  34.973   8.861
  684POPC   C2B13136  44.709  35.120   8.451
  684POPC   C3B13137  44.681  34.961   8.041
  684POPC   C4B13138  44.641  35.061   7.632
  685POPC   NC313139  36.752  35.283   9.369
  685POPC   PO413140  37.418  35.584   9.494
  685POPC   GL113141  37.120  35.632   9.186
  685POPC   GL213142  37.214  35.302   9.084
  685POPC   C1A13143  36.900  35.548   8.776
  685POPC   D2A13144  37.016  35.697   8.395
  685POPC   C3A13145  36.921  35.420   8.062
  685POPC   C4A13146  36.693  35.236   7.708
  685POPC   C1B13147  37.134  35.081   8.698
  685POPC   C2B13148  37.225  34.831   8.332
  685POPC   C3B13149  37.079  34.957   7.939
  685POPC   C4B13150  37.094  34.950   7.498
  686POPC   NC313151  41.445  23.829   9.715
  686POPC   PO413152  41.781  23.328   9.402
  686POPC   GL113153  41.538  23.656   9.238
  686POPC   GL213154  41.711  23.974   9.174
  686POPC   C1A13155  41.359  23.761   8.845
  686POPC   D2A13156  41.350  23.554   8.455
  686POPC   C3A13157  41.433  23.877   8.141
  686POPC   C4A13158  41.307  23.679   7.784
  686POPC   C1B13159  41.907  23.703   8.857
  686POPC   C2B13160  41.851  23.651   8.439
  686POPC   C3B13161  41.733  23.466   8.071
  686POPC   C4B13162  41.810  23.747   7.771
  687POPC   NC313163  14.171  42.181   9.929
  687POPC   PO413164  14.280  41.529   9.580
  687POPC   GL113165  14.447  41.699   9.192
  687POPC   GL213166  14.167  41.710   9.005
  687POPC   C1A13167  14.621  41.772   8.758
  687POPC   D2A13168  14.436  41.810   8.335
  687POPC   C3A13169  14.515  41.635   7.908
  687POPC   C4A13170  14.524  41.736   7.436
  687POPC   C1B13171  14.200  41.373   8.742
  687POPC   C2B13172  14.378  41.307   8.349
  687POPC   C3B13173  14.171  41.262   7.977
  687POPC   C4B13174  14.176  41.398   7.592
  688POPC   NC313175  36.884  34.307   9.394
  688POPC   PO413176  37.082  34.916   9.398
  688POPC   GL113177  37.210  34.742   9.055
  688POPC   GL213178  37.304  34.434   9.119
  688POPC   C1A13179  36.923  34.589   8.761
  688POPC   D2A13180  36.597  34.491   8.522
  688POPC   C3A13181  36.753  34.656   8.181
  688POPC   C4A13182  36.671  34.713   7.750
  688POPC   C1B13183  37.327  34.295   8.709
  688POPC   C2B13184  37.109  34.308   8.296
  688POPC   C3B13185  37.081  34.422   7.850
  688POPC   C4B13186  37.234  34.349   7.409
  689POPC   NC313187  40.698  40.942   9.462
  689POPC   PO413188  40.898  40.272   9.472
  689POPC   GL113189  40.882  40.561   9.133
  689POPC   GL213190  40.583  40.751   9.014
  689POPC   C1A13191  40.958  40.591   8.702
  689POPC   D2A13192  40.862  40.833   8.325
  689POPC   C3A13193  40.926  40.614   7.943
  689POPC   C4A13194  41.109  40.533   7.522
  689POPC   C1B13195  40.807  41.120   8.779
  689POPC   C2B13196  40.754  41.334   8.364
  689POPC   C3B13197  40.662  41.197   7.934
  689POPC   C4B13198  40.794  40.953   7.572
  690POPC   NC313199   3.288  43.747   9.515
  690POPC   PO413200   3.848  44.191   9.589
  690POPC   GL113201   3.627  44.080   9.206
  690POPC   GL213202   3.670  43.733   9.132
  690POPC   C1A13203   3.523  44.060   8.744
  690POPC   D2A13204   3.487  43.810   8.333
  690POPC   C3A13205   3.286  43.991   7.929
  690POPC   C4A13206   3.299  43.951   7.459
  690POPC   C1B13207   3.406  43.555   8.810
  690POPC   C2B13208   3.379  43.308   8.452
  690POPC   C3B13209   3.195  43.455   8.069
  690POPC   C4B13210   3.492  43.569   7.733
  691POPC   NC313211  27.641   8.421   9.652
  691POPC   PO413212  27.230   7.900   9.435
  691POPC   GL113213  27.348   8.107   9.072
  691POPC   GL213214  27.559   8.404   9.109
  691POPC   C1A13215  27.597   7.974   8.720
  691POPC   D2A13216  27.711   8.115   8.312
  691POPC   C3A13217  27.651   7.898   7.907
  691POPC   C4A13218  27.440   7.893   7.520
  691POPC   C1B13219  27.484   8.474   8.648
  691POPC   C2B13220  27.358   8.549   8.215
  691POPC   C3B13221  27.567   8.395   7.868
  691POPC   C4B13222  27.488   8.412   7.459
  692POPC   NC313223  18.741  26.704   9.467
  692POPC   PO413224  19.313  26.906   9.547
  692POPC   GL113225  19.153  26.812   9.150
  692POPC   GL213226  18.858  26.995   9.043
  692POPC   C1A13227  19.275  27.019   8.769
  692POPC   D2A13228  19.031  27.105   8.414
  692POPC   C3A13229  19.204  27.020   8.050
  692POPC   C4A13230  19.059  26.866   7.667
  692POPC   C1B13231  18.930  26.653   8.696
  692POPC   C2B13232  18.922  26.594   8.233
  692POPC   C3B13233  18.616  26.727   7.912
  692POPC   C4B13234  18.586  26.882   7.458
  693POPC   NC313235  29.727   6.194   9.374
  693POPC   PO413236  30.101   5.548   9.554
  693POPC   GL113237  30.085   5.670   9.144
  693POPC   GL213238  29.796   5.542   9.004
  693POPC   C1A13239  30.062   5.945   8.798
  693POPC   D2A13240  29.981   5.746   8.418
  693POPC   C3A13241  30.117   5.976   8.044
  693POPC   C4A13242  30.110   5.810   7.639
  693POPC   C1B13243  29.555   5.888   8.753
  693POPC   C2B13244  29.685   6.152   8.452
  693POPC   C3B13245  29.607   5.934   8.076
  693POPC   C4B13246  29.616   6.147   7.714
  694POPC   NC313247   0.712  44.586   9.449
  694POPC   PO413248   0.072  44.875   9.613
  694POPC   GL113249   0.085  44.685   9.184
  694POPC   GL213250   0.414  44.674   9.076
  694POPC   C1A13251   0.116  44.569   8.703
  694POPC   D2A13252   0.388  44.632   8.334
  694POPC   C3A13253   0.202  44.717   7.934
  694POPC   C4A13254   0.375  44.787   7.521
  694POPC   C1B13255   0.703  44.538   8.742
  694POPC   C2B13256   0.810  44.358   8.288
  694POPC   C3B13257   0.677  44.513   7.837
  694POPC   C4B13258   0.821  44.535   7.381
  695POPC   NC313259  42.348  41.188   9.503
  695POPC   PO413260  41.776  40.921   9.505
  695POPC   GL113261  42.153  40.896   9.143
  695POPC   GL213262  42.563  40.844   9.169
  695POPC   C1A13263  42.320  40.846   8.723
  695POPC   D2A13264  42.278  40.589   8.385
  695POPC   C3A13265  42.302  40.868   8.043
  695POPC   C4A13266  42.447  41.055   7.672
  695POPC   C1B13267  42.822  40.789   8.758
  695POPC   C2B13268  42.775  40.723   8.332
  695POPC   C3B13269  42.620  40.469   8.018
  695POPC   C4B13270  42.277  40.416   7.754
  696POPC   NC313271  31.369  12.824   9.401
  696POPC   PO413272  32.068  12.680   9.382
  696POPC   GL113273  31.774  12.806   9.083
  696POPC   GL213274  31.642  13.146   9.098
  696POPC   C1A13275  31.634  12.875   8.674
  696POPC   D2A13276  31.810  12.788   8.307
  696POPC   C3A13277  31.505  12.750   8.017
  696POPC   C4A13278  31.518  12.673   7.619
  696POPC   C1B13279  31.255  13.202   8.833
  696POPC   C2B13280  31.323  13.209   8.417
  696POPC   C3B13281  31.661  13.246   8.138
  696POPC   C4B13282  31.577  13.186   7.713
  697POPC   NC313283  16.919  24.733   9.478
  697POPC   PO413284  16.946  24.079   9.653
  697POPC   GL113285  17.013  24.232   9.253
  697POPC   GL213286  16.704  24.355   9.210
  697POPC   C1A13287  17.020  24.417   8.818
  697POPC   D2A13288  17.218  24.362   8.435
  697POPC   C3A13289  16.967  24.475   8.104
  697POPC   C4A13290  16.841  24.491   7.687
  697POPC   C1B13291  16.551  24.628   8.875
  697POPC   C2B13292  16.637  24.661   8.447
  697POPC   C3B13293  16.481  24.858   8.085
  697POPC   C4B13294  16.360  24.758   7.690
  698POPC   NC313295  40.967  22.611   9.405
  698POPC   PO413296  40.756  21.983   9.516
  698POPC   GL113297  40.784  22.181   9.146
  698POPC   GL213298  41.148  22.073   9.176
  698POPC   C1A13299  40.658  22.034   8.718
  698POPC   D2A13300  40.491  21.923   8.300
  698POPC   C3A13301  40.743  22.139   8.004
  698POPC   C4A13302  40.617  22.365   7.630
  698POPC   C1B13303  41.115  22.271   8.789
  698POPC   C2B13304  40.997  22.446   8.414
  698POPC   C3B13305  41.191  22.459   8.052
  698POPC   C4B13306  41.121  22.263   7.678
  699POPC   NC313307  21.024  32.782   9.337
  699POPC   PO413308  21.612  33.024   9.512
  699POPC   GL113309  21.542  33.263   9.098
  699POPC   GL213310  21.246  33.132   9.033
  699POPC   C1A13311  21.485  33.174   8.593
  699POPC   D2A13312  21.444  32.767   8.317
  699POPC   C3A13313  21.346  32.864   7.917
  699POPC   C4A13314  21.474  33.296   7.891
  699POPC   C1B13315  21.126  32.795   8.710
  699POPC   C2B13316  20.928  32.829   8.303
  699POPC   C3B13317  20.961  33.173   8.013
  699POPC   C4B13318  21.075  33.160   7.570
  700POPC   NC313319  37.106  18.385   9.299
  700POPC   PO413320  36.663  18.555   9.702
  700POPC   GL113321  36.759  18.091   9.159
  700POPC   GL213322  37.186  18.013   8.966
  700POPC   C1A13323  36.859  18.150   8.645
  700POPC   D2A13324  37.044  18.413   8.300
  700POPC   C3A13325  36.956  18.328   7.860
  700POPC   C4A13326  36.569  18.432   7.648
  700POPC   C1B13327  37.389  18.153   8.592
  700POPC   C2B13328  37.442  18.143   8.136
  700POPC   C3B13329  37.495  17.931   7.779
  700POPC   C4B13330  37.252  18.043   7.422
  701POPC   NC313331   9.962   4.890   9.823
  701POPC   PO413332   9.296   5.113   9.630
  701POPC   GL113333   9.497   5.061   9.202
  701POPC   GL213334   9.839   4.885   9.150
  701POPC   C1A13335   9.574   4.980   8.727
  701POPC   D2A13336   9.430   5.142   8.354
  701POPC   C3A13337   9.599   5.159   7.925
  701POPC   C4A13338   9.417   5.367   7.554
  701POPC   C1B13339  10.072   4.913   8.721
  701POPC   C2B13340   9.946   4.966   8.267
  701POPC   C3B13341  10.118   4.986   7.812
  701POPC   C4B13342  10.199   5.068   7.342
  702POPC   NC313343  37.146  40.881   9.393
  702POPC   PO413344  36.498  40.622   9.446
  702POPC   GL113345  36.517  40.626   9.065
  702POPC   GL213346  36.891  40.618   9.010
  702POPC   C1A13347  36.500  40.561   8.680
  702POPC   D2A13348  36.773  40.666   8.389
  702POPC   C3A13349  36.523  40.632   8.054
  702POPC   C4A13350  36.721  40.773   7.695
  702POPC   C1B13351  37.171  40.466   8.646
  702POPC   C2B13352  37.289  40.381   8.241
  702POPC   C3B13353  37.178  40.600   7.872
  702POPC   C4B13354  37.274  40.703   7.454
  703POPC   NC313355  16.752   1.632   9.428
  703POPC   PO413356  16.464   2.235   9.398
  703POPC   GL113357  16.483   1.938   9.098
  703POPC   GL213358  16.854   1.979   9.060
  703POPC   C1A13359  16.562   1.795   8.689
  703POPC   D2A13360  16.670   2.012   8.310
  703POPC   C3A13361  16.650   1.762   7.961
  703POPC   C4A13362  17.012   1.796   7.737
  703POPC   C1B13363  17.079   1.931   8.659
  703POPC   C2B13364  17.233   2.233   8.342
  703POPC   C3B13365  16.992   2.321   7.977
  703POPC   C4B13366  16.607   2.225   7.758
  704POPC   NC313367   3.719  44.606   9.794
  704POPC   PO413368   3.270  44.502   9.284
  704POPC   GL113369   3.375  44.790   8.972
  704POPC   GL213370   3.756  44.916   8.901
  704POPC   C1A13371   3.435  44.652   8.579
  704POPC   D2A13372   3.382  44.319   8.320
  704POPC   C3A13373   3.632  44.363   7.959
  704POPC   C4A13374   3.319  44.511   7.719
  704POPC   C1B13375   3.517   0.160   8.663
  704POPC   C2B13376   3.268   0.086   8.346
  704POPC   C3B13377   3.478  44.836   8.096
  704POPC   C4B13378   3.570  44.993   7.732
  705POPC   NC313379  28.315  17.671   9.548
  705POPC   PO413380  27.937  17.178   9.669
  705POPC   GL113381  28.155  17.341   9.217
  705POPC   GL213382  28.263  17.742   9.066
  705POPC   C1A13383  28.450  17.314   8.860
  705POPC   D2A13384  28.732  17.495   8.536
  705POPC   C3A13385  28.664  17.280   8.159
  705POPC   C4A13386  28.327  17.279   7.823
  705POPC   C1B13387  28.081  17.642   8.702
  705POPC   C2B13388  28.217  17.394   8.388
  705POPC   C3B13389  28.331  17.681   8.107
  705POPC   C4B13390  28.110  17.781   7.752
  706POPC   NC313391  35.841   3.987   9.513
  706POPC   PO413392  36.229   3.496   9.570
  706POPC   GL113393  36.345   3.516   9.144
  706POPC   GL213394  36.012   3.637   9.060
  706POPC   C1A13395  36.305   3.317   8.733
  706POPC   D2A13396  36.167   3.521   8.318
  706POPC   C3A13397  36.201   3.369   7.872
  706POPC   C4A13398  35.926   3.325   7.479
  706POPC   C1B13399  36.276   3.831   8.734
  706POPC   C2B13400  36.269   4.047   8.354
  706POPC   C3B13401  36.145   3.927   7.975
  706POPC   C4B13402  36.380   3.819   7.636
  707POPC   NC313403   5.969  12.505   9.558
  707POPC   PO413404   6.184  13.075   9.294
  707POPC   GL113405   5.811  12.827   9.166
  707POPC   GL213406   5.996  12.610   8.979
  707POPC   C1A13407   5.483  12.706   8.839
  707POPC   D2A13408   5.365  12.532   8.417
  707POPC   C3A13409   5.543  12.682   8.016
  707POPC   C4A13410   5.708  12.487   7.647
  707POPC   C1B13411   5.873  12.997   8.683
  707POPC   C2B13412   5.767  13.108   8.247
  707POPC   C3B13413   5.968  13.182   7.830
  707POPC   C4B13414   5.994  12.912   7.454
  708POPC   NC313415  24.471  16.892   9.700
  708POPC   PO413416  24.594  16.289   9.480
  708POPC   GL113417  24.372  16.600   9.270
  708POPC   GL213418  24.141  16.430   9.072
  708POPC   C1A13419  24.463  16.909   8.958
  708POPC   D2A13420  24.641  16.863   8.563
  708POPC   C3A13421  24.440  16.930   8.185
  708POPC   C4A13422  24.465  16.704   7.813
  708POPC   C1B13423  24.479  16.418   8.762
  708POPC   C2B13424  24.439  16.420   8.298
  708POPC   C3B13425  24.617  16.237   7.907
  708POPC   C4B13426  24.516  16.368   7.428
  709POPC   NC313427  35.544  14.642   9.612
  709POPC   PO413428  36.258  14.441   9.676
  709POPC   GL113429  36.334  14.272   9.256
  709POPC   GL213430  36.057  14.457   9.078
  709POPC   C1A13431  36.331  14.049   8.864
  709POPC   D2A13432  36.165  14.307   8.563
  709POPC   C3A13433  36.299  14.326   8.164
  709POPC   C4A13434  36.173  14.277   7.758
  709POPC   C1B13435  36.009  14.758   8.707
  709POPC   C2B13436  36.254  14.830   8.309
  709POPC   C3B13437  36.147  14.769   7.849
  709POPC   C4B13438  35.862  14.713   7.491
  710POPC   NC313439   2.451  17.327   9.450
  710POPC   PO413440   1.896  17.784   9.453
  710POPC   GL113441   1.844  17.366   9.206
  710POPC   GL213442   2.112  17.090   9.134
  710POPC   C1A13443   1.922  17.408   8.765
  710POPC   D2A13444   1.836  17.781   8.549
  710POPC   C3A13445   1.796  17.713   8.106
  710POPC   C4A13446   2.098  17.811   7.788
  710POPC   C1B13447   2.387  17.222   8.757
  710POPC   C2B13448   2.292  17.482   8.339
  710POPC   C3B13449   2.098  17.327   7.924
  710POPC   C4B13450   2.231  17.153   7.527
  711POPC   NC313451  18.933  37.773   9.510
  711POPC   PO413452  19.342  37.210   9.483
  711POPC   GL113453  19.191  37.494   9.169
  711POPC   GL213454  18.796  37.529   9.103
  711POPC   C1A13455  19.270  37.691   8.805
  711POPC   D2A13456  19.043  37.909   8.525
  711POPC   C3A13457  19.136  37.903   8.096
  711POPC   C4A13458  18.999  37.715   7.737
  711POPC   C1B13459  18.678  37.924   8.893
  711POPC   C2B13460  18.553  38.057   8.467
  711POPC   C3B13461  18.629  38.074   8.016
  711POPC   C4B13462  18.590  37.989   7.574
  712POPC   NC313463  34.926  30.875   9.513
  712POPC   PO413464  34.437  30.414   9.466
  712POPC   GL113465  34.570  30.733   9.176
  712POPC   GL213466  34.347  30.601   8.976
  712POPC   C1A13467  34.801  30.804   8.779
  712POPC   D2A13468  34.934  30.905   8.333
  712POPC   C3A13469  34.731  30.711   7.959
  712POPC   C4A13470  34.522  30.423   7.668
  712POPC   C1B13471  34.326  30.990   8.758
  712POPC   C2B13472  34.430  30.837   8.363
  712POPC   C3B13473  34.210  30.695   7.999
  712POPC   C4B13474  34.181  31.049   7.762
  713POPC   NC313475  22.448  36.716   9.489
  713POPC   PO413476  21.802  37.016   9.619
  713POPC   GL113477  21.822  36.799   9.201
  713POPC   GL213478  22.136  36.653   9.101
  713POPC   C1A13479  21.734  36.885   8.760
  713POPC   D2A13480  21.513  37.120   8.425
  713POPC   C3A13481  21.756  37.267   8.029
  713POPC   C4A13482  21.869  37.045   7.641
  713POPC   C1B13483  22.251  36.874   8.745
  713POPC   C2B13484  22.331  36.678   8.351
  713POPC   C3B13485  22.181  36.788   7.963
  713POPC   C4B13486  22.379  37.047   7.629
  714POPC   NC313487   9.635  37.178   9.654
  714POPC   PO413488   9.505  36.488   9.619
  714POPC   GL113489   9.547  36.790   9.285
  714POPC   GL213490   9.846  36.869   9.226
  714POPC   C1A13491   9.607  36.890   8.798
  714POPC   D2A13492   9.648  37.202   8.466
  714POPC   C3A13493   9.693  37.027   8.048
  714POPC   C4A13494   9.744  36.818   7.651
  714POPC   C1B13495  10.000  36.566   8.835
  714POPC   C2B13496   9.864  36.490   8.414
  714POPC   C3B13497   9.931  36.452   7.986
  714POPC   C4B13498  10.008  36.398   7.543
  715POPC   NC313499   0.096  31.034   9.472
  715POPC   PO413500   0.577  30.639   9.545
  715POPC   GL113501   0.440  30.805   9.157
  715POPC   GL213502   0.115  30.641   9.126
  715POPC   C1A13503   0.639  30.979   8.769
  715POPC   D2A13504   0.847  30.826   8.418
  715POPC   C3A13505   0.715  30.966   8.025
  715POPC   C4A13506   0.735  30.711   7.668
  715POPC   C1B13507   0.138  30.875   8.742
  715POPC   C2B13508   0.317  30.755   8.344
  715POPC   C3B13509   0.260  30.745   7.907
  715POPC   C4B13510  44.964  30.937   7.653
  716POPC   NC313511   2.419  21.701   9.602
  716POPC   PO413512   1.774  21.396   9.635
  716POPC   GL113513   1.871  21.334   9.199
  716POPC   GL213514   1.800  21.668   9.116
  716POPC   C1A13515   2.182  21.391   8.862
  716POPC   D2A13516   2.107  21.526   8.443
  716POPC   C3A13517   2.284  21.362   8.072
  716POPC   C4A13518   2.038  21.112   7.787
  716POPC   C1B13519   1.830  21.903   8.738
  716POPC   C2B13520   1.686  21.853   8.331
  716POPC   C3B13521   1.795  21.571   8.010
  716POPC   C4B13522   1.726  21.607   7.585
  717POPC   NC313523  27.193   1.912   9.263
  717POPC   PO413524  27.808   1.934   9.510
  717POPC   GL113525  27.647   2.067   9.117
  717POPC   GL213526  27.432   2.384   9.124
  717POPC   C1A13527  27.562   1.815   8.711
  717POPC   D2A13528  27.664   1.556   8.359
  717POPC   C3A13529  27.934   1.763   8.095
  717POPC   C4A13530  27.770   2.042   7.810
  717POPC   C1B13531  27.446   2.310   8.710
  717POPC   C2B13532  27.645   2.235   8.321
  717POPC   C3B13533  27.380   2.344   7.948
  717POPC   C4B13534  27.370   2.365   7.496
  718POPC   NC313535  27.436  44.565   9.579
  718POPC   PO413536  27.834   0.103   9.582
  718POPC   GL113537  27.712  44.890   9.189
  718POPC   GL213538  27.740  44.518   9.163
  718POPC   C1A13539  27.880  44.787   8.768
  718POPC   D2A13540  27.719  44.947   8.399
  718POPC   C3A13541  27.748  44.763   8.054
  718POPC   C4A13542  27.734   0.006   7.687
  718POPC   C1B13543  27.519  44.421   8.768
  718POPC   C2B13544  27.402  44.509   8.354
  718POPC   C3B13545  27.377  44.325   7.979
  718POPC   C4B13546  27.609  44.505   7.652
  719POPC   NC313547   5.230  44.601   9.570
  719POPC   PO413548   5.917  44.754   9.647
  719POPC   GL113549   5.925  44.669   9.229
  719POPC   GL213550   5.590  44.541   9.171
  719POPC   C1A13551   6.058  44.742   8.832
  719POPC   D2A13552   5.806  44.788   8.491
  719POPC   C3A13553   5.956  44.648   8.113
  719POPC   C4A13554   5.880  44.463   7.731
  719POPC   C1B13555   5.456  44.895   8.902
  719POPC   C2B13556   5.429   0.145   8.506
  719POPC   C3B13557   5.568  44.998   8.082
  719POPC   C4B13558   5.511  44.812   7.655
  720POPC   NC313559  19.708  20.795   9.469
  720POPC   PO413560  19.918  21.443   9.550
  720POPC   GL113561  19.804  21.529   9.141
  720POPC   GL213562  19.631  21.205   9.109
  720POPC   C1A13563  19.884  21.430   8.703
  720POPC   D2A13564  19.838  21.175   8.330
  720POPC   C3A13565  19.774  21.461   8.016
  720POPC   C4A13566  19.550  21.532   7.666
  720POPC   C1B13567  19.458  21.138   8.693
  720POPC   C2B13568  19.306  21.208   8.296
  720POPC   C3B13569  19.469  21.078   7.944
  720POPC   C4B13570  19.835  21.080   7.671
  721POPC   NC313571  35.952  13.114   9.454
  721POPC   PO413572  36.243  12.494   9.357
  721POPC   GL113573  35.868  12.714   9.150
  721POPC   GL213574  35.728  12.519   8.883
  721POPC   C1A13575  35.828  13.035   8.813
  721POPC   D2A13576  36.087  13.058   8.430
  721POPC   C3A13577  36.004  12.874   8.040
  721POPC   C4A13578  36.019  13.078   7.648
  721POPC   C1B13579  36.150  12.637   8.727
  721POPC   C2B13580  36.445  12.479   8.441
  721POPC   C3B13581  36.569  12.603   8.033
  721POPC   C4B13582  36.355  12.703   7.671
  722POPC   NC313583  43.206  39.429   9.301
  722POPC   PO413584  42.966  38.806   9.458
  722POPC   GL113585  43.094  38.910   9.058
  722POPC   GL213586  42.774  38.975   8.968
  722POPC   C1A13587  43.371  39.070   8.709
  722POPC   D2A13588  43.492  39.381   8.362
  722POPC   C3A13589  43.420  39.245   7.921
  722POPC   C4A13590  43.113  38.992   7.701
  722POPC   C1B13591  42.875  39.246   8.630
  722POPC   C2B13592  42.975  39.222   8.192
  722POPC   C3B13593  42.798  39.383   7.783
  722POPC   C4B13594  42.798  39.329   7.285
  723POPC   NC313595  30.587  39.805   9.558
  723POPC   PO413596  30.715  40.410   9.451
  723POPC   GL113597  30.646  40.077   9.118
  723POPC   GL213598  30.929  39.934   8.998
  723POPC   C1A13599  30.505  39.939   8.675
  723POPC   D2A13600  30.233  39.989   8.269
  723POPC   C3A13601  30.362  40.119   7.831
  723POPC   C4A13602  30.706  40.245   7.557
  723POPC   C1B13603  30.978  39.650   8.667
  723POPC   C2B13604  30.757  39.694   8.291
  723POPC   C3B13605  30.798  39.842   7.880
  723POPC   C4B13606  30.696  39.736   7.452
  724POPC   NC313607  20.781  38.199   9.306
  724POPC   PO413608  20.198  38.486   9.408
  724POPC   GL113609  20.559  38.586   9.068
  724POPC   GL213610  20.838  38.858   9.071
  724POPC   C1A13611  20.625  38.653   8.621
  724POPC   D2A13612  20.560  38.813   8.193
  724POPC   C3A13613  20.440  38.517   7.866
  724POPC   C4A13614  20.643  38.126   7.692
  724POPC   C1B13615  21.088  38.962   8.716
  724POPC   C2B13616  21.074  38.748   8.352
  724POPC   C3B13617  20.873  38.425   8.111
  724POPC   C4B13618  20.936  38.553   7.696
  725POPC   NC313619   4.165  13.334   9.644
  725POPC   PO413620   4.686  13.714   9.487
  725POPC   GL113621   4.308  13.724   9.248
  725POPC   GL213622   4.289  13.393   9.121
  725POPC   C1A13623   4.307  13.816   8.805
  725POPC   D2A13624   4.483  13.659   8.406
  725POPC   C3A13625   4.267  13.689   8.033
  725POPC   C4A13626   4.421  13.685   7.600
  725POPC   C1B13627   4.215  13.311   8.669
  725POPC   C2B13628   3.839  13.402   8.380
  725POPC   C3B13629   3.863  13.391   7.946
  725POPC   C4B13630   4.253  13.221   7.817
  726POPC   NC313631  33.403  30.932   9.598
  726POPC   PO413632  32.740  30.905   9.434
  726POPC   GL113633  32.938  30.663   9.124
  726POPC   GL213634  33.265  30.572   9.241
  726POPC   C1A13635  32.841  30.715   8.698
  726POPC   D2A13636  32.574  30.770   8.353
  726POPC   C3A13637  32.883  30.875   8.041
  726POPC   C4A13638  32.833  30.537   7.753
  726POPC   C1B13639  33.391  30.586   8.799
  726POPC   C2B13640  33.220  30.496   8.384
  726POPC   C3B13641  33.269  30.359   7.953
  726POPC   C4B13642  33.299  30.755   7.721
  727POPC   NC313643   3.776   5.662   9.755
  727POPC   PO413644   3.358   6.155   9.600
  727POPC   GL113645   3.471   5.836   9.288
  727POPC   GL213646   3.827   5.801   9.257
  727POPC   C1A13647   3.478   5.862   8.829
  727POPC   D2A13648   3.604   5.926   8.404
  727POPC   C3A13649   3.354   6.015   8.042
  727POPC   C4A13650   3.361   6.047   7.601
  727POPC   C1B13651   3.935   5.589   8.868
  727POPC   C2B13652   4.062   5.737   8.446
  727POPC   C3B13653   3.895   5.647   8.027
  727POPC   C4B13654   3.651   5.649   7.676
  728POPC   NC313655  15.229  18.138   9.532
  728POPC   PO413656  15.582  18.748   9.565
  728POPC   GL113657  15.334  18.521   9.211
  728POPC   GL213658  15.363  18.182   9.048
  728POPC   C1A13659  15.079  18.515   8.820
  728POPC   D2A13660  14.990  18.311   8.420
  728POPC   C3A13661  15.028  18.483   8.023
  728POPC   C4A13662  15.134  18.372   7.589
  728POPC   C1B13663  14.996  17.989   8.829
  728POPC   C2B13664  14.944  17.794   8.416
  728POPC   C3B13665  15.082  17.942   8.005
  728POPC   C4B13666  14.941  17.898   7.593
  729POPC   NC313667  24.935   3.083   9.339
  729POPC   PO413668  25.323   2.630   9.668
  729POPC   GL113669  25.229   2.669   9.203
  729POPC   GL213670  25.385   2.967   9.086
  729POPC   C1A13671  25.120   2.686   8.730
  729POPC   D2A13672  25.073   2.474   8.313
  729POPC   C3A13673  25.150   2.738   7.939
  729POPC   C4A13674  25.123   2.930   7.499
  729POPC   C1B13675  25.495   3.054   8.655
  729POPC   C2B13676  25.508   3.001   8.220
  729POPC   C3B13677  25.556   3.018   7.812
  729POPC   C4B13678  25.472   3.291   7.478
  730POPC   NC313679  23.199  12.492   9.382
  730POPC   PO413680  22.850  13.040   9.301
  730POPC   GL113681  23.070  12.901   9.000
  730POPC   GL213682  22.993  12.555   8.916
  730POPC   C1A13683  23.113  13.149   8.645
  730POPC   D2A13684  22.849  13.207   8.320
  730POPC   C3A13685  22.941  13.027   7.929
  730POPC   C4A13686  22.595  12.959   7.696
  730POPC   C1B13687  22.690  12.820   8.670
  730POPC   C2B13688  22.563  12.748   8.283
  730POPC   C3B13689  22.766  12.508   7.986
  730POPC   C4B13690  22.948  12.540   7.606
  731POPC   NC313691  31.808  40.016   9.429
  731POPC   PO413692  32.476  39.990   9.565
  731POPC   GL113693  32.266  40.144   9.205
  731POPC   GL213694  32.163  39.864   9.019
  731POPC   C1A13695  32.362  40.257   8.789
  731POPC   D2A13696  32.306  39.974   8.445
  731POPC   C3A13697  32.493  40.002   8.053
  731POPC   C4A13698  32.392  40.194   7.647
  731POPC   C1B13699  31.862  39.965   8.703
  731POPC   C2B13700  31.787  40.018   8.239
  731POPC   C3B13701  32.026  39.927   7.875
  731POPC   C4B13702  31.996  39.943   7.394
  732POPC   NC313703  17.723  36.582   9.553
  732POPC   PO413704  17.488  37.209   9.635
  732POPC   GL113705  17.719  37.062   9.240
  732POPC   GL213706  17.596  36.766   9.089
  732POPC   C1A13707  17.942  37.000   8.786
  732POPC   D2A13708  17.705  36.903   8.369
  732POPC   C3A13709  17.814  36.776   7.930
  732POPC   C4A13710  17.625  36.498   7.602
  732POPC   C1B13711  17.431  37.074   8.788
  732POPC   C2B13712  17.214  37.054   8.392
  732POPC   C3B13713  17.328  36.984   7.963
  732POPC   C4B13714  17.316  37.348   7.715
  733POPC   NC313715  33.126  28.070  10.037
  733POPC   PO413716  32.797  28.286   9.454
  733POPC   GL113717  32.852  28.227   9.041
  733POPC   GL213718  32.992  28.567   9.038
  733POPC   C1A13719  32.859  28.297   8.602
  733POPC   D2A13720  32.632  28.566   8.324
  733POPC   C3A13721  32.774  28.506   7.912
  733POPC   C4A13722  32.802  28.627   7.481
  733POPC   C1B13723  33.047  28.769   8.644
  733POPC   C2B13724  33.171  28.579   8.246
  733POPC   C3B13725  33.314  28.540   7.808
  733POPC   C4B13726  33.275  28.249   7.457
  734POPC   NC313727  38.639  24.954   9.398
  734POPC   PO413728  38.305  25.478   9.340
  734POPC   GL113729  38.430  25.270   9.031
  734POPC   GL213730  38.102  25.157   8.965
  734POPC   C1A13731  38.472  25.301   8.612
  734POPC   D2A13732  38.253  25.207   8.268
  734POPC   C3A13733  38.456  25.452   7.978
  734POPC   C4A13734  38.410  25.417   7.585
  734POPC   C1B13735  38.296  24.826   8.722
  734POPC   C2B13736  38.460  24.728   8.287
  734POPC   C3B13737  38.554  24.952   7.879
  734POPC   C4B13738  38.711  25.004   7.420
  735POPC   NC313739   6.855  41.736   9.432
  735POPC   PO413740   6.298  41.410   9.602
  735POPC   GL113741   6.528  41.450   9.154
  735POPC   GL213742   6.890  41.471   9.001
  735POPC   C1A13743   6.473  41.551   8.708
  735POPC   D2A13744   6.683  41.520   8.285
  735POPC   C3A13745   6.469  41.586   7.897
  735POPC   C4A13746   6.368  41.395   7.513
  735POPC   C1B13747   6.882  41.854   8.688
  735POPC   C2B13748   7.032  41.915   8.254
  735POPC   C3B13749   6.944  41.750   7.853
  735POPC   C4B13750   6.771  41.951   7.474
  736POPC   NC313751  13.242   5.120   9.477
  736POPC   PO413752  13.852   5.076   9.580
  736POPC   GL113753  13.745   4.957   9.201
  736POPC   GL213754  14.040   4.771   9.164
  736POPC   C1A13755  13.587   4.886   8.794
  736POPC   D2A13756  13.360   5.174   8.561
  736POPC   C3A13757  13.434   5.137   8.129
  736POPC   C4A13758  13.576   4.987   7.746
  736POPC   C1B13759  14.042   5.105   8.815
  736POPC   C2B13760  13.874   4.998   8.387
  736POPC   C3B13761  13.732   4.650   8.124
  736POPC   C4B13762  13.922   4.619   7.726
  737POPC   NC313763  41.303  26.394   9.458
  737POPC   PO413764  41.804  26.736   9.646
  737POPC   GL113765  41.778  26.279   9.314
  737POPC   GL213766  41.740  25.926   9.314
  737POPC   C1A13767  41.542  26.130   8.874
  737POPC   D2A13768  41.256  25.955   8.502
  737POPC   C3A13769  41.420  26.039   8.056
  737POPC   C4A13770  41.729  26.222   7.771
  737POPC   C1B13771  41.818  25.704   8.898
  737POPC   C2B13772  41.712  25.715   8.465
  737POPC   C3B13773  41.861  25.796   8.061
  737POPC   C4B13774  41.946  25.768   7.658
  738POPC   NC313775  22.256   6.821   9.805
  738POPC   PO413776  22.563   6.657   9.276
  738POPC   GL113777  22.720   6.763   8.884
  738POPC   GL213778  22.434   6.995   8.853
  738POPC   C1A13779  23.103   6.817   8.632
  738POPC   D2A13780  23.291   6.936   8.241
  738POPC   C3A13781  23.046   6.752   7.904
  738POPC   C4A13782  22.629   6.901   7.809
  738POPC   C1B13783  22.667   7.114   8.522
  738POPC   C2B13784  22.718   6.743   8.297
  738POPC   C3B13785  22.568   6.416   8.005
  738POPC   C4B13786  22.405   6.468   7.560
  739POPC   NC313787  28.062  33.259   9.431
  739POPC   PO413788  27.413  33.345   9.421
  739POPC   GL113789  27.657  33.275   9.101
  739POPC   GL213790  27.480  32.955   9.018
  739POPC   C1A13791  27.882  33.131   8.747
  739POPC   D2A13792  27.772  32.946   8.348
  739POPC   C3A13793  27.871  33.196   7.957
  739POPC   C4A13794  27.842  32.938   7.574
  739POPC   C1B13795  27.303  33.251   8.728
  739POPC   C2B13796  27.208  33.133   8.297
  739POPC   C3B13797  27.435  32.947   7.960
  739POPC   C4B13798  27.354  32.808   7.560
  740POPC   NC313799  33.240  33.426   9.378
  740POPC   PO413800  32.982  34.064   9.458
  740POPC   GL113801  32.961  33.856   9.072
  740POPC   GL213802  33.295  33.788   9.000
  740POPC   C1A13803  32.978  33.798   8.585
  740POPC   D2A13804  32.807  33.647   8.202
  740POPC   C3A13805  32.962  33.909   7.845
  740POPC   C4A13806  32.885  33.787   7.402
  740POPC   C1B13807  33.318  33.452   8.668
  740POPC   C2B13808  33.342  33.490   8.172
  740POPC   C3B13809  33.224  33.511   7.706
  740POPC   C4B13810  33.372  33.704   7.278
  741POPC   NC313811  21.394   8.669   9.571
  741POPC   PO413812  21.712   8.067   9.482
  741POPC   GL113813  21.708   8.347   9.151
  741POPC   GL213814  21.373   8.355   9.168
  741POPC   C1A13815  21.621   8.201   8.753
  741POPC   D2A13816  21.310   7.978   8.519
  741POPC   C3A13817  21.358   7.949   8.082
  741POPC   C4A13818  21.360   8.160   7.685
  741POPC   C1B13819  21.134   8.419   8.829
  741POPC   C2B13820  21.263   8.495   8.441
  741POPC   C3B13821  21.062   8.421   8.080
  741POPC   C4B13822  21.130   8.590   7.704
  742POPC   NC313823   8.372   5.051   9.476
  742POPC   PO413824   7.715   5.170   9.510
  742POPC   GL113825   7.945   4.917   9.106
  742POPC   GL213826   8.299   4.737   9.093
  742POPC   C1A13827   8.048   4.893   8.638
  742POPC   D2A13828   7.990   5.229   8.307
  742POPC   C3A13829   8.000   5.202   7.864
  742POPC   C4A13830   8.083   4.775   7.688
  742POPC   C1B13831   8.582   4.857   8.793
  742POPC   C2B13832   8.485   4.999   8.399
  742POPC   C3B13833   8.458   4.989   7.982
  742POPC   C4B13834   8.409   5.182   7.567
  743POPC   NC313835  25.637   7.313   9.553
  743POPC   PO413836  25.032   7.628   9.536
  743POPC   GL113837  25.321   7.542   9.203
  743POPC   GL213838  25.524   7.855   9.196
  743POPC   C1A13839  25.226   7.296   8.811
  743POPC   D2A13840  24.989   7.426   8.435
  743POPC   C3A13841  25.094   7.207   8.021
  743POPC   C4A13842  25.342   7.184   7.618
  743POPC   C1B13843  25.556   7.710   8.782
  743POPC   C2B13844  25.359   7.796   8.396
  743POPC   C3B13845  25.202   7.693   8.003
  743POPC   C4B13846  25.420   7.693   7.595
  744POPC   NC313847   8.442  36.999   9.380
  744POPC   PO413848   7.905  37.179   9.775
  744POPC   GL113849   7.903  36.949   9.293
  744POPC   GL213850   7.968  36.571   9.253
  744POPC   C1A13851   7.966  36.985   8.847
  744POPC   D2A13852   7.872  37.154   8.456
  744POPC   C3A13853   8.151  37.149   8.120
  744POPC   C4A13854   8.235  36.993   7.725
  744POPC   C1B13855   8.252  36.568   8.869
  744POPC   C2B13856   8.320  36.836   8.503
  744POPC   C3B13857   8.497  36.742   8.097
  744POPC   C4B13858   8.453  36.537   7.707
  745POPC   NC313859  29.699  18.557   9.624
  745POPC   PO413860  30.124  18.088   9.514
  745POPC   GL113861  30.009  18.031   9.050
  745POPC   GL213862  29.655  17.978   9.128
  745POPC   C1A13863  29.985  18.031   8.582
  745POPC   D2A13864  29.672  17.952   8.246
  745POPC   C3A13865  29.776  18.003   7.802
  745POPC   C4A13866  30.201  18.212   7.734
  745POPC   C1B13867  29.683  18.399   8.918
  745POPC   C2B13868  29.656  18.430   8.459
  745POPC   C3B13869  29.610  18.441   7.988
  745POPC   C4B13870  29.733  18.427   7.518
  746POPC   NC313871  19.027  38.705   9.466
  746POPC   PO413872  19.308  38.034   9.402
  746POPC   GL113873  19.000  38.267   9.168
  746POPC   GL213874  19.241  38.524   9.066
  746POPC   C1A13875  18.836  38.388   8.752
  746POPC   D2A13876  18.951  38.359   8.317
  746POPC   C3A13877  18.876  38.560   7.928
  746POPC   C4A13878  19.029  38.223   7.648
  746POPC   C1B13879  19.302  38.549   8.670
  746POPC   C2B13880  19.433  38.228   8.390
  746POPC   C3B13881  19.360  38.375   8.009
  746POPC   C4B13882  19.330  38.660   7.666
  747POPC   NC313883  29.247  21.206   9.591
  747POPC   PO413884  28.728  21.627   9.457
  747POPC   GL113885  28.919  21.584   9.088
  747POPC   GL213886  28.968  21.249   9.145
  747POPC   C1A13887  29.023  21.637   8.641
  747POPC   D2A13888  29.258  21.406   8.329
  747POPC   C3A13889  29.298  21.559   7.949
  747POPC   C4A13890  29.014  21.556   7.702
  747POPC   C1B13891  29.105  21.113   8.741
  747POPC   C2B13892  29.142  20.908   8.328
  747POPC   C3B13893  29.171  21.057   7.923
  747POPC   C4B13894  28.789  21.022   7.721
  748POPC   NC313895  28.596  28.859   9.387
  748POPC   PO413896  28.300  28.317   9.568
  748POPC   GL113897  28.445  28.399   9.165
  748POPC   GL213898  28.213  28.656   9.144
  748POPC   C1A13899  28.656  28.354   8.762
  748POPC   D2A13900  28.703  28.036   8.439
  748POPC   C3A13901  28.558  28.139   8.006
  748POPC   C4A13902  28.728  28.469   7.701
  748POPC   C1B13903  28.271  28.686   8.710
  748POPC   C2B13904  28.275  28.425   8.329
  748POPC   C3B13905  28.233  28.534   7.859
  748POPC   C4B13906  28.328  28.343   7.434
  749POPC   NC313907  42.244   3.146   9.534
  749POPC   PO413908  42.296   3.775   9.584
  749POPC   GL113909  42.379   3.647   9.163
  749POPC   GL213910  42.702   3.560   9.253
  749POPC   C1A13911  42.171   3.584   8.709
  749POPC   D2A13912  42.141   3.523   8.236
  749POPC   C3A13913  42.342   3.756   7.910
  749POPC   C4A13914  42.372   3.770   7.457
  749POPC   C1B13915  42.601   3.329   8.858
  749POPC   C2B13916  42.611   3.425   8.434
  749POPC   C3B13917  42.545   3.304   8.006
  749POPC   C4B13918  42.761   3.521   7.676
  750POPC   NC313919   2.098   1.672   9.369
  750POPC   PO413920   1.937   2.340   9.540
  750POPC   GL113921   1.962   2.124   9.151
  750POPC   GL213922   2.182   1.867   8.917
  750POPC   C1A13923   1.832   2.204   8.803
  750POPC   D2A13924   1.846   1.873   8.535
  750POPC   C3A13925   1.882   1.960   8.113
  750POPC   C4A13926   1.866   1.940   7.665
  750POPC   C1B13927   2.324   2.223   8.686
  750POPC   C2B13928   2.189   2.409   8.308
  750POPC   C3B13929   2.235   2.258   7.904
  750POPC   C4B13930   2.316   1.821   7.857
  751POPC   NC313931   0.309  21.684   9.587
  751POPC   PO413932   0.868  21.670   9.314
  751POPC   GL113933   0.617  21.385   9.071
  751POPC   GL213934   0.785  21.559   8.824
  751POPC   C1A13935   0.514  21.131   8.749
  751POPC   D2A13936   0.233  21.116   8.407
  751POPC   C3A13937   0.396  21.340   8.057
  751POPC   C4A13938   0.496  21.207   7.634
  751POPC   C1B13939   0.496  21.593   8.514
  751POPC   C2B13940   0.661  21.759   8.161
  751POPC   C3B13941   0.584  21.711   7.713
  751POPC   C4B13942   0.483  21.837   7.269
  752POPC   NC313943  33.490   7.428   9.521
  752POPC   PO413944  32.967   7.239   9.551
  752POPC   GL113945  33.067   7.496   9.204
  752POPC   GL213946  33.342   7.320   9.041
  752POPC   C1A13947  32.977   7.591   8.775
  752POPC   D2A13948  32.993   7.347   8.401
  752POPC   C3A13949  32.781   7.502   8.024
  752POPC   C4A13950  32.860   7.776   7.684
  752POPC   C1B13951  33.330   7.067   8.687
  752POPC   C2B13952  33.299   6.947   8.265
  752POPC   C3B13953  32.999   7.040   7.975
  752POPC   C4B13954  32.931   7.253   7.609
  753POPC   NC313955   2.510  10.243   9.450
  753POPC   PO413956   1.798  10.175   9.458
  753POPC   GL113957   1.922  10.551   9.215
  753POPC   GL213958   2.277  10.553   9.120
  753POPC   C1A13959   1.806  10.762   8.814
  753POPC   D2A13960   1.865  10.531   8.420
  753POPC   C3A13961   1.671  10.511   8.038
  753POPC   C4A13962   1.782  10.565   7.638
  753POPC   C1B13963   2.132  10.297   8.782
  753POPC   C2B13964   2.149  10.127   8.330
  753POPC   C3B13965   2.057  10.222   7.896
  753POPC   C4B13966   2.110  10.113   7.464
  754POPC   NC313967  39.177   2.565   9.518
  754POPC   PO413968  39.570   3.078   9.541
  754POPC   GL113969  39.450   2.845   9.166
  754POPC   GL213970  39.568   2.496   9.206
  754POPC   C1A13971  39.339   2.807   8.720
  754POPC   D2A13972  39.510   2.866   8.302
  754POPC   C3A13973  39.267   2.975   7.965
  754POPC   C4A13974  39.018   2.676   7.837
  754POPC   C1B13975  39.486   2.321   8.812
  754POPC   C2B13976  39.358   2.362   8.379
  754POPC   C3B13977  39.530   2.475   7.958
  754POPC   C4B13978  39.337   2.331   7.577
  755POPC   NC313979  37.001  42.478   9.583
  755POPC   PO413980  36.935  41.890   9.265
  755POPC   GL113981  37.060  42.312   9.104
  755POPC   GL213982  36.761  42.468   9.136
  755POPC   C1A13983  37.085  42.507   8.689
  755POPC   D2A13984  37.003  42.290   8.283
  755POPC   C3A13985  37.215  42.408   7.896
  755POPC   C4A13986  37.230  42.202   7.469
  755POPC   C1B13987  36.558  42.501   8.767
  755POPC   C2B13988  36.630  42.651   8.361
  755POPC   C3B13989  36.754  42.607   7.956
  755POPC   C4B13990  36.853  42.530   7.540
  756POPC   NC313991  29.847  41.092   9.566
  756POPC   PO413992  29.732  40.511   9.605
  756POPC   GL113993  30.092  40.711   9.306
  756POPC   GL213994  30.041  41.009   9.089
  756POPC   C1A13995  30.367  40.665   8.905
  756POPC   D2A13996  30.270  40.430   8.546
  756POPC   C3A13997  30.069  40.675   8.237
  756POPC   C4A13998  30.111  40.832   7.846
  756POPC   C1B13999  30.144  41.050   8.627
  756POPC   C2B14000  30.225  41.195   8.182
  756POPC   C3B14001  30.049  41.344   7.748
  756POPC   C4B14002  29.957  41.440   7.296
  757POPC   NC314003  18.278   2.406   9.583
  757POPC   PO414004  17.995   1.805   9.457
  757POPC   GL114005  18.094   2.108   9.166
  757POPC   GL214006  18.439   2.158   9.160
  757POPC   C1A14007  18.088   2.027   8.721
  757POPC   D2A14008  18.025   1.824   8.297
  757POPC   C3A14009  18.129   2.107   7.940
  757POPC   C4A14010  18.354   2.229   7.577
  757POPC   C1B14011  18.440   2.413   8.791
  757POPC   C2B14012  18.298   2.361   8.372
  757POPC   C3B14013  18.504   2.462   8.001
  757POPC   C4B14014  18.842   2.389   7.701
  758POPC   NC314015  22.256  29.571   9.972
  758POPC   PO414016  21.985  30.141   9.566
  758POPC   GL114017  22.063  29.882   9.208
  758POPC   GL214018  22.376  29.795   9.279
  758POPC   C1A14019  21.950  29.640   8.832
  758POPC   D2A14020  22.150  29.744   8.463
  758POPC   C3A14021  21.974  29.693   8.110
  758POPC   C4A14022  22.108  29.870   7.778
  758POPC   C1B14023  22.476  29.692   8.850
  758POPC   C2B14024  22.585  29.489   8.431
  758POPC   C3B14025  22.526  29.657   7.967
  758POPC   C4B14026  22.466  29.618   7.453
  759POPC   NC314027  16.974  29.438   9.642
  759POPC   PO414028  16.584  28.948   9.403
  759POPC   GL114029  16.736  29.287   9.130
  759POPC   GL214030  17.010  29.543   9.148
  759POPC   C1A14031  16.871  29.152   8.728
  759POPC   D2A14032  16.707  28.955   8.340
  759POPC   C3A14033  16.823  29.160   7.985
  759POPC   C4A14034  16.666  29.278   7.584
  759POPC   C1B14035  17.267  29.474   8.778
  759POPC   C2B14036  17.271  29.598   8.343
  759POPC   C3B14037  17.032  29.627   7.964
  759POPC   C4B14038  16.928  29.703   7.524
  760POPC   NC314039  36.366  20.798   9.398
  760POPC   PO414040  36.041  20.210   9.500
  760POPC   GL114041  36.209  20.398   9.093
  760POPC   GL214042  36.523  20.585   8.949
  760POPC   C1A14043  36.154  20.393   8.644
  760POPC   D2A14044  36.400  20.543   8.304
  760POPC   C3A14045  36.175  20.484   7.941
  760POPC   C4A14046  36.278  20.180   7.660
  760POPC   C1B14047  36.256  20.884   8.667
  760POPC   C2B14048  36.097  20.955   8.225
  760POPC   C3B14049  36.254  20.967   7.795
  760POPC   C4B14050  36.337  20.652   7.482
  761POPC   NC314051   1.072  26.587   9.540
  761POPC   PO414052   1.524  27.091   9.281
  761POPC   GL114053   1.159  26.867   9.120
  761POPC   GL214054   0.866  27.036   9.044
  761POPC   C1A14055   1.089  26.632   8.775
  761POPC   D2A14056   1.065  26.731   8.346
  761POPC   C3A14057   1.404  26.565   8.108
  761POPC   C4A14058   1.513  26.581   7.690
  761POPC   C1B14059   1.217  27.183   8.717
  761POPC   C2B14060   1.471  27.136   8.328
  761POPC   C3B14061   1.377  27.034   7.914
  761POPC   C4B14062   1.067  26.794   7.753
  762POPC   NC314063  34.285  25.855   9.372
  762POPC   PO414064  33.655  26.130   9.476
  762POPC   GL114065  33.828  26.144   9.078
  762POPC   GL214066  34.175  26.221   9.042
  762POPC   C1A14067  33.847  26.341   8.677
  762POPC   D2A14068  33.551  26.511   8.413
  762POPC   C3A14069  33.790  26.383   8.109
  762POPC   C4A14070  33.759  26.255   7.753
  762POPC   C1B14071  34.085  25.857   8.742
  762POPC   C2B14072  33.830  25.928   8.373
  762POPC   C3B14073  33.774  25.753   7.981
  762POPC   C4B14074  33.938  25.805   7.617
  763POPC   NC314075   1.456   0.205   9.699
  763POPC   PO414076   1.971   0.532   9.517
  763POPC   GL114077   1.904   0.418   9.140
  763POPC   GL214078   1.864   0.103   9.079
  763POPC   C1A14079   1.991   0.492   8.730
  763POPC   D2A14080   1.867   0.757   8.408
  763POPC   C3A14081   2.060   0.526   8.110
  763POPC   C4A14082   1.937   0.399   7.722
  763POPC   C1B14083   2.288   0.093   8.819
  763POPC   C2B14084   2.426   0.338   8.446
  763POPC   C3B14085   2.412   0.160   8.032
  763POPC   C4B14086   2.633   0.108   7.671
  764POPC   NC314087  12.889  18.917   9.550
  764POPC   PO414088  13.103  19.491   9.257
  764POPC   GL114089  12.926  19.174   9.107
  764POPC   GL214090  12.612  19.229   9.249
  764POPC   C1A14091  12.965  18.973   8.730
  764POPC   D2A14092  12.876  19.149   8.343
  764POPC   C3A14093  12.990  18.914   8.035
  764POPC   C4A14094  13.308  18.974   7.718
  764POPC   C1B14095  12.472  19.246   8.845
  764POPC   C2B14096  12.394  19.168   8.430
  764POPC   C3B14097  12.444  18.878   8.087
  764POPC   C4B14098  12.614  18.741   7.698
  765POPC   NC314099  14.492  16.050   9.506
  765POPC   PO414100  14.001  16.441   9.348
  765POPC   GL114101  14.266  16.211   9.047
  765POPC   GL214102  14.288  15.829   9.055
  765POPC   C1A14103  14.437  16.098   8.633
  765POPC   D2A14104  14.344  16.012   8.201
  765POPC   C3A14105  14.608  16.152   7.866
  765POPC   C4A14106  14.633  16.382   7.474
  765POPC   C1B14107  14.416  15.545   8.664
  765POPC   C2B14108  14.469  15.482   8.183
  765POPC   C3B14109  14.399  15.697   7.774
  765POPC   C4B14110  14.305  15.638   7.312
  766POPC   NC314111  14.733  11.523   9.452
  766POPC   PO414112  15.385  11.254   9.409
  766POPC   GL114113  15.047  11.245   9.127
  766POPC   GL214114  14.730  11.312   9.008
  766POPC   C1A14115  15.070  11.095   8.710
  766POPC   D2A14116  15.484  11.089   8.560
  766POPC   C3A14117  15.446  11.043   8.137
  766POPC   C4A14118  15.339  11.299   7.779
  766POPC   C1B14119  14.967  11.591   8.736
  766POPC   C2B14120  15.170  11.465   8.339
  766POPC   C3B14121  14.959  11.555   7.965
  766POPC   C4B14122  15.013  11.769   7.571
  767POPC   NC314123  43.321  25.459   9.412
  767POPC   PO414124  42.736  25.017   9.535
  767POPC   GL114125  42.921  25.211   9.205
  767POPC   GL214126  43.251  25.060   9.094
  767POPC   C1A14127  42.859  25.415   8.829
  767POPC   D2A14128  43.069  25.321   8.448
  767POPC   C3A14129  42.858  25.326   8.070
  767POPC   C4A14130  43.037  25.422   7.667
  767POPC   C1B14131  43.420  24.993   8.688
  767POPC   C2B14132  43.277  24.879   8.259
  767POPC   C3B14133  43.308  25.014   7.820
  767POPC   C4B14134  43.210  25.074   7.338
  768POPC   NC314135  13.431  13.855   9.605
  768POPC   PO414136  13.721  13.242   9.591
  768POPC   GL114137  13.611  13.507   9.198
  768POPC   GL214138  13.436  13.805   9.115
  768POPC   C1A14139  13.640  13.570   8.713
  768POPC   D2A14140  13.925  13.674   8.347
  768POPC   C3A14141  13.801  13.554   7.942
  768POPC   C4A14142  13.720  13.710   7.545
  768POPC   C1B14143  13.113  13.916   8.826
  768POPC   C2B14144  13.325  13.887   8.455
  768POPC   C3B14145  13.325  13.725   8.056
  768POPC   C4B14146  13.294  13.925   7.685
  769POPC   NC314147  15.362  34.007   9.425
  769POPC   PO414148  16.067  33.846   9.557
  769POPC   GL114149  16.033  33.814   9.108
  769POPC   GL214150  16.287  34.033   9.018
  769POPC   C1A14151  15.825  33.787   8.679
  769POPC   D2A14152  15.437  33.767   8.409
  769POPC   C3A14153  15.575  33.851   7.978
  769POPC   C4A14154  16.014  33.999   7.901
  769POPC   C1B14155  16.351  33.670   8.730
  769POPC   C2B14156  16.201  33.695   8.317
  769POPC   C3B14157  16.318  33.598   7.918
  769POPC   C4B14158  16.308  33.721   7.491
  770POPC   NC314159   2.196  34.111   9.467
  770POPC   PO414160   1.894  33.495   9.664
  770POPC   GL114161   2.032  33.615   9.258
  770POPC   GL214162   2.401  33.688   9.256
  770POPC   C1A14163   1.853  33.756   8.886
  770POPC   D2A14164   1.843  33.617   8.485
  770POPC   C3A14165   1.705  33.837   8.148
  770POPC   C4A14166   1.717  34.009   7.748
  770POPC   C1B14167   2.390  33.846   8.831
  770POPC   C2B14168   2.265  33.908   8.385
  770POPC   C3B14169   2.170  33.835   7.925
  770POPC   C4B14170   2.323  33.825   7.505
  771POPC   NC314171  30.020  29.513   9.459
  771POPC   PO414172  30.089  28.838   9.429
  771POPC   GL114173  29.967  29.120   9.111
  771POPC   GL214174  30.215  29.361   9.023
  771POPC   C1A14175  29.893  29.114   8.682
  771POPC   D2A14176  29.896  28.953   8.266
  771POPC   C3A14177  29.896  29.245   7.916
  771POPC   C4A14178  29.560  29.486   7.749
  771POPC   C1B14179  30.333  29.361   8.599
  771POPC   C2B14180  30.339  29.376   8.182
  771POPC   C3B14181  30.392  29.241   7.803
  771POPC   C4B14182  30.151  29.302   7.450
  772POPC   NC314183  17.178  21.984   9.614
  772POPC   PO414184  16.749  22.486   9.486
  772POPC   GL114185  16.612  22.259   9.169
  772POPC   GL214186  16.457  21.974   9.338
  772POPC   C1A14187  16.756  22.279   8.747
  772POPC   D2A14188  16.698  22.557   8.390
  772POPC   C3A14189  16.871  22.484   7.968
  772POPC   C4A14190  16.894  22.678   7.556
  772POPC   C1B14191  16.417  21.901   8.885
  772POPC   C2B14192  16.699  21.783   8.549
  772POPC   C3B14193  16.644  21.713   8.111
  772POPC   C4B14194  16.705  21.984   7.757
  773POPC   NC314195   4.914   1.903   9.683
  773POPC   PO414196   5.403   2.358   9.781
  773POPC   GL114197   5.309   2.135   9.358
  773POPC   GL214198   5.491   1.837   9.333
  773POPC   C1A14199   5.115   2.078   8.920
  773POPC   D2A14200   4.989   1.903   8.504
  773POPC   C3A14201   4.917   2.131   8.098
  773POPC   C4A14202   4.830   1.830   7.744
  773POPC   C1B14203   5.473   1.737   8.903
  773POPC   C2B14204   5.487   1.829   8.471
  773POPC   C3B14205   5.276   1.784   8.097
  773POPC   C4B14206   5.341   1.876   7.720
  774POPC   NC314207   5.057   7.570   9.490
  774POPC   PO414208   4.673   7.115   9.395
  774POPC   GL114209   4.831   7.350   9.044
  774POPC   GL214210   5.194   7.346   9.061
  774POPC   C1A14211   4.817   7.275   8.579
  774POPC   D2A14212   4.949   7.107   8.167
  774POPC   C3A14213   4.974   7.435   7.869
  774POPC   C4A14214   4.857   7.698   7.521
  774POPC   C1B14215   5.181   7.614   8.730
  774POPC   C2B14216   5.204   7.511   8.332
  774POPC   C3B14217   5.474   7.322   8.092
  774POPC   C4B14218   5.410   7.221   7.725
  775POPC   NC314219  19.521  31.652   9.460
  775POPC   PO414220  20.083  31.249   9.208
  775POPC   GL114221  19.695  31.273   9.095
  775POPC   GL214222  19.757  31.634   9.026
  775POPC   C1A14223  19.682  31.296   8.678
  775POPC   D2A14224  20.016  31.520   8.573
  775POPC   C3A14225  19.983  31.527   8.151
  775POPC   C4A14226  19.869  31.557   7.757
  775POPC   C1B14227  19.421  31.817   8.808
  775POPC   C2B14228  19.560  31.724   8.412
  775POPC   C3B14229  19.550  31.852   8.015
  775POPC   C4B14230  19.399  31.684   7.616
  776POPC   NC314231   4.945  25.446   9.477
  776POPC   PO414232   5.406  24.911   9.461
  776POPC   GL114233   5.188  25.140   9.157
  776POPC   GL214234   5.505  25.179   9.020
  776POPC   C1A14235   4.864  25.296   8.844
  776POPC   D2A14236   4.883  25.583   8.492
  776POPC   C3A14237   4.686  25.431   8.142
  776POPC   C4A14238   4.792  25.244   7.804
  776POPC   C1B14239   5.338  25.520   8.815
  776POPC   C2B14240   5.380  25.462   8.392
  776POPC   C3B14241   5.269  25.416   7.963
  776POPC   C4B14242   5.430  25.669   7.640
  777POPC   NC314243  29.765  36.571   9.249
  777POPC   PO414244  29.872  37.115   9.577
  777POPC   GL114245  29.751  37.097   9.145
  777POPC   GL214246  30.079  36.962   9.101
  777POPC   C1A14247  29.770  37.085   8.668
  777POPC   D2A14248  29.696  37.090   8.216
  777POPC   C3A14249  29.895  36.896   7.889
  777POPC   C4A14250  30.124  37.097   7.567
  777POPC   C1B14251  30.124  36.725   8.712
  777POPC   C2B14252  30.204  36.882   8.341
  777POPC   C3B14253  30.359  36.567   8.092
  777POPC   C4B14254  30.271  36.615   7.687
  778POPC   NC314255   3.568  34.943   9.509
  778POPC   PO414256   3.722  34.295   9.326
  778POPC   GL114257   3.747  34.634   9.090
  778POPC   GL214258   3.399  34.701   9.074
  778POPC   C1A14259   3.788  34.550   8.661
  778POPC   D2A14260   3.491  34.332   8.366
  778POPC   C3A14261   3.354  34.605   8.010
  778POPC   C4A14262   3.678  34.737   7.688
  778POPC   C1B14263   3.147  34.430   8.780
  778POPC   C2B14264   2.975  34.344   8.381
  778POPC   C3B14265   3.049  34.140   8.011
  778POPC   C4B14266   3.082  34.332   7.661
  779POPC   NC314267  38.624   7.361   9.572
  779POPC   PO414268  38.555   7.939   9.366
  779POPC   GL114269  38.640   7.529   9.087
  779POPC   GL214270  38.718   7.136   9.136
  779POPC   C1A14271  38.462   7.294   8.722
  779POPC   D2A14272  38.392   7.085   8.314
  779POPC   C3A14273  38.218   7.284   7.896
  779POPC   C4A14274  38.175   7.610   7.530
  779POPC   C1B14275  38.841   6.949   8.722
  779POPC   C2B14276  38.820   6.792   8.276
  779POPC   C3B14277  38.728   7.051   7.900
  779POPC   C4B14278  38.670   7.474   7.667
  780POPC   NC314279   9.875  35.908   9.659
  780POPC   PO414280   9.994  35.281   9.597
  780POPC   GL114281   9.752  35.535   9.281
  780POPC   GL214282   9.454  35.335   9.227
  780POPC   C1A14283   9.823  35.566   8.821
  780POPC   D2A14284   9.791  35.289   8.442
  780POPC   C3A14285   9.909  35.446   8.034
  780POPC   C4A14286  10.056  35.284   7.641
  780POPC   C1B14287   9.385  35.323   8.786
  780POPC   C2B14288   9.270  35.366   8.351
  780POPC   C3B14289   9.399  35.495   7.932
  780POPC   C4B14290   9.561  35.173   7.682
  781POPC   NC314291  27.844  35.569   9.449
  781POPC   PO414292  27.510  34.946   9.446
  781POPC   GL114293  27.785  35.148   9.152
  781POPC   GL214294  27.550  35.414   9.063
  781POPC   C1A14295  27.951  35.395   8.778
  781POPC   D2A14296  27.774  35.557   8.426
  781POPC   C3A14297  27.675  35.328   8.055
  781POPC   C4A14298  27.430  35.572   7.743
  781POPC   C1B14299  27.437  35.162   8.697
  781POPC   C2B14300  27.370  34.983   8.278
  781POPC   C3B14301  27.211  35.109   7.857
  781POPC   C4B14302  27.373  35.168   7.407
  782POPC   NC314303   4.452   0.229   9.523
  782POPC   PO414304   4.006   0.754   9.511
  782POPC   GL114305   4.171   0.693   9.135
  782POPC   GL214306   4.475   0.659   9.157
  782POPC   C1A14307   4.240   0.813   8.718
  782POPC   D2A14308   4.097   0.841   8.291
  782POPC   C3A14309   4.263   0.519   8.019
  782POPC   C4A14310   4.550   0.552   7.628
  782POPC   C1B14311   4.605   0.384   8.848
  782POPC   C2B14312   4.627   0.278   8.430
  782POPC   C3B14313   4.688   0.257   8.004
  782POPC   C4B14314   4.405   0.042   7.726
  783POPC   NC314315  35.628  42.881   9.557
  783POPC   PO414316  35.266  43.349   9.594
  783POPC   GL114317  35.416  43.244   9.207
  783POPC   GL214318  35.621  43.500   9.026
  783POPC   C1A14319  35.588  42.966   8.904
  783POPC   D2A14320  35.607  43.040   8.472
  783POPC   C3A14321  35.415  42.754   8.231
  783POPC   C4A14322  35.463  42.888   7.852
  783POPC   C1B14323  35.285  43.358   8.728
  783POPC   C2B14324  35.115  43.165   8.386
  783POPC   C3B14325  35.050  43.365   8.038
  783POPC   C4B14326  35.268  43.321   7.718
  784POPC   NC314327  44.259  35.909   9.388
  784POPC   PO414328  43.853  36.421   9.480
  784POPC   GL114329  43.800  36.183   9.101
  784POPC   GL214330  43.824  35.814   9.090
  784POPC   C1A14331  43.605  36.076   8.710
  784POPC   D2A14332  43.873  36.138   8.394
  784POPC   C3A14333  43.803  36.265   8.010
  784POPC   C4A14334  43.817  36.414   7.617
  784POPC   C1B14335  44.054  35.745   8.663
  784POPC   C2B14336  44.138  35.752   8.178
  784POPC   C3B14337  44.066  35.923   7.737
  784POPC   C4B14338  43.990  35.655   7.367
  785POPC   NC314339  31.999  24.385   9.470
  785POPC   PO414340  32.573  24.801   9.416
  785POPC   GL114341  32.266  24.664   9.122
  785POPC   GL214342  32.307  24.317   9.078
  785POPC   C1A14343  32.218  24.641   8.684
  785POPC   D2A14344  32.523  24.441   8.452
  785POPC   C3A14345  32.461  24.392   8.031
  785POPC   C4A14346  32.102  24.488   7.809
  785POPC   C1B14347  32.134  24.159   8.705
  785POPC   C2B14348  32.031  24.283   8.306
  785POPC   C3B14349  32.109  24.020   7.958
  785POPC   C4B14350  31.997  24.008   7.533
  786POPC   NC314351  31.030  30.933   9.605
  786POPC   PO414352  30.567  30.483   9.483
  786POPC   GL114353  30.853  30.684   9.206
  786POPC   GL214354  30.631  30.593   8.977
  786POPC   C1A14355  31.056  30.810   8.826
  786POPC   D2A14356  30.877  30.593   8.483
  786POPC   C3A14357  31.127  30.485   8.102
  786POPC   C4A14358  31.131  30.669   7.714
  786POPC   C1B14359  30.322  30.614   8.685
  786POPC   C2B14360  30.406  30.742   8.296
  786POPC   C3B14361  30.757  30.863   8.061
  786POPC   C4B14362  30.606  30.723   7.704
  787POPC   NC314363   0.312  24.205   9.529
  787POPC   PO414364   0.653  24.817   9.547
  787POPC   GL114365   0.559  24.561   9.230
  787POPC   GL214366   0.231  24.571   9.064
  787POPC   C1A14367   0.672  24.470   8.833
  787POPC   D2A14368   0.371  24.386   8.534
  787POPC   C3A14369   0.625  24.264   8.214
  787POPC   C4A14370   0.675  24.461   7.860
  787POPC   C1B14371  44.962  24.624   8.712
  787POPC   C2B14372   0.065  24.749   8.335
  787POPC   C3B14373   0.189  24.500   8.026
  787POPC   C4B14374   0.017  24.417   7.629
  788POPC   NC314375   4.655   6.665   9.350
  788POPC   PO414376   5.120   6.248   9.617
  788POPC   GL114377   5.111   6.470   9.177
  788POPC   GL214378   5.102   6.846   9.143
  788POPC   C1A14379   4.886   6.535   8.756
  788POPC   D2A14380   4.976   6.625   8.333
  788POPC   C3A14381   4.744   6.549   7.960
  788POPC   C4A14382   4.960   6.472   7.542
  788POPC   C1B14383   5.204   6.953   8.696
  788POPC   C2B14384   5.423   6.862   8.291
  788POPC   C3B14385   5.229   6.770   7.885
  788POPC   C4B14386   4.834   6.961   7.663
  789POPC   NC314387  22.777  40.425   9.619
  789POPC   PO414388  22.800  41.079   9.397
  789POPC   GL114389  22.860  40.709   9.193
  789POPC   GL214390  23.005  40.390   9.153
  789POPC   C1A14391  22.842  40.712   8.752
  789POPC   D2A14392  23.130  40.946   8.485
  789POPC   C3A14393  23.049  40.923   8.050
  789POPC   C4A14394  22.802  40.636   7.769
  789POPC   C1B14395  23.199  40.373   8.725
  789POPC   C2B14396  23.033  40.465   8.291
  789POPC   C3B14397  23.280  40.499   7.899
  789POPC   C4B14398  23.190  40.527   7.462
  790POPC   NC314399  14.541  29.009   9.320
  790POPC   PO414400  14.216  29.604   9.524
  790POPC   GL114401  14.195  29.518   9.090
  790POPC   GL214402  14.374  29.224   8.919
  790POPC   C1A14403  13.979  29.432   8.715
  790POPC   D2A14404  13.916  29.608   8.347
  790POPC   C3A14405  14.055  29.431   7.950
  790POPC   C4A14406  14.431  29.153   7.847
  790POPC   C1B14407  14.495  28.934   8.617
  790POPC   C2B14408  14.440  28.791   8.219
  790POPC   C3B14409  14.409  28.554   7.864
  790POPC   C4B14410  14.242  28.569   7.447
  791POPC   NC314411  30.329  36.828   9.585
  791POPC   PO414412  30.708  37.403   9.609
  791POPC   GL114413  30.551  37.169   9.234
  791POPC   GL214414  30.887  36.992   9.146
  791POPC   C1A14415  30.417  37.132   8.760
  791POPC   D2A14416  30.685  37.022   8.386
  791POPC   C3A14417  30.497  37.037   7.954
  791POPC   C4A14418  30.609  37.211   7.562
  791POPC   C1B14419  30.717  36.693   8.829
  791POPC   C2B14420  30.841  36.517   8.421
  791POPC   C3B14421  30.987  36.742   8.067
  791POPC   C4B14422  30.828  36.768   7.677
  792POPC   NC314423  31.246  24.872   9.995
  792POPC   PO414424  31.587  24.636   9.437
  792POPC   GL114425  31.541  24.794   9.060
  792POPC   GL214426  31.795  24.554   8.953
  792POPC   C1A14427  31.428  24.726   8.631
  792POPC   D2A14428  31.522  24.496   8.251
  792POPC   C3A14429  31.216  24.449   7.947
  792POPC   C4A14430  31.396  24.762   7.726
  792POPC   C1B14431  31.624  24.240   8.681
  792POPC   C2B14432  31.612  23.996   8.287
  792POPC   C3B14433  31.628  24.149   7.866
  792POPC   C4B14434  31.495  24.025   7.446
  793POPC   NC314435   7.971  23.484   9.552
  793POPC   PO414436   8.444  23.925   9.529
  793POPC   GL114437   8.234  23.714   9.188
  793POPC   GL214438   8.452  23.427   9.148
  793POPC   C1A14439   8.264  23.765   8.763
  793POPC   D2A14440   8.496  23.868   8.444
  793POPC   C3A14441   8.311  23.686   8.074
  793POPC   C4A14442   8.430  23.752   7.697
  793POPC   C1B14443   8.273  23.255   8.778
  793POPC   C2B14444   8.067  23.374   8.420
  793POPC   C3B14445   8.101  23.215   8.007
  793POPC   C4B14446   8.108  23.375   7.610
  794POPC   NC314447  42.271  32.587   9.550
  794POPC   PO414448  42.130  31.955   9.484
  794POPC   GL114449  42.379  32.086   9.114
  794POPC   GL214450  42.417  32.420   9.061
  794POPC   C1A14451  42.283  32.127   8.681
  794POPC   D2A14452  42.001  32.230   8.389
  794POPC   C3A14453  42.199  32.202   8.003
  794POPC   C4A14454  42.331  31.982   7.651
  794POPC   C1B14455  42.749  32.300   8.765
  794POPC   C2B14456  42.852  32.307   8.350
  794POPC   C3B14457  42.681  32.396   7.935
  794POPC   C4B14458  42.742  32.235   7.500
  795POPC   NC314459   9.175  34.612   9.509
  795POPC   PO414460   8.528  34.499   9.570
  795POPC   GL114461   8.806  34.475   9.171
  795POPC   GL214462   8.786  34.813   9.048
  795POPC   C1A14463   9.003  34.325   8.740
  795POPC   D2A14464   9.036  34.075   8.335
  795POPC   C3A14465   9.097  34.346   7.997
  795POPC   C4A14466   8.826  34.695   7.868
  795POPC   C1B14467   9.221  34.825   8.870
  795POPC   C2B14468   9.485  34.887   8.496
  795POPC   C3B14469   9.430  34.816   8.058
  795POPC   C4B14470   9.301  34.660   7.658
  796POPC   NC314471   7.130  33.660   9.494
  796POPC   PO414472   7.822  33.911   9.518
  796POPC   GL114473   7.549  33.755   9.191
  796POPC   GL214474   7.736  33.477   9.116
  796POPC   C1A14475   7.249  33.584   8.839
  796POPC   D2A14476   7.096  33.402   8.441
  796POPC   C3A14477   7.258  33.611   8.084
  796POPC   C4A14478   7.239  34.066   7.922
  796POPC   C1B14479   7.764  33.671   8.736
  796POPC   C2B14480   7.839  33.978   8.427
  796POPC   C3B14481   7.727  33.854   8.034
  796POPC   C4B14482   7.714  33.458   7.858
  797POPC   NC314483   9.945  12.461   9.368
  797POPC   PO414484   9.605  13.103   9.400
  797POPC   GL114485   9.757  12.885   9.039
  797POPC   GL214486   9.582  12.553   9.017
  797POPC   C1A14487   9.816  13.017   8.599
  797POPC   D2A14488   9.531  13.184   8.274
  797POPC   C3A14489   9.582  13.016   7.878
  797POPC   C4A14490   9.983  12.884   7.708
  797POPC   C1B14491   9.892  12.515   8.664
  797POPC   C2B14492   9.927  12.644   8.213
  797POPC   C3B14493   9.682  12.514   7.844
  797POPC   C4B14494   9.701  12.595   7.375
  798POPC   NC314495   5.160  37.520   9.504
  798POPC   PO414496   4.909  36.914   9.452
  798POPC   GL114497   5.230  36.883   9.148
  798POPC   GL214498   5.213  37.243   9.067
  798POPC   C1A14499   5.217  36.717   8.716
  798POPC   D2A14500   5.150  36.538   8.322
  798POPC   C3A14501   4.941  36.686   7.974
  798POPC   C4A14502   5.221  36.610   7.694
  798POPC   C1B14503   4.843  37.068   8.818
  798POPC   C2B14504   4.914  37.029   8.389
  798POPC   C3B14505   5.282  37.017   8.139
  798POPC   C4B14506   5.187  37.136   7.730
  799POPC   NC314507   4.348  22.947   9.551
  799POPC   PO414508   4.527  22.357   9.748
  799POPC   GL114509   4.454  22.510   9.317
  799POPC   GL214510   4.122  22.537   9.195
  799POPC   C1A14511   4.485  22.720   8.894
  799POPC   D2A14512   4.279  22.970   8.590
  799POPC   C3A14513   4.409  22.921   8.163
  799POPC   C4A14514   4.618  22.908   7.775
  799POPC   C1B14515   3.990  22.533   8.781
  799POPC   C2B14516   3.890  22.694   8.381
  799POPC   C3B14517   3.893  23.021   8.103
  799POPC   C4B14518   4.118  22.995   7.727
  800POPC   NC314519   0.914  41.284   9.629
  800POPC   PO414520   0.414  40.965   9.374
  800POPC   GL114521   0.664  40.800   9.085
  800POPC   GL214522   0.656  40.420   9.161
  800POPC   C1A14523   0.617  40.968   8.667
  800POPC   D2A14524   0.532  40.775   8.282
  800POPC   C3A14525   0.541  40.972   7.890
  800POPC   C4A14526   0.562  40.718   7.531
  800POPC   C1B14527   0.393  40.493   8.777
  800POPC   C2B14528   0.247  40.367   8.365
  800POPC   C3B14529   0.406  40.393   7.930
  800POPC   C4B14530   0.182  40.417   7.535
  801POPC   NC314531   0.722  25.276   9.584
  801POPC   PO414532   1.402  25.173   9.518
  801POPC   GL114533   1.308  25.311   9.133
  801POPC   GL214534   0.993  25.151   9.180
  801POPC   C1A14535   1.191  25.325   8.701
  801POPC   D2A14536   1.449  25.278   8.357
  801POPC   C3A14537   1.397  25.502   8.016
  801POPC   C4A14538   1.143  25.412   7.631
  801POPC   C1B14539   0.888  24.948   8.828
  801POPC   C2B14540   0.734  25.234   8.483
  801POPC   C3B14541   0.966  25.230   8.113
  801POPC   C4B14542   0.924  24.921   7.764
  802POPC   NC314543  18.138  40.572   9.358
  802POPC   PO414544  18.386  41.154   9.484
  802POPC   GL114545  18.494  40.980   9.042
  802POPC   GL214546  18.167  40.832   8.929
  802POPC   C1A14547  18.532  40.843   8.591
  802POPC   D2A14548  18.088  40.870   8.394
  802POPC   C3A14549  18.180  40.967   7.974
  802POPC   C4A14550  18.495  40.678   7.840
  802POPC   C1B14551  18.228  40.438   8.684
  802POPC   C2B14552  18.327  40.424   8.265
  802POPC   C3B14553  18.145  40.194   7.946
  802POPC   C4B14554  18.187  40.353   7.573
  803POPC   NC314555  17.719   1.472   9.270
  803POPC   PO414556  18.237   0.885   9.325
  803POPC   GL114557  18.074   1.186   9.042
  803POPC   GL214558  18.166   1.555   9.048
  803POPC   C1A14559  17.945   1.265   8.653
  803POPC   D2A14560  17.978   1.004   8.298
  803POPC   C3A14561  18.312   1.114   8.029
  803POPC   C4A14562  18.198   1.292   7.663
  803POPC   C1B14563  18.361   1.577   8.658
  803POPC   C2B14564  18.461   1.559   8.218
  803POPC   C3B14565  18.441   1.723   7.784
  803POPC   C4B14566  18.369   1.717   7.328
  804POPC   NC314567  38.414  43.331   9.535
  804POPC   PO414568  38.895  42.920   9.735
  804POPC   GL114569  38.617  42.906   9.373
  804POPC   GL214570  38.252  42.820   9.320
  804POPC   C1A14571  38.565  43.004   8.929
  804POPC   D2A14572  38.726  43.160   8.550
  804POPC   C3A14573  38.519  43.153   8.139
  804POPC   C4A14574  38.383  43.185   7.691
  804POPC   C1B14575  38.128  42.740   8.877
  804POPC   C2B14576  38.333  42.805   8.485
  804POPC   C3B14577  38.158  42.799   8.077
  804POPC   C4B14578  38.014  42.808   7.671
  805POPC   NC314579  22.307  39.216   9.621
  805POPC   PO414580  21.747  38.803   9.548
  805POPC   GL114581  21.995  38.937   9.155
  805POPC   GL214582  22.298  39.177   9.121
  805POPC   C1A14583  21.954  39.249   8.780
  805POPC   D2A14584  22.220  39.235   8.402
  805POPC   C3A14585  22.102  39.043   7.992
  805POPC   C4A14586  21.878  39.179   7.639
  805POPC   C1B14587  22.297  39.606   8.840
  805POPC   C2B14588  22.228  39.753   8.376
  805POPC   C3B14589  22.347  39.519   7.962
  805POPC   C4B14590  22.352  39.307   7.522
  806POPC   NC314591  28.882   9.494   9.444
  806POPC   PO414592  29.401   9.912   9.470
  806POPC   GL114593  29.184   9.775   9.140
  806POPC   GL214594  28.847   9.946   9.195
  806POPC   C1A14595  29.296   9.672   8.720
  806POPC   D2A14596  29.168   9.705   8.312
  806POPC   C3A14597  29.418   9.655   8.013
  806POPC   C4A14598  29.357   9.825   7.642
  806POPC   C1B14599  29.057  10.157   8.852
  806POPC   C2B14600  29.029  10.193   8.440
  806POPC   C3B14601  29.181  10.153   8.038
  806POPC   C4B14602  28.921  10.132   7.710
  807POPC   NC314603  25.576   9.648   9.515
  807POPC   PO414604  24.959   9.407   9.509
  807POPC   GL114605  25.196   9.613   9.139
  807POPC   GL214606  25.489   9.794   9.061
  807POPC   C1A14607  25.135   9.727   8.705
  807POPC   D2A14608  25.439   9.578   8.440
  807POPC   C3A14609  25.304   9.539   8.020
  807POPC   C4A14610  24.958   9.725   7.766
  807POPC   C1B14611  25.597  10.008   8.703
  807POPC   C2B14612  25.399  10.097   8.306
  807POPC   C3B14613  25.389  10.026   7.852
  807POPC   C4B14614  25.651  10.051   7.452
  808POPC   NC314615  12.667  15.634   9.872
  808POPC   PO414616  12.930  16.129   9.440
  808POPC   GL114617  12.924  15.992   9.048
  808POPC   GL214618  12.623  15.792   9.050
  808POPC   C1A14619  12.954  15.716   8.700
  808POPC   D2A14620  13.082  15.712   8.328
  808POPC   C3A14621  12.801  15.723   8.023
  808POPC   C4A14622  13.060  15.660   7.699
  808POPC   C1B14623  12.612  16.095   8.673
  808POPC   C2B14624  12.948  16.230   8.439
  808POPC   C3B14625  12.851  16.352   8.036
  808POPC   C4B14626  12.836  16.105   7.662
  809POPC   NC314627  31.790  15.455   9.474
  809POPC   PO414628  31.250  15.060   9.397
  809POPC   GL114629  31.366  14.930   9.042
  809POPC   GL214630  31.700  15.090   9.104
  809POPC   C1A14631  31.544  14.955   8.639
  809POPC   D2A14632  31.716  15.279   8.402
  809POPC   C3A14633  31.786  15.159   7.989
  809POPC   C4A14634  31.447  15.037   7.739
  809POPC   C1B14635  31.456  15.415   8.862
  809POPC   C2B14636  31.358  15.638   8.481
  809POPC   C3B14637  31.360  15.464   8.065
  809POPC   C4B14638  31.567  15.545   7.710
  810POPC   NC314639  17.969  44.082   9.464
  810POPC   PO414640  17.387  43.773   9.505
  810POPC   GL114641  17.612  43.913   9.140
  810POPC   GL214642  17.355  44.101   9.104
  810POPC   C1A14643  17.770  43.856   8.683
  810POPC   D2A14644  17.613  43.568   8.353
  810POPC   C3A14645  17.533  43.631   7.903
  810POPC   C4A14646  17.470  43.957   7.572
  810POPC   C1B14647  17.250  43.771   8.819
  810POPC   C2B14648  17.277  43.940   8.435
  810POPC   C3B14649  17.273  44.078   8.027
  810POPC   C4B14650  17.036  43.770   7.795
  811POPC   NC314651  28.161   7.124   9.381
  811POPC   PO414652  28.110   7.733   9.212
  811POPC   GL114653  28.492   7.539   9.045
  811POPC   GL214654  28.525   7.158   9.026
  811POPC   C1A14655  28.529   7.449   8.618
  811POPC   D2A14656  28.207   7.452   8.319
  811POPC   C3A14657  28.418   7.659   7.985
  811POPC   C4A14658  28.822   7.458   7.804
  811POPC   C1B14659  28.137   7.103   8.746
  811POPC   C2B14660  27.874   7.055   8.373
  811POPC   C3B14661  28.017   6.927   8.010
  811POPC   C4B14662  28.372   7.173   7.850
  812POPC   NC314663   9.312  41.082   9.144
  812POPC   PO414664   8.818  41.008   9.597
  812POPC   GL114665   8.900  40.727   9.185
  812POPC   GL214666   9.140  40.488   9.004
  812POPC   C1A14667   8.833  40.817   8.740
  812POPC   D2A14668   9.086  41.107   8.484
  812POPC   C3A14669   9.405  40.976   8.134
  812POPC   C4A14670   9.349  40.784   7.711
  812POPC   C1B14671   9.272  40.567   8.568
  812POPC   C2B14672   9.002  40.659   8.218
  812POPC   C3B14673   8.884  40.636   7.796
  812POPC   C4B14674   8.832  40.353   7.448
  813POPC   NC314675   0.690  19.540   9.728
  813POPC   PO414676   0.501  20.107   9.426
  813POPC   GL114677   0.260  19.940   9.105
  813POPC   GL214678   0.162  20.311   9.068
  813POPC   C1A14679   0.286  19.709   8.685
  813POPC   D2A14680   0.248  19.868   8.241
  813POPC   C3A14681   0.512  19.888   7.821
  813POPC   C4A14682   0.635  19.912   7.341
  813POPC   C1B14683   0.449  20.206   8.721
  813POPC   C2B14684   0.599  20.243   8.312
  813POPC   C3B14685   0.328  20.334   7.958
  813POPC   C4B14686   0.273  20.237   7.511
  814POPC   NC314687  41.081  27.351   9.648
  814POPC   PO414688  40.506  27.697   9.798
  814POPC   GL114689  40.558  27.733   9.322
  814POPC   GL214690  40.896  27.600   9.230
  814POPC   C1A14691  40.669  27.900   8.880
  814POPC   D2A14692  40.996  27.768   8.568
  814POPC   C3A14693  40.918  27.855   8.117
  814POPC   C4A14694  40.667  27.588   7.842
  814POPC   C1B14695  41.082  27.316   8.937
  814POPC   C2B14696  41.212  27.286   8.523
  814POPC   C3B14697  41.059  27.351   8.121
  814POPC   C4B14698  41.053  27.246   7.696
  815POPC   NC314699  38.899  16.503   9.626
  815POPC   PO414700  38.312  16.904   9.610
  815POPC   GL114701  38.309  16.877   9.180
  815POPC   GL214702  38.649  16.762   9.225
  815POPC   C1A14703  38.323  16.743   8.737
  815POPC   D2A14704  38.256  16.521   8.338
  815POPC   C3A14705  38.410  16.800   8.016
  815POPC   C4A14706  38.282  17.101   7.727
  815POPC   C1B14707  38.832  16.637   8.830
  815POPC   C2B14708  38.756  16.733   8.404
  815POPC   C3B14709  38.822  16.513   8.023
  815POPC   C4B14710  38.969  16.629   7.651
  816POPC   NC314711   8.742  28.172   9.487
  816POPC   PO414712   8.966  28.834   9.527
  816POPC   GL114713   8.844  28.600   9.144
  816POPC   GL214714   8.899  28.268   9.019
  816POPC   C1A14715   8.813  28.653   8.688
  816POPC   D2A14716   8.993  28.416   8.391
  816POPC   C3A14717   9.022  28.577   8.010
  816POPC   C4A14718   9.264  28.506   7.666
  816POPC   C1B14719   9.038  27.979   8.691
  816POPC   C2B14720   8.987  27.927   8.251
  816POPC   C3B14721   9.015  27.988   7.799
  816POPC   C4B14722   9.156  27.796   7.376
  817POPC   NC314723  16.975  43.545   9.474
  817POPC   PO414724  16.422  43.138   9.696
  817POPC   GL114725  16.557  43.160   9.188
  817POPC   GL214726  16.744  42.851   9.047
  817POPC   C1A14727  16.791  43.238   8.747
  817POPC   D2A14728  16.703  43.015   8.319
  817POPC   C3A14729  16.867  43.284   8.005
  817POPC   C4A14730  16.709  43.423   7.619
  817POPC   C1B14731  16.917  42.681   8.672
  817POPC   C2B14732  17.039  42.523   8.271
  817POPC   C3B14733  16.967  42.777   7.916
  817POPC   C4B14734  16.733  42.891   7.566
  818POPC   NC314735  26.083  35.583   9.527
  818POPC   PO414736  25.880  34.924   9.450
  818POPC   GL114737  25.971  35.180   9.055
  818POPC   GL214738  26.247  35.426   9.078
  818POPC   C1A14739  25.993  35.399   8.628
  818POPC   D2A14740  25.670  35.517   8.339
  818POPC   C3A14741  25.726  35.503   7.906
  818POPC   C4A14742  25.770  35.099   7.831
  818POPC   C1B14743  26.451  35.172   8.779
  818POPC   C2B14744  26.442  35.268   8.381
  818POPC   C3B14745  26.166  35.329   8.098
  818POPC   C4B14746  26.283  35.434   7.719
  819POPC   NC314747   0.625  32.677   9.444
  819POPC   PO414748   0.082  33.073   9.483
  819POPC   GL114749   0.363  32.984   9.121
  819POPC   GL214750   0.215  33.209   8.953
  819POPC   C1A14751   0.562  32.825   8.707
  819POPC   D2A14752   0.441  32.748   8.238
  819POPC   C3A14753   0.746  32.862   7.909
  819POPC   C4A14754   0.648  32.947   7.484
  819POPC   C1B14755   0.107  33.023   8.612
  819POPC   C2B14756   0.337  33.231   8.304
  819POPC   C3B14757   0.304  33.147   7.892
  819POPC   C4B14758   0.089  33.430   7.662
  820POPC   NC314759  10.882  39.265   9.680
  820POPC   PO414760  10.213  39.207   9.541
  820POPC   GL114761  10.270  39.269   9.109
  820POPC   GL214762  10.520  39.493   9.204
  820POPC   C1A14763  10.458  39.172   8.711
  820POPC   D2A14764  10.828  39.091   8.448
  820POPC   C3A14765  10.734  39.163   8.019
  820POPC   C4A14766  10.367  39.052   7.797
  820POPC   C1B14767  10.625  39.679   8.808
  820POPC   C2B14768  10.679  39.569   8.379
  820POPC   C3B14769  10.405  39.589   8.033
  820POPC   C4B14770  10.572  39.496   7.643
  821POPC   NC314771  22.345  19.746   9.416
  821POPC   PO414772  22.018  20.348   9.481
  821POPC   GL114773  22.061  20.054   9.129
  821POPC   GL214774  21.892  19.731   9.115
  821POPC   C1A14775  22.270  19.890   8.751
  821POPC   D2A14776  22.174  19.712   8.354
  821POPC   C3A14777  22.493  19.614   8.044
  821POPC   C4A14778  22.360  19.746   7.637
  821POPC   C1B14779  21.841  19.510   8.723
  821POPC   C2B14780  21.956  19.237   8.391
  821POPC   C3B14781  22.032  19.379   7.980
  821POPC   C4B14782  21.944  19.482   7.529
  822POPC   NC314783  23.966  43.819   9.541
  822POPC   PO414784  24.635  43.873   9.468
  822POPC   GL114785  24.322  43.886   9.135
  822POPC   GL214786  24.316  44.198   8.933
  822POPC   C1A14787  24.112  43.768   8.754
  822POPC   D2A14788  23.992  43.888   8.332
  822POPC   C3A14789  24.242  43.821   7.943
  822POPC   C4A14790  24.291  43.585   7.534
  822POPC   C1B14791  24.564  43.998   8.600
  822POPC   C2B14792  24.610  44.130   8.159
  822POPC   C3B14793  24.676  44.044   7.745
  822POPC   C4B14794  24.657  43.900   7.321
  823POPC   NC314795  40.145  25.708   9.432
  823POPC   PO414796  39.678  26.291   9.522
  823POPC   GL114797  39.955  26.094   9.184
  823POPC   GL214798  40.281  26.171   9.060
  823POPC   C1A14799  39.979  25.840   8.794
  823POPC   D2A14800  39.775  25.963   8.421
  823POPC   C3A14801  39.788  25.781   8.007
  823POPC   C4A14802  39.980  25.763   7.595
  823POPC   C1B14803  40.115  26.332   8.669
  823POPC   C2B14804  40.146  26.296   8.229
  823POPC   C3B14805  40.123  26.226   7.789
  823POPC   C4B14806  40.212  26.155   7.354
  824POPC   NC314807  26.723  29.558   9.360
  824POPC   PO414808  26.511  30.195   9.545
  824POPC   GL114809  26.741  30.030   9.145
  824POPC   GL214810  27.087  29.926   9.178
  824POPC   C1A14811  26.711  29.871   8.690
  824POPC   D2A14812  26.646  29.787   8.221
  824POPC   C3A14813  26.663  30.030   7.846
  824POPC   C4A14814  27.028  30.240   7.676
  824POPC   C1B14815  27.146  29.610   8.825
  824POPC   C2B14816  27.076  29.575   8.401
  824POPC   C3B14817  27.152  29.880   8.073
  824POPC   C4B14818  27.359  29.736   7.724
  825POPC   NC314819  30.123   8.242   9.398
  825POPC   PO414820  29.507   8.074   9.559
  825POPC   GL114821  29.619   8.178   9.130
  825POPC   GL214822  29.888   7.945   9.060
  825POPC   C1A14823  29.664   8.223   8.667
  825POPC   D2A14824  29.841   8.460   8.308
  825POPC   C3A14825  29.789   8.415   7.882
  825POPC   C4A14826  29.629   8.070   7.625
  825POPC   C1B14827  30.134   8.062   8.704
  825POPC   C2B14828  30.015   7.965   8.329
  825POPC   C3B14829  30.053   7.964   7.926
  825POPC   C4B14830  30.389   7.887   7.707
  826POPC   NC314831   7.093  43.287   9.465
  826POPC   PO414832   7.624  42.953   9.434
  826POPC   GL114833   7.680  43.062   9.041
  826POPC   GL214834   7.379  43.260   9.054
  826POPC   C1A14835   7.539  43.061   8.628
  826POPC   D2A14836   7.342  43.320   8.378
  826POPC   C3A14837   7.164  42.978   8.166
  826POPC   C4A14838   7.144  42.757   7.775
  826POPC   C1B14839   7.046  43.456   8.806
  826POPC   C2B14840   6.831  43.402   8.404
  826POPC   C3B14841   7.014  43.456   7.997
  826POPC   C4B14842   7.045  43.250   7.602
  827POPC   NC314843  34.828  43.097   9.464
  827POPC   PO414844  34.348  43.459   9.159
  827POPC   GL114845  34.570  43.139   9.004
  827POPC   GL214846  34.884  43.306   9.006
  827POPC   C1A14847  34.616  43.093   8.570
  827POPC   D2A14848  34.583  43.095   8.136
  827POPC   C3A14849  34.325  43.225   7.764
  827POPC   C4A14850  34.417  42.940   7.410
  827POPC   C1B14851  35.015  42.888   8.817
  827POPC   C2B14852  34.920  42.698   8.398
  827POPC   C3B14853  34.984  42.851   7.961
  827POPC   C4B14854  34.813  43.128   7.644
  828POPC   NC314855  42.865  21.514   9.506
  828POPC   PO414856  43.498  21.198   9.572
  828POPC   GL114857  43.317  21.456   9.255
  828POPC   GL214858  43.384  21.813   9.357
  828POPC   C1A14859  43.023  21.365   8.880
  828POPC   D2A14860  42.949  21.288   8.428
  828POPC   C3A14861  43.158  21.608   8.166
  828POPC   C4A14862  43.257  21.532   7.738
  828POPC   C1B14863  43.270  21.815   8.910
  828POPC   C2B14864  43.456  21.509   8.623
  828POPC   C3B14865  43.665  21.558   8.255
  828POPC   C4B14866  43.588  21.860   7.949
  829POPC   NC314867  19.351   9.798   9.564
  829POPC   PO414868  18.770   9.384   9.560
  829POPC   GL114869  18.894   9.728   9.213
  829POPC   GL214870  19.207   9.962   9.120
  829POPC   C1A14871  18.951   9.740   8.752
  829POPC   D2A14872  19.094   9.493   8.408
  829POPC   C3A14873  18.883   9.723   8.041
  829POPC   C4A14874  18.690   9.586   7.633
  829POPC   C1B14875  19.439   9.921   8.722
  829POPC   C2B14876  19.335   9.916   8.274
  829POPC   C3B14877  19.456   9.823   7.823
  829POPC   C4B14878  19.437   9.902   7.334
  830POPC   NC314879  33.765   2.280   9.645
  830POPC   PO414880  33.589   1.648   9.393
  830POPC   GL114881  33.789   1.919   9.142
  830POPC   GL214882  33.691   2.271   9.139
  830POPC   C1A14883  33.847   1.784   8.742
  830POPC   D2A14884  33.530   1.701   8.437
  830POPC   C3A14885  33.704   1.700   8.052
  830POPC   C4A14886  33.635   1.902   7.678
  830POPC   C1B14887  33.931   2.276   8.733
  830POPC   C2B14888  33.870   2.123   8.303
  830POPC   C3B14889  33.662   2.333   7.918
  830POPC   C4B14890  33.563   2.432   7.459
  831POPC   NC314891  12.008   3.925   9.434
  831POPC   PO414892  12.054   3.322   9.689
  831POPC   GL114893  11.943   3.428   9.230
  831POPC   GL214894  11.992   3.752   8.977
  831POPC   C1A14895  11.847   3.312   8.788
  831POPC   D2A14896  11.872   3.586   8.402
  831POPC   C3A14897  11.793   3.339   8.006
  831POPC   C4A14898  11.893   3.250   7.580
  831POPC   C1B14899  12.310   3.624   8.712
  831POPC   C2B14900  12.402   3.577   8.300
  831POPC   C3B14901  12.141   3.731   7.977
  831POPC   C4B14902  12.260   3.588   7.628
  832POPC   NC314903  20.964  36.293   9.355
  832POPC   PO414904  20.411  36.173   9.666
  832POPC   GL114905  20.287  36.168   9.205
  832POPC   GL214906  20.569  36.337   9.026
  832POPC   C1A14907  20.277  36.016   8.748
  832POPC   D2A14908  20.416  36.080   8.296
  832POPC   C3A14909  20.157  35.895   7.965
  832POPC   C4A14910  20.201  36.076   7.568
  832POPC   C1B14911  20.779  36.079   8.681
  832POPC   C2B14912  20.853  35.819   8.323
  832POPC   C3B14913  20.948  36.111   8.020
  832POPC   C4B14914  20.632  36.026   7.803
  833POPC   NC314915  32.794  31.366   9.481
  833POPC   PO414916  33.507  31.476   9.653
  833POPC   GL114917  33.283  31.328   9.258
  833POPC   GL214918  33.050  31.554   9.065
  833POPC   C1A14919  33.193  31.082   8.873
  833POPC   D2A14920  33.129  31.281   8.451
  833POPC   C3A14921  33.249  31.269   7.995
  833POPC   C4A14922  33.213  31.591   7.702
  833POPC   C1B14923  32.721  31.292   8.810
  833POPC   C2B14924  32.628  31.279   8.362
  833POPC   C3B14925  32.799  31.492   8.024
  833POPC   C4B14926  32.830  31.259   7.649
  834POPC   NC314927  18.172  21.103   9.413
  834POPC   PO414928  18.185  21.671   9.777
  834POPC   GL114929  18.109  21.612   9.305
  834POPC   GL214930  18.421  21.713   9.185
  834POPC   C1A14931  17.991  21.423   8.864
  834POPC   D2A14932  17.959  21.107   8.500
  834POPC   C3A14933  17.931  21.238   8.042
  834POPC   C4A14934  18.300  21.261   7.748
  834POPC   C1B14935  18.474  21.483   8.769
  834POPC   C2B14936  18.325  21.463   8.349
  834POPC   C3B14937  18.192  21.694   7.998
  834POPC   C4B14938  18.468  21.802   7.650
  835POPC   NC314939  20.967  11.572   9.574
  835POPC   PO414940  20.382  11.425   9.325
  835POPC   GL114941  20.742  11.413   9.134
  835POPC   GL214942  20.846  11.095   9.287
  835POPC   C1A14943  20.707  11.438   8.713
  835POPC   D2A14944  20.451  11.293   8.392
  835POPC   C3A14945  20.604  11.335   8.024
  835POPC   C4A14946  20.615  11.641   7.765
  835POPC   C1B14947  21.019  11.067   8.883
  835POPC   C2B14948  21.002  11.120   8.443
  835POPC   C3B14949  21.016  11.043   8.017
  835POPC   C4B14950  20.674  10.875   7.769
  836POPC   NC314951  35.799  40.126   9.481
  836POPC   PO414952  36.399  39.860   9.430
  836POPC   GL114953  36.392  39.910   9.021
  836POPC   GL214954  36.026  39.980   9.043
  836POPC   C1A14955  36.555  39.734   8.630
  836POPC   D2A14956  36.485  39.651   8.206
  836POPC   C3A14957  36.462  39.953   7.856
  836POPC   C4A14958  36.461  40.340   7.629
  836POPC   C1B14959  36.132  40.040   8.614
  836POPC   C2B14960  36.094  39.973   8.204
  836POPC   C3B14961  36.002  40.256   7.874
  836POPC   C4B14962  35.617  40.458   7.770
  837POPC   NC314963   4.076  28.442   9.478
  837POPC   PO414964   4.585  28.864   9.302
  837POPC   GL114965   4.381  28.540   9.103
  837POPC   GL214966   4.549  28.207   9.143
  837POPC   C1A14967   4.241  28.325   8.743
  837POPC   D2A14968   4.393  28.043   8.430
  837POPC   C3A14969   4.200  28.120   8.026
  837POPC   C4A14970   3.943  28.470   7.859
  837POPC   C1B14971   4.742  28.468   8.776
  837POPC   C2B14972   4.796  28.722   8.418
  837POPC   C3B14973   4.496  28.600   8.112
  837POPC   C4B14974   4.532  28.493   7.698
  838POPC   NC314975  12.554  17.975   9.544
  838POPC   PO414976  13.020  18.454   9.519
  838POPC   GL114977  12.886  18.178   9.180
  838POPC   GL214978  12.522  18.221   9.106
  838POPC   C1A14979  12.866  18.157   8.717
  838POPC   D2A14980  12.845  18.545   8.443
  838POPC   C3A14981  12.731  18.408   8.068
  838POPC   C4A14982  12.912  18.048   7.840
  838POPC   C1B14983  12.391  18.394   8.720
  838POPC   C2B14984  12.411  18.137   8.383
  838POPC   C3B14985  12.397  17.996   8.005
  838POPC   C4B14986  12.401  18.278   7.697
  839POPC   NC314987  29.362  11.584   9.687
  839POPC   PO414988  29.986  11.333   9.462
  839POPC   GL114989  30.133  11.438   9.095
  839POPC   GL214990  30.281  11.084   9.117
  839POPC   C1A14991  29.973  11.565   8.711
  839POPC   D2A14992  29.920  11.282   8.429
  839POPC   C3A14993  29.956  11.464   8.078
  839POPC   C4A14994  30.109  11.457   7.709
  839POPC   C1B14995  30.131  10.947   8.766
  839POPC   C2B14996  30.381  10.871   8.438
  839POPC   C3B14997  30.255  11.056   8.094
  839POPC   C4B14998  30.265  10.986   7.700
  840POPC   NC314999  21.027  31.975   9.351
  840POPC   PO415000  20.677  32.499   9.487
  840POPC   GL115001  20.601  32.298   9.095
  840POPC   GL215002  20.264  32.100   9.097
  840POPC   C1A15003  20.768  32.405   8.660
  840POPC   D2A15004  21.156  32.361   8.416
  840POPC   C3A15005  21.077  32.415   7.990
  840POPC   C4A15006  20.726  32.283   7.741
  840POPC   C1B15007  20.259  32.378   8.733
  840POPC   C2B15008  20.360  32.342   8.282
  840POPC   C3B15009  20.273  32.491   7.883
  840POPC   C4B15010  20.272  32.237   7.499
  841POPC   NC315011  14.743  27.065   9.441
  841POPC   PO415012  14.124  26.822   9.537
  841POPC   GL115013  14.406  26.787   9.194
  841POPC   GL215014  14.218  26.575   9.058
  841POPC   C1A15015  14.442  26.979   8.799
  841POPC   D2A15016  14.222  26.803   8.440
  841POPC   C3A15017  14.522  26.811   8.128
  841POPC   C4A15018  14.691  27.047   7.754
  841POPC   C1B15019  13.957  26.461   8.778
  841POPC   C2B15020  13.827  26.421   8.403
  841POPC   C3B15021  14.003  26.532   8.043
  841POPC   C4B15022  14.214  26.761   7.736
  842POPC   NC315023  36.813   0.820   9.400
  842POPC   PO415024  36.510   0.191   9.351
  842POPC   GL115025  36.650   0.503   9.035
  842POPC   GL215026  36.992   0.437   8.987
  842POPC   C1A15027  36.753   0.667   8.614
  842POPC   D2A15028  37.046   0.633   8.290
  842POPC   C3A15029  36.768   0.755   7.989
  842POPC   C4A15030  36.569   0.516   7.682
  842POPC   C1B15031  36.809   0.139   8.681
  842POPC   C2B15032  36.719  44.912   8.301
  842POPC   C3B15033  36.919  44.997   7.894
  842POPC   C4B15034  37.121   0.400   7.828
  843POPC   NC315035  10.709  34.137   9.281
  843POPC   PO415036  10.382  34.673   9.660
  843POPC   GL115037  10.342  34.501   9.209
  843POPC   GL215038  10.207  34.759   9.042
  843POPC   C1A15039  10.422  34.419   8.717
  843POPC   D2A15040  10.697  34.450   8.343
  843POPC   C3A15041  10.518  34.541   7.959
  843POPC   C4A15042  10.169  34.354   7.779
  843POPC   C1B15043  10.621  34.865   8.859
  843POPC   C2B15044  10.920  34.878   8.535
  843POPC   C3B15045  10.890  34.865   8.102
  843POPC   C4B15046  10.822  34.878   7.673
  844POPC   NC315047  23.348  16.055   9.442
  844POPC   PO415048  22.752  15.973   9.534
  844POPC   GL115049  22.830  16.053   9.115
  844POPC   GL215050  23.059  16.323   9.115
  844POPC   C1A15051  23.110  15.897   8.785
  844POPC   D2A15052  23.003  15.637   8.444
  844POPC   C3A15053  22.697  15.809   8.186
  844POPC   C4A15054  22.884  15.780   7.809
  844POPC   C1B15055  23.088  16.397   8.696
  844POPC   C2B15056  22.961  16.206   8.323
  844POPC   C3B15057  22.839  16.307   7.890
  844POPC   C4B15058  22.973  16.136   7.456
  845POPC   NC315059  44.776  19.146   9.829
  845POPC   PO415060  44.582  19.713   9.420
  845POPC   GL115061  44.766  19.800   9.027
  845POPC   GL215062  44.700  20.136   8.971
  845POPC   C1A15063  44.758  19.645   8.624
  845POPC   D2A15064  44.494  19.462   8.319
  845POPC   C3A15065  44.758  19.486   7.967
  845POPC   C4A15066   0.017  19.800   7.799
  845POPC   C1B15067  44.946  20.168   8.586
  845POPC   C2B15068  44.846  20.212   8.131
  845POPC   C3B15069  44.533  19.986   7.909
  845POPC   C4B15070  44.230  19.985   7.548
  846POPC   NC315071  32.730  11.465   9.496
  846POPC   PO415072  33.455  11.315   9.570
  846POPC   GL115073  33.176  11.376   9.218
  846POPC   GL215074  32.920  11.099   9.200
  846POPC   C1A15075  33.159  11.502   8.785
  846POPC   D2A15076  33.329  11.599   8.373
  846POPC   C3A15077  33.226  11.729   7.963
  846POPC   C4A15078  33.338  11.473   7.634
  846POPC   C1B15079  33.005  10.999   8.803
  846POPC   C2B15080  32.862  11.197   8.449
  846POPC   C3B15081  33.050  11.233   8.068
  846POPC   C4B15082  32.938  11.142   7.672
  847POPC   NC315083  32.360  41.304   9.442
  847POPC   PO415084  32.596  41.956   9.384
  847POPC   GL115085  32.351  41.717   9.079
  847POPC   GL215086  32.481  41.415   8.973
  847POPC   C1A15087  32.180  41.787   8.657
  847POPC   D2A15088  31.961  41.747   8.245
  847POPC   C3A15089  32.265  41.726   7.890
  847POPC   C4A15090  32.239  41.870   7.445
  847POPC   C1B15091  32.170  41.275   8.704
  847POPC   C2B15092  32.319  41.350   8.292
  847POPC   C3B15093  32.133  41.221   7.919
  847POPC   C4B15094  31.991  41.404   7.554
  848POPC   NC315095  13.624  43.561   9.576
  848POPC   PO415096  13.854  42.914   9.666
  848POPC   GL115097  13.843  43.079   9.220
  848POPC   GL215098  13.535  43.191   9.191
  848POPC   C1A15099  13.908  43.195   8.754
  848POPC   D2A15100  14.109  43.269   8.343
  848POPC   C3A15101  13.844  43.226   7.955
  848POPC   C4A15102  13.659  42.826   7.723
  848POPC   C1B15103  13.407  43.109   8.759
  848POPC   C2B15104  13.516  43.273   8.363
  848POPC   C3B15105  13.339  43.169   7.954
  848POPC   C4B15106  13.236  43.375   7.571
  849POPC   NC315107  14.810  12.341   9.285
  849POPC   PO415108  15.416  12.031   9.600
  849POPC   GL115109  15.234  11.891   9.215
  849POPC   GL215110  15.233  12.189   9.093
  849POPC   C1A15111  15.377  11.870   8.749
  849POPC   D2A15112  15.134  11.964   8.385
  849POPC   C3A15113  15.336  11.929   8.018
  849POPC   C4A15114  15.276  12.188   7.683
  849POPC   C1B15115  15.077  12.334   8.712
  849POPC   C2B15116  14.832  12.443   8.312
  849POPC   C3B15117  14.972  12.561   7.867
  849POPC   C4B15118  15.006  12.461   7.353
  850POPC   NC315119   8.933  25.665   9.785
  850POPC   PO415120   9.328  25.241   9.485
  850POPC   GL115121   8.934  25.309   9.245
  850POPC   GL215122   9.177  25.331   9.020
  850POPC   C1A15123   8.776  25.500   8.813
  850POPC   D2A15124   8.904  25.596   8.347
  850POPC   C3A15125   9.227  25.701   8.055
  850POPC   C4A15126   9.005  25.669   7.650
  850POPC   C1B15127   9.244  25.351   8.646
  850POPC   C2B15128   9.223  25.151   8.277
  850POPC   C3B15129   8.979  25.255   7.944
  850POPC   C4B15130   9.240  25.225   7.579
  851POPC   NC315131  43.387  36.716   9.809
  851POPC   PO415132  42.864  36.288   9.535
  851POPC   GL115133  42.964  36.257   9.143
  851POPC   GL215134  43.285  36.160   9.103
  851POPC   C1A15135  42.849  36.141   8.755
  851POPC   D2A15136  43.104  36.060   8.423
  851POPC   C3A15137  42.822  36.179   8.115
  851POPC   C4A15138  42.773  36.060   7.720
  851POPC   C1B15139  43.266  36.455   8.729
  851POPC   C2B15140  43.441  36.452   8.326
  851POPC   C3B15141  43.289  36.330   7.926
  851POPC   C4B15142  43.448  35.971   7.771
  852POPC   NC315143  44.162  26.212   9.451
  852POPC   PO415144  43.690  25.737   9.405
  852POPC   GL115145  43.821  25.955   9.086
  852POPC   GL215146  44.107  25.769   9.046
  852POPC   C1A15147  43.595  26.017   8.707
  852POPC   D2A15148  43.363  26.193   8.397
  852POPC   C3A15149  43.556  26.053   8.042
  852POPC   C4A15150  43.738  26.217   7.683
  852POPC   C1B15151  44.080  25.888   8.613
  852POPC   C2B15152  43.931  26.218   8.342
  852POPC   C3B15153  44.151  26.266   7.975
  852POPC   C4B15154  44.213  25.934   7.714
  853POPC   NC315155  10.379  10.948   9.648
  853POPC   PO415156  10.637  10.484   9.555
  853POPC   GL115157  10.584  10.632   9.105
  853POPC   GL215158  10.228  10.701   8.992
  853POPC   C1A15159  10.609  10.623   8.626
  853POPC   D2A15160  10.366  10.517   8.245
  853POPC   C3A15161  10.487  10.623   7.832
  853POPC   C4A15162  10.882  10.605   7.599
  853POPC   C1B15163  10.155  10.889   8.554
  853POPC   C2B15164  10.002  10.976   8.121
  853POPC   C3B15165  10.027  10.851   7.678
  853POPC   C4B15166  10.269  10.630   7.373
  854POPC   NC315167  12.483  31.297   9.407
  854POPC   PO415168  13.158  31.302   9.250
  854POPC   GL115169  12.790  31.412   9.017
  854POPC   GL215170  12.949  31.641   8.794
  854POPC   C1A15171  12.534  31.393   8.643
  854POPC   D2A15172  12.731  31.619   8.298
  854POPC   C3A15173  12.850  31.369   7.970
  854POPC   C4A15174  12.582  31.302   7.591
  854POPC   C1B15175  13.092  31.323   8.539
  854POPC   C2B15176  13.339  31.275   8.188
  854POPC   C3B15177  13.327  31.174   7.769
  854POPC   C4B15178  13.084  31.397   7.516
  855POPC   NC315179  17.986  28.244   9.422
  855POPC   PO415180  17.393  28.410   9.638
  855POPC   GL115181  17.502  28.333   9.217
  855POPC   GL215182  17.167  28.413   9.169
  855POPC   C1A15183  17.725  28.364   8.802
  855POPC   D2A15184  17.817  28.159   8.389
  855POPC   C3A15185  17.773  28.457   8.051
  855POPC   C4A15186  17.766  28.375   7.661
  855POPC   C1B15187  17.240  28.232   8.770
  855POPC   C2B15188  17.368  28.446   8.378
  855POPC   C3B15189  17.312  28.316   7.931
  855POPC   C4B15190  17.196  28.527   7.558
  856POPC   NC315191   1.544  18.125   9.527
  856POPC   PO415192   0.896  18.369   9.388
  856POPC   GL115193   0.989  18.253   9.011
  856POPC   GL215194   1.247  18.081   9.134
  856POPC   C1A15195   1.225  18.425   8.696
  856POPC   D2A15196   1.088  18.534   8.294
  856POPC   C3A15197   1.391  18.546   7.993
  856POPC   C4A15198   1.342  18.327   7.628
  856POPC   C1B15199   1.364  17.919   8.790
  856POPC   C2B15200   1.096  17.975   8.475
  856POPC   C3B15201   1.180  18.041   8.059
  856POPC   C4B15202   1.409  17.841   7.776
  857POPC   NC315203   4.230  24.855   9.491
  857POPC   PO415204   4.518  24.200   9.437
  857POPC   GL115205   4.299  24.466   9.176
  857POPC   GL215206   4.556  24.718   9.088
  857POPC   C1A15207   4.033  24.378   8.851
  857POPC   D2A15208   4.066  24.365   8.417
  857POPC   C3A15209   4.314  24.541   8.081
  857POPC   C4A15210   4.186  24.460   7.627
  857POPC   C1B15211   4.495  24.516   8.700
  857POPC   C2B15212   4.525  24.149   8.480
  857POPC   C3B15213   4.782  24.203   8.141
  857POPC   C4B15214   4.671  24.359   7.741
  858POPC   NC315215  27.594  18.035   9.587
  858POPC   PO415216  27.279  18.602   9.714
  858POPC   GL115217  27.282  18.272   9.259
  858POPC   GL215218  27.634  18.172   9.117
  858POPC   C1A15219  27.348  18.398   8.750
  858POPC   D2A15220  27.166  18.393   8.321
  858POPC   C3A15221  27.430  18.443   7.940
  858POPC   C4A15222  27.509  18.634   7.525
  858POPC   C1B15223  27.835  18.178   8.750
  858POPC   C2B15224  27.697  18.274   8.362
  858POPC   C3B15225  27.811  18.110   8.014
  858POPC   C4B15226  27.830  18.260   7.654
  859POPC   NC315227  40.139  29.289   9.545
  859POPC   PO415228  39.648  28.977   9.520
  859POPC   GL115229  39.802  29.267   9.163
  859POPC   GL215230  40.164  29.428   9.078
  859POPC   C1A15231  39.800  29.337   8.751
  859POPC   D2A15232  39.948  29.111   8.425
  859POPC   C3A15233  39.772  29.241   8.065
  859POPC   C4A15234  39.804  29.057   7.680
  859POPC   C1B15235  40.358  29.258   8.713
  859POPC   C2B15236  40.446  29.083   8.327
  859POPC   C3B15237  40.263  29.131   7.924
  859POPC   C4B15238  40.135  29.511   7.722
  860POPC   NC315239  17.093  37.007   9.745
  860POPC   PO415240  17.289  36.469   9.642
  860POPC   GL115241  17.112  36.743   9.265
  860POPC   GL215242  17.186  37.092   9.232
  860POPC   C1A15243  16.978  36.814   8.790
  860POPC   D2A15244  16.739  36.841   8.354
  860POPC   C3A15245  16.869  36.734   7.908
  860POPC   C4A15246  17.144  36.736   7.541
  860POPC   C1B15247  16.981  37.322   8.881
  860POPC   C2B15248  16.789  37.346   8.464
  860POPC   C3B15249  16.881  37.244   8.032
  860POPC   C4B15250  16.817  37.155   7.602
  861POPC   NC315251  17.300   2.959   9.898
  861POPC   PO415252  17.815   2.525   9.587
  861POPC   GL115253  17.663   2.712   9.196
  861POPC   GL215254  17.412   2.914   9.287
  861POPC   C1A15255  17.802   3.055   8.867
  861POPC   D2A15256  17.575   3.214   8.491
  861POPC   C3A15257  17.796   3.107   8.089
  861POPC   C4A15258  17.767   2.947   7.682
  861POPC   C1B15259  17.343   2.830   8.825
  861POPC   C2B15260  17.535   2.717   8.436
  861POPC   C3B15261  17.443   2.598   8.018
  861POPC   C4B15262  17.330   2.661   7.597
  862POPC   NC315263  39.583  31.949   9.469
  862POPC   PO415264  40.109  32.312   9.769
  862POPC   GL115265  40.114  32.119   9.305
  862POPC   GL215266  39.840  32.201   9.126
  862POPC   C1A15267  40.246  32.124   8.833
  862POPC   D2A15268  40.020  32.468   8.607
  862POPC   C3A15269  40.040  32.552   8.156
  862POPC   C4A15270  40.054  32.359   7.778
  862POPC   C1B15271  39.755  32.000   8.733
  862POPC   C2B15272  39.894  32.075   8.284
  862POPC   C3B15273  39.622  32.104   7.907
  862POPC   C4B15274  39.602  32.259   7.471
  863POPC   NC315275  39.219  19.546   9.764
  863POPC   PO415276  39.326  20.066   9.346
  863POPC   GL115277  39.379  19.971   8.955
  863POPC   GL215278  39.544  19.661   9.039
  863POPC   C1A15279  39.045  19.951   8.636
  863POPC   D2A15280  38.941  19.681   8.317
  863POPC   C3A15281  39.049  19.841   7.901
  863POPC   C4A15282  39.241  19.522   7.706
  863POPC   C1B15283  39.392  19.565   8.620
  863POPC   C2B15284  39.440  19.662   8.178
  863POPC   C3B15285  39.627  19.851   7.794
  863POPC   C4B15286  39.934  20.180   7.756
  864POPC   NC315287  31.621  25.713   9.597
  864POPC   PO415288  31.180  25.242   9.703
  864POPC   GL115289  31.315  25.310   9.256
  864POPC   GL215290  31.688  25.288   9.154
  864POPC   C1A15291  31.304  25.207   8.802
  864POPC   D2A15292  31.521  25.168   8.385
  864POPC   C3A15293  31.288  25.193   8.000
  864POPC   C4A15294  31.217  25.560   7.739
  864POPC   C1B15295  31.868  25.043   8.766
  864POPC   C2B15296  31.902  24.824   8.342
  864POPC   C3B15297  31.857  24.936   7.905
  864POPC   C4B15298  31.645  25.247   7.651
  865POPC   NC315299  12.646  27.981   9.447
  865POPC   PO415300  13.301  28.277   9.562
  865POPC   GL115301  12.974  28.278   9.216
  865POPC   GL215302  12.860  28.594   9.095
  865POPC   C1A15303  12.769  28.155   8.786
  865POPC   D2A15304  13.018  28.064   8.396
  865POPC   C3A15305  12.872  28.042   7.970
  865POPC   C4A15306  12.734  28.254   7.606
  865POPC   C1B15307  12.650  28.642   8.711
  865POPC   C2B15308  12.679  28.436   8.331
  865POPC   C3B15309  12.646  28.585   7.954
  865POPC   C4B15310  12.427  28.678   7.568
  866POPC   NC315311   4.251  18.007   9.891
  866POPC   PO415312   4.169  18.668   9.645
  866POPC   GL115313   4.163  18.424   9.191
  866POPC   GL215314   4.521  18.297   9.116
  866POPC   C1A15315   4.277  18.537   8.713
  866POPC   D2A15316   4.520  18.675   8.313
  866POPC   C3A15317   4.399  18.423   7.921
  866POPC   C4A15318   4.128  18.382   7.544
  866POPC   C1B15319   4.337  18.005   8.836
  866POPC   C2B15320   4.298  18.091   8.398
  866POPC   C3B15321   4.425  17.891   8.015
  866POPC   C4B15322   4.465  17.996   7.569
  867POPC   NC315323  39.547  27.169   9.408
  867POPC   PO415324  38.983  26.829   9.562
  867POPC   GL115325  39.170  26.930   9.151
  867POPC   GL215326  39.456  26.688   9.135
  867POPC   C1A15327  39.296  26.971   8.698
  867POPC   D2A15328  39.485  26.897   8.288
  867POPC   C3A15329  39.306  27.105   7.972
  867POPC   C4A15330  39.440  27.160   7.560
  867POPC   C1B15331  39.146  26.498   8.846
  867POPC   C2B15332  39.017  26.600   8.432
  867POPC   C3B15333  39.122  26.564   8.007
  867POPC   C4B15334  39.087  26.760   7.605
  868POPC   NC315335   8.234  34.148   9.616
  868POPC   PO415336   7.959  34.737   9.413
  868POPC   GL115337   8.184  34.744   9.067
  868POPC   GL215338   8.295  34.430   9.119
  868POPC   C1A15339   8.045  34.646   8.666
  868POPC   D2A15340   7.962  34.461   8.288
  868POPC   C3A15341   7.952  34.775   7.981
  868POPC   C4A15342   8.052  34.796   7.582
  868POPC   C1B15343   8.536  34.547   8.721
  868POPC   C2B15344   8.437  34.662   8.309
  868POPC   C3B15345   8.377  34.480   7.905
  868POPC   C4B15346   8.700  34.202   7.684
  869POPC   NC315347   9.388  14.560   9.788
  869POPC   PO415348  10.003  14.446   9.741
  869POPC   GL115349   9.676  14.404   9.336
  869POPC   GL215350   9.776  14.133   9.068
  869POPC   C1A15351   9.683  14.576   8.876
  869POPC   D2A15352   9.502  14.643   8.484
  869POPC   C3A15353   9.778  14.566   8.161
  869POPC   C4A15354   9.611  14.507   7.790
  869POPC   C1B15355   9.690  13.943   8.694
  869POPC   C2B15356   9.681  14.072   8.277
  869POPC   C3B15357   9.859  14.014   7.902
  869POPC   C4B15358   9.935  14.199   7.531
  870POPC   NC315359   3.061  40.198   9.425
  870POPC   PO415360   2.924  39.610   9.207
  870POPC   GL115361   2.698  39.951   9.061
  870POPC   GL215362   2.432  39.693   8.954
  870POPC   C1A15363   2.916  40.248   8.772
  870POPC   D2A15364   2.929  40.336   8.356
  870POPC   C3A15365   2.638  40.084   8.122
  870POPC   C4A15366   2.697  40.050   7.703
  870POPC   C1B15367   2.580  39.845   8.578
  870POPC   C2B15368   2.980  39.802   8.386
  870POPC   C3B15369   3.053  39.642   7.950
  870POPC   C4B15370   2.968  39.677   7.492
  871POPC   NC315371  10.143  17.005   9.397
  871POPC   PO415372  10.703  16.530   9.499
  871POPC   GL115373  10.515  16.749   9.204
  871POPC   GL215374  10.258  16.539   9.179
  871POPC   C1A15375  10.455  16.962   8.812
  871POPC   D2A15376  10.183  16.997   8.471
  871POPC   C3A15377  10.292  16.832   8.091
  871POPC   C4A15378  10.453  16.951   7.721
  871POPC   C1B15379  10.555  16.449   8.827
  871POPC   C2B15380  10.582  16.607   8.444
  871POPC   C3B15381  10.733  16.573   8.031
  871POPC   C4B15382  10.712  16.531   7.607
  872POPC   NC315383  25.586  20.111   9.472
  872POPC   PO415384  25.158  19.631   9.336
  872POPC   GL115385  25.421  19.754   9.051
  872POPC   GL215386  25.385  20.121   9.007
  872POPC   C1A15387  25.327  19.674   8.624
  872POPC   D2A15388  25.443  19.833   8.252
  872POPC   C3A15389  25.136  19.966   7.975
  872POPC   C4A15390  25.063  19.670   7.675
  872POPC   C1B15391  25.671  20.043   8.716
  872POPC   C2B15392  25.790  20.188   8.339
  872POPC   C3B15393  25.647  20.189   7.948
  872POPC   C4B15394  25.493  20.001   7.611
  873POPC   NC315395   4.046  38.934   9.408
  873POPC   PO415396   4.395  39.592   9.502
  873POPC   GL115397   4.184  39.391   9.173
  873POPC   GL215398   4.411  39.119   9.112
  873POPC   C1A15399   4.051  39.193   8.780
  873POPC   D2A15400   4.269  39.138   8.424
  873POPC   C3A15401   4.030  39.114   8.089
  873POPC   C4A15402   4.155  39.100   7.694
  873POPC   C1B15403   4.619  38.950   8.748
  873POPC   C2B15404   4.593  38.734   8.352
  873POPC   C3B15405   4.534  38.969   7.994
  873POPC   C4B15406   4.720  39.015   7.574
  874POPC   NC315407   8.514  44.603   9.511
  874POPC   PO415408   7.882  44.763   9.195
  874POPC   GL115409   8.229  44.580   9.106
  874POPC   GL215410   8.414  44.887   9.115
  874POPC   C1A15411   8.298  44.391   8.749
  874POPC   D2A15412   8.032  44.556   8.442
  874POPC   C3A15413   8.196  44.541   8.059
  874POPC   C4A15414   7.924  44.718   7.744
  874POPC   C1B15415   8.291  44.920   8.713
  874POPC   C2B15416   8.458  44.931   8.342
  874POPC   C3B15417   8.310   0.021   7.949
  874POPC   C4B15418   8.435  44.920   7.583
  875POPC   NC315419  26.500  16.003   9.580
  875POPC   PO415420  25.897  15.806   9.388
  875POPC   GL115421  25.953  15.988   9.073
  875POPC   GL215422  26.262  16.133   9.124
  875POPC   C1A15423  25.947  15.870   8.676
  875POPC   D2A15424  25.665  15.910   8.378
  875POPC   C3A15425  25.819  15.957   7.987
  875POPC   C4A15426  25.642  15.802   7.638
  875POPC   C1B15427  26.113  16.348   8.764
  875POPC   C2B15428  25.980  16.313   8.367
  875POPC   C3B15429  26.177  16.318   7.952
  875POPC   C4B15430  26.081  16.197   7.567
  876POPC   NC315431  20.929  40.366   9.695
  876POPC   PO415432  20.619  39.788   9.680
  876POPC   GL115433  20.513  39.925   9.241
  876POPC   GL215434  20.714  40.247   9.153
  876POPC   C1A15435  20.661  39.795   8.818
  876POPC   D2A15436  20.507  39.637   8.409
  876POPC   C3A15437  20.668  39.834   8.016
  876POPC   C4A15438  20.470  39.979   7.653
  876POPC   C1B15439  20.951  40.260   8.794
  876POPC   C2B15440  20.717  40.140   8.426
  876POPC   C3B15441  20.579  40.336   8.032
  876POPC   C4B15442  20.901  40.262   7.717
  877POPC   NC315443  23.518  38.122   9.511
  877POPC   PO415444  23.398  38.719   9.354
  877POPC   GL115445  23.642  38.445   9.049
  877POPC   GL215446  23.763  38.094   9.068
  877POPC   C1A15447  23.642  38.386   8.601
  877POPC   D2A15448  23.880  38.464   8.240
  877POPC   C3A15449  23.623  38.475   7.838
  877POPC   C4A15450  23.626  38.690   7.408
  877POPC   C1B15451  23.800  37.910   8.661
  877POPC   C2B15452  23.731  37.978   8.212
  877POPC   C3B15453  23.998  38.141   7.847
  877POPC   C4B15454  23.845  38.196   7.392
  878POPC   NC315455  17.898  24.544   9.400
  878POPC   PO415456  17.275  24.574   9.715
  878POPC   GL115457  17.370  24.603   9.257
  878POPC   GL215458  17.528  24.300   9.147
  878POPC   C1A15459  17.469  24.669   8.818
  878POPC   D2A15460  17.653  24.850   8.477
  878POPC   C3A15461  17.591  24.677   8.095
  878POPC   C4A15462  17.296  24.694   7.789
  878POPC   C1B15463  17.762  24.246   8.745
  878POPC   C2B15464  17.629  24.077   8.345
  878POPC   C3B15465  17.424  24.210   7.963
  878POPC   C4B15466  17.671  24.275   7.585
  879POPC   NC315467  25.009  16.068   9.520
  879POPC   PO415468  25.492  16.719   9.418
  879POPC   GL115469  25.247  16.753   9.040
  879POPC   GL215470  24.907  16.619   9.169
  879POPC   C1A15471  25.078  17.066   8.771
  879POPC   D2A15472  25.096  16.928   8.371
  879POPC   C3A15473  25.386  16.903   8.100
  879POPC   C4A15474  25.408  16.784   7.677
  879POPC   C1B15475  25.007  16.366   8.805
  879POPC   C2B15476  24.930  16.441   8.372
  879POPC   C3B15477  24.969  16.615   7.974
  879POPC   C4B15478  25.057  16.327   7.656
  880POPC   NC315479   2.558  31.203   9.544
  880POPC   PO415480   3.151  31.614   9.422
  880POPC   GL115481   2.852  31.445   9.145
  880POPC   GL215482   2.898  31.119   9.114
  880POPC   C1A15483   2.638  31.592   8.791
  880POPC   D2A15484   2.407  31.712   8.410
  880POPC   C3A15485   2.669  31.733   8.021
  880POPC   C4A15486   2.823  31.458   7.632
  880POPC   C1B15487   3.010  31.116   8.701
  880POPC   C2B15488   2.821  31.369   8.378
  880POPC   C3B15489   2.623  31.230   8.028
  880POPC   C4B15490   2.954  30.985   7.867
  881POPC   NC315491  36.473  20.020   9.558
  881POPC   PO415492  36.862  19.473   9.482
  881POPC   GL115493  36.932  19.803   9.125
  881POPC   GL215494  36.690  20.096   9.073
  881POPC   C1A15495  37.050  19.869   8.658
  881POPC   D2A15496  37.226  19.726   8.237
  881POPC   C3A15497  37.010  19.807   7.831
  881POPC   C4A15498  37.070  19.598   7.441
  881POPC   C1B15499  36.631  20.189   8.628
  881POPC   C2B15500  36.750  20.033   8.219
  881POPC   C3B15501  36.494  19.776   7.895
  881POPC   C4B15502  36.162  19.690   7.542
  882POPC   NC315503   4.695  39.983   9.395
  882POPC   PO415504   4.160  40.384   9.576
  882POPC   GL115505   4.336  40.291   9.180
  882POPC   GL215506   4.231  39.944   9.142
  882POPC   C1A15507   4.387  40.181   8.722
  882POPC   D2A15508   4.675  40.262   8.399
  882POPC   C3A15509   4.562  40.035   8.069
  882POPC   C4A15510   4.235  40.021   7.796
  882POPC   C1B15511   4.174  39.705   8.759
  882POPC   C2B15512   4.349  39.653   8.345
  882POPC   C3B15513   4.321  39.527   7.933
  882POPC   C4B15514   4.449  39.458   7.491
  883POPC   NC315515  31.935  36.987   9.496
  883POPC   PO415516  32.448  36.549   9.472
  883POPC   GL115517  32.286  36.850   9.161
  883POPC   GL215518  31.948  36.710   9.068
  883POPC   C1A15519  32.291  37.023   8.746
  883POPC   D2A15520  32.184  36.937   8.322
  883POPC   C3A15521  32.411  36.923   7.932
  883POPC   C4A15522  32.253  37.234   7.667
  883POPC   C1B15523  31.812  36.517   8.667
  883POPC   C2B15524  31.924  36.518   8.212
  883POPC   C3B15525  31.918  36.823   7.890
  883POPC   C4B15526  31.823  36.741   7.504
  884POPC   NC315527  37.752  13.497   9.405
  884POPC   PO415528  37.760  14.144   9.308
  884POPC   GL115529  37.842  13.960   8.951
  884POPC   GL215530  37.989  13.619   8.913
  884POPC   C1A15531  37.625  13.926   8.571
  884POPC   D2A15532  37.850  13.723   8.253
  884POPC   C3A15533  37.735  13.592   7.849
  884POPC   C4A15534  37.391  13.612   7.583
  884POPC   C1B15535  37.570  13.446   8.784
  884POPC   C2B15536  37.245  13.384   8.502
  884POPC   C3B15537  37.321  13.370   8.072
  884POPC   C4B15538  37.251  13.118   7.716
  885POPC   NC315539  28.573  35.081   9.786
  885POPC   PO415540  28.404  34.545   9.589
  885POPC   GL115541  28.510  34.446   9.179
  885POPC   GL215542  28.224  34.639   9.113
  885POPC   C1A15543  28.481  34.473   8.708
  885POPC   D2A15544  28.539  34.639   8.276
  885POPC   C3A15545  28.504  34.363   7.911
  885POPC   C4A15546  28.435  34.341   7.465
  885POPC   C1B15547  27.936  34.775   8.817
  885POPC   C2B15548  27.854  34.925   8.416
  885POPC   C3B15549  27.944  34.846   7.984
  885POPC   C4B15550  28.296  34.813   7.688
  886POPC   NC315551  24.503  36.079   9.463
  886POPC   PO415552  23.914  35.729   9.526
  886POPC   GL115553  24.201  35.821   9.153
  886POPC   GL215554  24.317  36.209   9.006
  886POPC   C1A15555  24.330  35.788   8.744
  886POPC   D2A15556  24.333  36.087   8.404
  886POPC   C3A15557  24.463  35.862   8.026
  886POPC   C4A15558  24.672  35.894   7.639
  886POPC   C1B15559  24.595  36.456   8.704
  886POPC   C2B15560  24.631  36.497   8.228
  886POPC   C3B15561  24.489  36.343   7.822
  886POPC   C4B15562  24.511  36.286   7.347
  887POPC   NC315563   9.549  32.449   9.868
  887POPC   PO415564  10.168  32.056   9.631
  887POPC   GL115565   9.989  32.272   9.253
  887POPC   GL215566   9.612  32.351   9.259
  887POPC   C1A15567   9.867  32.159   8.849
  887POPC   D2A15568   9.698  32.242   8.450
  887POPC   C3A15569  10.002  32.232   8.128
  887POPC   C4A15570   9.852  32.304   7.730
  887POPC   C1B15571   9.467  32.502   8.851
  887POPC   C2B15572   9.278  32.551   8.409
  887POPC   C3B15573   9.413  32.439   7.956
  887POPC   C4B15574   9.426  32.348   7.473
  888POPC   NC315575  16.223   4.020   9.325
  888POPC   PO415576  15.915   4.636   9.294
  888POPC   GL115577  15.973   4.337   9.020
  888POPC   GL215578  15.699   4.155   9.134
  888POPC   C1A15579  16.167   4.186   8.657
  888POPC   D2A15580  16.282   4.232   8.232
  888POPC   C3A15581  16.248   4.647   8.028
  888POPC   C4A15582  16.249   4.562   7.594
  888POPC   C1B15583  15.589   4.356   8.704
  888POPC   C2B15584  15.752   4.235   8.313
  888POPC   C3B15585  15.851   4.337   7.891
  888POPC   C4B15586  15.506   4.495   7.649
  889POPC   NC315587   0.671  26.042   9.484
  889POPC   PO415588   0.009  26.238   9.316
  889POPC   GL115589   0.351  26.208   9.091
  889POPC   GL215590   0.479  25.879   9.045
  889POPC   C1A15591   0.389  26.158   8.647
  889POPC   D2A15592   0.634  26.044   8.301
  889POPC   C3A15593   0.439  26.288   7.994
  889POPC   C4A15594   0.057  26.359   7.787
  889POPC   C1B15595   0.763  25.688   8.718
  889POPC   C2B15596   1.027  25.684   8.366
  889POPC   C3B15597   0.983  25.791   7.952
  889POPC   C4B15598   0.636  25.892   7.721
  890POPC   NC315599  21.036  18.114   9.491
  890POPC   PO415600  21.430  18.570   9.446
  890POPC   GL115601  21.330  18.498   9.074
  890POPC   GL215602  21.004  18.399   9.054
  890POPC   C1A15603  21.652  18.386   8.815
  890POPC   D2A15604  21.629  18.191   8.453
  890POPC   C3A15605  21.405  18.430   8.164
  890POPC   C4A15606  21.524  18.285   7.789
  890POPC   C1B15607  21.157  18.236   8.656
  890POPC   C2B15608  21.212  17.959   8.268
  890POPC   C3B15609  21.060  18.114   7.900
  890POPC   C4B15610  21.084  18.562   7.729
  891POPC   NC315611   3.349  25.772   9.452
  891POPC   PO415612   3.877  26.275   9.504
  891POPC   GL115613   3.796  25.919   9.221
  891POPC   GL215614   3.539  26.126   9.108
  891POPC   C1A15615   3.638  25.699   8.827
  891POPC   D2A15616   3.503  25.936   8.478
  891POPC   C3A15617   3.601  25.787   8.068
  891POPC   C4A15618   3.360  25.932   7.749
  891POPC   C1B15619   3.399  26.445   8.849
  891POPC   C2B15620   3.241  26.486   8.435
  891POPC   C3B15621   3.463  26.283   8.108
  891POPC   C4B15622   3.614  26.408   7.730
  892POPC   NC315623  39.667  39.452   9.338
  892POPC   PO415624  40.043  40.045   9.562
  892POPC   GL115625  40.062  39.830   9.205
  892POPC   GL215626  39.717  39.916   9.119
  892POPC   C1A15627  40.130  40.022   8.815
  892POPC   D2A15628  40.082  40.229   8.420
  892POPC   C3A15629  40.335  39.988   8.138
  892POPC   C4A15630  40.253  39.962   7.705
  892POPC   C1B15631  39.632  40.098   8.701
  892POPC   C2B15632  39.627  40.049   8.256
  892POPC   C3B15633  39.738  39.940   7.853
  892POPC   C4B15634  39.604  39.574   7.630
  893POPC   NC315635   9.493  11.279   9.566
  893POPC   PO415636  10.144  11.352   9.607
  893POPC   GL115637   9.889  11.474   9.212
  893POPC   GL215638   9.608  11.269   9.083
  893POPC   C1A15639   9.790  11.564   8.734
  893POPC   D2A15640   9.527  11.490   8.370
  893POPC   C3A15641   9.787  11.437   8.025
  893POPC   C4A15642   9.988  11.723   7.758
  893POPC   C1B15643   9.667  11.053   8.687
  893POPC   C2B15644   9.475  10.992   8.280
  893POPC   C3B15645   9.551  11.010   7.833
  893POPC   C4B15646   9.585  10.883   7.375
  894POPC   NC315647  22.311  41.104   9.369
  894POPC   PO415648  22.304  40.443   9.558
  894POPC   GL115649  22.071  40.651   9.240
  894POPC   GL215650  22.377  40.686   9.078
  894POPC   C1A15651  21.981  40.664   8.780
  894POPC   D2A15652  22.127  40.817   8.357
  894POPC   C3A15653  21.988  40.585   8.039
  894POPC   C4A15654  21.841  40.534   7.659
  894POPC   C1B15655  22.412  40.975   8.742
  894POPC   C2B15656  22.625  40.962   8.348
  894POPC   C3B15657  22.532  41.046   7.933
  894POPC   C4B15658  22.311  40.781   7.706
  895POPC   NC315659   6.615  24.859   9.587
  895POPC   PO415660   7.044  25.405   9.487
  895POPC   GL115661   6.826  25.146   9.184
  895POPC   GL215662   6.586  25.333   8.971
  895POPC   C1A15663   6.957  25.010   8.774
  895POPC   D2A15664   6.989  24.791   8.367
  895POPC   C3A15665   6.744  24.936   7.985
  895POPC   C4A15666   6.381  24.979   7.706
  895POPC   C1B15667   6.399  25.003   8.717
  895POPC   C2B15668   6.287  25.007   8.290
  895POPC   C3B15669   6.301  25.375   8.011
  895POPC   C4B15670   6.193  25.476   7.614
  896POPC   NC315671   5.343  26.975   9.581
  896POPC   PO415672   4.694  26.703   9.450
  896POPC   GL115673   5.089  26.788   9.144
  896POPC   GL215674   5.225  27.146   9.093
  896POPC   C1A15675   5.012  26.922   8.689
  896POPC   D2A15676   4.722  26.861   8.368
  896POPC   C3A15677   5.015  26.901   8.047
  896POPC   C4A15678   5.005  26.745   7.690
  896POPC   C1B15679   5.424  27.396   8.748
  896POPC   C2B15680   5.345  27.436   8.321
  896POPC   C3B15681   5.227  27.420   7.906
  896POPC   C4B15682   5.169  27.206   7.538
  897POPC   NC315683   6.981  14.635   9.537
  897POPC   PO415684   6.514  14.166   9.788
  897POPC   GL115685   6.514  14.487   9.361
  897POPC   GL215686   6.171  14.665   9.319
  897POPC   C1A15687   6.598  14.611   8.890
  897POPC   D2A15688   6.715  14.329   8.535
  897POPC   C3A15689   6.567  14.395   8.109
  897POPC   C4A15690   6.596  14.352   7.659
  897POPC   C1B15691   6.105  14.733   8.877
  897POPC   C2B15692   6.325  14.690   8.459
  897POPC   C3B15693   6.253  14.812   8.039
  897POPC   C4B15694   6.470  14.865   7.652
  898POPC   NC315695   1.534  28.216   9.424
  898POPC   PO415696   0.986  28.666   9.453
  898POPC   GL115697   1.255  28.516   9.129
  898POPC   GL215698   1.077  28.211   9.071
  898POPC   C1A15699   1.381  28.339   8.700
  898POPC   D2A15700   1.480  28.576   8.321
  898POPC   C3A15701   1.416  28.517   7.870
  898POPC   C4A15702   1.505  28.105   7.650
  898POPC   C1B15703   0.967  28.602   8.727
  898POPC   C2B15704   0.930  28.513   8.276
  898POPC   C3B15705   1.060  28.186   7.948
  898POPC   C4B15706   1.077  28.303   7.485
  899POPC   NC315707  10.308  32.515   9.574
  899POPC   PO415708  10.852  32.019   9.516
  899POPC   GL115709  10.585  32.253   9.241
  899POPC   GL215710  10.698  32.589   9.220
  899POPC   C1A15711  10.444  32.359   8.835
  899POPC   D2A15712  10.452  32.137   8.448
  899POPC   C3A15713  10.549  32.369   8.103
  899POPC   C4A15714  10.347  32.369   7.738
  899POPC   C1B15715  10.937  32.638   8.881
  899POPC   C2B15716  10.943  32.649   8.466
  899POPC   C3B15717  10.812  32.820   8.104
  899POPC   C4B15718  10.763  32.705   7.719
  900POPC   NC315719  35.163  40.304   9.412
  900POPC   PO415720  35.383  39.607   9.374
  900POPC   GL115721  35.213  39.897   9.077
  900POPC   GL215722  35.493  40.111   9.077
  900POPC   C1A15723  35.149  40.180   8.703
  900POPC   D2A15724  35.106  40.025   8.317
  900POPC   C3A15725  35.230  40.202   7.976
  900POPC   C4A15726  35.320  39.897   7.696
  900POPC   C1B15727  35.626  39.979   8.710
  900POPC   C2B15728  35.629  40.195   8.348
  900POPC   C3B15729  35.607  39.883   8.100
  900POPC   C4B15730  35.847  39.771   7.792
  901POPC   NC315731  43.082  44.110   9.445
  901POPC   PO415732  43.417  43.576   9.821
  901POPC   GL115733  43.321  43.652   9.334
  901POPC   GL215734  42.948  43.629   9.273
  901POPC   C1A15735  43.402  43.798   8.860
  901POPC   D2A15736  43.538  43.748   8.391
  901POPC   C3A15737  43.420  44.090   8.097
  901POPC   C4A15738  43.246  44.054   7.681
  901POPC   C1B15739  42.836  43.632   8.834
  901POPC   C2B15740  43.027  43.873   8.499
  901POPC   C3B15741  42.926  43.915   8.076
  901POPC   C4B15742  42.742  44.114   7.745
  902POPC   NC315743  16.672  42.796   9.536
  902POPC   PO415744  16.780  42.121   9.545
  902POPC   GL115745  16.592  42.371   9.243
  902POPC   GL215746  16.944  42.380   9.107
  902POPC   C1A15747  16.522  42.392   8.807
  902POPC   D2A15748  16.716  42.166   8.487
  902POPC   C3A15749  16.654  42.231   8.044
  902POPC   C4A15750  16.551  42.330   7.603
  902POPC   C1B15751  17.102  42.060   8.824
  902POPC   C2B15752  17.215  42.005   8.415
  902POPC   C3B15753  17.156  41.991   7.980
  902POPC   C4B15754  17.053  42.312   7.688
  903POPC   NC315755  36.404  18.243   9.476
  903POPC   PO415756  35.715  18.308   9.505
  903POPC   GL115757  35.850  18.002   9.155
  903POPC   GL215758  36.184  17.968   9.118
  903POPC   C1A15759  35.876  18.063   8.697
  903POPC   D2A15760  36.165  18.285   8.364
  903POPC   C3A15761  36.139  18.315   7.905
  903POPC   C4A15762  36.113  18.633   7.526
  903POPC   C1B15763  36.376  18.077   8.801
  903POPC   C2B15764  36.462  17.900   8.485
  903POPC   C3B15765  36.622  18.081   8.160
  903POPC   C4B15766  36.506  17.948   7.792
  904POPC   NC315767   0.801  36.521   9.425
  904POPC   PO415768   1.160  36.990   9.746
  904POPC   GL115769   1.244  36.864   9.302
  904POPC   GL215770   0.933  36.908   9.151
  904POPC   C1A15771   1.282  36.776   8.830
  904POPC   D2A15772   1.141  36.908   8.443
  904POPC   C3A15773   1.315  36.705   8.102
  904POPC   C4A15774   1.172  36.827   7.732
  904POPC   C1B15775   1.007  37.218   8.857
  904POPC   C2B15776   0.851  37.346   8.466
  904POPC   C3B15777   0.837  37.156   8.105
  904POPC   C4B15778   0.914  37.261   7.735
  905POPC   NC315779  18.598  10.478   9.465
  905POPC   PO415780  18.080  10.695   9.394
  905POPC   GL115781  18.248  10.342   9.123
  905POPC   GL215782  18.470  10.039   9.242
  905POPC   C1A15783  18.137  10.277   8.695
  905POPC   D2A15784  18.305  10.447   8.335
  905POPC   C3A15785  18.057  10.567   8.005
  905POPC   C4A15786  18.365  10.687   7.725
  905POPC   C1B15787  18.610  10.127   8.805
  905POPC   C2B15788  18.474   9.974   8.401
  905POPC   C3B15789  18.473  10.114   7.969
  905POPC   C4B15790  18.150  10.224   7.624
  906POPC   NC315791   7.123  20.192   9.266
  906POPC   PO415792   7.674  19.796   9.400
  906POPC   GL115793   7.345  19.781   9.121
  906POPC   GL215794   7.590  19.986   8.924
  906POPC   C1A15795   7.153  19.856   8.708
  906POPC   D2A15796   7.423  19.994   8.409
  906POPC   C3A15797   7.263  20.072   8.023
  906POPC   C4A15798   7.181  19.749   7.758
  906POPC   C1B15799   7.583  19.521   8.787
  906POPC   C2B15800   7.445  19.411   8.407
  906POPC   C3B15801   7.597  19.639   8.059
  906POPC   C4B15802   7.657  19.612   7.615
  907POPC   NC315803  14.078  22.064   9.441
  907POPC   PO415804  14.193  22.672   9.573
  907POPC   GL115805  14.407  22.414   9.228
  907POPC   GL215806  14.611  22.090   9.255
  907POPC   C1A15807  14.459  22.289   8.792
  907POPC   D2A15808  14.574  22.522   8.413
  907POPC   C3A15809  14.446  22.258   8.090
  907POPC   C4A15810  14.219  22.140   7.711
  907POPC   C1B15811  14.841  21.891   8.894
  907POPC   C2B15812  14.764  21.938   8.482
  907POPC   C3B15813  14.481  21.762   8.228
  907POPC   C4B15814  14.645  21.867   7.830
  908POPC   NC315815  10.960  30.137   9.366
  908POPC   PO415816  11.177  30.766   9.534
  908POPC   GL115817  11.118  30.609   9.175
  908POPC   GL215818  11.370  30.387   9.138
  908POPC   C1A15819  11.101  30.821   8.804
  908POPC   D2A15820  11.388  30.966   8.483
  908POPC   C3A15821  11.208  30.760   8.116
  908POPC   C4A15822  11.277  30.859   7.710
  908POPC   C1B15823  11.528  30.515   8.772
  908POPC   C2B15824  11.559  30.483   8.367
  908POPC   C3B15825  11.682  30.605   7.965
  908POPC   C4B15826  11.695  30.624   7.544
  909POPC   NC315827  32.439  27.898   9.452
  909POPC   PO415828  31.949  28.388   9.455
  909POPC   GL115829  32.325  28.358   9.196
  909POPC   GL215830  32.236  28.045   9.012
  909POPC   C1A15831  32.359  28.481   8.761
  909POPC   D2A15832  32.094  28.301   8.415
  909POPC   C3A15833  32.226  28.467   8.001
  909POPC   C4A15834  32.369  28.401   7.610
  909POPC   C1B15835  32.455  27.992   8.621
  909POPC   C2B15836  32.498  28.062   8.154
  909POPC   C3B15837  32.348  27.933   7.723
  909POPC   C4B15838  32.496  27.834   7.290
  910POPC   NC315839  35.969  35.168   9.468
  910POPC   PO415840  36.459  35.667   9.330
  910POPC   GL115841  36.044  35.557   9.113
  910POPC   GL215842  36.004  35.199   8.968
  910POPC   C1A15843  36.104  35.621   8.684
  910POPC   D2A15844  36.494  35.657   8.445
  910POPC   C3A15845  36.410  35.560   8.037
  910POPC   C4A15846  36.050  35.357   7.969
  910POPC   C1B15847  36.445  35.260   8.796
  910POPC   C2B15848  36.671  35.128   8.433
  910POPC   C3B15849  36.428  35.031   8.069
  910POPC   C4B15850  36.082  34.870   7.779
  911POPC   NC315851   5.562  16.662   9.589
  911POPC   PO415852   6.237  16.721   9.659
  911POPC   GL115853   6.042  16.640   9.228
  911POPC   GL215854   6.126  16.327   9.068
  911POPC   C1A15855   5.846  16.707   8.792
  911POPC   D2A15856   5.729  17.049   8.481
  911POPC   C3A15857   5.962  17.106   8.087
  911POPC   C4A15858   5.860  17.056   7.658
  911POPC   C1B15859   6.260  16.442   8.670
  911POPC   C2B15860   6.108  16.677   8.333
  911POPC   C3B15861   5.833  16.623   7.984
  911POPC   C4B15862   6.034  16.573   7.591
  912POPC   NC315863  42.936  37.553   9.633
  912POPC   PO415864  43.530  37.988   9.538
  912POPC   GL115865  43.407  37.737   9.137
  912POPC   GL215866  43.126  37.582   9.183
  912POPC   C1A15867  43.164  37.857   8.760
  912POPC   D2A15868  42.832  37.708   8.475
  912POPC   C3A15869  43.022  37.669   8.067
  912POPC   C4A15870  42.865  37.865   7.716
  912POPC   C1B15871  43.061  37.359   8.829
  912POPC   C2B15872  43.188  37.319   8.438
  912POPC   C3B15873  43.277  37.204   8.041
  912POPC   C4B15874  43.118  37.318   7.644
  913POPC   NC315875  25.477  22.585   9.513
  913POPC   PO415876  25.647  23.159   9.336
  913POPC   GL115877  25.855  22.875   9.032
  913POPC   GL215878  25.762  22.523   9.083
  913POPC   C1A15879  25.961  22.882   8.581
  913POPC   D2A15880  25.742  22.872   8.180
  913POPC   C3A15881  26.001  23.069   7.865
  913POPC   C4A15882  26.348  22.873   7.622
  913POPC   C1B15883  25.596  22.542   8.661
  913POPC   C2B15884  25.897  22.420   8.321
  913POPC   C3B15885  26.049  22.521   7.906
  913POPC   C4B15886  25.753  22.701   7.648
  914POPC   NC315887  42.250  23.440   9.964
  914POPC   PO415888  42.505  22.950   9.513
  914POPC   GL115889  42.362  22.950   9.106
  914POPC   GL215890  42.499  22.660   9.070
  914POPC   C1A15891  42.269  23.254   8.770
  914POPC   D2A15892  42.434  23.232   8.326
  914POPC   C3A15893  42.266  23.389   7.918
  914POPC   C4A15894  42.230  23.046   7.568
  914POPC   C1B15895  42.248  22.720   8.675
  914POPC   C2B15896  42.390  22.659   8.270
  914POPC   C3B15897  42.311  22.587   7.850
  914POPC   C4B15898  42.512  22.455   7.518
  915POPC   NC315899  44.369   2.048   9.579
  915POPC   PO415900  43.718   2.241   9.491
  915POPC   GL115901  43.918   2.001   9.169
  915POPC   GL215902  44.202   2.229   9.100
  915POPC   C1A15903  43.921   2.033   8.708
  915POPC   D2A15904  44.034   2.167   8.321
  915POPC   C3A15905  43.846   1.995   7.998
  915POPC   C4A15906  43.821   2.096   7.552
  915POPC   C1B15907  44.349   1.845   8.886
  915POPC   C2B15908  44.457   1.759   8.487
  915POPC   C3B15909  44.391   1.871   8.085
  915POPC   C4B15910  44.197   1.781   7.709
  916POPC   NC315911  43.587  29.878   9.401
  916POPC   PO415912  42.876  29.775   9.489
  916POPC   GL115913  42.881  29.934   9.124
  916POPC   GL215914  43.179  30.082   9.180
  916POPC   C1A15915  42.991  29.792   8.741
  916POPC   D2A15916  43.311  29.768   8.453
  916POPC   C3A15917  43.126  29.771   8.081
  916POPC   C4A15918  42.949  29.943   7.734
  916POPC   C1B15919  43.376  30.158   8.826
  916POPC   C2B15920  43.428  30.277   8.436
  916POPC   C3B15921  43.595  30.049   8.114
  916POPC   C4B15922  43.476  29.879   7.744
  917POPC   NC315923   3.023  33.556   9.552
  917POPC   PO415924   2.684  34.144   9.478
  917POPC   GL115925   2.863  34.021   9.096
  917POPC   GL215926   2.902  33.689   9.087
  917POPC   C1A15927   2.866  33.957   8.673
  917POPC   D2A15928   2.701  33.613   8.478
  917POPC   C3A15929   2.648  33.733   8.068
  917POPC   C4A15930   2.804  33.795   7.661
  917POPC   C1B15931   3.150  33.532   8.749
  917POPC   C2B15932   3.128  33.330   8.374
  917POPC   C3B15933   3.060  33.453   7.979
  917POPC   C4B15934   3.297  33.761   7.741
  918POPC   NC315935  10.536  31.748   9.711
  918POPC   PO415936  10.529  31.089   9.584
  918POPC   GL115937  10.556  31.357   9.188
  918POPC   GL215938  10.518  31.735   9.213
  918POPC   C1A15939  10.687  31.184   8.793
  918POPC   D2A15940  10.480  31.152   8.410
  918POPC   C3A15941  10.724  30.980   8.077
  918POPC   C4A15942  10.863  31.195   7.735
  918POPC   C1B15943  10.288  31.848   8.864
  918POPC   C2B15944  10.312  31.642   8.468
  918POPC   C3B15945  10.301  31.794   8.036
  918POPC   C4B15946   9.954  31.816   7.744
  919POPC   NC315947   6.065  26.980   9.519
  919POPC   PO415948   5.515  26.521   9.557
  919POPC   GL115949   5.758  26.557   9.206
  919POPC   GL215950   5.678  26.885   9.176
  919POPC   C1A15951   5.899  26.588   8.778
  919POPC   D2A15952   6.056  26.825   8.446
  919POPC   C3A15953   5.921  26.713   8.057
  919POPC   C4A15954   6.102  26.858   7.710
  919POPC   C1B15955   5.510  26.894   8.773
  919POPC   C2B15956   5.440  26.905   8.359
  919POPC   C3B15957   5.562  27.054   7.972
  919POPC   C4B15958   5.539  26.853   7.579
  920POPC   NC315959   1.874   6.978   9.446
  920POPC   PO415960   2.113   7.613   9.567
  920POPC   GL115961   2.101   7.530   9.142
  920POPC   GL215962   2.154   7.165   9.070
  920POPC   C1A15963   1.926   7.582   8.724
  920POPC   D2A15964   1.937   7.406   8.296
  920POPC   C3A15965   1.822   7.625   7.938
  920POPC   C4A15966   1.916   7.545   7.517
  920POPC   C1B15967   1.993   7.063   8.681
  920POPC   C2B15968   2.067   6.918   8.253
  920POPC   C3B15969   1.922   7.112   7.833
  920POPC   C4B15970   1.532   7.153   7.536
  921POPC   NC315971  32.056  13.155   9.399
  921POPC   PO415972  32.714  13.039   9.451
  921POPC   GL115973  32.470  13.045   9.122
  921POPC   GL215974  32.357  12.761   8.958
  921POPC   C1A15975  32.382  13.264   8.780
  921POPC   D2A15976  32.056  13.210   8.478
  921POPC   C3A15977  32.229  13.003   8.111
  921POPC   C4A15978  32.428  12.773   7.791
  921POPC   C1B15979  32.035  12.539   8.724
  921POPC   C2B15980  31.941  12.297   8.357
  921POPC   C3B15981  31.988  12.477   7.927
  921POPC   C4B15982  31.984  12.482   7.463
  922POPC   NC315983  13.412  44.177   9.264
  922POPC   PO415984  13.976  43.899   9.548
  922POPC   GL115985  13.786  43.796   9.151
  922POPC   GL215986  14.011  43.547   9.087
  922POPC   C1A15987  13.545  43.620   8.795
  922POPC   D2A15988  13.631  43.790   8.378
  922POPC   C3A15989  13.483  43.670   7.984
  922POPC   C4A15990  13.460  44.019   7.659
  922POPC   C1B15991  14.038  43.725   8.676
  922POPC   C2B15992  14.092  44.042   8.349
  922POPC   C3B15993  13.858  44.063   7.995
  922POPC   C4B15994  14.064  44.007   7.631
  923POPC   NC315995  43.959  26.935   9.597
  923POPC   PO415996  43.814  26.279   9.724
  923POPC   GL115997  43.808  26.456   9.215
  923POPC   GL215998  43.815  26.817   9.124
  923POPC   C1A15999  43.772  26.496   8.745
  923POPC   D2A16000  43.578  26.668   8.366
  923POPC   C3A16001  43.828  26.674   7.984
  923POPC   C4A16002  44.243  26.711   7.746
  923POPC   C1B16003  44.066  26.942   8.789
  923POPC   C2B16004  43.919  27.076   8.393
  923POPC   C3B16005  44.082  27.228   8.016
  923POPC   C4B16006  43.898  27.064   7.662
  924POPC   NC316007  26.541  32.429   9.563
  924POPC   PO416008  27.156  32.567   9.366
  924POPC   GL116009  26.870  32.311   9.192
  924POPC   GL216010  26.684  32.575   9.036
  924POPC   C1A16011  26.762  32.118   8.811
  924POPC   D2A16012  26.892  31.976   8.408
  924POPC   C3A16013  26.779  32.224   8.049
  924POPC   C4A16014  26.701  32.036   7.639
  924POPC   C1B16015  27.096  32.492   8.737
  924POPC   C2B16016  27.348  32.597   8.352
  924POPC   C3B16017  27.335  32.444   7.931
  924POPC   C4B16018  27.056  32.403   7.609
  925POPC   NC316019  30.204  25.088   9.488
  925POPC   PO416020  29.703  25.480   9.693
  925POPC   GL116021  29.826  25.410   9.235
  925POPC   GL216022  30.002  25.129   9.049
  925POPC   C1A16023  29.679  25.451   8.791
  925POPC   D2A16024  29.787  25.656   8.373
  925POPC   C3A16025  29.954  25.426   7.981
  925POPC   C4A16026  29.714  25.108   7.753
  925POPC   C1B16027  30.385  25.003   8.827
  925POPC   C2B16028  30.315  25.004   8.424
  925POPC   C3B16029  30.395  25.061   8.028
  925POPC   C4B16030  30.193  25.059   7.662
  926POPC   NC316031   9.125  25.782   9.317
  926POPC   PO416032   8.589  26.164   9.449
  926POPC   GL116033   8.823  26.158   9.053
  926POPC   GL216034   9.147  26.086   8.925
  926POPC   C1A16035   8.723  25.986   8.669
  926POPC   D2A16036   8.545  26.094   8.307
  926POPC   C3A16037   8.738  25.953   7.972
  926POPC   C4A16038   8.845  26.155   7.596
  926POPC   C1B16039   9.236  25.872   8.606
  926POPC   C2B16040   9.087  26.143   8.324
  926POPC   C3B16041   9.347  26.317   8.067
  926POPC   C4B16042   9.329  26.093   7.707
  927POPC   NC316043  29.649   5.358   9.520
  927POPC   PO416044  30.099   4.823   9.515
  927POPC   GL116045  29.887   4.993   9.156
  927POPC   GL216046  29.706   4.707   8.993
  927POPC   C1A16047  29.792   5.128   8.715
  927POPC   D2A16048  29.845   5.089   8.282
  927POPC   C3A16049  29.887   5.440   8.007
  927POPC   C4A16050  29.986   5.319   7.603
  927POPC   C1B16051  29.349   4.850   8.720
  927POPC   C2B16052  29.327   5.014   8.311
  927POPC   C3B16053  29.549   4.744   8.015
  927POPC   C4B16054  29.861   4.864   7.782
  928POPC   NC316055  19.901   7.777   9.352
  928POPC   PO416056  20.216   7.222   9.545
  928POPC   GL116057  20.282   7.213   9.120
  928POPC   GL216058  19.925   7.191   9.083
  928POPC   C1A16059  20.242   7.162   8.686
  928POPC   D2A16060  19.918   7.189   8.384
  928POPC   C3A16061  19.998   7.178   7.970
  928POPC   C4A16062  19.760   7.338   7.599
  928POPC   C1B16063  19.902   7.519   8.769
  928POPC   C2B16064  19.648   7.646   8.453
  928POPC   C3B16065  19.781   7.638   8.045
  928POPC   C4B16066  19.637   7.831   7.688
  929POPC   NC316067  19.286  35.647   9.420
  929POPC   PO416068  19.959  35.480   9.625
  929POPC   GL116069  19.977  35.265   9.235
  929POPC   GL216070  19.632  35.303   9.239
  929POPC   C1A16071  20.030  35.103   8.784
  929POPC   D2A16072  20.067  35.029   8.306
  929POPC   C3A16073  20.010  35.391   7.970
  929POPC   C4A16074  20.166  35.530   7.553
  929POPC   C1B16075  19.654  35.458   8.838
  929POPC   C2B16076  19.714  35.396   8.410
  929POPC   C3B16077  19.570  35.158   8.066
  929POPC   C4B16078  19.391  35.374   7.755
  930POPC   NC316079  11.213  37.424   9.494
  930POPC   PO416080  11.321  38.102   9.564
  930POPC   GL116081  11.326  37.843   9.199
  930POPC   GL216082  10.983  37.839   9.203
  930POPC   C1A16083  11.381  37.725   8.747
  930POPC   D2A16084  11.422  37.481   8.338
  930POPC   C3A16085  11.423  37.697   7.917
  930POPC   C4A16086  11.574  37.832   7.475
  930POPC   C1B16087  10.883  37.694   8.788
  930POPC   C2B16088  10.959  37.374   8.503
  930POPC   C3B16089  11.002  37.317   8.071
  930POPC   C4B16090  10.888  37.683   7.909
  931POPC   NC316091   3.265  13.192   9.537
  931POPC   PO416092   3.904  13.010   9.431
  931POPC   GL116093   3.630  12.936   9.143
  931POPC   GL216094   3.600  12.587   9.284
  931POPC   C1A16095   3.529  13.157   8.756
  931POPC   D2A16096   3.547  12.940   8.369
  931POPC   C3A16097   3.434  13.096   7.992
  931POPC   C4A16098   3.315  12.884   7.605
  931POPC   C1B16099   3.749  12.474   8.872
  931POPC   C2B16100   3.735  12.446   8.420
  931POPC   C3B16101   3.512  12.529   8.042
  931POPC   C4B16102   3.710  12.519   7.656
  932POPC   NC316103  19.256  32.702   9.790
  932POPC   PO416104  19.117  33.268   9.359
  932POPC   GL116105  19.182  33.071   9.053
  932POPC   GL216106  19.499  32.936   9.191
  932POPC   C1A16107  19.066  33.027   8.654
  932POPC   D2A16108  19.170  33.271   8.322
  932POPC   C3A16109  19.057  33.091   7.968
  932POPC   C4A16110  18.948  32.780   7.727
  932POPC   C1B16111  19.573  33.006   8.759
  932POPC   C2B16112  19.481  32.851   8.394
  932POPC   C3B16113  19.380  32.695   8.047
  932POPC   C4B16114  19.449  32.861   7.662
  933POPC   NC316115  41.939  31.175   9.408
  933POPC   PO416116  41.428  31.580   9.397
  933POPC   GL116117  41.502  31.267   9.110
  933POPC   GL216118  41.779  31.455   9.014
  933POPC   C1A16119  41.379  31.329   8.685
  933POPC   D2A16120  41.126  31.477   8.344
  933POPC   C3A16121  41.366  31.352   7.994
  933POPC   C4A16122  41.440  31.543   7.593
  933POPC   C1B16123  41.877  31.160   8.693
  933POPC   C2B16124  41.819  31.250   8.251
  933POPC   C3B16125  41.865  31.368   7.820
  933POPC   C4B16126  41.823  31.329   7.349
  934POPC   NC316127  18.090  42.217   9.521
  934POPC   PO416128  18.762  42.080   9.517
  934POPC   GL116129  18.421  42.108   9.161
  934POPC   GL216130  18.223  42.456   9.107
  934POPC   C1A16131  18.241  42.088   8.745
  934POPC   D2A16132  18.472  42.121   8.388
  934POPC   C3A16133  18.310  42.170   7.999
  934POPC   C4A16134  18.427  42.513   7.749
  934POPC   C1B16135  17.927  42.506   8.777
  934POPC   C2B16136  17.995  42.403   8.322
  934POPC   C3B16137  17.926  42.475   7.845
  934POPC   C4B16138  17.775  42.556   7.399
  935POPC   NC316139   7.370  39.853   9.479
  935POPC   PO416140   7.261  40.581   9.538
  935POPC   GL116141   7.345  40.311   9.081
  935POPC   GL216142   7.317  39.946   9.002
  935POPC   C1A16143   7.488  40.184   8.611
  935POPC   D2A16144   7.768  40.269   8.250
  935POPC   C3A16145   7.631  40.115   7.850
  935POPC   C4A16146   7.729  40.091   7.393
  935POPC   C1B16147   7.109  39.814   8.609
  935POPC   C2B16148   7.141  39.689   8.159
  935POPC   C3B16149   6.845  39.789   7.826
  935POPC   C4B16150   7.003  40.215   7.733
  936POPC   NC316151   1.810  20.941   9.526
  936POPC   PO416152   2.506  20.836   9.380
  936POPC   GL116153   2.140  20.716   9.108
  936POPC   GL216154   1.780  20.694   9.081
  936POPC   C1A16155   2.001  20.940   8.701
  936POPC   D2A16156   1.835  21.107   8.303
  936POPC   C3A16157   1.780  20.740   8.075
  936POPC   C4A16158   2.120  20.555   7.846
  936POPC   C1B16159   1.879  20.434   8.730
  936POPC   C2B16160   2.050  20.358   8.330
  936POPC   C3B16161   1.808  20.196   7.976
  936POPC   C4B16162   1.906  20.037   7.582
  937POPC   NC316163  44.276  22.925   9.323
  937POPC   PO416164  43.620  22.697   9.283
  937POPC   GL116165  43.836  22.938   9.073
  937POPC   GL216166  44.040  22.615   9.002
  937POPC   C1A16167  43.971  23.013   8.692
  937POPC   D2A16168  43.773  22.907   8.315
  937POPC   C3A16169  43.881  23.117   7.950
  937POPC   C4A16170  43.518  23.120   7.705
  937POPC   C1B16171  43.829  22.495   8.661
  937POPC   C2B16172  44.146  22.596   8.406
  937POPC   C3B16173  44.170  22.666   7.981
  937POPC   C4B16174  44.078  22.589   7.528
  938POPC   NC316175  19.917  21.902   9.521
  938POPC   PO416176  19.422  22.300   9.275
  938POPC   GL116177  19.844  22.288   9.152
  938POPC   GL216178  20.030  22.000   9.050
  938POPC   C1A16179  19.935  22.467   8.755
  938POPC   D2A16180  19.960  22.326   8.314
  938POPC   C3A16181  19.650  22.513   8.037
  938POPC   C4A16182  19.538  22.482   7.610
  938POPC   C1B16183  19.856  21.945   8.679
  938POPC   C2B16184  20.009  21.827   8.277
  938POPC   C3B16185  19.904  21.915   7.820
  938POPC   C4B16186  20.002  21.653   7.442
  939POPC   NC316187   6.217  36.111   9.486
  939POPC   PO416188   5.473  36.243   9.491
  939POPC   GL116189   5.742  36.037   9.193
  939POPC   GL216190   5.942  36.341   9.122
  939POPC   C1A16191   5.788  35.851   8.771
  939POPC   D2A16192   5.645  35.800   8.323
  939POPC   C3A16193   5.917  36.048   8.043
  939POPC   C4A16194   5.899  36.137   7.589
  939POPC   C1B16195   5.656  36.404   8.786
  939POPC   C2B16196   5.598  36.296   8.352
  939POPC   C3B16197   5.658  36.479   7.901
  939POPC   C4B16198   5.605  36.495   7.389
  940POPC   NC316199   6.630   8.044   9.734
  940POPC   PO416200   6.828   7.731   9.138
  940POPC   GL116201   6.491   8.039   9.041
  940POPC   GL216202   6.391   8.313   9.142
  940POPC   C1A16203   6.674   8.300   8.679
  940POPC   D2A16204   6.925   8.391   8.321
  940POPC   C3A16205   6.761   8.378   7.892
  940POPC   C4A16206   6.633   8.168   7.518
  940POPC   C1B16207   6.182   8.328   8.776
  940POPC   C2B16208   6.302   8.437   8.368
  940POPC   C3B16209   6.267   8.259   7.990
  940POPC   C4B16210   6.272   8.463   7.656
  941POPC   NC316211  15.799   1.387   9.456
  941POPC   PO416212  16.047   0.776   9.499
  941POPC   GL116213  16.074   1.048   9.179
  941POPC   GL216214  16.403   0.902   9.074
  941POPC   C1A16215  15.781   1.241   8.841
  941POPC   D2A16216  15.697   1.480   8.462
  941POPC   C3A16217  15.707   1.235   8.145
  941POPC   C4A16218  16.021   1.229   7.839
  941POPC   C1B16219  16.085   0.842   8.727
  941POPC   C2B16220  15.870   0.787   8.337
  941POPC   C3B16221  16.078   0.733   7.964
  941POPC   C4B16222  16.463   0.953   7.848
  942POPC   NC316223  40.201  32.720   9.584
  942POPC   PO416224  39.786  33.230   9.539
  942POPC   GL116225  39.845  33.088   9.156
  942POPC   GL216226  39.879  32.718   9.147
  942POPC   C1A16227  40.081  33.177   8.799
  942POPC   D2A16228  40.215  32.956   8.447
  942POPC   C3A16229  40.004  33.059   8.071
  942POPC   C4A16230  40.176  32.870   7.716
  942POPC   C1B16231  39.678  32.824   8.742
  942POPC   C2B16232  39.574  32.678   8.310
  942POPC   C3B16233  39.671  32.721   7.842
  942POPC   C4B16234  39.753  33.157   7.617
  943POPC   NC316235  17.587   5.288   9.297
  943POPC   PO416236  17.238   4.842   9.603
  943POPC   GL116237  17.300   4.867   9.168
  943POPC   GL216238  17.601   4.785   9.070
  943POPC   C1A16239  17.317   5.026   8.687
  943POPC   D2A16240  17.169   5.100   8.218
  943POPC   C3A16241  17.416   5.337   7.905
  943POPC   C4A16242  17.803   5.565   7.931
  943POPC   C1B16243  17.373   4.542   8.796
  943POPC   C2B16244  17.522   4.616   8.415
  943POPC   C3B16245  17.585   4.853   8.066
  943POPC   C4B16246  17.269   4.890   7.723
  944POPC   NC316247  33.178  13.096   9.506
  944POPC   PO416248  33.012  12.498   9.459
  944POPC   GL116249  32.884  12.683   9.084
  944POPC   GL216250  32.975  13.041   9.022
  944POPC   C1A16251  32.772  12.658   8.679
  944POPC   D2A16252  32.743  12.951   8.358
  944POPC   C3A16253  32.893  12.749   7.990
  944POPC   C4A16254  32.885  12.879   7.544
  944POPC   C1B16255  33.198  12.941   8.664
  944POPC   C2B16256  33.258  13.160   8.289
  944POPC   C3B16257  33.227  13.111   7.869
  944POPC   C4B16258  33.356  13.128   7.447
  945POPC   NC316259  44.843  18.177   9.589
  945POPC   PO416260   0.266  17.715   9.806
  945POPC   GL116261   0.167  17.894   9.291
  945POPC   GL216262  44.933  18.234   9.105
  945POPC   C1A16263   0.061  17.890   8.792
  945POPC   D2A16264  44.731  18.051   8.458
  945POPC   C3A16265  44.749  18.182   8.008
  945POPC   C4A16266  44.809  18.037   7.563
  945POPC   C1B16267  44.701  18.480   8.747
  945POPC   C2B16268  44.464  18.510   8.326
  945POPC   C3B16269  44.539  18.651   7.881
  945POPC   C4B16270  44.594  18.863   7.439
  946POPC   NC316271  37.882  31.323   9.289
  946POPC   PO416272  37.544  31.773   9.683
  946POPC   GL116273  37.584  31.716   9.261
  946POPC   GL216274  37.454  31.393   9.031
  946POPC   C1A16275  37.618  31.817   8.840
  946POPC   D2A16276  37.421  31.629   8.547
  946POPC   C3A16277  37.581  31.598   8.162
  946POPC   C4A16278  37.638  31.415   7.784
  946POPC   C1B16279  37.832  31.387   8.669
  946POPC   C2B16280  37.922  31.235   8.264
  946POPC   C3B16281  37.928  31.002   7.886
  946POPC   C4B16282  37.933  31.140   7.466
  947POPC   NC316283  34.112   0.377   9.424
  947POPC   PO416284  33.459   0.241   9.182
  947POPC   GL116285  33.805   0.317   9.014
  947POPC   GL216286  33.813   0.651   9.112
  947POPC   C1A16287  33.896   0.468   8.630
  947POPC   D2A16288  33.701   0.612   8.279
  947POPC   C3A16289  33.752   0.274   8.010
  947POPC   C4A16290  34.095   0.251   7.743
  947POPC   C1B16291  33.547   0.821   8.770
  947POPC   C2B16292  33.228   0.726   8.446
  947POPC   C3B16293  33.335   0.870   8.023
  947POPC   C4B16294  33.654   0.729   7.739
  948POPC   NC316295   7.729  34.324   9.339
  948POPC   PO416296   7.285  34.743   9.377
  948POPC   GL116297   7.358  34.571   9.011
  948POPC   GL216298   7.667  34.719   8.990
  948POPC   C1A16299   7.182  34.349   8.649
  948POPC   D2A16300   7.104  34.484   8.228
  948POPC   C3A16301   7.483  34.556   8.037
  948POPC   C4A16302   7.568  34.667   7.634
  948POPC   C1B16303   7.517  34.776   8.550
  948POPC   C2B16304   7.592  35.070   8.208
  948POPC   C3B16305   7.635  35.158   7.760
  948POPC   C4B16306   7.712  35.053   7.304
  949POPC   NC316307  44.945   4.860   9.562
  949POPC   PO416308  44.243   4.927   9.656
  949POPC   GL116309  44.401   4.854   9.263
  949POPC   GL216310  44.625   5.111   9.237
  949POPC   C1A16311  44.441   4.749   8.797
  949POPC   D2A16312  44.755   4.812   8.452
  949POPC   C3A16313  44.812   4.866   7.991
  949POPC   C4A16314  44.490   5.084   7.734
  949POPC   C1B16315  44.770   5.186   8.816
  949POPC   C2B16316  44.977   5.263   8.399
  949POPC   C3B16317  44.938   5.375   7.983
  949POPC   C4B16318  44.982   5.216   7.607
  950POPC   NC316319  41.173  25.406   9.533
  950POPC   PO416320  40.548  25.488   9.560
  950POPC   GL116321  40.724  25.349   9.137
  950POPC   GL216322  41.053  25.257   9.090
  950POPC   C1A16323  40.846  25.371   8.658
  950POPC   D2A16324  40.957  25.345   8.210
  950POPC   C3A16325  40.690  25.405   7.887
  950POPC   C4A16326  40.513  25.821   7.728
  950POPC   C1B16327  41.187  24.989   8.814
  950POPC   C2B16328  41.035  24.913   8.427
  950POPC   C3B16329  41.297  24.919   8.081
  950POPC   C4B16330  41.208  25.071   7.713
  951POPC   NC316331   9.150  13.055   9.487
  951POPC   PO416332   8.810  12.498   9.378
  951POPC   GL116333   9.103  12.792   9.069
  951POPC   GL216334   9.081  13.224   9.026
  951POPC   C1A16335   9.304  12.929   8.693
  951POPC   D2A16336   9.065  12.981   8.321
  951POPC   C3A16337   9.244  12.663   8.069
  951POPC   C4A16338   9.251  12.632   7.638
  951POPC   C1B16339   8.701  13.250   8.802
  951POPC   C2B16340   8.560  13.060   8.407
  951POPC   C3B16341   8.623  13.119   7.966
  951POPC   C4B16342   9.044  13.054   7.787
  952POPC   NC316343  16.312  29.666   9.413
  952POPC   PO416344  16.217  30.308   9.280
  952POPC   GL116345  15.879  30.072   9.121
  952POPC   GL216346  15.883  29.720   9.118
  952POPC   C1A16347  15.870  29.987   8.659
  952POPC   D2A16348  16.151  29.816   8.292
  952POPC   C3A16349  16.249  30.130   7.916
  952POPC   C4A16350  16.265  30.180   7.416
  952POPC   C1B16351  15.959  29.473   8.751
  952POPC   C2B16352  15.770  29.301   8.412
  952POPC   C3B16353  15.931  29.419   8.003
  952POPC   C4B16354  15.963  29.752   7.751
  953POPC   NC316355  38.442   9.115   9.893
  953POPC   PO416356  38.679   8.705   9.614
  953POPC   GL116357  38.473   9.061   9.356
  953POPC   GL216358  38.667   9.339   9.209
  953POPC   C1A16359  38.351   9.063   8.917
  953POPC   D2A16360  38.432   9.171   8.471
  953POPC   C3A16361  38.314   8.863   8.123
  953POPC   C4A16362  38.442   8.710   7.696
  953POPC   C1B16363  38.841   9.178   8.800
  953POPC   C2B16364  38.904   9.070   8.331
  953POPC   C3B16365  38.682   9.150   7.946
  953POPC   C4B16366  38.619   9.150   7.500
  954POPC   NC316367   5.624   5.484   9.181
  954POPC   PO416368   5.853   6.073   9.535
  954POPC   GL116369   6.112   6.041   9.159
  954POPC   GL216370   5.800   5.944   9.020
  954POPC   C1A16371   6.090   6.237   8.732
  954POPC   D2A16372   5.854   6.060   8.415
  954POPC   C3A16373   5.985   6.010   7.997
  954POPC   C4A16374   6.122   5.627   7.801
  954POPC   C1B16375   6.026   5.686   8.726
  954POPC   C2B16376   5.800   5.489   8.417
  954POPC   C3B16377   5.722   5.426   8.002
  954POPC   C4B16378   5.690   5.474   7.547
  955POPC   NC316379  32.409  34.924   9.596
  955POPC   PO416380  32.496  34.313   9.668
  955POPC   GL116381  32.280  34.506   9.262
  955POPC   GL216382  32.418  34.199   9.031
  955POPC   C1A16383  32.250  34.611   8.812
  955POPC   D2A16384  32.368  34.540   8.391
  955POPC   C3A16385  32.120  34.688   8.049
  955POPC   C4A16386  32.415  34.665   7.739
  955POPC   C1B16387  32.084  34.134   8.655
  955POPC   C2B16388  32.041  34.189   8.187
  955POPC   C3B16389  32.146  34.139   7.732
  955POPC   C4B16390  31.888  34.103   7.352
  956POPC   NC316391  33.218  17.119   9.403
  956POPC   PO416392  33.472  17.675   9.545
  956POPC   GL116393  33.254  17.556   9.120
  956POPC   GL216394  32.907  17.392   9.109
  956POPC   C1A16395  33.065  17.687   8.709
  956POPC   D2A16396  32.841  17.481   8.358
  956POPC   C3A16397  32.986  17.547   7.942
  956POPC   C4A16398  32.737  17.673   7.588
  956POPC   C1B16399  33.042  17.173   8.732
  956POPC   C2B16400  33.124  17.034   8.328
  956POPC   C3B16401  33.210  17.079   7.916
  956POPC   C4B16402  33.549  16.855   7.786
  957POPC   NC316403  16.141  28.896   9.500
  957POPC   PO416404  15.779  29.450   9.547
  957POPC   GL116405  15.860  29.202   9.178
  957POPC   GL216406  16.217  29.242   9.129
  957POPC   C1A16407  15.890  28.911   8.822
  957POPC   D2A16408  16.083  28.767   8.423
  957POPC   C3A16409  15.871  28.926   8.083
  957POPC   C4A16410  15.820  28.898   7.647
  957POPC   C1B16411  16.369  29.056   8.750
  957POPC   C2B16412  16.283  29.237   8.338
  957POPC   C3B16413  16.313  29.093   7.901
  957POPC   C4B16414  16.152  29.309   7.511
  958POPC   NC316415   8.043  25.162   9.580
  958POPC   PO416416   8.530  25.603   9.533
  958POPC   GL116417   8.357  25.321   9.177
  958POPC   GL216418   7.985  25.268   9.089
  958POPC   C1A16419   8.314  25.312   8.722
  958POPC   D2A16420   8.423  25.589   8.452
  958POPC   C3A16421   8.489  25.402   8.085
  958POPC   C4A16422   8.483  25.579   7.716
  958POPC   C1B16423   7.887  25.575   8.742
  958POPC   C2B16424   7.955  25.429   8.317
  958POPC   C3B16425   8.008  25.382   7.888
  958POPC   C4B16426   8.267  25.079   7.662
  959POPC   NC316427  10.906  28.274   9.569
  959POPC   PO416428  11.544  28.304   9.737
  959POPC   GL116429  11.462  28.349   9.296
  959POPC   GL216430  11.219  28.596   9.261
  959POPC   C1A16431  11.424  28.201   8.856
  959POPC   D2A16432  11.535  28.306   8.436
  959POPC   C3A16433  11.243  28.178   8.115
  959POPC   C4A16434  11.179  28.177   7.647
  959POPC   C1B16435  11.237  28.677   8.801
  959POPC   C2B16436  11.169  28.664   8.333
  959POPC   C3B16437  11.292  28.627   7.865
  959POPC   C4B16438  11.174  28.616   7.393
  960POPC   NC316439  34.455   2.319   9.606
  960POPC   PO416440  33.944   1.857   9.694
  960POPC   GL116441  34.252   1.912   9.348
  960POPC   GL216442  34.181   2.248   9.206
  960POPC   C1A16443  34.355   1.850   8.912
  960POPC   D2A16444  34.652   1.623   8.613
  960POPC   C3A16445  34.617   1.665   8.186
  960POPC   C4A16446  34.772   1.920   7.868
  960POPC   C1B16447  34.421   2.349   8.867
  960POPC   C2B16448  34.422   2.101   8.478
  960POPC   C3B16449  34.316   2.067   8.079
  960POPC   C4B16450  34.126   1.838   7.760
  961POPC   NC316451  17.861  26.342   9.413
  961POPC   PO416452  17.366  25.847   9.443
  961POPC   GL116453  17.609  25.988   9.114
  961POPC   GL216454  17.961  25.845   9.167
  961POPC   C1A16455  17.454  26.269   8.798
  961POPC   D2A16456  17.249  26.381   8.408
  961POPC   C3A16457  17.350  26.224   8.025
  961POPC   C4A16458  17.545  26.306   7.653
  961POPC   C1B16459  17.837  25.709   8.738
  961POPC   C2B16460  17.508  25.861   8.424
  961POPC   C3B16461  17.421  25.706   8.029
  961POPC   C4B16462  17.541  25.815   7.613
  962POPC   NC316463   5.047   2.557   9.457
  962POPC   PO416464   5.489   3.064   9.715
  962POPC   GL116465   5.170   3.048   9.288
  962POPC   GL216466   5.149   2.731   8.998
  962POPC   C1A16467   5.022   3.180   8.826
  962POPC   D2A16468   4.803   3.052   8.412
  962POPC   C3A16469   5.067   2.790   8.116
  962POPC   C4A16470   5.196   2.870   7.695
  962POPC   C1B16471   5.407   2.447   8.698
  962POPC   C2B16472   5.463   2.301   8.252
  962POPC   C3B16473   5.291   2.370   7.843
  962POPC   C4B16474   4.999   2.254   7.501
  963POPC   NC316475  43.319  41.414   9.427
  963POPC   PO416476  44.076  41.276   9.493
  963POPC   GL116477  44.184  41.602   9.208
  963POPC   GL216478  43.871  41.724   9.004
  963POPC   C1A16479  44.265  41.516   8.787
  963POPC   D2A16480  43.946  41.513   8.472
  963POPC   C3A16481  44.080  41.506   8.050
  963POPC   C4A16482  43.882  41.575   7.641
  963POPC   C1B16483  43.637  41.912   8.635
  963POPC   C2B16484  43.574  41.802   8.203
  963POPC   C3B16485  43.603  42.012   7.833
  963POPC   C4B16486  43.528  41.894   7.449
  964POPC   NC316487  42.320  39.837   9.435
  964POPC   PO416488  42.861  40.175   9.510
  964POPC   GL116489  42.558  40.223   9.153
  964POPC   GL216490  42.577  39.910   8.979
  964POPC   C1A16491  42.184  40.152   8.821
  964POPC   D2A16492  42.237  40.077   8.364
  964POPC   C3A16493  42.151  39.729   8.091
  964POPC   C4A16494  42.060  39.943   7.703
  964POPC   C1B16495  42.662  40.246   8.641
  964POPC   C2B16496  42.779  40.045   8.255
  964POPC   C3B16497  42.537  39.981   7.900
  964POPC   C4B16498  42.515  39.738   7.542
  965POPC   NC316499  35.731   9.638   9.586
  965POPC   PO416500  35.925  10.152   9.588
  965POPC   GL116501  35.905  10.006   9.130
  965POPC   GL216502  35.602   9.799   9.092
  965POPC   C1A16503  36.063  10.046   8.665
  965POPC   D2A16504  36.218  10.095   8.209
  965POPC   C3A16505  35.916  10.166   7.867
  965POPC   C4A16506  35.822   9.958   7.463
  965POPC   C1B16507  35.800   9.606   8.722
  965POPC   C2B16508  36.087   9.607   8.365
  965POPC   C3B16509  35.990   9.670   7.932
  965POPC   C4B16510  35.670   9.498   7.640
  966POPC   NC316511  25.031  14.631   9.250
  966POPC   PO416512  25.091  13.913   9.339
  966POPC   GL116513  25.365  14.240   9.153
  966POPC   GL216514  25.083  14.274   8.908
  966POPC   C1A16515  25.492  14.553   8.820
  966POPC   D2A16516  25.295  14.570   8.420
  966POPC   C3A16517  25.587  14.584   8.085
  966POPC   C4A16518  25.478  14.645   7.657
  966POPC   C1B16519  25.381  14.057   8.672
  966POPC   C2B16520  25.437  14.097   8.229
  966POPC   C3B16521  25.193  14.302   7.921
  966POPC   C4B16522  25.180  14.207   7.477
  967POPC   NC316523   7.764  14.525   9.444
  967POPC   PO416524   8.362  14.859   9.459
  967POPC   GL116525   8.164  14.508   9.141
  967POPC   GL216526   7.821  14.532   8.942
  967POPC   C1A16527   8.292  14.290   8.770
  967POPC   D2A16528   8.337  14.467   8.354
  967POPC   C3A16529   8.493  14.299   7.991
  967POPC   C4A16530   8.335  14.293   7.574
  967POPC   C1B16531   7.620  14.150   8.742
  967POPC   C2B16532   7.723  13.987   8.318
  967POPC   C3B16533   7.984  14.222   8.005
  967POPC   C4B16534   7.877  14.598   7.725
  968POPC   NC316535   4.486  18.779   9.301
  968POPC   PO416536   4.601  19.365   9.589
  968POPC   GL116537   4.262  19.267   9.224
  968POPC   GL216538   4.019  18.949   9.211
  968POPC   C1A16539   4.336  19.139   8.763
  968POPC   D2A16540   4.593  19.205   8.375
  968POPC   C3A16541   4.426  19.091   7.957
  968POPC   C4A16542   4.356  18.872   7.539
  968POPC   C1B16543   3.890  18.911   8.755
  968POPC   C2B16544   4.061  18.948   8.309
  968POPC   C3B16545   3.979  18.745   7.889
  968POPC   C4B16546   3.852  18.794   7.403
  969POPC   NC316547  11.160  16.362   9.525
  969POPC   PO416548  10.947  15.669   9.486
  969POPC   GL116549  11.142  15.932   9.184
  969POPC   GL216550  10.866  16.181   9.130
  969POPC   C1A16551  11.313  15.760   8.791
  969POPC   D2A16552  11.364  15.962   8.395
  969POPC   C3A16553  11.288  15.859   7.991
  969POPC   C4A16554  11.642  15.771   7.741
  969POPC   C1B16555  11.049  16.230   8.718
  969POPC   C2B16556  11.156  16.435   8.316
  969POPC   C3B16557  11.187  16.363   7.879
  969POPC   C4B16558  11.459  16.293   7.563
  970POPC   NC316559  42.508  16.797  10.150
  970POPC   PO416560  42.691  17.187   9.676
  970POPC   GL116561  42.535  17.071   9.175
  970POPC   GL216562  42.181  17.146   9.044
  970POPC   C1A16563  42.431  16.832   8.713
  970POPC   D2A16564  42.312  16.928   8.253
  970POPC   C3A16565  42.549  16.697   7.915
  970POPC   C4A16566  42.761  16.570   7.503
  970POPC   C1B16567  42.350  17.330   8.660
  970POPC   C2B16568  42.182  17.419   8.218
  970POPC   C3B16569  42.281  17.282   7.785
  970POPC   C4B16570  42.202  17.349   7.302
  971POPC   NC316571  13.155  22.349   9.550
  971POPC   PO416572  13.640  21.874   9.507
  971POPC   GL116573  13.646  22.179   9.178
  971POPC   GL216574  13.306  22.046   9.146
  971POPC   C1A16575  13.845  22.254   8.742
  971POPC   D2A16576  13.872  22.058   8.292
  971POPC   C3A16577  13.780  22.303   7.893
  971POPC   C4A16578  13.928  22.538   7.488
  971POPC   C1B16579  13.307  22.337   8.844
  971POPC   C2B16580  13.384  22.165   8.486
  971POPC   C3B16581  13.299  22.266   8.104
  971POPC   C4B16582  13.328  22.101   7.735
  972POPC   NC316583  34.484  44.836   9.590
  972POPC   PO416584  34.161  44.240   9.442
  972POPC   GL116585  34.422  44.525   9.168
  972POPC   GL216586  34.551  44.904   9.093
  972POPC   C1A16587  34.357  44.573   8.758
  972POPC   D2A16588  34.488  44.747   8.412
  972POPC   C3A16589  34.681  44.538   8.054
  972POPC   C4A16590  34.510  44.525   7.639
  972POPC   C1B16591  34.848  44.737   8.787
  972POPC   C2B16592  35.022  44.732   8.403
  972POPC   C3B16593  35.179  44.868   8.041
  972POPC   C4B16594  34.978  44.707   7.666
  973POPC   NC316595   7.336  19.496   9.543
  973POPC   PO416596   7.733  18.963   9.505
  973POPC   GL116597   7.647  18.870   9.107
  973POPC   GL216598   7.361  19.100   9.102
  973POPC   C1A16599   7.535  18.873   8.676
  973POPC   D2A16600   7.654  18.610   8.341
  973POPC   C3A16601   7.456  18.797   7.990
  973POPC   C4A16602   7.479  19.195   7.845
  973POPC   C1B16603   7.087  19.396   8.913
  973POPC   C2B16604   6.942  19.449   8.488
  973POPC   C3B16605   7.050  19.358   8.071
  973POPC   C4B16606   6.827  19.370   7.704
  974POPC   NC316607  13.969  44.936   9.246
  974POPC   PO416608  14.439  44.775   9.686
  974POPC   GL116609  14.459  44.782   9.232
  974POPC   GL216610  14.432  44.434   9.115
  974POPC   C1A16611  14.626  44.859   8.814
  974POPC   D2A16612  14.843  44.630   8.483
  974POPC   C3A16613  14.588  44.545   8.155
  974POPC   C4A16614  14.612  44.654   7.738
  974POPC   C1B16615  14.181  44.547   8.739
  974POPC   C2B16616  14.057  44.557   8.300
  974POPC   C3B16617  14.166  44.455   7.887
  974POPC   C4B16618  14.210  44.466   7.437
  975POPC   NC316619  33.429  13.929   9.367
  975POPC   PO416620  34.054  13.688   9.304
  975POPC   GL116621  33.731  13.635   9.069
  975POPC   GL216622  33.584  13.318   9.191
  975POPC   C1A16623  33.777  13.748   8.654
  975POPC   D2A16624  33.781  13.544   8.256
  975POPC   C3A16625  33.981  13.795   7.920
  975POPC   C4A16626  33.831  14.072   7.658
  975POPC   C1B16627  33.465  13.362   8.738
  975POPC   C2B16628  33.320  13.654   8.429
  975POPC   C3B16629  33.282  13.607   7.987
  975POPC   C4B16630  33.622  13.444   7.774
  976POPC   NC316631  38.067  14.510   9.424
  976POPC   PO416632  38.618  14.198   9.476
  976POPC   GL116633  38.493  14.464   9.139
  976POPC   GL216634  38.181  14.378   8.941
  976POPC   C1A16635  38.559  14.690   8.789
  976POPC   D2A16636  38.464  14.438   8.430
  976POPC   C3A16637  38.585  14.377   8.017
  976POPC   C4A16638  38.204  14.557   7.761
  976POPC   C1B16639  38.198  14.031   8.614
  976POPC   C2B16640  38.283  13.998   8.185
  976POPC   C3B16641  38.043  14.038   7.818
  976POPC   C4B16642  37.993  14.244   7.425
  977POPC   NC316643   8.703  20.839   9.391
  977POPC   PO416644   9.226  20.393   9.518
  977POPC   GL116645   9.163  20.624   9.173
  977POPC   GL216646   8.877  20.437   9.091
  977POPC   C1A16647   9.252  20.708   8.751
  977POPC   D2A16648   9.079  20.826   8.381
  977POPC   C3A16649   9.051  20.582   8.025
  977POPC   C4A16650   9.098  20.757   7.634
  977POPC   C1B16651   8.731  20.663   8.754
  977POPC   C2B16652   8.524  20.559   8.393
  977POPC   C3B16653   8.489  20.828   8.079
  977POPC   C4B16654   8.599  20.994   7.693
  978POPC   NC316655  35.496  32.712   9.546
  978POPC   PO416656  35.106  32.100   9.511
  978POPC   GL116657  35.293  32.256   9.174
  978POPC   GL216658  35.098  32.577   9.224
  978POPC   C1A16659  35.280  32.063   8.768
  978POPC   D2A16660  35.486  31.985   8.393
  978POPC   C3A16661  35.425  32.237   8.062
  978POPC   C4A16662  35.358  32.184   7.663
  978POPC   C1B16663  35.024  32.491   8.805
  978POPC   C2B16664  35.208  32.485   8.443
  978POPC   C3B16665  35.086  32.629   8.065
  978POPC   C4B16666  35.367  32.685   7.745
  979POPC   NC316667  31.695   2.737   9.427
  979POPC   PO416668  32.316   2.867   9.552
  979POPC   GL116669  32.223   2.784   9.132
  979POPC   GL216670  31.953   3.025   9.081
  979POPC   C1A16671  32.174   2.521   8.743
  979POPC   D2A16672  32.154   2.358   8.316
  979POPC   C3A16673  32.327   2.637   8.010
  979POPC   C4A16674  32.709   2.719   7.825
  979POPC   C1B16675  32.112   3.021   8.671
  979POPC   C2B16676  31.929   2.825   8.332
  979POPC   C3B16677  31.833   2.763   7.901
  979POPC   C4B16678  32.134   2.996   7.636
  980POPC   NC316679  20.906  22.027   9.446
  980POPC   PO416680  20.251  22.325   9.500
  980POPC   GL116681  20.369  22.363   9.081
  980POPC   GL216682  20.600  22.117   9.062
  980POPC   C1A16683  20.325  22.179   8.655
  980POPC   D2A16684  20.508  22.194   8.293
  980POPC   C3A16685  20.394  22.013   7.933
  980POPC   C4A16686  20.517  21.754   7.562
  980POPC   C1B16687  20.787  21.942   8.690
  980POPC   C2B16688  20.966  21.958   8.254
  980POPC   C3B16689  20.893  22.075   7.818
  980POPC   C4B16690  21.062  21.834   7.446
  981POPC   NC316691  28.385  13.049   9.584
  981POPC   PO416692  28.699  12.413   9.630
  981POPC   GL116693  28.605  12.717   9.280
  981POPC   GL216694  28.235  12.718   9.184
  981POPC   C1A16695  28.548  13.022   8.927
  981POPC   D2A16696  28.310  12.902   8.573
  981POPC   C3A16697  28.259  13.096   8.218
  981POPC   C4A16698  28.551  12.995   7.875
  981POPC   C1B16699  27.940  12.659   8.820
  981POPC   C2B16700  27.972  12.569   8.345
  981POPC   C3B16701  28.005  12.770   7.914
  981POPC   C4B16702  27.999  12.815   7.454
  982POPC   NC316703  26.005  37.103   9.518
  982POPC   PO416704  25.713  36.562   9.483
  982POPC   GL116705  25.911  36.760   9.137
  982POPC   GL216706  26.265  36.752   9.247
  982POPC   C1A16707  25.850  36.915   8.682
  982POPC   D2A16708  25.671  36.774   8.277
  982POPC   C3A16709  25.686  36.963   7.861
  982POPC   C4A16710  26.026  37.119   7.561
  982POPC   C1B16711  26.319  36.735   8.792
  982POPC   C2B16712  26.492  36.659   8.337
  982POPC   C3B16713  26.397  36.733   7.880
  982POPC   C4B16714  26.396  36.760   7.425
  983POPC   NC316715   1.027  11.300   9.632
  983POPC   PO416716   1.440  11.801   9.472
  983POPC   GL116717   1.264  11.457   9.210
  983POPC   GL216718   0.956  11.599   9.138
  983POPC   C1A16719   1.441  11.228   8.813
  983POPC   D2A16720   1.616  11.334   8.391
  983POPC   C3A16721   1.355  11.212   8.044
  983POPC   C4A16722   1.537  10.985   7.764
  983POPC   C1B16723   1.250  11.721   8.796
  983POPC   C2B16724   1.150  11.547   8.408
  983POPC   C3B16725   1.168  11.671   7.993
  983POPC   C4B16726   1.007  11.480   7.659
  984POPC   NC316727  12.022  20.398   9.702
  984POPC   PO416728  12.322  19.850   9.435
  984POPC   GL116729  12.170  19.871   9.071
  984POPC   GL216730  12.044  20.139   9.028
  984POPC   C1A16731  11.968  19.702   8.737
  984POPC   D2A16732  12.140  19.603   8.342
  984POPC   C3A16733  12.159  19.318   8.010
  984POPC   C4A16734  12.260  19.433   7.644
  984POPC   C1B16735  12.202  20.140   8.602
  984POPC   C2B16736  11.892  20.043   8.274
  984POPC   C3B16737  12.006  19.821   7.899
  984POPC   C4B16738  12.458  19.879   7.785
  985POPC   NC316739  32.325  23.522   9.856
  985POPC   PO416740  32.124  23.951   9.578
  985POPC   GL116741  32.125  23.840   9.142
  985POPC   GL216742  31.838  24.046   9.099
  985POPC   C1A16743  32.326  23.695   8.733
  985POPC   D2A16744  32.438  23.935   8.349
  985POPC   C3A16745  32.476  23.670   7.996
  985POPC   C4A16746  32.254  23.578   7.608
  985POPC   C1B16747  31.818  23.759   8.721
  985POPC   C2B16748  31.997  23.663   8.301
  985POPC   C3B16749  31.794  23.642   7.865
  985POPC   C4B16750  31.758  23.576   7.402
  986POPC   NC316751  32.744  12.128   9.513
  986POPC   PO416752  33.363  11.907   9.652
  986POPC   GL116753  33.275  11.899   9.169
  986POPC   GL216754  32.962  12.039   9.053
  986POPC   C1A16755  33.283  12.007   8.684
  986POPC   D2A16756  32.951  12.192   8.384
  986POPC   C3A16757  33.066  12.230   7.965
  986POPC   C4A16758  33.216  12.510   7.639
  986POPC   C1B16759  32.767  11.812   8.664
  986POPC   C2B16760  32.804  11.664   8.260
  986POPC   C3B16761  32.619  11.510   7.901
  986POPC   C4B16762  32.718  11.887   7.748
  987POPC   NC316763  40.834   1.482   9.438
  987POPC   PO416764  40.579   0.863   9.506
  987POPC   GL116765  40.702   1.081   9.125
  987POPC   GL216766  40.652   0.739   9.012
  987POPC   C1A16767  40.873   1.352   8.752
  987POPC   D2A16768  41.113   1.513   8.371
  987POPC   C3A16769  40.958   1.390   7.940
  987POPC   C4A16770  40.615   1.495   7.773
  987POPC   C1B16771  40.800   0.854   8.634
  987POPC   C2B16772  40.682   1.120   8.309
  987POPC   C3B16773  40.559   1.002   7.920
  987POPC   C4B16774  40.775   1.016   7.559
  988POPC   NC316775  27.539  38.050   9.452
  988POPC   PO416776  27.918  37.528   9.528
  988POPC   GL116777  27.662  37.581   9.180
  988POPC   GL216778  27.745  37.875   9.025
  988POPC   C1A16779  27.460  37.529   8.771
  988POPC   D2A16780  27.540  37.293   8.413
  988POPC   C3A16781  27.468  37.547   8.048
  988POPC   C4A16782  27.597  37.557   7.615
  988POPC   C1B16783  27.490  38.028   8.685
  988POPC   C2B16784  27.364  38.022   8.254
  988POPC   C3B16785  27.369  37.995   7.792
  988POPC   C4B16786  27.408  38.185   7.368
  989POPC   NC316787  18.512  27.675   9.407
  989POPC   PO416788  17.804  27.768   9.457
  989POPC   GL116789  17.950  27.595   9.109
  989POPC   GL216790  18.187  27.344   9.194
  989POPC   C1A16791  18.198  27.750   8.790
  989POPC   D2A16792  18.332  27.920   8.429
  989POPC   C3A16793  18.079  27.751   8.142
  989POPC   C4A16794  18.182  27.781   7.728
  989POPC   C1B16795  18.486  27.326   8.834
  989POPC   C2B16796  18.324  27.387   8.436
  989POPC   C3B16797  18.388  27.373   8.006
  989POPC   C4B16798  18.750  27.219   7.867
  990POPC   NC316799  27.077  29.053   9.597
  990POPC   PO416800  26.509  29.195   9.580
  990POPC   GL116801  26.729  29.082   9.187
  990POPC   GL216802  27.060  29.179   9.095
  990POPC   C1A16803  26.715  29.311   8.769
  990POPC   D2A16804  26.635  29.300   8.387
  990POPC   C3A16805  26.874  29.227   8.049
  990POPC   C4A16806  26.848  29.551   7.782
  990POPC   C1B16807  27.179  29.110   8.639
  990POPC   C2B16808  27.286  28.979   8.206
  990POPC   C3B16809  27.219  28.895   7.729
  990POPC   C4B16810  27.107  28.888   7.239
  991POPC   NC316811   3.262   2.382   9.302
  991POPC   PO416812   3.798   2.742   9.589
  991POPC   GL116813   3.637   2.734   9.167
  991POPC   GL216814   3.698   2.375   9.019
  991POPC   C1A16815   3.873   2.809   8.791
  991POPC   D2A16816   3.866   2.615   8.399
  991POPC   C3A16817   3.778   2.906   8.081
  991POPC   C4A16818   3.595   2.808   7.728
  991POPC   C1B16819   3.424   2.557   8.694
  991POPC   C2B16820   3.368   2.724   8.303
  991POPC   C3B16821   3.145   2.622   7.925
  991POPC   C4B16822   2.890   2.902   7.710
  992POPC   NC316823  11.039  14.447   9.579
  992POPC   PO416824  11.533  14.014   9.392
  992POPC   GL116825  11.205  14.132   9.115
  992POPC   GL216826  11.156  14.483   9.077
  992POPC   C1A16827  11.351  14.221   8.688
  992POPC   D2A16828  11.538  14.524   8.372
  992POPC   C3A16829  11.356  14.459   7.973
  992POPC   C4A16830  11.584  14.151   7.762
  992POPC   C1B16831  11.190  14.714   8.695
  992POPC   C2B16832  11.211  14.923   8.320
  992POPC   C3B16833  11.064  14.882   7.892
  992POPC   C4B16834  11.089  14.638   7.538
  993POPC   NC316835  30.615  43.244   9.313
  993POPC   PO416836  31.286  42.938   9.458
  993POPC   GL116837  31.122  43.204   9.150
  993POPC   GL216838  30.918  42.949   8.994
  993POPC   C1A16839  30.983  43.407   8.762
  993POPC   D2A16840  30.801  43.124   8.472
  993POPC   C3A16841  30.643  43.299   8.155
  993POPC   C4A16842  30.806  43.540   7.850
  993POPC   C1B16843  30.548  42.798   8.742
  993POPC   C2B16844  30.577  42.647   8.334
  993POPC   C3B16845  30.453  42.802   7.932
  993POPC   C4B16846  30.529  43.128   7.695
  994POPC   NC316847  17.888   0.640   9.537
  994POPC   PO416848  17.277   0.358   9.867
  994POPC   GL116849  17.422   0.474   9.408
  994POPC   GL216850  17.624   0.217   9.254
  994POPC   C1A16851  17.399   0.540   8.940
  994POPC   D2A16852  17.190   0.557   8.534
  994POPC   C3A16853  17.403   0.618   8.149
  994POPC   C4A16854  17.322   0.339   7.816
  994POPC   C1B16855  17.610   0.077   8.837
  994POPC   C2B16856  17.531  44.950   8.420
  994POPC   C3B16857  17.763  44.981   8.037
  994POPC   C4B16858  17.832   0.361   7.816
  995POPC   NC316859  12.335  39.702   9.790
  995POPC   PO416860  11.984  40.133   9.566
  995POPC   GL116861  12.160  40.058   9.190
  995POPC   GL216862  12.146  39.704   9.261
  995POPC   C1A16863  12.275  40.259   8.776
  995POPC   D2A16864  12.280  40.475   8.333
  995POPC   C3A16865  12.134  40.314   7.922
  995POPC   C4A16866  12.110  40.361   7.470
  995POPC   C1B16867  12.081  39.745   8.801
  995POPC   C2B16868  12.349  39.848   8.451
  995POPC   C3B16869  12.272  39.819   8.008
  995POPC   C4B16870  12.070  39.875   7.631
  996POPC   NC316871  12.435  44.650   9.471
  996POPC   PO416872  11.858   0.044   9.394
  996POPC   GL116873  11.998  44.625   9.187
  996POPC   GL216874  12.268  44.585   8.995
  996POPC   C1A16875  11.846  44.384   8.816
  996POPC   D2A16876  12.011  44.502   8.405
  996POPC   C3A16877  12.223  44.211   8.144
  996POPC   C4A16878  12.300  44.356   7.747
  996POPC   C1B16879  11.980  44.890   8.749
  996POPC   C2B16880  12.021   0.034   8.310
  996POPC   C3B16881  11.930  44.798   7.910
  996POPC   C4B16882  11.857   0.030   7.535
  997POPC   NC316883   1.912  24.185   9.264
  997POPC   PO416884   2.266  24.694   9.506
  997POPC   GL116885   2.118  24.648   9.097
  997POPC   GL216886   1.848  24.849   9.038
  997POPC   C1A16887   2.247  24.393   8.745
  997POPC   D2A16888   2.070  24.323   8.346
  997POPC   C3A16889   2.176  24.548   7.981
  997POPC   C4A16890   1.993  24.378   7.595
  997POPC   C1B16891   1.753  24.519   8.717
  997POPC   C2B16892   1.545  24.411   8.336
  997POPC   C3B16893   1.623  24.560   7.912
  997POPC   C4B16894   1.871  24.862   7.685
  998POPC   NC316895  20.509  44.546   9.355
  998POPC   PO416896  21.125  44.674   9.485
  998POPC   GL116897  20.937  44.696   9.109
  998POPC   GL216898  20.875  44.359   9.039
  998POPC   C1A16899  20.767  44.781   8.697
  998POPC   D2A16900  20.894  44.544   8.342
  998POPC   C3A16901  20.698  44.647   7.969
  998POPC   C4A16902  20.757  44.982   7.681
  998POPC   C1B16903  20.524  44.314   8.739
  998POPC   C2B16904  20.386  44.441   8.351
  998POPC   C3B16905  20.208  44.483   7.966
  998POPC   C4B16906  20.137  44.212   7.630
  999POPC   NC316907  13.308  13.029   9.547
  999POPC   PO416908  13.775  12.542   9.508
  999POPC   GL116909  13.537  12.699   9.156
  999POPC   GL216910  13.686  12.995   9.152
  999POPC   C1A16911  13.601  12.835   8.691
  999POPC   D2A16912  13.734  13.029   8.293
  999POPC   C3A16913  13.716  12.921   7.839
  999POPC   C4A16914  13.449  12.840   7.485
  999POPC   C1B16915  13.342  13.196   8.902
  999POPC   C2B16916  13.289  13.308   8.444
  999POPC   C3B16917  13.334  13.208   8.022
  999POPC   C4B16918  13.399  13.335   7.630
 1000POPC   NC316919  34.783  33.322   9.641
 1000POPC   PO416920  34.423  32.784   9.486
 1000POPC   GL116921  34.722  32.952   9.241
 1000POPC   GL216922  34.452  33.153   9.067
 1000POPC   C1A16923  34.840  32.947   8.838
 1000POPC   D2A16924  34.643  33.211   8.536
 1000POPC   C3A16925  34.767  33.221   8.090
 1000POPC   C4A16926  34.910  32.967   7.726
 1000POPC   C1B16927  34.379  32.797   8.720
 1000POPC   C2B16928  34.611  32.764   8.289
 1000POPC   C3B16929  34.434  32.876   7.867
 1000POPC   C4B16930  34.439  33.062   7.463
 1001POPC   NC316931  40.629  20.647   9.526
 1001POPC   PO416932  41.149  20.889   9.175
 1001POPC   GL116933  40.802  20.660   9.049
 1001POPC   GL216934  40.505  20.887   9.102
 1001POPC   C1A16935  40.884  20.592   8.637
 1001POPC   D2A16936  41.071  20.507   8.276
 1001POPC   C3A16937  40.716  20.565   8.039
 1001POPC   C4A16938  40.836  20.587   7.667
 1001POPC   C1B16939  40.671  21.051   8.730
 1001POPC   C2B16940  40.825  20.996   8.328
 1001POPC   C3B16941  40.842  21.039   7.911
 1001POPC   C4B16942  40.507  20.981   7.625
 1002POPC   NC316943   6.270   5.761   9.588
 1002POPC   PO416944   6.851   6.038   9.478
 1002POPC   GL116945   6.739   5.867   9.101
 1002POPC   GL216946   7.070   6.000   8.995
 1002POPC   C1A16947   6.475   5.920   8.708
 1002POPC   D2A16948   6.319   5.752   8.301
 1002POPC   C3A16949   6.512   5.919   7.913
 1002POPC   C4A16950   6.308   6.050   7.552
 1002POPC   C1B16951   6.937   5.776   8.642
 1002POPC   C2B16952   6.826   5.969   8.286
 1002POPC   C3B16953   7.046   6.041   7.934
 1002POPC   C4B16954   6.981   5.628   7.900
 1003POPC   NC316955   0.052  11.499   9.542
 1003POPC   PO416956   0.684  11.599   9.588
 1003POPC   GL116957   0.463  11.446   9.232
 1003POPC   GL216958   0.444  11.769   9.116
 1003POPC   C1A16959   0.443  11.332   8.784
 1003POPC   D2A16960   0.638  11.467   8.399
 1003POPC   C3A16961   0.781  11.227   8.037
 1003POPC   C4A16962   0.517  11.029   7.711
 1003POPC   C1B16963   0.076  11.688   8.857
 1003POPC   C2B16964   0.026  11.534   8.422
 1003POPC   C3B16965   0.273  11.373   8.061
 1003POPC   C4B16966   0.463  11.557   7.666
 1004POPC   NC316967   3.160  23.649   9.480
 1004POPC   PO416968   2.468  23.758   9.528
 1004POPC   GL116969   2.666  23.904   9.169
 1004POPC   GL216970   2.990  24.090   9.238
 1004POPC   C1A16971   2.583  23.781   8.739
 1004POPC   D2A16972   2.614  23.474   8.416
 1004POPC   C3A16973   2.676  23.693   8.027
 1004POPC   C4A16974   2.470  23.756   7.636
 1004POPC   C1B16975   3.079  23.864   8.852
 1004POPC   C2B16976   3.167  23.953   8.439
 1004POPC   C3B16977   3.076  24.029   8.010
 1004POPC   C4B16978   3.131  23.660   7.756
 1005POPC   NC316979   3.820  29.979   9.433
 1005POPC   PO416980   3.322  29.508   9.520
 1005POPC   GL116981   3.502  29.620   9.132
 1005POPC   GL216982   3.481  29.982   9.051
 1005POPC   C1A16983   3.669  29.610   8.725
 1005POPC   D2A16984   3.718  29.763   8.318
 1005POPC   C3A16985   3.518  29.563   7.975
 1005POPC   C4A16986   3.428  29.792   7.659
 1005POPC   C1B16987   3.719  30.164   8.730
 1005POPC   C2B16988   3.855  30.257   8.323
 1005POPC   C3B16989   3.768  30.094   7.917
 1005POPC   C4B16990   3.923  30.130   7.495
 1006POPC   NC316991   0.548  35.733   9.897
 1006POPC   PO416992   0.424  36.314   9.616
 1006POPC   GL116993   0.426  36.313   9.171
 1006POPC   GL216994   0.674  36.078   9.187
 1006POPC   C1A16995   0.394  36.385   8.744
 1006POPC   D2A16996   0.096  36.321   8.371
 1006POPC   C3A16997   0.291  36.339   7.949
 1006POPC   C4A16998   0.487  36.349   7.508
 1006POPC   C1B16999   0.557  35.905   8.824
 1006POPC   C2B17000   0.517  36.022   8.405
 1006POPC   C3B17001   0.557  35.718   8.113
 1006POPC   C4B17002   0.569  35.940   7.775
 1007POPC   NC317003  32.313  43.441   9.403
 1007POPC   PO417004  32.483  44.147   9.424
 1007POPC   GL117005  32.325  43.977   9.013
 1007POPC   GL217006  31.950  43.975   8.939
 1007POPC   C1A17007  32.407  44.006   8.566
 1007POPC   D2A17008  32.656  43.709   8.289
 1007POPC   C3A17009  32.551  43.795   7.894
 1007POPC   C4A17010  32.252  44.106   7.835
 1007POPC   C1B17011  31.971  43.697   8.598
 1007POPC   C2B17012  32.145  43.720   8.231
 1007POPC   C3B17013  32.042  43.628   7.886
 1007POPC   C4B17014  31.673  43.610   7.759
 1008POPC   NC317015  21.450  36.710   9.552
 1008POPC   PO417016  21.549  37.330   9.233
 1008POPC   GL117017  21.325  36.914   9.082
 1008POPC   GL217018  21.354  36.526   9.086
 1008POPC   C1A17019  21.136  36.802   8.680
 1008POPC   D2A17020  21.173  36.759   8.225
 1008POPC   C3A17021  21.244  37.147   7.989
 1008POPC   C4A17022  21.411  37.286   7.592
 1008POPC   C1B17023  21.512  36.439   8.682
 1008POPC   C2B17024  21.815  36.564   8.355
 1008POPC   C3B17025  21.666  36.780   8.056
 1008POPC   C4B17026  21.440  36.763   7.717
 1009POPC   NC317027  28.762   4.213   9.530
 1009POPC   PO417028  29.314   4.625   9.377
 1009POPC   GL117029  29.364   4.308   9.109
 1009POPC   GL217030  29.074   4.120   9.135
 1009POPC   C1A17031  29.270   4.325   8.673
 1009POPC   D2A17032  29.192   4.521   8.295
 1009POPC   C3A17033  29.304   4.283   7.953
 1009POPC   C4A17034  29.334   4.295   7.495
 1009POPC   C1B17035  28.936   3.966   8.744
 1009POPC   C2B17036  29.033   4.005   8.309
 1009POPC   C3B17037  28.873   4.021   7.886
 1009POPC   C4B17038  28.734   3.836   7.522
 1010POPC   NC317039  36.829  19.013   9.610
 1010POPC   PO417040  36.625  18.552   9.171
 1010POPC   GL117041  36.949  18.832   9.102
 1010POPC   GL217042  37.036  18.606   8.822
 1010POPC   C1A17043  36.973  19.164   8.805
 1010POPC   D2A17044  36.713  19.124   8.420
 1010POPC   C3A17045  36.809  19.379   8.060
 1010POPC   C4A17046  37.173  19.314   7.843
 1010POPC   C1B17047  36.633  18.594   8.544
 1010POPC   C2B17048  36.572  18.613   8.125
 1010POPC   C3B17049  36.754  18.883   7.807
 1010POPC   C4B17050  36.565  18.869   7.400
 1011POPC   NC317051  25.180  10.759   9.678
 1011POPC   PO417052  25.397  10.085   9.565
 1011POPC   GL117053  25.356  10.274   9.105
 1011POPC   GL217054  25.048  10.090   9.041
 1011POPC   C1A17055  25.526  10.523   8.735
 1011POPC   D2A17056  25.648  10.738   8.361
 1011POPC   C3A17057  25.414  10.542   8.023
 1011POPC   C4A17058  25.471  10.505   7.594
 1011POPC   C1B17059  25.077  10.282   8.688
 1011POPC   C2B17060  24.972  10.439   8.341
 1011POPC   C3B17061  24.923  10.114   8.117
 1011POPC   C4B17062  24.846  10.232   7.773
 1012POPC   NC317063  30.336  33.289   9.394
 1012POPC   PO417064  30.929  32.896   9.649
 1012POPC   GL117065  30.841  32.871   9.200
 1012POPC   GL217066  30.834  33.200   9.193
 1012POPC   C1A17067  30.602  32.998   8.776
 1012POPC   D2A17068  30.355  33.160   8.399
 1012POPC   C3A17069  30.545  33.046   8.010
 1012POPC   C4A17070  30.400  33.108   7.587
 1012POPC   C1B17071  30.997  33.329   8.789
 1012POPC   C2B17072  30.958  33.219   8.325
 1012POPC   C3B17073  30.884  33.412   7.881
 1012POPC   C4B17074  30.807  33.356   7.421
 1013POPC   NC317075   1.522   2.164   9.423
 1013POPC   PO417076   0.895   2.060   9.600
 1013POPC   GL117077   0.973   2.216   9.187
 1013POPC   GL217078   1.258   2.335   9.012
 1013POPC   C1A17079   0.868   2.043   8.771
 1013POPC   D2A17080   0.904   1.863   8.378
 1013POPC   C3A17081   1.010   2.051   8.011
 1013POPC   C4A17082   0.961   1.720   7.744
 1013POPC   C1B17083   1.366   2.042   8.689
 1013POPC   C2B17084   1.409   1.839   8.294
 1013POPC   C3B17085   1.464   1.690   7.889
 1013POPC   C4B17086   1.375   2.047   7.644
 1014POPC   NC317087   7.817   3.940   9.444
 1014POPC   PO417088   8.006   4.623   9.524
 1014POPC   GL117089   7.956   4.372   9.120
 1014POPC   GL217090   8.211   4.138   9.063
 1014POPC   C1A17091   8.068   4.390   8.637
 1014POPC   D2A17092   8.178   4.597   8.215
 1014POPC   C3A17093   8.030   4.314   7.883
 1014POPC   C4A17094   7.743   4.243   7.505
 1014POPC   C1B17095   8.528   4.328   8.830
 1014POPC   C2B17096   8.625   4.453   8.448
 1014POPC   C3B17097   8.549   4.232   8.074
 1014POPC   C4B17098   8.525   4.500   7.745
 1015POPC   NC317099  28.642  20.460   9.439
 1015POPC   PO417100  28.154  20.925   9.447
 1015POPC   GL117101  28.321  20.961   9.045
 1015POPC   GL217102  28.646  20.851   9.062
 1015POPC   C1A17103  28.323  20.896   8.611
 1015POPC   D2A17104  28.256  20.503   8.393
 1015POPC   C3A17105  28.140  20.528   7.971
 1015POPC   C4A17106  28.303  20.596   7.518
 1015POPC   C1B17107  28.649  20.525   8.767
 1015POPC   C2B17108  28.767  20.565   8.350
 1015POPC   C3B17109  28.653  20.584   7.926
 1015POPC   C4B17110  28.807  20.469   7.508
 1016POPC   NC317111   0.254  40.548   9.475
 1016POPC   PO417112  44.534  40.748   9.522
 1016POPC   GL117113  44.659  40.775   9.115
 1016POPC   GL217114  44.999  40.708   9.085
 1016POPC   C1A17115  44.573  40.715   8.694
 1016POPC   D2A17116  44.318  40.646   8.380
 1016POPC   C3A17117  44.537  40.680   8.047
 1016POPC   C4A17118  44.361  40.677   7.705
 1016POPC   C1B17119   0.080  40.882   8.716
 1016POPC   C2B17120  44.938  40.795   8.338
 1016POPC   C3B17121   0.067  40.789   7.944
 1016POPC   C4B17122  44.839  40.840   7.604
 1017POPC   NC317123  37.647  40.666   9.522
 1017POPC   PO417124  37.473  41.171   9.225
 1017POPC   GL117125  37.720  40.853   9.065
 1017POPC   GL217126  37.416  40.665   9.027
 1017POPC   C1A17127  37.783  40.630   8.704
 1017POPC   D2A17128  37.554  40.788   8.371
 1017POPC   C3A17129  37.685  40.649   8.012
 1017POPC   C4A17130  37.990  40.624   7.751
 1017POPC   C1B17131  37.196  40.961   8.692
 1017POPC   C2B17132  37.127  41.061   8.236
 1017POPC   C3B17133  37.401  41.052   7.859
 1017POPC   C4B17134  37.710  40.976   7.512
 1018POPC   NC317135   2.809  19.573   9.466
 1018POPC   PO417136   2.212  19.958   9.546
 1018POPC   GL117137   2.458  19.834   9.161
 1018POPC   GL217138   2.813  19.877   9.068
 1018POPC   C1A17139   2.535  19.605   8.751
 1018POPC   D2A17140   2.668  19.382   8.379
 1018POPC   C3A17141   2.619  19.600   8.013
 1018POPC   C4A17142   2.786  19.504   7.619
 1018POPC   C1B17143   2.996  19.983   8.715
 1018POPC   C2B17144   2.922  19.839   8.338
 1018POPC   C3B17145   2.893  20.006   7.932
 1018POPC   C4B17146   3.166  20.019   7.631
 1019POPC   NC317147   8.713  19.477  10.125
 1019POPC   PO417148   9.033  19.732   9.513
 1019POPC   GL117149   9.066  19.911   9.128
 1019POPC   GL217150   8.745  19.814   9.067
 1019POPC   C1A17151   9.211  20.182   8.808
 1019POPC   D2A17152   8.976  20.309   8.461
 1019POPC   C3A17153   9.120  20.052   8.123
 1019POPC   C4A17154   9.032  20.119   7.683
 1019POPC   C1B17155   8.880  19.833   8.612
 1019POPC   C2B17156   8.782  19.670   8.210
 1019POPC   C3B17157   8.728  19.725   7.764
 1019POPC   C4B17158   8.592  19.556   7.346
 1020POPC   NC317159  12.257  32.152   9.164
 1020POPC   PO417160  12.736  32.509   9.360
 1020POPC   GL117161  12.781  32.257   9.010
 1020POPC   GL217162  12.724  31.934   9.130
 1020POPC   C1A17163  12.983  32.167   8.601
 1020POPC   D2A17164  13.214  32.312   8.227
 1020POPC   C3A17165  12.936  32.547   7.904
 1020POPC   C4A17166  12.467  32.489   7.916
 1020POPC   C1B17167  12.549  31.913   8.680
 1020POPC   C2B17168  12.526  32.159   8.319
 1020POPC   C3B17169  12.808  32.050   8.015
 1020POPC   C4B17170  12.802  31.782   7.651
 1021POPC   NC317171   0.045  42.937   9.767
 1021POPC   PO417172  44.541  43.159   9.559
 1021POPC   GL117173  44.607  43.004   9.182
 1021POPC   GL217174  44.815  42.746   9.322
 1021POPC   C1A17175  44.607  43.146   8.743
 1021POPC   D2A17176  44.615  43.451   8.406
 1021POPC   C3A17177  44.428  43.319   8.032
 1021POPC   C4A17178  44.525  42.905   7.865
 1021POPC   C1B17179  44.984  42.840   8.889
 1021POPC   C2B17180  44.970  42.625   8.497
 1021POPC   C3B17181  44.879  42.562   8.060
 1021POPC   C4B17182  44.999  42.816   7.723
 1022POPC   NC317183  38.183  29.888   9.393
 1022POPC   PO417184  38.481  30.383   9.473
 1022POPC   GL117185  38.522  30.152   9.063
 1022POPC   GL217186  38.562  29.772   9.074
 1022POPC   C1A17187  38.402  30.176   8.611
 1022POPC   D2A17188  38.130  30.283   8.275
 1022POPC   C3A17189  38.270  30.061   7.889
 1022POPC   C4A17190  38.415  30.096   7.459
 1022POPC   C1B17191  38.255  29.689   8.743
 1022POPC   C2B17192  38.296  29.608   8.331
 1022POPC   C3B17193  38.257  29.545   7.918
 1022POPC   C4B17194  38.574  29.650   7.647
 1023POPC   NC317195  30.443   0.865   9.543
 1023POPC   PO417196  30.897   0.431   9.408
 1023POPC   GL117197  30.527   0.447   9.116
 1023POPC   GL217198  30.339   0.150   8.951
 1023POPC   C1A17199  30.541   0.523   8.676
 1023POPC   D2A17200  30.845   0.387   8.369
 1023POPC   C3A17201  30.683   0.437   7.964
 1023POPC   C4A17202  30.362   0.753   7.912
 1023POPC   C1B17203  30.750   0.058   8.776
 1023POPC   C2B17204  30.881  44.869   8.395
 1023POPC   C3B17205  30.981   0.007   7.998
 1023POPC   C4B17206  30.751   0.026   7.636
 1024POPC   NC317207   7.522  32.859   9.442
 1024POPC   PO417208   7.510  33.417   9.581
 1024POPC   GL117209   7.287  33.244   9.206
 1024POPC   GL217210   7.070  32.937   9.226
 1024POPC   C1A17211   7.518  33.124   8.814
 1024POPC   D2A17212   7.605  33.299   8.410
 1024POPC   C3A17213   7.639  33.012   8.094
 1024POPC   C4A17214   7.556  33.012   7.677
 1024POPC   C1B17215   7.034  33.020   8.796
 1024POPC   C2B17216   7.230  32.916   8.398
 1024POPC   C3B17217   7.111  33.006   7.970
 1024POPC   C4B17218   7.118  32.723   7.622
 1025POPC   NC317219   8.981  36.428   9.747
 1025POPC   PO417220   8.882  37.139   9.564
 1025POPC   GL117221   8.887  36.902   9.162
 1025POPC   GL217222   9.151  36.742   8.982
 1025POPC   C1A17223   8.668  37.075   8.806
 1025POPC   D2A17224   8.717  37.109   8.386
 1025POPC   C3A17225   8.653  37.245   7.990
 1025POPC   C4A17226   8.744  36.961   7.687
 1025POPC   C1B17227   9.150  37.064   8.680
 1025POPC   C2B17228   9.186  37.239   8.282
 1025POPC   C3B17229   9.181  37.076   7.918
 1025POPC   C4B17230   9.442  37.219   7.621
 1026POPC   NC317231  27.896  25.085   9.491
 1026POPC   PO417232  27.487  25.615   9.554
 1026POPC   GL117233  27.523  25.386   9.184
 1026POPC   GL217234  27.823  25.543   9.116
 1026POPC   C1A17235  27.479  25.388   8.712
 1026POPC   D2A17236  27.406  25.640   8.323
 1026POPC   C3A17237  27.554  25.432   7.976
 1026POPC   C4A17238  27.635  24.974   7.971
 1026POPC   C1B17239  27.972  25.491   8.694
 1026POPC   C2B17240  27.885  25.258   8.327
 1026POPC   C3B17241  28.016  25.304   7.873
 1026POPC   C4B17242  27.767  25.422   7.495
 1027POPC   NC317243  25.324  30.477   9.622
 1027POPC   PO417244  25.281  31.137   9.588
 1027POPC   GL117245  25.188  30.961   9.188
 1027POPC   GL217246  25.411  30.705   9.158
 1027POPC   C1A17247  25.260  31.017   8.750
 1027POPC   D2A17248  25.322  31.170   8.348
 1027POPC   C3A17249  25.296  30.914   7.973
 1027POPC   C4A17250  25.408  30.829   7.528
 1027POPC   C1B17251  25.280  30.513   8.782
 1027POPC   C2B17252  25.066  30.626   8.403
 1027POPC   C3B17253  24.924  30.550   7.983
 1027POPC   C4B17254  25.080  30.456   7.540
 1028POPC   NC317255   4.743  38.272   9.443
 1028POPC   PO417256   4.699  37.572   9.419
 1028POPC   GL117257   4.979  37.769   9.114
 1028POPC   GL217258   5.388  37.809   9.159
 1028POPC   C1A17259   4.961  37.549   8.733
 1028POPC   D2A17260   5.217  37.450   8.442
 1028POPC   C3A17261   5.024  37.495   8.074
 1028POPC   C4A17262   5.186  37.655   7.707
 1028POPC   C1B17263   5.303  37.932   8.748
 1028POPC   C2B17264   5.195  37.955   8.355
 1028POPC   C3B17265   5.425  37.969   8.018
 1028POPC   C4B17266   5.311  38.143   7.680
 1029POPC   NC317267  32.603  37.683   9.519
 1029POPC   PO417268  33.176  37.546   9.541
 1029POPC   GL117269  33.017  37.645   9.153
 1029POPC   GL217270  32.725  37.434   9.093
 1029POPC   C1A17271  33.094  37.542   8.731
 1029POPC   D2A17272  32.826  37.624   8.389
 1029POPC   C3A17273  32.942  37.759   7.971
 1029POPC   C4A17274  33.161  37.708   7.545
 1029POPC   C1B17275  32.796  37.131   8.782
 1029POPC   C2B17276  32.720  37.049   8.354
 1029POPC   C3B17277  32.745  37.281   8.003
 1029POPC   C4B17278  32.730  37.467   7.627
 1030POPC   NC317279  10.280  28.324   9.296
 1030POPC   PO417280  10.770  28.713   9.537
 1030POPC   GL117281  10.788  28.393   9.107
 1030POPC   GL217282  10.548  28.454   8.888
 1030POPC   C1A17283  10.943  28.284   8.659
 1030POPC   D2A17284  10.695  28.442   8.340
 1030POPC   C3A17285  10.768  28.273   7.959
 1030POPC   C4A17286  10.578  28.160   7.597
 1030POPC   C1B17287  10.326  28.174   8.645
 1030POPC   C2B17288  10.237  28.224   8.222
 1030POPC   C3B17289  10.340  28.554   7.958
 1030POPC   C4B17290  10.250  28.570   7.547
 1031POPC   NC317291  17.335  11.767   9.468
 1031POPC   PO417292  17.829  11.273   9.502
 1031POPC   GL117293  17.644  11.222   9.102
 1031POPC   GL217294  17.972  11.059   9.024
 1031POPC   C1A17295  17.324  11.240   8.764
 1031POPC   D2A17296  17.426  11.484   8.394
 1031POPC   C3A17297  17.306  11.339   8.008
 1031POPC   C4A17298  16.972  11.437   7.740
 1031POPC   C1B17299  17.837  11.288   8.644
 1031POPC   C2B17300  17.886  11.324   8.193
 1031POPC   C3B17301  17.746  11.483   7.811
 1031POPC   C4B17302  17.415  11.544   7.506
 1032POPC   NC317303  15.278  10.716   9.449
 1032POPC   PO417304  14.627  10.997   9.426
 1032POPC   GL117305  14.895  10.760   9.102
 1032POPC   GL217306  14.766  10.453   8.970
 1032POPC   C1A17307  15.275  10.648   8.812
 1032POPC   D2A17308  15.152  10.674   8.381
 1032POPC   C3A17309  15.354  10.558   7.999
 1032POPC   C4A17310  15.085  10.848   7.791
 1032POPC   C1B17311  15.014  10.247   8.648
 1032POPC   C2B17312  15.043  10.194   8.185
 1032POPC   C3B17313  15.012  10.258   7.732
 1032POPC   C4B17314  14.667  10.253   7.453
 1033POPC   NC317315  27.397  17.344   9.321
 1033POPC   PO417316  27.871  17.729   9.395
 1033POPC   GL117317  27.676  17.633   9.010
 1033POPC   GL217318  27.333  17.775   9.004
 1033POPC   C1A17319  27.632  17.447   8.584
 1033POPC   D2A17320  27.816  17.658   8.222
 1033POPC   C3A17321  27.646  17.537   7.829
 1033POPC   C4A17322  27.363  17.183   7.847
 1033POPC   C1B17323  27.415  17.914   8.592
 1033POPC   C2B17324  27.348  17.930   8.146
 1033POPC   C3B17325  27.426  17.970   7.708
 1033POPC   C4B17326  27.441  17.645   7.359
 1034POPC   NC317327  31.324  29.628   9.520
 1034POPC   PO417328  31.872  29.966   9.458
 1034POPC   GL117329  31.679  29.744   9.161
 1034POPC   GL217330  31.498  30.047   9.063
 1034POPC   C1A17331  31.548  29.643   8.750
 1034POPC   D2A17332  31.458  29.919   8.428
 1034POPC   C3A17333  31.559  29.756   8.047
 1034POPC   C4A17334  31.437  29.866   7.641
 1034POPC   C1B17335  31.231  30.261   8.740
 1034POPC   C2B17336  30.994  30.107   8.406
 1034POPC   C3B17337  31.071  29.938   8.053
 1034POPC   C4B17338  31.012  30.142   7.711
 1035POPC   NC317339  40.997   4.094   9.540
 1035POPC   PO417340  40.598   4.591   9.506
 1035POPC   GL117341  40.729   4.407   9.097
 1035POPC   GL217342  41.053   4.239   9.054
 1035POPC   C1A17343  40.801   4.432   8.629
 1035POPC   D2A17344  41.011   4.320   8.220
 1035POPC   C3A17345  40.673   4.383   7.889
 1035POPC   C4A17346  40.427   4.477   7.513
 1035POPC   C1B17347  41.313   3.930   8.754
 1035POPC   C2B17348  41.283   3.736   8.338
 1035POPC   C3B17349  41.044   3.837   7.955
 1035POPC   C4B17350  41.121   4.230   7.718
 1036POPC   NC317351  35.102  12.022   9.709
 1036POPC   PO417352  35.436  12.469   9.323
 1036POPC   GL117353  35.289  12.265   8.988
 1036POPC   GL217354  34.947  12.254   8.932
 1036POPC   C1A17355  35.329  12.375   8.554
 1036POPC   D2A17356  35.561  12.133   8.270
 1036POPC   C3A17357  35.524  12.295   7.868
 1036POPC   C4A17358  35.100  12.384   7.790
 1036POPC   C1B17359  35.175  11.904   8.634
 1036POPC   C2B17360  35.356  11.677   8.304
 1036POPC   C3B17361  35.253  11.846   7.877
 1036POPC   C4B17362  35.348  12.015   7.466
 1037POPC   NC317363  38.609   0.165   9.571
 1037POPC   PO417364  38.178   0.684   9.453
 1037POPC   GL117365  38.281   0.305   9.219
 1037POPC   GL217366  38.054   0.218   8.996
 1037POPC   C1A17367  38.568   0.222   8.876
 1037POPC   D2A17368  38.832   0.381   8.507
 1037POPC   C3A17369  38.631   0.462   8.072
 1037POPC   C4A17370  38.733   0.698   7.665
 1037POPC   C1B17371  38.259   0.612   8.821
 1037POPC   C2B17372  38.328   0.691   8.431
 1037POPC   C3B17373  38.081   0.629   8.083
 1037POPC   C4B17374  38.269   0.522   7.687
 1038POPC   NC317375  26.571  10.616   9.662
 1038POPC   PO417376  27.193  10.817   9.433
 1038POPC   GL117377  26.819  10.634   9.202
 1038POPC   GL217378  26.721  10.266   9.312
 1038POPC   C1A17379  26.841  10.612   8.740
 1038POPC   D2A17380  27.071  10.327   8.422
 1038POPC   C3A17381  26.856  10.354   8.017
 1038POPC   C4A17382  26.588  10.732   7.919
 1038POPC   C1B17383  26.617  10.179   8.880
 1038POPC   C2B17384  26.552  10.237   8.452
 1038POPC   C3B17385  26.330  10.308   8.086
 1038POPC   C4B17386  26.328  10.369   7.682
 1039POPC   NC317387  23.977  34.536   9.528
 1039POPC   PO417388  23.434  34.862   9.393
 1039POPC   GL117389  23.692  34.599   9.106
 1039POPC   GL217390  24.043  34.750   9.041
 1039POPC   C1A17391  23.826  34.365   8.728
 1039POPC   D2A17392  23.720  34.465   8.295
 1039POPC   C3A17393  24.057  34.372   8.005
 1039POPC   C4A17394  23.966  34.265   7.588
 1039POPC   C1B17395  23.804  34.857   8.643
 1039POPC   C2B17396  23.387  34.851   8.464
 1039POPC   C3B17397  23.327  34.853   8.022
 1039POPC   C4B17398  23.638  34.606   7.778
 1040POPC   NC317399  34.396  34.236   9.763
 1040POPC   PO417400  34.892  34.641   9.475
 1040POPC   GL117401  34.534  34.510   9.215
 1040POPC   GL217402  34.364  34.844   9.201
 1040POPC   C1A17403  34.523  34.280   8.807
 1040POPC   D2A17404  34.482  34.479   8.421
 1040POPC   C3A17405  34.611  34.290   8.065
 1040POPC   C4A17406  34.962  34.345   7.861
 1040POPC   C1B17407  34.494  34.883   8.768
 1040POPC   C2B17408  34.376  34.979   8.329
 1040POPC   C3B17409  34.378  34.719   7.953
 1040POPC   C4B17410  34.255  34.808   7.514
 1041POPC   NC317411  20.784   9.460   9.515
 1041POPC   PO417412  20.239   9.905   9.445
 1041POPC   GL117413  20.324   9.630   9.137
 1041POPC   GL217414  20.673   9.690   9.079
 1041POPC   C1A17415  20.314   9.700   8.702
 1041POPC   D2A17416  20.561   9.738   8.349
 1041POPC   C3A17417  20.458   9.923   7.958
 1041POPC   C4A17418  20.613   9.880   7.575
 1041POPC   C1B17419  20.772   9.990   8.784
 1041POPC   C2B17420  20.869  10.145   8.431
 1041POPC   C3B17421  20.962   9.933   8.088
 1041POPC   C4B17422  21.075   9.827   7.722
 1042POPC   NC317423  32.560  32.157   9.427
 1042POPC   PO417424  33.247  32.295   9.466
 1042POPC   GL117425  33.245  32.294   9.046
 1042POPC   GL217426  32.897  32.150   9.018
 1042POPC   C1A17427  33.284  32.096   8.617
 1042POPC   D2A17428  33.224  31.805   8.210
 1042POPC   C3A17429  33.077  32.050   7.820
 1042POPC   C4A17430  33.160  32.331   7.452
 1042POPC   C1B17431  32.922  32.493   8.725
 1042POPC   C2B17432  33.047  32.589   8.324
 1042POPC   C3B17433  32.970  32.549   7.885
 1042POPC   C4B17434  32.675  32.324   7.662
 1043POPC   NC317435  39.343  18.291   9.496
 1043POPC   PO417436  38.761  18.505   9.423
 1043POPC   GL117437  38.983  18.237   9.160
 1043POPC   GL217438  39.125  18.511   9.016
 1043POPC   C1A17439  39.189  18.048   8.803
 1043POPC   D2A17440  39.134  18.255   8.402
 1043POPC   C3A17441  39.264  18.022   8.066
 1043POPC   C4A17442  39.288  18.148   7.637
 1043POPC   C1B17443  39.532  18.453   8.819
 1043POPC   C2B17444  39.671  18.355   8.402
 1043POPC   C3B17445  39.483  18.489   8.010
 1043POPC   C4B17446  39.748  18.467   7.666
 1044POPC   NC317447  26.627  13.208   9.218
 1044POPC   PO417448  26.110  12.810   9.500
 1044POPC   GL117449  26.052  12.748   9.090
 1044POPC   GL217450  26.423  12.687   9.089
 1044POPC   C1A17451  25.805  12.956   8.748
 1044POPC   D2A17452  25.631  12.907   8.324
 1044POPC   C3A17453  25.864  13.106   8.032
 1044POPC   C4A17454  26.020  12.942   7.644
 1044POPC   C1B17455  26.264  12.493   8.708
 1044POPC   C2B17456  25.904  12.514   8.465
 1044POPC   C3B17457  26.025  12.623   8.064
 1044POPC   C4B17458  26.442  12.541   7.915
 1045POPC   NC317459   1.794  12.692   9.551
 1045POPC   PO417460   2.337  12.696   9.346
 1045POPC   GL117461   2.063  12.813   9.103
 1045POPC   GL217462   2.105  13.131   9.073
 1045POPC   C1A17463   1.934  12.685   8.721
 1045POPC   D2A17464   2.136  12.537   8.381
 1045POPC   C3A17465   1.919  12.601   8.026
 1045POPC   C4A17466   2.032  12.673   7.636
 1045POPC   C1B17467   2.268  13.077   8.667
 1045POPC   C2B17468   2.084  13.035   8.271
 1045POPC   C3B17469   2.154  13.126   7.855
 1045POPC   C4B17470   1.895  13.095   7.434
 1046POPC   NC317471   1.591  25.653   9.442
 1046POPC   PO417472   1.134  26.136   9.487
 1046POPC   GL117473   0.999  26.033   9.114
 1046POPC   GL217474   0.965  25.690   9.176
 1046POPC   C1A17475   0.901  26.164   8.744
 1046POPC   D2A17476   1.145  26.206   8.407
 1046POPC   C3A17477   0.960  26.324   8.033
 1046POPC   C4A17478   1.136  26.207   7.684
 1046POPC   C1B17479   1.305  25.780   8.828
 1046POPC   C2B17480   1.516  25.822   8.427
 1046POPC   C3B17481   1.461  26.028   8.039
 1046POPC   C4B17482   1.515  25.806   7.647
 1047POPC   NC317483   9.121  31.195   9.478
 1047POPC   PO417484   9.251  31.873   9.529
 1047POPC   GL117485   9.001  31.727   9.103
 1047POPC   GL217486   8.927  31.361   9.032
 1047POPC   C1A17487   9.184  31.631   8.688
 1047POPC   D2A17488   9.385  31.530   8.303
 1047POPC   C3A17489   9.110  31.676   7.979
 1047POPC   C4A17490   8.739  31.557   7.762
 1047POPC   C1B17491   8.702  31.430   8.666
 1047POPC   C2B17492   8.746  31.381   8.230
 1047POPC   C3B17493   8.762  31.075   7.886
 1047POPC   C4B17494   8.625  31.123   7.420
 1048POPC   NC317495  37.920  43.656   9.656
 1048POPC   PO417496  37.615  44.168   9.483
 1048POPC   GL117497  38.000  43.977   9.232
 1048POPC   GL217498  38.023  43.589   9.149
 1048POPC   C1A17499  38.180  43.916   8.794
 1048POPC   D2A17500  37.959  43.752   8.426
 1048POPC   C3A17501  37.881  43.977   8.051
 1048POPC   C4A17502  37.808  43.786   7.646
 1048POPC   C1B17503  37.660  43.600   8.831
 1048POPC   C2B17504  37.448  43.675   8.408
 1048POPC   C3B17505  37.571  43.502   8.019
 1048POPC   C4B17506  37.413  43.478   7.586
 1049POPC   NC317507  24.612  20.233   9.565
 1049POPC   PO417508  24.475  20.905   9.494
 1049POPC   GL117509  24.348  20.547   9.211
 1049POPC   GL217510  24.653  20.375   9.077
 1049POPC   C1A17511  24.335  20.635   8.768
 1049POPC   D2A17512  24.518  20.992   8.545
 1049POPC   C3A17513  24.623  20.875   8.132
 1049POPC   C4A17514  24.695  20.970   7.699
 1049POPC   C1B17515  24.812  20.432   8.647
 1049POPC   C2B17516  24.892  20.364   8.196
 1049POPC   C3B17517  24.696  20.460   7.819
 1049POPC   C4B17518  24.274  20.601   7.846
 1050POPC   NC317519   7.458  10.371   9.703
 1050POPC   PO417520   7.028  10.837   9.513
 1050POPC   GL117521   7.306  10.707   9.128
 1050POPC   GL217522   7.595  10.477   9.213
 1050POPC   C1A17523   7.328  10.629   8.659
 1050POPC   D2A17524   7.212  10.800   8.272
 1050POPC   C3A17525   7.438  10.749   7.908
 1050POPC   C4A17526   7.550  10.991   7.571
 1050POPC   C1B17527   7.798  10.520   8.804
 1050POPC   C2B17528   7.724  10.592   8.335
 1050POPC   C3B17529   7.891  10.499   7.902
 1050POPC   C4B17530   7.766  10.382   7.493
 1051POPC   NC317531   5.293   0.323   9.489
 1051POPC   PO417532   4.737   0.688   9.583
 1051POPC   GL117533   4.982   0.576   9.166
 1051POPC   GL217534   5.046   0.211   9.068
 1051POPC   C1A17535   5.079   0.508   8.683
 1051POPC   D2A17536   5.055   0.525   8.279
 1051POPC   C3A17537   5.391   0.471   8.052
 1051POPC   C4A17538   5.102   0.600   7.709
 1051POPC   C1B17539   4.967  44.979   8.689
 1051POPC   C2B17540   5.031  44.990   8.246
 1051POPC   C3B17541   5.134   0.103   7.826
 1051POPC   C4B17542   5.004   0.207   7.394
 1052POPC   NC317543  28.059  16.031   9.624
 1052POPC   PO417544  28.273  15.410   9.746
 1052POPC   GL117545  28.368  15.741   9.274
 1052POPC   GL217546  28.235  16.024   9.146
 1052POPC   C1A17547  28.535  15.728   8.822
 1052POPC   D2A17548  28.239  15.792   8.440
 1052POPC   C3A17549  28.346  15.718   7.991
 1052POPC   C4A17550  28.613  15.717   7.602
 1052POPC   C1B17551  28.319  16.193   8.759
 1052POPC   C2B17552  28.348  16.389   8.367
 1052POPC   C3B17553  28.133  16.173   8.064
 1052POPC   C4B17554  28.228  16.059   7.645
 1053POPC   NC317555  34.135  31.486   9.540
 1053POPC   PO417556  33.725  31.083   9.320
 1053POPC   GL117557  33.921  31.338   9.084
 1053POPC   GL217558  33.747  31.613   9.192
 1053POPC   C1A17559  34.011  31.393   8.671
 1053POPC   D2A17560  34.025  31.153   8.294
 1053POPC   C3A17561  34.130  31.487   8.016
 1053POPC   C4A17562  34.205  31.542   7.581
 1053POPC   C1B17563  33.509  31.513   8.792
 1053POPC   C2B17564  33.608  31.452   8.336
 1053POPC   C3B17565  33.658  31.648   7.927
 1053POPC   C4B17566  33.689  31.547   7.471
 1054POPC   NC317567  41.994  35.528   9.468
 1054POPC   PO417568  41.265  35.266   9.449
 1054POPC   GL117569  41.585  35.375   9.145
 1054POPC   GL217570  41.333  35.386   8.907
 1054POPC   C1A17571  41.790  35.600   8.763
 1054POPC   D2A17572  41.751  35.825   8.324
 1054POPC   C3A17573  41.487  35.611   7.999
 1054POPC   C4A17574  41.619  35.412   7.618
 1054POPC   C1B17575  41.117  35.014   8.712
 1054POPC   C2B17576  41.097  34.909   8.251
 1054POPC   C3B17577  41.318  35.060   7.867
 1054POPC   C4B17578  41.171  35.162   7.431
 1055POPC   NC317579  34.106   3.722   9.348
 1055POPC   PO417580  33.525   3.478   9.437
 1055POPC   GL117581  33.777   3.280   9.100
 1055POPC   GL217582  34.136   3.194   9.090
 1055POPC   C1A17583  33.769   3.439   8.670
 1055POPC   D2A17584  33.693   3.260   8.269
 1055POPC   C3A17585  33.746   3.539   7.937
 1055POPC   C4A17586  33.669   3.568   7.498
 1055POPC   C1B17587  34.271   3.353   8.667
 1055POPC   C2B17588  34.204   3.511   8.204
 1055POPC   C3B17589  34.208   3.619   7.739
 1055POPC   C4B17590  34.325   3.614   7.287
 1056POPC   NC317591   1.863   2.768   9.689
 1056POPC   PO417592   1.285   2.584   9.471
 1056POPC   GL117593   1.250   2.829   9.137
 1056POPC   GL217594   1.505   3.064   9.144
 1056POPC   C1A17595   1.103   2.769   8.726
 1056POPC   D2A17596   1.255   2.870   8.341
 1056POPC   C3A17597   1.258   2.522   8.099
 1056POPC   C4A17598   1.136   2.479   7.715
 1056POPC   C1B17599   1.149   3.248   8.881
 1056POPC   C2B17600   0.986   3.376   8.475
 1056POPC   C3B17601   1.072   3.262   8.052
 1056POPC   C4B17602   1.150   3.035   7.658
 1057POPC   NC317603   6.393  33.476   9.466
 1057POPC   PO417604   6.837  34.020   9.389
 1057POPC   GL117605   6.743  33.668   9.097
 1057POPC   GL217606   6.377  33.659   8.998
 1057POPC   C1A17607   6.730  33.694   8.639
 1057POPC   D2A17608   6.882  33.924   8.286
 1057POPC   C3A17609   6.766  33.719   7.879
 1057POPC   C4A17610   6.787  33.483   7.490
 1057POPC   C1B17611   6.251  33.933   8.644
 1057POPC   C2B17612   6.347  33.938   8.195
 1057POPC   C3B17613   6.273  34.038   7.758
 1057POPC   C4B17614   6.426  33.862   7.411
 1058POPC   NC317615   2.239  18.102   9.453
 1058POPC   PO417616   1.757  18.574   9.489
 1058POPC   GL117617   1.888  18.326   9.155
 1058POPC   GL217618   2.231  18.440   9.096
 1058POPC   C1A17619   1.742  18.300   8.743
 1058POPC   D2A17620   1.559  18.180   8.357
 1058POPC   C3A17621   1.757  18.205   7.954
 1058POPC   C4A17622   1.796  18.525   7.649
 1058POPC   C1B17623   2.225  18.140   8.751
 1058POPC   C2B17624   2.102  18.155   8.323
 1058POPC   C3B17625   2.273  18.267   7.928
 1058POPC   C4B17626   2.500  18.049   7.603
 1059POPC   NC317627   1.356  28.925   9.523
 1059POPC   PO417628   1.426  29.539   9.665
 1059POPC   GL117629   1.181  29.391   9.305
 1059POPC   GL217630   1.479  29.319   9.160
 1059POPC   C1A17631   0.975  29.298   8.879
 1059POPC   D2A17632   0.920  29.484   8.451
 1059POPC   C3A17633   0.973  29.285   8.010
 1059POPC   C4A17634   1.056  29.271   7.522
 1059POPC   C1B17635   1.363  28.965   8.862
 1059POPC   C2B17636   1.230  29.023   8.443
 1059POPC   C3B17637   1.419  29.007   8.039
 1059POPC   C4B17638   1.497  29.030   7.618
 1060POPC   NC317639  30.602  12.656   9.558
 1060POPC   PO417640  29.990  12.591   9.375
 1060POPC   GL117641  30.365  12.783   9.130
 1060POPC   GL217642  30.773  12.738   9.093
 1060POPC   C1A17643  30.481  12.994   8.766
 1060POPC   D2A17644  30.344  12.926   8.384
 1060POPC   C3A17645  30.520  13.061   8.015
 1060POPC   C4A17646  30.451  12.789   7.703
 1060POPC   C1B17647  31.114  12.709   8.755
 1060POPC   C2B17648  31.059  12.796   8.281
 1060POPC   C3B17649  31.006  12.790   7.810
 1060POPC   C4B17650  31.116  12.999   7.400
 1061POPC   NC317651  16.289   3.475   9.592
 1061POPC   PO417652  15.636   3.375   9.471
 1061POPC   GL117653  15.642   3.642   9.134
 1061POPC   GL217654  15.974   3.566   9.053
 1061POPC   C1A17655  15.744   3.864   8.720
 1061POPC   D2A17656  16.016   3.793   8.354
 1061POPC   C3A17657  15.769   3.819   7.986
 1061POPC   C4A17658  15.645   3.469   7.768
 1061POPC   C1B17659  15.793   3.347   8.667
 1061POPC   C2B17660  15.806   3.334   8.230
 1061POPC   C3B17661  16.142   3.449   7.960
 1061POPC   C4B17662  16.262   3.822   7.861
 1062POPC   NC317663  20.728  19.451   9.591
 1062POPC   PO417664  20.519  20.033   9.487
 1062POPC   GL117665  20.845  20.005   9.144
 1062POPC   GL217666  21.058  19.693   9.199
 1062POPC   C1A17667  20.659  20.107   8.672
 1062POPC   D2A17668  20.287  20.011   8.402
 1062POPC   C3A17669  20.413  19.830   8.002
 1062POPC   C4A17670  20.776  19.974   7.778
 1062POPC   C1B17671  20.776  19.647   8.828
 1062POPC   C2B17672  20.641  19.614   8.434
 1062POPC   C3B17673  20.870  19.576   8.082
 1062POPC   C4B17674  20.781  19.485   7.671
 1063POPC   NC317675  40.357  37.548   9.476
 1063POPC   PO417676  41.014  37.816   9.556
 1063POPC   GL117677  40.801  37.889   9.166
 1063POPC   GL217678  40.440  37.944   9.169
 1063POPC   C1A17679  40.760  37.661   8.787
 1063POPC   D2A17680  40.683  37.521   8.388
 1063POPC   C3A17681  40.807  37.809   8.108
 1063POPC   C4A17682  40.795  37.664   7.724
 1063POPC   C1B17683  40.262  37.625   8.832
 1063POPC   C2B17684  40.204  37.723   8.404
 1063POPC   C3B17685  40.307  37.740   7.973
 1063POPC   C4B17686  40.415  38.013   7.652
 1064POPC   NC317687  18.647  25.725   9.357
 1064POPC   PO417688  19.110  25.273   9.611
 1064POPC   GL117689  19.009  25.395   9.190
 1064POPC   GL217690  18.740  25.156   9.175
 1064POPC   C1A17691  18.852  25.582   8.778
 1064POPC   D2A17692  18.921  25.789   8.393
 1064POPC   C3A17693  19.224  25.532   8.145
 1064POPC   C4A17694  19.036  25.349   7.774
 1064POPC   C1B17695  18.841  25.074   8.728
 1064POPC   C2B17696  18.847  25.194   8.286
 1064POPC   C3B17697  18.742  24.952   7.889
 1064POPC   C4B17698  18.838  25.030   7.417
 1065POPC   NC317699  25.781  14.736   9.601
 1065POPC   PO417700  26.332  14.466   9.777
 1065POPC   GL117701  26.049  14.325   9.352
 1065POPC   GL217702  25.870  14.565   9.143
 1065POPC   C1A17703  25.870  14.144   8.901
 1065POPC   D2A17704  25.806  14.343   8.498
 1065POPC   C3A17705  25.971  14.179   8.125
 1065POPC   C4A17706  25.861  14.331   7.718
 1065POPC   C1B17707  26.218  14.519   8.860
 1065POPC   C2B17708  26.286  14.469   8.454
 1065POPC   C3B17709  26.093  14.658   8.131
 1065POPC   C4B17710  26.230  14.694   7.735
 1066POPC   NC317711  31.152  14.596   9.430
 1066POPC   PO417712  31.666  14.202   9.568
 1066POPC   GL117713  31.480  14.295   9.192
 1066POPC   GL217714  31.708  14.569   9.160
 1066POPC   C1A17715  31.354  14.482   8.790
 1066POPC   D2A17716  31.573  14.504   8.413
 1066POPC   C3A17717  31.317  14.708   8.130
 1066POPC   C4A17718  31.277  14.543   7.728
 1066POPC   C1B17719  31.849  14.292   8.831
 1066POPC   C2B17720  31.773  14.046   8.473
 1066POPC   C3B17721  31.907  14.133   8.027
 1066POPC   C4B17722  31.720  14.283   7.612
 1067POPC   NC317723  15.876  40.168   9.523
 1067POPC   PO417724  15.592  39.682   9.388
 1067POPC   GL117725  15.931  39.916   9.068
 1067POPC   GL217726  16.101  40.282   9.097
 1067POPC   C1A17727  16.175  40.013   8.670
 1067POPC   D2A17728  16.339  39.943   8.239
 1067POPC   C3A17729  16.075  40.028   7.863
 1067POPC   C4A17730  15.698  40.063   7.586
 1067POPC   C1B17731  15.828  40.359   8.733
 1067POPC   C2B17732  15.915  40.240   8.303
 1067POPC   C3B17733  15.795  40.439   7.935
 1067POPC   C4B17734  15.818  40.560   7.502
 1068POPC   NC317735   7.510  17.180   9.470
 1068POPC   PO417736   7.503  17.879   9.517
 1068POPC   GL117737   7.446  17.823   9.100
 1068POPC   GL217738   7.654  17.541   9.139
 1068POPC   C1A17739   7.367  17.553   8.720
 1068POPC   D2A17740   7.111  17.605   8.389
 1068POPC   C3A17741   7.292  17.534   8.023
 1068POPC   C4A17742   7.227  17.687   7.636
 1068POPC   C1B17743   7.839  17.735   8.783
 1068POPC   C2B17744   7.781  17.591   8.389
 1068POPC   C3B17745   7.785  17.615   7.957
 1068POPC   C4B17746   7.630  17.306   7.687
 1069POPC   NC317747  10.212  27.552   9.647
 1069POPC   PO417748  10.688  27.900   9.415
 1069POPC   GL117749  10.455  27.640   9.140
 1069POPC   GL217750  10.375  27.290   9.250
 1069POPC   C1A17751  10.496  27.678   8.688
 1069POPC   D2A17752  10.652  27.924   8.331
 1069POPC   C3A17753  10.445  27.788   7.952
 1069POPC   C4A17754  10.480  27.358   7.825
 1069POPC   C1B17755  10.639  27.214   8.900
 1069POPC   C2B17756  10.887  27.342   8.570
 1069POPC   C3B17757  10.894  27.310   8.134
 1069POPC   C4B17758  10.971  27.313   7.708
 1070POPC   NC317759  24.377  18.586   9.979
 1070POPC   PO417760  24.804  18.258   9.594
 1070POPC   GL117761  24.530  18.373   9.268
 1070POPC   GL217762  24.232  18.130   9.295
 1070POPC   C1A17763  24.641  18.437   8.827
 1070POPC   D2A17764  24.611  18.251   8.428
 1070POPC   C3A17765  24.546  18.464   8.088
 1070POPC   C4A17766  24.709  18.419   7.702
 1070POPC   C1B17767  24.146  18.359   8.922
 1070POPC   C2B17768  24.100  18.253   8.496
 1070POPC   C3B17769  24.076  18.213   8.063
 1070POPC   C4B17770  24.212  18.414   7.703
 1071POPC   NC317771   4.331  26.331   9.467
 1071POPC   PO417772   4.584  25.726   9.400
 1071POPC   GL117773   4.305  25.921   9.066
 1071POPC   GL217774   4.128  26.268   9.034
 1071POPC   C1A17775   4.488  26.111   8.704
 1071POPC   D2A17776   4.743  26.083   8.345
 1071POPC   C3A17777   4.459  26.003   8.022
 1071POPC   C4A17778   4.280  25.884   7.610
 1071POPC   C1B17779   3.942  26.090   8.718
 1071POPC   C2B17780   3.999  25.985   8.317
 1071POPC   C3B17781   3.970  26.132   7.935
 1071POPC   C4B17782   4.140  26.376   7.596
 1072POPC   NC317783  44.039  34.178   9.603
 1072POPC   PO417784  43.635  33.656   9.707
 1072POPC   GL117785  43.866  33.797   9.295
 1072POPC   GL217786  44.138  33.589   9.134
 1072POPC   C1A17787  43.890  33.961   8.854
 1072POPC   D2A17788  43.963  33.712   8.479
 1072POPC   C3A17789  43.919  33.896   8.073
 1072POPC   C4A17790  43.585  33.983   7.779
 1072POPC   C1B17791  43.747  33.456   8.914
 1072POPC   C2B17792  43.498  33.481   8.546
 1072POPC   C3B17793  43.675  33.398   8.132
 1072POPC   C4B17794  44.074  33.468   7.881
 1073POPC   NC317795   8.413  42.191   9.521
 1073POPC   PO417796   8.467  42.681   9.116
 1073POPC   GL117797   8.174  42.348   9.058
 1073POPC   GL217798   8.119  41.986   9.127
 1073POPC   C1A17799   8.237  42.234   8.665
 1073POPC   D2A17800   8.239  42.503   8.334
 1073POPC   C3A17801   8.375  42.394   7.954
 1073POPC   C4A17802   8.117  42.388   7.622
 1073POPC   C1B17803   7.781  42.075   8.820
 1073POPC   C2B17804   7.772  42.325   8.435
 1073POPC   C3B17805   7.871  42.192   8.010
 1073POPC   C4B17806   7.979  41.897   7.641
 1074POPC   NC317807  28.204   0.916   9.478
 1074POPC   PO417808  28.711   0.584   9.551
 1074POPC   GL117809  28.435   0.487   9.216
 1074POPC   GL217810  28.333   0.126   9.295
 1074POPC   C1A17811  28.448   0.628   8.778
 1074POPC   D2A17812  28.264   0.574   8.360
 1074POPC   C3A17813  28.396   0.589   7.897
 1074POPC   C4A17814  28.288   0.599   7.402
 1074POPC   C1B17815  28.232   0.163   8.863
 1074POPC   C2B17816  28.379   0.108   8.448
 1074POPC   C3B17817  28.103   0.153   8.088
 1074POPC   C4B17818  28.238   0.161   7.682
 1075POPC   NC317819  13.149   1.979   9.360
 1075POPC   PO417820  13.810   2.044   9.525
 1075POPC   GL117821  13.728   2.017   9.139
 1075POPC   GL217822  13.515   2.275   9.164
 1075POPC   C1A17823  13.756   2.142   8.712
 1075POPC   D2A17824  13.937   1.898   8.389
 1075POPC   C3A17825  13.703   1.772   8.021
 1075POPC   C4A17826  13.658   1.491   7.695
 1075POPC   C1B17827  13.278   2.315   8.834
 1075POPC   C2B17828  13.274   2.362   8.439
 1075POPC   C3B17829  13.357   2.189   8.067
 1075POPC   C4B17830  13.569   2.286   7.737
 1076POPC   NC317831  12.710  43.690   9.432
 1076POPC   PO417832  13.021  44.191   9.495
 1076POPC   GL117833  12.891  44.051   9.105
 1076POPC   GL217834  12.555  44.147   9.088
 1076POPC   C1A17835  12.900  43.738   8.785
 1076POPC   D2A17836  13.140  43.652   8.411
 1076POPC   C3A17837  13.125  43.995   8.101
 1076POPC   C4A17838  13.030  43.805   7.693
 1076POPC   C1B17839  12.326  44.152   8.706
 1076POPC   C2B17840  12.632  44.000   8.410
 1076POPC   C3B17841  12.650  43.823   8.014
 1076POPC   C4B17842  12.591  43.978   7.563
 1077POPC   NC317843  38.223   2.828   9.374
 1077POPC   PO417844  38.838   2.472   9.231
 1077POPC   GL117845  38.632   2.774   9.022
 1077POPC   GL217846  38.364   2.569   8.960
 1077POPC   C1A17847  38.803   2.828   8.624
 1077POPC   D2A17848  38.843   3.061   8.274
 1077POPC   C3A17849  38.563   2.804   8.056
 1077POPC   C4A17850  38.518   2.507   7.757
 1077POPC   C1B17851  38.205   2.837   8.680
 1077POPC   C2B17852  38.164   2.587   8.343
 1077POPC   C3B17853  37.979   2.621   7.989
 1077POPC   C4B17854  38.171   2.900   7.737
 1078POPC   NC317855  26.697  38.413   9.851
 1078POPC   PO417856  27.132  38.225   9.522
 1078POPC   GL117857  26.957  38.346   9.091
 1078POPC   GL217858  27.301  38.345   9.021
 1078POPC   C1A17859  26.661  38.470   8.691
 1078POPC   D2A17860  26.739  38.694   8.271
 1078POPC   C3A17861  26.774  38.418   7.892
 1078POPC   C4A17862  26.442  38.305   7.569
 1078POPC   C1B17863  27.148  38.401   8.589
 1078POPC   C2B17864  27.205  38.511   8.156
 1078POPC   C3B17865  27.110  38.778   7.790
 1078POPC   C4B17866  27.122  38.615   7.370
 1079POPC   NC317867  19.811  30.040   9.582
 1079POPC   PO417868  19.561  29.558   9.250
 1079POPC   GL117869  19.642  29.922   9.053
 1079POPC   GL217870  19.974  29.970   9.094
 1079POPC   C1A17871  19.794  29.809   8.647
 1079POPC   D2A17872  19.755  29.753   8.211
 1079POPC   C3A17873  19.522  30.068   7.984
 1079POPC   C4A17874  19.579  30.366   7.660
 1079POPC   C1B17875  20.074  30.267   8.816
 1079POPC   C2B17876  19.909  30.247   8.430
 1079POPC   C3B17877  20.038  30.171   8.017
 1079POPC   C4B17878  20.135  29.812   7.802
 1080POPC   NC317879   5.792  29.555   9.484
 1080POPC   PO417880   5.630  28.923   9.457
 1080POPC   GL117881   5.812  29.178   9.136
 1080POPC   GL217882   5.702  29.497   8.997
 1080POPC   C1A17883   6.010  29.125   8.773
 1080POPC   D2A17884   5.896  28.987   8.407
 1080POPC   C3A17885   6.124  29.185   8.120
 1080POPC   C4A17886   5.775  29.095   7.839
 1080POPC   C1B17887   5.669  29.457   8.591
 1080POPC   C2B17888   5.890  29.623   8.282
 1080POPC   C3B17889   5.581  29.564   8.011
 1080POPC   C4B17890   5.554  29.676   7.582
 1081POPC   NC317891   2.954   2.048   9.725
 1081POPC   PO417892   2.430   2.014   9.330
 1081POPC   GL117893   2.677   1.794   9.050
 1081POPC   GL217894   2.929   2.021   9.197
 1081POPC   C1A17895   2.631   1.807   8.591
 1081POPC   D2A17896   2.715   2.184   8.346
 1081POPC   C3A17897   2.752   2.113   7.920
 1081POPC   C4A17898   2.770   1.735   7.675
 1081POPC   C1B17899   3.029   2.054   8.772
 1081POPC   C2B17900   3.150   1.711   8.487
 1081POPC   C3B17901   3.083   1.696   8.048
 1081POPC   C4B17902   3.219   2.040   7.739
 1082POPC   NC317903  18.715   9.816   9.694
 1082POPC   PO417904  18.141   9.710   9.554
 1082POPC   GL117905  18.148   9.603   9.165
 1082POPC   GL217906  18.014   9.889   9.021
 1082POPC   C1A17907  18.445   9.659   8.849
 1082POPC   D2A17908  18.592   9.496   8.464
 1082POPC   C3A17909  18.375   9.532   8.090
 1082POPC   C4A17910  18.225   9.738   7.740
 1082POPC   C1B17911  17.944   9.542   8.704
 1082POPC   C2B17912  17.755   9.352   8.338
 1082POPC   C3B17913  17.847   9.469   7.965
 1082POPC   C4B17914  17.904   9.403   7.572
 1083POPC   NC317915  40.343  39.004   9.430
 1083POPC   PO417916  39.645  38.942   9.443
 1083POPC   GL117917  39.956  39.125   9.096
 1083POPC   GL217918  40.209  38.930   8.958
 1083POPC   C1A17919  40.111  39.483   8.811
 1083POPC   D2A17920  39.980  39.710   8.424
 1083POPC   C3A17921  40.112  39.549   8.013
 1083POPC   C4A17922  40.529  39.548   7.808
 1083POPC   C1B17923  40.063  39.025   8.580
 1083POPC   C2B17924  40.241  38.784   8.282
 1083POPC   C3B17925  40.049  38.830   7.944
 1083POPC   C4B17926  39.841  39.174   7.794
 1084POPC   NC317927   5.681  34.174   9.448
 1084POPC   PO417928   5.938  33.534   9.573
 1084POPC   GL117929   5.828  33.600   9.171
 1084POPC   GL217930   5.962  33.946   9.097
 1084POPC   C1A17931   5.917  33.568   8.753
 1084POPC   D2A17932   5.849  33.774   8.325
 1084POPC   C3A17933   5.942  33.697   7.890
 1084POPC   C4A17934   5.959  33.652   7.392
 1084POPC   C1B17935   5.707  34.030   8.741
 1084POPC   C2B17936   5.569  34.200   8.322
 1084POPC   C3B17937   5.808  34.208   7.932
 1084POPC   C4B17938   5.739  34.092   7.489
 1085POPC   NC317939   9.624  20.634   9.586
 1085POPC   PO417940  10.279  20.549   9.545
 1085POPC   GL117941  10.038  20.601   9.173
 1085POPC   GL217942   9.692  20.753   9.100
 1085POPC   C1A17943  10.126  20.768   8.776
 1085POPC   D2A17944   9.896  20.724   8.415
 1085POPC   C3A17945   9.895  20.543   8.019
 1085POPC   C4A17946   9.620  20.765   7.739
 1085POPC   C1B17947   9.672  20.438   8.769
 1085POPC   C2B17948   9.462  20.420   8.322
 1085POPC   C3B17949   9.470  20.302   7.844
 1085POPC   C4B17950   9.482  20.052   7.434
 1086POPC   NC317951  29.497   3.406   9.551
 1086POPC   PO417952  28.878   3.766   9.514
 1086POPC   GL117953  29.162   3.629   9.216
 1086POPC   GL217954  28.989   3.313   9.164
 1086POPC   C1A17955  29.446   3.808   8.870
 1086POPC   D2A17956  29.590   3.931   8.423
 1086POPC   C3A17957  29.424   3.737   8.056
 1086POPC   C4A17958  29.291   3.826   7.636
 1086POPC   C1B17959  29.083   3.475   8.750
 1086POPC   C2B17960  29.408   3.398   8.464
 1086POPC   C3B17961  29.283   3.249   8.074
 1086POPC   C4B17962  28.987   3.487   7.830
 1087POPC   NC317963  33.992  27.467   9.271
 1087POPC   PO417964  34.451  27.878   9.699
 1087POPC   GL117965  34.571  27.731   9.260
 1087POPC   GL217966  34.663  27.367   9.209
 1087POPC   C1A17967  34.593  27.750   8.813
 1087POPC   D2A17968  34.661  27.603   8.388
 1087POPC   C3A17969  34.541  27.896   8.075
 1087POPC   C4A17970  34.470  27.959   7.673
 1087POPC   C1B17971  34.902  27.326   8.793
 1087POPC   C2B17972  34.969  27.205   8.340
 1087POPC   C3B17973  34.803  27.357   7.909
 1087POPC   C4B17974  34.784  27.175   7.467
 1088POPC   NC317975  43.706  23.830   9.502
 1088POPC   PO417976  44.126  23.355   9.707
 1088POPC   GL117977  43.886  23.425   9.284
 1088POPC   GL217978  44.062  23.758   9.146
 1088POPC   C1A17979  43.730  23.453   8.862
 1088POPC   D2A17980  43.787  23.404   8.408
 1088POPC   C3A17981  43.852  23.695   8.085
 1088POPC   C4A17982  43.758  23.568   7.689
 1088POPC   C1B17983  44.187  23.941   8.746
 1088POPC   C2B17984  43.945  24.119   8.394
 1088POPC   C3B17985  44.009  24.205   7.969
 1088POPC   C4B17986  44.102  23.937   7.647
 1089POPC   NC317987  23.334   8.092   9.462
 1089POPC   PO417988  24.065   7.877   9.477
 1089POPC   GL117989  23.742   7.928   9.137
 1089POPC   GL217990  23.526   8.228   9.006
 1089POPC   C1A17991  23.763   7.918   8.695
 1089POPC   D2A17992  23.619   8.242   8.413
 1089POPC   C3A17993  23.554   8.105   7.990
 1089POPC   C4A17994  23.888   8.002   7.669
 1089POPC   C1B17995  23.944   8.392   8.819
 1089POPC   C2B17996  24.125   8.574   8.433
 1089POPC   C3B17997  23.956   8.415   8.027
 1089POPC   C4B17998  23.714   8.470   7.653
 1090POPC   NC317999  28.999  27.228   9.544
 1090POPC   PO418000  28.861  27.909   9.434
 1090POPC   GL118001  29.177  27.606   9.226
 1090POPC   GL218002  29.055  27.298   9.049
 1090POPC   C1A18003  29.401  27.576   8.816
 1090POPC   D2A18004  29.242  27.828   8.443
 1090POPC   C3A18005  29.220  27.620   8.056
 1090POPC   C4A18006  29.080  27.805   7.701
 1090POPC   C1B18007  28.905  27.626   8.766
 1090POPC   C2B18008  28.799  27.545   8.357
 1090POPC   C3B18009  28.856  27.204   8.102
 1090POPC   C4B18010  28.890  27.347   7.725
 1091POPC   NC318011   0.733  19.641   9.206
 1091POPC   PO418012   1.225  19.811   9.622
 1091POPC   GL118013   1.208  19.950   9.195
 1091POPC   GL218014   0.928  20.205   9.198
 1091POPC   C1A18015   1.271  19.686   8.807
 1091POPC   D2A18016   1.195  19.510   8.387
 1091POPC   C3A18017   1.421  19.755   8.071
 1091POPC   C4A18018   1.529  19.644   7.670
 1091POPC   C1B18019   0.931  20.097   8.779
 1091POPC   C2B18020   1.111  20.022   8.437
 1091POPC   C3B18021   0.919  19.882   8.119
 1091POPC   C4B18022   1.016  19.897   7.729
 1092POPC   NC318023  42.179  43.596   9.606
 1092POPC   PO418024  42.614  44.016   9.419
 1092POPC   GL118025  42.421  43.674   9.149
 1092POPC   GL218026  42.067  43.556   9.124
 1092POPC   C1A18027  42.315  43.715   8.710
 1092POPC   D2A18028  42.557  43.682   8.357
 1092POPC   C3A18029  42.360  43.895   8.027
 1092POPC   C4A18030  42.336  43.567   7.762
 1092POPC   C1B18031  41.833  43.510   8.774
 1092POPC   C2B18032  41.867  43.701   8.389
 1092POPC   C3B18033  41.883  43.585   7.993
 1092POPC   C4B18034  41.919  43.883   7.682
 1093POPC   NC318035  33.332   2.033   9.393
 1093POPC   PO418036  32.709   2.122   9.408
 1093POPC   GL118037  32.987   1.956   9.021
 1093POPC   GL218038  33.323   1.752   8.973
 1093POPC   C1A18039  33.034   1.871   8.569
 1093POPC   D2A18040  32.887   1.571   8.283
 1093POPC   C3A18041  32.845   1.805   7.928
 1093POPC   C4A18042  32.709   1.733   7.548
 1093POPC   C1B18043  33.450   2.106   8.752
 1093POPC   C2B18044  33.378   2.224   8.388
 1093POPC   C3B18045  33.282   2.008   8.047
 1093POPC   C4B18046  33.153   2.134   7.630
 1094POPC   NC318047  23.140  42.577   9.652
 1094POPC   PO418048  22.586  42.397   9.620
 1094POPC   GL118049  22.703  42.586   9.224
 1094POPC   GL218050  22.621  42.273   9.082
 1094POPC   C1A18051  22.859  42.592   8.752
 1094POPC   D2A18052  22.805  42.472   8.275
 1094POPC   C3A18053  23.088  42.382   7.919
 1094POPC   C4A18054  23.364  42.060   7.721
 1094POPC   C1B18055  22.611  42.142   8.645
 1094POPC   C2B18056  22.487  42.096   8.202
 1094POPC   C3B18057  22.602  42.183   7.815
 1094POPC   C4B18058  22.685  42.551   7.637
 1095POPC   NC318059  11.571  33.812   9.479
 1095POPC   PO418060  10.832  33.785   9.569
 1095POPC   GL118061  11.125  33.795   9.221
 1095POPC   GL218062  11.222  33.486   9.177
 1095POPC   C1A18063  11.334  33.881   8.815
 1095POPC   D2A18064  11.400  34.026   8.396
 1095POPC   C3A18065  11.026  34.071   8.150
 1095POPC   C4A18066  11.137  33.880   7.758
 1095POPC   C1B18067  11.387  33.380   8.794
 1095POPC   C2B18068  11.355  33.509   8.413
 1095POPC   C3B18069  11.455  33.580   8.026
 1095POPC   C4B18070  11.466  33.401   7.632
 1096POPC   NC318071   3.800  27.484   9.403
 1096POPC   PO418072   4.490  27.382   9.537
 1096POPC   GL118073   4.410  27.697   9.241
 1096POPC   GL218074   4.120  27.920   9.224
 1096POPC   C1A18075   4.432  27.682   8.814
 1096POPC   D2A18076   4.410  27.396   8.486
 1096POPC   C3A18077   4.441  27.628   8.111
 1096POPC   C4A18078   4.406  27.708   7.699
 1096POPC   C1B18079   3.948  27.878   8.800
 1096POPC   C2B18080   4.004  27.693   8.387
 1096POPC   C3B18081   3.942  27.679   7.935
 1096POPC   C4B18082   3.721  28.023   7.694
 1097POPC   NC318083  22.474  11.256   9.581
 1097POPC   PO418084  22.260  10.683   9.559
 1097POPC   GL118085  22.261  10.648   9.122
 1097POPC   GL218086  22.104  10.421   8.935
 1097POPC   C1A18087  22.337  10.788   8.696
 1097POPC   D2A18088  22.136  10.515   8.366
 1097POPC   C3A18089  22.310  10.538   7.963
 1097POPC   C4A18090  22.563  10.818   7.734
 1097POPC   C1B18091  21.761  10.321   8.680
 1097POPC   C2B18092  21.841  10.060   8.329
 1097POPC   C3B18093  21.835  10.259   7.939
 1097POPC   C4B18094  21.964  10.209   7.519
 1098POPC   NC318095  19.544  26.116   9.561
 1098POPC   PO418096  18.889  26.063   9.560
 1098POPC   GL118097  19.175  25.910   9.238
 1098POPC   GL218098  19.265  26.264   9.116
 1098POPC   C1A18099  19.273  25.870   8.796
 1098POPC   D2A18100  19.203  26.233   8.534
 1098POPC   C3A18101  19.195  26.123   8.113
 1098POPC   C4A18102  18.965  25.848   7.839
 1098POPC   C1B18103  18.842  26.173   8.901
 1098POPC   C2B18104  18.635  26.232   8.507
 1098POPC   C3B18105  18.632  26.198   8.053
 1098POPC   C4B18106  18.944  26.372   7.751
 1099POPC   NC318107  31.770  33.706   9.468
 1099POPC   PO418108  31.303  34.187   9.571
 1099POPC   GL118109  31.341  33.909   9.203
 1099POPC   GL218110  31.178  33.587   9.237
 1099POPC   C1A18111  31.586  33.987   8.796
 1099POPC   D2A18112  31.736  33.804   8.395
 1099POPC   C3A18113  31.566  33.990   8.022
 1099POPC   C4A18114  31.441  34.021   7.587
 1099POPC   C1B18115  31.483  33.508   8.906
 1099POPC   C2B18116  31.431  33.405   8.515
 1099POPC   C3B18117  31.335  33.526   8.149
 1099POPC   C4B18118  31.363  33.546   7.733
 1100POPC   NC318119   9.523  23.180   9.484
 1100POPC   PO418120   9.999  22.783   9.361
 1100POPC   GL118121   9.744  22.917   9.097
 1100POPC   GL218122  10.033  23.100   8.928
 1100POPC   C1A18123   9.576  23.025   8.741
 1100POPC   D2A18124   9.776  23.000   8.375
 1100POPC   C3A18125   9.531  23.082   8.060
 1100POPC   C4A18126   9.735  23.075   7.684
 1100POPC   C1B18127   9.981  22.663   8.703
 1100POPC   C2B18128  10.012  22.557   8.256
 1100POPC   C3B18129  10.289  22.650   7.905
 1100POPC   C4B18130  10.372  22.398   7.520
 1101POPC   NC318131  14.731  15.091   9.532
 1101POPC   PO418132  15.315  15.238   9.635
 1101POPC   GL118133  15.090  15.226   9.202
 1101POPC   GL218134  14.946  14.884   9.124
 1101POPC   C1A18135  14.850  15.291   8.797
 1101POPC   D2A18136  14.787  15.120   8.370
 1101POPC   C3A18137  14.963  15.262   7.967
 1101POPC   C4A18138  14.999  14.996   7.553
 1101POPC   C1B18139  15.236  14.958   8.781
 1101POPC   C2B18140  15.299  15.088   8.358
 1101POPC   C3B18141  15.334  14.923   7.949
 1101POPC   C4B18142  15.491  15.071   7.562
 1102POPC   NC318143  44.228  31.481   9.670
 1102POPC   PO418144  44.889  31.544   9.522
 1102POPC   GL118145  44.553  31.438   9.213
 1102POPC   GL218146  44.323  31.745   9.238
 1102POPC   C1A18147  44.610  31.229   8.764
 1102POPC   D2A18148  44.888  31.107   8.359
 1102POPC   C3A18149  44.881  31.352   7.948
 1102POPC   C4A18150  44.582  31.305   7.583
 1102POPC   C1B18151  44.549  31.776   8.841
 1102POPC   C2B18152  44.690  31.850   8.442
 1102POPC   C3B18153  44.523  31.703   8.076
 1102POPC   C4B18154  44.637  31.807   7.683
 1103POPC   NC318155  13.335   1.235   9.571
 1103POPC   PO418156  14.003   1.253   9.486
 1103POPC   GL118157  13.682   1.404   9.204
 1103POPC   GL218158  13.891   1.543   8.937
 1103POPC   C1A18159  13.483   1.255   8.827
 1103POPC   D2A18160  13.625   1.402   8.428
 1103POPC   C3A18161  13.426   1.248   8.067
 1103POPC   C4A18162  13.336   1.067   7.646
 1103POPC   C1B18163  13.966   1.113   8.716
 1103POPC   C2B18164  13.908   0.977   8.257
 1103POPC   C3B18165  13.812   1.006   7.795
 1103POPC   C4B18166  13.786   1.175   7.326
 1104POPC   NC318167  31.638  13.761   9.627
 1104POPC   PO418168  31.294  13.280   9.464
 1104POPC   GL118169  31.449  13.609   9.145
 1104POPC   GL218170  31.740  13.854   9.105
 1104POPC   C1A18171  31.615  13.543   8.693
 1104POPC   D2A18172  31.449  13.703   8.292
 1104POPC   C3A18173  31.227  13.450   7.978
 1104POPC   C4A18174  30.900  13.310   7.742
 1104POPC   C1B18175  31.358  13.974   8.800
 1104POPC   C2B18176  31.182  14.157   8.395
 1104POPC   C3B18177  31.397  14.107   7.981
 1104POPC   C4B18178  31.628  13.722   7.799
 1105POPC   NC318179  40.721  18.943   9.414
 1105POPC   PO418180  40.874  19.525   9.534
 1105POPC   GL118181  40.982  19.297   9.162
 1105POPC   GL218182  40.594  19.250   9.028
 1105POPC   C1A18183  40.987  19.111   8.766
 1105POPC   D2A18184  40.706  19.247   8.450
 1105POPC   C3A18185  40.838  19.309   8.039
 1105POPC   C4A18186  40.699  19.559   7.700
 1105POPC   C1B18187  40.533  18.857   8.737
 1105POPC   C2B18188  40.430  18.823   8.303
 1105POPC   C3B18189  40.529  18.953   7.880
 1105POPC   C4B18190  40.977  18.899   7.737
 1106POPC   NC318191  12.513  17.281   9.325
 1106POPC   PO418192  13.025  17.715   9.502
 1106POPC   GL118193  12.752  17.691   9.136
 1106POPC   GL218194  12.336  17.733   9.144
 1106POPC   C1A18195  12.969  17.621   8.731
 1106POPC   D2A18196  13.075  17.597   8.291
 1106POPC   C3A18197  12.843  17.223   8.139
 1106POPC   C4A18198  12.815  17.132   7.719
 1106POPC   C1B18199  12.484  17.801   8.734
 1106POPC   C2B18200  12.558  17.606   8.314
 1106POPC   C3B18201  12.587  17.571   7.837
 1106POPC   C4B18202  12.632  17.880   7.459
 1107POPC   NC318203  13.528  33.508   9.409
 1107POPC   PO418204  12.972  33.997   9.500
 1107POPC   GL118205  13.008  33.690   9.159
 1107POPC   GL218206  13.191  33.956   9.030
 1107POPC   C1A18207  12.795  33.697   8.739
 1107POPC   D2A18208  12.763  33.845   8.308
 1107POPC   C3A18209  12.727  33.577   7.940
 1107POPC   C4A18210  12.600  33.727   7.545
 1107POPC   C1B18211  13.304  33.665   8.711
 1107POPC   C2B18212  13.338  33.826   8.305
 1107POPC   C3B18213  13.144  33.862   7.941
 1107POPC   C4B18214  12.768  34.113   7.836
 1108POPC   NC318215  30.443  11.354   9.509
 1108POPC   PO418216  31.026  11.542   9.417
 1108POPC   GL118217  30.853  11.225   9.146
 1108POPC   GL218218  30.646  11.424   9.021
 1108POPC   C1A18219  30.824  11.046   8.726
 1108POPC   D2A18220  30.799  11.213   8.328
 1108POPC   C3A18221  30.738  10.935   8.022
 1108POPC   C4A18222  30.772  11.059   7.609
 1108POPC   C1B18223  30.421  11.346   8.665
 1108POPC   C2B18224  30.403  11.533   8.288
 1108POPC   C3B18225  30.583  11.435   7.896
 1108POPC   C4B18226  30.554  11.512   7.451
 1109POPC   NC318227  18.812  28.307   9.165
 1109POPC   PO418228  19.283  28.518   9.583
 1109POPC   GL118229  19.296  28.503   9.119
 1109POPC   GL218230  19.300  28.154   9.068
 1109POPC   C1A18231  19.122  28.508   8.656
 1109POPC   D2A18232  19.033  28.670   8.231
 1109POPC   C3A18233  19.207  28.457   7.857
 1109POPC   C4A18234  18.997  28.244   7.483
 1109POPC   C1B18235  19.254  28.008   8.672
 1109POPC   C2B18236  19.033  28.021   8.298
 1109POPC   C3B18237  19.149  27.947   7.892
 1109POPC   C4B18238  19.567  27.780   7.793
 1110POPC   NC318239   7.959  17.949   9.400
 1110POPC   PO418240   8.183  17.282   9.482
 1110POPC   GL118241   8.162  17.512   9.129
 1110POPC   GL218242   8.357  17.797   9.076
 1110POPC   C1A18243   8.226  17.415   8.710
 1110POPC   D2A18244   8.277  17.586   8.299
 1110POPC   C3A18245   8.159  17.293   8.033
 1110POPC   C4A18246   8.268  17.059   7.701
 1110POPC   C1B18247   8.312  17.941   8.676
 1110POPC   C2B18248   8.576  18.010   8.373
 1110POPC   C3B18249   8.617  17.834   7.971
 1110POPC   C4B18250   8.346  17.606   7.693
 1111POPC   NC318251   6.637  29.674   9.526
 1111POPC   PO418252   6.356  30.295   9.484
 1111POPC   GL118253   6.582  30.014   9.130
 1111POPC   GL218254   6.414  29.732   9.085
 1111POPC   C1A18255   6.726  29.848   8.714
 1111POPC   D2A18256   6.964  29.821   8.353
 1111POPC   C3A18257   6.763  29.910   7.964
 1111POPC   C4A18258   6.769  29.787   7.518
 1111POPC   C1B18259   6.222  29.608   8.697
 1111POPC   C2B18260   6.410  29.652   8.274
 1111POPC   C3B18261   6.507  29.479   7.839
 1111POPC   C4B18262   6.395  29.478   7.365
 1112POPC   NC318263   6.527  39.704   9.401
 1112POPC   PO418264   6.441  40.439   9.608
 1112POPC   GL118265   6.546  40.218   9.250
 1112POPC   GL218266   6.287  40.162   9.014
 1112POPC   C1A18267   6.852  40.201   8.940
 1112POPC   D2A18268   6.964  40.337   8.565
 1112POPC   C3A18269   6.800  40.070   8.254
 1112POPC   C4A18270   6.515  40.165   7.922
 1112POPC   C1B18271   6.432  39.959   8.641
 1112POPC   C2B18272   6.211  39.895   8.226
 1112POPC   C3B18273   6.296  39.730   7.797
 1112POPC   C4B18274   6.433  39.624   7.404
 1113POPC   NC318275  25.805  17.857   9.334
 1113POPC   PO418276  26.370  18.217   9.550
 1113POPC   GL118277  26.066  18.254   9.145
 1113POPC   GL218278  25.875  18.543   9.069
 1113POPC   C1A18279  25.886  18.218   8.686
 1113POPC   D2A18280  26.121  18.039   8.336
 1113POPC   C3A18281  26.174  18.084   7.895
 1113POPC   C4A18282  26.057  18.235   7.495
 1113POPC   C1B18283  26.226  18.599   8.776
 1113POPC   C2B18284  26.178  18.739   8.368
 1113POPC   C3B18285  26.017  18.557   8.002
 1113POPC   C4B18286  26.184  18.700   7.617
 1114POPC   NC318287  13.685   4.621   9.581
 1114POPC   PO418288  13.555   4.013   9.358
 1114POPC   GL118289  13.672   4.348   9.067
 1114POPC   GL218290  13.428   4.565   9.142
 1114POPC   C1A18291  13.655   4.372   8.588
 1114POPC   D2A18292  13.592   4.056   8.245
 1114POPC   C3A18293  13.787   4.127   7.823
 1114POPC   C4A18294  13.941   4.259   7.374
 1114POPC   C1B18295  13.211   4.553   8.762
 1114POPC   C2B18296  13.251   4.720   8.371
 1114POPC   C3B18297  13.231   4.645   7.951
 1114POPC   C4B18298  13.450   4.437   7.603
 1115POPC   NC318299   1.360  41.616   9.707
 1115POPC   PO418300   0.913  42.034   9.358
 1115POPC   GL118301   1.131  41.810   9.074
 1115POPC   GL218302   1.219  41.485   9.209
 1115POPC   C1A18303   1.114  41.760   8.651
 1115POPC   D2A18304   1.159  41.506   8.286
 1115POPC   C3A18305   0.997  41.725   7.936
 1115POPC   C4A18306   1.301  41.817   7.593
 1115POPC   C1B18307   1.356  41.320   8.785
 1115POPC   C2B18308   1.590  41.191   8.403
 1115POPC   C3B18309   1.608  41.390   8.020
 1115POPC   C4B18310   1.245  41.324   7.775
 1116POPC   NC318311  32.514  25.239   9.533
 1116POPC   PO418312  32.022  25.635   9.396
 1116POPC   GL118313  32.302  25.484   9.127
 1116POPC   GL218314  32.193  25.162   9.145
 1116POPC   C1A18315  32.147  25.525   8.724
 1116POPC   D2A18316  32.347  25.519   8.353
 1116POPC   C3A18317  32.049  25.545   8.016
 1116POPC   C4A18318  32.154  25.318   7.682
 1116POPC   C1B18319  32.405  25.093   8.757
 1116POPC   C2B18320  32.400  24.985   8.297
 1116POPC   C3B18321  32.396  24.909   7.836
 1116POPC   C4B18322  32.112  24.840   7.441
 1117POPC   NC318323  24.189  15.522   9.348
 1117POPC   PO418324  24.942  15.510   9.409
 1117POPC   GL118325  24.806  15.872   9.099
 1117POPC   GL218326  24.418  15.984   9.071
 1117POPC   C1A18327  24.733  15.924   8.656
 1117POPC   D2A18328  24.620  15.552   8.403
 1117POPC   C3A18329  24.447  15.643   7.992
 1117POPC   C4A18330  24.459  15.850   7.614
 1117POPC   C1B18331  24.139  16.047   8.659
 1117POPC   C2B18332  24.141  16.026   8.168
 1117POPC   C3B18333  24.143  16.215   7.742
 1117POPC   C4B18334  24.004  16.425   7.338
 1118POPC   NC318335  37.810  33.527   9.662
 1118POPC   PO418336  38.153  34.073   9.441
 1118POPC   GL118337  37.863  33.868   9.143
 1118POPC   GL218338  37.569  33.677   9.239
 1118POPC   C1A18339  37.628  33.878   8.761
 1118POPC   D2A18340  37.472  33.955   8.343
 1118POPC   C3A18341  37.785  33.929   8.064
 1118POPC   C4A18342  37.884  33.943   7.677
 1118POPC   C1B18343  37.543  33.369   8.895
 1118POPC   C2B18344  37.374  33.464   8.479
 1118POPC   C3B18345  37.444  33.534   8.026
 1118POPC   C4B18346  37.564  33.556   7.583
 1119POPC   NC318347  25.141  17.044   9.429
 1119POPC   PO418348  25.642  17.474   9.543
 1119POPC   GL118349  25.356  17.643   9.236
 1119POPC   GL218350  25.042  17.495   9.180
 1119POPC   C1A18351  25.414  17.462   8.824
 1119POPC   D2A18352  25.538  17.239   8.464
 1119POPC   C3A18353  25.415  17.425   8.063
 1119POPC   C4A18354  25.324  17.787   7.831
 1119POPC   C1B18355  24.908  17.685   8.763
 1119POPC   C2B18356  24.905  17.814   8.304
 1119POPC   C3B18357  24.880  17.547   7.924
 1119POPC   C4B18358  25.041  17.133   7.783
 1120POPC   NC318359   5.341  14.881   9.475
 1120POPC   PO418360   4.883  15.416   9.419
 1120POPC   GL118361   4.988  15.308   9.028
 1120POPC   GL218362   5.304  15.243   9.107
 1120POPC   C1A18363   5.127  15.000   8.707
 1120POPC   D2A18364   5.409  14.918   8.362
 1120POPC   C3A18365   5.198  14.983   7.979
 1120POPC   C4A18366   4.995  15.307   7.712
 1120POPC   C1B18367   5.445  15.451   8.777
 1120POPC   C2B18368   5.239  15.436   8.401
 1120POPC   C3B18369   5.426  15.443   8.027
 1120POPC   C4B18370   5.537  15.277   7.693
 1121POPC   NC318371  12.917  24.404   9.552
 1121POPC   PO418372  12.913  23.767   9.607
 1121POPC   GL118373  12.765  23.898   9.229
 1121POPC   GL218374  12.708  23.568   9.178
 1121POPC   C1A18375  12.619  23.848   8.791
 1121POPC   D2A18376  12.727  23.640   8.469
 1121POPC   C3A18377  12.760  23.765   8.102
 1121POPC   C4A18378  12.535  23.644   7.750
 1121POPC   C1B18379  13.048  23.572   8.870
 1121POPC   C2B18380  13.183  23.442   8.429
 1121POPC   C3B18381  12.941  23.286   8.090
 1121POPC   C4B18382  13.007  23.509   7.694
 1122POPC   NC318383   1.629  30.801   9.516
 1122POPC   PO418384   2.231  30.614   9.519
 1122POPC   GL118385   2.040  30.579   9.104
 1122POPC   GL218386   1.711  30.702   9.032
 1122POPC   C1A18387   2.279  30.494   8.729
 1122POPC   D2A18388   2.257  30.706   8.345
 1122POPC   C3A18389   2.033  30.576   7.934
 1122POPC   C4A18390   2.241  30.628   7.501
 1122POPC   C1B18391   1.824  30.716   8.602
 1122POPC   C2B18392   1.829  30.947   8.235
 1122POPC   C3B18393   1.623  30.884   7.893
 1122POPC   C4B18394   1.729  30.722   7.507
 1123POPC   NC318395  33.676  44.367   9.515
 1123POPC   PO418396  34.045  44.986   9.658
 1123POPC   GL118397  34.054  44.899   9.216
 1123POPC   GL218398  33.729  44.801   9.221
 1123POPC   C1A18399  34.160   0.040   8.762
 1123POPC   D2A18400  34.213   0.185   8.306
 1123POPC   C3A18401  34.218  44.840   7.992
 1123POPC   C4A18402  34.063  44.752   7.559
 1123POPC   C1B18403  33.830  44.628   8.813
 1123POPC   C2B18404  33.797  44.846   8.392
 1123POPC   C3B18405  33.701  44.711   7.969
 1123POPC   C4B18406  33.666  44.306   7.729
 1124POPC   NC318407   4.209   2.064   9.351
 1124POPC   PO418408   4.698   2.328   9.729
 1124POPC   GL118409   4.681   1.914   9.234
 1124POPC   GL218410   4.392   1.716   9.020
 1124POPC   C1A18411   4.556   2.033   8.713
 1124POPC   D2A18412   4.315   1.791   8.439
 1124POPC   C3A18413   4.461   1.926   8.069
 1124POPC   C4A18414   4.321   2.166   7.730
 1124POPC   C1B18415   3.977   1.899   8.784
 1124POPC   C2B18416   3.922   2.088   8.337
 1124POPC   C3B18417   4.011   1.770   7.988
 1124POPC   C4B18418   4.239   1.686   7.609
 1125POPC   NC318419   3.819  18.484   9.970
 1125POPC   PO418420   3.222  18.346   9.625
 1125POPC   GL118421   3.478  18.414   9.245
 1125POPC   GL218422   3.494  18.758   9.156
 1125POPC   C1A18423   3.753  18.425   8.844
 1125POPC   D2A18424   3.824  18.498   8.370
 1125POPC   C3A18425   3.478  18.332   8.058
 1125POPC   C4A18426   3.266  17.912   7.904
 1125POPC   C1B18427   3.214  18.534   8.814
 1125POPC   C2B18428   3.018  18.445   8.375
 1125POPC   C3B18429   3.071  18.644   7.925
 1125POPC   C4B18430   3.389  18.582   7.592
 1126POPC   NC318431  32.269   1.995   9.335
 1126POPC   PO418432  31.790   1.620   9.762
 1126POPC   GL118433  31.874   1.626   9.227
 1126POPC   GL218434  31.890   1.965   8.991
 1126POPC   C1A18435  31.997   1.582   8.725
 1126POPC   D2A18436  31.903   1.885   8.410
 1126POPC   C3A18437  32.120   1.931   8.044
 1126POPC   C4A18438  32.016   2.280   7.796
 1126POPC   C1B18439  32.285   2.012   8.706
 1126POPC   C2B18440  32.564   1.985   8.375
 1126POPC   C3B18441  32.754   2.280   8.136
 1126POPC   C4B18442  32.553   2.207   7.770
 1127POPC   NC318443  30.054  33.948   9.416
 1127POPC   PO418444  29.829  33.353   9.525
 1127POPC   GL118445  29.784  33.592   9.148
 1127POPC   GL218446  30.129  33.623   9.036
 1127POPC   C1A18447  29.701  33.672   8.722
 1127POPC   D2A18448  30.051  33.651   8.422
 1127POPC   C3A18449  29.858  33.628   8.036
 1127POPC   C4A18450  29.965  33.780   7.672
 1127POPC   C1B18451  30.319  33.977   8.801
 1127POPC   C2B18452  30.209  34.135   8.420
 1127POPC   C3B18453  30.282  34.002   8.038
 1127POPC   C4B18454  30.329  34.132   7.644
 1128POPC   NC318455  37.316  43.040   9.545
 1128POPC   PO418456  37.967  43.225   9.521
 1128POPC   GL118457  37.726  42.904   9.256
 1128POPC   GL218458  37.812  43.124   9.013
 1128POPC   C1A18459  37.562  42.727   8.826
 1128POPC   D2A18460  37.798  42.801   8.441
 1128POPC   C3A18461  37.649  42.961   8.017
 1128POPC   C4A18462  37.270  42.914   7.752
 1128POPC   C1B18463  38.118  43.243   8.724
 1128POPC   C2B18464  38.037  43.257   8.310
 1128POPC   C3B18465  38.114  43.506   7.977
 1128POPC   C4B18466  37.889  43.296   7.661
 1129POPC   NC318467  18.591  37.079   9.533
 1129POPC   PO418468  18.181  36.508   9.462
 1129POPC   GL118469  18.278  36.790   9.158
 1129POPC   GL218470  18.216  37.155   9.205
 1129POPC   C1A18471  18.366  36.687   8.732
 1129POPC   D2A18472  18.194  36.759   8.317
 1129POPC   C3A18473  18.318  36.656   7.872
 1129POPC   C4A18474  18.088  36.703   7.487
 1129POPC   C1B18475  18.508  37.157   8.865
 1129POPC   C2B18476  18.581  37.095   8.419
 1129POPC   C3B18477  18.340  37.145   8.015
 1129POPC   C4B18478  18.404  37.112   7.547
 1130POPC   NC318479  35.271  40.688   9.902
 1130POPC   PO418480  35.514  40.576   9.274
 1130POPC   GL118481  35.294  40.619   8.969
 1130POPC   GL218482  35.010  40.696   9.147
 1130POPC   C1A18483  35.395  40.880   8.620
 1130POPC   D2A18484  35.516  40.719   8.235
 1130POPC   C3A18485  35.550  41.024   7.914
 1130POPC   C4A18486  35.713  40.896   7.557
 1130POPC   C1B18487  34.905  40.881   8.769
 1130POPC   C2B18488  34.976  40.766   8.314
 1130POPC   C3B18489  35.134  40.705   7.880
 1130POPC   C4B18490  35.213  40.902   7.467
 1131POPC   NC318491  39.728  34.633   9.448
 1131POPC   PO418492  40.419  34.562   9.429
 1131POPC   GL118493  40.105  34.580   9.092
 1131POPC   GL218494  39.850  34.308   9.026
 1131POPC   C1A18495  40.053  34.639   8.653
 1131POPC   D2A18496  39.875  34.531   8.265
 1131POPC   C3A18497  40.218  34.439   8.012
 1131POPC   C4A18498  40.264  34.789   7.767
 1131POPC   C1B18499  39.558  34.467   8.711
 1131POPC   C2B18500  39.418  34.747   8.365
 1131POPC   C3B18501  39.547  34.778   7.938
 1131POPC   C4B18502  39.803  34.485   7.728
 1132POPC   NC318503  13.145  34.424   9.522
 1132POPC   PO418504  13.199  34.916   9.258
 1132POPC   GL118505  12.979  34.530   9.055
 1132POPC   GL218506  12.638  34.632   9.123
 1132POPC   C1A18507  12.911  34.229   8.689
 1132POPC   D2A18508  13.054  34.265   8.248
 1132POPC   C3A18509  12.905  34.595   7.957
 1132POPC   C4A18510  13.126  34.892   7.674
 1132POPC   C1B18511  12.683  34.702   8.671
 1132POPC   C2B18512  12.572  34.426   8.333
 1132POPC   C3B18513  12.340  34.438   7.973
 1132POPC   C4B18514  12.399  34.353   7.578
 1133POPC   NC318515   6.897   8.173   9.267
 1133POPC   PO418516   7.112   7.854   9.802
 1133POPC   GL118517   7.303   7.870   9.340
 1133POPC   GL218518   7.640   7.893   9.407
 1133POPC   C1A18519   7.389   8.082   8.854
 1133POPC   D2A18520   7.477   8.310   8.412
 1133POPC   C3A18521   7.286   8.337   7.962
 1133POPC   C4A18522   7.119   8.054   7.656
 1133POPC   C1B18523   7.644   7.664   8.994
 1133POPC   C2B18524   7.690   7.816   8.526
 1133POPC   C3B18525   7.462   7.880   8.132
 1133POPC   C4B18526   7.616   7.999   7.764
 1134POPC   NC318527   3.772  11.092   9.847
 1134POPC   PO418528   4.359  11.184   9.443
 1134POPC   GL118529   4.293  11.129   9.040
 1134POPC   GL218530   4.561  10.939   9.029
 1134POPC   C1A18531   4.198  11.422   8.736
 1134POPC   D2A18532   4.447  11.549   8.400
 1134POPC   C3A18533   4.352  11.343   8.003
 1134POPC   C4A18534   4.259  11.497   7.564
 1134POPC   C1B18535   4.756  11.098   8.712
 1134POPC   C2B18536   4.731  10.972   8.290
 1134POPC   C3B18537   4.866  11.171   7.953
 1134POPC   C4B18538   4.655  11.185   7.601
 1135POPC   NC318539  23.889  10.017   9.414
 1135POPC   PO418540  23.463   9.490   9.394
 1135POPC   GL118541  23.780   9.588   9.111
 1135POPC   GL218542  24.147   9.488   9.187
 1135POPC   C1A18543  23.647   9.723   8.707
 1135POPC   D2A18544  23.528  10.013   8.396
 1135POPC   C3A18545  23.483   9.791   8.035
 1135POPC   C4A18546  23.585   9.806   7.624
 1135POPC   C1B18547  24.170   9.778   8.815
 1135POPC   C2B18548  24.026   9.869   8.379
 1135POPC   C3B18549  23.994   9.967   7.940
 1135POPC   C4B18550  24.108   9.590   7.720
 1136POPC   NC318551  22.277   9.334   9.622
 1136POPC   PO418552  21.863   8.792   9.461
 1136POPC   GL118553  22.075   8.812   9.112
 1136POPC   GL218554  22.278   9.087   9.180
 1136POPC   C1A18555  22.121   8.988   8.701
 1136POPC   D2A18556  22.276   8.840   8.327
 1136POPC   C3A18557  21.995   8.736   8.014
 1136POPC   C4A18558  22.119   8.496   7.665
 1136POPC   C1B18559  22.526   9.291   8.858
 1136POPC   C2B18560  22.735   9.136   8.476
 1136POPC   C3B18561  22.607   9.160   8.053
 1136POPC   C4B18562  22.241   9.084   7.783
 1137POPC   NC318563   2.428  25.963   9.428
 1137POPC   PO418564   3.137  26.195   9.488
 1137POPC   GL118565   3.017  26.082   9.125
 1137POPC   GL218566   2.815  25.795   9.110
 1137POPC   C1A18567   3.062  26.034   8.715
 1137POPC   D2A18568   2.769  26.055   8.396
 1137POPC   C3A18569   2.977  26.133   8.039
 1137POPC   C4A18570   3.110  26.405   7.758
 1137POPC   C1B18571   2.498  25.752   8.741
 1137POPC   C2B18572   2.454  25.651   8.264
 1137POPC   C3B18573   2.681  25.769   7.857
 1137POPC   C4B18574   2.475  25.791   7.385
 1138POPC   NC318575   5.498  42.724   9.534
 1138POPC   PO418576   4.970  42.312   9.543
 1138POPC   GL118577   5.240  42.192   9.196
 1138POPC   GL218578   5.279  42.532   9.127
 1138POPC   C1A18579   5.125  41.924   8.819
 1138POPC   D2A18580   4.765  42.020   8.493
 1138POPC   C3A18581   4.921  42.122   8.056
 1138POPC   C4A18582   5.238  41.996   7.755
 1138POPC   C1B18583   5.056  42.422   8.770
 1138POPC   C2B18584   5.228  42.408   8.361
 1138POPC   C3B18585   5.252  42.532   7.912
 1138POPC   C4B18586   5.013  42.454   7.541
 1139POPC   NC318587  17.461   6.248   9.259
 1139POPC   PO418588  17.245   5.595   9.411
 1139POPC   GL118589  17.454   5.763   9.061
 1139POPC   GL218590  17.801   5.920   9.078
 1139POPC   C1A18591  17.354   5.952   8.674
 1139POPC   D2A18592  17.575   5.857   8.303
 1139POPC   C3A18593  17.335   5.833   7.908
 1139POPC   C4A18594  17.095   5.728   7.536
 1139POPC   C1B18595  17.806   6.219   8.704
 1139POPC   C2B18596  17.978   6.205   8.284
 1139POPC   C3B18597  17.783   6.091   7.908
 1139POPC   C4B18598  17.749   6.189   7.505
 1140POPC   NC318599   6.881  22.421   9.645
 1140POPC   PO418600   6.224  22.091   9.559
 1140POPC   GL118601   6.523  22.063   9.211
 1140POPC   GL218602   6.797  22.323   9.159
 1140POPC   C1A18603   6.495  21.964   8.782
 1140POPC   D2A18604   6.459  22.171   8.385
 1140POPC   C3A18605   6.659  22.127   7.993
 1140POPC   C4A18606   6.366  22.042   7.665
 1140POPC   C1B18607   6.820  22.382   8.730
 1140POPC   C2B18608   6.996  22.368   8.322
 1140POPC   C3B18609   7.038  22.454   7.872
 1140POPC   C4B18610   6.797  22.342   7.515
 1141POPC   NC318611  37.316  19.483   9.516
 1141POPC   PO418612  37.768  19.905   9.586
 1141POPC   GL118613  37.759  19.669   9.219
 1141POPC   GL218614  38.053  19.502   9.131
 1141POPC   C1A18615  37.538  19.691   8.815
 1141POPC   D2A18616  37.531  20.071   8.526
 1141POPC   C3A18617  37.617  20.025   8.065
 1141POPC   C4A18618  37.495  19.704   7.747
 1141POPC   C1B18619  38.055  19.719   8.763
 1141POPC   C2B18620  37.814  19.659   8.376
 1141POPC   C3B18621  37.957  19.642   7.950
 1141POPC   C4B18622  37.842  19.345   7.625
 1142POPC   NC318623   8.409  41.221   9.530
 1142POPC   PO418624   7.859  40.985   9.455
 1142POPC   GL118625   8.055  40.753   9.105
 1142POPC   GL218626   8.411  40.863   9.104
 1142POPC   C1A18627   7.897  40.515   8.710
 1142POPC   D2A18628   7.906  40.747   8.302
 1142POPC   C3A18629   8.037  40.690   7.888
 1142POPC   C4A18630   8.004  40.508   7.497
 1142POPC   C1B18631   8.265  40.869   8.670
 1142POPC   C2B18632   8.104  41.205   8.424
 1142POPC   C3B18633   8.157  41.172   8.000
 1142POPC   C4B18634   8.566  41.066   7.829
 1143POPC   NC318635  20.460  36.599   9.472
 1143POPC   PO418636  19.901  36.948   9.409
 1143POPC   GL118637  19.717  36.919   9.025
 1143POPC   GL218638  19.415  37.060   8.989
 1143POPC   C1A18639  19.862  36.780   8.653
 1143POPC   D2A18640  20.197  36.527   8.499
 1143POPC   C3A18641  20.263  36.721   8.129
 1143POPC   C4A18642  19.941  36.897   7.859
 1143POPC   C1B18643  19.569  37.220   8.608
 1143POPC   C2B18644  19.590  36.991   8.230
 1143POPC   C3B18645  19.435  36.830   7.859
 1143POPC   C4B18646  19.581  37.098   7.522
 1144POPC   NC318647  39.354   0.808   9.394
 1144POPC   PO418648  38.977   1.287   9.467
 1144POPC   GL118649  39.106   1.161   9.079
 1144POPC   GL218650  39.437   1.268   9.115
 1144POPC   C1A18651  39.223   0.910   8.720
 1144POPC   D2A18652  39.267   1.059   8.318
 1144POPC   C3A18653  38.969   1.289   8.143
 1144POPC   C4A18654  39.004   1.104   7.772
 1144POPC   C1B18655  39.352   1.417   8.697
 1144POPC   C2B18656  39.605   1.440   8.324
 1144POPC   C3B18657  39.402   1.504   7.906
 1144POPC   C4B18658  38.983   1.664   7.803
 1145POPC   NC318659  26.606   2.191   9.541
 1145POPC   PO418660  26.877   1.596   9.370
 1145POPC   GL118661  26.772   1.869   8.988
 1145POPC   GL218662  26.838   2.230   9.037
 1145POPC   C1A18663  27.072   1.982   8.622
 1145POPC   D2A18664  27.277   1.898   8.217
 1145POPC   C3A18665  26.958   1.993   7.904
 1145POPC   C4A18666  26.519   1.811   7.771
 1145POPC   C1B18667  26.692   2.308   8.604
 1145POPC   C2B18668  26.555   2.110   8.211
 1145POPC   C3B18669  26.502   2.311   7.801
 1145POPC   C4B18670  26.565   2.545   7.433
 1146POPC   NC318671  21.816  22.177   9.820
 1146POPC   PO418672  21.199  22.434   9.491
 1146POPC   GL118673  21.131  22.322   9.067
 1146POPC   GL218674  21.335  22.022   9.041
 1146POPC   C1A18675  21.161  22.278   8.617
 1146POPC   D2A18676  21.435  22.288   8.278
 1146POPC   C3A18677  21.386  22.105   7.894
 1146POPC   C4A18678  21.274  22.284   7.467
 1146POPC   C1B18679  21.656  22.191   8.731
 1146POPC   C2B18680  21.928  22.371   8.423
 1146POPC   C3B18681  21.836  22.462   7.986
 1146POPC   C4B18682  21.787  22.235   7.631
 1147POPC   NC318683   3.865   3.173   9.402
 1147POPC   PO418684   3.603   3.807   9.437
 1147POPC   GL118685   3.534   3.528   9.113
 1147POPC   GL218686   3.365   3.214   9.234
 1147POPC   C1A18687   3.582   3.659   8.689
 1147POPC   D2A18688   3.768   3.983   8.422
 1147POPC   C3A18689   3.880   3.752   8.040
 1147POPC   C4A18690   3.767   3.355   7.843
 1147POPC   C1B18691   3.465   3.112   8.804
 1147POPC   C2B18692   3.520   3.235   8.379
 1147POPC   C3B18693   3.278   3.143   8.019
 1147POPC   C4B18694   3.313   3.198   7.611
 1148POPC   NC318695   1.808  26.571   9.774
 1148POPC   PO418696   2.170  26.328   9.273
 1148POPC   GL118697   1.873  26.031   9.184
 1148POPC   GL218698   1.536  26.087   9.191
 1148POPC   C1A18699   1.832  25.808   8.824
 1148POPC   D2A18700   2.029  25.952   8.455
 1148POPC   C3A18701   1.933  25.824   8.045
 1148POPC   C4A18702   2.272  26.044   7.809
 1148POPC   C1B18703   1.446  26.263   8.823
 1148POPC   C2B18704   1.669  26.332   8.471
 1148POPC   C3B18705   1.891  26.353   8.096
 1148POPC   C4B18706   1.823  26.207   7.698
 1149POPC   NC318707  44.716  33.363   9.513
 1149POPC   PO418708   0.053  33.840   9.275
 1149POPC   GL118709  44.625  33.805   9.089
 1149POPC   GL218710  44.356  34.059   9.205
 1149POPC   C1A18711  44.438  33.680   8.681
 1149POPC   D2A18712  44.425  33.688   8.221
 1149POPC   C3A18713  44.781  33.881   8.014
 1149POPC   C4A18714  44.859  34.108   7.645
 1149POPC   C1B18715  44.388  34.176   8.780
 1149POPC   C2B18716  44.583  34.189   8.400
 1149POPC   C3B18717  44.367  34.192   8.021
 1149POPC   C4B18718  44.353  33.886   7.730
 1150POPC   NC318719  28.504   3.491   9.469
 1150POPC   PO418720  28.305   4.172   9.503
 1150POPC   GL118721  28.291   3.847   9.164
 1150POPC   GL218722  28.630   3.720   9.047
 1150POPC   C1A18723  28.153   3.611   8.801
 1150POPC   D2A18724  28.343   3.598   8.392
 1150POPC   C3A18725  28.082   3.445   8.042
 1150POPC   C4A18726  28.128   3.472   7.604
 1150POPC   C1B18727  28.595   3.312   8.806
 1150POPC   C2B18728  28.788   3.231   8.397
 1150POPC   C3B18729  28.563   3.302   8.020
 1150POPC   C4B18730  28.608   3.214   7.593
 1151POPC   NC318731  42.204  24.654   9.561
 1151POPC   PO418732  42.517  24.041   9.526
 1151POPC   GL118733  42.299  24.266   9.199
 1151POPC   GL218734  42.401  24.623   9.094
 1151POPC   C1A18735  42.093  24.201   8.803
 1151POPC   D2A18736  41.882  24.275   8.407
 1151POPC   C3A18737  42.134  24.477   8.105
 1151POPC   C4A18738  42.231  24.317   7.716
 1151POPC   C1B18739  42.613  24.355   8.804
 1151POPC   C2B18740  42.464  24.216   8.404
 1151POPC   C3B18741  42.638  24.141   7.976
 1151POPC   C4B18742  42.744  24.362   7.588
 1152POPC   NC318743  28.934  31.838   9.489
 1152POPC   PO418744  29.404  32.287   9.539
 1152POPC   GL118745  29.531  32.170   9.176
 1152POPC   GL218746  29.200  32.068   9.127
 1152POPC   C1A18747  29.445  32.320   8.769
 1152POPC   D2A18748  29.519  32.563   8.421
 1152POPC   C3A18749  29.403  32.310   8.097
 1152POPC   C4A18750  29.578  32.212   7.712
 1152POPC   C1B18751  28.933  32.086   8.815
 1152POPC   C2B18752  28.750  32.320   8.554
 1152POPC   C3B18753  28.799  32.166   8.171
 1152POPC   C4B18754  29.015  32.255   7.776
 1153POPC   NC318755  39.779  21.171   9.585
 1153POPC   PO418756  40.144  21.742   9.699
 1153POPC   GL118757  40.060  21.513   9.279
 1153POPC   GL218758  40.071  21.158   9.172
 1153POPC   C1A18759  39.882  21.514   8.840
 1153POPC   D2A18760  40.108  21.490   8.418
 1153POPC   C3A18761  39.841  21.319   8.106
 1153POPC   C4A18762  39.723  21.386   7.684
 1153POPC   C1B18763  39.811  20.986   8.812
 1153POPC   C2B18764  39.945  20.894   8.376
 1153POPC   C3B18765  40.300  21.056   8.115
 1153POPC   C4B18766  40.228  21.385   7.776
 1154POPC   NC318767  35.601  30.175   9.526
 1154POPC   PO418768  35.050  29.704   9.643
 1154POPC   GL118769  35.199  29.917   9.262
 1154POPC   GL218770  35.557  29.792   9.174
 1154POPC   C1A18771  35.203  29.920   8.809
 1154POPC   D2A18772  34.989  29.885   8.412
 1154POPC   C3A18773  35.310  29.936   8.114
 1154POPC   C4A18774  35.363  29.882   7.701
 1154POPC   C1B18775  35.698  29.601   8.770
 1154POPC   C2B18776  35.650  29.554   8.318
 1154POPC   C3B18777  35.779  29.809   7.993
 1154POPC   C4B18778  35.720  30.252   7.966
 1155POPC   NC318779  35.728  43.528   9.527
 1155POPC   PO418780  35.880  44.138   9.593
 1155POPC   GL118781  36.044  43.968   9.215
 1155POPC   GL218782  36.132  43.600   9.203
 1155POPC   C1A18783  36.202  44.181   8.831
 1155POPC   D2A18784  36.375  43.963   8.459
 1155POPC   C3A18785  36.148  44.103   8.113
 1155POPC   C4A18786  36.113  44.179   7.714
 1155POPC   C1B18787  36.022  43.703   8.769
 1155POPC   C2B18788  35.670  43.585   8.506
 1155POPC   C3B18789  35.570  43.522   8.086
 1155POPC   C4B18790  35.932  43.639   7.819
 1156POPC   NC318791  36.687  11.938   9.783
 1156POPC   PO418792  37.202  12.348   9.609
 1156POPC   GL118793  36.994  12.010   9.332
 1156POPC   GL218794  36.726  12.006   9.097
 1156POPC   C1A18795  37.156  11.859   8.899
 1156POPC   D2A18796  37.227  12.089   8.509
 1156POPC   C3A18797  37.241  11.872   8.115
 1156POPC   C4A18798  37.005  11.833   7.740
 1156POPC   C1B18799  36.500  12.020   8.721
 1156POPC   C2B18800  36.384  11.967   8.316
 1156POPC   C3B18801  36.720  12.105   8.081
 1156POPC   C4B18802  36.713  12.241   7.670
 1157POPC   NC318803  33.013  14.185   9.740
 1157POPC   PO418804  33.189  13.547   9.536
 1157POPC   GL118805  33.140  13.559   9.055
 1157POPC   GL218806  33.280  13.857   8.902
 1157POPC   C1A18807  32.905  13.407   8.648
 1157POPC   D2A18808  32.524  13.427   8.321
 1157POPC   C3A18809  32.663  13.243   7.921
 1157POPC   C4A18810  32.928  13.421   7.606
 1157POPC   C1B18811  33.019  14.022   8.612
 1157POPC   C2B18812  32.873  13.793   8.252
 1157POPC   C3B18813  32.854  13.882   7.847
 1157POPC   C4B18814  32.703  14.292   7.830
 1158POPC   NC318815  10.547  16.000   9.491
 1158POPC   PO418816  10.160  15.424   9.603
 1158POPC   GL118817  10.318  15.655   9.205
 1158POPC   GL218818  10.322  16.040   9.055
 1158POPC   C1A18819  10.478  15.638   8.785
 1158POPC   D2A18820  10.246  15.616   8.378
 1158POPC   C3A18821  10.496  15.705   8.026
 1158POPC   C4A18822  10.370  15.736   7.598
 1158POPC   C1B18823  10.310  16.078   8.604
 1158POPC   C2B18824  10.376  16.196   8.232
 1158POPC   C3B18825  10.441  16.189   7.841
 1158POPC   C4B18826  10.813  16.020   7.724
 1159POPC   NC318827  22.093   8.362   9.479
 1159POPC   PO418828  22.346   7.763   9.336
 1159POPC   GL118829  22.127   8.027   9.064
 1159POPC   GL218830  22.335   8.335   9.039
 1159POPC   C1A18831  22.277   8.042   8.634
 1159POPC   D2A18832  22.321   8.323   8.298
 1159POPC   C3A18833  22.243   8.101   7.944
 1159POPC   C4A18834  22.326   8.061   7.483
 1159POPC   C1B18835  22.053   8.487   8.727
 1159POPC   C2B18836  21.794   8.469   8.377
 1159POPC   C3B18837  21.747   8.283   7.995
 1159POPC   C4B18838  21.844   8.062   7.620
 1160POPC   NC318839  27.207  18.937   9.390
 1160POPC   PO418840  26.570  18.812   9.403
 1160POPC   GL118841  26.806  18.931   9.067
 1160POPC   GL218842  26.997  18.630   9.044
 1160POPC   C1A18843  26.884  19.203   8.703
 1160POPC   D2A18844  26.626  19.222   8.324
 1160POPC   C3A18845  26.757  19.267   7.906
 1160POPC   C4A18846  27.103  19.185   7.633
 1160POPC   C1B18847  26.870  18.693   8.622
 1160POPC   C2B18848  27.050  18.919   8.270
 1160POPC   C3B18849  27.005  18.748   7.881
 1160POPC   C4B18850  26.670  18.829   7.588
 1161POPC   NC318851  26.108  29.425   9.583
 1161POPC   PO418852  25.854  28.905   9.863
 1161POPC   GL118853  25.913  28.996   9.347
 1161POPC   GL218854  26.224  29.097   9.152
 1161POPC   C1A18855  25.824  29.095   8.849
 1161POPC   D2A18856  25.943  29.165   8.377
 1161POPC   C3A18857  25.927  29.050   7.906
 1161POPC   C4A18858  25.774  29.154   7.457
 1161POPC   C1B18859  26.323  28.962   8.677
 1161POPC   C2B18860  26.364  28.950   8.186
 1161POPC   C3B18861  26.396  29.276   7.851
 1161POPC   C4B18862  26.483  29.459   7.402
 1162POPC   NC318863  19.556  39.301   9.469
 1162POPC   PO418864  18.909  39.136   9.588
 1162POPC   GL118865  18.905  39.145   9.169
 1162POPC   GL218866  19.237  39.065   9.090
 1162POPC   C1A18867  18.811  38.905   8.822
 1162POPC   D2A18868  18.884  38.847   8.399
 1162POPC   C3A18869  19.013  39.121   8.048
 1162POPC   C4A18870  19.048  39.076   7.608
 1162POPC   C1B18871  19.271  39.081   8.659
 1162POPC   C2B18872  19.373  38.866   8.281
 1162POPC   C3B18873  19.612  38.982   7.944
 1162POPC   C4B18874  19.570  39.111   7.528
 1163POPC   NC318875  16.515  11.221   9.645
 1163POPC   PO418876  16.978  11.518   9.326
 1163POPC   GL118877  16.735  11.184   9.164
 1163POPC   GL218878  16.449  11.344   9.104
 1163POPC   C1A18879  16.766  11.130   8.724
 1163POPC   D2A18880  16.956  11.266   8.362
 1163POPC   C3A18881  16.758  11.090   8.022
 1163POPC   C4A18882  16.605  11.163   7.547
 1163POPC   C1B18883  16.364  11.460   8.701
 1163POPC   C2B18884  16.450  11.328   8.340
 1163POPC   C3B18885  16.482  11.510   7.944
 1163POPC   C4B18886  16.187  11.451   7.638
 1164POPC   NC318887  12.661  13.987   9.529
 1164POPC   PO418888  13.055  13.435   9.540
 1164POPC   GL118889  13.029  13.507   9.137
 1164POPC   GL218890  12.727  13.697   9.117
 1164POPC   C1A18891  12.890  13.393   8.743
 1164POPC   D2A18892  12.858  13.649   8.409
 1164POPC   C3A18893  12.886  13.462   8.040
 1164POPC   C4A18894  12.938  13.553   7.630
 1164POPC   C1B18895  12.441  13.626   8.785
 1164POPC   C2B18896  12.304  13.837   8.453
 1164POPC   C3B18897  12.475  13.809   8.077
 1164POPC   C4B18898  12.439  13.663   7.689
 1165POPC   NC318899  41.826  27.993   9.427
 1165POPC   PO418900  41.272  27.759   9.751
 1165POPC   GL118901  41.444  27.558   9.334
 1165POPC   GL218902  41.393  27.803   9.102
 1165POPC   C1A18903  41.589  27.334   8.915
 1165POPC   D2A18904  41.734  27.333   8.465
 1165POPC   C3A18905  41.610  27.313   7.987
 1165POPC   C4A18906  41.930  27.288   7.671
 1165POPC   C1B18907  41.576  27.777   8.677
 1165POPC   C2B18908  41.425  27.685   8.271
 1165POPC   C3B18909  41.382  27.780   7.844
 1165POPC   C4B18910  41.073  27.824   7.521
 1166POPC   NC318911  23.340  34.330   9.434
 1166POPC   PO418912  22.720  34.608   9.648
 1166POPC   GL118913  22.889  34.561   9.209
 1166POPC   GL218914  23.148  34.761   8.986
 1166POPC   C1A18915  22.791  34.430   8.786
 1166POPC   D2A18916  22.989  34.542   8.390
 1166POPC   C3A18917  22.779  34.632   7.990
 1166POPC   C4A18918  22.424  34.407   7.826
 1166POPC   C1B18919  23.312  34.377   8.774
 1166POPC   C2B18920  23.303  34.144   8.377
 1166POPC   C3B18921  23.269  34.337   8.022
 1166POPC   C4B18922  23.149  34.505   7.656
 1167POPC   NC318923  40.328  29.868   9.390
 1167POPC   PO418924  40.939  30.140   9.537
 1167POPC   GL118925  40.803  29.959   9.147
 1167POPC   GL218926  40.596  29.693   8.977
 1167POPC   C1A18927  41.051  29.838   8.801
 1167POPC   D2A18928  41.043  30.027   8.445
 1167POPC   C3A18929  41.238  29.898   8.110
 1167POPC   C4A18930  41.065  29.701   7.775
 1167POPC   C1B18931  40.541  30.081   8.723
 1167POPC   C2B18932  40.603  30.275   8.336
 1167POPC   C3B18933  40.727  29.955   8.042
 1167POPC   C4B18934  40.584  29.800   7.640
 1168POPC   NC318935  21.753  18.927   9.459
 1168POPC   PO418936  21.163  19.268   9.478
 1168POPC   GL118937  21.365  19.019   9.155
 1168POPC   GL218938  21.514  19.313   9.045
 1168POPC   C1A18939  21.361  18.875   8.726
 1168POPC   D2A18940  21.448  19.247   8.442
 1168POPC   C3A18941  21.545  19.166   8.004
 1168POPC   C4A18942  21.524  18.784   7.759
 1168POPC   C1B18943  21.093  19.276   8.823
 1168POPC   C2B18944  20.928  19.182   8.411
 1168POPC   C3B18945  21.006  19.087   7.957
 1168POPC   C4B18946  21.190  19.118   7.558
 1169POPC   NC318947  12.569  33.790   9.417
 1169POPC   PO418948  11.958  34.085   9.434
 1169POPC   GL118949  12.046  33.757   9.112
 1169POPC   GL218950  11.748  33.582   9.071
 1169POPC   C1A18951  12.270  33.614   8.705
 1169POPC   D2A18952  12.309  33.552   8.230
 1169POPC   C3A18953  12.294  33.920   7.912
 1169POPC   C4A18954  11.937  34.165   7.658
 1169POPC   C1B18955  11.776  33.721   8.634
 1169POPC   C2B18956  11.865  33.824   8.191
 1169POPC   C3B18957  11.887  33.674   7.744
 1169POPC   C4B18958  11.703  33.769   7.343
 1170POPC   NC318959  21.335  28.271   9.646
 1170POPC   PO418960  21.190  28.907   9.520
 1170POPC   GL118961  21.408  28.583   9.238
 1170POPC   GL218962  21.223  28.330   9.151
 1170POPC   C1A18963  21.621  28.450   8.861
 1170POPC   D2A18964  21.401  28.331   8.481
 1170POPC   C3A18965  21.354  28.408   8.042
 1170POPC   C4A18966  21.554  28.149   7.713
 1170POPC   C1B18967  21.004  28.208   8.798
 1170POPC   C2B18968  20.868  28.079   8.408
 1170POPC   C3B18969  20.978  27.913   8.016
 1170POPC   C4B18970  21.026  28.181   7.692
 1171POPC   NC318971   4.492  10.397   9.870
 1171POPC   PO418972   3.984  10.703   9.681
 1171POPC   GL118973   4.237  10.636   9.298
 1171POPC   GL218974   4.599  10.537   9.366
 1171POPC   C1A18975   4.129  10.668   8.848
 1171POPC   D2A18976   4.279  10.958   8.537
 1171POPC   C3A18977   4.226  10.835   8.105
 1171POPC   C4A18978   3.949  10.567   7.809
 1171POPC   C1B18979   4.605  10.463   8.900
 1171POPC   C2B18980   4.502  10.510   8.443
 1171POPC   C3B18981   4.467  10.398   7.992
 1171POPC   C4B18982   4.663  10.285   7.583
 1172POPC   NC318983  22.247  10.239   9.401
 1172POPC   PO418984  21.891   9.623   9.462
 1172POPC   GL118985  22.130   9.577   9.104
 1172POPC   GL218986  22.427   9.792   9.132
 1172POPC   C1A18987  22.025   9.494   8.672
 1172POPC   D2A18988  22.083   9.302   8.274
 1172POPC   C3A18989  22.276   9.536   7.954
 1172POPC   C4A18990  22.659   9.512   7.649
 1172POPC   C1B18991  22.205   9.965   8.746
 1172POPC   C2B18992  22.342  10.059   8.326
 1172POPC   C3B18993  22.292  10.030   7.871
 1172POPC   C4B18994  21.894   9.773   7.758
 1173POPC   NC318995  35.283  24.168   9.508
 1173POPC   PO418996  35.270  24.819   9.337
 1173POPC   GL118997  35.278  24.514   9.061
 1173POPC   GL218998  35.071  24.211   9.049
 1173POPC   C1A18999  35.486  24.538   8.683
 1173POPC   D2A19000  35.361  24.441   8.274
 1173POPC   C3A19001  35.333  24.723   7.971
 1173POPC   C4A19002  35.286  24.512   7.616
 1173POPC   C1B19003  35.209  24.119   8.643
 1173POPC   C2B19004  35.164  23.967   8.216
 1173POPC   C3B19005  35.155  24.047   7.766
 1173POPC   C4B19006  35.094  23.957   7.336
 1174POPC   NC319007  13.425  42.729   9.550
 1174POPC   PO419008  13.929  42.267   9.535
 1174POPC   GL119009  13.765  42.488   9.176
 1174POPC   GL219010  13.393  42.412   9.163
 1174POPC   C1A19011  13.925  42.668   8.764
 1174POPC   D2A19012  13.805  42.831   8.341
 1174POPC   C3A19013  13.867  42.473   8.030
 1174POPC   C4A19014  13.989  42.373   7.613
 1174POPC   C1B19015  13.423  42.565   8.775
 1174POPC   C2B19016  13.552  42.394   8.424
 1174POPC   C3B19017  13.374  42.293   8.040
 1174POPC   C4B19018  13.497  42.293   7.648
 1175POPC   NC319019  41.177  19.859   9.450
 1175POPC   PO419020  40.458  20.140   9.578
 1175POPC   GL119021  40.727  20.101   9.214
 1175POPC   GL219022  40.738  19.758   9.106
 1175POPC   C1A19023  40.877  20.113   8.779
 1175POPC   D2A19024  40.696  20.175   8.378
 1175POPC   C3A19025  40.910  20.103   7.938
 1175POPC   C4A19026  41.056  19.904   7.531
 1175POPC   C1B19027  40.964  19.614   8.753
 1175POPC   C2B19028  41.001  19.757   8.340
 1175POPC   C3B19029  41.183  19.668   7.957
 1175POPC   C4B19030  41.146  19.365   7.588
 1176POPC   NC319031  23.918  13.851   9.518
 1176POPC   PO419032  23.701  13.260   9.362
 1176POPC   GL119033  23.877  13.554   9.056
 1176POPC   GL219034  23.781  13.923   9.026
 1176POPC   C1A19035  23.942  13.661   8.618
 1176POPC   D2A19036  23.739  13.622   8.244
 1176POPC   C3A19037  23.943  13.691   7.881
 1176POPC   C4A19038  23.963  13.321   7.674
 1176POPC   C1B19039  23.456  13.701   8.748
 1176POPC   C2B19040  23.255  13.543   8.346
 1176POPC   C3B19041  23.346  13.454   7.899
 1176POPC   C4B19042  23.546  13.693   7.567
 1177POPC   NC319043   0.909  30.879   9.340
 1177POPC   PO419044   1.414  31.166   9.687
 1177POPC   GL119045   1.341  31.051   9.164
 1177POPC   GL219046   1.195  30.726   8.955
 1177POPC   C1A19047   1.188  31.136   8.711
 1177POPC   D2A19048   1.353  30.859   8.366
 1177POPC   C3A19049   1.156  30.708   7.976
 1177POPC   C4A19050   1.197  30.934   7.565
 1177POPC   C1B19051   1.403  30.448   8.690
 1177POPC   C2B19052   1.527  30.331   8.279
 1177POPC   C3B19053   1.541  30.370   7.847
 1177POPC   C4B19054   1.308  30.455   7.446
 1178POPC   NC319055  22.467  15.662   9.705
 1178POPC   PO419056  22.240  16.206   9.838
 1178POPC   GL119057  22.281  16.092   9.377
 1178POPC   GL219058  22.398  15.755   9.210
 1178POPC   C1A19059  22.206  16.141   8.921
 1178POPC   D2A19060  22.353  16.036   8.486
 1178POPC   C3A19061  22.198  15.979   8.044
 1178POPC   C4A19062  22.456  16.044   7.696
 1178POPC   C1B19063  22.257  15.574   8.805
 1178POPC   C2B19064  22.153  15.560   8.356
 1178POPC   C3B19065  22.050  15.466   7.926
 1178POPC   C4B19066  22.197  15.628   7.552
 1179POPC   NC319067   9.468  19.557   9.618
 1179POPC   PO419068  10.051  19.825   9.569
 1179POPC   GL119069   9.937  20.072   9.209
 1179POPC   GL219070   9.564  20.141   9.196
 1179POPC   C1A19071   9.903  19.987   8.773
 1179POPC   D2A19072   9.895  20.163   8.376
 1179POPC   C3A19073   9.748  19.923   8.042
 1179POPC   C4A19074   9.943  19.857   7.645
 1179POPC   C1B19075   9.498  19.731   8.945
 1179POPC   C2B19076   9.371  19.705   8.504
 1179POPC   C3B19077   9.283  19.549   8.079
 1179POPC   C4B19078   9.477  19.606   7.700
 1180POPC   NC319079  30.473  32.578   9.487
 1180POPC   PO419080  30.697  31.956   9.399
 1180POPC   GL119081  30.563  32.068   9.041
 1180POPC   GL219082  30.768  32.374   9.085
 1180POPC   C1A19083  30.780  32.109   8.650
 1180POPC   D2A19084  30.741  32.254   8.258
 1180POPC   C3A19085  30.530  32.067   7.944
 1180POPC   C4A19086  30.911  32.080   7.732
 1180POPC   C1B19087  30.467  32.502   8.779
 1180POPC   C2B19088  30.477  32.667   8.375
 1180POPC   C3B19089  30.412  32.564   7.939
 1180POPC   C4B19090  30.540  32.390   7.531
 1181POPC   NC319091  34.936  41.446   9.611
 1181POPC   PO419092  34.364  41.767   9.495
 1181POPC   GL119093  34.619  41.516   9.225
 1181POPC   GL219094  34.918  41.728   9.160
 1181POPC   C1A19095  34.751  41.370   8.834
 1181POPC   D2A19096  34.547  41.557   8.465
 1181POPC   C3A19097  34.681  41.447   8.073
 1181POPC   C4A19098  34.541  41.489   7.668
 1181POPC   C1B19099  34.890  41.844   8.720
 1181POPC   C2B19100  34.976  41.810   8.279
 1181POPC   C3B19101  34.947  41.812   7.827
 1181POPC   C4B19102  34.870  41.763   7.374
 1182POPC   NC319103  11.024  17.270   9.788
 1182POPC   PO419104  11.118  17.953   9.674
 1182POPC   GL119105  11.211  17.714   9.237
 1182POPC   GL219106  11.202  17.340   9.229
 1182POPC   C1A19107  11.225  17.683   8.748
 1182POPC   D2A19108  11.556  17.747   8.400
 1182POPC   C3A19109  11.627  17.732   7.948
 1182POPC   C4A19110  11.399  17.718   7.567
 1182POPC   C1B19111  11.349  17.171   8.813
 1182POPC   C2B19112  11.263  17.320   8.392
 1182POPC   C3B19113  11.200  17.472   8.002
 1182POPC   C4B19114  11.231  17.246   7.594
 1183POPC   NC319115  13.880  15.616   9.498
 1183POPC   PO419116  13.631  15.020   9.428
 1183POPC   GL119117  13.688  15.208   9.081
 1183POPC   GL219118  13.477  15.471   9.162
 1183POPC   C1A19119  13.604  15.104   8.676
 1183POPC   D2A19120  13.822  15.028   8.286
 1183POPC   C3A19121  13.628  15.147   7.922
 1183POPC   C4A19122  13.295  14.956   7.699
 1183POPC   C1B19123  13.434  15.589   8.738
 1183POPC   C2B19124  13.516  15.455   8.325
 1183POPC   C3B19125  13.494  15.618   7.920
 1183POPC   C4B19126  13.458  15.428   7.502
 1184POPC   NC319127  35.260   2.612   9.399
 1184POPC   PO419128  34.900   2.126   9.580
 1184POPC   GL119129  35.125   1.921   9.174
 1184POPC   GL219130  34.840   1.703   9.078
 1184POPC   C1A19131  35.311   1.882   8.727
 1184POPC   D2A19132  35.433   2.224   8.430
 1184POPC   C3A19133  35.498   2.122   8.001
 1184POPC   C4A19134  35.742   1.709   7.891
 1184POPC   C1B19135  34.834   2.078   8.802
 1184POPC   C2B19136  34.927   2.087   8.376
 1184POPC   C3B19137  35.166   1.768   8.180
 1184POPC   C4B19138  35.259   1.770   7.737
 1185POPC   NC319139   0.715  42.308   9.681
 1185POPC   PO419140   0.174  42.360   9.310
 1185POPC   GL119141   0.502  42.320   9.045
 1185POPC   GL219142   0.619  41.975   8.963
 1185POPC   C1A19143   0.447  42.358   8.621
 1185POPC   D2A19144   0.249  42.258   8.249
 1185POPC   C3A19145   0.371  42.507   7.911
 1185POPC   C4A19146   0.796  42.612   7.800
 1185POPC   C1B19147   0.406  41.839   8.651
 1185POPC   C2B19148   0.680  41.962   8.376
 1185POPC   C3B19149   0.649  42.092   7.985
 1185POPC   C4B19150   0.411  41.953   7.635
 1186POPC   NC319151   0.388  41.956   9.403
 1186POPC   PO419152   0.910  41.723   9.780
 1186POPC   GL119153   0.711  41.582   9.300
 1186POPC   GL219154   0.369  41.503   9.181
 1186POPC   C1A19155   0.759  41.467   8.867
 1186POPC   D2A19156   0.678  41.446   8.432
 1186POPC   C3A19157   0.402  41.649   8.125
 1186POPC   C4A19158   0.547  41.477   7.757
 1186POPC   C1B19159   0.213  41.378   8.754
 1186POPC   C2B19160   0.249  41.200   8.333
 1186POPC   C3B19161   0.092  41.302   7.936
 1186POPC   C4B19162   0.199  41.190   7.539
 1187POPC   NC319163   2.989   8.535   9.465
 1187POPC   PO419164   2.804   9.132   9.449
 1187POPC   GL119165   2.604   9.060   9.054
 1187POPC   GL219166   2.581   8.704   9.065
 1187POPC   C1A19167   2.569   9.001   8.606
 1187POPC   D2A19168   2.840   9.096   8.254
 1187POPC   C3A19169   2.662   8.965   7.860
 1187POPC   C4A19170   2.548   9.194   7.470
 1187POPC   C1B19171   2.953   8.705   8.765
 1187POPC   C2B19172   2.941   8.604   8.310
 1187POPC   C3B19173   3.128   8.787   7.918
 1187POPC   C4B19174   3.002   8.899   7.475
 1188POPC   NC319175   5.537   6.433   9.484
 1188POPC   PO419176   5.900   6.975   9.565
 1188POPC   GL119177   5.715   6.843   9.177
 1188POPC   GL219178   5.868   6.500   9.102
 1188POPC   C1A19179   5.701   6.801   8.735
 1188POPC   D2A19180   5.899   6.579   8.395
 1188POPC   C3A19181   5.887   6.777   8.001
 1188POPC   C4A19182   5.709   6.838   7.623
 1188POPC   C1B19183   5.555   6.319   8.766
 1188POPC   C2B19184   5.441   6.353   8.302
 1188POPC   C3B19185   5.592   6.368   7.867
 1188POPC   C4B19186   6.027   6.438   7.665
 1189POPC   NC319187  34.921  15.903   9.476
 1189POPC   PO419188  34.298  16.222   9.384
 1189POPC   GL119189  34.288  15.921   9.086
 1189POPC   GL219190  34.292  15.581   9.220
 1189POPC   C1A19191  34.384  15.992   8.657
 1189POPC   D2A19192  34.650  15.865   8.323
 1189POPC   C3A19193  34.617  15.992   7.882
 1189POPC   C4A19194  34.906  15.770   7.647
 1189POPC   C1B19195  34.498  15.501   8.822
 1189POPC   C2B19196  34.391  15.387   8.411
 1189POPC   C3B19197  34.410  15.536   7.994
 1189POPC   C4B19198  34.430  15.648   7.551
 1190POPC   NC319199   4.858  22.118   9.322
 1190POPC   PO419200   4.157  21.947   9.318
 1190POPC   GL119201   4.108  22.055   8.962
 1190POPC   GL219202   4.444  22.197   8.934
 1190POPC   C1A19203   4.156  22.102   8.530
 1190POPC   D2A19204   4.350  22.468   8.404
 1190POPC   C3A19205   4.177  22.518   7.973
 1190POPC   C4A19206   4.325  22.182   7.736
 1190POPC   C1B19207   4.674  22.045   8.611
 1190POPC   C2B19208   4.552  22.003   8.185
 1190POPC   C3B19209   4.790  21.954   7.825
 1190POPC   C4B19210   4.774  22.035   7.367
 1191POPC   NC319211  37.796  18.847   9.803
 1191POPC   PO419212  37.586  18.392   9.309
 1191POPC   GL119213  37.859  18.397   9.017
 1191POPC   GL219214  38.019  18.054   9.152
 1191POPC   C1A19215  37.873  18.705   8.661
 1191POPC   D2A19216  37.650  18.797   8.299
 1191POPC   C3A19217  37.738  18.528   7.971
 1191POPC   C4A19218  37.446  18.438   7.672
 1191POPC   C1B19219  37.843  17.990   8.762
 1191POPC   C2B19220  37.874  18.234   8.394
 1191POPC   C3B19221  37.957  18.075   7.991
 1191POPC   C4B19222  37.909  18.176   7.586
 1192POPC   NC319223  44.841  28.522   9.362
 1192POPC   PO419224  44.379  28.013   9.475
 1192POPC   GL119225  44.492  28.217   9.072
 1192POPC   GL219226  44.562  28.548   8.924
 1192POPC   C1A19227  44.717  28.143   8.684
 1192POPC   D2A19228  44.942  28.377   8.399
 1192POPC   C3A19229  44.914  28.199   8.052
 1192POPC   C4A19230  44.546  28.111   7.882
 1192POPC   C1B19231  44.454  28.945   8.726
 1192POPC   C2B19232  44.684  28.880   8.396
 1192POPC   C3B19233  44.624  28.609   8.075
 1192POPC   C4B19234  44.720  28.617   7.669
 1193POPC   NC319235  41.416  34.150   9.324
 1193POPC   PO419236  41.923  33.787   9.683
 1193POPC   GL119237  41.730  33.725   9.244
 1193POPC   GL219238  41.711  33.970   8.994
 1193POPC   C1A19239  41.845  33.512   8.829
 1193POPC   D2A19240  41.661  33.365   8.411
 1193POPC   C3A19241  41.813  33.492   8.003
 1193POPC   C4A19242  41.627  33.592   7.621
 1193POPC   C1B19243  41.543  34.094   8.656
 1193POPC   C2B19244  41.687  33.890   8.302
 1193POPC   C3B19245  41.778  34.034   7.892
 1193POPC   C4B19246  41.516  34.100   7.518
 1194POPC   NC319247  10.616  15.352   9.572
 1194POPC   PO419248  10.358  14.778   9.378
 1194POPC   GL119249  10.260  15.136   9.161
 1194POPC   GL219250  10.564  15.226   9.103
 1194POPC   C1A19251  10.129  15.270   8.753
 1194POPC   D2A19252  10.267  15.085   8.333
 1194POPC   C3A19253  10.362  15.221   7.900
 1194POPC   C4A19254  10.636  15.010   7.601
 1194POPC   C1B19255  10.637  15.156   8.741
 1194POPC   C2B19256  10.716  15.369   8.397
 1194POPC   C3B19257  10.864  15.316   8.032
 1194POPC   C4B19258  10.813  15.497   7.660
 1195POPC   NC319259  15.244  32.981   9.471
 1195POPC   PO419260  15.125  33.625   9.307
 1195POPC   GL119261  15.410  33.318   9.130
 1195POPC   GL219262  15.082  33.157   9.016
 1195POPC   C1A19263  15.528  32.998   8.825
 1195POPC   D2A19264  15.320  33.120   8.449
 1195POPC   C3A19265  15.455  33.023   8.055
 1195POPC   C4A19266  15.352  33.234   7.649
 1195POPC   C1B19267  15.048  32.781   8.745
 1195POPC   C2B19268  14.983  32.758   8.297
 1195POPC   C3B19269  14.961  32.996   7.912
 1195POPC   C4B19270  14.601  32.915   7.717
 1196POPC   NC319271  13.259  24.036   9.331
 1196POPC   PO419272  13.576  23.455   9.537
 1196POPC   GL119273  13.467  23.598   9.149
 1196POPC   GL219274  13.740  23.559   9.012
 1196POPC   C1A19275  13.454  23.832   8.725
 1196POPC   D2A19276  13.137  23.958   8.440
 1196POPC   C3A19277  13.273  23.845   8.042
 1196POPC   C4A19278  13.662  24.041   7.864
 1196POPC   C1B19279  13.854  23.502   8.621
 1196POPC   C2B19280  13.700  23.676   8.273
 1196POPC   C3B19281  13.926  23.538   7.943
 1196POPC   C4B19282  13.967  23.446   7.522
 1197POPC   NC319283  39.472  36.387   9.481
 1197POPC   PO419284  40.156  36.440   9.504
 1197POPC   GL119285  39.938  36.119   9.254
 1197POPC   GL219286  39.794  36.374   9.092
 1197POPC   C1A19287  39.838  35.916   8.836
 1197POPC   D2A19288  39.670  36.018   8.413
 1197POPC   C3A19289  39.925  35.862   8.078
 1197POPC   C4A19290  40.008  35.871   7.646
 1197POPC   C1B19291  39.945  36.389   8.683
 1197POPC   C2B19292  39.960  36.421   8.262
 1197POPC   C3B19293  39.983  36.329   7.837
 1197POPC   C4B19294  39.712  36.379   7.464
 1198POPC   NC319295  17.637  28.805   9.605
 1198POPC   PO419296  17.432  29.407   9.569
 1198POPC   GL119297  17.399  29.165   9.208
 1198POPC   GL219298  17.116  28.942   9.242
 1198POPC   C1A19299  17.668  29.163   8.844
 1198POPC   D2A19300  17.722  29.352   8.443
 1198POPC   C3A19301  17.504  29.234   8.047
 1198POPC   C4A19302  17.210  29.237   7.661
 1198POPC   C1B19303  17.302  28.801   8.838
 1198POPC   C2B19304  17.233  28.966   8.416
 1198POPC   C3B19305  17.222  28.816   8.000
 1198POPC   C4B19306  17.562  28.836   7.706
 1199POPC   NC319307  23.736   7.510   9.460
 1199POPC   PO419308  24.018   6.945   9.420
 1199POPC   GL119309  23.966   7.266   9.083
 1199POPC   GL219310  23.591   7.454   8.985
 1199POPC   C1A19311  24.048   7.482   8.726
 1199POPC   D2A19312  23.938   7.613   8.333
 1199POPC   C3A19313  24.164   7.372   8.076
 1199POPC   C4A19314  24.038   7.526   7.700
 1199POPC   C1B19315  23.626   7.087   8.752
 1199POPC   C2B19316  23.779   7.116   8.373
 1199POPC   C3B19317  23.648   7.308   8.026
 1199POPC   C4B19318  23.537   7.646   7.775
 1200POPC   NC319319   2.953   5.783   9.444
 1200POPC   PO419320   2.225   5.702   9.400
 1200POPC   GL119321   2.570   5.699   9.081
 1200POPC   GL219322   2.800   6.000   8.989
 1200POPC   C1A19323   2.555   5.745   8.626
 1200POPC   D2A19324   2.873   6.037   8.467
 1200POPC   C3A19325   2.856   5.874   8.093
 1200POPC   C4A19326   2.488   5.689   7.872
 1200POPC   C1B19327   3.021   5.636   8.772
 1200POPC   C2B19328   3.214   5.603   8.362
 1200POPC   C3B19329   3.206   5.534   7.908
 1200POPC   C4B19330   2.850   5.322   7.742
 1201POPC   NC319331  31.315  26.470   9.414
 1201POPC   PO419332  31.836  26.134   9.737
 1201POPC   GL119333  31.767  26.125   9.271
 1201POPC   GL219334  31.718  26.451   9.100
 1201POPC   C1A19335  31.757  26.058   8.790
 1201POPC   D2A19336  31.654  26.231   8.374
 1201POPC   C3A19337  31.568  25.926   8.022
 1201POPC   C4A19338  31.441  25.982   7.592
 1201POPC   C1B19339  31.335  26.373   8.788
 1201POPC   C2B19340  31.087  26.284   8.422
 1201POPC   C3B19341  31.251  26.341   8.010
 1201POPC   C4B19342  31.050  26.350   7.634
 1202POPC   NC319343  20.845  20.382   9.484
 1202POPC   PO419344  20.255  20.704   9.438
 1202POPC   GL119345  20.616  20.735   9.161
 1202POPC   GL219346  20.749  20.474   8.995
 1202POPC   C1A19347  20.658  20.898   8.760
 1202POPC   D2A19348  20.767  20.597   8.433
 1202POPC   C3A19349  20.757  20.761   8.018
 1202POPC   C4A19350  20.774  20.482   7.684
 1202POPC   C1B19351  20.322  20.501   8.764
 1202POPC   C2B19352  20.275  20.625   8.320
 1202POPC   C3B19353  20.466  20.339   8.048
 1202POPC   C4B19354  20.348  20.198   7.629
 1203POPC   NC319355   6.032  40.415   9.379
 1203POPC   PO419356   6.071  39.814   9.329
 1203POPC   GL119357   5.845  39.817   9.012
 1203POPC   GL219358   5.629  40.106   9.061
 1203POPC   C1A19359   5.879  39.960   8.625
 1203POPC   D2A19360   5.669  40.053   8.260
 1203POPC   C3A19361   5.927  40.380   8.071
 1203POPC   C4A19362   6.149  40.399   7.680
 1203POPC   C1B19363   5.383  39.793   8.766
 1203POPC   C2B19364   5.330  39.583   8.345
 1203POPC   C3B19365   5.511  39.660   7.918
 1203POPC   C4B19366   5.843  39.949   7.787
 1204POPC   NC319367  16.459  19.350   9.687
 1204POPC   PO419368  17.107  19.169   9.718
 1204POPC   GL119369  16.862  19.258   9.260
 1204POPC   GL219370  16.742  18.985   9.095
 1204POPC   C1A19371  16.794  19.368   8.800
 1204POPC   D2A19372  16.742  19.073   8.463
 1204POPC   C3A19373  16.791  19.223   8.036
 1204POPC   C4A19374  16.573  19.435   7.717
 1204POPC   C1B19375  16.443  18.819   8.847
 1204POPC   C2B19376  16.481  18.628   8.429
 1204POPC   C3B19377  16.643  18.732   8.048
 1204POPC   C4B19378  16.361  18.954   7.836
 1205POPC   NC319379  37.913   3.774   9.428
 1205POPC   PO419380  37.606   4.423   9.443
 1205POPC   GL119381  37.736   4.177   9.115
 1205POPC   GL219382  37.495   3.917   9.135
 1205POPC   C1A19383  37.866   4.293   8.684
 1205POPC   D2A19384  38.076   4.487   8.294
 1205POPC   C3A19385  38.088   4.252   7.910
 1205POPC   C4A19386  37.851   4.389   7.531
 1205POPC   C1B19387  37.320   4.019   8.762
 1205POPC   C2B19388  37.505   4.034   8.393
 1205POPC   C3B19389  37.584   4.292   8.056
 1205POPC   C4B19390  37.437   4.148   7.682
 1206POPC   NC319391  22.482  30.267   9.507
 1206POPC   PO419392  22.845  29.658   9.400
 1206POPC   GL119393  22.949  29.847   9.062
 1206POPC   GL219394  22.780  30.126   9.125
 1206POPC   C1A19395  22.899  29.854   8.618
 1206POPC   D2A19396  22.997  29.722   8.205
 1206POPC   C3A19397  22.923  29.968   7.875
 1206POPC   C4A19398  22.565  30.066   7.657
 1206POPC   C1B19399  22.919  30.349   8.773
 1206POPC   C2B19400  23.037  30.250   8.340
 1206POPC   C3B19401  23.040  30.454   7.948
 1206POPC   C4B19402  23.020  30.330   7.513
 1207POPC   NC319403  39.587  33.651   9.535
 1207POPC   PO419404  38.922  33.584   9.419
 1207POPC   GL119405  39.074  33.763   9.092
 1207POPC   GL219406  39.348  33.959   9.206
 1207POPC   C1A19407  39.151  33.623   8.712
 1207POPC   D2A19408  39.196  33.428   8.360
 1207POPC   C3A19409  39.228  33.759   8.086
 1207POPC   C4A19410  39.043  33.874   7.751
 1207POPC   C1B19411  39.562  33.927   8.815
 1207POPC   C2B19412  39.635  33.723   8.386
 1207POPC   C3B19413  39.681  33.591   7.913
 1207POPC   C4B19414  39.473  33.662   7.470
 1208POPC   NC319415  38.068   6.293   9.535
 1208POPC   PO419416  38.408   6.948   9.623
 1208POPC   GL119417  38.388   6.724   9.208
 1208POPC   GL219418  38.724   6.579   9.155
 1208POPC   C1A19419  38.421   6.640   8.734
 1208POPC   D2A19420  38.418   6.443   8.321
 1208POPC   C3A19421  38.299   6.739   7.967
 1208POPC   C4A19422  38.102   6.713   7.546
 1208POPC   C1B19423  38.798   6.249   8.825
 1208POPC   C2B19424  38.908   6.286   8.386
 1208POPC   C3B19425  38.729   6.322   7.945
 1208POPC   C4B19426  38.580   6.564   7.609
 1209POPC   NC319427  14.683  33.680   9.454
 1209POPC   PO419428  13.948  33.789   9.436
 1209POPC   GL119429  14.285  33.688   9.090
 1209POPC   GL219430  14.488  33.382   9.085
 1209POPC   C1A19431  14.334  33.591   8.620
 1209POPC   D2A19432  14.351  33.841   8.232
 1209POPC   C3A19433  14.580  33.933   7.855
 1209POPC   C4A19434  14.343  34.094   7.472
 1209POPC   C1B19435  14.804  33.524   8.775
 1209POPC   C2B19436  14.799  33.521   8.331
 1209POPC   C3B19437  15.077  33.513   7.989
 1209POPC   C4B19438  15.142  33.714   7.582
 1210POPC   NC319439  20.968  39.921   9.418
 1210POPC   PO419440  21.456  40.332   9.625
 1210POPC   GL119441  21.341  40.231   9.203
 1210POPC   GL219442  21.449  39.870   9.172
 1210POPC   C1A19443  21.485  40.285   8.767
 1210POPC   D2A19444  21.484  39.972   8.412
 1210POPC   C3A19445  21.298  40.052   8.023
 1210POPC   C4A19446  21.590  40.061   7.663
 1210POPC   C1B19447  21.196  39.813   8.805
 1210POPC   C2B19448  21.022  39.696   8.409
 1210POPC   C3B19449  21.049  39.533   7.985
 1210POPC   C4B19450  21.204  39.734   7.638
 1211POPC   NC319451  35.452  33.987  10.150
 1211POPC   PO419452  35.521  33.864   9.467
 1211POPC   GL119453  35.305  33.727   9.121
 1211POPC   GL219454  35.028  33.520   9.232
 1211POPC   C1A19455  35.340  33.808   8.699
 1211POPC   D2A19456  35.304  34.014   8.311
 1211POPC   C3A19457  35.620  33.895   8.031
 1211POPC   C4A19458  35.547  33.755   7.589
 1211POPC   C1B19459  35.076  33.381   8.805
 1211POPC   C2B19460  35.028  33.532   8.401
 1211POPC   C3B19461  35.195  33.617   8.007
 1211POPC   C4B19462  35.063  33.848   7.644
 1212POPC   NC319463  35.628  31.033   9.415
 1212POPC   PO419464  35.179  30.460   9.472
 1212POPC   GL119465  35.212  30.719   9.114
 1212POPC   GL219466  35.548  30.622   9.098
 1212POPC   C1A19467  35.281  30.632   8.673
 1212POPC   D2A19468  35.293  30.312   8.440
 1212POPC   C3A19469  35.223  30.483   8.085
 1212POPC   C4A19470  35.214  30.851   7.879
 1212POPC   C1B19471  35.604  30.247   8.862
 1212POPC   C2B19472  35.806  30.293   8.478
 1212POPC   C3B19473  35.710  30.653   8.284
 1212POPC   C4B19474  35.699  30.764   7.871
 1213POPC   NC319475  32.555   4.284   9.474
 1213POPC   PO419476  31.877   4.458   9.567
 1213POPC   GL119477  32.034   4.321   9.169
 1213POPC   GL219478  32.140   4.001   9.150
 1213POPC   C1A19479  32.090   4.374   8.731
 1213POPC   D2A19480  32.325   4.293   8.373
 1213POPC   C3A19481  32.210   4.500   7.996
 1213POPC   C4A19482  32.049   4.595   7.583
 1213POPC   C1B19483  32.304   3.893   8.748
 1213POPC   C2B19484  32.520   3.815   8.353
 1213POPC   C3B19485  32.492   4.043   7.943
 1213POPC   C4B19486  32.433   4.261   7.553
 1214POPC   NC319487  21.711  13.251   9.578
 1214POPC   PO419488  21.223  12.725   9.554
 1214POPC   GL119489  21.449  12.718   9.143
 1214POPC   GL219490  21.420  13.060   9.191
 1214POPC   C1A19491  21.602  12.580   8.711
 1214POPC   D2A19492  21.507  12.422   8.259
 1214POPC   C3A19493  21.599  12.666   7.850
 1214POPC   C4A19494  21.212  12.893   7.623
 1214POPC   C1B19495  21.550  13.082   8.766
 1214POPC   C2B19496  21.654  12.957   8.359
 1214POPC   C3B19497  21.420  13.116   8.030
 1214POPC   C4B19498  21.475  13.374   7.677
 1215POPC   NC319499   6.421  21.659   9.555
 1215POPC   PO419500   7.027  21.513   9.412
 1215POPC   GL119501   6.707  21.567   9.099
 1215POPC   GL219502   6.365  21.378   9.117
 1215POPC   C1A19503   6.618  21.470   8.680
 1215POPC   D2A19504   6.291  21.555   8.398
 1215POPC   C3A19505   6.452  21.667   8.013
 1215POPC   C4A19506   6.714  21.702   7.648
 1215POPC   C1B19507   6.324  21.065   8.778
 1215POPC   C2B19508   6.440  21.031   8.371
 1215POPC   C3B19509   6.291  21.179   8.015
 1215POPC   C4B19510   6.357  21.347   7.628
 1216POPC   NC319511  30.039  34.500   9.632
 1216POPC   PO419512  29.753  35.025   9.607
 1216POPC   GL119513  29.888  34.763   9.218
 1216POPC   GL219514  30.101  34.418   9.139
 1216POPC   C1A19515  29.824  34.635   8.790
 1216POPC   D2A19516  30.161  34.614   8.540
 1216POPC   C3A19517  30.016  34.593   8.125
 1216POPC   C4A19518  29.772  34.675   7.731
 1216POPC   C1B19519  29.838  34.144   8.832
 1216POPC   C2B19520  29.693  34.088   8.397
 1216POPC   C3B19521  29.800  34.169   7.961
 1216POPC   C4B19522  29.855  34.239   7.496
 1217POPC   NC319523   5.467  28.502   9.432
 1217POPC   PO419524   4.880  28.289   9.648
 1217POPC   GL119525   4.977  28.495   9.244
 1217POPC   GL219526   5.067  28.165   9.141
 1217POPC   C1A19527   5.225  28.550   8.841
 1217POPC   D2A19528   5.148  28.284   8.472
 1217POPC   C3A19529   5.055  28.444   8.066
 1217POPC   C4A19530   5.268  28.306   7.722
 1217POPC   C1B19531   4.852  27.977   8.769
 1217POPC   C2B19532   4.857  27.858   8.335
 1217POPC   C3B19533   4.713  28.061   7.944
 1217POPC   C4B19534   4.683  28.075   7.465
 1218POPC   NC319535  39.154  21.207   9.580
 1218POPC   PO419536  39.602  21.591   9.480
 1218POPC   GL119537  39.460  21.299   9.143
 1218POPC   GL219538  39.070  21.289   9.094
 1218POPC   C1A19539  39.435  21.327   8.679
 1218POPC   D2A19540  39.562  21.672   8.397
 1218POPC   C3A19541  39.393  21.570   8.036
 1218POPC   C4A19542  39.383  21.113   7.949
 1218POPC   C1B19543  39.059  21.641   8.835
 1218POPC   C2B19544  39.015  21.581   8.414
 1218POPC   C3B19545  38.886  21.469   8.020
 1218POPC   C4B19546  38.920  21.118   7.754
 1219POPC   NC319547  15.396  29.527   9.283
 1219POPC   PO419548  14.911  29.097   9.598
 1219POPC   GL119549  15.053  29.088   9.205
 1219POPC   GL219550  15.398  28.996   9.294
 1219POPC   C1A19551  14.980  29.266   8.783
 1219POPC   D2A19552  15.239  29.266   8.405
 1219POPC   C3A19553  14.924  29.215   8.100
 1219POPC   C4A19554  14.902  29.360   7.718
 1219POPC   C1B19555  15.383  28.948   8.837
 1219POPC   C2B19556  15.519  28.827   8.442
 1219POPC   C3B19557  15.424  28.701   8.010
 1219POPC   C4B19558  15.263  28.982   7.719
 1220POPC   NC319559   0.717  17.832   9.844
 1220POPC   PO419560   0.681  17.438   9.341
 1220POPC   GL119561   0.452  17.562   9.011
 1220POPC   GL219562   0.362  17.207   9.030
 1220POPC   C1A19563   0.554  17.738   8.600
 1220POPC   D2A19564   0.779  17.707   8.197
 1220POPC   C3A19565   0.436  17.775   7.924
 1220POPC   C4A19566   0.081  17.654   7.711
 1220POPC   C1B19567   0.551  17.202   8.658
 1220POPC   C2B19568   0.441  17.354   8.284
 1220POPC   C3B19569   0.335  17.267   7.909
 1220POPC   C4B19570   0.479  17.005   7.655
 1221POPC   NC319571  19.546  41.242   9.475
 1221POPC   PO419572  19.751  41.935   9.520
 1221POPC   GL119573  19.750  41.623   9.149
 1221POPC   GL219574  19.541  41.846   8.981
 1221POPC   C1A19575  20.060  41.383   8.838
 1221POPC   D2A19576  20.060  41.213   8.396
 1221POPC   C3A19577  20.067  41.464   7.990
 1221POPC   C4A19578  20.150  41.690   7.602
 1221POPC   C1B19579  19.641  41.551   8.642
 1221POPC   C2B19580  19.458  41.221   8.348
 1221POPC   C3B19581  19.579  41.279   7.957
 1221POPC   C4B19582  19.553  41.691   7.785
 1222POPC   NC319583  40.868  27.978   9.858
 1222POPC   PO419584  40.611  28.531   9.493
 1222POPC   GL119585  40.935  28.485   9.134
 1222POPC   GL219586  41.217  28.740   9.094
 1222POPC   C1A19587  40.838  28.403   8.703
 1222POPC   D2A19588  40.625  28.561   8.371
 1222POPC   C3A19589  40.562  28.272   8.089
 1222POPC   C4A19590  40.799  28.220   7.743
 1222POPC   C1B19591  41.271  28.912   8.714
 1222POPC   C2B19592  41.262  28.614   8.439
 1222POPC   C3B19593  41.059  28.483   8.097
 1222POPC   C4B19594  41.125  28.665   7.701
 1223POPC   NC319595  34.015  28.358   9.447
 1223POPC   PO419596  33.405  28.254   9.734
 1223POPC   GL119597  33.511  28.348   9.235
 1223POPC   GL219598  33.805  28.246   9.011
 1223POPC   C1A19599  33.378  28.373   8.777
 1223POPC   D2A19600  33.631  28.425   8.422
 1223POPC   C3A19601  33.675  28.171   8.055
 1223POPC   C4A19602  33.765  28.293   7.626
 1223POPC   C1B19603  34.077  28.422   8.707
 1223POPC   C2B19604  34.058  28.693   8.362
 1223POPC   C3B19605  33.825  28.664   7.989
 1223POPC   C4B19606  33.947  28.775   7.592
 1224POPC   NC319607  41.852  25.584   9.663
 1224POPC   PO419608  41.239  25.916   9.558
 1224POPC   GL119609  41.315  25.711   9.150
 1224POPC   GL219610  41.568  25.418   9.225
 1224POPC   C1A19611  41.340  25.509   8.763
 1224POPC   D2A19612  41.455  25.252   8.439
 1224POPC   C3A19613  41.409  25.509   8.076
 1224POPC   C4A19614  41.575  25.431   7.704
 1224POPC   C1B19615  41.759  25.191   8.882
 1224POPC   C2B19616  41.995  25.285   8.529
 1224POPC   C3B19617  41.874  25.301   8.115
 1224POPC   C4B19618  42.050  25.276   7.724
 1225POPC   NC319619  12.507  30.410   9.487
 1225POPC   PO419620  13.040  30.721   9.757
 1225POPC   GL119621  12.856  30.847   9.277
 1225POPC   GL219622  12.561  30.662   9.070
 1225POPC   C1A19623  12.851  30.941   8.788
 1225POPC   D2A19624  12.953  30.847   8.350
 1225POPC   C3A19625  12.641  30.905   8.006
 1225POPC   C4A19626  12.913  30.898   7.655
 1225POPC   C1B19627  12.628  30.307   8.778
 1225POPC   C2B19628  12.798  30.288   8.390
 1225POPC   C3B19629  12.883  30.460   8.014
 1225POPC   C4B19630  12.674  30.440   7.660
 1226POPC   NC319631  44.805  21.121   9.519
 1226POPC   PO419632  44.821  21.838   9.634
 1226POPC   GL119633  44.660  21.623   9.262
 1226POPC   GL219634  44.996  21.554   9.204
 1226POPC   C1A19635  44.549  21.400   8.821
 1226POPC   D2A19636  44.407  21.301   8.335
 1226POPC   C3A19637  44.422  21.360   7.880
 1226POPC   C4A19638  44.580  20.962   7.755
 1226POPC   C1B19639   0.094  21.439   8.817
 1226POPC   C2B19640  44.891  21.481   8.441
 1226POPC   C3B19641  44.889  21.298   8.049
 1226POPC   C4B19642   0.052  21.483   7.679
 1227POPC   NC319643  31.142  24.853   9.421
 1227POPC   PO419644  30.718  24.400   9.744
 1227POPC   GL119645  30.812  24.468   9.246
 1227POPC   GL219646  31.125  24.490   9.056
 1227POPC   C1A19647  30.568  24.485   8.828
 1227POPC   D2A19648  30.676  24.627   8.416
 1227POPC   C3A19649  30.624  24.382   8.050
 1227POPC   C4A19650  30.360  24.598   7.808
 1227POPC   C1B19651  30.938  24.846   8.808
 1227POPC   C2B19652  31.028  24.986   8.397
 1227POPC   C3B19653  30.889  24.858   7.990
 1227POPC   C4B19654  30.885  24.644   7.596
 1228POPC   NC319655  14.189  32.757   9.427
 1228POPC   PO419656  14.738  33.181   9.522
 1228POPC   GL119657  14.644  32.901   9.119
 1228POPC   GL219658  14.352  32.707   8.962
 1228POPC   C1A19659  14.608  33.065   8.673
 1228POPC   D2A19660  14.561  33.065   8.223
 1228POPC   C3A19661  14.541  33.394   7.884
 1228POPC   C4A19662  14.319  33.275   7.476
 1228POPC   C1B19663  14.094  33.034   8.749
 1228POPC   C2B19664  13.937  33.020   8.330
 1228POPC   C3B19665  14.138  33.051   7.928
 1228POPC   C4B19666  14.137  32.790   7.557
 1229POPC   NC319667  16.172  10.452   9.813
 1229POPC   PO419668  15.645  10.292   9.494
 1229POPC   GL119669  15.880  10.568   9.226
 1229POPC   GL219670  16.208  10.473   9.088
 1229POPC   C1A19671  15.857  10.694   8.799
 1229POPC   D2A19672  15.668  10.642   8.420
 1229POPC   C3A19673  15.876  10.673   8.049
 1229POPC   C4A19674  15.809  10.301   7.818
 1229POPC   C1B19675  16.343  10.470   8.656
 1229POPC   C2B19676  16.624  10.719   8.384
 1229POPC   C3B19677  16.380  10.539   8.082
 1229POPC   C4B19678  16.314  10.394   7.681
 1230POPC   NC319679  18.592  25.881   9.862
 1230POPC   PO419680  18.319  26.457   9.540
 1230POPC   GL119681  18.381  26.144   9.229
 1230POPC   GL219682  18.332  26.371   8.986
 1230POPC   C1A19683  18.364  25.888   8.806
 1230POPC   D2A19684  18.187  25.985   8.389
 1230POPC   C3A19685  18.277  25.767   8.033
 1230POPC   C4A19686  18.494  25.839   7.686
 1230POPC   C1B19687  17.957  26.202   8.783
 1230POPC   C2B19688  17.761  26.287   8.381
 1230POPC   C3B19689  17.817  26.036   8.024
 1230POPC   C4B19690  18.041  26.052   7.677
 1231POPC   NC319691   3.401   7.261   9.492
 1231POPC   PO419692   3.382   7.926   9.393
 1231POPC   GL119693   3.418   7.598   9.121
 1231POPC   GL219694   3.772   7.528   9.227
 1231POPC   C1A19695   3.515   7.295   8.806
 1231POPC   D2A19696   3.747   7.349   8.442
 1231POPC   C3A19697   3.557   7.340   8.074
 1231POPC   C4A19698   3.240   7.459   7.825
 1231POPC   C1B19699   3.946   7.633   8.812
 1231POPC   C2B19700   4.012   7.807   8.377
 1231POPC   C3B19701   4.044   7.658   7.951
 1231POPC   C4B19702   3.960   7.265   7.787
 1232POPC   NC319703  37.927  35.776   9.603
 1232POPC   PO419704  37.579  36.349   9.600
 1232POPC   GL119705  37.570  36.179   9.196
 1232POPC   GL219706  37.672  35.854   9.163
 1232POPC   C1A19707  37.431  36.324   8.811
 1232POPC   D2A19708  37.460  36.603   8.454
 1232POPC   C3A19709  37.466  36.353   8.099
 1232POPC   C4A19710  37.468  36.205   7.698
 1232POPC   C1B19711  37.440  35.792   8.786
 1232POPC   C2B19712  37.508  35.890   8.337
 1232POPC   C3B19713  37.530  35.737   7.893
 1232POPC   C4B19714  37.496  35.788   7.418
 1233POPC   NC319715  43.183  19.289   9.530
 1233POPC   PO419716  42.942  18.662   9.441
 1233POPC   GL119717  42.855  18.864   9.059
 1233POPC   GL219718  43.128  19.112   9.049
 1233POPC   C1A19719  42.884  18.976   8.614
 1233POPC   D2A19720  43.301  19.015   8.392
 1233POPC   C3A19721  43.280  18.867   7.956
 1233POPC   C4A19722  42.990  19.077   7.707
 1233POPC   C1B19723  43.436  19.355   8.803
 1233POPC   C2B19724  43.490  19.532   8.392
 1233POPC   C3B19725  43.330  19.388   8.000
 1233POPC   C4B19726  43.412  19.330   7.585
 1234POPC   NC319727  27.420   1.072   9.340
 1234POPC   PO419728  27.916   1.152   9.762
 1234POPC   GL119729  27.896   1.397   9.273
 1234POPC   GL219730  27.567   1.538   9.151
 1234POPC   C1A19731  27.920   1.399   8.788
 1234POPC   D2A19732  27.740   1.052   8.465
 1234POPC   C3A19733  27.702   1.139   8.042
 1234POPC   C4A19734  27.551   0.889   7.719
 1234POPC   C1B19735  27.412   1.311   8.749
 1234POPC   C2B19736  27.229   1.271   8.319
 1234POPC   C3B19737  27.353   1.470   7.918
 1234POPC   C4B19738  27.339   1.296   7.497
 1235POPC   NC319739  17.314  44.984   9.577
 1235POPC   PO419740  17.649  44.421   9.599
 1235POPC   GL119741  17.491  44.599   9.208
 1235POPC   GL219742  17.787  44.414   9.080
 1235POPC   C1A19743  17.252  44.697   8.800
 1235POPC   D2A19744  17.224  44.530   8.341
 1235POPC   C3A19745  17.267  44.854   7.980
 1235POPC   C4A19746  17.280  44.974   7.475
 1235POPC   C1B19747  17.556  44.313   8.717
 1235POPC   C2B19748  17.656  44.254   8.336
 1235POPC   C3B19749  17.683  44.457   7.972
 1235POPC   C4B19750  17.395  44.491   7.658
 1236POPC   NC319751   8.428  21.799   9.442
 1236POPC   PO419752   8.307  22.438   9.446
 1236POPC   GL119753   8.282  22.150   9.111
 1236POPC   GL219754   7.947  22.028   9.181
 1236POPC   C1A19755   8.409  22.149   8.686
 1236POPC   D2A19756   8.325  22.434   8.350
 1236POPC   C3A19757   8.233  22.292   7.944
 1236POPC   C4A19758   8.407  22.355   7.543
 1236POPC   C1B19759   7.881  22.200   8.754
 1236POPC   C2B19760   7.808  22.276   8.319
 1236POPC   C3B19761   7.823  21.972   7.975
 1236POPC   C4B19762   8.094  21.852   7.698
 1237POPC   NC319763  28.905  23.681   9.453
 1237POPC   PO419764  29.484  24.065   9.624
 1237POPC   GL119765  29.332  23.838   9.250
 1237POPC   GL219766  29.372  24.097   9.105
 1237POPC   C1A19767  29.135  23.754   8.811
 1237POPC   D2A19768  29.128  23.556   8.394
 1237POPC   C3A19769  28.874  23.604   8.066
 1237POPC   C4A19770  29.025  23.506   7.633
 1237POPC   C1B19771  29.591  24.028   8.772
 1237POPC   C2B19772  29.465  23.919   8.399
 1237POPC   C3B19773  29.351  23.852   7.996
 1237POPC   C4B19774  29.041  23.990   7.773
 1238POPC   NC319775  17.424   8.716   9.789
 1238POPC   PO419776  17.549   8.093   9.593
 1238POPC   GL119777  17.507   8.359   9.197
 1238POPC   GL219778  17.172   8.366   9.023
 1238POPC   C1A19779  17.554   8.122   8.783
 1238POPC   D2A19780  17.552   7.974   8.343
 1238POPC   C3A19781  17.745   8.238   8.000
 1238POPC   C4A19782  17.745   7.963   7.670
 1238POPC   C1B19783  17.037   8.131   8.668
 1238POPC   C2B19784  17.027   8.125   8.224
 1238POPC   C3B19785  17.276   8.045   7.894
 1238POPC   C4B19786  17.313   8.287   7.543
 1239POPC   NC319787  26.618   1.194   9.462
 1239POPC   PO419788  27.100   0.716   9.381
 1239POPC   GL119789  26.848   0.903   9.099
 1239POPC   GL219790  27.011   1.214   9.066
 1239POPC   C1A19791  26.742   1.026   8.688
 1239POPC   D2A19792  26.891   0.813   8.362
 1239POPC   C3A19793  26.979   0.980   7.949
 1239POPC   C4A19794  26.804   1.134   7.576
 1239POPC   C1B19795  26.951   1.493   8.708
 1239POPC   C2B19796  26.836   1.653   8.307
 1239POPC   C3B19797  26.866   1.488   7.931
 1239POPC   C4B19798  26.929   1.616   7.511
 1240POPC   NC319799  14.185  42.754   9.389
 1240POPC   PO419800  14.557  42.444   9.870
 1240POPC   GL119801  14.555  42.406   9.371
 1240POPC   GL219802  14.282  42.183   9.198
 1240POPC   C1A19803  14.492  42.512   8.904
 1240POPC   D2A19804  14.430  42.242   8.588
 1240POPC   C3A19805  14.561  42.320   8.154
 1240POPC   C4A19806  14.531  42.533   7.777
 1240POPC   C1B19807  13.976  42.153   8.832
 1240POPC   C2B19808  13.977  42.110   8.380
 1240POPC   C3B19809  14.178  42.049   7.971
 1240POPC   C4B19810  14.063  41.881   7.590
 1241POPC   NC319811  27.397  23.184   9.807
 1241POPC   PO419812  27.814  22.755   9.563
 1241POPC   GL119813  27.664  22.785   9.152
 1241POPC   GL219814  27.398  22.562   9.238
 1241POPC   C1A19815  27.656  22.813   8.677
 1241POPC   D2A19816  27.668  22.726   8.237
 1241POPC   C3A19817  27.433  23.033   7.993
 1241POPC   C4A19818  27.462  23.256   7.591
 1241POPC   C1B19819  27.195  22.619   8.845
 1241POPC   C2B19820  27.173  22.765   8.382
 1241POPC   C3B19821  27.023  22.720   7.922
 1241POPC   C4B19822  27.167  22.830   7.480
 1242POPC   NC319823  14.376  24.598   9.547
 1242POPC   PO419824  14.394  23.998   9.349
 1242POPC   GL119825  14.309  24.261   9.044
 1242POPC   GL219826  14.378  24.624   9.021
 1242POPC   C1A19827  14.484  24.260   8.650
 1242POPC   D2A19828  14.408  24.548   8.328
 1242POPC   C3A19829  14.551  24.406   7.949
 1242POPC   C4A19830  14.533  24.168   7.582
 1242POPC   C1B19831  14.088  24.914   8.768
 1242POPC   C2B19832  14.001  24.889   8.326
 1242POPC   C3B19833  14.232  24.829   7.942
 1242POPC   C4B19834  14.269  24.794   7.500
 1243POPC   NC319835   1.867  29.504   9.481
 1243POPC   PO419836   1.797  28.752   9.506
 1243POPC   GL119837   1.934  29.064   9.214
 1243POPC   GL219838   2.248  29.118   9.062
 1243POPC   C1A19839   1.819  29.184   8.808
 1243POPC   D2A19840   1.781  28.962   8.461
 1243POPC   C3A19841   2.062  29.153   8.210
 1243POPC   C4A19842   1.861  29.265   7.858
 1243POPC   C1B19843   2.264  28.894   8.663
 1243POPC   C2B19844   2.403  28.755   8.253
 1243POPC   C3B19845   2.318  28.891   7.842
 1243POPC   C4B19846   2.322  29.315   7.699
 1244POPC   NC319847  33.605  37.376   9.563
 1244POPC   PO419848  33.842  37.982   9.480
 1244POPC   GL119849  33.855  37.675   9.152
 1244POPC   GL219850  33.531  37.498   9.080
 1244POPC   C1A19851  33.880  37.774   8.707
 1244POPC   D2A19852  33.792  37.553   8.333
 1244POPC   C3A19853  33.912  37.747   7.957
 1244POPC   C4A19854  33.635  37.519   7.661
 1244POPC   C1B19855  33.424  37.881   8.928
 1244POPC   C2B19856  33.395  37.895   8.496
 1244POPC   C3B19857  33.431  37.840   8.054
 1244POPC   C4B19858  33.544  38.015   7.642
 1245POPC   NC319859  35.321  34.840   9.635
 1245POPC   PO419860  35.525  35.407   9.574
 1245POPC   GL119861  35.486  35.271   9.184
 1245POPC   GL219862  35.156  35.087   9.206
 1245POPC   C1A19863  35.585  35.423   8.780
 1245POPC   D2A19864  35.796  35.314   8.419
 1245POPC   C3A19865  35.610  35.560   8.090
 1245POPC   C4A19866  35.636  35.324   7.687
 1245POPC   C1B19867  35.270  35.003   8.789
 1245POPC   C2B19868  35.280  35.214   8.393
 1245POPC   C3B19869  35.197  35.277   7.965
 1245POPC   C4B19870  34.942  35.190   7.621
 1246POPC   NC319871  35.503  44.444   9.617
 1246POPC   PO419872  34.883  44.677   9.414
 1246POPC   GL119873  35.200  44.497   9.194
 1246POPC   GL219874  35.429  44.774   9.177
 1246POPC   C1A19875  35.248  44.375   8.773
 1246POPC   D2A19876  35.435  44.438   8.362
 1246POPC   C3A19877  35.259  44.361   7.960
 1246POPC   C4A19878  35.307  44.329   7.500
 1246POPC   C1B19879  35.352  44.893   8.760
 1246POPC   C2B19880  35.599  44.929   8.400
 1246POPC   C3B19881  35.694  44.982   8.001
 1246POPC   C4B19882  35.478  44.831   7.632
 1247POPC   NC319883  21.529  19.631   9.473
 1247POPC   PO419884  21.277  20.215   9.470
 1247POPC   GL119885  21.459  20.026   9.126
 1247POPC   GL219886  21.643  20.324   9.032
 1247POPC   C1A19887  21.324  19.753   8.762
 1247POPC   D2A19888  21.081  19.939   8.416
 1247POPC   C3A19889  21.251  19.915   8.010
 1247POPC   C4A19890  21.296  19.563   7.781
 1247POPC   C1B19891  21.757  20.016   8.709
 1247POPC   C2B19892  21.653  19.786   8.331
 1247POPC   C3B19893  21.768  19.806   7.910
 1247POPC   C4B19894  21.576  19.922   7.531
 1248POPC   NC319895  17.199  21.175   9.632
 1248POPC   PO419896  17.533  21.712   9.500
 1248POPC   GL119897  17.376  21.726   9.145
 1248POPC   GL219898  17.212  21.394   9.187
 1248POPC   C1A19899  17.615  21.752   8.774
 1248POPC   D2A19900  17.829  21.613   8.406
 1248POPC   C3A19901  17.675  21.742   8.026
 1248POPC   C4A19902  17.507  21.569   7.693
 1248POPC   C1B19903  17.517  21.251   8.923
 1248POPC   C2B19904  17.461  21.229   8.499
 1248POPC   C3B19905  17.345  21.254   8.089
 1248POPC   C4B19906  17.526  21.050   7.752
 1249POPC   NC319907  25.134  18.579   9.500
 1249POPC   PO419908  25.462  18.004   9.622
 1249POPC   GL119909  25.458  18.251   9.241
 1249POPC   GL219910  25.095  18.185   9.147
 1249POPC   C1A19911  25.413  18.470   8.818
 1249POPC   D2A19912  25.103  18.290   8.515
 1249POPC   C3A19913  25.087  18.243   8.045
 1249POPC   C4A19914  25.210  18.475   7.665
 1249POPC   C1B19915  25.350  17.961   8.836
 1249POPC   C2B19916  25.432  17.819   8.422
 1249POPC   C3B19917  25.662  18.043   8.127
 1249POPC   C4B19918  25.619  18.187   7.731
 1250POPC   NC319919  21.759  30.581   9.567
 1250POPC   PO419920  22.361  30.715   9.518
 1250POPC   GL119921  22.132  30.527   9.190
 1250POPC   GL219922  22.305  30.287   9.018
 1250POPC   C1A19923  21.998  30.624   8.762
 1250POPC   D2A19924  22.176  30.570   8.396
 1250POPC   C3A19925  22.019  30.842   8.092
 1250POPC   C4A19926  22.159  30.865   7.693
 1250POPC   C1B19927  22.450  30.160   8.612
 1250POPC   C2B19928  22.418  30.147   8.156
 1250POPC   C3B19929  22.157  30.373   7.852
 1250POPC   C4B19930  21.876  30.482   7.490
 1251POPC   NC319931   1.561  13.748   9.531
 1251POPC   PO419932   0.974  13.366   9.542
 1251POPC   GL119933   1.185  13.597   9.203
 1251POPC   GL219934   1.515  13.452   9.133
 1251POPC   C1A19935   1.047  13.657   8.781
 1251POPC   D2A19936   1.026  13.519   8.352
 1251POPC   C3A19937   1.068  13.702   7.925
 1251POPC   C4A19938   0.689  13.816   7.676
 1251POPC   C1B19939   1.537  13.554   8.704
 1251POPC   C2B19940   1.519  13.416   8.285
 1251POPC   C3B19941   1.723  13.546   7.918
 1251POPC   C4B19942   1.594  13.490   7.489
 1252POPC   NC319943  28.846  22.071   9.359
 1252POPC   PO419944  29.355  22.407   9.478
 1252POPC   GL119945  29.171  22.386   9.089
 1252POPC   GL219946  28.869  22.534   9.155
 1252POPC   C1A19947  29.267  22.124   8.716
 1252POPC   D2A19948  29.345  21.930   8.291
 1252POPC   C3A19949  29.198  22.077   7.841
 1252POPC   C4A19950  29.340  22.255   7.421
 1252POPC   C1B19951  28.641  22.352   8.794
 1252POPC   C2B19952  28.835  22.100   8.467
 1252POPC   C3B19953  28.870  21.801   8.134
 1252POPC   C4B19954  28.655  21.935   7.769
 1253POPC   NC319955  43.821  33.203   9.570
 1253POPC   PO419956  44.270  32.619   9.655
 1253POPC   GL119957  43.975  32.795   9.315
 1253POPC   GL219958  44.023  33.072   9.109
 1253POPC   C1A19959  43.614  32.849   8.960
 1253POPC   D2A19960  43.766  33.035   8.588
 1253POPC   C3A19961  43.739  32.862   8.177
 1253POPC   C4A19962  43.872  33.013   7.793
 1253POPC   C1B19963  44.211  33.233   8.761
 1253POPC   C2B19964  44.161  33.249   8.333
 1253POPC   C3B19965  44.376  33.052   8.009
 1253POPC   C4B19966  44.355  32.924   7.595
 1254POPC   NC319967  27.250  13.620   9.363
 1254POPC   PO419968  26.624  13.541   9.535
 1254POPC   GL119969  26.777  13.702   9.093
 1254POPC   GL219970  27.016  13.461   8.932
 1254POPC   C1A19971  26.717  13.719   8.604
 1254POPC   D2A19972  26.721  13.339   8.316
 1254POPC   C3A19973  26.751  13.414   7.860
 1254POPC   C4A19974  26.619  13.789   7.633
 1254POPC   C1B19975  27.178  13.858   8.753
 1254POPC   C2B19976  27.038  14.094   8.417
 1254POPC   C3B19977  26.978  13.820   8.079
 1254POPC   C4B19978  27.115  13.899   7.655
 1255POPC   NC319979  17.881  31.517   9.566
 1255POPC   PO419980  17.234  31.587   9.357
 1255POPC   GL119981  17.467  31.385   9.059
 1255POPC   GL219982  17.722  31.654   9.113
 1255POPC   C1A19983  17.322  31.297   8.612
 1255POPC   D2A19984  17.296  31.071   8.211
 1255POPC   C3A19985  17.452  31.330   7.866
 1255POPC   C4A19986  17.293  31.748   7.721
 1255POPC   C1B19987  17.473  31.799   8.757
 1255POPC   C2B19988  17.408  31.742   8.317
 1255POPC   C3B19989  17.723  31.750   8.018
 1255POPC   C4B19990  17.936  31.776   7.671
 1256POPC   NC319991  25.181   8.069   9.520
 1256POPC   PO419992  25.728   8.398   9.501
 1256POPC   GL119993  25.387   8.530   9.244
 1256POPC   GL219994  25.192   8.250   9.053
 1256POPC   C1A19995  25.385   8.659   8.823
 1256POPC   D2A19996  25.151   8.368   8.541
 1256POPC   C3A19997  25.117   8.422   8.105
 1256POPC   C4A19998  25.286   8.153   7.813
 1256POPC   C1B19999  25.036   7.899   8.786
 1256POPC   C2B20000  24.861   7.943   8.357
 1256POPC   C3B20001  24.800   8.036   7.934
 1256POPC   C4B20002  24.846   8.404   7.643
 1257POPC   NC320003  31.085  42.504   9.421
 1257POPC   PO420004  31.629  42.189   9.469
 1257POPC   GL120005  31.504  42.181   9.076
 1257POPC   GL220006  31.165  42.136   9.057
 1257POPC   C1A20007  31.760  42.157   8.713
 1257POPC   D2A20008  31.600  42.283   8.314
 1257POPC   C3A20009  31.863  42.328   7.967
 1257POPC   C4A20010  31.790  42.641   7.631
 1257POPC   C1B20011  31.263  42.005   8.645
 1257POPC   C2B20012  31.076  42.212   8.318
 1257POPC   C3B20013  31.108  42.405   7.952
 1257POPC   C4B20014  31.437  42.258   7.730
 1258POPC   NC320015  32.723  36.924   9.428
 1258POPC   PO420016  33.294  36.561   9.413
 1258POPC   GL120017  33.087  36.780   9.074
 1258POPC   GL220018  33.157  37.138   9.184
 1258POPC   C1A20019  33.047  36.723   8.609
 1258POPC   D2A20020  33.274  36.709   8.223
 1258POPC   C3A20021  32.975  36.832   7.904
 1258POPC   C4A20022  32.705  36.563   7.692
 1258POPC   C1B20023  33.364  37.104   8.775
 1258POPC   C2B20024  33.215  37.213   8.353
 1258POPC   C3B20025  33.241  37.340   7.932
 1258POPC   C4B20026  33.144  37.185   7.517
 1259POPC   NC320027  17.209  22.959   9.836
 1259POPC   PO420028  17.637  22.718   9.367
 1259POPC   GL120029  17.399  22.823   8.995
 1259POPC   GL220030  17.251  23.127   9.196
 1259POPC   C1A20031  17.332  22.642   8.563
 1259POPC   D2A20032  17.593  22.678   8.170
 1259POPC   C3A20033  17.370  22.711   7.769
 1259POPC   C4A20034  17.343  22.592   7.315
 1259POPC   C1B20035  17.454  23.287   8.807
 1259POPC   C2B20036  17.413  23.127   8.394
 1259POPC   C3B20037  17.514  23.209   7.980
 1259POPC   C4B20038  17.242  23.351   7.705
 1260POPC   NC320039   6.565  24.122   9.287
 1260POPC   PO420040   7.007  24.511   9.621
 1260POPC   GL120041   6.803  24.612   9.185
 1260POPC   GL220042   6.425  24.718   9.146
 1260POPC   C1A20043   6.689  24.561   8.747
 1260POPC   D2A20044   6.736  24.256   8.452
 1260POPC   C3A20045   6.854  24.426   8.049
 1260POPC   C4A20046   6.718  24.525   7.650
 1260POPC   C1B20047   6.164  24.557   8.835
 1260POPC   C2B20048   6.272  24.446   8.439
 1260POPC   C3B20049   6.360  24.579   8.040
 1260POPC   C4B20050   6.204  24.444   7.667
 1261POPC   NC320051   2.259  38.145   9.487
 1261POPC   PO420052   2.810  38.525   9.423
 1261POPC   GL120053   2.891  38.368   9.000
 1261POPC   GL220054   3.233  38.370   8.897
 1261POPC   C1A20055   2.852  38.382   8.548
 1261POPC   D2A20056   2.459  38.436   8.329
 1261POPC   C3A20057   2.539  38.322   7.931
 1261POPC   C4A20058   2.950  38.147   7.864
 1261POPC   C1B20059   3.121  38.779   8.790
 1261POPC   C2B20060   2.956  38.887   8.414
 1261POPC   C3B20061   2.946  38.629   8.060
 1261POPC   C4B20062   2.856  38.672   7.613
 1262POPC   NC320063   7.770  30.641   9.510
 1262POPC   PO420064   7.138  30.668   9.434
 1262POPC   GL120065   7.383  30.858   9.110
 1262POPC   GL220066   7.703  30.733   9.027
 1262POPC   C1A20067   7.149  30.965   8.742
 1262POPC   D2A20068   6.986  30.716   8.409
 1262POPC   C3A20069   7.062  30.951   8.047
 1262POPC   C4A20070   7.225  30.983   7.629
 1262POPC   C1B20071   7.489  30.577   8.703
 1262POPC   C2B20072   7.508  30.783   8.359
 1262POPC   C3B20073   7.414  30.558   8.069
 1262POPC   C4B20074   7.444  30.486   7.695
 1263POPC   NC320075  28.753  13.905   9.512
 1263POPC   PO420076  28.176  14.310   9.551
 1263POPC   GL120077  28.442  14.509   9.226
 1263POPC   GL220078  28.206  14.782   9.126
 1263POPC   C1A20079  28.579  14.634   8.789
 1263POPC   D2A20080  28.416  14.583   8.389
 1263POPC   C3A20081  28.551  14.216   8.141
 1263POPC   C4A20082  28.825  14.156   7.733
 1263POPC   C1B20083  28.109  14.400   8.838
 1263POPC   C2B20084  28.042  14.257   8.403
 1263POPC   C3B20085  28.109  14.459   7.998
 1263POPC   C4B20086  28.399  14.439   7.710
 1264POPC   NC320087  11.848   2.942   9.525
 1264POPC   PO420088  11.947   2.301   9.405
 1264POPC   GL120089  11.975   2.671   9.120
 1264POPC   GL220090  12.202   2.983   9.167
 1264POPC   C1A20091  11.963   2.782   8.706
 1264POPC   D2A20092  11.949   2.447   8.403
 1264POPC   C3A20093  12.042   2.617   8.004
 1264POPC   C4A20094  12.179   2.395   7.643
 1264POPC   C1B20095  12.355   3.117   8.772
 1264POPC   C2B20096  12.147   3.145   8.377
 1264POPC   C3B20097  12.280   3.183   7.964
 1264POPC   C4B20098  12.312   2.939   7.620
 1265POPC   NC320099  37.514  24.561   9.522
 1265POPC   PO420100  37.830  24.010   9.531
 1265POPC   GL120101  37.858  24.318   9.216
 1265POPC   GL220102  38.027  24.650   9.247
 1265POPC   C1A20103  37.666  24.302   8.819
 1265POPC   D2A20104  37.358  24.527   8.581
 1265POPC   C3A20105  37.488  24.535   8.145
 1265POPC   C4A20106  37.401  24.259   7.804
 1265POPC   C1B20107  37.750  24.803   8.898
 1265POPC   C2B20108  37.836  24.978   8.496
 1265POPC   C3B20109  37.930  24.834   8.086
 1265POPC   C4B20110  37.655  24.843   7.729
 1266POPC   NC320111  27.969   9.639   9.504
 1266POPC   PO420112  27.550  10.090   9.243
 1266POPC   GL120113  27.829   9.909   9.013
 1266POPC   GL220114  27.676   9.652   9.038
 1266POPC   C1A20115  27.736   9.846   8.563
 1266POPC   D2A20116  27.482  10.040   8.251
 1266POPC   C3A20117  27.682  10.098   7.859
 1266POPC   C4A20118  27.898   9.828   7.590
 1266POPC   C1B20119  27.811   9.364   8.722
 1266POPC   C2B20120  27.867   9.393   8.296
 1266POPC   C3B20121  27.647   9.576   7.956
 1266POPC   C4B20122  27.397   9.341   7.652
 1267POPC   NC320123  43.374   1.042   9.503
 1267POPC   PO420124  42.746   1.370   9.567
 1267POPC   GL120125  43.058   1.505   9.269
 1267POPC   GL220126  43.007   1.164   9.167
 1267POPC   C1A20127  43.124   1.483   8.787
 1267POPC   D2A20128  43.270   1.304   8.381
 1267POPC   C3A20129  43.125   1.424   7.948
 1267POPC   C4A20130  43.055   1.639   7.514
 1267POPC   C1B20131  43.101   0.952   8.796
 1267POPC   C2B20132  43.139   0.802   8.371
 1267POPC   C3B20133  43.360   0.949   8.015
 1267POPC   C4B20134  43.325   0.820   7.630
 1268POPC   NC320135   0.139  34.268   9.472
 1268POPC   PO420136  44.611  34.702   9.522
 1268POPC   GL120137  44.731  34.435   9.197
 1268POPC   GL220138  44.506  34.592   9.017
 1268POPC   C1A20139  44.934  34.404   8.785
 1268POPC   D2A20140  44.918  34.637   8.404
 1268POPC   C3A20141  44.797  34.474   7.990
 1268POPC   C4A20142  44.894  34.599   7.524
 1268POPC   C1B20143  44.358  34.809   8.683
 1268POPC   C2B20144  44.388  34.654   8.323
 1268POPC   C3B20145  44.221  34.677   7.972
 1268POPC   C4B20146  44.419  34.594   7.650
 1269POPC   NC320147  42.076  37.734   9.498
 1269POPC   PO420148  42.700  37.848   9.353
 1269POPC   GL120149  42.368  37.614   9.102
 1269POPC   GL220150  42.029  37.387   9.120
 1269POPC   C1A20151  42.264  37.670   8.701
 1269POPC   D2A20152  42.344  37.945   8.390
 1269POPC   C3A20153  42.484  37.729   8.048
 1269POPC   C4A20154  42.178  37.791   7.769
 1269POPC   C1B20155  42.047  37.207   8.719
 1269POPC   C2B20156  42.204  37.337   8.314
 1269POPC   C3B20157  42.009  37.340   7.895
 1269POPC   C4B20158  41.992  37.474   7.401
 1270POPC   NC320159  14.539  19.500   9.481
 1270POPC   PO420160  14.042  19.026   9.407
 1270POPC   GL120161  14.332  19.138   9.137
 1270POPC   GL220162  14.677  19.047   9.262
 1270POPC   C1A20163  14.284  19.011   8.702
 1270POPC   D2A20164  14.034  19.160   8.363
 1270POPC   C3A20165  14.211  19.211   7.917
 1270POPC   C4A20166  14.210  19.266   7.406
 1270POPC   C1B20167  14.731  19.205   8.835
 1270POPC   C2B20168  14.770  18.953   8.442
 1270POPC   C3B20169  14.638  18.860   8.014
 1270POPC   C4B20170  14.627  19.101   7.636
 1271POPC   NC320171  41.895  37.081   9.524
 1271POPC   PO420172  41.290  36.870   9.389
 1271POPC   GL120173  41.531  37.159   9.130
 1271POPC   GL220174  41.769  36.914   9.073
 1271POPC   C1A20175  41.526  37.156   8.699
 1271POPC   D2A20176  41.394  36.842   8.427
 1271POPC   C3A20177  41.448  37.057   8.067
 1271POPC   C4A20178  41.392  36.938   7.671
 1271POPC   C1B20179  41.866  36.716   8.712
 1271POPC   C2B20180  41.906  36.906   8.308
 1271POPC   C3B20181  41.895  36.750   7.905
 1271POPC   C4B20182  41.868  36.995   7.556
 1272POPC   NC320183  21.903  41.488  10.028
 1272POPC   PO420184  22.031  41.717   9.426
 1272POPC   GL120185  21.944  41.871   9.066
 1272POPC   GL220186  22.098  41.572   8.916
 1272POPC   C1A20187  22.113  42.047   8.695
 1272POPC   D2A20188  22.320  41.712   8.468
 1272POPC   C3A20189  22.210  41.699   8.040
 1272POPC   C4A20190  21.927  41.605   7.753
 1272POPC   C1B20191  21.939  41.206   8.679
 1272POPC   C2B20192  21.752  41.189   8.254
 1272POPC   C3B20193  21.929  41.084   7.831
 1272POPC   C4B20194  22.262  41.262   7.513
 1273POPC   NC320195  38.606  25.812   9.283
 1273POPC   PO420196  38.372  26.317   9.585
 1273POPC   GL120197  38.284  26.185   9.147
 1273POPC   GL220198  38.096  25.889   9.111
 1273POPC   C1A20199  38.460  26.090   8.703
 1273POPC   D2A20200  38.555  26.376   8.354
 1273POPC   C3A20201  38.466  26.257   7.944
 1273POPC   C4A20202  38.780  26.328   7.666
 1273POPC   C1B20203  38.095  25.658   8.733
 1273POPC   C2B20204  38.185  25.724   8.313
 1273POPC   C3B20205  38.084  25.788   7.867
 1273POPC   C4B20206  38.355  25.931   7.550
 1274POPC   NC320207  20.657   7.135   9.483
 1274POPC   PO420208  20.763   7.763   9.555
 1274POPC   GL120209  20.705   7.533   9.168
 1274POPC   GL220210  21.017   7.301   9.146
 1274POPC   C1A20211  20.465   7.623   8.761
 1274POPC   D2A20212  20.227   7.602   8.343
 1274POPC   C3A20213  20.468   7.688   7.942
 1274POPC   C4A20214  20.657   7.557   7.526
 1274POPC   C1B20215  20.805   7.213   8.754
 1274POPC   C2B20216  20.609   7.220   8.345
 1274POPC   C3B20217  20.658   7.189   7.917
 1274POPC   C4B20218  20.717   6.955   7.526
 1275POPC   NC320219   4.027   5.213   9.489
 1275POPC   PO420220   4.575   4.761   9.513
 1275POPC   GL120221   4.365   4.959   9.184
 1275POPC   GL220222   4.393   5.318   9.162
 1275POPC   C1A20223   4.230   5.038   8.780
 1275POPC   D2A20224   4.303   4.881   8.413
 1275POPC   C3A20225   4.049   5.055   8.165
 1275POPC   C4A20226   4.394   5.071   7.902
 1275POPC   C1B20227   4.422   5.507   8.755
 1275POPC   C2B20228   4.409   5.376   8.353
 1275POPC   C3B20229   4.386   5.565   7.961
 1275POPC   C4B20230   4.432   5.508   7.530
 1276POPC   NC320231   7.476   4.805   9.304
 1276POPC   PO420232   7.377   4.156   9.528
 1276POPC   GL120233   7.210   4.133   9.135
 1276POPC   GL220234   7.449   4.375   9.034
 1276POPC   C1A20235   7.308   4.020   8.712
 1276POPC   D2A20236   7.653   4.123   8.431
 1276POPC   C3A20237   7.535   4.131   7.996
 1276POPC   C4A20238   7.200   4.291   7.704
 1276POPC   C1B20239   7.622   4.630   8.699
 1276POPC   C2B20240   7.664   4.631   8.256
 1276POPC   C3B20241   7.583   4.600   7.811
 1276POPC   C4B20242   7.432   4.610   7.323
 1277POPC   NC320243  32.526  14.927   9.897
 1277POPC   PO420244  32.230  15.429   9.619
 1277POPC   GL120245  32.240  15.216   9.202
 1277POPC   GL220246  32.594  15.027   9.120
 1277POPC   C1A20247  32.070  15.200   8.781
 1277POPC   D2A20248  32.281  15.281   8.403
 1277POPC   C3A20249  32.545  15.058   8.153
 1277POPC   C4A20250  32.274  15.086   7.779
 1277POPC   C1B20251  32.724  15.161   8.694
 1277POPC   C2B20252  32.669  15.595   8.513
 1277POPC   C3B20253  32.470  15.824   8.161
 1277POPC   C4B20254  32.495  15.714   7.717
 1278POPC   NC320255  34.000  25.069   9.482
 1278POPC   PO420256  33.395  25.152   9.426
 1278POPC   GL120257  33.708  25.318   9.134
 1278POPC   GL220258  33.846  25.642   9.196
 1278POPC   C1A20259  33.939  25.318   8.746
 1278POPC   D2A20260  34.112  25.064   8.382
 1278POPC   C3A20261  33.821  25.088   8.024
 1278POPC   C4A20262  33.854  25.308   7.639
 1278POPC   C1B20263  33.592  25.706   8.810
 1278POPC   C2B20264  33.584  25.492   8.392
 1278POPC   C3B20265  33.337  25.517   8.025
 1278POPC   C4B20266  33.436  25.570   7.611
 1279POPC   NC320267  38.151  30.687   9.546
 1279POPC   PO420268  38.759  31.074   9.608
 1279POPC   GL120269  38.549  30.829   9.238
 1279POPC   GL220270  38.214  30.974   9.127
 1279POPC   C1A20271  38.427  30.625   8.840
 1279POPC   D2A20272  38.654  30.699   8.462
 1279POPC   C3A20273  38.609  30.419   8.097
 1279POPC   C4A20274  38.617  30.519   7.656
 1279POPC   C1B20275  38.211  31.051   8.672
 1279POPC   C2B20276  38.209  30.812   8.284
 1279POPC   C3B20277  38.500  30.904   7.978
 1279POPC   C4B20278  38.436  31.106   7.624
 1280POPC   NC320279  40.874  17.850   9.549
 1280POPC   PO420280  40.683  17.185   9.466
 1280POPC   GL120281  40.815  17.504   9.169
 1280POPC   GL220282  40.609  17.814   9.126
 1280POPC   C1A20283  40.967  17.344   8.778
 1280POPC   D2A20284  40.692  17.131   8.490
 1280POPC   C3A20285  40.768  17.186   8.042
 1280POPC   C4A20286  40.946  17.231   7.630
 1280POPC   C1B20287  40.810  17.822   8.741
 1280POPC   C2B20288  40.846  17.599   8.359
 1280POPC   C3B20289  41.017  17.628   7.947
 1280POPC   C4B20290  40.885  17.734   7.511
 1281POPC   NC320291  41.080  42.654   9.869
 1281POPC   PO420292  40.593  42.329   9.598
 1281POPC   GL120293  40.581  42.574   9.245
 1281POPC   GL220294  40.895  42.434   9.129
 1281POPC   C1A20295  40.447  42.474   8.831
 1281POPC   D2A20296  40.464  42.244   8.415
 1281POPC   C3A20297  40.496  42.471   8.028
 1281POPC   C4A20298  40.657  42.441   7.627
 1281POPC   C1B20299  40.974  42.552   8.707
 1281POPC   C2B20300  40.934  42.407   8.286
 1281POPC   C3B20301  41.058  42.229   7.896
 1281POPC   C4B20302  41.109  42.291   7.421
 1282POPC   NC320303  21.909  32.646   9.531
 1282POPC   PO420304  22.391  33.144   9.531
 1282POPC   GL120305  22.309  32.943   9.165
 1282POPC   GL220306  22.001  33.027   9.180
 1282POPC   C1A20307  22.273  33.150   8.760
 1282POPC   D2A20308  22.395  33.018   8.391
 1282POPC   C3A20309  22.434  33.195   8.027
 1282POPC   C4A20310  22.432  33.406   7.657
 1282POPC   C1B20311  21.818  32.895   8.846
 1282POPC   C2B20312  21.913  32.881   8.440
 1282POPC   C3B20313  21.921  33.073   8.065
 1282POPC   C4B20314  21.797  32.939   7.690
 1283POPC   NC320315  29.549  20.610   9.517
 1283POPC   PO420316  28.912  20.879   9.519
 1283POPC   GL120317  29.104  20.674   9.201
 1283POPC   GL220318  29.328  20.892   9.165
 1283POPC   C1A20319  29.163  20.598   8.743
 1283POPC   D2A20320  29.269  20.393   8.317
 1283POPC   C3A20321  29.165  20.533   7.884
 1283POPC   C4A20322  29.329  20.407   7.449
 1283POPC   C1B20323  29.597  20.940   8.848
 1283POPC   C2B20324  29.616  21.034   8.423
 1283POPC   C3B20325  29.598  20.772   8.082
 1283POPC   C4B20326  29.563  20.806   7.671
 1284POPC   NC320327  37.348   2.597   9.342
 1284POPC   PO420328  37.996   2.430   9.290
 1284POPC   GL120329  37.833   2.654   8.991
 1284POPC   GL220330  37.517   2.877   8.979
 1284POPC   C1A20331  37.736   2.607   8.618
 1284POPC   D2A20332  37.347   2.530   8.449
 1284POPC   C3A20333  37.482   2.672   8.097
 1284POPC   C4A20334  37.644   2.976   7.827
 1284POPC   C1B20335  37.552   3.073   8.608
 1284POPC   C2B20336  37.849   3.023   8.291
 1284POPC   C3B20337  37.987   3.322   7.986
 1284POPC   C4B20338  37.844   3.382   7.581
 1285POPC   NC320339  15.203  12.446   9.625
 1285POPC   PO420340  15.308  13.009   9.419
 1285POPC   GL120341  15.128  12.721   9.136
 1285POPC   GL220342  15.485  12.619   9.115
 1285POPC   C1A20343  14.878  12.797   8.736
 1285POPC   D2A20344  15.085  12.882   8.300
 1285POPC   C3A20345  15.131  13.040   7.869
 1285POPC   C4A20346  15.110  13.263   7.494
 1285POPC   C1B20347  15.395  12.726   8.682
 1285POPC   C2B20348  15.352  12.448   8.304
 1285POPC   C3B20349  15.512  12.574   7.936
 1285POPC   C4B20350  15.404  12.675   7.544
 1286POPC   NC320351  10.948  43.127   9.583
 1286POPC   PO420352  11.625  43.223   9.549
 1286POPC   GL120353  11.516  43.225   9.138
 1286POPC   GL220354  11.213  43.026   9.143
 1286POPC   C1A20355  11.538  43.033   8.747
 1286POPC   D2A20356  11.250  43.075   8.428
 1286POPC   C3A20357  11.380  43.045   8.028
 1286POPC   C4A20358  11.484  43.158   7.626
 1286POPC   C1B20359  11.141  42.713   8.821
 1286POPC   C2B20360  10.919  42.691   8.424
 1286POPC   C3B20361  11.074  42.632   8.017
 1286POPC   C4B20362  11.153  42.776   7.626
 1287POPC   NC320363  23.014   9.599   9.445
 1287POPC   PO420364  22.722  10.162   9.431
 1287POPC   GL120365  22.927  10.006   9.065
 1287POPC   GL220366  23.290   9.877   9.100
 1287POPC   C1A20367  22.710   9.897   8.696
 1287POPC   D2A20368  22.516   9.597   8.434
 1287POPC   C3A20369  22.687   9.766   8.077
 1287POPC   C4A20370  23.021   9.899   7.809
 1287POPC   C1B20371  23.129   9.600   8.781
 1287POPC   C2B20372  23.086   9.695   8.366
 1287POPC   C3B20373  23.059   9.440   8.004
 1287POPC   C4B20374  23.361   9.371   7.743
 1288POPC   NC320375  40.523  43.093   9.410
 1288POPC   PO420376  41.137  42.850   9.458
 1288POPC   GL120377  40.926  42.940   9.128
 1288POPC   GL220378  40.959  43.242   9.096
 1288POPC   C1A20379  40.657  42.944   8.792
 1288POPC   D2A20380  40.557  42.759   8.440
 1288POPC   C3A20381  40.445  42.995   8.135
 1288POPC   C4A20382  40.694  42.938   7.783
 1288POPC   C1B20383  40.801  43.425   8.742
 1288POPC   C2B20384  40.842  43.591   8.342
 1288POPC   C3B20385  40.801  43.443   7.917
 1288POPC   C4B20386  40.786  43.722   7.593
 1289POPC   NC320387  29.199   7.728   9.536
 1289POPC   PO420388  28.852   8.347   9.479
 1289POPC   GL120389  29.089   8.165   9.191
 1289POPC   GL220390  28.926   7.882   9.121
 1289POPC   C1A20391  29.173   8.287   8.792
 1289POPC   D2A20392  29.310   8.474   8.393
 1289POPC   C3A20393  29.343   8.225   8.023
 1289POPC   C4A20394  29.317   8.530   7.682
 1289POPC   C1B20395  28.786   7.914   8.726
 1289POPC   C2B20396  29.049   7.996   8.385
 1289POPC   C3B20397  28.876   7.934   8.000
 1289POPC   C4B20398  29.130   7.895   7.665
 1290POPC   NC320399  26.275  15.546   9.284
 1290POPC   PO420400  26.159  14.899   9.397
 1290POPC   GL120401  25.855  15.069   9.054
 1290POPC   GL220402  25.763  15.437   9.064
 1290POPC   C1A20403  25.967  14.934   8.613
 1290POPC   D2A20404  26.403  14.975   8.395
 1290POPC   C3A20405  26.264  15.115   7.998
 1290POPC   C4A20406  25.810  14.998   7.848
 1290POPC   C1B20407  25.633  15.446   8.634
 1290POPC   C2B20408  25.830  15.412   8.225
 1290POPC   C3B20409  25.975  15.488   7.825
 1290POPC   C4B20410  26.154  15.712   7.499
 1291POPC   NC320411   4.946  36.458   9.499
 1291POPC   PO420412   4.804  35.806   9.374
 1291POPC   GL120413   4.912  36.098   9.045
 1291POPC   GL220414   5.212  36.316   9.060
 1291POPC   C1A20415   4.815  36.350   8.678
 1291POPC   D2A20416   4.674  36.325   8.225
 1291POPC   C3A20417   4.829  35.999   7.939
 1291POPC   C4A20418   4.595  35.644   7.745
 1291POPC   C1B20419   5.299  36.021   8.715
 1291POPC   C2B20420   5.141  36.030   8.346
 1291POPC   C3B20421   5.344  36.075   7.975
 1291POPC   C4B20422   5.283  36.105   7.570
 1292POPC   NC320423  31.081   1.556   9.383
 1292POPC   PO420424  30.457   1.322   9.521
 1292POPC   GL120425  30.692   1.275   9.187
 1292POPC   GL220426  30.930   1.041   9.341
 1292POPC   C1A20427  30.746   1.392   8.760
 1292POPC   D2A20428  30.526   1.364   8.412
 1292POPC   C3A20429  30.651   1.423   8.004
 1292POPC   C4A20430  30.487   1.198   7.694
 1292POPC   C1B20431  30.839   0.871   8.929
 1292POPC   C2B20432  30.783   0.926   8.490
 1292POPC   C3B20433  30.846   0.923   8.066
 1292POPC   C4B20434  31.075   1.211   7.851
 1293POPC   NC320435  30.240   3.593   9.360
 1293POPC   PO420436  30.831   3.542   9.663
 1293POPC   GL120437  30.693   3.507   9.160
 1293POPC   GL220438  30.513   3.754   8.951
 1293POPC   C1A20439  30.563   3.301   8.720
 1293POPC   D2A20440  30.646   3.155   8.285
 1293POPC   C3A20441  30.392   3.391   7.998
 1293POPC   C4A20442  30.544   3.789   7.841
 1293POPC   C1B20443  30.867   3.715   8.652
 1293POPC   C2B20444  30.912   3.926   8.242
 1293POPC   C3B20445  31.053   3.900   7.814
 1293POPC   C4B20446  30.877   3.670   7.423
 1294POPC   NC320447  19.120  44.858   9.939
 1294POPC   PO420448  18.944   0.180   9.390
 1294POPC   GL120449  18.853   0.453   9.062
 1294POPC   GL220450  18.543   0.663   8.986
 1294POPC   C1A20451  19.183   0.425   8.780
 1294POPC   D2A20452  19.257   0.211   8.390
 1294POPC   C3A20453  19.282   0.442   8.021
 1294POPC   C4A20454  19.422   0.312   7.639
 1294POPC   C1B20455  18.703   0.558   8.598
 1294POPC   C2B20456  18.807   0.531   8.208
 1294POPC   C3B20457  18.740   0.764   7.892
 1294POPC   C4B20458  18.928   0.525   7.648
 1295POPC   NC320459  32.688  42.490   9.418
 1295POPC   PO420460  33.248  42.238   9.510
 1295POPC   GL120461  33.173  42.373   9.110
 1295POPC   GL220462  33.192  42.727   9.130
 1295POPC   C1A20463  33.028  42.235   8.699
 1295POPC   D2A20464  32.747  42.389   8.354
 1295POPC   C3A20465  32.878  42.239   7.931
 1295POPC   C4A20466  32.668  42.136   7.538
 1295POPC   C1B20467  32.934  42.725   8.788
 1295POPC   C2B20468  33.155  42.740   8.395
 1295POPC   C3B20469  33.052  42.724   7.980
 1295POPC   C4B20470  32.623  42.716   7.919
 1296POPC   NC320471  40.672   2.164   9.384
 1296POPC   PO420472  40.439   1.556   9.214
 1296POPC   GL120473  40.733   1.797   9.014
 1296POPC   GL220474  40.446   1.995   8.950
 1296POPC   C1A20475  41.102   1.897   8.744
 1296POPC   D2A20476  41.110   2.115   8.355
 1296POPC   C3A20477  40.884   1.902   8.073
 1296POPC   C4A20478  40.894   1.910   7.652
 1296POPC   C1B20479  40.677   2.182   8.647
 1296POPC   C2B20480  40.609   2.350   8.259
 1296POPC   C3B20481  40.529   2.223   7.834
 1296POPC   C4B20482  40.611   2.291   7.393
 1297POPC   NC320483   8.033  21.032   9.520
 1297POPC   PO420484   8.627  21.303   9.445
 1297POPC   GL120485   8.363  21.069   9.108
 1297POPC   GL220486   8.054  21.222   9.040
 1297POPC   C1A20487   8.259  20.895   8.698
 1297POPC   D2A20488   8.084  21.096   8.331
 1297POPC   C3A20489   8.390  21.335   8.077
 1297POPC   C4A20490   8.384  21.452   7.649
 1297POPC   C1B20491   8.011  21.635   8.813
 1297POPC   C2B20492   8.031  21.661   8.344
 1297POPC   C3B20493   7.915  21.435   7.940
 1297POPC   C4B20494   7.851  21.452   7.479
 1298POPC   NC320495   2.046   6.035   9.731
 1298POPC   PO420496   2.158   6.622   9.445
 1298POPC   GL120497   2.069   6.629   9.027
 1298POPC   GL220498   1.888   6.332   8.896
 1298POPC   C1A20499   2.338   6.700   8.685
 1298POPC   D2A20500   2.511   6.574   8.297
 1298POPC   C3A20501   2.252   6.579   7.925
 1298POPC   C4A20502   2.278   6.841   7.569
 1298POPC   C1B20503   1.952   6.325   8.435
 1298POPC   C2B20504   1.678   6.122   8.117
 1298POPC   C3B20505   1.636   6.076   7.674
 1298POPC   C4B20506   1.672   6.224   7.232
 1299POPC   NC320507  35.580  20.277   9.531
 1299POPC   PO420508  35.178  20.706   9.585
 1299POPC   GL120509  35.511  20.697   9.244
 1299POPC   GL220510  35.427  20.413   9.040
 1299POPC   C1A20511  35.787  20.729   8.854
 1299POPC   D2A20512  35.574  20.745   8.444
 1299POPC   C3A20513  35.654  20.783   7.991
 1299POPC   C4A20514  35.352  20.701   7.628
 1299POPC   C1B20515  35.661  20.261   8.679
 1299POPC   C2B20516  35.792  20.329   8.247
 1299POPC   C3B20517  35.611  20.283   7.837
 1299POPC   C4B20518  35.813  20.110   7.479
 1300POPC   NC320519  12.418   2.165   9.378
 1300POPC   PO420520  11.965   1.663   9.567
 1300POPC   GL120521  12.068   1.812   9.184
 1300POPC   GL220522  12.354   1.626   9.099
 1300POPC   C1A20523  11.964   2.026   8.800
 1300POPC   D2A20524  11.981   1.848   8.416
 1300POPC   C3A20525  11.823   2.067   8.068
 1300POPC   C4A20526  11.911   1.920   7.687
 1300POPC   C1B20527  12.460   1.838   8.721
 1300POPC   C2B20528  12.389   2.166   8.421
 1300POPC   C3B20529  12.332   2.088   8.005
 1300POPC   C4B20530  12.395   1.885   7.611
 1301POPC   NC320531   3.348  30.871   9.393
 1301POPC   PO420532   3.804  30.434   9.453
 1301POPC   GL120533   3.703  30.532   9.079
 1301POPC   GL220534   3.774  30.858   9.019
 1301POPC   C1A20535   3.344  30.530   8.824
 1301POPC   D2A20536   3.187  30.639   8.442
 1301POPC   C3A20537   3.436  30.494   8.105
 1301POPC   C4A20538   3.360  30.321   7.691
 1301POPC   C1B20539   3.508  31.019   8.668
 1301POPC   C2B20540   3.298  31.111   8.254
 1301POPC   C3B20541   3.447  30.935   7.845
 1301POPC   C4B20542   3.633  30.893   7.445
 1302POPC   NC320543  18.424  43.194   9.536
 1302POPC   PO420544  18.369  43.848   9.677
 1302POPC   GL120545  18.359  43.769   9.194
 1302POPC   GL220546  18.042  43.645   9.091
 1302POPC   C1A20547  18.321  43.909   8.710
 1302POPC   D2A20548  18.499  44.049   8.296
 1302POPC   C3A20549  18.392  43.832   7.905
 1302POPC   C4A20550  18.534  43.570   7.551
 1302POPC   C1B20551  18.116  43.447   8.669
 1302POPC   C2B20552  18.147  43.623   8.304
 1302POPC   C3B20553  17.922  43.914   8.077
 1302POPC   C4B20554  17.945  43.824   7.656
 1303POPC   NC320555  23.028  29.340   9.707
 1303POPC   PO420556  22.737  28.682   9.590
 1303POPC   GL120557  22.938  28.925   9.199
 1303POPC   GL220558  23.054  29.280   9.162
 1303POPC   C1A20559  22.782  29.094   8.759
 1303POPC   D2A20560  22.483  28.953   8.426
 1303POPC   C3A20561  22.525  28.846   7.968
 1303POPC   C4A20562  22.568  29.114   7.597
 1303POPC   C1B20563  23.177  29.459   8.785
 1303POPC   C2B20564  23.118  29.255   8.396
 1303POPC   C3B20565  22.839  29.244   8.054
 1303POPC   C4B20566  22.912  29.475   7.698
 1304POPC   NC320567  30.158  35.179   9.477
 1304POPC   PO420568  29.687  35.749   9.578
 1304POPC   GL120569  29.912  35.582   9.220
 1304POPC   GL220570  29.762  35.267   9.161
 1304POPC   C1A20571  29.892  35.555   8.786
 1304POPC   D2A20572  29.693  35.373   8.483
 1304POPC   C3A20573  29.848  35.464   8.086
 1304POPC   C4A20574  29.785  35.438   7.648
 1304POPC   C1B20575  30.042  35.077   8.818
 1304POPC   C2B20576  30.089  35.080   8.349
 1304POPC   C3B20577  30.056  35.059   7.877
 1304POPC   C4B20578  30.056  35.006   7.408
 1305POPC   NC320579  25.714  32.146   9.382
 1305POPC   PO420580  26.360  31.945   9.488
 1305POPC   GL120581  26.372  32.118   9.126
 1305POPC   GL220582  26.182  32.405   9.188
 1305POPC   C1A20583  26.283  31.948   8.709
 1305POPC   D2A20584  26.366  31.756   8.302
 1305POPC   C3A20585  26.263  31.955   7.905
 1305POPC   C4A20586  26.276  31.912   7.415
 1305POPC   C1B20587  26.047  32.400   8.769
 1305POPC   C2B20588  25.916  32.208   8.416
 1305POPC   C3B20589  25.844  32.397   8.050
 1305POPC   C4B20590  26.064  32.376   7.670
 1306POPC   NC320591  34.116  30.823   9.408
 1306POPC   PO420592  33.617  30.482   9.660
 1306POPC   GL120593  33.775  30.511   9.188
 1306POPC   GL220594  33.883  30.816   8.950
 1306POPC   C1A20595  33.928  30.367   8.777
 1306POPC   D2A20596  33.957  30.655   8.460
 1306POPC   C3A20597  33.726  30.520   8.134
 1306POPC   C4A20598  33.756  30.541   7.710
 1306POPC   C1B20599  33.651  31.028   8.661
 1306POPC   C2B20600  33.491  30.938   8.291
 1306POPC   C3B20601  33.694  31.038   7.911
 1306POPC   C4B20602  33.776  31.011   7.478
 1307POPC   NC320603   6.185  15.180   9.516
 1307POPC   PO420604   5.527  15.303   9.540
 1307POPC   GL120605   5.771  15.048   9.234
 1307POPC   GL220606   5.998  15.282   9.046
 1307POPC   C1A20607   5.656  14.987   8.816
 1307POPC   D2A20608   5.907  14.970   8.459
 1307POPC   C3A20609   5.885  15.228   8.126
 1307POPC   C4A20610   6.019  15.131   7.701
 1307POPC   C1B20611   5.953  15.470   8.623
 1307POPC   C2B20612   6.107  15.691   8.234
 1307POPC   C3B20613   5.901  15.642   7.823
 1307POPC   C4B20614   6.082  15.547   7.398
 1308POPC   NC320615  41.326  43.285   9.512
 1308POPC   PO420616  41.527  42.636   9.778
 1308POPC   GL120617  41.663  42.922   9.347
 1308POPC   GL220618  41.428  43.021   9.087
 1308POPC   C1A20619  41.860  43.005   8.874
 1308POPC   D2A20620  41.635  43.171   8.455
 1308POPC   C3A20621  41.697  43.020   8.015
 1308POPC   C4A20622  41.861  42.710   7.661
 1308POPC   C1B20623  41.182  43.035   8.695
 1308POPC   C2B20624  40.956  43.056   8.311
 1308POPC   C3B20625  41.167  43.088   7.923
 1308POPC   C4B20626  41.423  43.440   7.842
 1309POPC   NC320627  30.125  30.418   9.435
 1309POPC   PO420628  29.511  30.701   9.430
 1309POPC   GL120629  29.835  30.720   9.084
 1309POPC   GL220630  30.190  30.822   9.122
 1309POPC   C1A20631  29.822  30.520   8.643
 1309POPC   D2A20632  29.535  30.526   8.277
 1309POPC   C3A20633  29.674  30.517   7.855
 1309POPC   C4A20634  29.818  30.648   7.444
 1309POPC   C1B20635  30.003  31.014   8.709
 1309POPC   C2B20636  29.913  30.875   8.269
 1309POPC   C3B20637  30.103  30.798   7.842
 1309POPC   C4B20638  30.201  31.008   7.430
 1310POPC   NC320639   4.755  33.324   9.375
 1310POPC   PO420640   5.200  32.840   9.573
 1310POPC   GL120641   5.148  33.052   9.161
 1310POPC   GL220642   5.405  33.284   9.084
 1310POPC   C1A20643   5.046  33.215   8.733
 1310POPC   D2A20644   5.243  33.123   8.326
 1310POPC   C3A20645   5.123  32.809   8.009
 1310POPC   C4A20646   4.878  33.070   7.744
 1310POPC   C1B20647   5.561  33.094   8.750
 1310POPC   C2B20648   5.726  33.266   8.413
 1310POPC   C3B20649   5.598  33.385   8.080
 1310POPC   C4B20650   5.366  33.200   7.812
 1311POPC   NC320651   9.381  43.704   9.443
 1311POPC   PO420652  10.022  43.599   9.417
 1311POPC   GL120653   9.812  43.780   9.048
 1311POPC   GL220654   9.550  44.030   9.107
 1311POPC   C1A20655   9.897  44.098   8.700
 1311POPC   D2A20656  10.053  44.175   8.273
 1311POPC   C3A20657   9.982  43.803   8.011
 1311POPC   C4A20658   9.774  43.798   7.624
 1311POPC   C1B20659   9.404  43.940   8.714
 1311POPC   C2B20660   9.569  43.872   8.324
 1311POPC   C3B20661   9.352  43.794   7.976
 1311POPC   C4B20662   9.262  43.903   7.604
 1312POPC   NC320663  14.257  17.773   9.485
 1312POPC   PO420664  14.525  17.203   9.329
 1312POPC   GL120665  14.231  17.402   9.019
 1312POPC   GL220666  14.066  17.739   9.016
 1312POPC   C1A20667  14.220  17.524   8.544
 1312POPC   D2A20668  14.498  17.560   8.216
 1312POPC   C3A20669  14.310  17.484   7.821
 1312POPC   C4A20670  14.554  17.373   7.481
 1312POPC   C1B20671  14.472  17.882   8.785
 1312POPC   C2B20672  14.525  18.073   8.371
 1312POPC   C3B20673  14.576  17.987   7.933
 1312POPC   C4B20674  14.437  17.896   7.508
 1313POPC   NC320675   0.257  35.904   9.451
 1313POPC   PO420676  44.619  36.248   9.400
 1313POPC   GL120677  44.658  36.133   8.993
 1313POPC   GL220678  44.955  36.310   8.955
 1313POPC   C1A20679  44.606  36.264   8.555
 1313POPC   D2A20680  44.329  36.234   8.191
 1313POPC   C3A20681  44.546  35.942   7.921
 1313POPC   C4A20682  44.608  35.907   7.442
 1313POPC   C1B20683   0.050  35.924   8.708
 1313POPC   C2B20684   0.069  35.771   8.276
 1313POPC   C3B20685   0.042  35.905   7.848
 1313POPC   C4B20686  44.960  36.282   7.551
 1314POPC   NC320687  26.391  11.588   9.511
 1314POPC   PO420688  26.921  12.026   9.488
 1314POPC   GL120689  26.747  11.963   9.097
 1314POPC   GL220690  26.675  12.244   8.890
 1314POPC   C1A20691  26.834  11.774   8.710
 1314POPC   D2A20692  26.728  11.988   8.357
 1314POPC   C3A20693  26.847  11.827   7.982
 1314POPC   C4A20694  26.773  12.166   7.751
 1314POPC   C1B20695  27.056  12.256   8.636
 1314POPC   C2B20696  27.111  12.288   8.155
 1314POPC   C3B20697  27.228  12.355   7.714
 1314POPC   C4B20698  27.106  12.627   7.370
 1315POPC   NC320699   3.267  22.693   9.750
 1315POPC   PO420700   3.890  22.857   9.554
 1315POPC   GL120701   3.723  22.846   9.097
 1315POPC   GL220702   3.349  22.767   9.122
 1315POPC   C1A20703   3.693  23.057   8.688
 1315POPC   D2A20704   3.411  22.955   8.333
 1315POPC   C3A20705   3.398  23.215   7.970
 1315POPC   C4A20706   3.648  23.129   7.645
 1315POPC   C1B20707   3.468  22.587   8.706
 1315POPC   C2B20708   3.486  22.430   8.268
 1315POPC   C3B20709   3.618  22.644   7.870
 1315POPC   C4B20710   3.463  22.732   7.414
 1316POPC   NC320711  24.964  29.865   9.478
 1316POPC   PO420712  25.523  30.045   9.586
 1316POPC   GL120713  25.438  30.193   9.179
 1316POPC   GL220714  25.069  30.293   9.197
 1316POPC   C1A20715  25.636  30.104   8.753
 1316POPC   D2A20716  25.754  29.825   8.358
 1316POPC   C3A20717  25.595  29.793   7.917
 1316POPC   C4A20718  25.452  29.570   7.492
 1316POPC   C1B20719  25.096  30.042   8.801
 1316POPC   C2B20720  25.297  30.164   8.383
 1316POPC   C3B20721  25.381  30.286   7.963
 1316POPC   C4B20722  25.197  29.987   7.685
 1317POPC   NC320723   8.273   2.251   9.392
 1317POPC   PO420724   8.553   1.551   9.459
 1317POPC   GL120725   8.369   1.735   9.130
 1317POPC   GL220726   8.589   1.992   9.056
 1317POPC   C1A20727   8.230   1.859   8.711
 1317POPC   D2A20728   8.149   1.617   8.355
 1317POPC   C3A20729   8.085   1.830   7.986
 1317POPC   C4A20730   8.089   2.186   7.722
 1317POPC   C1B20731   8.642   2.162   8.611
 1317POPC   C2B20732   8.415   2.196   8.178
 1317POPC   C3B20733   8.528   1.938   7.786
 1317POPC   C4B20734   8.549   1.744   7.378
 1318POPC   NC320735  34.985  38.279   9.508
 1318POPC   PO420736  35.529  38.619   9.325
 1318POPC   GL120737  35.288  38.421   9.065
 1318POPC   GL220738  35.013  38.647   9.063
 1318POPC   C1A20739  35.513  38.386   8.698
 1318POPC   D2A20740  35.544  38.595   8.338
 1318POPC   C3A20741  35.620  38.315   8.016
 1318POPC   C4A20742  35.566  38.224   7.632
 1318POPC   C1B20743  35.046  38.557   8.603
 1318POPC   C2B20744  35.181  38.233   8.288
 1318POPC   C3B20745  35.131  38.089   7.810
 1318POPC   C4B20746  35.181  38.236   7.314
 1319POPC   NC320747  15.668  11.624   9.297
 1319POPC   PO420748  16.251  11.611   9.714
 1319POPC   GL120749  16.039  11.268   9.387
 1319POPC   GL220750  16.215  10.947   9.320
 1319POPC   C1A20751  15.927  11.197   8.886
 1319POPC   D2A20752  15.930  11.352   8.430
 1319POPC   C3A20753  15.840  11.313   7.986
 1319POPC   C4A20754  15.681  11.656   7.751
 1319POPC   C1B20755  16.340  10.915   8.873
 1319POPC   C2B20756  16.159  10.905   8.435
 1319POPC   C3B20757  16.256  11.021   7.990
 1319POPC   C4B20758  16.098  10.906   7.609
 1320POPC   NC320759  15.612  32.191   9.487
 1320POPC   PO420760  16.300  32.261   9.597
 1320POPC   GL120761  16.048  32.131   9.215
 1320POPC   GL220762  15.860  32.464   9.151
 1320POPC   C1A20763  16.058  32.212   8.761
 1320POPC   D2A20764  15.989  32.411   8.384
 1320POPC   C3A20765  16.024  32.130   8.042
 1320POPC   C4A20766  16.262  32.046   7.633
 1320POPC   C1B20767  15.615  32.481   8.767
 1320POPC   C2B20768  15.448  32.578   8.390
 1320POPC   C3B20769  15.651  32.526   8.018
 1320POPC   C4B20770  16.002  32.497   7.715
 1321POPC   NC320771  22.630  13.822   9.828
 1321POPC   PO420772  22.059  13.626   9.476
 1321POPC   GL120773  22.204  13.573   9.068
 1321POPC   GL220774  22.558  13.559   9.111
 1321POPC   C1A20775  22.291  13.856   8.704
 1321POPC   D2A20776  22.486  14.174   8.445
 1321POPC   C3A20777  22.506  14.011   8.030
 1321POPC   C4A20778  22.481  13.816   7.659
 1321POPC   C1B20779  22.530  13.390   8.674
 1321POPC   C2B20780  22.398  13.526   8.273
 1321POPC   C3B20781  22.332  13.376   7.872
 1321POPC   C4B20782  21.965  13.546   7.690
 1322POPC   NC320783  44.921  25.775   9.254
 1322POPC   PO420784  44.476  25.188   9.426
 1322POPC   GL120785  44.642  25.371   9.100
 1322POPC   GL220786   0.007  25.288   9.162
 1322POPC   C1A20787  44.586  25.486   8.686
 1322POPC   D2A20788  44.650  25.198   8.328
 1322POPC   C3A20789  44.352  25.167   8.011
 1322POPC   C4A20790  44.509  25.168   7.609
 1322POPC   C1B20791  44.955  25.129   8.738
 1322POPC   C2B20792   0.176  25.228   8.337
 1322POPC   C3B20793   0.047  25.172   7.913
 1322POPC   C4B20794  44.985  25.016   7.480
 1323POPC   NC320795  18.908  12.779  10.293
 1323POPC   PO420796  18.973  12.815   9.754
 1323POPC   GL120797  19.074  12.937   9.233
 1323POPC   GL220798  18.788  13.115   9.062
 1323POPC   C1A20799  19.099  12.887   8.721
 1323POPC   D2A20800  19.071  12.589   8.328
 1323POPC   C3A20801  19.287  12.664   7.911
 1323POPC   C4A20802  19.189  12.968   7.551
 1323POPC   C1B20803  18.595  13.021   8.646
 1323POPC   C2B20804  18.797  13.019   8.247
 1323POPC   C3B20805  18.801  12.806   7.848
 1323POPC   C4B20806  18.556  12.713   7.469
 1324POPC   NC320807  44.051  40.745   9.551
 1324POPC   PO420808  43.421  40.524   9.429
 1324POPC   GL120809  43.785  40.526   9.117
 1324POPC   GL220810  44.179  40.570   9.109
 1324POPC   C1A20811  43.906  40.597   8.682
 1324POPC   D2A20812  43.819  40.947   8.416
 1324POPC   C3A20813  43.647  40.848   7.990
 1324POPC   C4A20814  43.518  40.568   7.643
 1324POPC   C1B20815  44.195  40.993   8.873
 1324POPC   C2B20816  44.295  41.140   8.437
 1324POPC   C3B20817  44.137  41.003   8.028
 1324POPC   C4B20818  44.233  41.192   7.648
 1325POPC   NC320819   9.303  24.770   9.535
 1325POPC   PO420820   8.847  24.364   9.412
 1325POPC   GL120821   8.768  24.606   9.077
 1325POPC   GL220822   9.081  24.815   9.080
 1325POPC   C1A20823   8.912  24.437   8.697
 1325POPC   D2A20824   9.095  24.180   8.381
 1325POPC   C3A20825   8.922  24.311   8.009
 1325POPC   C4A20826   8.756  24.159   7.634
 1325POPC   C1B20827   8.922  24.953   8.687
 1325POPC   C2B20828   8.847  24.794   8.267
 1325POPC   C3B20829   9.068  24.775   7.857
 1325POPC   C4B20830   9.033  24.808   7.381
 1326POPC   NC320831  13.090  44.623   9.606
 1326POPC   PO420832  12.882   0.148   9.239
 1326POPC   GL120833  13.112  44.784   9.111
 1326POPC   GL220834  12.845  44.563   9.168
 1326POPC   C1A20835  13.201  44.673   8.685
 1326POPC   D2A20836  12.937  44.884   8.343
 1326POPC   C3A20837  13.070  44.734   7.948
 1326POPC   C4A20838  13.004  44.343   7.706
 1326POPC   C1B20839  12.701  44.689   8.786
 1326POPC   C2B20840  12.528  44.539   8.436
 1326POPC   C3B20841  12.410  44.740   8.094
 1326POPC   C4B20842  12.614  44.778   7.723
 1327POPC   NC320843  27.405  14.224   9.690
 1327POPC   PO420844  27.616  13.577   9.654
 1327POPC   GL120845  27.743  13.458   9.232
 1327POPC   GL220846  28.090  13.315   9.244
 1327POPC   C1A20847  27.610  13.570   8.800
 1327POPC   D2A20848  27.340  13.492   8.429
 1327POPC   C3A20849  27.478  13.650   8.029
 1327POPC   C4A20850  27.412  13.433   7.659
 1327POPC   C1B20851  28.029  13.261   8.805
 1327POPC   C2B20852  27.885  13.427   8.398
 1327POPC   C3B20853  27.819  13.254   7.994
 1327POPC   C4B20854  27.938  13.554   7.774
 1328POPC   NC320855   9.844  24.258   9.887
 1328POPC   PO420856   9.572  23.673   9.517
 1328POPC   GL120857   9.635  23.697   9.095
 1328POPC   GL220858   9.956  23.795   9.067
 1328POPC   C1A20859   9.535  23.805   8.687
 1328POPC   D2A20860   9.648  23.496   8.409
 1328POPC   C3A20861   9.521  23.608   8.024
 1328POPC   C4A20862   9.288  23.955   7.861
 1328POPC   C1B20863  10.086  23.670   8.679
 1328POPC   C2B20864   9.988  23.922   8.333
 1328POPC   C3B20865   9.806  24.029   7.957
 1328POPC   C4B20866  10.004  23.678   7.764
 1329POPC   NC320867  17.035   9.962   9.230
 1329POPC   PO420868  16.464  10.173   9.569
 1329POPC   GL120869  16.521  10.067   9.133
 1329POPC   GL220870  16.580   9.683   9.121
 1329POPC   C1A20871  16.477   9.954   8.698
 1329POPC   D2A20872  16.857   9.725   8.520
 1329POPC   C3A20873  16.844   9.640   8.060
 1329POPC   C4A20874  16.688   9.957   7.796
 1329POPC   C1B20875  16.453   9.436   8.731
 1329POPC   C2B20876  16.405   9.575   8.303
 1329POPC   C3B20877  16.374   9.564   7.843
 1329POPC   C4B20878  16.531   9.317   7.517
 1330POPC   NC320879   2.567  11.931   9.534
 1330POPC   PO420880   3.129  12.313   9.553
 1330POPC   GL120881   2.898  12.169   9.155
 1330POPC   GL220882   2.557  12.230   9.119
 1330POPC   C1A20883   2.852  12.186   8.681
 1330POPC   D2A20884   2.577  12.295   8.329
 1330POPC   C3A20885   2.701  12.244   7.897
 1330POPC   C4A20886   3.106  12.398   7.710
 1330POPC   C1B20887   2.489  11.848   8.834
 1330POPC   C2B20888   2.525  11.794   8.379
 1330POPC   C3B20889   2.459  11.727   7.945
 1330POPC   C4B20890   2.442  11.779   7.484
 1331POPC   NC320891  37.231  30.371   9.464
 1331POPC   PO420892  37.664  30.960   9.484
 1331POPC   GL120893  37.790  30.659   9.134
 1331POPC   GL220894  37.471  30.517   8.964
 1331POPC   C1A20895  37.918  30.596   8.678
 1331POPC   D2A20896  37.708  30.740   8.290
 1331POPC   C3A20897  37.769  30.466   7.958
 1331POPC   C4A20898  38.154  30.552   7.814
 1331POPC   C1B20899  37.549  30.941   8.772
 1331POPC   C2B20900  37.417  31.152   8.416
 1331POPC   C3B20901  37.246  31.194   8.039
 1331POPC   C4B20902  37.407  30.969   7.728
 1332POPC   NC320903  14.224  25.594   9.231
 1332POPC   PO420904  14.135  25.000   9.511
 1332POPC   GL120905  14.377  25.121   9.159
 1332POPC   GL220906  14.704  25.259   9.256
 1332POPC   C1A20907  14.431  25.272   8.716
 1332POPC   D2A20908  14.464  25.136   8.281
 1332POPC   C3A20909  14.277  25.346   7.933
 1332POPC   C4A20910  13.909  25.165   7.733
 1332POPC   C1B20911  14.802  24.961   8.942
 1332POPC   C2B20912  14.787  24.825   8.525
 1332POPC   C3B20913  14.855  24.799   8.088
 1332POPC   C4B20914  14.680  25.072   7.809
 1333POPC   NC320915  15.384  44.007   9.547
 1333POPC   PO420916  15.445  43.325   9.591
 1333POPC   GL120917  15.387  43.609   9.206
 1333POPC   GL220918  15.610  43.898   9.122
 1333POPC   C1A20919  15.146  43.768   8.852
 1333POPC   D2A20920  14.919  43.616   8.521
 1333POPC   C3A20921  15.009  43.791   8.121
 1333POPC   C4A20922  14.946  43.834   7.713
 1333POPC   C1B20923  15.657  43.740   8.745
 1333POPC   C2B20924  15.406  43.837   8.421
 1333POPC   C3B20925  15.503  43.876   8.015
 1333POPC   C4B20926  15.469  43.812   7.609
 1334POPC   NC320927  30.482  26.401   9.492
 1334POPC   PO420928  31.104  26.030   9.403
 1334POPC   GL120929  30.738  26.016   9.090
 1334POPC   GL220930  30.416  26.204   9.039
 1334POPC   C1A20931  30.538  25.822   8.739
 1334POPC   D2A20932  30.714  25.903   8.355
 1334POPC   C3A20933  30.747  26.154   8.011
 1334POPC   C4A20934  30.820  25.907   7.632
 1334POPC   C1B20935  30.594  26.326   8.652
 1334POPC   C2B20936  30.397  26.450   8.294
 1334POPC   C3B20937  30.276  26.321   7.901
 1334POPC   C4B20938  30.573  26.539   7.668
 1335POPC   NC320939  17.008  31.188   9.289
 1335POPC   PO420940  16.591  31.624   9.470
 1335POPC   GL120941  16.821  31.759   9.106
 1335POPC   GL220942  16.640  31.519   8.968
 1335POPC   C1A20943  16.928  31.789   8.651
 1335POPC   D2A20944  16.533  31.617   8.482
 1335POPC   C3A20945  16.628  31.331   8.212
 1335POPC   C4A20946  17.017  31.482   8.072
 1335POPC   C1B20947  16.200  31.721   8.858
 1335POPC   C2B20948  16.051  31.792   8.420
 1335POPC   C3B20949  16.318  31.711   8.018
 1335POPC   C4B20950  16.643  31.487   7.727
 1336POPC   NC320951  36.280  14.920   9.544
 1336POPC   PO420952  35.808  15.302   9.756
 1336POPC   GL120953  36.029  15.306   9.218
 1336POPC   GL220954  36.279  15.021   9.064
 1336POPC   C1A20955  35.983  15.262   8.733
 1336POPC   D2A20956  35.812  15.078   8.329
 1336POPC   C3A20957  35.726  15.342   7.969
 1336POPC   C4A20958  36.029  15.227   7.638
 1336POPC   C1B20959  36.519  15.167   8.724
 1336POPC   C2B20960  36.406  15.528   8.536
 1336POPC   C3B20961  36.204  15.432   8.172
 1336POPC   C4B20962  36.438  15.170   7.955
 1337POPC   NC320963   2.671  26.933   9.420
 1337POPC   PO420964   2.263  26.606   9.744
 1337POPC   GL120965   2.658  26.438   9.340
 1337POPC   GL220966   3.016  26.601   9.213
 1337POPC   C1A20967   2.735  26.439   8.831
 1337POPC   D2A20968   2.739  26.759   8.459
 1337POPC   C3A20969   2.848  26.775   8.014
 1337POPC   C4A20970   2.540  26.668   7.678
 1337POPC   C1B20971   3.081  26.842   8.814
 1337POPC   C2B20972   3.199  27.040   8.387
 1337POPC   C3B20973   3.169  27.194   7.916
 1337POPC   C4B20974   3.071  27.207   7.418
 1338POPC   NC320975   4.831  11.046   9.455
 1338POPC   PO420976   4.947  10.460   9.803
 1338POPC   GL120977   5.119  10.447   9.351
 1338POPC   GL220978   5.042  10.738   9.113
 1338POPC   C1A20979   5.081  10.276   8.909
 1338POPC   D2A20980   5.001  10.616   8.579
 1338POPC   C3A20981   4.947  10.529   8.125
 1338POPC   C4A20982   4.892  10.733   7.699
 1338POPC   C1B20983   5.301  10.975   8.808
 1338POPC   C2B20984   5.427  10.871   8.396
 1338POPC   C3B20985   5.286  10.887   7.987
 1338POPC   C4B20986   5.410  10.776   7.546
 1339POPC   NC320987  25.906   6.359   9.276
 1339POPC   PO420988  25.927   6.977   9.445
 1339POPC   GL120989  26.005   6.848   9.065
 1339POPC   GL220990  26.332   6.762   9.124
 1339POPC   C1A20991  26.041   6.644   8.684
 1339POPC   D2A20992  25.818   6.853   8.376
 1339POPC   C3A20993  25.967   6.751   8.018
 1339POPC   C4A20994  26.030   6.466   7.692
 1339POPC   C1B20995  26.427   6.977   8.715
 1339POPC   C2B20996  26.422   6.853   8.260
 1339POPC   C3B20997  26.386   6.877   7.786
 1339POPC   C4B20998  26.587   7.065   7.433
 1340POPC   NC320999  24.503   9.437   9.584
 1340POPC   PO421000  24.174   8.871   9.463
 1340POPC   GL121001  24.453   9.045   9.171
 1340POPC   GL221002  24.651   8.760   9.137
 1340POPC   C1A21003  24.403   8.944   8.714
 1340POPC   D2A21004  24.216   9.091   8.342
 1340POPC   C3A21005  24.215   8.862   7.983
 1340POPC   C4A21006  24.173   8.676   7.605
 1340POPC   C1B21007  24.876   8.764   8.745
 1340POPC   C2B21008  24.752   8.968   8.334
 1340POPC   C3B21009  24.720   8.799   7.941
 1340POPC   C4B21010  24.636   8.896   7.521
 1341POPC   NC321011  33.297  43.444   9.584
 1341POPC   PO421012  32.911  42.894   9.528
 1341POPC   GL121013  32.949  43.209   9.225
 1341POPC   GL221014  33.287  43.239   9.107
 1341POPC   C1A21015  32.884  43.238   8.769
 1341POPC   D2A21016  32.717  42.990   8.403
 1341POPC   C3A21017  32.788  43.244   8.108
 1341POPC   C4A21018  32.876  43.140   7.750
 1341POPC   C1B21019  33.310  43.557   8.758
 1341POPC   C2B21020  33.164  43.679   8.356
 1341POPC   C3B21021  33.183  43.526   7.935
 1341POPC   C4B21022  33.284  43.348   7.547
 1342POPC   NC321023   1.821  19.724   9.484
 1342POPC   PO421024   1.801  20.453   9.525
 1342POPC   GL121025   1.743  20.160   9.206
 1342POPC   GL221026   2.068  20.189   9.116
 1342POPC   C1A21027   1.768  19.874   8.835
 1342POPC   D2A21028   1.791  19.917   8.392
 1342POPC   C3A21029   1.988  19.712   7.989
 1342POPC   C4A21030   2.316  19.724   7.631
 1342POPC   C1B21031   2.251  20.055   8.737
 1342POPC   C2B21032   2.332  19.877   8.353
 1342POPC   C3B21033   2.346  20.093   7.984
 1342POPC   C4B21034   2.425  20.232   7.596
 1343POPC   NC321035  13.694  26.835   9.688
 1343POPC   PO421036  13.210  26.386   9.666
 1343POPC   GL121037  13.476  26.398   9.260
 1343POPC   GL221038  13.731  26.694   9.194
 1343POPC   C1A21039  13.445  26.487   8.814
 1343POPC   D2A21040  13.537  26.816   8.533
 1343POPC   C3A21041  13.492  26.664   8.109
 1343POPC   C4A21042  13.199  26.792   7.823
 1343POPC   C1B21043  13.936  26.959   8.868
 1343POPC   C2B21044  13.876  27.180   8.465
 1343POPC   C3B21045  13.862  27.027   8.052
 1343POPC   C4B21046  13.682  26.895   7.674
 1344POPC   NC321047   9.381  17.243   9.517
 1344POPC   PO421048  10.046  17.452   9.495
 1344POPC   GL121049   9.740  17.469   9.216
 1344POPC   GL221050   9.876  17.767   9.056
 1344POPC   C1A21051   9.564  17.372   8.835
 1344POPC   D2A21052   9.620  17.685   8.470
 1344POPC   C3A21053   9.627  17.533   8.026
 1344POPC   C4A21054   9.413  17.586   7.617
 1344POPC   C1B21055  10.043  17.473   8.745
 1344POPC   C2B21056  10.140  17.532   8.347
 1344POPC   C3B21057  10.121  17.304   8.012
 1344POPC   C4B21058  10.189  17.387   7.593
 1345POPC   NC321059  14.562  10.538   9.441
 1345POPC   PO421060  13.969  10.349   9.562
 1345POPC   GL121061  14.119  10.471   9.133
 1345POPC   GL221062  14.214  10.805   9.158
 1345POPC   C1A21063  14.322  10.582   8.706
 1345POPC   D2A21064  14.616  10.426   8.390
 1345POPC   C3A21065  14.570  10.433   7.944
 1345POPC   C4A21066  14.220  10.432   7.662
 1345POPC   C1B21067  13.913  10.871   8.786
 1345POPC   C2B21068  13.971  10.756   8.323
 1345POPC   C3B21069  14.051  10.907   7.882
 1345POPC   C4B21070  14.080  10.851   7.426
 1346POPC   NC321071  22.732   7.097   9.272
 1346POPC   PO421072  23.251   7.586   9.431
 1346POPC   GL121073  23.047   7.452   9.083
 1346POPC   GL221074  23.179   7.132   9.025
 1346POPC   C1A21075  22.756   7.592   8.757
 1346POPC   D2A21076  22.411   7.581   8.441
 1346POPC   C3A21077  22.582   7.721   8.074
 1346POPC   C4A21078  22.675   7.422   7.784
 1346POPC   C1B21079  23.185   7.327   8.612
 1346POPC   C2B21080  22.972   7.401   8.241
 1346POPC   C3B21081  23.156   7.282   7.867
 1346POPC   C4B21082  23.200   7.041   7.508
 1347POPC   NC321083  41.464  33.768   9.701
 1347POPC   PO421084  40.801  33.759   9.442
 1347POPC   GL121085  40.956  34.006   9.144
 1347POPC   GL221086  41.214  33.753   9.100
 1347POPC   C1A21087  41.028  34.068   8.708
 1347POPC   D2A21088  40.876  34.071   8.311
 1347POPC   C3A21089  40.739  33.710   8.145
 1347POPC   C4A21090  40.730  33.889   7.741
 1347POPC   C1B21091  41.353  33.640   8.726
 1347POPC   C2B21092  41.220  33.593   8.303
 1347POPC   C3B21093  41.258  33.799   7.920
 1347POPC   C4B21094  41.144  33.777   7.480
 1348POPC   NC321095  20.751  23.549   9.512
 1348POPC   PO421096  20.423  24.053   9.801
 1348POPC   GL121097  20.318  23.913   9.332
 1348POPC   GL221098  20.270  23.561   9.207
 1348POPC   C1A21099  20.292  23.968   8.863
 1348POPC   D2A21100  20.279  24.121   8.420
 1348POPC   C3A21101  20.330  23.918   8.011
 1348POPC   C4A21102  20.287  23.674   7.637
 1348POPC   C1B21103  20.522  23.516   8.803
 1348POPC   C2B21104  20.628  23.620   8.337
 1348POPC   C3B21105  20.716  23.496   7.877
 1348POPC   C4B21106  20.711  23.555   7.409
 1349POPC   NC321107   9.500   0.303   9.576
 1349POPC   PO421108  10.137   0.245   9.358
 1349POPC   GL121109   9.802   0.461   9.159
 1349POPC   GL221110   9.539   0.261   9.083
 1349POPC   C1A21111   9.550   0.681   8.833
 1349POPC   D2A21112   9.571   0.503   8.454
 1349POPC   C3A21113   9.773   0.711   8.114
 1349POPC   C4A21114   9.828   0.596   7.701
 1349POPC   C1B21115   9.778   0.089   8.774
 1349POPC   C2B21116   9.654  44.930   8.388
 1349POPC   C3B21117   9.654   0.193   8.036
 1349POPC   C4B21118   9.324   0.331   7.812
 1350POPC   NC321119  40.678  11.522   9.536
 1350POPC   PO421120  40.840  10.886   9.430
 1350POPC   GL121121  40.825  11.247   9.129
 1350POPC   GL221122  40.499  11.421   9.063
 1350POPC   C1A21123  40.903  11.456   8.711
 1350POPC   D2A21124  40.677  11.353   8.315
 1350POPC   C3A21125  40.808  11.411   7.880
 1350POPC   C4A21126  40.925  11.148   7.547
 1350POPC   C1B21127  40.427  11.669   8.675
 1350POPC   C2B21128  40.372  11.745   8.207
 1350POPC   C3B21129  40.351  11.654   7.763
 1350POPC   C4B21130  40.469  11.741   7.317
 1351POPC   NC321131  30.112   7.617   9.644
 1351POPC   PO421132  29.483   7.285   9.606
 1351POPC   GL121133  29.740   7.491   9.293
 1351POPC   GL221134  30.064   7.383   9.162
 1351POPC   C1A21135  29.630   7.551   8.868
 1351POPC   D2A21136  29.557   7.734   8.467
 1351POPC   C3A21137  29.796   7.536   8.128
 1351POPC   C4A21138  29.784   7.584   7.701
 1351POPC   C1B21139  30.105   7.554   8.709
 1351POPC   C2B21140  30.292   7.515   8.307
 1351POPC   C3B21141  30.282   7.438   7.892
 1351POPC   C4B21142  30.212   7.476   7.477
 1352POPC   NC321143  38.655  33.952   9.336
 1352POPC   PO421144  38.254  33.602   9.742
 1352POPC   GL121145  38.266  33.586   9.278
 1352POPC   GL221146  38.507  33.621   9.011
 1352POPC   C1A21147  38.048  33.501   8.853
 1352POPC   D2A21148  37.916  33.600   8.432
 1352POPC   C3A21149  38.279  33.766   8.177
 1352POPC   C4A21150  38.326  33.681   7.744
 1352POPC   C1B21151  38.670  33.814   8.639
 1352POPC   C2B21152  38.809  34.018   8.272
 1352POPC   C3B21153  38.752  34.261   7.906
 1352POPC   C4B21154  38.740  34.111   7.429
 1353POPC   NC321155   2.666  28.880   9.268
 1353POPC   PO421156   2.396  29.378   9.486
 1353POPC   GL121157   2.657  29.408   9.135
 1353POPC   GL221158   2.976  29.324   9.154
 1353POPC   C1A21159   2.662  29.256   8.745
 1353POPC   D2A21160   2.898  29.216   8.438
 1353POPC   C3A21161   2.668  29.186   8.085
 1353POPC   C4A21162   2.756  29.042   7.685
 1353POPC   C1B21163   3.065  29.610   8.813
 1353POPC   C2B21164   3.231  29.597   8.415
 1353POPC   C3B21165   2.994  29.580   8.044
 1353POPC   C4B21166   3.084  29.418   7.679
 1354POPC   NC321167  43.175   0.064   9.474
 1354POPC   PO421168  42.868  44.535   9.379
 1354POPC   GL121169  43.177  44.476   9.076
 1354POPC   GL221170  43.356  44.751   9.116
 1354POPC   C1A21171  43.215  44.369   8.643
 1354POPC   D2A21172  42.895  44.361   8.311
 1354POPC   C3A21173  43.060  44.475   7.918
 1354POPC   C4A21174  43.018  44.519   7.470
 1354POPC   C1B21175  43.116  44.989   8.823
 1354POPC   C2B21176  43.089  44.829   8.420
 1354POPC   C3B21177  42.956  44.959   8.042
 1354POPC   C4B21178  43.249  44.936   7.708
 1355POPC   NC321179  28.822   6.383   9.267
 1355POPC   PO421180  29.408   6.620   9.455
 1355POPC   GL121181  29.279   6.724   9.052
 1355POPC   GL221182  28.962   6.856   9.017
 1355POPC   C1A21183  29.195   6.684   8.592
 1355POPC   D2A21184  28.834   6.552   8.377
 1355POPC   C3A21185  28.929   6.515   7.942
 1355POPC   C4A21186  29.341   6.549   7.821
 1355POPC   C1B21187  28.881   7.078   8.653
 1355POPC   C2B21188  28.957   7.013   8.219
 1355POPC   C3B21189  29.060   6.994   7.817
 1355POPC   C4B21190  28.965   7.091   7.411
 1356POPC   NC321191   3.818   8.748   9.353
 1356POPC   PO421192   3.502   9.299   9.534
 1356POPC   GL121193   3.545   9.119   9.112
 1356POPC   GL221194   3.877   9.004   8.925
 1356POPC   C1A21195   3.269   9.144   8.748
 1356POPC   D2A21196   3.227   9.396   8.386
 1356POPC   C3A21197   3.415   9.216   8.035
 1356POPC   C4A21198   3.831   9.194   7.812
 1356POPC   C1B21199   3.600   8.746   8.706
 1356POPC   C2B21200   3.430   8.746   8.346
 1356POPC   C3B21201   3.653   8.761   8.000
 1356POPC   C4B21202   3.508   8.681   7.599
 1357POPC   NC321203  21.667  11.731   9.436
 1357POPC   PO421204  21.325  11.198   9.577
 1357POPC   GL121205  21.313  11.375   9.206
 1357POPC   GL221206  21.660  11.310   9.126
 1357POPC   C1A21207  21.211  11.571   8.835
 1357POPC   D2A21208  21.364  11.666   8.429
 1357POPC   C3A21209  21.051  11.562   8.159
 1357POPC   C4A21210  21.116  11.566   7.744
 1357POPC   C1B21211  21.620  11.298   8.679
 1357POPC   C2B21212  21.466  11.202   8.249
 1357POPC   C3B21213  21.462  11.191   7.813
 1357POPC   C4B21214  21.529  10.972   7.462
 1358POPC   NC321215  24.044  29.916   9.866
 1358POPC   PO421216  24.665  30.210   9.586
 1358POPC   GL121217  24.575  30.102   9.189
 1358POPC   GL221218  24.316  30.307   9.085
 1358POPC   C1A21219  24.484  29.920   8.771
 1358POPC   D2A21220  24.481  29.777   8.323
 1358POPC   C3A21221  24.328  29.881   7.890
 1358POPC   C4A21222  24.410  29.767   7.438
 1358POPC   C1B21223  24.702  30.378   8.795
 1358POPC   C2B21224  24.771  30.203   8.428
 1358POPC   C3B21225  24.864  30.042   8.072
 1358POPC   C4B21226  24.712  30.149   7.704
 1359POPC   NC321227  38.630  33.298   9.646
 1359POPC   PO421228  38.409  32.660   9.443
 1359POPC   GL121229  38.586  32.807   9.088
 1359POPC   GL221230  38.489  33.130   9.171
 1359POPC   C1A21231  38.497  32.867   8.645
 1359POPC   D2A21232  38.197  33.172   8.467
 1359POPC   C3A21233  38.287  33.257   8.052
 1359POPC   C4A21234  38.478  32.933   7.855
 1359POPC   C1B21235  38.772  33.246   8.842
 1359POPC   C2B21236  38.690  33.342   8.429
 1359POPC   C3B21237  38.753  33.538   8.043
 1359POPC   C4B21238  38.716  33.348   7.649
 1360POPC   NC321239   0.039  17.327   9.655
 1360POPC   PO421240  44.520  17.807   9.549
 1360POPC   GL121241  44.704  17.740   9.153
 1360POPC   GL221242  44.932  17.460   9.115
 1360POPC   C1A21243  44.620  17.627   8.717
 1360POPC   D2A21244  44.423  17.640   8.309
 1360POPC   C3A21245  44.584  17.712   7.888
 1360POPC   C4A21246  44.651  17.526   7.456
 1360POPC   C1B21247   0.083  17.420   8.653
 1360POPC   C2B21248  44.962  17.552   8.225
 1360POPC   C3B21249  44.818  17.255   7.875
 1360POPC   C4B21250   0.014  17.148   7.479
 1361POPC   NC321251   0.337  33.472   9.364
 1361POPC   PO421252   0.470  33.982   9.633
 1361POPC   GL121253   0.530  33.975   9.148
 1361POPC   GL221254   0.374  33.699   8.903
 1361POPC   C1A21255   0.408  34.157   8.724
 1361POPC   D2A21256   0.095  34.030   8.419
 1361POPC   C3A21257   0.250  33.719   8.114
 1361POPC   C4A21258   0.304  33.897   7.702
 1361POPC   C1B21259   0.698  33.384   8.838
 1361POPC   C2B21260   0.936  33.229   8.533
 1361POPC   C3B21261   0.893  33.326   8.114
 1361POPC   C4B21262   0.624  33.524   7.806
 1362POPC   NC321263  13.972  11.950   9.456
 1362POPC   PO421264  14.670  11.927   9.219
 1362POPC   GL121265  14.345  12.142   9.052
 1362POPC   GL221266  14.533  12.416   8.852
 1362POPC   C1A21267  14.122  12.098   8.677
 1362POPC   D2A21268  14.315  12.298   8.322
 1362POPC   C3A21269  14.298  12.087   7.959
 1362POPC   C4A21270  14.242  12.136   7.520
 1362POPC   C1B21271  14.662  12.059   8.611
 1362POPC   C2B21272  14.638  11.828   8.268
 1362POPC   C3B21273  14.832  12.047   7.976
 1362POPC   C4B21274  14.711  12.204   7.653
 1363POPC   NC321275  39.629  24.815   9.352
 1363POPC   PO421276  40.318  24.520   9.462
 1363POPC   GL121277  40.009  24.547   9.106
 1363POPC   GL221278  40.188  24.623   8.816
 1363POPC   C1A21279  39.715  24.479   8.724
 1363POPC   D2A21280  39.573  24.250   8.331
 1363POPC   C3A21281  39.845  24.389   8.062
 1363POPC   C4A21282  39.746  24.744   7.830
 1363POPC   C1B21283  40.323  24.268   8.604
 1363POPC   C2B21284  40.056  23.991   8.353
 1363POPC   C3B21285  40.190  24.027   7.923
 1363POPC   C4B21286  40.256  24.451   7.754
 1364POPC   NC321287  41.742  38.789   9.224
 1364POPC   PO421288  41.362  38.438   9.689
 1364POPC   GL121289  41.373  38.420   9.266
 1364POPC   GL221290  41.677  38.260   9.280
 1364POPC   C1A21291  41.349  38.507   8.818
 1364POPC   D2A21292  41.286  38.512   8.400
 1364POPC   C3A21293  41.238  38.177   8.092
 1364POPC   C4A21294  41.410  38.299   7.688
 1364POPC   C1B21295  41.691  38.127   8.874
 1364POPC   C2B21296  41.586  38.077   8.459
 1364POPC   C3B21297  41.718  38.353   8.113
 1364POPC   C4B21298  41.964  38.268   7.765
 1365POPC   NC321299  18.804  40.838   9.462
 1365POPC   PO421300  19.517  40.719   9.469
 1365POPC   GL121301  19.277  40.904   9.165
 1365POPC   GL221302  19.058  40.619   9.094
 1365POPC   C1A21303  19.063  41.041   8.796
 1365POPC   D2A21304  18.920  41.187   8.409
 1365POPC   C3A21305  19.052  40.932   8.086
 1365POPC   C4A21306  18.931  40.838   7.656
 1365POPC   C1B21307  18.923  40.438   8.690
 1365POPC   C2B21308  18.828  40.513   8.275
 1365POPC   C3B21309  19.015  40.420   7.907
 1365POPC   C4B21310  19.216  40.368   7.498
 1366POPC   NC321311  20.773  27.584   9.455
 1366POPC   PO421312  20.216  27.157   9.605
 1366POPC   GL121313  20.368  27.372   9.161
 1366POPC   GL221314  20.400  27.746   9.130
 1366POPC   C1A21315  20.342  27.439   8.692
 1366POPC   D2A21316  20.648  27.588   8.346
 1366POPC   C3A21317  20.710  27.370   7.942
 1366POPC   C4A21318  20.530  27.069   7.665
 1366POPC   C1B21319  20.502  27.938   8.745
 1366POPC   C2B21320  20.360  27.995   8.307
 1366POPC   C3B21321  20.492  27.825   7.885
 1366POPC   C4B21322  20.316  27.834   7.458
 1367POPC   NC321323  37.555  21.226   9.926
 1367POPC   PO421324  37.862  21.710   9.581
 1367POPC   GL121325  37.764  21.551   9.150
 1367POPC   GL221326  37.646  21.184   9.080
 1367POPC   C1A21327  37.495  21.649   8.775
 1367POPC   D2A21328  37.282  21.708   8.386
 1367POPC   C3A21329  37.447  21.395   8.125
 1367POPC   C4A21330  37.588  21.212   7.781
 1367POPC   C1B21331  37.678  21.179   8.609
 1367POPC   C2B21332  37.857  21.534   8.418
 1367POPC   C3B21333  38.009  21.472   8.038
 1367POPC   C4B21334  38.022  21.591   7.646
 1368POPC   NC321335  42.673   4.049   9.501
 1368POPC   PO421336  42.029   4.275   9.450
 1368POPC   GL121337  42.294   4.157   9.154
 1368POPC   GL221338  42.326   4.461   9.004
 1368POPC   C1A21339  42.479   4.004   8.785
 1368POPC   D2A21340  42.303   3.976   8.386
 1368POPC   C3A21341  42.363   4.260   8.059
 1368POPC   C4A21342  42.245   4.234   7.629
 1368POPC   C1B21343  42.109   4.431   8.595
 1368POPC   C2B21344  41.986   4.588   8.182
 1368POPC   C3B21345  42.181   4.700   7.830
 1368POPC   C4B21346  42.206   4.694   7.365
 1369POPC   NC321347  26.111  33.131   9.337
 1369POPC   PO421348  25.717  32.604   9.328
 1369POPC   GL121349  25.874  32.809   9.027
 1369POPC   GL221350  25.636  33.051   9.039
 1369POPC   C1A21351  26.124  32.907   8.681
 1369POPC   D2A21352  26.343  32.774   8.328
 1369POPC   C3A21353  26.156  32.810   7.934
 1369POPC   C4A21354  26.025  33.171   7.734
 1369POPC   C1B21355  25.612  32.885   8.606
 1369POPC   C2B21356  25.701  32.892   8.171
 1369POPC   C3B21357  25.669  32.807   7.709
 1369POPC   C4B21358  25.804  32.617   7.296
 1370POPC   NC321359  21.764  10.970   9.526
 1370POPC   PO421360  21.808  10.356   9.336
 1370POPC   GL121361  21.429  10.470   9.136
 1370POPC   GL221362  21.385  10.843   9.171
 1370POPC   C1A21363  21.219  10.315   8.778
 1370POPC   D2A21364  21.358  10.150   8.391
 1370POPC   C3A21365  21.271  10.321   7.964
 1370POPC   C4A21366  21.159  10.672   7.695
 1370POPC   C1B21367  21.416  10.801   8.716
 1370POPC   C2B21368  21.336  10.699   8.301
 1370POPC   C3B21369  21.611  10.717   7.934
 1370POPC   C4B21370  21.956  10.716   7.624
 1371POPC   NC321371  41.867  20.277   9.435
 1371POPC   PO421372  41.595  19.625   9.443
 1371POPC   GL121373  41.409  19.612   9.040
 1371POPC   GL221374  41.329  19.971   8.973
 1371POPC   C1A21375  41.460  19.679   8.589
 1371POPC   D2A21376  41.491  19.977   8.298
 1371POPC   C3A21377  41.684  19.705   8.036
 1371POPC   C4A21378  41.575  19.629   7.637
 1371POPC   C1B21379  41.784  19.960   8.846
 1371POPC   C2B21380  41.980  19.872   8.449
 1371POPC   C3B21381  41.964  20.124   8.098
 1371POPC   C4B21382  41.888  20.018   7.686
 1372POPC   NC321383  44.131  29.108   9.502
 1372POPC   PO421384  43.579  29.418   9.522
 1372POPC   GL121385  43.837  29.406   9.131
 1372POPC   GL221386  43.766  29.076   9.028
 1372POPC   C1A21387  44.081  29.356   8.718
 1372POPC   D2A21388  44.084  29.284   8.247
 1372POPC   C3A21389  43.766  29.007   8.066
 1372POPC   C4A21390  43.553  29.001   7.660
 1372POPC   C1B21391  43.859  28.889   8.615
 1372POPC   C2B21392  44.176  28.789   8.319
 1372POPC   C3B21393  44.305  28.948   7.905
 1372POPC   C4B21394  44.322  28.860   7.447
 1373POPC   NC321395  16.588  25.537   9.384
 1373POPC   PO421396  17.084  25.464   9.777
 1373POPC   GL121397  17.091  25.451   9.300
 1373POPC   GL221398  17.070  25.139   9.231
 1373POPC   C1A21399  16.880  25.413   8.850
 1373POPC   D2A21400  16.680  25.162   8.528
 1373POPC   C3A21401  16.580  25.378   8.164
 1373POPC   C4A21402  16.466  25.278   7.753
 1373POPC   C1B21403  16.990  24.912   8.858
 1373POPC   C2B21404  17.137  24.871   8.458
 1373POPC   C3B21405  16.963  24.979   8.118
 1373POPC   C4B21406  16.857  24.990   7.712
 1374POPC   NC321407  28.212  16.811   9.550
 1374POPC   PO421408  28.521  16.130   9.578
 1374POPC   GL121409  28.577  16.412   9.211
 1374POPC   GL221410  28.300  16.552   9.137
 1374POPC   C1A21411  28.613  16.624   8.756
 1374POPC   D2A21412  28.409  16.934   8.515
 1374POPC   C3A21413  28.364  16.845   8.100
 1374POPC   C4A21414  28.415  16.537   7.784
 1374POPC   C1B21415  28.065  16.624   8.767
 1374POPC   C2B21416  27.848  16.462   8.407
 1374POPC   C3B21417  27.917  16.623   8.026
 1374POPC   C4B21418  27.915  16.437   7.665
 1375POPC   NC321419  18.526  31.065   9.475
 1375POPC   PO421420  18.279  31.732   9.451
 1375POPC   GL121421  18.258  31.391   9.156
 1375POPC   GL221422  17.977  31.190   9.116
 1375POPC   C1A21423  18.338  31.369   8.724
 1375POPC   D2A21424  18.175  31.597   8.359
 1375POPC   C3A21425  18.407  31.693   8.006
 1375POPC   C4A21426  18.453  31.593   7.584
 1375POPC   C1B21427  17.835  31.393   8.696
 1375POPC   C2B21428  17.769  31.313   8.259
 1375POPC   C3B21429  18.054  31.327   7.862
 1375POPC   C4B21430  18.080  31.347   7.354
 1376POPC   NC321431  39.501  17.505   9.464
 1376POPC   PO421432  39.043  17.927   9.582
 1376POPC   GL121433  39.096  17.712   9.188
 1376POPC   GL221434  38.767  17.777   9.108
 1376POPC   C1A21435  39.290  17.529   8.785
 1376POPC   D2A21436  39.116  17.303   8.408
 1376POPC   C3A21437  39.321  17.363   8.003
 1376POPC   C4A21438  39.486  17.681   7.764
 1376POPC   C1B21439  38.811  17.665   8.685
 1376POPC   C2B21440  38.849  17.727   8.249
 1376POPC   C3B21441  38.951  17.669   7.812
 1376POPC   C4B21442  38.908  17.815   7.373
 1377POPC   NC321443  27.581  21.401   9.490
 1377POPC   PO421444  27.793  21.963   9.569
 1377POPC   GL121445  27.648  21.609   9.056
 1377POPC   GL221446  27.301  21.376   9.050
 1377POPC   C1A21447  27.538  21.462   8.611
 1377POPC   D2A21448  27.749  21.321   8.244
 1377POPC   C3A21449  27.741  21.618   7.910
 1377POPC   C4A21450  27.559  21.595   7.515
 1377POPC   C1B21451  27.338  21.000   8.704
 1377POPC   C2B21452  27.351  20.984   8.239
 1377POPC   C3B21453  27.364  21.255   7.847
 1377POPC   C4B21454  27.406  21.115   7.387
 1378POPC   NC321455  25.328  36.378   9.648
 1378POPC   PO421456  25.705  35.811   9.715
 1378POPC   GL121457  25.424  35.977   9.349
 1378POPC   GL221458  25.629  36.174   9.156
 1378POPC   C1A21459  25.129  36.033   8.966
 1378POPC   D2A21460  25.014  36.221   8.543
 1378POPC   C3A21461  24.968  36.156   8.072
 1378POPC   C4A21462  24.995  36.284   7.650
 1378POPC   C1B21463  25.578  36.042   8.732
 1378POPC   C2B21464  25.500  36.337   8.456
 1378POPC   C3B21465  25.527  36.333   8.052
 1378POPC   C4B21466  25.482  36.494   7.684
 1379POPC   NC321467  10.568  41.368   9.782
 1379POPC   PO421468  10.219  41.904   9.340
 1379POPC   GL121469  10.482  41.633   9.094
 1379POPC   GL221470  10.799  41.609   9.241
 1379POPC   C1A21471  10.589  41.442   8.709
 1379POPC   D2A21472  10.359  41.184   8.443
 1379POPC   C3A21473  10.442  41.266   8.025
 1379POPC   C4A21474  10.529  41.607   7.801
 1379POPC   C1B21475  10.900  41.832   8.816
 1379POPC   C2B21476  10.789  41.761   8.351
 1379POPC   C3B21477  10.893  41.919   7.922
 1379POPC   C4B21478  10.706  41.996   7.482
 1380POPC   NC321479   1.514  42.916   9.460
 1380POPC   PO421480   0.943  43.369   9.374
 1380POPC   GL121481   1.163  43.167   9.034
 1380POPC   GL221482   1.499  43.270   9.072
 1380POPC   C1A21483   1.194  43.337   8.576
 1380POPC   D2A21484   1.090  43.432   8.105
 1380POPC   C3A21485   0.942  43.124   7.828
 1380POPC   C4A21486   0.928  42.953   7.433
 1380POPC   C1B21487   1.722  43.260   8.674
 1380POPC   C2B21488   1.614  43.383   8.265
 1380POPC   C3B21489   1.501  43.163   7.895
 1380POPC   C4B21490   1.360  43.210   7.499
 1381POPC   NC321491   1.629  38.921   9.467
 1381POPC   PO421492   2.182  39.302   9.465
 1381POPC   GL121493   2.154  39.263   9.055
 1381POPC   GL221494   2.163  38.892   9.056
 1381POPC   C1A21495   2.050  39.499   8.663
 1381POPC   D2A21496   1.757  39.629   8.307
 1381POPC   C3A21497   1.978  39.487   7.935
 1381POPC   C4A21498   2.171  39.290   7.537
 1381POPC   C1B21499   1.853  39.003   8.749
 1381POPC   C2B21500   1.896  39.126   8.324
 1381POPC   C3B21501   1.974  38.982   7.928
 1381POPC   C4B21502   1.644  39.138   7.704
 1382POPC   NC321503   9.857  42.039   9.575
 1382POPC   PO421504   9.437  42.525   9.301
 1382POPC   GL121505   9.886  42.449   9.143
 1382POPC   GL221506   9.844  42.115   9.058
 1382POPC   C1A21507   9.994  42.381   8.659
 1382POPC   D2A21508   9.651  42.409   8.321
 1382POPC   C3A21509   9.633  42.456   7.846
 1382POPC   C4A21510   9.432  42.551   7.432
 1382POPC   C1B21511   9.747  41.918   8.638
 1382POPC   C2B21512   9.621  41.911   8.196
 1382POPC   C3B21513   9.611  41.944   7.761
 1382POPC   C4B21514   9.915  42.109   7.540
 1383POPC   NC321515   9.333  29.110   9.629
 1383POPC   PO421516   8.803  29.429   9.385
 1383POPC   GL121517   8.968  29.328   9.003
 1383POPC   GL221518   8.764  29.078   8.975
 1383POPC   C1A21519   9.285  29.374   8.646
 1383POPC   D2A21520   9.303  29.306   8.187
 1383POPC   C3A21521   8.938  29.137   8.013
 1383POPC   C4A21522   8.693  29.323   7.691
 1383POPC   C1B21523   9.198  28.907   8.881
 1383POPC   C2B21524   9.335  28.805   8.444
 1383POPC   C3B21525   9.466  28.833   8.004
 1383POPC   C4B21526   9.253  29.009   7.622
 1384POPC   NC321527  34.502  23.435   9.407
 1384POPC   PO421528  34.848  23.978   9.672
 1384POPC   GL121529  34.778  23.831   9.220
 1384POPC   GL221530  34.958  23.552   9.130
 1384POPC   C1A21531  34.491  23.710   8.832
 1384POPC   D2A21532  34.339  23.474   8.448
 1384POPC   C3A21533  34.436  23.516   8.002
 1384POPC   C4A21534  34.292  23.824   7.712
 1384POPC   C1B21535  34.971  23.677   8.693
 1384POPC   C2B21536  34.696  23.867   8.398
 1384POPC   C3B21537  34.709  23.956   7.997
 1384POPC   C4B21538  34.802  23.709   7.688
 1385POPC   NC321539  19.284  42.156   9.423
 1385POPC   PO421540  19.130  42.732   9.183
 1385POPC   GL121541  19.226  42.389   8.978
 1385POPC   GL221542  18.904  42.284   9.064
 1385POPC   C1A21543  19.211  42.081   8.678
 1385POPC   D2A21544  18.966  42.074   8.330
 1385POPC   C3A21545  19.159  42.022   7.936
 1385POPC   C4A21546  19.313  42.085   7.529
 1385POPC   C1B21547  18.601  42.480   8.779
 1385POPC   C2B21548  18.508  42.618   8.361
 1385POPC   C3B21549  18.808  42.462   8.057
 1385POPC   C4B21550  18.882  42.331   7.631
 1386POPC   NC321551  28.735  36.827   9.541
 1386POPC   PO421552  28.069  36.745   9.403
 1386POPC   GL121553  28.371  36.855   9.074
 1386POPC   GL221554  28.515  37.195   9.180
 1386POPC   C1A21555  28.306  36.732   8.611
 1386POPC   D2A21556  27.985  36.598   8.241
 1386POPC   C3A21557  28.162  36.797   7.897
 1386POPC   C4A21558  28.587  36.703   8.002
 1386POPC   C1B21559  28.423  37.229   8.729
 1386POPC   C2B21560  28.545  37.113   8.299
 1386POPC   C3B21561  28.428  37.228   7.855
 1386POPC   C4B21562  28.395  37.254   7.380
 1387POPC   NC321563  26.475   9.624   9.728
 1387POPC   PO421564  25.932   9.933   9.450
 1387POPC   GL121565  26.006   9.865   9.089
 1387POPC   GL221566  26.363   9.845   9.152
 1387POPC   C1A21567  25.870   9.554   8.823
 1387POPC   D2A21568  25.962   9.483   8.432
 1387POPC   C3A21569  25.779   9.778   8.127
 1387POPC   C4A21570  25.714   9.621   7.729
 1387POPC   C1B21571  26.328   9.784   8.685
 1387POPC   C2B21572  26.263   9.849   8.269
 1387POPC   C3B21573  26.196   9.527   7.968
 1387POPC   C4B21574  26.355   9.528   7.562
 1388POPC   NC321575  44.125   1.244   9.434
 1388POPC   PO421576  43.451   1.481   9.631
 1388POPC   GL121577  43.699   1.515   9.260
 1388POPC   GL221578  43.504   1.311   9.078
 1388POPC   C1A21579  43.920   1.523   8.824
 1388POPC   D2A21580  43.991   1.627   8.356
 1388POPC   C3A21581  44.139   1.318   8.024
 1388POPC   C4A21582  43.827   1.053   7.754
 1388POPC   C1B21583  43.601   1.086   8.712
 1388POPC   C2B21584  43.755   1.147   8.306
 1388POPC   C3B21585  43.633   1.448   7.994
 1388POPC   C4B21586  43.435   1.316   7.569
 1389POPC   NC321587  38.218  35.201   9.642
 1389POPC   PO421588  38.805  35.537   9.541
 1389POPC   GL121589  38.626  35.513   9.186
 1389POPC   GL221590  38.513  35.178   9.203
 1389POPC   C1A21591  38.451  35.477   8.791
 1389POPC   D2A21592  38.514  35.229   8.447
 1389POPC   C3A21593  38.568  35.558   8.132
 1389POPC   C4A21594  38.535  35.752   7.737
 1389POPC   C1B21595  38.155  35.081   8.890
 1389POPC   C2B21596  38.009  35.297   8.495
 1389POPC   C3B21597  38.165  35.191   8.093
 1389POPC   C4B21598  38.348  35.261   7.758
 1390POPC   NC321599  31.081  38.422   9.430
 1390POPC   PO421600  30.519  38.595   9.520
 1390POPC   GL121601  30.697  38.612   9.122
 1390POPC   GL221602  31.022  38.755   9.058
 1390POPC   C1A21603  30.775  38.347   8.758
 1390POPC   D2A21604  30.692  38.008   8.446
 1390POPC   C3A21605  30.560  38.043   8.026
 1390POPC   C4A21606  30.600  38.311   7.647
 1390POPC   C1B21607  31.198  38.646   8.686
 1390POPC   C2B21608  31.141  38.349   8.390
 1390POPC   C3B21609  30.986  38.353   8.006
 1390POPC   C4B21610  31.078  38.553   7.635
 1391POPC   NC321611  36.775  36.728   9.536
 1391POPC   PO421612  37.348  36.927   9.292
 1391POPC   GL121613  36.969  37.065   9.048
 1391POPC   GL221614  36.616  37.074   9.165
 1391POPC   C1A21615  36.850  37.136   8.610
 1391POPC   D2A21616  36.828  37.058   8.186
 1391POPC   C3A21617  37.108  36.725   8.023
 1391POPC   C4A21618  37.168  36.588   7.578
 1391POPC   C1B21619  36.460  36.857   8.764
 1391POPC   C2B21620  36.260  36.860   8.354
 1391POPC   C3B21621  36.380  37.018   7.935
 1391POPC   C4B21622  36.757  36.915   7.690
 1392POPC   NC321623  43.504  31.490   9.617
 1392POPC   PO421624  44.059  31.032   9.742
 1392POPC   GL121625  43.967  31.187   9.295
 1392POPC   GL221626  43.867  31.509   9.275
 1392POPC   C1A21627  44.123  31.400   8.874
 1392POPC   D2A21628  44.001  31.710   8.562
 1392POPC   C3A21629  44.000  31.555   8.131
 1392POPC   C4A21630  44.151  31.646   7.708
 1392POPC   C1B21631  43.625  31.631   8.932
 1392POPC   C2B21632  43.500  31.569   8.517
 1392POPC   C3B21633  43.451  31.654   8.100
 1392POPC   C4B21634  43.644  31.537   7.757
 1393POPC   NC321635  25.055   0.116   9.350
 1393POPC   PO421636  25.451  44.657   9.699
 1393POPC   GL121637  25.307  44.666   9.241
 1393POPC   GL221638  24.961  44.656   9.138
 1393POPC   C1A21639  25.532  44.638   8.833
 1393POPC   D2A21640  25.413  44.485   8.425
 1393POPC   C3A21641  25.283  44.688   8.066
 1393POPC   C4A21642  25.424  44.490   7.712
 1393POPC   C1B21643  25.065  44.773   8.712
 1393POPC   C2B21644  25.377  44.995   8.467
 1393POPC   C3B21645  25.550   0.129   8.089
 1393POPC   C4B21646  25.442   0.005   7.675
 1394POPC   NC321647  31.897  37.855   9.546
 1394POPC   PO421648  32.334  37.287   9.464
 1394POPC   GL121649  32.250  37.652   9.161
 1394POPC   GL221650  31.963  37.812   9.059
 1394POPC   C1A21651  32.397  37.686   8.737
 1394POPC   D2A21652  32.352  37.431   8.357
 1394POPC   C3A21653  32.443  37.689   8.009
 1394POPC   C4A21654  32.344  37.800   7.611
 1394POPC   C1B21655  31.997  38.040   8.719
 1394POPC   C2B21656  32.021  37.831   8.322
 1394POPC   C3B21657  31.969  37.563   7.945
 1394POPC   C4B21658  31.887  37.973   7.770
 1395POPC   NC321659   5.160   0.852   9.691
 1395POPC   PO421660   5.110   1.482   9.582
 1395POPC   GL121661   5.219   1.380   9.169
 1395POPC   GL221662   5.241   1.030   9.227
 1395POPC   C1A21663   5.060   1.415   8.734
 1395POPC   D2A21664   4.996   1.125   8.392
 1395POPC   C3A21665   5.030   1.348   7.978
 1395POPC   C4A21666   5.122   1.423   7.607
 1395POPC   C1B21667   5.272   0.955   8.820
 1395POPC   C2B21668   5.435   0.846   8.431
 1395POPC   C3B21669   5.314   0.951   8.021
 1395POPC   C4B21670   5.422   1.008   7.623
 1396POPC   NC321671  18.695  44.112   9.428
 1396POPC   PO421672  18.812  43.477   9.525
 1396POPC   GL121673  18.885  43.737   9.154
 1396POPC   GL221674  19.224  43.880   9.091
 1396POPC   C1A21675  18.848  43.943   8.739
 1396POPC   D2A21676  19.126  43.866   8.375
 1396POPC   C3A21677  18.887  43.861   8.006
 1396POPC   C4A21678  18.694  44.234   7.784
 1396POPC   C1B21679  19.281  44.221   8.752
 1396POPC   C2B21680  19.433  44.294   8.319
 1396POPC   C3B21681  19.338  44.112   7.919
 1396POPC   C4B21682  19.341  43.705   7.836
 1397POPC   NC321683   0.578  18.721   9.409
 1397POPC   PO421684   0.155  19.320   9.584
 1397POPC   GL121685   0.289  19.087   9.191
 1397POPC   GL221686   0.460  19.278   8.987
 1397POPC   C1A21687   0.392  18.822   8.774
 1397POPC   D2A21688   0.538  18.672   8.326
 1397POPC   C3A21689   0.558  18.945   7.941
 1397POPC   C4A21690   0.566  18.966   7.476
 1397POPC   C1B21691   0.730  19.316   8.645
 1397POPC   C2B21692   0.622  19.477   8.267
 1397POPC   C3B21693   0.363  19.415   7.924
 1397POPC   C4B21694   0.666  19.466   7.586
 1398POPC   NC321695  42.095  27.030   9.429
 1398POPC   PO421696  42.694  26.687   9.395
 1398POPC   GL121697  42.476  26.872   9.066
 1398POPC   GL221698  42.439  26.549   8.896
 1398POPC   C1A21699  42.335  27.035   8.651
 1398POPC   D2A21700  42.106  27.073   8.250
 1398POPC   C3A21701  42.372  27.289   7.975
 1398POPC   C4A21702  42.456  27.206   7.548
 1398POPC   C1B21703  42.281  26.520   8.493
 1398POPC   C2B21704  42.467  26.725   8.178
 1398POPC   C3B21705  42.297  26.788   7.805
 1398POPC   C4B21706  42.174  26.415   7.611
 1399POPC   NC321707  28.637  31.078  10.067
 1399POPC   PO421708  29.029  31.347   9.548
 1399POPC   GL121709  29.173  31.378   9.155
 1399POPC   GL221710  28.917  31.607   9.045
 1399POPC   C1A21711  29.089  31.234   8.735
 1399POPC   D2A21712  28.801  31.129   8.429
 1399POPC   C3A21713  28.969  31.287   8.075
 1399POPC   C4A21714  29.371  31.402   7.920
 1399POPC   C1B21715  29.272  31.716   8.782
 1399POPC   C2B21716  29.230  31.933   8.420
 1399POPC   C3B21717  29.120  31.814   8.038
 1399POPC   C4B21718  29.260  31.812   7.644
 1400POPC   NC321719  34.330  42.230   9.472
 1400POPC   PO421720  34.904  42.605   9.422
 1400POPC   GL121721  34.600  42.550   9.173
 1400POPC   GL221722  34.688  42.194   9.119
 1400POPC   C1A21723  34.517  42.655   8.792
 1400POPC   D2A21724  34.354  42.650   8.407
 1400POPC   C3A21725  34.559  42.588   8.036
 1400POPC   C4A21726  34.348  42.533   7.705
 1400POPC   C1B21727  34.907  42.343   8.777
 1400POPC   C2B21728  34.689  42.233   8.395
 1400POPC   C3B21729  34.535  42.066   8.000
 1400POPC   C4B21730  34.689  42.182   7.600
 1401POPC   NC321731   9.337  40.007   9.419
 1401POPC   PO421732   9.830  39.800   9.769
 1401POPC   GL121733   9.856  40.082   9.284
 1401POPC   GL221734   9.600  40.250   9.097
 1401POPC   C1A21735   9.884  39.974   8.773
 1401POPC   D2A21736   9.943  39.792   8.307
 1401POPC   C3A21737   9.857  40.022   7.894
 1401POPC   C4A21738   9.982  40.084   7.413
 1401POPC   C1B21739   9.371  40.088   8.753
 1401POPC   C2B21740   9.554  40.144   8.364
 1401POPC   C3B21741   9.421  40.385   8.048
 1401POPC   C4B21742   9.272  40.176   7.709
 1402POPC   NC321743  40.172   4.745   9.673
 1402POPC   PO421744  40.113   4.080   9.421
 1402POPC   GL121745  39.944   4.191   9.048
 1402POPC   GL221746  39.653   3.947   9.003
 1402POPC   C1A21747  40.138   4.349   8.639
 1402POPC   D2A21748  40.396   4.470   8.309
 1402POPC   C3A21749  40.136   4.441   7.976
 1402POPC   C4A21750  40.233   4.073   7.799
 1402POPC   C1B21751  39.774   4.003   8.623
 1402POPC   C2B21752  39.759   4.105   8.217
 1402POPC   C3B21753  39.723   4.136   7.822
 1402POPC   C4B21754  39.911   4.377   7.501
 1403POPC   NC321755  24.182  17.327   9.435
 1403POPC   PO421756  23.450  17.549   9.507
 1403POPC   GL121757  23.726  17.380   9.203
 1403POPC   GL221758  24.007  17.642   9.095
 1403POPC   C1A21759  23.831  17.250   8.787
 1403POPC   D2A21760  23.999  17.331   8.385
 1403POPC   C3A21761  23.635  17.379   8.139
 1403POPC   C4A21762  23.643  17.314   7.707
 1403POPC   C1B21763  23.985  17.761   8.690
 1403POPC   C2B21764  23.831  17.841   8.305
 1403POPC   C3B21765  23.766  17.784   7.872
 1403POPC   C4B21766  23.690  17.757   7.407
 1404POPC   NC321767   1.732  27.497   9.404
 1404POPC   PO421768   2.283  27.175   9.343
 1404POPC   GL121769   2.264  27.516   9.072
 1404POPC   GL221770   1.932  27.683   8.962
 1404POPC   C1A21771   2.410  27.586   8.668
 1404POPC   D2A21772   2.113  27.769   8.438
 1404POPC   C3A21773   2.206  27.874   8.047
 1404POPC   C4A21774   1.967  27.860   7.695
 1404POPC   C1B21775   1.896  27.331   8.669
 1404POPC   C2B21776   1.980  27.310   8.226
 1404POPC   C3B21777   1.745  27.382   7.867
 1404POPC   C4B21778   1.705  27.124   7.492
 1405POPC   NC321779  20.241  25.488   9.564
 1405POPC   PO421780  20.623  26.182   9.579
 1405POPC   GL121781  20.712  26.096   9.111
 1405POPC   GL221782  20.495  25.858   8.938
 1405POPC   C1A21783  20.578  26.283   8.699
 1405POPC   D2A21784  20.731  26.387   8.307
 1405POPC   C3A21785  20.557  26.231   7.940
 1405POPC   C4A21786  20.738  26.185   7.541
 1405POPC   C1B21787  20.181  25.957   8.656
 1405POPC   C2B21788  20.408  25.911   8.289
 1405POPC   C3B21789  20.612  25.731   7.886
 1405POPC   C4B21790  20.488  25.643   7.463
 1406POPC   NC321791  42.529  17.613   9.581
 1406POPC   PO421792  42.111  18.116   9.423
 1406POPC   GL121793  42.319  18.171   9.064
 1406POPC   GL221794  42.523  17.855   9.130
 1406POPC   C1A21795  42.214  18.397   8.684
 1406POPC   D2A21796  42.087  18.278   8.270
 1406POPC   C3A21797  42.197  18.454   7.884
 1406POPC   C4A21798  42.107  18.194   7.511
 1406POPC   C1B21799  42.639  17.944   8.714
 1406POPC   C2B21800  42.440  17.855   8.306
 1406POPC   C3B21801  42.420  17.964   7.867
 1406POPC   C4B21802  42.542  17.680   7.538
 1407POPC   NC321803  16.697  28.493   9.465
 1407POPC   PO421804  16.965  27.889   9.290
 1407POPC   GL121805  16.723  28.252   8.999
 1407POPC   GL221806  16.742  28.671   8.993
 1407POPC   C1A21807  16.411  28.433   8.685
 1407POPC   D2A21808  16.248  28.237   8.296
 1407POPC   C3A21809  16.610  28.010   8.088
 1407POPC   C4A21810  16.861  28.163   7.748
 1407POPC   C1B21811  16.910  28.576   8.604
 1407POPC   C2B21812  16.865  28.470   8.175
 1407POPC   C3B21813  16.756  28.690   7.789
 1407POPC   C4B21814  16.901  28.878   7.394
 1408POPC   NC321815  36.007  10.599   9.563
 1408POPC   PO421816  36.552  10.931   9.604
 1408POPC   GL121817  36.369  10.721   9.191
 1408POPC   GL221818  36.036  10.825   9.095
 1408POPC   C1A21819  36.215  10.531   8.741
 1408POPC   D2A21820  36.035  10.560   8.306
 1408POPC   C3A21821  36.263  10.545   7.906
 1408POPC   C4A21822  36.547  10.639   7.563
 1408POPC   C1B21823  35.773  10.822   8.732
 1408POPC   C2B21824  35.604  10.826   8.302
 1408POPC   C3B21825  35.709  10.631   7.898
 1408POPC   C4B21826  35.929  10.797   7.548
 1409POPC   NC321827   3.239  38.348   9.387
 1409POPC   PO421828   3.913  38.486   9.490
 1409POPC   GL121829   3.713  38.372   9.153
 1409POPC   GL221830   3.588  38.720   9.087
 1409POPC   C1A21831   3.699  38.401   8.719
 1409POPC   D2A21832   3.373  38.514   8.433
 1409POPC   C3A21833   3.481  38.394   8.060
 1409POPC   C4A21834   3.599  38.307   7.671
 1409POPC   C1B21835   3.590  38.953   8.644
 1409POPC   C2B21836   3.525  38.918   8.151
 1409POPC   C3B21837   3.350  38.760   7.716
 1409POPC   C4B21838   3.181  38.870   7.278
 1410POPC   NC321839  39.161  34.925   9.457
 1410POPC   PO421840  38.882  34.302   9.506
 1410POPC   GL121841  38.945  34.555   9.173
 1410POPC   GL221842  39.303  34.480   9.166
 1410POPC   C1A21843  39.072  34.692   8.763
 1410POPC   D2A21844  38.962  34.503   8.370
 1410POPC   C3A21845  39.045  34.669   7.985
 1410POPC   C4A21846  39.022  34.508   7.557
 1410POPC   C1B21847  39.111  34.194   8.817
 1410POPC   C2B21848  39.304  34.126   8.423
 1410POPC   C3B21849  39.371  34.281   8.024
 1410POPC   C4B21850  39.415  34.184   7.605
 1411POPC   NC321851   3.121  21.720   9.569
 1411POPC   PO421852   2.552  21.841   9.191
 1411POPC   GL121853   2.782  22.034   8.938
 1411POPC   GL221854   2.800  22.318   9.086
 1411POPC   C1A21855   2.683  22.013   8.532
 1411POPC   D2A21856   2.650  21.704   8.242
 1411POPC   C3A21857   2.550  21.924   7.928
 1411POPC   C4A21858   2.796  22.223   7.762
 1411POPC   C1B21859   2.679  22.496   8.697
 1411POPC   C2B21860   2.511  22.428   8.273
 1411POPC   C3B21861   2.630  22.683   7.932
 1411POPC   C4B21862   2.584  22.637   7.513
 1412POPC   NC321863  23.138  11.860   9.791
 1412POPC   PO421864  22.682  12.295   9.594
 1412POPC   GL121865  22.803  11.965   9.261
 1412POPC   GL221866  23.146  11.951   9.271
 1412POPC   C1A21867  22.705  11.792   8.834
 1412POPC   D2A21868  22.872  11.919   8.422
 1412POPC   C3A21869  22.668  11.814   8.024
 1412POPC   C4A21870  22.582  12.085   7.724
 1412POPC   C1B21871  23.237  11.839   8.828
 1412POPC   C2B21872  23.369  11.746   8.401
 1412POPC   C3B21873  23.194  11.819   7.983
 1412POPC   C4B21874  22.974  11.576   7.663
 1413POPC   NC321875  36.909  15.698   9.544
 1413POPC   PO421876  36.943  16.324   9.456
 1413POPC   GL121877  36.892  16.012   9.132
 1413POPC   GL221878  36.557  15.833   9.155
 1413POPC   C1A21879  37.153  16.012   8.729
 1413POPC   D2A21880  37.381  15.937   8.319
 1413POPC   C3A21881  37.163  15.701   7.977
 1413POPC   C4A21882  37.286  15.685   7.512
 1413POPC   C1B21883  36.622  16.008   8.710
 1413POPC   C2B21884  36.859  16.117   8.316
 1413POPC   C3B21885  36.859  16.150   7.882
 1413POPC   C4B21886  36.558  16.108   7.576
 1414POPC   NC321887   2.608  13.945   9.533
 1414POPC   PO421888   3.110  13.617   9.434
 1414POPC   GL121889   2.743  13.544   9.239
 1414POPC   GL221890   2.777  13.867   9.062
 1414POPC   C1A21891   2.527  13.470   8.878
 1414POPC   D2A21892   2.660  13.560   8.469
 1414POPC   C3A21893   2.537  13.294   8.147
 1414POPC   C4A21894   2.617  13.474   7.732
 1414POPC   C1B21895   3.107  14.054   8.833
 1414POPC   C2B21896   3.020  14.156   8.406
 1414POPC   C3B21897   2.797  13.927   8.078
 1414POPC   C4B21898   2.979  13.851   7.691
 1415POPC   NC321899  31.752  38.462   9.645
 1415POPC   PO421900  31.221  38.863   9.500
 1415POPC   GL121901  31.504  38.574   9.196
 1415POPC   GL221902  31.668  38.228   9.196
 1415POPC   C1A21903  31.695  38.540   8.790
 1415POPC   D2A21904  31.630  38.674   8.390
 1415POPC   C3A21905  31.292  38.775   8.118
 1415POPC   C4A21906  31.545  38.718   7.756
 1415POPC   C1B21907  31.373  38.185   8.858
 1415POPC   C2B21908  31.592  38.150   8.456
 1415POPC   C3B21909  31.576  38.282   8.074
 1415POPC   C4B21910  31.404  38.180   7.740
 1416POPC   NC321911   9.056  18.790   9.484
 1416POPC   PO421912   9.035  19.330   9.813
 1416POPC   GL121913   9.165  19.283   9.292
 1416POPC   GL221914   9.102  18.980   9.030
 1416POPC   C1A21915   9.055  19.436   8.860
 1416POPC   D2A21916   9.161  19.230   8.467
 1416POPC   C3A21917   8.908  19.166   8.104
 1416POPC   C4A21918   8.960  19.293   7.668
 1416POPC   C1B21919   8.831  18.859   8.649
 1416POPC   C2B21920   8.700  18.689   8.207
 1416POPC   C3B21921   8.701  18.854   7.750
 1416POPC   C4B21922   9.076  18.803   7.456
 1417POPC   NC321923  27.249  32.125   9.529
 1417POPC   PO421924  27.908  32.074   9.707
 1417POPC   GL121925  27.786  31.987   9.248
 1417POPC   GL221926  27.431  31.951   9.097
 1417POPC   C1A21927  27.889  32.118   8.817
 1417POPC   D2A21928  27.832  32.429   8.485
 1417POPC   C3A21929  27.815  32.276   8.073
 1417POPC   C4A21930  27.783  32.464   7.690
 1417POPC   C1B21931  27.351  31.888   8.672
 1417POPC   C2B21932  27.376  32.058   8.254
 1417POPC   C3B21933  27.163  31.957   7.848
 1417POPC   C4B21934  27.138  31.979   7.339
 1418POPC   NC321935   8.446  34.945   9.461
 1418POPC   PO421936   7.997  35.476   9.475
 1418POPC   GL121937   7.991  35.235   9.131
 1418POPC   GL221938   8.331  35.260   9.089
 1418POPC   C1A21939   7.851  35.132   8.742
 1418POPC   D2A21940   8.071  35.070   8.372
 1418POPC   C3A21941   8.035  35.351   8.035
 1418POPC   C4A21942   8.096  35.298   7.598
 1418POPC   C1B21943   8.421  35.061   8.735
 1418POPC   C2B21944   8.563  35.161   8.320
 1418POPC   C3B21945   8.419  35.016   7.940
 1418POPC   C4B21946   8.568  35.313   7.742
 1419POPC   NC321947  12.011  43.034   9.721
 1419POPC   PO421948  12.467  43.311   9.381
 1419POPC   GL121949  12.033  43.298   9.240
 1419POPC   GL221950  11.971  42.979   9.171
 1419POPC   C1A21951  11.939  43.348   8.796
 1419POPC   D2A21952  12.227  43.212   8.454
 1419POPC   C3A21953  12.334  43.304   8.017
 1419POPC   C4A21954  12.260  43.173   7.582
 1419POPC   C1B21955  12.048  42.838   8.758
 1419POPC   C2B21956  11.837  42.891   8.356
 1419POPC   C3B21957  11.892  43.046   7.943
 1419POPC   C4B21958  11.901  42.806   7.576
 1420POPC   NC321959  44.252  34.912   9.319
 1420POPC   PO421960  43.669  34.624   9.595
 1420POPC   GL121961  43.766  34.753   9.202
 1420POPC   GL221962  44.019  34.479   9.190
 1420POPC   C1A21963  43.660  34.879   8.776
 1420POPC   D2A21964  43.906  34.823   8.389
 1420POPC   C3A21965  43.750  34.915   7.984
 1420POPC   C4A21966  43.793  34.679   7.585
 1420POPC   C1B21967  43.972  34.476   8.780
 1420POPC   C2B21968  44.016  34.287   8.402
 1420POPC   C3B21969  43.819  34.384   8.013
 1420POPC   C4B21970  44.036  34.253   7.623
 1421POPC   NC321971   3.181  34.268   9.399
 1421POPC   PO421972   3.072  34.885   9.674
 1421POPC   GL121973   2.938  34.831   9.255
 1421POPC   GL221974   2.797  34.534   9.163
 1421POPC   C1A21975   2.872  34.867   8.794
 1421POPC   D2A21976   2.578  34.876   8.472
 1421POPC   C3A21977   2.786  34.729   8.105
 1421POPC   C4A21978   2.709  34.693   7.701
 1421POPC   C1B21979   2.587  34.375   8.795
 1421POPC   C2B21980   2.448  34.380   8.366
 1421POPC   C3B21981   2.549  34.239   7.933
 1421POPC   C4B21982   2.619  34.239   7.464
 1422POPC   NC321983  15.818  27.950   9.540
 1422POPC   PO421984  16.253  28.473   9.601
 1422POPC   GL121985  16.041  28.515   9.158
 1422POPC   GL221986  15.664  28.443   9.171
 1422POPC   C1A21987  15.893  28.392   8.717
 1422POPC   D2A21988  15.732  28.403   8.297
 1422POPC   C3A21989  15.967  28.464   7.923
 1422POPC   C4A21990  16.372  28.345   7.741
 1422POPC   C1B21991  15.593  28.022   8.915
 1422POPC   C2B21992  15.556  27.963   8.465
 1422POPC   C3B21993  15.832  27.943   8.077
 1422POPC   C4B21994  15.943  28.056   7.635
 1423POPC   NC321995   2.026  33.333  10.071
 1423POPC   PO421996   1.957  32.761   9.705
 1423POPC   GL121997   1.861  33.069   9.341
 1423POPC   GL221998   2.163  33.090   9.159
 1423POPC   C1A21999   1.787  33.253   8.889
 1423POPC   D2A22000   1.855  33.114   8.438
 1423POPC   C3A22001   1.809  33.307   8.008
 1423POPC   C4A22002   1.949  33.090   7.653
 1423POPC   C1B22003   2.236  32.755   8.849
 1423POPC   C2B22004   2.190  32.711   8.419
 1423POPC   C3B22005   2.217  32.942   8.062
 1423POPC   C4B22006   2.437  32.887   7.691
 1424POPC   NC322007  16.190  18.412   9.511
 1424POPC   PO422008  15.665  18.052   9.467
 1424POPC   GL122009  15.839  18.334   9.143
 1424POPC   GL222010  15.892  18.670   9.175
 1424POPC   C1A22011  16.059  18.440   8.758
 1424POPC   D2A22012  16.179  18.227   8.424
 1424POPC   C3A22013  15.998  18.340   8.062
 1424POPC   C4A22014  15.903  17.938   7.849
 1424POPC   C1B22015  15.583  18.618   8.793
 1424POPC   C2B22016  15.539  18.347   8.414
 1424POPC   C3B22017  15.492  18.249   7.969
 1424POPC   C4B22018  15.746  18.362   7.617
 1425POPC   NC322019   7.471  24.345   9.647
 1425POPC   PO422020   7.789  24.854   9.336
 1425POPC   GL122021   7.442  24.600   9.194
 1425POPC   GL222022   7.557  24.232   9.152
 1425POPC   C1A22023   7.202  24.541   8.816
 1425POPC   D2A22024   7.234  24.339   8.399
 1425POPC   C3A22025   7.402  24.618   8.080
 1425POPC   C4A22026   7.715  24.485   7.760
 1425POPC   C1B22027   7.315  24.030   8.814
 1425POPC   C2B22028   7.410  23.829   8.407
 1425POPC   C3B22029   7.487  24.061   8.034
 1425POPC   C4B22030   7.237  24.267   7.767
 1426POPC   NC322031   7.527  26.761   9.513
 1426POPC   PO422032   6.922  26.945   9.383
 1426POPC   GL122033   7.255  26.895   9.093
 1426POPC   GL222034   7.583  26.755   9.015
 1426POPC   C1A22035   7.211  27.118   8.722
 1426POPC   D2A22036   7.093  27.059   8.325
 1426POPC   C3A22037   7.434  26.900   8.118
 1426POPC   C4A22038   7.639  26.950   7.739
 1426POPC   C1B22039   7.475  26.689   8.602
 1426POPC   C2B22040   7.493  26.366   8.298
 1426POPC   C3B22041   7.436  26.451   7.883
 1426POPC   C4B22042   7.531  26.536   7.445
 1427POPC   NC322043  33.329  15.502   9.734
 1427POPC   PO422044  33.946  15.226   9.466
 1427POPC   GL122045  33.872  15.195   9.033
 1427POPC   GL222046  33.630  15.415   8.947
 1427POPC   C1A22047  33.892  15.164   8.573
 1427POPC   D2A22048  33.585  15.060   8.268
 1427POPC   C3A22049  33.775  14.949   7.901
 1427POPC   C4A22050  33.556  15.211   7.675
 1427POPC   C1B22051  34.000  15.638   8.754
 1427POPC   C2B22052  34.057  15.752   8.342
 1427POPC   C3B22053  33.899  15.444   8.032
 1427POPC   C4B22054  34.052  15.306   7.631
 1428POPC   NC322055   0.808  35.160   9.456
 1428POPC   PO422056   1.491  35.286   9.495
 1428POPC   GL122057   1.177  35.378   9.168
 1428POPC   GL222058   1.061  35.047   9.048
 1428POPC   C1A22059   1.216  35.376   8.715
 1428POPC   D2A22060   1.400  35.549   8.376
 1428POPC   C3A22061   1.287  35.475   7.973
 1428POPC   C4A22062   0.899  35.543   7.755
 1428POPC   C1B22063   1.191  34.830   8.702
 1428POPC   C2B22064   1.267  35.003   8.335
 1428POPC   C3B22065   1.398  34.991   7.931
 1428POPC   C4B22066   1.132  35.121   7.600
 1429POPC   NC322067  39.052  41.075   9.528
 1429POPC   PO422068  39.356  40.462   9.575
 1429POPC   GL122069  39.263  40.720   9.230
 1429POPC   GL222070  38.933  40.614   9.104
 1429POPC   C1A22071  39.266  41.012   8.898
 1429POPC   D2A22072  39.092  41.036   8.493
 1429POPC   C3A22073  39.223  40.787   8.155
 1429POPC   C4A22074  39.425  40.891   7.744
 1429POPC   C1B22075  38.740  40.968   8.879
 1429POPC   C2B22076  38.562  41.057   8.474
 1429POPC   C3B22077  38.764  41.024   8.099
 1429POPC   C4B22078  38.915  40.786   7.762
 1430POPC   NC322079  15.188  34.683   9.481
 1430POPC   PO422080  14.895  34.129   9.488
 1430POPC   GL122081  15.102  34.274   9.077
 1430POPC   GL222082  15.061  34.609   8.989
 1430POPC   C1A22083  15.215  34.212   8.611
 1430POPC   D2A22084  15.133  34.097   8.168
 1430POPC   C3A22085  15.375  34.315   7.849
 1430POPC   C4A22086  15.317  34.276   7.400
 1430POPC   C1B22087  14.900  34.615   8.569
 1430POPC   C2B22088  15.059  34.605   8.162
 1430POPC   C3B22089  14.888  34.476   7.766
 1430POPC   C4B22090  14.597  34.559   7.392
 1431POPC   NC322091  24.673  35.254   9.513
 1431POPC   PO422092  24.083  35.005   9.607
 1431POPC   GL122093  24.153  35.259   9.207
 1431POPC   GL222094  24.496  35.394   9.067
 1431POPC   C1A22095  24.128  35.250   8.749
 1431POPC   D2A22096  24.492  35.336   8.496
 1431POPC   C3A22097  24.493  35.120   8.110
 1431POPC   C4A22098  24.240  35.286   7.790
 1431POPC   C1B22099  24.794  35.637   8.807
 1431POPC   C2B22100  24.812  35.781   8.403
 1431POPC   C3B22101  24.955  35.663   7.996
 1431POPC   C4B22102  24.745  35.377   7.752
 1432POPC   NC322103  16.338  40.978   9.730
 1432POPC   PO422104  16.941  40.566   9.569
 1432POPC   GL122105  16.841  40.633   9.166
 1432POPC   GL222106  16.496  40.635   9.222
 1432POPC   C1A22107  16.783  40.763   8.720
 1432POPC   D2A22108  16.898  40.667   8.283
 1432POPC   C3A22109  16.835  40.977   7.936
 1432POPC   C4A22110  16.696  40.946   7.484
 1432POPC   C1B22111  16.542  40.345   8.863
 1432POPC   C2B22112  16.378  40.444   8.467
 1432POPC   C3B22113  16.396  40.703   8.119
 1432POPC   C4B22114  16.274  40.512   7.747
 1433POPC   NC322115  25.435  12.851   9.392
 1433POPC   PO422116  24.734  12.938   9.374
 1433POPC   GL122117  24.992  12.796   9.068
 1433POPC   GL222118  25.059  12.471   9.008
 1433POPC   C1A22119  25.257  12.897   8.714
 1433POPC   D2A22120  25.131  13.071   8.320
 1433POPC   C3A22121  25.237  12.908   7.960
 1433POPC   C4A22122  25.512  12.952   7.643
 1433POPC   C1B22123  24.921  12.287   8.614
 1433POPC   C2B22124  24.898  12.552   8.240
 1433POPC   C3B22125  25.037  12.465   7.819
 1433POPC   C4B22126  25.070  12.726   7.471
 1434POPC   NC322127  33.748  36.589   9.339
 1434POPC   PO422128  34.062  37.195   9.513
 1434POPC   GL122129  33.868  37.109   9.158
 1434POPC   GL222130  34.123  36.879   9.074
 1434POPC   C1A22131  33.876  37.229   8.734
 1434POPC   D2A22132  33.711  37.007   8.373
 1434POPC   C3A22133  33.843  37.011   7.956
 1434POPC   C4A22134  33.462  36.905   7.776
 1434POPC   C1B22135  33.912  36.688   8.731
 1434POPC   C2B22136  33.973  36.502   8.350
 1434POPC   C3B22137  33.725  36.490   8.009
 1434POPC   C4B22138  33.773  36.581   7.581
 1435POPC   NC322139   9.766  39.131   9.642
 1435POPC   PO422140   9.527  39.612   9.272
 1435POPC   GL122141   9.756  39.297   9.047
 1435POPC   GL222142   9.844  38.974   9.178
 1435POPC   C1A22143   9.943  39.219   8.642
 1435POPC   D2A22144  10.010  39.266   8.194
 1435POPC   C3A22145   9.682  39.469   7.954
 1435POPC   C4A22146   9.704  39.310   7.545
 1435POPC   C1B22147   9.564  38.891   8.796
 1435POPC   C2B22148   9.655  38.872   8.350
 1435POPC   C3B22149   9.539  38.968   7.898
 1435POPC   C4B22150   9.495  38.883   7.389
 1436POPC   NC322151   2.381  23.314   9.715
 1436POPC   PO422152   1.943  23.753   9.403
 1436POPC   GL122153   1.834  23.722   9.033
 1436POPC   GL222154   1.605  23.446   9.099
 1436POPC   C1A22155   2.058  23.889   8.688
 1436POPC   D2A22156   2.283  23.862   8.329
 1436POPC   C3A22157   2.146  23.643   8.029
 1436POPC   C4A22158   1.969  23.874   7.719
 1436POPC   C1B22159   1.614  23.487   8.657
 1436POPC   C2B22160   1.739  23.393   8.249
 1436POPC   C3B22161   1.578  23.581   7.884
 1436POPC   C4B22162   1.621  23.671   7.396
 1437POPC   NC322163   0.798  38.986   9.556
 1437POPC   PO422164   1.368  39.320   9.442
 1437POPC   GL122165   1.079  39.132   9.174
 1437POPC   GL222166   0.852  39.420   9.206
 1437POPC   C1A22167   1.174  39.010   8.778
 1437POPC   D2A22168   1.457  39.298   8.564
 1437POPC   C3A22169   1.400  39.283   8.128
 1437POPC   C4A22170   1.149  38.971   7.882
 1437POPC   C1B22171   1.026  39.484   8.803
 1437POPC   C2B22172   0.917  39.299   8.385
 1437POPC   C3B22173   0.930  39.444   7.951
 1437POPC   C4B22174   1.278  39.484   7.646
 1438POPC   NC322175  13.765  19.396   9.492
 1438POPC   PO422176  13.158  19.415   9.755
 1438POPC   GL122177  13.383  19.106   9.353
 1438POPC   GL222178  13.292  18.798   9.226
 1438POPC   C1A22179  13.464  19.110   8.845
 1438POPC   D2A22180  13.376  19.150   8.371
 1438POPC   C3A22181  13.663  19.193   8.030
 1438POPC   C4A22182  13.795  19.095   7.620
 1438POPC   C1B22183  13.681  18.667   8.962
 1438POPC   C2B22184  13.887  18.683   8.557
 1438POPC   C3B22185  13.904  18.723   8.096
 1438POPC   C4B22186  13.729  18.585   7.701
 1439POPC   NC322187  35.136  42.171   9.390
 1439POPC   PO422188  35.751  42.435   9.522
 1439POPC   GL122189  35.534  42.414   9.143
 1439POPC   GL222190  35.583  42.048   9.151
 1439POPC   C1A22191  35.380  42.527   8.709
 1439POPC   D2A22192  35.202  42.258   8.374
 1439POPC   C3A22193  35.025  42.338   7.988
 1439POPC   C4A22194  35.342  42.439   7.704
 1439POPC   C1B22195  35.372  41.988   8.778
 1439POPC   C2B22196  35.476  41.821   8.372
 1439POPC   C3B22197  35.408  41.978   7.956
 1439POPC   C4B22198  35.369  41.818   7.529
 1440POPC   NC322199  19.830   8.769   9.423
 1440POPC   PO422200  19.486   9.356   9.475
 1440POPC   GL122201  19.692   9.167   9.138
 1440POPC   GL222202  19.999   9.236   9.069
 1440POPC   C1A22203  19.746   8.946   8.752
 1440POPC   D2A22204  19.678   9.104   8.364
 1440POPC   C3A22205  19.659   8.755   8.131
 1440POPC   C4A22206  19.802   8.756   7.736
 1440POPC   C1B22207  20.196   9.197   8.731
 1440POPC   C2B22208  20.174   8.961   8.409
 1440POPC   C3B22209  20.111   9.032   8.025
 1440POPC   C4B22210  20.403   9.110   7.771
 1441POPC   NC322211   4.813   5.562   9.278
 1441POPC   PO422212   4.212   5.636   9.562
 1441POPC   GL122213   4.354   5.840   9.178
 1441POPC   GL222214   4.218   6.168   9.219
 1441POPC   C1A22215   4.409   6.005   8.756
 1441POPC   D2A22216   4.551   5.867   8.360
 1441POPC   C3A22217   4.445   6.066   7.991
 1441POPC   C4A22218   4.149   5.914   7.651
 1441POPC   C1B22219   3.928   6.123   8.870
 1441POPC   C2B22220   3.930   6.318   8.482
 1441POPC   C3B22221   3.928   6.146   8.071
 1441POPC   C4B22222   3.802   6.271   7.685
 1442POPC   NC322223  21.351   0.082   9.424
 1442POPC   PO422224  21.126   0.652   9.277
 1442POPC   GL122225  21.359   0.390   9.001
 1442POPC   GL222226  21.209   0.081   8.924
 1442POPC   C1A22227  21.430   0.379   8.562
 1442POPC   D2A22228  21.210   0.407   8.171
 1442POPC   C3A22229  21.517   0.449   7.869
 1442POPC   C4A22230  21.726   0.077   7.720
 1442POPC   C1B22231  20.911   0.307   8.644
 1442POPC   C2B22232  20.697   0.335   8.219
 1442POPC   C3B22233  20.815   0.471   7.773
 1442POPC   C4B22234  20.886   0.427   7.283
 1443POPC   NC322235  10.328  38.696   9.590
 1443POPC   PO422236   9.644  38.678   9.610
 1443POPC   GL122237   9.575  38.529   9.186
 1443POPC   GL222238   9.959  38.462   9.142
 1443POPC   C1A22239   9.609  38.374   8.780
 1443POPC   D2A22240   9.913  38.408   8.470
 1443POPC   C3A22241   9.689  38.366   8.113
 1443POPC   C4A22242   9.628  38.508   7.719
 1443POPC   C1B22243  10.107  38.761   8.818
 1443POPC   C2B22244  10.215  38.821   8.390
 1443POPC   C3B22245  10.000  38.772   8.002
 1443POPC   C4B22246   9.957  38.864   7.565
 1444POPC   NC322247  22.254   5.372   9.392
 1444POPC   PO422248  22.554   4.919   9.335
 1444POPC   GL122249  22.329   5.064   8.974
 1444POPC   GL222250  22.045   4.874   8.968
 1444POPC   C1A22251  22.227   5.424   8.714
 1444POPC   D2A22252  22.109   5.628   8.338
 1444POPC   C3A22253  22.029   5.440   7.974
 1444POPC   C4A22254  21.952   5.151   7.619
 1444POPC   C1B22255  21.911   5.052   8.568
 1444POPC   C2B22256  22.037   4.958   8.141
 1444POPC   C3B22257  22.094   4.662   7.778
 1444POPC   C4B22258  21.972   4.629   7.327
 1445POPC   NC322259  39.420  29.382   9.492
 1445POPC   PO422260  38.954  28.894   9.611
 1445POPC   GL122261  38.990  29.122   9.245
 1445POPC   GL222262  38.912  29.467   9.342
 1445POPC   C1A22263  39.100  29.002   8.789
 1445POPC   D2A22264  39.433  29.104   8.454
 1445POPC   C3A22265  39.253  29.087   8.059
 1445POPC   C4A22266  39.319  28.917   7.663
 1445POPC   C1B22267  38.970  29.485   8.896
 1445POPC   C2B22268  39.056  29.429   8.451
 1445POPC   C3B22269  38.839  29.408   8.061
 1445POPC   C4B22270  39.120  29.455   7.723
 1446POPC   NC322271  33.258  41.028   9.714
 1446POPC   PO422272  33.073  40.454   9.500
 1446POPC   GL122273  33.117  40.820   9.201
 1446POPC   GL222274  33.189  40.538   9.009
 1446POPC   C1A22275  33.109  40.943   8.742
 1446POPC   D2A22276  32.917  40.827   8.347
 1446POPC   C3A22277  33.065  40.942   7.953
 1446POPC   C4A22278  32.916  40.885   7.545
 1446POPC   C1B22279  32.812  40.509   8.783
 1446POPC   C2B22280  32.637  40.390   8.379
 1446POPC   C3B22281  32.734  40.448   7.949
 1446POPC   C4B22282  33.094  40.436   7.722
 1447POPC   NC322283   6.153  14.169   9.479
 1447POPC   PO422284   5.684  14.569   9.515
 1447POPC   GL122285   5.693  14.535   9.095
 1447POPC   GL222286   5.896  14.263   9.050
 1447POPC   C1A22287   5.669  14.516   8.638
 1447POPC   D2A22288   5.868  14.498   8.261
 1447POPC   C3A22289   5.730  14.763   7.968
 1447POPC   C4A22290   5.509  14.766   7.624
 1447POPC   C1B22291   6.126  14.263   8.647
 1447POPC   C2B22292   6.158  14.083   8.236
 1447POPC   C3B22293   6.118  14.314   7.835
 1447POPC   C4B22294   6.211  14.133   7.421
 1448POPC   NC322295  27.144  28.354   9.572
 1448POPC   PO422296  26.516  28.283   9.488
 1448POPC   GL122297  26.766  28.378   9.083
 1448POPC   GL222298  27.037  28.650   9.139
 1448POPC   C1A22299  26.746  28.339   8.591
 1448POPC   D2A22300  26.475  28.393   8.202
 1448POPC   C3A22301  26.587  28.213   7.790
 1448POPC   C4A22302  26.630  28.051   7.362
 1448POPC   C1B22303  26.802  28.800   8.785
 1448POPC   C2B22304  26.822  28.799   8.346
 1448POPC   C3B22305  26.755  28.714   7.905
 1448POPC   C4B22306  26.684  28.598   7.447
 1449POPC   NC322307  41.796   3.031   9.839
 1449POPC   PO422308  41.217   2.711   9.575
 1449POPC   GL122309  41.471   2.850   9.256
 1449POPC   GL222310  41.809   2.901   9.306
 1449POPC   C1A22311  41.548   3.051   8.873
 1449POPC   D2A22312  41.522   2.810   8.489
 1449POPC   C3A22313  41.551   2.942   8.075
 1449POPC   C4A22314  41.273   2.899   7.716
 1449POPC   C1B22315  41.815   2.615   8.915
 1449POPC   C2B22316  41.935   2.515   8.476
 1449POPC   C3B22317  41.764   2.433   8.071
 1449POPC   C4B22318  41.804   2.690   7.716
 1450POPC   NC322319   6.070  20.845   9.457
 1450POPC   PO422320   5.357  20.797   9.488
 1450POPC   GL122321   5.621  20.790   9.180
 1450POPC   GL222322   5.745  20.457   9.262
 1450POPC   C1A22323   5.879  20.808   8.816
 1450POPC   D2A22324   6.069  20.679   8.435
 1450POPC   C3A22325   5.903  20.848   8.040
 1450POPC   C4A22326   6.017  20.718   7.622
 1450POPC   C1B22327   5.824  20.278   8.872
 1450POPC   C2B22328   5.736  20.299   8.449
 1450POPC   C3B22329   5.922  20.329   8.035
 1450POPC   C4B22330   5.697  20.288   7.635
 1451POPC   NC322331  34.662  44.199   9.487
 1451POPC   PO422332  34.576  43.480   9.647
 1451POPC   GL122333  34.735  43.750   9.250
 1451POPC   GL222334  34.461  43.980   9.091
 1451POPC   C1A22335  34.742  43.748   8.752
 1451POPC   D2A22336  34.785  43.542   8.425
 1451POPC   C3A22337  34.569  43.593   8.056
 1451POPC   C4A22338  34.787  43.643   7.684
 1451POPC   C1B22339  34.729  44.237   8.826
 1451POPC   C2B22340  34.554  44.200   8.409
 1451POPC   C3B22341  34.523  44.074   7.956
 1451POPC   C4B22342  34.867  44.168   7.718
 1452POPC   NC322343  27.591  19.006   9.826
 1452POPC   PO422344  27.570  18.660   9.275
 1452POPC   GL122345  27.594  18.962   9.056
 1452POPC   GL222346  27.604  19.224   9.299
 1452POPC   C1A22347  27.354  18.947   8.699
 1452POPC   D2A22348  27.536  18.758   8.352
 1452POPC   C3A22349  27.501  18.949   7.953
 1452POPC   C4A22350  27.861  18.952   7.681
 1452POPC   C1B22351  27.619  19.402   8.833
 1452POPC   C2B22352  27.444  19.375   8.430
 1452POPC   C3B22353  27.580  19.447   8.049
 1452POPC   C4B22354  27.565  19.362   7.638
 1453POPC   NC322355  26.525  19.281   9.322
 1453POPC   PO422356  26.012  19.852   9.453
 1453POPC   GL122357  25.949  19.799   9.092
 1453POPC   GL222358  26.155  19.494   9.025
 1453POPC   C1A22359  26.133  19.870   8.714
 1453POPC   D2A22360  25.946  19.726   8.363
 1453POPC   C3A22361  26.097  19.896   8.019
 1453POPC   C4A22362  26.261  19.721   7.658
 1453POPC   C1B22363  25.778  19.447   8.764
 1453POPC   C2B22364  25.621  19.347   8.332
 1453POPC   C3B22365  25.722  19.555   7.919
 1453POPC   C4B22366  25.807  19.631   7.479
 1454POPC   NC322367  33.280  27.358   9.447
 1454POPC   PO422368  33.174  26.688   9.485
 1454POPC   GL122369  33.095  26.817   9.078
 1454POPC   GL222370  32.919  27.145   9.108
 1454POPC   C1A22371  33.068  26.706   8.630
 1454POPC   D2A22372  32.879  26.899   8.259
 1454POPC   C3A22373  32.873  26.680   7.855
 1454POPC   C4A22374  33.128  26.770   7.484
 1454POPC   C1B22375  33.204  27.191   8.736
 1454POPC   C2B22376  33.375  27.018   8.305
 1454POPC   C3B22377  33.206  27.113   7.892
 1454POPC   C4B22378  33.295  27.239   7.468
 1455POPC   NC322379  14.865  41.613   9.487
 1455POPC   PO422380  15.430  41.373   9.334
 1455POPC   GL122381  15.407  41.529   9.009
 1455POPC   GL222382  15.173  41.782   9.090
 1455POPC   C1A22383  15.183  41.340   8.664
 1455POPC   D2A22384  14.892  41.533   8.389
 1455POPC   C3A22385  15.040  41.433   8.012
 1455POPC   C4A22386  14.950  41.576   7.650
 1455POPC   C1B22387  15.216  41.836   8.667
 1455POPC   C2B22388  15.350  41.937   8.285
 1455POPC   C3B22389  15.339  41.840   7.881
 1455POPC   C4B22390  15.453  41.506   7.638
 1456POPC   NC322391  14.836  16.871   9.415
 1456POPC   PO422392  15.450  16.828   9.284
 1456POPC   GL122393  15.077  16.669   9.015
 1456POPC   GL222394  14.849  16.374   9.121
 1456POPC   C1A22395  14.960  16.842   8.601
 1456POPC   D2A22396  15.044  16.972   8.137
 1456POPC   C3A22397  15.366  16.773   7.827
 1456POPC   C4A22398  15.527  16.575   7.441
 1456POPC   C1B22399  14.913  16.315   8.662
 1456POPC   C2B22400  14.749  16.512   8.279
 1456POPC   C3B22401  14.906  16.564   7.861
 1456POPC   C4B22402  15.123  16.246   7.619
 1457POPC   NC322403  18.965  33.639   9.595
 1457POPC   PO422404  19.457  33.923   9.276
 1457POPC   GL122405  19.154  33.949   8.992
 1457POPC   GL222406  18.998  33.661   9.066
 1457POPC   C1A22407  19.029  34.071   8.583
 1457POPC   D2A22408  18.919  34.219   8.165
 1457POPC   C3A22409  19.172  33.984   7.878
 1457POPC   C4A22410  19.223  33.549   7.836
 1457POPC   C1B22411  18.872  33.558   8.645
 1457POPC   C2B22412  18.842  33.655   8.189
 1457POPC   C3B22413  18.735  33.440   7.781
 1457POPC   C4B22414  18.702  33.365   7.320
 1458POPC   NC322415  38.730   4.392   9.742
 1458POPC   PO422416  38.183   4.145   9.435
 1458POPC   GL122417  38.256   4.078   9.005
 1458POPC   GL222418  38.634   4.074   8.988
 1458POPC   C1A22419  38.385   4.220   8.583
 1458POPC   D2A22420  38.638   4.559   8.401
 1458POPC   C3A22421  38.522   4.582   7.976
 1458POPC   C4A22422  38.348   4.537   7.556
 1458POPC   C1B22423  38.821   3.952   8.591
 1458POPC   C2B22424  38.795   4.102   8.153
 1458POPC   C3B22425  38.568   4.105   7.762
 1458POPC   C4B22426  38.684   4.036   7.354
 1459POPC   NC322427  33.717  34.949   9.586
 1459POPC   PO422428  33.544  35.675   9.487
 1459POPC   GL122429  33.738  35.484   9.109
 1459POPC   GL222430  33.741  35.111   9.092
 1459POPC   C1A22431  33.662  35.431   8.673
 1459POPC   D2A22432  33.480  35.561   8.291
 1459POPC   C3A22433  33.719  35.486   7.916
 1459POPC   C4A22434  33.811  35.697   7.497
 1459POPC   C1B22435  34.001  35.063   8.727
 1459POPC   C2B22436  33.826  35.104   8.315
 1459POPC   C3B22437  33.974  35.026   7.930
 1459POPC   C4B22438  34.027  35.252   7.574
 1460POPC   NC322439  40.056   3.179   9.522
 1460POPC   PO422440  40.378   2.490   9.564
 1460POPC   GL122441  40.063   2.596   9.258
 1460POPC   GL222442  40.201   2.878   9.139
 1460POPC   C1A22443  39.844   2.706   8.843
 1460POPC   D2A22444  39.840   2.491   8.468
 1460POPC   C3A22445  39.996   2.742   8.174
 1460POPC   C4A22446  39.858   2.868   7.810
 1460POPC   C1B22447  40.248   3.120   8.785
 1460POPC   C2B22448  40.313   3.377   8.422
 1460POPC   C3B22449  40.178   3.226   8.041
 1460POPC   C4B22450  40.289   3.122   7.652
 1461POPC   NC322451  44.884  20.065   9.454
 1461POPC   PO422452  44.753  20.671   9.653
 1461POPC   GL122453  44.602  20.597   9.265
 1461POPC   GL222454  44.379  20.333   9.337
 1461POPC   C1A22455  44.776  20.659   8.861
 1461POPC   D2A22456  44.736  20.948   8.512
 1461POPC   C3A22457  44.902  20.767   8.138
 1461POPC   C4A22458  44.930  20.576   7.730
 1461POPC   C1B22459  44.305  20.433   8.881
 1461POPC   C2B22460  44.500  20.424   8.482
 1461POPC   C3B22461  44.416  20.567   8.075
 1461POPC   C4B22462  44.429  20.435   7.673
 1462POPC   NC322463   5.789   2.359   9.520
 1462POPC   PO422464   6.008   1.712   9.438
 1462POPC   GL122465   5.963   1.991   9.120
 1462POPC   GL222466   6.150   2.343   9.168
 1462POPC   C1A22467   5.926   1.865   8.700
 1462POPC   D2A22468   6.086   1.919   8.298
 1462POPC   C3A22469   5.777   1.887   8.031
 1462POPC   C4A22470   5.838   1.793   7.651
 1462POPC   C1B22471   5.923   2.393   8.809
 1462POPC   C2B22472   6.137   2.379   8.474
 1462POPC   C3B22473   5.962   2.366   8.084
 1462POPC   C4B22474   5.780   2.341   7.697
 1463POPC   NC322475   6.974  16.856   9.573
 1463POPC   PO422476   7.631  16.717   9.552
 1463POPC   GL122477   7.351  16.518   9.282
 1463POPC   GL222478   7.275  16.829   9.162
 1463POPC   C1A22479   7.424  16.466   8.830
 1463POPC   D2A22480   7.656  16.682   8.509
 1463POPC   C3A22481   7.525  16.546   8.080
 1463POPC   C4A22482   7.359  16.404   7.703
 1463POPC   C1B22483   7.341  17.022   8.783
 1463POPC   C2B22484   7.379  17.153   8.369
 1463POPC   C3B22485   7.282  17.030   7.955
 1463POPC   C4B22486   7.406  16.873   7.569
 1464POPC   NC322487  39.213  10.641   9.640
 1464POPC   PO422488  39.400  10.045   9.675
 1464POPC   GL122489  39.316  10.310   9.275
 1464POPC   GL222490  38.994  10.530   9.164
 1464POPC   C1A22491  39.436  10.601   8.926
 1464POPC   D2A22492  39.473  10.744   8.483
 1464POPC   C3A22493  39.355  10.393   8.176
 1464POPC   C4A22494  39.348  10.349   7.722
 1464POPC   C1B22495  38.976  10.378   8.732
 1464POPC   C2B22496  38.885  10.171   8.344
 1464POPC   C3B22497  38.887  10.325   7.921
 1464POPC   C4B22498  38.851  10.737   7.770
 1465POPC   NC322499  21.559  31.717   9.657
 1465POPC   PO422500  20.920  31.539   9.349
 1465POPC   GL122501  21.275  31.485   9.094
 1465POPC   GL222502  21.561  31.285   9.238
 1465POPC   C1A22503  21.282  31.419   8.646
 1465POPC   D2A22504  21.010  31.399   8.269
 1465POPC   C3A22505  21.256  31.532   7.925
 1465POPC   C4A22506  21.325  31.291   7.574
 1465POPC   C1B22507  21.755  31.502   8.872
 1465POPC   C2B22508  21.711  31.665   8.444
 1465POPC   C3B22509  21.829  31.565   8.015
 1465POPC   C4B22510  21.863  31.303   7.645
 1466POPC   NC322511  37.178   6.433   9.503
 1466POPC   PO422512  36.651   6.429   9.384
 1466POPC   GL122513  36.989   6.525   9.036
 1466POPC   GL222514  37.221   6.812   9.075
 1466POPC   C1A22515  37.368   6.432   8.771
 1466POPC   D2A22516  37.530   6.577   8.389
 1466POPC   C3A22517  37.268   6.772   8.094
 1466POPC   C4A22518  36.984   6.636   7.776
 1466POPC   C1B22519  37.096   6.834   8.597
 1466POPC   C2B22520  36.766   6.813   8.230
 1466POPC   C3B22521  36.578   6.918   7.811
 1466POPC   C4B22522  36.826   7.049   7.439
 1467POPC   NC322523  25.009  43.586   9.577
 1467POPC   PO422524  25.599  43.993   9.706
 1467POPC   GL122525  25.321  43.937   9.296
 1467POPC   GL222526  25.043  44.176   9.299
 1467POPC   C1A22527  25.218  43.761   8.847
 1467POPC   D2A22528  25.322  43.716   8.369
 1467POPC   C3A22529  24.944  43.696   8.112
 1467POPC   C4A22530  24.918  43.612   7.668
 1467POPC   C1B22531  25.139  44.274   8.852
 1467POPC   C2B22532  25.050  44.125   8.433
 1467POPC   C3B22533  25.158  44.132   7.970
 1467POPC   C4B22534  25.096  44.173   7.490
 1468POPC   NC322535  36.316  36.179   9.456
 1468POPC   PO422536  35.660  36.212   9.580
 1468POPC   GL122537  35.877  36.150   9.118
 1468POPC   GL222538  36.220  36.044   8.986
 1468POPC   C1A22539  35.849  36.047   8.629
 1468POPC   D2A22540  36.033  35.881   8.240
 1468POPC   C3A22541  35.857  36.115   7.916
 1468POPC   C4A22542  35.661  35.855   7.654
 1468POPC   C1B22543  36.521  36.229   8.697
 1468POPC   C2B22544  36.622  36.119   8.272
 1468POPC   C3B22545  36.362  36.143   7.911
 1468POPC   C4B22546  36.486  36.127   7.464
 1469POPC   NC322547  31.678  41.082   9.397
 1469POPC   PO422548  31.575  40.398   9.260
 1469POPC   GL122549  31.711  40.730   9.014
 1469POPC   GL222550  31.396  40.920   8.995
 1469POPC   C1A22551  31.672  40.802   8.578
 1469POPC   D2A22552  31.316  41.021   8.410
 1469POPC   C3A22553  31.361  40.956   7.985
 1469POPC   C4A22554  31.706  40.986   7.663
 1469POPC   C1B22555  31.236  40.591   8.698
 1469POPC   C2B22556  31.003  40.627   8.300
 1469POPC   C3B22557  31.026  40.375   7.935
 1469POPC   C4B22558  31.308  40.523   7.665
 1470POPC   NC322559  25.321  21.837   9.492
 1470POPC   PO422560  25.509  21.194   9.629
 1470POPC   GL122561  25.340  21.215   9.228
 1470POPC   GL222562  25.663  21.208   9.114
 1470POPC   C1A22563  25.257  21.326   8.800
 1470POPC   D2A22564  25.509  21.542   8.507
 1470POPC   C3A22565  25.337  21.604   8.100
 1470POPC   C4A22566  25.547  21.775   7.742
 1470POPC   C1B22567  25.698  21.059   8.704
 1470POPC   C2B22568  25.558  21.100   8.271
 1470POPC   C3B22569  25.483  21.174   7.870
 1470POPC   C4B22570  25.099  21.308   7.735
 1471POPC   NC322571   4.893  10.027   9.567
 1471POPC   PO422572   5.396   9.635   9.476
 1471POPC   GL122573   5.129   9.809   9.143
 1471POPC   GL222574   4.770   9.694   9.192
 1471POPC   C1A22575   5.149   9.772   8.697
 1471POPC   D2A22576   5.449   9.755   8.360
 1471POPC   C3A22577   5.294   9.553   8.008
 1471POPC   C4A22578   5.249   9.469   7.589
 1471POPC   C1B22579   4.659   9.959   8.849
 1471POPC   C2B22580   4.858  10.131   8.468
 1471POPC   C3B22581   5.073  10.023   8.104
 1471POPC   C4B22582   4.947   9.878   7.716
 1472POPC   NC322583   4.727  27.158   9.216
 1472POPC   PO422584   5.297  27.429   9.500
 1472POPC   GL122585   5.221  27.664   9.140
 1472POPC   GL222586   4.903  27.628   9.121
 1472POPC   C1A22587   5.366  27.927   8.810
 1472POPC   D2A22588   5.519  27.906   8.412
 1472POPC   C3A22589   5.271  27.924   8.057
 1472POPC   C4A22590   5.075  27.829   7.670
 1472POPC   C1B22591   4.923  27.467   8.676
 1472POPC   C2B22592   4.849  27.341   8.243
 1472POPC   C3B22593   4.715  27.281   7.806
 1472POPC   C4B22594   4.781  27.502   7.405
 1473POPC   NC322595   3.345  24.979   9.502
 1473POPC   PO422596   3.721  25.450   9.435
 1473POPC   GL122597   3.416  25.358   9.150
 1473POPC   GL222598   3.518  25.068   9.036
 1473POPC   C1A22599   3.206  25.381   8.769
 1473POPC   D2A22600   3.393  25.439   8.390
 1473POPC   C3A22601   3.119  25.617   8.111
 1473POPC   C4A22602   3.216  25.440   7.731
 1473POPC   C1B22603   3.726  25.194   8.712
 1473POPC   C2B22604   3.961  25.264   8.381
 1473POPC   C3B22605   3.740  25.283   8.001
 1473POPC   C4B22606   3.830  25.556   7.674
 1474POPC   NC322607  30.147  35.874   9.568
 1474POPC   PO422608  30.222  36.496   9.282
 1474POPC   GL122609  29.972  36.159   9.045
 1474POPC   GL222610  29.643  36.038   9.161
 1474POPC   C1A22611  29.780  36.278   8.661
 1474POPC   D2A22612  29.803  36.595   8.340
 1474POPC   C3A22613  29.876  36.390   7.983
 1474POPC   C4A22614  29.784  36.352   7.583
 1474POPC   C1B22615  29.490  35.847   8.771
 1474POPC   C2B22616  29.692  35.859   8.349
 1474POPC   C3B22617  29.720  35.909   7.869
 1474POPC   C4B22618  29.962  35.889   7.458
 1475POPC   NC322619  10.701  34.201   9.782
 1475POPC   PO422620  10.236  33.814   9.440
 1475POPC   GL122621  10.380  33.764   9.068
 1475POPC   GL222622  10.666  33.588   9.125
 1475POPC   C1A22623  10.455  33.888   8.670
 1475POPC   D2A22624  10.323  33.729   8.300
 1475POPC   C3A22625  10.472  34.046   8.094
 1475POPC   C4A22626  10.636  34.097   7.737
 1475POPC   C1B22627  10.905  33.644   8.770
 1475POPC   C2B22628  10.857  33.645   8.348
 1475POPC   C3B22629  10.731  33.645   7.937
 1475POPC   C4B22630  10.739  33.655   7.488
 1476POPC   NC322631  32.503   9.815   9.625
 1476POPC   PO422632  31.894  10.075   9.573
 1476POPC   GL122633  31.828   9.958   9.160
 1476POPC   GL222634  31.953   9.636   9.115
 1476POPC   C1A22635  32.004  10.063   8.775
 1476POPC   D2A22636  32.047   9.808   8.412
 1476POPC   C3A22637  32.169   9.988   8.056
 1476POPC   C4A22638  32.525   9.957   7.789
 1476POPC   C1B22639  32.322   9.636   8.812
 1476POPC   C2B22640  32.476   9.552   8.358
 1476POPC   C3B22641  32.332   9.489   7.916
 1476POPC   C4B22642  32.512   9.528   7.498
 1477POPC   NC322643  14.119  25.427   9.716
 1477POPC   PO422644  13.522  25.511   9.447
 1477POPC   GL122645  13.527  25.328   9.061
 1477POPC   GL222646  13.862  25.237   9.098
 1477POPC   C1A22647  13.554  25.125   8.628
 1477POPC   D2A22648  13.599  25.150   8.166
 1477POPC   C3A22649  13.345  25.244   7.858
 1477POPC   C4A22650  13.450  25.173   7.443
 1477POPC   C1B22651  13.883  25.514   8.715
 1477POPC   C2B22652  13.972  25.426   8.319
 1477POPC   C3B22653  13.834  25.621   7.927
 1477POPC   C4B22654  13.720  25.585   7.516
 1478POPC   NC322655   2.574   7.657   9.668
 1478POPC   PO422656   2.980   7.119   9.622
 1478POPC   GL122657   2.933   7.402   9.268
 1478POPC   GL222658   2.600   7.359   9.206
 1478POPC   C1A22659   3.006   7.475   8.824
 1478POPC   D2A22660   3.100   7.276   8.422
 1478POPC   C3A22661   2.821   7.400   8.082
 1478POPC   C4A22662   2.800   7.253   7.652
 1478POPC   C1B22663   2.434   7.460   8.765
 1478POPC   C2B22664   2.409   7.589   8.333
 1478POPC   C3B22665   2.330   7.460   7.895
 1478POPC   C4B22666   2.605   7.746   7.685
 1479POPC   NC322667   7.324  42.615   9.520
 1479POPC   PO422668   7.941  42.298   9.515
 1479POPC   GL122669   7.602  42.256   9.258
 1479POPC   GL222670   7.679  42.541   9.059
 1479POPC   C1A22671   7.264  42.206   8.962
 1479POPC   D2A22672   7.267  42.294   8.526
 1479POPC   C3A22673   7.380  42.362   8.073
 1479POPC   C4A22674   7.092  42.231   7.762
 1479POPC   C1B22675   7.928  42.732   8.698
 1479POPC   C2B22676   7.840  42.846   8.241
 1479POPC   C3B22677   7.737  42.682   7.802
 1479POPC   C4B22678   7.772  42.639   7.325
 1480POPC   NC322679  33.248  34.385   9.662
 1480POPC   PO422680  33.943  34.234   9.674
 1480POPC   GL122681  33.998  34.519   9.340
 1480POPC   GL222682  33.705  34.588   9.213
 1480POPC   C1A22683  34.112  34.567   8.878
 1480POPC   D2A22684  34.000  34.638   8.443
 1480POPC   C3A22685  33.984  34.410   8.064
 1480POPC   C4A22686  33.819  34.591   7.698
 1480POPC   C1B22687  33.614  34.718   8.795
 1480POPC   C2B22688  33.479  34.620   8.383
 1480POPC   C3B22689  33.486  34.843   8.004
 1480POPC   C4B22690  33.532  35.090   7.635
 1481POPC   NC322691  36.404  32.513   9.914
 1481POPC   PO422692  35.998  32.136   9.535
 1481POPC   GL122693  36.028  32.110   9.090
 1481POPC   GL222694  35.727  31.962   8.977
 1481POPC   C1A22695  36.216  32.302   8.716
 1481POPC   D2A22696  36.378  32.098   8.346
 1481POPC   C3A22697  36.296  32.268   7.959
 1481POPC   C4A22698  36.384  32.028   7.615
 1481POPC   C1B22699  35.701  32.361   8.695
 1481POPC   C2B22700  35.896  32.446   8.264
 1481POPC   C3B22701  35.833  32.400   7.792
 1481POPC   C4B22702  35.670  32.468   7.379
 1482POPC   NC322703   5.477  14.137   9.442
 1482POPC   PO422704   4.950  14.555   9.410
 1482POPC   GL122705   5.195  14.451   9.099
 1482POPC   GL222706   5.099  14.127   9.069
 1482POPC   C1A22707   5.154  14.461   8.649
 1482POPC   D2A22708   5.310  14.430   8.222
 1482POPC   C3A22709   4.935  14.513   7.955
 1482POPC   C4A22710   5.005  14.755   7.563
 1482POPC   C1B22711   5.463  14.079   8.791
 1482POPC   C2B22712   5.642  14.016   8.381
 1482POPC   C3B22713   5.652  14.135   7.960
 1482POPC   C4B22714   5.299  14.300   7.699
 1483POPC   NC322715  19.270  44.858   9.324
 1483POPC   PO422716  18.717  44.781   9.767
 1483POPC   GL122717  18.730  44.672   9.288
 1483POPC   GL222718  18.646  44.956   9.073
 1483POPC   C1A22719  18.851  44.549   8.827
 1483POPC   D2A22720  19.116  44.687   8.447
 1483POPC   C3A22721  19.067  44.552   7.996
 1483POPC   C4A22722  18.924  44.628   7.556
 1483POPC   C1B22723  18.829   0.066   8.677
 1483POPC   C2B22724  18.768   0.030   8.232
 1483POPC   C3B22725  18.981   0.052   7.850
 1483POPC   C4B22726  19.019   0.088   7.400
 1484POPC   NC322727   8.526  28.959   9.420
 1484POPC   PO422728   8.012  29.472   9.473
 1484POPC   GL122729   8.294  29.329   9.138
 1484POPC   GL222730   7.969  29.341   8.962
 1484POPC   C1A22731   8.321  29.029   8.732
 1484POPC   D2A22732   8.200  28.872   8.283
 1484POPC   C3A22733   8.310  29.041   7.857
 1484POPC   C4A22734   8.338  29.059   7.390
 1484POPC   C1B22735   8.284  29.546   8.684
 1484POPC   C2B22736   8.285  29.488   8.258
 1484POPC   C3B22737   7.924  29.292   8.070
 1484POPC   C4B22738   7.865  29.197   7.641
 1485POPC   NC322739   7.279  18.681   9.441
 1485POPC   PO422740   7.771  18.339   9.255
 1485POPC   GL122741   7.464  18.362   8.984
 1485POPC   GL222742   7.138  18.276   9.121
 1485POPC   C1A22743   7.350  18.072   8.657
 1485POPC   D2A22744   7.463  17.944   8.278
 1485POPC   C3A22745   7.527  18.074   7.888
 1485POPC   C4A22746   7.776  18.413   7.875
 1485POPC   C1B22747   7.066  18.477   8.694
 1485POPC   C2B22748   7.176  18.422   8.243
 1485POPC   C3B22749   7.150  18.440   7.786
 1485POPC   C4B22750   6.992  18.495   7.319
 1486POPC   NC322751   2.362  32.761   9.484
 1486POPC   PO422752   2.866  33.116   9.487
 1486POPC   GL122753   2.679  32.951   9.107
 1486POPC   GL222754   2.611  33.287   9.012
 1486POPC   C1A22755   2.604  32.998   8.618
 1486POPC   D2A22756   2.664  33.164   8.234
 1486POPC   C3A22757   2.841  32.914   7.985
 1486POPC   C4A22758   3.035  32.799   7.639
 1486POPC   C1B22759   2.263  33.364   8.693
 1486POPC   C2B22760   2.244  33.427   8.235
 1486POPC   C3B22761   2.367  33.383   7.784
 1486POPC   C4B22762   2.340  33.247   7.321
 1487POPC   NC322763  20.698   6.164   9.605
 1487POPC   PO422764  20.938   6.790   9.403
 1487POPC   GL122765  20.630   6.812   9.077
 1487POPC   GL222766  20.540   6.471   9.106
 1487POPC   C1A22767  20.539   6.769   8.627
 1487POPC   D2A22768  20.245   6.807   8.293
 1487POPC   C3A22769  20.363   6.748   7.858
 1487POPC   C4A22770  20.249   6.708   7.419
 1487POPC   C1B22771  20.722   6.313   8.697
 1487POPC   C2B22772  20.620   6.391   8.232
 1487POPC   C3B22773  20.677   6.131   7.826
 1487POPC   C4B22774  20.724   5.962   7.375
 1488POPC   NC322775   7.212  21.091   9.330
 1488POPC   PO422776   7.782  21.447   9.450
 1488POPC   GL122777   7.570  21.347   9.057
 1488POPC   GL222778   7.288  21.518   8.969
 1488POPC   C1A22779   7.647  21.329   8.597
 1488POPC   D2A22780   7.529  21.611   8.246
 1488POPC   C3A22781   7.408  21.432   7.872
 1488POPC   C4A22782   7.294  21.046   7.673
 1488POPC   C1B22783   7.128  21.446   8.552
 1488POPC   C2B22784   6.808  21.351   8.221
 1488POPC   C3B22785   6.871  21.269   7.805
 1488POPC   C4B22786   7.150  21.501   7.451
 1489POPC   NC322787   5.652   1.383   9.500
 1489POPC   PO422788   6.250   1.260   9.750
 1489POPC   GL122789   6.191   1.292   9.211
 1489POPC   GL222790   5.850   1.435   9.051
 1489POPC   C1A22791   6.176   1.377   8.700
 1489POPC   D2A22792   5.929   1.459   8.314
 1489POPC   C3A22793   6.100   1.402   7.918
 1489POPC   C4A22794   5.953   1.210   7.543
 1489POPC   C1B22795   5.621   1.300   8.693
 1489POPC   C2B22796   5.443   1.350   8.298
 1489POPC   C3B22797   5.573   1.420   7.861
 1489POPC   C4B22798   5.552   1.482   7.356
 1490POPC   NC322799  17.009  12.629   9.525
 1490POPC   PO422800  16.631  13.029   9.370
 1490POPC   GL122801  16.643  12.695   9.061
 1490POPC   GL222802  16.986  12.654   9.004
 1490POPC   C1A22803  16.620  12.568   8.619
 1490POPC   D2A22804  16.429  12.773   8.238
 1490POPC   C3A22805  16.515  12.667   7.800
 1490POPC   C4A22806  16.533  12.612   7.330
 1490POPC   C1B22807  16.963  12.945   8.643
 1490POPC   C2B22808  16.931  12.847   8.187
 1490POPC   C3B22809  17.040  12.670   7.764
 1490POPC   C4B22810  17.056  12.546   7.307
 1491POPC   NC322811   4.124  23.915   9.443
 1491POPC   PO422812   4.521  23.379   9.513
 1491POPC   GL122813   4.364  23.572   9.127
 1491POPC   GL222814   3.987  23.564   9.081
 1491POPC   C1A22815   4.418  23.485   8.679
 1491POPC   D2A22816   4.222  23.376   8.287
 1491POPC   C3A22817   4.424  23.370   7.890
 1491POPC   C4A22818   4.293  23.640   7.585
 1491POPC   C1B22819   4.128  23.885   8.769
 1491POPC   C2B22820   4.101  23.868   8.332
 1491POPC   C3B22821   4.242  24.040   7.966
 1491POPC   C4B22822   3.954  24.017   7.664
 1492POPC   NC322823   8.194  35.907   9.569
 1492POPC   PO422824   8.584  36.549   9.486
 1492POPC   GL122825   8.338  36.184   9.188
 1492POPC   GL222826   8.229  35.779   9.094
 1492POPC   C1A22827   8.465  36.087   8.767
 1492POPC   D2A22828   8.446  36.346   8.428
 1492POPC   C3A22829   8.249  36.262   8.074
 1492POPC   C4A22830   8.142  36.152   7.658
 1492POPC   C1B22831   8.164  35.549   8.696
 1492POPC   C2B22832   8.387  35.642   8.317
 1492POPC   C3B22833   8.431  35.790   7.885
 1492POPC   C4B22834   8.381  35.706   7.433
 1493POPC   NC322835  11.620  22.984   9.170
 1493POPC   PO422836  11.279  22.536   9.554
 1493POPC   GL122837  11.193  22.638   9.131
 1493POPC   GL222838  10.828  22.680   9.120
 1493POPC   C1A22839  11.377  22.583   8.708
 1493POPC   D2A22840  11.635  22.807   8.384
 1493POPC   C3A22841  11.635  22.631   7.967
 1493POPC   C4A22842  11.535  22.867   7.589
 1493POPC   C1B22843  10.972  23.022   8.858
 1493POPC   C2B22844  11.165  23.012   8.470
 1493POPC   C3B22845  11.290  23.014   8.053
 1493POPC   C4B22846  11.080  23.078   7.672
 1494POPC   NC322847  19.390   8.078   9.514
 1494POPC   PO422848  20.019   8.173   9.559
 1494POPC   GL122849  19.762   8.204   9.133
 1494POPC   GL222850  19.665   8.451   8.896
 1494POPC   C1A22851  19.948   8.036   8.730
 1494POPC   D2A22852  19.867   8.101   8.299
 1494POPC   C3A22853  20.074   8.047   7.911
 1494POPC   C4A22854  19.952   8.182   7.482
 1494POPC   C1B22855  19.434   8.134   8.590
 1494POPC   C2B22856  19.396   7.994   8.150
 1494POPC   C3B22857  19.579   8.294   7.874
 1494POPC   C4B22858  19.439   8.490   7.515
 1495POPC   NC322859  35.369  15.332   9.581
 1495POPC   PO422860  35.857  14.858   9.357
 1495POPC   GL122861  35.562  15.093   9.155
 1495POPC   GL222862  35.204  15.051   9.183
 1495POPC   C1A22863  35.492  15.063   8.738
 1495POPC   D2A22864  35.377  15.305   8.397
 1495POPC   C3A22865  35.259  15.076   8.084
 1495POPC   C4A22866  35.485  14.912   7.764
 1495POPC   C1B22867  35.093  15.364   8.869
 1495POPC   C2B22868  34.892  15.420   8.477
 1495POPC   C3B22869  34.993  15.528   8.070
 1495POPC   C4B22870  35.093  15.298   7.668
 1496POPC   NC322871   9.158  35.642   9.539
 1496POPC   PO422872   8.906  35.052   9.471
 1496POPC   GL122873   8.912  35.316   9.149
 1496POPC   GL222874   8.677  35.572   9.311
 1496POPC   C1A22875   8.908  35.196   8.699
 1496POPC   D2A22876   8.994  34.899   8.346
 1496POPC   C3A22877   9.040  35.135   7.942
 1496POPC   C4A22878   9.002  35.051   7.513
 1496POPC   C1B22879   8.648  35.620   8.858
 1496POPC   C2B22880   8.888  35.682   8.507
 1496POPC   C3B22881   8.857  35.579   8.109
 1496POPC   C4B22882   8.933  35.623   7.703
 1497POPC   NC322883   5.859   2.981   9.443
 1497POPC   PO422884   5.874   3.667   9.521
 1497POPC   GL122885   5.875   3.429   9.163
 1497POPC   GL222886   5.825   3.767   9.018
 1497POPC   C1A22887   5.859   3.337   8.724
 1497POPC   D2A22888   5.777   3.209   8.324
 1497POPC   C3A22889   5.996   3.296   8.004
 1497POPC   C4A22890   5.939   3.337   7.593
 1497POPC   C1B22891   6.064   3.959   8.695
 1497POPC   C2B22892   5.985   3.723   8.333
 1497POPC   C3B22893   5.582   3.655   8.157
 1497POPC   C4B22894   5.373   3.716   7.782
 1498POPC   NC322895  36.453  32.808   9.338
 1498POPC   PO422896  35.888  33.077   9.526
 1498POPC   GL122897  36.081  33.140   9.117
 1498POPC   GL222898  36.391  33.366   9.081
 1498POPC   C1A22899  35.896  32.925   8.721
 1498POPC   D2A22900  35.628  32.891   8.334
 1498POPC   C3A22901  35.820  32.898   7.934
 1498POPC   C4A22902  36.240  32.758   7.812
 1498POPC   C1B22903  36.398  33.054   8.733
 1498POPC   C2B22904  36.196  33.043   8.330
 1498POPC   C3B22905  36.533  33.059   8.101
 1498POPC   C4B22906  36.647  33.152   7.721
 1499POPC   NC322907  10.650  21.642   9.912
 1499POPC   PO422908  10.517  22.221   9.562
 1499POPC   GL122909  10.309  22.093   9.182
 1499POPC   GL222910  10.282  22.445   9.086
 1499POPC   C1A22911  10.443  21.849   8.814
 1499POPC   D2A22912  10.733  21.961   8.491
 1499POPC   C3A22913  10.471  21.877   8.129
 1499POPC   C4A22914  10.452  21.951   7.716
 1499POPC   C1B22915  10.429  22.353   8.698
 1499POPC   C2B22916  10.505  22.373   8.269
 1499POPC   C3B22917  10.741  22.319   7.896
 1499POPC   C4B22918  10.896  22.279   7.449
 1500POPC   NC322919  40.346  31.481   9.837
 1500POPC   PO422920  39.697  31.417   9.550
 1500POPC   GL122921  39.810  31.617   9.165
 1500POPC   GL222922  40.129  31.608   9.156
 1500POPC   C1A22923  39.810  31.419   8.758
 1500POPC   D2A22924  40.047  31.236   8.442
 1500POPC   C3A22925  40.079  31.592   8.163
 1500POPC   C4A22926  40.045  31.839   7.765
 1500POPC   C1B22927  40.292  31.606   8.719
 1500POPC   C2B22928  40.544  31.390   8.376
 1500POPC   C3B22929  40.382  31.190   8.010
 1500POPC   C4B22930  40.127  31.332   7.719
 1501POPC   NC322931  12.520  12.308   9.598
 1501POPC   PO422932  13.095  11.882   9.655
 1501POPC   GL122933  12.894  12.004   9.269
 1501POPC   GL222934  12.792  12.363   9.166
 1501POPC   C1A22935  13.053  12.063   8.860
 1501POPC   D2A22936  13.163  12.350   8.541
 1501POPC   C3A22937  13.176  12.240   8.099
 1501POPC   C4A22938  12.997  12.053   7.704
 1501POPC   C1B22939  12.653  12.500   8.746
 1501POPC   C2B22940  12.749  12.599   8.310
 1501POPC   C3B22941  12.685  12.347   7.968
 1501POPC   C4B22942  12.532  12.276   7.566
 1502POPC   NC322943   8.157   9.832   9.534
 1502POPC   PO422944   7.907   9.352   9.278
 1502POPC   GL122945   8.027   9.711   9.049
 1502POPC   GL222946   7.923  10.060   9.119
 1502POPC   C1A22947   8.167   9.687   8.640
 1502POPC   D2A22948   8.014   9.623   8.231
 1502POPC   C3A22949   8.318   9.802   7.962
 1502POPC   C4A22950   8.476   9.619   7.608
 1502POPC   C1B22951   7.809  10.038   8.689
 1502POPC   C2B22952   7.865  10.105   8.258
 1502POPC   C3B22953   7.858   9.960   7.842
 1502POPC   C4B22954   7.756   9.546   7.648
 1503POPC   NC322955   0.769  17.904   9.320
 1503POPC   PO422956   0.286  18.347   9.475
 1503POPC   GL122957   0.425  18.391   9.052
 1503POPC   GL222958   0.496  18.093   8.950
 1503POPC   C1A22959   0.196  18.362   8.638
 1503POPC   D2A22960   0.230  18.043   8.318
 1503POPC   C3A22961   0.241  18.243   7.928
 1503POPC   C4A22962   0.464  18.503   7.653
 1503POPC   C1B22963   0.697  18.263   8.584
 1503POPC   C2B22964   0.708  18.221   8.121
 1503POPC   C3B22965   0.822  18.043   7.698
 1503POPC   C4B22966   0.774  17.801   7.298
 1504POPC   NC322967  22.475  42.813   9.780
 1504POPC   PO422968  21.836  43.057   9.651
 1504POPC   GL122969  22.115  43.197   9.289
 1504POPC   GL222970  22.369  42.972   9.272
 1504POPC   C1A22971  22.029  43.146   8.839
 1504POPC   D2A22972  22.113  42.967   8.456
 1504POPC   C3A22973  21.956  43.051   8.048
 1504POPC   C4A22974  22.075  43.133   7.614
 1504POPC   C1B22975  22.484  42.923   8.843
 1504POPC   C2B22976  22.613  42.911   8.414
 1504POPC   C3B22977  22.472  43.021   8.007
 1504POPC   C4B22978  22.557  43.037   7.581
 1505POPC   NC322979  10.169  14.368   9.316
 1505POPC   PO422980  10.706  14.120   9.644
 1505POPC   GL122981  10.676  14.372   9.238
 1505POPC   GL222982  10.647  14.146   9.007
 1505POPC   C1A22983  10.720  14.659   8.852
 1505POPC   D2A22984  10.726  14.827   8.386
 1505POPC   C3A22985  10.577  14.671   7.998
 1505POPC   C4A22986  10.792  14.323   7.794
 1505POPC   C1B22987  10.428  14.313   8.641
 1505POPC   C2B22988  10.167  14.196   8.311
 1505POPC   C3B22989  10.303  14.238   7.909
 1505POPC   C4B22990  10.358  14.465   7.550
 1506POPC   NC322991  14.649   7.329   9.428
 1506POPC   PO422992  15.301   7.133   9.494
 1506POPC   GL122993  15.239   7.411   9.177
 1506POPC   GL222994  15.549   7.314   9.049
 1506POPC   C1A22995  15.020   7.356   8.786
 1506POPC   D2A22996  14.874   7.659   8.476
 1506POPC   C3A22997  15.006   7.702   8.033
 1506POPC   C4A22998  14.959   7.311   7.825
 1506POPC   C1B22999  15.483   7.536   8.694
 1506POPC   C2B23000  15.293   7.391   8.338
 1506POPC   C3B23001  15.453   7.399   7.968
 1506POPC   C4B23002  15.663   7.533   7.631
 1507POPC   NC323003  28.194   5.525   9.379
 1507POPC   PO423004  28.578   6.063   9.503
 1507POPC   GL123005  28.594   5.769   9.149
 1507POPC   GL223006  28.256   5.836   8.990
 1507POPC   C1A23007  28.537   5.504   8.759
 1507POPC   D2A23008  28.586   5.738   8.371
 1507POPC   C3A23009  28.198   5.844   8.161
 1507POPC   C4A23010  28.143   5.941   7.740
 1507POPC   C1B23011  28.533   6.096   8.752
 1507POPC   C2B23012  28.443   6.251   8.371
 1507POPC   C3B23013  28.588   6.132   7.969
 1507POPC   C4B23014  28.712   6.186   7.546
 1508POPC   NC323015  38.888  14.572   9.451
 1508POPC   PO423016  39.214  13.892   9.568
 1508POPC   GL123017  39.052  14.126   9.171
 1508POPC   GL223018  39.036  14.467   8.977
 1508POPC   C1A23019  39.164  14.024   8.725
 1508POPC   D2A23020  39.443  13.975   8.350
 1508POPC   C3A23021  39.194  13.991   7.978
 1508POPC   C4A23022  39.084  14.341   7.734
 1508POPC   C1B23023  39.395  14.468   8.672
 1508POPC   C2B23024  39.321  14.450   8.205
 1508POPC   C3B23025  39.474  14.720   7.887
 1508POPC   C4B23026  39.216  14.895   7.597
 1509POPC   NC323027  20.696  39.147   9.493
 1509POPC   PO423028  20.042  39.349   9.520
 1509POPC   GL123029  20.296  39.420   9.172
 1509POPC   GL223030  20.372  39.092   9.090
 1509POPC   C1A23031  20.162  39.372   8.715
 1509POPC   D2A23032  20.080  39.318   8.262
 1509POPC   C3A23033  20.461  39.329   7.970
 1509POPC   C4A23034  20.719  39.476   7.605
 1509POPC   C1B23035  20.667  39.265   8.775
 1509POPC   C2B23036  20.809  39.222   8.338
 1509POPC   C3B23037  20.905  39.040   7.899
 1509POPC   C4B23038  20.883  39.019   7.422
 1510POPC   NC323039  37.921  17.162   9.491
 1510POPC   PO423040  37.783  16.455   9.420
 1510POPC   GL123041  37.617  16.708   9.080
 1510POPC   GL223042  37.623  17.061   9.082
 1510POPC   C1A23043  37.644  16.832   8.622
 1510POPC   D2A23044  37.950  16.939   8.279
 1510POPC   C3A23045  37.939  16.655   7.914
 1510POPC   C4A23046  37.576  16.575   7.646
 1510POPC   C1B23047  37.253  17.097   8.813
 1510POPC   C2B23048  37.153  16.980   8.381
 1510POPC   C3B23049  37.445  16.860   8.059
 1510POPC   C4B23050  37.764  17.115   7.823
 1511POPC   NC323051  38.805  23.433   9.150
 1511POPC   PO423052  38.197  23.528   9.564
 1511POPC   GL123053  38.315  23.631   9.142
 1511POPC   GL223054  38.083  23.887   9.064
 1511POPC   C1A23055  38.377  23.680   8.688
 1511POPC   D2A23056  38.644  23.745   8.319
 1511POPC   C3A23057  38.619  23.629   7.883
 1511POPC   C4A23058  38.631  23.915   7.540
 1511POPC   C1B23059  37.840  23.823   8.729
 1511POPC   C2B23060  38.066  23.963   8.397
 1511POPC   C3B23061  38.182  23.855   8.003
 1511POPC   C4B23062  38.133  24.007   7.587
 1512POPC   NC323063  21.600  40.734   9.446
 1512POPC   PO423064  20.944  40.690   9.381
 1512POPC   GL123065  21.222  40.727   9.090
 1512POPC   GL223066  21.272  41.066   9.225
 1512POPC   C1A23067  21.524  40.877   8.801
 1512POPC   D2A23068  21.634  40.687   8.409
 1512POPC   C3A23069  21.511  40.810   8.002
 1512POPC   C4A23070  21.337  40.506   7.745
 1512POPC   C1B23071  21.047  41.125   8.832
 1512POPC   C2B23072  21.200  41.007   8.436
 1512POPC   C3B23073  21.113  41.148   8.102
 1512POPC   C4B23074  21.108  40.971   7.729
 1513POPC   NC323075  37.062  27.839   9.473
 1513POPC   PO423076  37.078  27.165   9.325
 1513POPC   GL123077  37.119  27.535   9.060
 1513POPC   GL223078  36.762  27.696   9.062
 1513POPC   C1A23079  37.085  27.821   8.699
 1513POPC   D2A23080  36.766  27.858   8.399
 1513POPC   C3A23081  36.888  27.643   8.042
 1513POPC   C4A23082  36.950  27.765   7.640
 1513POPC   C1B23083  36.731  27.401   8.672
 1513POPC   C2B23084  36.705  27.189   8.231
 1513POPC   C3B23085  36.671  27.238   7.773
 1513POPC   C4B23086  36.655  27.460   7.352
 1514POPC   NC323087  27.960  31.635   9.588
 1514POPC   PO423088  27.302  31.608   9.489
 1514POPC   GL123089  27.624  31.501   9.213
 1514POPC   GL223090  27.442  31.308   9.010
 1514POPC   C1A23091  27.774  31.633   8.822
 1514POPC   D2A23092  27.761  31.492   8.430
 1514POPC   C3A23093  27.716  31.725   8.050
 1514POPC   C4A23094  27.821  31.566   7.618
 1514POPC   C1B23095  27.249  31.320   8.642
 1514POPC   C2B23096  27.245  31.564   8.280
 1514POPC   C3B23097  27.313  31.467   7.872
 1514POPC   C4B23098  27.183  31.137   7.618
 1515POPC   NC323099   4.144   4.735   9.678
 1515POPC   PO423100   4.377   4.159   9.558
 1515POPC   GL123101   4.345   4.304   9.181
 1515POPC   GL223102   4.045   4.561   9.159
 1515POPC   C1A23103   4.606   4.156   8.795
 1515POPC   D2A23104   4.807   4.083   8.375
 1515POPC   C3A23105   4.734   4.336   7.993
 1515POPC   C4A23106   4.528   4.247   7.580
 1515POPC   C1B23107   4.258   4.529   8.761
 1515POPC   C2B23108   4.378   4.381   8.355
 1515POPC   C3B23109   4.294   4.568   7.961
 1515POPC   C4B23110   3.978   4.754   7.761
 1516POPC   NC323111  40.477  34.100   9.449
 1516POPC   PO423112  39.815  34.050   9.464
 1516POPC   GL123113  39.965  33.698   9.172
 1516POPC   GL223114  40.360  33.710   9.113
 1516POPC   C1A23115  40.027  33.711   8.726
 1516POPC   D2A23116  39.939  34.113   8.526
 1516POPC   C3A23117  39.845  34.067   8.057
 1516POPC   C4A23118  39.874  33.971   7.602
 1516POPC   C1B23119  40.501  33.923   8.699
 1516POPC   C2B23120  40.342  33.985   8.264
 1516POPC   C3B23121  40.244  33.758   7.895
 1516POPC   C4B23122  40.333  33.837   7.442
 1517POPC   NC323123  25.064   6.712   9.637
 1517POPC   PO423124  25.442   6.213   9.348
 1517POPC   GL123125  25.485   6.660   9.216
 1517POPC   GL223126  25.185   6.883   9.175
 1517POPC   C1A23127  25.546   6.762   8.791
 1517POPC   D2A23128  25.383   6.560   8.388
 1517POPC   C3A23129  25.454   6.843   8.030
 1517POPC   C4A23130  25.633   6.780   7.645
 1517POPC   C1B23131  25.063   6.663   8.807
 1517POPC   C2B23132  25.030   6.902   8.417
 1517POPC   C3B23133  24.985   6.667   8.040
 1517POPC   C4B23134  25.175   6.526   7.697
 1518POPC   NC323135  41.996  42.123   9.476
 1518POPC   PO423136  42.428  41.629   9.521
 1518POPC   GL123137  42.216  41.547   9.153
 1518POPC   GL223138  41.924  41.749   9.091
 1518POPC   C1A23139  42.096  41.307   8.801
 1518POPC   D2A23140  42.353  41.287   8.432
 1518POPC   C3A23141  42.262  41.399   8.029
 1518POPC   C4A23142  42.157  41.443   7.603
 1518POPC   C1B23143  42.206  41.790   8.707
 1518POPC   C2B23144  42.250  41.958   8.300
 1518POPC   C3B23145  42.197  41.878   7.875
 1518POPC   C4B23146  42.578  41.711   7.731
 1519POPC   NC323147  37.107  22.654   9.578
 1519POPC   PO423148  36.608  23.105   9.441
 1519POPC   GL123149  37.003  23.047   9.158
 1519POPC   GL223150  37.213  22.723   9.095
 1519POPC   C1A23151  37.041  23.164   8.710
 1519POPC   D2A23152  36.776  23.143   8.325
 1519POPC   C3A23153  36.922  23.092   7.878
 1519POPC   C4A23154  36.637  23.097   7.523
 1519POPC   C1B23155  37.152  22.616   8.696
 1519POPC   C2B23156  37.192  22.814   8.304
 1519POPC   C3B23157  37.118  22.598   7.930
 1519POPC   C4B23158  36.957  22.689   7.527
 1520POPC   NC323159   8.505   8.071   9.774
 1520POPC   PO423160   7.993   7.738   9.812
 1520POPC   GL123161   8.139   7.849   9.357
 1520POPC   GL223162   8.390   8.108   9.245
 1520POPC   C1A23163   7.987   8.031   8.930
 1520POPC   D2A23164   7.970   8.299   8.550
 1520POPC   C3A23165   7.940   8.162   8.118
 1520POPC   C4A23166   7.988   8.387   7.717
 1520POPC   C1B23167   8.440   8.249   8.768
 1520POPC   C2B23168   8.429   8.230   8.279
 1520POPC   C3B23169   8.470   8.455   7.866
 1520POPC   C4B23170   8.815   8.574   7.581
 1521POPC   NC323171  24.934  34.348   9.395
 1521POPC   PO423172  24.228  34.270   9.255
 1521POPC   GL123173  24.533  34.509   9.104
 1521POPC   GL223174  24.505  34.836   9.268
 1521POPC   C1A23175  24.619  34.468   8.683
 1521POPC   D2A23176  24.494  34.324   8.290
 1521POPC   C3A23177  24.543  34.582   7.948
 1521POPC   C4A23178  24.492  34.383   7.565
 1521POPC   C1B23179  24.528  34.940   8.832
 1521POPC   C2B23180  24.288  34.809   8.469
 1521POPC   C3B23181  24.020  34.880   8.108
 1521POPC   C4B23182  24.146  34.764   7.682
 1522POPC   NC323183   2.158  44.360   9.618
 1522POPC   PO423184   1.745  44.887   9.533
 1522POPC   GL123185   1.888  44.550   9.243
 1522POPC   GL223186   2.162  44.673   9.109
 1522POPC   C1A23187   1.935  44.275   8.864
 1522POPC   D2A23188   1.664  44.367   8.495
 1522POPC   C3A23189   1.744  44.460   8.059
 1522POPC   C4A23190   2.074  44.454   7.768
 1522POPC   C1B23191   1.909  44.767   8.720
 1522POPC   C2B23192   1.987   0.056   8.368
 1522POPC   C3B23193   1.970  44.930   7.925
 1522POPC   C4B23194   2.204  44.887   7.536
 1523POPC   NC323195  35.824  41.904   9.572
 1523POPC   PO423196  36.118  41.350   9.464
 1523POPC   GL123197  36.191  41.469   9.077
 1523POPC   GL223198  36.059  41.780   9.139
 1523POPC   C1A23199  36.256  41.472   8.661
 1523POPC   D2A23200  36.078  41.398   8.272
 1523POPC   C3A23201  36.254  41.669   7.966
 1523POPC   C4A23202  36.513  41.674   7.613
 1523POPC   C1B23203  35.825  41.741   8.779
 1523POPC   C2B23204  35.978  41.884   8.391
 1523POPC   C3B23205  35.907  42.034   7.997
 1523POPC   C4B23206  35.885  41.837   7.609
 1524POPC   NC323207  37.898  20.336   9.560
 1524POPC   PO423208  37.526  20.842   9.690
 1524POPC   GL123209  37.506  20.704   9.263
 1524POPC   GL223210  37.852  20.727   9.220
 1524POPC   C1A23211  37.453  20.757   8.819
 1524POPC   D2A23212  37.419  20.561   8.430
 1524POPC   C3A23213  37.508  20.806   8.112
 1524POPC   C4A23214  37.629  20.705   7.710
 1524POPC   C1B23215  37.854  20.449   8.875
 1524POPC   C2B23216  37.923  20.632   8.493
 1524POPC   C3B23217  37.873  20.470   8.101
 1524POPC   C4B23218  38.130  20.559   7.776
 1525POPC   NC323219   1.568  36.608   9.613
 1525POPC   PO423220   2.038  37.082   9.684
 1525POPC   GL123221   1.836  37.039   9.301
 1525POPC   GL223222   2.161  37.134   9.167
 1525POPC   C1A23223   1.782  36.787   8.927
 1525POPC   D2A23224   1.664  36.935   8.500
 1525POPC   C3A23225   1.820  36.864   8.088
 1525POPC   C4A23226   1.664  36.989   7.690
 1525POPC   C1B23227   2.015  37.222   8.798
 1525POPC   C2B23228   2.168  37.076   8.428
 1525POPC   C3B23229   2.297  37.061   8.015
 1525POPC   C4B23230   2.128  37.165   7.611
 1526POPC   NC323231   2.896  41.614   9.646
 1526POPC   PO423232   2.281  41.538   9.722
 1526POPC   GL123233   2.490  41.621   9.273
 1526POPC   GL223234   2.846  41.741   9.164
 1526POPC   C1A23235   2.584  41.444   8.835
 1526POPC   D2A23236   2.479  41.316   8.425
 1526POPC   C3A23237   2.612  41.590   8.096
 1526POPC   C4A23238   2.642  41.487   7.661
 1526POPC   C1B23239   2.725  41.940   8.809
 1526POPC   C2B23240   2.899  41.813   8.448
 1526POPC   C3B23241   3.075  41.917   8.063
 1526POPC   C4B23242   2.895  41.938   7.686
 1527POPC   NC323243  30.869  35.878   9.398
 1527POPC   PO423244  30.622  36.461   9.678
 1527POPC   GL123245  30.687  36.318   9.206
 1527POPC   GL223246  30.450  36.044   9.193
 1527POPC   C1A23247  30.695  36.147   8.751
 1527POPC   D2A23248  30.659  35.968   8.295
 1527POPC   C3A23249  30.760  36.274   7.943
 1527POPC   C4A23250  30.670  36.333   7.494
 1527POPC   C1B23251  30.306  35.824   8.857
 1527POPC   C2B23252  30.196  35.726   8.428
 1527POPC   C3B23253  30.165  35.962   8.101
 1527POPC   C4B23254  30.291  36.120   7.751
 1528POPC   NC323255  23.244  13.294   9.298
 1528POPC   PO423256  23.027  13.867   9.606
 1528POPC   GL123257  23.004  13.818   9.190
 1528POPC   GL223258  23.287  13.980   9.131
 1528POPC   C1A23259  22.954  13.642   8.774
 1528POPC   D2A23260  22.812  13.779   8.374
 1528POPC   C3A23261  22.821  13.546   7.950
 1528POPC   C4A23262  22.764  13.390   7.516
 1528POPC   C1B23263  23.095  14.140   8.770
 1528POPC   C2B23264  23.002  14.255   8.344
 1528POPC   C3B23265  23.109  13.958   7.991
 1528POPC   C4B23266  23.028  13.810   7.535
 1529POPC   NC323267  26.529  33.817   9.570
 1529POPC   PO423268  27.062  34.071   9.686
 1529POPC   GL123269  26.917  33.919   9.220
 1529POPC   GL223270  26.563  33.830   9.080
 1529POPC   C1A23271  26.946  33.756   8.770
 1529POPC   D2A23272  27.170  33.641   8.424
 1529POPC   C3A23273  26.977  33.646   8.045
 1529POPC   C4A23274  27.036  33.851   7.669
 1529POPC   C1B23275  26.333  34.130   8.877
 1529POPC   C2B23276  26.429  34.248   8.479
 1529POPC   C3B23277  26.444  34.037   8.098
 1529POPC   C4B23278  26.582  34.160   7.678
 1530POPC   NC323279  17.753   4.615   9.572
 1530POPC   PO423280  17.299   4.082   9.540
 1530POPC   GL123281  17.397   4.300   9.225
 1530POPC   GL223282  17.732   4.301   9.184
 1530POPC   C1A23283  17.477   4.056   8.829
 1530POPC   D2A23284  17.250   4.169   8.451
 1530POPC   C3A23285  17.349   3.980   8.067
 1530POPC   C4A23286  17.540   4.031   7.674
 1530POPC   C1B23287  17.859   4.436   8.787
 1530POPC   C2B23288  17.798   4.184   8.420
 1530POPC   C3B23289  17.717   4.340   8.032
 1530POPC   C4B23290  17.636   4.555   7.660
 1531POPC   NC323291  31.381  39.381   9.515
 1531POPC   PO423292  31.982  39.567   9.369
 1531POPC   GL123293  31.766  39.250   9.127
 1531POPC   GL223294  31.443  39.070   9.101
 1531POPC   C1A23295  31.788  39.030   8.741
 1531POPC   D2A23296  31.923  39.082   8.339
 1531POPC   C3A23297  31.651  39.324   8.086
 1531POPC   C4A23298  31.499  39.226   7.711
 1531POPC   C1B23299  31.213  39.149   8.726
 1531POPC   C2B23300  30.992  39.192   8.354
 1531POPC   C3B23301  31.127  39.444   8.018
 1531POPC   C4B23302  31.142  39.554   7.607
 1532POPC   NC323303  20.997  31.077   9.319
 1532POPC   PO423304  20.691  30.612   9.692
 1532POPC   GL123305  20.677  30.651   9.246
 1532POPC   GL223306  20.922  30.406   9.121
 1532POPC   C1A23307  20.447  30.654   8.830
 1532POPC   D2A23308  20.285  30.609   8.376
 1532POPC   C3A23309  20.382  30.926   8.049
 1532POPC   C4A23310  20.549  30.912   7.635
 1532POPC   C1B23311  20.977  30.710   8.750
 1532POPC   C2B23312  20.829  30.776   8.290
 1532POPC   C3B23313  20.789  30.518   7.882
 1532POPC   C4B23314  20.867  30.581   7.400
 1533POPC   NC323315  33.182  35.370   9.503
 1533POPC   PO423316  32.702  34.975   9.249
 1533POPC   GL123317  32.884  35.421   9.051
 1533POPC   GL223318  33.234  35.604   9.064
 1533POPC   C1A23319  32.915  35.731   8.690
 1533POPC   D2A23320  32.887  35.635   8.239
 1533POPC   C3A23321  32.658  35.269   8.135
 1533POPC   C4A23322  32.705  35.227   7.695
 1533POPC   C1B23323  33.286  35.182   8.872
 1533POPC   C2B23324  33.281  35.100   8.413
 1533POPC   C3B23325  33.185  35.290   7.973
 1533POPC   C4B23326  33.324  35.561   7.612
 1534POPC   NC323327  22.991  35.092   9.376
 1534POPC   PO423328  23.215  35.802   9.132
 1534POPC   GL123329  22.960  35.482   9.039
 1534POPC   GL223330  22.625  35.461   9.155
 1534POPC   C1A23331  23.044  35.215   8.695
 1534POPC   D2A23332  22.901  35.035   8.309
 1534POPC   C3A23333  22.913  35.207   7.897
 1534POPC   C4A23334  22.839  35.162   7.457
 1534POPC   C1B23335  22.622  35.585   8.691
 1534POPC   C2B23336  22.633  35.500   8.246
 1534POPC   C3B23337  22.661  35.785   7.918
 1534POPC   C4B23338  22.901  35.642   7.595
 1535POPC   NC323339  33.341  32.749   9.630
 1535POPC   PO423340  32.799  33.189   9.489
 1535POPC   GL123341  32.995  32.919   9.213
 1535POPC   GL223342  32.843  32.598   9.288
 1535POPC   C1A23343  32.951  33.008   8.776
 1535POPC   D2A23344  33.078  33.114   8.387
 1535POPC   C3A23345  33.351  32.932   8.105
 1535POPC   C4A23346  33.086  33.018   7.758
 1535POPC   C1B23347  32.553  32.752   8.961
 1535POPC   C2B23348  32.538  32.767   8.513
 1535POPC   C3B23349  32.695  32.917   8.117
 1535POPC   C4B23350  32.530  32.881   7.705
 1536POPC   NC323351  14.133   0.472   9.827
 1536POPC   PO423352  14.658   0.738   9.528
 1536POPC   GL123353  14.593   0.513   9.138
 1536POPC   GL223354  14.259   0.357   9.079
 1536POPC   C1A23355  14.601   0.421   8.693
 1536POPC   D2A23356  14.310   0.521   8.355
 1536POPC   C3A23357  14.495   0.427   7.949
 1536POPC   C4A23358  14.324   0.397   7.537
 1536POPC   C1B23359  14.188   0.114   8.671
 1536POPC   C2B23360  14.365   0.001   8.262
 1536POPC   C3B23361  14.239  44.983   7.817
 1536POPC   C4B23362  14.405  44.940   7.381
 1537POPC   NC323363  38.296  21.646   9.430
 1537POPC   PO423364  38.723  21.115   9.468
 1537POPC   GL123365  38.498  21.203   9.135
 1537POPC   GL223366  38.147  21.166   9.255
 1537POPC   C1A23367  38.625  21.318   8.716
 1537POPC   D2A23368  38.456  21.509   8.335
 1537POPC   C3A23369  38.445  21.197   7.996
 1537POPC   C4A23370  38.484  21.253   7.544
 1537POPC   C1B23371  38.113  21.325   8.830
 1537POPC   C2B23372  38.164  21.106   8.448
 1537POPC   C3B23373  37.983  20.968   8.096
 1537POPC   C4B23374  38.043  21.057   7.697
 1538POPC   NC323375  34.981  14.211   9.633
 1538POPC   PO423376  35.109  14.843   9.661
 1538POPC   GL123377  35.130  14.558   9.277
 1538POPC   GL223378  35.451  14.397   9.174
 1538POPC   C1A23379  35.156  14.661   8.813
 1538POPC   D2A23380  35.397  14.695   8.395
 1538POPC   C3A23381  35.223  14.441   8.044
 1538POPC   C4A23382  35.011  14.030   7.974
 1538POPC   C1B23383  35.634  14.392   8.767
 1538POPC   C2B23384  35.714  14.296   8.335
 1538POPC   C3B23385  35.722  14.418   7.927
 1538POPC   C4B23386  35.546  14.062   7.747
 1539POPC   NC323387  16.887  10.287   9.735
 1539POPC   PO423388  16.485  10.771   9.747
 1539POPC   GL123389  16.644  10.659   9.255
 1539POPC   GL223390  16.901  10.465   9.265
 1539POPC   C1A23391  16.814  10.425   8.784
 1539POPC   D2A23392  16.720  10.207   8.335
 1539POPC   C3A23393  16.868  10.395   7.945
 1539POPC   C4A23394  16.695  10.706   7.725
 1539POPC   C1B23395  17.079  10.812   8.990
 1539POPC   C2B23396  17.116  10.806   8.540
 1539POPC   C3B23397  17.155  10.777   8.099
 1539POPC   C4B23398  17.138  10.975   7.705
 1540POPC   NC323399  21.620  37.695   9.513
 1540POPC   PO423400  21.098  38.121   9.647
 1540POPC   GL123401  21.297  37.982   9.213
 1540POPC   GL223402  21.083  38.084   8.947
 1540POPC   C1A23403  21.420  37.785   8.767
 1540POPC   D2A23404  21.600  37.631   8.390
 1540POPC   C3A23405  21.419  37.646   8.007
 1540POPC   C4A23406  21.673  37.736   7.672
 1540POPC   C1B23407  20.946  38.224   8.582
 1540POPC   C2B23408  21.220  38.080   8.289
 1540POPC   C3B23409  21.111  38.021   7.871
 1540POPC   C4B23410  21.201  37.752   7.530
 1541POPC   NC323411  38.757   2.019   9.245
 1541POPC   PO423412  38.443   2.231   9.727
 1541POPC   GL123413  38.303   2.094   9.147
 1541POPC   GL223414  38.280   1.777   9.048
 1541POPC   C1A23415  38.109   2.153   8.714
 1541POPC   D2A23416  38.130   1.878   8.339
 1541POPC   C3A23417  38.213   2.153   8.038
 1541POPC   C4A23418  38.088   2.276   7.650
 1541POPC   C1B23419  38.520   1.824   8.660
 1541POPC   C2B23420  38.621   1.735   8.196
 1541POPC   C3B23421  38.507   1.865   7.753
 1541POPC   C4B23422  38.655   1.686   7.342
 1542POPC   NC323423  11.612  12.726   9.602
 1542POPC   PO423424  11.149  13.095   9.306
 1542POPC   GL123425  11.385  12.807   9.158
 1542POPC   GL223426  11.678  12.981   9.142
 1542POPC   C1A23427  11.472  12.636   8.791
 1542POPC   D2A23428  11.248  12.717   8.433
 1542POPC   C3A23429  11.444  12.783   8.045
 1542POPC   C4A23430  11.331  12.603   7.674
 1542POPC   C1B23431  11.486  13.137   8.716
 1542POPC   C2B23432  11.489  13.247   8.270
 1542POPC   C3B23433  11.236  13.260   7.872
 1542POPC   C4B23434  11.287  13.182   7.406
 1543POPC   NC323435  28.641  30.143   9.262
 1543POPC   PO423436  28.025  30.098   9.497
 1543POPC   GL123437  28.146  30.070   9.060
 1543POPC   GL223438  28.369  29.769   9.072
 1543POPC   C1A23439  28.085  30.158   8.601
 1543POPC   D2A23440  28.290  30.010   8.204
 1543POPC   C3A23441  28.628  30.248   7.997
 1543POPC   C4A23442  28.637  30.136   7.575
 1543POPC   C1B23443  28.522  29.581   8.681
 1543POPC   C2B23444  28.744  29.669   8.293
 1543POPC   C3B23445  28.679  29.713   7.894
 1543POPC   C4B23446  28.297  29.745   7.720
 1544POPC   NC323447   7.944  20.191   9.457
 1544POPC   PO423448   7.269  20.589   9.460
 1544POPC   GL123449   7.542  20.508   9.136
 1544POPC   GL223450   7.691  20.842   9.206
 1544POPC   C1A23451   7.413  20.424   8.701
 1544POPC   D2A23452   7.107  20.468   8.360
 1544POPC   C3A23453   7.308  20.585   7.966
 1544POPC   C4A23454   7.732  20.516   7.853
 1544POPC   C1B23455   7.751  20.834   8.777
 1544POPC   C2B23456   7.498  20.848   8.412
 1544POPC   C3B23457   7.644  21.000   8.051
 1544POPC   C4B23458   7.806  20.987   7.649
 1545POPC   NC323459  10.435  23.505   9.598
 1545POPC   PO423460  11.056  23.874   9.618
 1545POPC   GL123461  10.764  23.803   9.273
 1545POPC   GL223462  10.437  23.840   9.204
 1545POPC   C1A23463  10.684  23.788   8.787
 1545POPC   D2A23464  10.519  23.733   8.363
 1545POPC   C3A23465  10.782  23.734   7.967
 1545POPC   C4A23466  11.105  23.940   7.730
 1545POPC   C1B23467  10.305  24.112   8.835
 1545POPC   C2B23468  10.385  24.251   8.398
 1545POPC   C3B23469  10.386  24.040   7.985
 1545POPC   C4B23470  10.628  24.112   7.578
 1546POPC   NC323471  39.220  13.177   9.882
 1546POPC   PO423472  38.885  12.646   9.643
 1546POPC   GL123473  39.056  12.691   9.241
 1546POPC   GL223474  39.025  12.418   9.017
 1546POPC   C1A23475  39.235  12.895   8.849
 1546POPC   D2A23476  39.240  12.788   8.394
 1546POPC   C3A23477  39.360  12.935   7.958
 1546POPC   C4A23478  39.431  12.686   7.571
 1546POPC   C1B23479  38.747  12.787   8.867
 1546POPC   C2B23480  38.813  13.047   8.501
 1546POPC   C3B23481  38.861  12.911   8.063
 1546POPC   C4B23482  38.949  12.896   7.623
 1547POPC   NC323483  28.410  27.882   9.493
 1547POPC   PO423484  28.505  27.287   9.562
 1547POPC   GL123485  28.593  27.534   9.150
 1547POPC   GL223486  28.577  27.909   9.016
 1547POPC   C1A23487  28.408  27.520   8.700
 1547POPC   D2A23488  28.351  27.316   8.269
 1547POPC   C3A23489  28.489  27.589   7.913
 1547POPC   C4A23490  28.594  27.888   7.565
 1547POPC   C1B23491  28.261  28.030   8.720
 1547POPC   C2B23492  28.218  27.839   8.303
 1547POPC   C3B23493  27.990  27.694   7.929
 1547POPC   C4B23494  28.061  27.943   7.586
 1548POPC   NC323495  22.319  17.297   9.561
 1548POPC   PO423496  21.714  17.612   9.477
 1548POPC   GL123497  22.068  17.530   9.153
 1548POPC   GL223498  22.108  17.155   9.131
 1548POPC   C1A23499  22.316  17.711   8.765
 1548POPC   D2A23500  22.361  17.918   8.325
 1548POPC   C3A23501  22.204  17.694   7.922
 1548POPC   C4A23502  22.249  17.719   7.445
 1548POPC   C1B23503  22.001  17.304   8.708
 1548POPC   C2B23504  22.236  17.386   8.348
 1548POPC   C3B23505  22.138  17.176   7.975
 1548POPC   C4B23506  22.272  17.072   7.575
 1549POPC   NC323507   4.356  20.345   9.564
 1549POPC   PO423508   4.416  21.026   9.452
 1549POPC   GL123509   4.257  20.701   9.182
 1549POPC   GL223510   3.931  20.573   9.299
 1549POPC   C1A23511   4.460  20.563   8.793
 1549POPC   D2A23512   4.562  20.396   8.351
 1549POPC   C3A23513   4.489  20.757   8.040
 1549POPC   C4A23514   4.102  20.885   7.812
 1549POPC   C1B23515   3.884  20.543   8.843
 1549POPC   C2B23516   4.084  20.629   8.419
 1549POPC   C3B23517   4.133  20.397   8.019
 1549POPC   C4B23518   3.936  20.447   7.589
 1550POPC   NC323519  15.216  27.709   9.619
 1550POPC   PO423520  15.198  27.097   9.391
 1550POPC   GL123521  15.004  27.421   9.161
 1550POPC   GL223522  15.093  27.761   9.122
 1550POPC   C1A23523  14.937  27.414   8.730
 1550POPC   D2A23524  15.172  27.294   8.399
 1550POPC   C3A23525  15.008  27.376   8.038
 1550POPC   C4A23526  15.109  27.374   7.664
 1550POPC   C1B23527  15.085  27.940   8.700
 1550POPC   C2B23528  15.089  27.829   8.267
 1550POPC   C3B23529  15.062  27.849   7.803
 1550POPC   C4B23530  15.485  27.872   7.593
 1551POPC   NC323531   3.079  14.804   9.330
 1551POPC   PO423532   2.629  14.415   9.654
 1551POPC   GL123533   2.729  14.401   9.193
 1551POPC   GL223534   2.659  14.730   8.997
 1551POPC   C1A23535   2.623  14.288   8.752
 1551POPC   D2A23536   2.517  14.543   8.399
 1551POPC   C3A23537   2.810  14.502   8.075
 1551POPC   C4A23538   2.793  14.335   7.677
 1551POPC   C1B23539   3.041  14.570   8.735
 1551POPC   C2B23540   3.254  14.662   8.359
 1551POPC   C3B23541   3.124  14.936   8.035
 1551POPC   C4B23542   2.888  14.834   7.656
 1552POPC   NC323543  22.507  14.785   9.591
 1552POPC   PO423544  23.246  14.840   9.559
 1552POPC   GL123545  22.874  15.060   9.314
 1552POPC   GL223546  22.816  15.446   9.357
 1552POPC   C1A23547  22.886  15.012   8.855
 1552POPC   D2A23548  23.121  15.076   8.471
 1552POPC   C3A23549  22.895  15.057   8.134
 1552POPC   C4A23550  22.811  14.880   7.764
 1552POPC   C1B23551  22.750  15.503   8.898
 1552POPC   C2B23552  22.605  15.324   8.473
 1552POPC   C3B23553  22.537  15.388   7.998
 1552POPC   C4B23554  22.695  15.348   7.587
 1553POPC   NC323555  44.273   3.288   9.497
 1553POPC   PO423556  43.560   3.229   9.487
 1553POPC   GL123557  43.658   3.222   9.086
 1553POPC   GL223558  43.990   3.406   9.069
 1553POPC   C1A23559  43.693   3.296   8.655
 1553POPC   D2A23560  44.053   3.422   8.408
 1553POPC   C3A23561  43.873   3.667   8.091
 1553POPC   C4A23562  43.898   3.437   7.746
 1553POPC   C1B23563  44.053   3.766   8.783
 1553POPC   C2B23564  44.299   3.888   8.435
 1553POPC   C3B23565  44.379   3.676   8.080
 1553POPC   C4B23566  44.242   3.843   7.692
 1554POPC   NC323567  10.272  16.615   9.708
 1554POPC   PO423568   9.668  16.848   9.485
 1554POPC   GL123569   9.757  16.712   9.137
 1554POPC   GL223570   9.766  16.383   9.222
 1554POPC   C1A23571   9.774  16.894   8.754
 1554POPC   D2A23572   9.722  17.165   8.394
 1554POPC   C3A23573   9.738  16.892   8.066
 1554POPC   C4A23574   9.948  16.943   7.702
 1554POPC   C1B23575   9.948  16.353   8.819
 1554POPC   C2B23576  10.010  16.509   8.414
 1554POPC   C3B23577  10.003  16.434   7.981
 1554POPC   C4B23578   9.739  16.487   7.695
 1555POPC   NC323579   4.938  13.296   9.476
 1555POPC   PO423580   5.510  13.687   9.359
 1555POPC   GL123581   5.131  13.600   9.096
 1555POPC   GL223582   4.769  13.747   9.009
 1555POPC   C1A23583   5.138  13.712   8.680
 1555POPC   D2A23584   5.080  13.997   8.368
 1555POPC   C3A23585   5.230  13.845   7.975
 1555POPC   C4A23586   5.110  13.557   7.670
 1555POPC   C1B23587   4.739  13.400   8.752
 1555POPC   C2B23588   4.938  13.439   8.306
 1555POPC   C3B23589   4.705  13.427   7.945
 1555POPC   C4B23590   4.672  13.247   7.531
 1556POPC   NC323591   8.890  23.929   9.572
 1556POPC   PO423592   9.431  24.295   9.684
 1556POPC   GL123593   9.262  24.042   9.249
 1556POPC   GL223594   9.142  23.638   9.240
 1556POPC   C1A23595   9.025  23.938   8.848
 1556POPC   D2A23596   9.017  23.678   8.467
 1556POPC   C3A23597   8.830  23.795   8.068
 1556POPC   C4A23598   8.907  23.645   7.676
 1556POPC   C1B23599   9.263  23.409   8.868
 1556POPC   C2B23600   9.214  23.214   8.459
 1556POPC   C3B23601   9.066  23.318   8.070
 1556POPC   C4B23602   9.281  23.318   7.693
 1557POPC   NC323603  36.510  39.426   9.542
 1557POPC   PO423604  36.081  38.929   9.605
 1557POPC   GL123605  36.038  39.129   9.180
 1557POPC   GL223606  36.320  39.374   9.078
 1557POPC   C1A23607  36.072  39.042   8.726
 1557POPC   D2A23608  36.395  39.183   8.417
 1557POPC   C3A23609  36.338  39.002   7.996
 1557POPC   C4A23610  35.978  39.040   7.696
 1557POPC   C1B23611  36.086  39.556   8.768
 1557POPC   C2B23612  35.834  39.567   8.435
 1557POPC   C3B23613  35.989  39.383   8.089
 1557POPC   C4B23614  36.285  39.474   7.773
 1558POPC   NC323615  42.368  19.552   9.566
 1558POPC   PO423616  42.400  20.218   9.456
 1558POPC   GL123617  42.218  20.102   9.106
 1558POPC   GL223618  42.094  19.736   9.173
 1558POPC   C1A23619  42.357  19.933   8.767
 1558POPC   D2A23620  42.598  19.788   8.464
 1558POPC   C3A23621  42.458  19.990   8.100
 1558POPC   C4A23622  42.526  19.893   7.695
 1558POPC   C1B23623  41.903  19.463   8.831
 1558POPC   C2B23624  41.900  19.360   8.376
 1558POPC   C3B23625  42.190  19.535   8.032
 1558POPC   C4B23626  42.119  19.584   7.570
 1559POPC   NC323627  36.672  40.217   9.346
 1559POPC   PO423628  37.295  40.379   9.444
 1559POPC   GL123629  37.165  40.175   9.077
 1559POPC   GL223630  37.161  39.826   9.191
 1559POPC   C1A23631  36.796  40.158   8.744
 1559POPC   D2A23632  36.564  40.174   8.337
 1559POPC   C3A23633  36.844  40.250   7.997
 1559POPC   C4A23634  37.038  40.085   7.632
 1559POPC   C1B23635  37.160  39.781   8.749
 1559POPC   C2B23636  37.053  39.948   8.365
 1559POPC   C3B23637  36.957  39.751   8.007
 1559POPC   C4B23638  36.770  39.605   7.648
 1560POPC   NC323639  14.337  43.601   9.474
 1560POPC   PO423640  14.964  43.781   9.453
 1560POPC   GL123641  14.701  43.593   9.110
 1560POPC   GL223642  14.423  43.876   9.057
 1560POPC   C1A23643  14.450  43.463   8.752
 1560POPC   D2A23644  14.447  43.671   8.360
 1560POPC   C3A23645  14.197  43.643   7.993
 1560POPC   C4A23646  14.448  43.671   7.628
 1560POPC   C1B23647  14.749  44.105   8.844
 1560POPC   C2B23648  14.776  44.120   8.421
 1560POPC   C3B23649  14.546  44.042   8.034
 1560POPC   C4B23650  14.552  44.167   7.644
 1561POPC   NC323651   3.069  20.958   9.442
 1561POPC   PO423652   2.798  21.499   9.801
 1561POPC   GL123653   2.782  21.381   9.332
 1561POPC   GL223654   2.986  21.578   9.100
 1561POPC   C1A23655   2.723  21.200   8.891
 1561POPC   D2A23656   2.561  21.272   8.503
 1561POPC   C3A23657   2.823  21.222   8.149
 1561POPC   C4A23658   2.744  21.278   7.737
 1561POPC   C1B23659   3.031  21.668   8.631
 1561POPC   C2B23660   3.180  21.590   8.214
 1561POPC   C3B23661   3.003  21.705   7.813
 1561POPC   C4B23662   2.654  21.685   7.469
 1562POPC   NC323663  14.022   2.428   9.375
 1562POPC   PO423664  14.385   2.819   9.791
 1562POPC   GL123665  14.361   2.838   9.283
 1562POPC   GL223666  14.603   2.631   9.044
 1562POPC   C1A23667  14.264   2.924   8.830
 1562POPC   D2A23668  14.344   2.770   8.423
 1562POPC   C3A23669  14.293   3.058   8.074
 1562POPC   C4A23670  14.394   2.974   7.629
 1562POPC   C1B23671  14.756   2.375   8.676
 1562POPC   C2B23672  14.538   2.331   8.253
 1562POPC   C3B23673  14.417   2.478   7.830
 1562POPC   C4B23674  14.512   2.533   7.378
 1563POPC   NC323675  12.758  19.623   9.555
 1563POPC   PO423676  12.683  20.292   9.685
 1563POPC   GL123677  12.818  20.019   9.244
 1563POPC   GL223678  12.671  19.715   9.077
 1563POPC   C1A23679  12.933  20.002   8.757
 1563POPC   D2A23680  13.165  20.012   8.370
 1563POPC   C3A23681  13.142  19.630   8.146
 1563POPC   C4A23682  12.965  19.706   7.765
 1563POPC   C1B23683  12.494  19.740   8.697
 1563POPC   C2B23684  12.592  19.887   8.301
 1563POPC   C3B23685  12.621  19.507   8.080
 1563POPC   C4B23686  12.721  19.235   7.752
 1564POPC   NC323687  36.669  26.923   9.398
 1564POPC   PO423688  37.254  26.431   9.215
 1564POPC   GL123689  36.967  26.750   9.018
 1564POPC   GL223690  36.570  26.712   8.954
 1564POPC   C1A23691  36.905  26.904   8.606
 1564POPC   D2A23692  37.031  26.730   8.198
 1564POPC   C3A23693  37.250  26.956   7.868
 1564POPC   C4A23694  37.238  26.801   7.414
 1564POPC   C1B23695  36.642  26.455   8.619
 1564POPC   C2B23696  36.521  26.366   8.214
 1564POPC   C3B23697  36.568  26.716   7.997
 1564POPC   C4B23698  36.835  26.700   7.700
 1565POPC   NC323699   8.546  37.323   9.840
 1565POPC   PO423700   8.086  37.403   9.337
 1565POPC   GL123701   8.417  37.448   9.066
 1565POPC   GL223702   8.346  37.791   8.963
 1565POPC   C1A23703   8.374  37.430   8.615
 1565POPC   D2A23704   8.103  37.607   8.373
 1565POPC   C3A23705   8.309  37.628   7.990
 1565POPC   C4A23706   8.079  37.465   7.668
 1565POPC   C1B23707   8.089  38.052   8.714
 1565POPC   C2B23708   7.937  38.082   8.309
 1565POPC   C3B23709   7.833  37.820   7.987
 1565POPC   C4B23710   8.075  37.979   7.655
 1566POPC   NC323711  29.776   4.464   9.439
 1566POPC   PO423712  29.875   3.819   9.560
 1566POPC   GL123713  29.819   4.015   9.181
 1566POPC   GL223714  30.146   4.119   9.080
 1566POPC   C1A23715  29.748   4.229   8.798
 1566POPC   D2A23716  29.696   4.541   8.479
 1566POPC   C3A23717  29.839   4.322   8.110
 1566POPC   C4A23718  29.720   4.057   7.804
 1566POPC   C1B23719  30.186   4.450   8.705
 1566POPC   C2B23720  30.152   4.674   8.302
 1566POPC   C3B23721  30.251   4.561   7.886
 1566POPC   C4B23722  30.212   4.146   7.710
 1567POPC   NC323723  23.595  11.025   9.603
 1567POPC   PO423724  23.917  10.455   9.502
 1567POPC   GL123725  23.756  10.723   9.189
 1567POPC   GL223726  23.404  10.668   9.222
 1567POPC   C1A23727  23.612  10.759   8.758
 1567POPC   D2A23728  23.431  10.577   8.423
 1567POPC   C3A23729  23.459  10.799   8.078
 1567POPC   C4A23730  23.650  10.761   7.694
 1567POPC   C1B23731  23.306  10.345   8.888
 1567POPC   C2B23732  23.075  10.216   8.510
 1567POPC   C3B23733  23.225  10.272   8.074
 1567POPC   C4B23734  23.541  10.272   7.806
 1568POPC   NC323735  20.180  24.384   9.496
 1568POPC   PO423736  19.447  24.691   9.527
 1568POPC   GL123737  19.503  24.601   9.101
 1568POPC   GL223738  19.818  24.532   9.131
 1568POPC   C1A23739  19.571  24.415   8.680
 1568POPC   D2A23740  19.451  24.595   8.316
 1568POPC   C3A23741  19.690  24.655   7.967
 1568POPC   C4A23742  19.794  24.322   7.714
 1568POPC   C1B23743  20.047  24.415   8.784
 1568POPC   C2B23744  19.994  24.584   8.403
 1568POPC   C3B23745  20.176  24.469   8.028
 1568POPC   C4B23746  20.187  24.649   7.606
 1569POPC   NC323747  15.057  42.518   9.817
 1569POPC   PO423748  15.219  41.873   9.599
 1569POPC   GL123749  15.354  42.224   9.275
 1569POPC   GL223750  15.069  42.451   9.268
 1569POPC   C1A23751  15.367  42.302   8.797
 1569POPC   D2A23752  15.281  42.562   8.398
 1569POPC   C3A23753  15.176  42.360   8.006
 1569POPC   C4A23754  15.380  42.277   7.618
 1569POPC   C1B23755  14.888  42.195   8.931
 1569POPC   C2B23756  14.924  42.181   8.473
 1569POPC   C3B23757  14.882  41.941   8.085
 1569POPC   C4B23758  14.845  42.078   7.665
 1570POPC   NC323759  24.986   9.891   9.500
 1570POPC   PO423760  24.309   9.859   9.535
 1570POPC   GL123761  24.555   9.951   9.200
 1570POPC   GL223762  24.684   9.641   9.154
 1570POPC   C1A23763  24.661   9.947   8.757
 1570POPC   D2A23764  24.495  10.062   8.400
 1570POPC   C3A23765  24.495   9.831   8.016
 1570POPC   C4A23766  24.472   9.921   7.591
 1570POPC   C1B23767  24.548   9.422   8.825
 1570POPC   C2B23768  24.552   9.479   8.395
 1570POPC   C3B23769  24.501   9.301   7.970
 1570POPC   C4B23770  24.585   9.424   7.563
 1571POPC   NC323771   3.240  17.133   9.519
 1571POPC   PO423772   2.838  17.709   9.519
 1571POPC   GL123773   2.776  17.564   9.106
 1571POPC   GL223774   2.846  17.223   9.115
 1571POPC   C1A23775   2.702  17.627   8.670
 1571POPC   D2A23776   2.968  17.692   8.298
 1571POPC   C3A23777   2.734  17.692   7.917
 1571POPC   C4A23778   2.523  17.552   7.553
 1571POPC   C1B23779   2.850  17.003   8.738
 1571POPC   C2B23780   2.749  17.208   8.361
 1571POPC   C3B23781   2.575  17.201   7.977
 1571POPC   C4B23782   2.749  17.107   7.615
 1572POPC   NC323783   7.154  11.210   9.252
 1572POPC   PO423784   7.467  11.721   9.645
 1572POPC   GL123785   7.611  11.522   9.201
 1572POPC   GL223786   7.666  11.161   9.143
 1572POPC   C1A23787   7.489  11.484   8.710
 1572POPC   D2A23788   7.121  11.288   8.428
 1572POPC   C3A23789   7.116  11.200   7.958
 1572POPC   C4A23790   7.222  11.369   7.541
 1572POPC   C1B23791   7.675  11.006   8.707
 1572POPC   C2B23792   7.619  11.107   8.273
 1572POPC   C3B23793   7.594  11.380   7.935
 1572POPC   C4B23794   7.843  11.451   7.605
 1573POPC   NC323795   1.136  12.925   9.525
 1573POPC   PO423796   1.803  13.144   9.503
 1573POPC   GL123797   1.568  12.934   9.148
 1573POPC   GL223798   1.671  13.088   8.819
 1573POPC   C1A23799   1.424  12.643   8.817
 1573POPC   D2A23800   1.222  12.592   8.407
 1573POPC   C3A23801   1.397  12.636   8.010
 1573POPC   C4A23802   1.092  12.625   7.674
 1573POPC   C1B23803   1.249  13.115   8.641
 1573POPC   C2B23804   1.060  13.038   8.223
 1573POPC   C3B23805   1.266  13.180   7.871
 1573POPC   C4B23806   1.670  13.046   7.888
 1574POPC   NC323807  20.379  28.503   9.472
 1574POPC   PO423808  20.908  28.008   9.577
 1574POPC   GL123809  20.721  28.247   9.216
 1574POPC   GL223810  20.820  28.634   9.269
 1574POPC   C1A23811  20.553  28.451   8.825
 1574POPC   D2A23812  20.456  28.494   8.385
 1574POPC   C3A23813  20.637  28.323   8.024
 1574POPC   C4A23814  20.511  28.266   7.629
 1574POPC   C1B23815  20.961  28.737   8.883
 1574POPC   C2B23816  20.956  28.603   8.457
 1574POPC   C3B23817  20.913  28.742   8.044
 1574POPC   C4B23818  20.854  28.679   7.601
 1575POPC   NC323819   5.897  22.506   9.649
 1575POPC   PO423820   5.972  23.125   9.539
 1575POPC   GL123821   5.920  22.851   9.186
 1575POPC   GL223822   5.908  23.193   9.032
 1575POPC   C1A23823   5.806  22.779   8.743
 1575POPC   D2A23824   5.758  23.153   8.475
 1575POPC   C3A23825   5.879  23.158   8.014
 1575POPC   C4A23826   5.752  22.824   7.762
 1575POPC   C1B23827   6.246  23.029   8.796
 1575POPC   C2B23828   6.241  23.003   8.371
 1575POPC   C3B23829   6.259  22.798   7.992
 1575POPC   C4B23830   6.206  22.909   7.569
 1576POPC   NC323831  44.086   5.356   9.688
 1576POPC   PO423832  43.836   5.840   9.645
 1576POPC   GL123833  43.842   5.891   9.164
 1576POPC   GL223834  43.515   5.839   8.991
 1576POPC   C1A23835  43.916   5.955   8.696
 1576POPC   D2A23836  43.807   6.055   8.254
 1576POPC   C3A23837  44.030   5.835   7.885
 1576POPC   C4A23838  44.129   5.595   7.463
 1576POPC   C1B23839  43.415   6.126   8.623
 1576POPC   C2B23840  43.443   6.421   8.266
 1576POPC   C3B23841  43.630   6.327   7.852
 1576POPC   C4B23842  43.423   6.314   7.433
 1577POPC   NC323843   7.492  11.349   9.906
 1577POPC   PO423844   8.103  11.378   9.742
 1577POPC   GL123845   8.129  11.379   9.277
 1577POPC   GL223846   8.421  11.499   9.159
 1577POPC   C1A23847   8.057  11.372   8.807
 1577POPC   D2A23848   8.129  11.092   8.434
 1577POPC   C3A23849   8.126  11.245   7.993
 1577POPC   C4A23850   8.078  11.019   7.581
 1577POPC   C1B23851   8.661  11.476   8.767
 1577POPC   C2B23852   8.467  11.477   8.372
 1577POPC   C3B23853   8.620  11.426   7.984
 1577POPC   C4B23854   8.561  11.060   7.746
 1578POPC   NC323855  20.201  27.624   9.578
 1578POPC   PO423856  19.538  27.551   9.581
 1578POPC   GL123857  19.804  27.683   9.270
 1578POPC   GL223858  19.881  27.360   9.203
 1578POPC   C1A23859  19.959  27.785   8.863
 1578POPC   D2A23860  19.859  27.863   8.432
 1578POPC   C3A23861  20.095  27.560   8.195
 1578POPC   C4A23862  20.110  27.475   7.769
 1578POPC   C1B23863  19.666  27.347   8.831
 1578POPC   C2B23864  19.599  27.199   8.405
 1578POPC   C3B23865  19.662  27.284   7.968
 1578POPC   C4B23866  19.545  26.991   7.671
 1579POPC   NC323867   4.896  17.305   9.616
 1579POPC   PO423868   5.288  17.841   9.350
 1579POPC   GL123869   5.066  17.526   9.103
 1579POPC   GL223870   5.096  17.157   9.166
 1579POPC   C1A23871   5.065  17.569   8.659
 1579POPC   D2A23872   4.837  17.691   8.297
 1579POPC   C3A23873   5.146  17.584   8.018
 1579POPC   C4A23874   5.328  17.796   7.697
 1579POPC   C1B23875   4.902  17.092   8.773
 1579POPC   C2B23876   5.050  17.150   8.323
 1579POPC   C3B23877   4.960  17.126   7.853
 1579POPC   C4B23878   5.045  17.093   7.381
 1580POPC   NC323879   2.786  35.446   9.518
 1580POPC   PO423880   3.302  35.198   9.239
 1580POPC   GL123881   2.894  35.327   9.030
 1580POPC   GL223882   2.557  35.134   9.083
 1580POPC   C1A23883   2.685  35.369   8.619
 1580POPC   D2A23884   2.603  35.716   8.319
 1580POPC   C3A23885   2.727  35.580   7.922
 1580POPC   C4A23886   2.902  35.175   7.825
 1580POPC   C1B23887   2.212  35.196   8.765
 1580POPC   C2B23888   2.227  35.331   8.353
 1580POPC   C3B23889   2.447  35.186   8.055
 1580POPC   C4B23890   2.387  35.145   7.632
 1581POPC   NC323891  30.390  44.062   9.395
 1581POPC   PO423892  29.727  44.138   9.545
 1581POPC   GL123893  29.724  43.939   9.154
 1581POPC   GL223894  30.051  43.891   9.065
 1581POPC   C1A23895  29.609  43.903   8.740
 1581POPC   D2A23896  29.816  43.880   8.375
 1581POPC   C3A23897  29.578  43.981   8.098
 1581POPC   C4A23898  29.627  44.032   7.709
 1581POPC   C1B23899  30.059  44.170   8.725
 1581POPC   C2B23900  30.209  44.200   8.312
 1581POPC   C3B23901  30.106  44.005   7.930
 1581POPC   C4B23902  30.081  44.219   7.553
 1582POPC   NC323903  28.547  11.013   9.744
 1582POPC   PO423904  28.223  11.123   9.166
 1582POPC   GL123905  28.315  11.506   8.967
 1582POPC   GL223906  28.621  11.512   9.061
 1582POPC   C1A23907  28.452  11.727   8.625
 1582POPC   D2A23908  28.224  11.567   8.321
 1582POPC   C3A23909  28.497  11.446   8.066
 1582POPC   C4A23910  28.457  11.373   7.672
 1582POPC   C1B23911  28.633  11.233   8.656
 1582POPC   C2B23912  28.580  10.980   8.301
 1582POPC   C3B23913  28.763  11.031   7.918
 1582POPC   C4B23914  28.625  10.910   7.535
 1583POPC   NC323915   0.271  30.299   9.598
 1583POPC   PO423916   0.644  29.769   9.419
 1583POPC   GL123917   0.478  29.928   9.082
 1583POPC   GL223918   0.498  30.282   9.130
 1583POPC   C1A23919   0.532  29.889   8.650
 1583POPC   D2A23920   0.717  29.927   8.261
 1583POPC   C3A23921   0.463  29.854   7.930
 1583POPC   C4A23922   0.696  29.587   7.679
 1583POPC   C1B23923   0.193  30.262   8.781
 1583POPC   C2B23924   0.281  30.237   8.338
 1583POPC   C3B23925   0.589  30.380   8.053
 1583POPC   C4B23926   0.407  30.312   7.669
 1584POPC   NC323927  38.619  31.783   9.261
 1584POPC   PO423928  38.410  32.128   9.751
 1584POPC   GL123929  38.356  32.203   9.274
 1584POPC   GL223930  38.680  32.295   9.123
 1584POPC   C1A23931  38.229  32.414   8.854
 1584POPC   D2A23932  38.369  32.423   8.408
 1584POPC   C3A23933  38.254  32.216   8.052
 1584POPC   C4A23934  38.142  32.478   7.709
 1584POPC   C1B23935  38.585  32.072   8.712
 1584POPC   C2B23936  38.671  31.949   8.304
 1584POPC   C3B23937  38.718  32.035   7.880
 1584POPC   C4B23938  38.751  32.093   7.419
 1585POPC   NC323939  11.050  26.708   9.557
 1585POPC   PO423940  11.574  26.842   9.195
 1585POPC   GL123941  11.140  26.787   9.048
 1585POPC   GL223942  11.107  26.459   9.099
 1585POPC   C1A23943  11.031  26.835   8.613
 1585POPC   D2A23944  11.309  27.116   8.372
 1585POPC   C3A23945  11.298  26.976   7.971
 1585POPC   C4A23946  11.243  26.941   7.556
 1585POPC   C1B23947  11.394  26.444   8.717
 1585POPC   C2B23948  11.495  26.629   8.323
 1585POPC   C3B23949  11.438  26.480   7.899
 1585POPC   C4B23950  11.423  26.508   7.414
 1586POPC   NC323951  32.602  38.623   9.861
 1586POPC   PO423952  32.318  38.061   9.526
 1586POPC   GL123953  32.202  38.255   9.149
 1586POPC   GL223954  32.032  38.576   9.170
 1586POPC   C1A23955  32.466  38.212   8.781
 1586POPC   D2A23956  32.499  38.046   8.363
 1586POPC   C3A23957  32.375  38.238   7.948
 1586POPC   C4A23958  32.415  38.664   7.740
 1586POPC   C1B23959  32.181  38.627   8.750
 1586POPC   C2B23960  32.104  38.414   8.374
 1586POPC   C3B23961  31.980  38.588   7.997
 1586POPC   C4B23962  31.987  38.996   7.824
 1587POPC   NC323963  32.160  11.317   9.551
 1587POPC   PO423964  32.556  11.804   9.250
 1587POPC   GL123965  32.197  11.632   9.165
 1587POPC   GL223966  32.432  11.318   9.120
 1587POPC   C1A23967  32.100  11.462   8.793
 1587POPC   D2A23968  32.376  11.439   8.442
 1587POPC   C3A23969  32.113  11.333   8.117
 1587POPC   C4A23970  32.058  11.551   7.776
 1587POPC   C1B23971  32.469  11.048   8.783
 1587POPC   C2B23972  32.285  10.938   8.414
 1587POPC   C3B23973  32.516  11.016   8.041
 1587POPC   C4B23974  32.599  10.749   7.727
 1588POPC   NC323975  32.525  12.608   9.432
 1588POPC   PO423976  32.342  11.977   9.696
 1588POPC   GL123977  32.249  12.200   9.248
 1588POPC   GL223978  32.518  12.280   9.053
 1588POPC   C1A23979  32.070  12.037   8.836
 1588POPC   D2A23980  31.986  11.791   8.428
 1588POPC   C3A23981  32.293  11.885   8.097
 1588POPC   C4A23982  32.257  12.100   7.673
 1588POPC   C1B23983  32.467  12.258   8.631
 1588POPC   C2B23984  32.394  12.548   8.324
 1588POPC   C3B23985  32.556  12.333   8.020
 1588POPC   C4B23986  32.723  12.387   7.643
 1589POPC   NC323987  43.832  32.559   9.771
 1589POPC   PO423988  43.944  31.851   9.638
 1589POPC   GL123989  43.735  32.029   9.240
 1589POPC   GL223990  43.727  32.383   9.195
 1589POPC   C1A23991  43.669  32.127   8.759
 1589POPC   D2A23992  43.790  32.351   8.361
 1589POPC   C3A23993  43.650  32.133   7.980
 1589POPC   C4A23994  43.775  32.010   7.570
 1589POPC   C1B23995  43.994  32.571   8.813
 1589POPC   C2B23996  44.163  32.726   8.416
 1589POPC   C3B23997  44.211  32.567   8.011
 1589POPC   C4B23998  43.890  32.509   7.721
 1590POPC   NC323999  20.151  33.160   9.647
 1590POPC   PO424000  20.825  33.025   9.679
 1590POPC   GL124001  20.548  33.004   9.319
 1590POPC   GL224002  20.767  33.247   9.193
 1590POPC   C1A24003  20.535  32.808   8.903
 1590POPC   D2A24004  20.439  32.800   8.454
 1590POPC   C3A24005  20.427  32.995   8.040
 1590POPC   C4A24006  20.717  32.815   7.731
 1590POPC   C1B24007  20.824  33.194   8.767
 1590POPC   C2B24008  20.670  33.271   8.415
 1590POPC   C3B24009  20.553  33.528   8.066
 1590POPC   C4B24010  20.606  33.374   7.706
 1591POPC   NC324011  34.106  35.659   9.421
 1591POPC   PO424012  34.158  36.367   9.356
 1591POPC   GL124013  34.030  36.079   9.094
 1591POPC   GL224014  33.706  36.049   9.185
 1591POPC   C1A24015  34.114  36.103   8.675
 1591POPC   D2A24016  34.342  35.980   8.330
 1591POPC   C3A24017  34.097  36.098   8.014
 1591POPC   C4A24018  34.056  36.137   7.582
 1591POPC   C1B24019  33.634  35.921   8.763
 1591POPC   C2B24020  33.711  36.053   8.334
 1591POPC   C3B24021  33.624  35.997   7.872
 1591POPC   C4B24022  33.445  36.041   7.426
 1592POPC   NC324023  16.329  23.156   9.606
 1592POPC   PO424024  15.908  22.722   9.531
 1592POPC   GL124025  16.162  22.799   9.177
 1592POPC   GL224026  16.225  23.135   9.098
 1592POPC   C1A24027  15.912  22.773   8.807
 1592POPC   D2A24028  15.764  22.896   8.407
 1592POPC   C3A24029  16.016  22.725   8.070
 1592POPC   C4A24030  15.867  22.662   7.664
 1592POPC   C1B24031  15.972  23.289   8.755
 1592POPC   C2B24032  15.973  23.348   8.315
 1592POPC   C3B24033  15.924  23.210   7.902
 1592POPC   C4B24034  16.284  23.242   7.686
 1593POPC   NC324035  26.909  21.626   9.476
 1593POPC   PO424036  27.288  21.013   9.547
 1593POPC   GL124037  27.003  20.957   9.194
 1593POPC   GL224038  26.759  21.247   9.167
 1593POPC   C1A24039  26.840  21.009   8.751
 1593POPC   D2A24040  27.027  21.327   8.455
 1593POPC   C3A24041  26.895  21.231   8.050
 1593POPC   C4A24042  26.827  21.534   7.732
 1593POPC   C1B24043  26.816  21.594   8.836
 1593POPC   C2B24044  26.613  21.712   8.436
 1593POPC   C3B24045  26.552  21.849   7.999
 1593POPC   C4B24046  26.337  21.666   7.620
 1594POPC   NC324047   5.546  33.237   9.551
 1594POPC   PO424048   6.124  32.851   9.472
 1594POPC   GL124049   5.896  33.055   9.162
 1594POPC   GL224050   5.612  32.815   9.195
 1594POPC   C1A24051   6.089  33.096   8.745
 1594POPC   D2A24052   6.238  33.392   8.392
 1594POPC   C3A24053   6.085  33.179   8.048
 1594POPC   C4A24054   5.862  33.228   7.690
 1594POPC   C1B24055   5.826  32.650   8.795
 1594POPC   C2B24056   5.851  32.775   8.345
 1594POPC   C3B24057   5.677  32.797   7.918
 1594POPC   C4B24058   5.787  32.765   7.461
 1595POPC   NC324059   7.565  29.302   9.524
 1595POPC   PO424060   7.174  28.864   9.450
 1595POPC   GL124061   7.271  29.199   9.107
 1595POPC   GL224062   7.469  29.550   9.091
 1595POPC   C1A24063   7.492  29.197   8.706
 1595POPC   D2A24064   7.681  28.948   8.367
 1595POPC   C3A24065   7.504  29.007   7.950
 1595POPC   C4A24066   7.404  28.716   7.598
 1595POPC   C1B24067   7.317  29.683   8.689
 1595POPC   C2B24068   7.349  29.461   8.267
 1595POPC   C3B24069   7.514  29.520   7.830
 1595POPC   C4B24070   7.289  29.644   7.440
 1596POPC   NC324071  15.452   2.947   9.449
 1596POPC   PO424072  16.072   2.664   9.512
 1596POPC   GL124073  15.824   2.715   9.162
 1596POPC   GL224074  15.796   3.070   9.094
 1596POPC   C1A24075  15.772   2.686   8.732
 1596POPC   D2A24076  15.678   2.871   8.370
 1596POPC   C3A24077  15.687   2.619   8.026
 1596POPC   C4A24078  15.648   2.895   7.692
 1596POPC   C1B24079  16.166   3.010   8.833
 1596POPC   C2B24080  16.185   2.835   8.421
 1596POPC   C3B24081  16.068   2.950   7.992
 1596POPC   C4B24082  16.086   3.123   7.559
 1597POPC   NC324083  19.740  19.295   9.624
 1597POPC   PO424084  19.693  19.938   9.434
 1597POPC   GL124085  19.863  19.756   9.110
 1597POPC   GL224086  19.718  19.450   9.150
 1597POPC   C1A24087  20.000  19.693   8.706
 1597POPC   D2A24088  20.149  19.511   8.342
 1597POPC   C3A24089  19.912  19.711   8.033
 1597POPC   C4A24090  19.948  19.897   7.635
 1597POPC   C1B24091  19.583  19.352   8.786
 1597POPC   C2B24092  19.630  19.469   8.384
 1597POPC   C3B24093  19.499  19.341   8.016
 1597POPC   C4B24094  19.724  19.431   7.655
 1598POPC   NC324095  17.352  27.948   9.537
 1598POPC   PO424096  17.115  27.305   9.516
 1598POPC   GL124097  17.169  27.443   9.066
 1598POPC   GL224098  17.415  27.753   9.058
 1598POPC   C1A24099  17.395  27.312   8.662
 1598POPC   D2A24100  17.376  27.091   8.243
 1598POPC   C3A24101  17.311  27.293   7.826
 1598POPC   C4A24102  17.430  27.605   7.518
 1598POPC   C1B24103  17.668  27.746   8.681
 1598POPC   C2B24104  17.573  27.689   8.232
 1598POPC   C3B24105  17.684  27.913   7.849
 1598POPC   C4B24106  17.789  27.939   7.387
 1599POPC   NC324107  34.519  37.117   9.467
 1599POPC   PO424108  35.121  37.054   9.547
 1599POPC   GL124109  34.857  36.914   9.152
 1599POPC   GL224110  34.583  36.669   9.135
 1599POPC   C1A24111  34.615  37.056   8.777
 1599POPC   D2A24112  34.692  37.211   8.358
 1599POPC   C3A24113  34.578  36.928   8.009
 1599POPC   C4A24114  34.783  36.917   7.584
 1599POPC   C1B24115  34.416  36.576   8.678
 1599POPC   C2B24116  34.472  36.453   8.214
 1599POPC   C3B24117  34.213  36.578   7.867
 1599POPC   C4B24118  34.255  36.931   7.616
 1600POPC   NC324119   3.986  39.855   9.587
 1600POPC   PO424120   3.483  40.208   9.606
 1600POPC   GL124121   3.559  40.118   9.188
 1600POPC   GL224122   3.830  40.367   9.153
 1600POPC   C1A24123   3.368  39.953   8.780
 1600POPC   D2A24124   3.478  39.817   8.358
 1600POPC   C3A24125   3.275  40.086   8.033
 1600POPC   C4A24126   3.257  40.133   7.594
 1600POPC   C1B24127   3.866  40.122   8.771
 1600POPC   C2B24128   3.976  40.013   8.341
 1600POPC   C3B24129   3.763  39.937   7.939
 1600POPC   C4B24130   3.794  40.056   7.492
 1601POPC   NC324131  36.445  25.277   9.500
 1601POPC   PO424132  35.878  25.584   9.373
 1601POPC   GL124133  36.128  25.330   9.101
 1601POPC   GL224134  36.355  25.627   9.131
 1601POPC   C1A24135  36.336  25.057   8.750
 1601POPC   D2A24136  36.170  24.956   8.320
 1601POPC   C3A24137  36.285  24.841   7.906
 1601POPC   C4A24138  36.409  25.049   7.541
 1601POPC   C1B24139  36.335  25.575   8.703
 1601POPC   C2B24140  36.432  25.403   8.350
 1601POPC   C3B24141  36.314  25.350   7.955
 1601POPC   C4B24142  36.286  25.658   7.669
 1602POPC   NC324143  21.233  15.791   9.811
 1602POPC   PO424144  21.378  15.245   9.538
 1602POPC   GL124145  21.502  15.069   9.090
 1602POPC   GL224146  21.752  14.770   9.062
 1602POPC   C1A24147  21.332  15.156   8.651
 1602POPC   D2A24148  21.048  15.301   8.311
 1602POPC   C3A24149  21.195  15.272   7.901
 1602POPC   C4A24150  21.580  15.347   7.774
 1602POPC   C1B24151  21.719  14.824   8.625
 1602POPC   C2B24152  21.450  14.846   8.236
 1602POPC   C3B24153  21.196  14.767   7.869
 1602POPC   C4B24154  20.977  14.977   7.515
 1603POPC   NC324155  23.512  35.943   9.444
 1603POPC   PO424156  24.090  36.397   9.434
 1603POPC   GL124157  23.827  36.164   9.135
 1603POPC   GL224158  23.501  36.308   9.045
 1603POPC   C1A24159  23.895  36.071   8.734
 1603POPC   D2A24160  23.812  36.211   8.335
 1603POPC   C3A24161  24.010  36.102   7.981
 1603POPC   C4A24162  23.724  36.171   7.679
 1603POPC   C1B24163  23.404  36.226   8.658
 1603POPC   C2B24164  23.488  35.829   8.487
 1603POPC   C3B24165  23.538  35.821   8.056
 1603POPC   C4B24166  23.375  35.803   7.641
 1604POPC   NC324167   5.042  41.835   9.484
 1604POPC   PO424168   4.847  41.111   9.547
 1604POPC   GL124169   4.801  41.390   9.175
 1604POPC   GL224170   5.139  41.473   9.146
 1604POPC   C1A24171   4.776  41.544   8.738
 1604POPC   D2A24172   5.078  41.640   8.374
 1604POPC   C3A24173   4.947  41.609   7.953
 1604POPC   C4A24174   4.977  41.548   7.512
 1604POPC   C1B24175   5.236  41.327   8.746
 1604POPC   C2B24176   5.283  41.139   8.316
 1604POPC   C3B24177   5.321  41.246   7.850
 1604POPC   C4B24178   5.202  41.103   7.395
 1605POPC   NC324179  28.927  19.810   9.486
 1605POPC   PO424180  29.346  20.225   9.392
 1605POPC   GL124181  28.942  20.198   9.102
 1605POPC   GL224182  28.697  19.914   9.048
 1605POPC   C1A24183  28.959  20.125   8.653
 1605POPC   D2A24184  29.220  19.821   8.430
 1605POPC   C3A24185  29.244  19.751   7.992
 1605POPC   C4A24186  29.098  20.042   7.688
 1605POPC   C1B24187  28.821  19.627   8.725
 1605POPC   C2B24188  28.768  19.604   8.296
 1605POPC   C3B24189  28.761  19.659   7.886
 1605POPC   C4B24190  28.824  19.701   7.437
 1606POPC   NC324191  11.502  40.191   9.532
 1606POPC   PO424192  11.109  39.651   9.583
 1606POPC   GL124193  11.274  39.880   9.184
 1606POPC   GL224194  11.652  39.853   9.184
 1606POPC   C1A24195  11.325  39.864   8.707
 1606POPC   D2A24196  11.195  39.612   8.298
 1606POPC   C3A24197  11.282  39.834   7.919
 1606POPC   C4A24198  11.272  40.256   8.006
 1606POPC   C1B24199  11.775  40.148   8.868
 1606POPC   C2B24200  11.919  40.114   8.436
 1606POPC   C3B24201  11.757  39.988   8.060
 1606POPC   C4B24202  11.673  40.175   7.679
 1607POPC   NC324203   6.021  34.972   9.307
 1607POPC   PO424204   5.455  35.243   9.520
 1607POPC   GL124205   5.510  34.876   9.207
 1607POPC   GL224206   5.513  34.498   9.069
 1607POPC   C1A24207   5.617  34.974   8.762
 1607POPC   D2A24208   5.975  34.917   8.454
 1607POPC   C3A24209   5.773  34.702   8.108
 1607POPC   C4A24210   5.450  34.813   7.819
 1607POPC   C1B24211   5.769  34.511   8.677
 1607POPC   C2B24212   6.081  34.358   8.377
 1607POPC   C3B24213   6.250  34.503   7.975
 1607POPC   C4B24214   6.055  34.509   7.570
 1608POPC   NC324215   2.155   6.163   9.284
 1608POPC   PO424216   1.758   5.688   9.697
 1608POPC   GL124217   1.809   5.783   9.135
 1608POPC   GL224218   2.115   5.852   8.902
 1608POPC   C1A24219   1.656   5.871   8.693
 1608POPC   D2A24220   1.996   5.809   8.394
 1608POPC   C3A24221   1.881   5.660   8.001
 1608POPC   C4A24222   2.041   5.748   7.607
 1608POPC   C1B24223   2.380   6.196   8.691
 1608POPC   C2B24224   2.410   6.088   8.265
 1608POPC   C3B24225   2.150   6.090   7.951
 1608POPC   C4B24226   2.094   6.264   7.549
 1609POPC   NC324227   0.036  36.538   9.435
 1609POPC   PO424228  44.643  37.034   9.498
 1609POPC   GL124229  44.479  37.001   9.096
 1609POPC   GL224230  44.593  36.660   9.056
 1609POPC   C1A24231  44.687  37.019   8.692
 1609POPC   D2A24232  44.763  37.203   8.321
 1609POPC   C3A24233  44.466  37.156   7.990
 1609POPC   C4A24234  44.576  36.856   7.737
 1609POPC   C1B24235  44.323  36.682   8.691
 1609POPC   C2B24236  44.529  36.724   8.279
 1609POPC   C3B24237  44.738  36.437   7.988
 1609POPC   C4B24238  44.458  36.350   7.663
 1610POPC   NC324239  39.784  43.987   9.516
 1610POPC   PO424240  40.379  44.301   9.581
 1610POPC   GL124241  40.255  43.969   9.257
 1610POPC   GL224242  40.404  43.619   9.292
 1610POPC   C1A24243  40.121  44.027   8.826
 1610POPC   D2A24244  40.156  44.196   8.394
 1610POPC   C3A24245  40.056  43.964   8.001
 1610POPC   C4A24246  39.913  43.935   7.566
 1610POPC   C1B24247  40.311  43.556   8.842
 1610POPC   C2B24248  40.340  43.702   8.431
 1610POPC   C3B24249  40.316  43.487   8.052
 1610POPC   C4B24250  40.303  43.616   7.663
 1611POPC   NC324251  19.083  21.351   9.560
 1611POPC   PO424252  19.281  20.833   9.265
 1611POPC   GL124253  19.111  21.217   9.053
 1611POPC   GL224254  18.820  21.398   9.132
 1611POPC   C1A24255  18.940  21.292   8.638
 1611POPC   D2A24256  18.787  21.229   8.208
 1611POPC   C3A24257  19.054  21.379   7.874
 1611POPC   C4A24258  19.244  21.173   7.500
 1611POPC   C1B24259  18.894  21.757   8.813
 1611POPC   C2B24260  18.938  21.734   8.331
 1611POPC   C3B24261  18.900  21.901   7.886
 1611POPC   C4B24262  18.891  22.121   7.466
 1612POPC   NC324263  20.902  30.969   9.906
 1612POPC   PO424264  21.383  30.871   9.523
 1612POPC   GL124265  21.372  30.679   9.153
 1612POPC   GL224266  21.703  30.794   9.117
 1612POPC   C1A24267  21.487  30.490   8.760
 1612POPC   D2A24268  21.635  30.627   8.357
 1612POPC   C3A24269  21.289  30.627   8.055
 1612POPC   C4A24270  21.094  30.888   7.747
 1612POPC   C1B24271  21.591  31.009   8.781
 1612POPC   C2B24272  21.712  31.158   8.405
 1612POPC   C3B24273  21.539  31.110   8.025
 1612POPC   C4B24274  21.620  30.833   7.725
 1613POPC   NC324275  15.854  24.011   9.460
 1613POPC   PO424276  16.345  23.606   9.697
 1613POPC   GL124277  15.997  23.513   9.369
 1613POPC   GL224278  16.053  23.702   9.082
 1613POPC   C1A24279  15.605  23.540   9.046
 1613POPC   D2A24280  15.727  23.735   8.612
 1613POPC   C3A24281  15.757  23.786   8.134
 1613POPC   C4A24282  15.648  23.623   7.724
 1613POPC   C1B24283  16.202  23.901   8.741
 1613POPC   C2B24284  16.217  23.795   8.393
 1613POPC   C3B24285  16.316  23.865   8.036
 1613POPC   C4B24286  16.161  23.750   7.663
 1614POPC   NC324287  37.802  44.577   9.608
 1614POPC   PO424288  37.417   0.035   9.454
 1614POPC   GL124289  37.759  44.843   9.182
 1614POPC   GL224290  37.853  44.484   9.116
 1614POPC   C1A24291  37.799  44.846   8.753
 1614POPC   D2A24292  37.584  44.720   8.385
 1614POPC   C3A24293  37.778  44.532   8.051
 1614POPC   C4A24294  37.900  44.710   7.666
 1614POPC   C1B24295  37.546  44.374   8.791
 1614POPC   C2B24296  37.492  44.192   8.373
 1614POPC   C3B24297  37.378  43.996   7.971
 1614POPC   C4B24298  37.611  44.235   7.668
 1615POPC   NC324299  34.745  30.056   9.534
 1615POPC   PO424300  34.802  29.500   9.146
 1615POPC   GL124301  34.686  29.950   9.052
 1615POPC   GL224302  34.844  30.305   9.118
 1615POPC   C1A24303  34.386  30.116   8.786
 1615POPC   D2A24304  34.408  29.930   8.398
 1615POPC   C3A24305  34.276  30.145   8.058
 1615POPC   C4A24306  34.474  29.932   7.735
 1615POPC   C1B24307  34.866  30.301   8.720
 1615POPC   C2B24308  34.732  30.386   8.347
 1615POPC   C3B24309  34.837  30.165   7.997
 1615POPC   C4B24310  34.920  29.725   7.893
 1616POPC   NC324311   5.243  20.284   9.452
 1616POPC   PO424312   4.740  20.478   9.770
 1616POPC   GL124313   4.748  20.522   9.215
 1616POPC   GL224314   5.069  20.603   9.101
 1616POPC   C1A24315   4.879  20.246   8.795
 1616POPC   D2A24316   5.216  20.132   8.493
 1616POPC   C3A24317   5.049  20.312   8.120
 1616POPC   C4A24318   5.005  20.740   7.879
 1616POPC   C1B24319   5.393  20.568   8.790
 1616POPC   C2B24320   5.542  20.775   8.423
 1616POPC   C3B24321   5.476  20.576   8.039
 1616POPC   C4B24322   5.516  20.756   7.664
 1617POPC   NC324323  37.777  15.242   9.620
 1617POPC   PO424324  38.157  15.722   9.427
 1617POPC   GL124325  37.774  15.499   9.170
 1617POPC   GL224326  37.750  15.130   9.120
 1617POPC   C1A24327  37.402  15.364   8.860
 1617POPC   D2A24328  37.338  15.392   8.408
 1617POPC   C3A24329  37.416  15.171   8.023
 1617POPC   C4A24330  37.342  15.188   7.594
 1617POPC   C1B24331  38.050  14.919   8.858
 1617POPC   C2B24332  38.077  15.092   8.452
 1617POPC   C3B24333  37.921  15.153   8.029
 1617POPC   C4B24334  37.907  14.997   7.600
 1618POPC   NC324335  43.237  18.306   9.445
 1618POPC   PO424336  42.954  17.728   9.480
 1618POPC   GL124337  43.017  17.984   9.107
 1618POPC   GL224338  42.819  18.283   9.129
 1618POPC   C1A24339  43.145  18.237   8.723
 1618POPC   D2A24340  43.085  18.522   8.340
 1618POPC   C3A24341  43.236  18.340   7.927
 1618POPC   C4A24342  43.430  17.962   7.750
 1618POPC   C1B24343  42.706  18.481   8.752
 1618POPC   C2B24344  42.616  18.314   8.358
 1618POPC   C3B24345  42.726  18.373   7.968
 1618POPC   C4B24346  42.606  18.773   7.840
 1619POPC   NC324347  28.050   4.915   9.559
 1619POPC   PO424348  28.594   5.302   9.392
 1619POPC   GL124349  28.294   5.083   9.146
 1619POPC   GL224350  27.915   5.166   9.117
 1619POPC   C1A24351  28.313   5.024   8.746
 1619POPC   D2A24352  28.567   4.927   8.379
 1619POPC   C3A24353  28.382   4.870   7.958
 1619POPC   C4A24354  28.598   4.797   7.573
 1619POPC   C1B24355  27.980   5.423   8.762
 1619POPC   C2B24356  28.223   5.366   8.390
 1619POPC   C3B24357  28.432   5.373   8.035
 1619POPC   C4B24358  28.048   5.443   7.855
 1620POPC   NC324359   4.156  43.732   9.583
 1620POPC   PO424360   4.802  44.016   9.467
 1620POPC   GL124361   4.472  44.014   9.165
 1620POPC   GL224362   4.191  44.269   9.216
 1620POPC   C1A24363   4.499  43.797   8.770
 1620POPC   D2A24364   4.519  43.552   8.402
 1620POPC   C3A24365   4.552  43.870   8.105
 1620POPC   C4A24366   4.557  43.796   7.701
 1620POPC   C1B24367   4.032  44.032   8.865
 1620POPC   C2B24368   4.007  43.903   8.424
 1620POPC   C3B24369   3.878  43.900   7.972
 1620POPC   C4B24370   4.069  44.204   7.686
 1621POPC   NC324371  25.808  16.300   9.470
 1621POPC   PO424372  25.351  15.863   9.744
 1621POPC   GL124373  25.436  15.969   9.263
 1621POPC   GL224374  25.353  16.280   9.197
 1621POPC   C1A24375  25.287  15.909   8.851
 1621POPC   D2A24376  25.194  16.030   8.455
 1621POPC   C3A24377  24.927  15.888   8.143
 1621POPC   C4A24378  25.134  15.823   7.757
 1621POPC   C1B24379  25.595  16.313   8.813
 1621POPC   C2B24380  25.472  16.476   8.421
 1621POPC   C3B24381  25.394  16.267   8.037
 1621POPC   C4B24382  25.581  16.297   7.634
 1622POPC   NC324383  27.727  20.834   9.592
 1622POPC   PO424384  27.463  20.230   9.644
 1622POPC   GL124385  27.446  20.558   9.243
 1622POPC   GL224386  27.568  20.936   9.138
 1622POPC   C1A24387  27.602  20.544   8.805
 1622POPC   D2A24388  27.752  20.298   8.452
 1622POPC   C3A24389  27.556  20.453   8.085
 1622POPC   C4A24390  27.724  20.459   7.674
 1622POPC   C1B24391  27.843  21.037   8.797
 1622POPC   C2B24392  27.833  20.820   8.386
 1622POPC   C3B24393  27.777  20.899   7.943
 1622POPC   C4B24394  27.850  21.207   7.663
 1623POPC   NC324395   5.416   5.871   9.597
 1623POPC   PO424396   4.929   5.983   9.163
 1623POPC   GL124397   4.903   5.673   8.808
 1623POPC   GL224398   5.171   5.460   8.880
 1623POPC   C1A24399   5.001   5.658   8.403
 1623POPC   D2A24400   5.004   6.103   8.319
 1623POPC   C3A24401   4.996   6.112   7.911
 1623POPC   C4A24402   4.837   5.729   7.754
 1623POPC   C1B24403   5.423   5.800   8.648
 1623POPC   C2B24404   5.457   5.836   8.203
 1623POPC   C3B24405   5.346   5.741   7.810
 1623POPC   C4B24406   5.205   5.959   7.453
 1624POPC   NC324407  38.691   3.829   9.417
 1624POPC   PO424408  38.193   3.400   9.431
 1624POPC   GL124409  38.315   3.576   9.061
 1624POPC   GL224410  38.698   3.556   8.991
 1624POPC   C1A24411  38.360   3.711   8.643
 1624POPC   D2A24412  38.563   3.647   8.249
 1624POPC   C3A24413  38.280   3.733   7.926
 1624POPC   C4A24414  38.328   3.666   7.493
 1624POPC   C1B24415  38.527   3.239   8.722
 1624POPC   C2B24416  38.348   3.190   8.310
 1624POPC   C3B24417  38.499   3.270   7.866
 1624POPC   C4B24418  38.693   2.978   7.571
 1625POPC   NC324419  12.443   3.562   9.778
 1625POPC   PO424420  13.035   3.394   9.513
 1625POPC   GL124421  12.745   3.421   9.167
 1625POPC   GL224422  12.429   3.616   9.245
 1625POPC   C1A24423  12.783   3.403   8.710
 1625POPC   D2A24424  12.681   3.151   8.336
 1625POPC   C3A24425  12.754   3.384   7.941
 1625POPC   C4A24426  12.745   3.242   7.527
 1625POPC   C1B24427  12.675   3.885   8.962
 1625POPC   C2B24428  12.746   3.916   8.532
 1625POPC   C3B24429  12.773   3.889   8.097
 1625POPC   C4B24430  12.537   3.998   7.761
 1626POPC   NC324431  20.440   8.042   9.706
 1626POPC   PO424432  20.990   8.400   9.489
 1626POPC   GL124433  20.816   8.112   9.155
 1626POPC   GL224434  20.449   7.982   9.181
 1626POPC   C1A24435  20.701   8.097   8.716
 1626POPC   D2A24436  20.382   8.092   8.394
 1626POPC   C3A24437  20.558   8.211   8.006
 1626POPC   C4A24438  20.875   8.067   7.752
 1626POPC   C1B24439  20.339   8.370   8.966
 1626POPC   C2B24440  20.126   8.503   8.598
 1626POPC   C3B24441  20.119   8.516   8.148
 1626POPC   C4B24442  20.233   8.507   7.729
 1627POPC   NC324443  41.066  21.316   9.292
 1627POPC   PO424444  41.628  21.670   9.484
 1627POPC   GL124445  41.763  21.358   9.181
 1627POPC   GL224446  41.477  21.218   8.990
 1627POPC   C1A24447  41.809  21.499   8.753
 1627POPC   D2A24448  41.507  21.644   8.446
 1627POPC   C3A24449  41.642  21.548   8.061
 1627POPC   C4A24450  41.552  21.713   7.668
 1627POPC   C1B24451  41.176  21.263   8.625
 1627POPC   C2B24452  41.106  21.407   8.204
 1627POPC   C3B24453  41.299  21.268   7.836
 1627POPC   C4B24454  41.729  21.068   7.864
 1628POPC   NC324455  31.270  11.140   9.435
 1628POPC   PO424456  31.776  11.568   9.516
 1628POPC   GL124457  31.681  11.357   9.101
 1628POPC   GL224458  31.324  11.434   9.014
 1628POPC   C1A24459  31.630  11.420   8.613
 1628POPC   D2A24460  31.335  11.459   8.303
 1628POPC   C3A24461  31.599  11.437   7.971
 1628POPC   C4A24462  31.720  11.098   7.744
 1628POPC   C1B24463  31.339  11.032   8.776
 1628POPC   C2B24464  31.229  10.945   8.343
 1628POPC   C3B24465  31.207  11.112   7.907
 1628POPC   C4B24466  31.264  11.010   7.463
 1629POPC   NC324467   2.249  23.459   9.209
 1629POPC   PO424468   2.240  22.883   9.514
 1629POPC   GL124469   2.113  22.907   9.100
 1629POPC   GL224470   2.340  22.672   9.020
 1629POPC   C1A24471   1.812  23.004   8.745
 1629POPC   D2A24472   1.584  22.782   8.404
 1629POPC   C3A24473   1.652  22.958   7.977
 1629POPC   C4A24474   1.937  23.270   7.770
 1629POPC   C1B24475   2.205  22.711   8.595
 1629POPC   C2B24476   2.085  22.966   8.255
 1629POPC   C3B24477   2.158  22.831   7.814
 1629POPC   C4B24478   2.327  23.079   7.482
 1630POPC   NC324479  13.395  25.964   9.528
 1630POPC   PO424480  14.096  25.953   9.502
 1630POPC   GL124481  13.758  25.867   9.140
 1630POPC   GL224482  13.358  25.884   9.048
 1630POPC   C1A24483  13.700  26.020   8.717
 1630POPC   D2A24484  13.865  25.928   8.337
 1630POPC   C3A24485  13.665  26.119   7.986
 1630POPC   C4A24486  13.269  26.285   7.831
 1630POPC   C1B24487  13.374  25.622   8.678
 1630POPC   C2B24488  13.439  25.639   8.248
 1630POPC   C3B24489  13.337  25.751   7.819
 1630POPC   C4B24490  13.157  25.673   7.419
 1631POPC   NC324491  33.006  44.062   9.538
 1631POPC   PO424492  32.704  43.496   9.651
 1631POPC   GL124493  32.742  43.693   9.238
 1631POPC   GL224494  33.094  43.717   9.179
 1631POPC   C1A24495  32.802  43.755   8.781
 1631POPC   D2A24496  32.939  44.115   8.526
 1631POPC   C3A24497  32.831  44.171   8.117
 1631POPC   C4A24498  33.040  43.990   7.779
 1631POPC   C1B24499  33.278  44.059   8.901
 1631POPC   C2B24500  33.579  44.098   8.559
 1631POPC   C3B24501  33.477  44.022   8.110
 1631POPC   C4B24502  33.563  43.801   7.715
 1632POPC   NC324503  22.846  44.288   9.543
 1632POPC   PO424504  23.404  43.805   9.494
 1632POPC   GL124505  23.181  43.687   9.132
 1632POPC   GL224506  22.944  43.941   9.142
 1632POPC   C1A24507  22.937  43.635   8.749
 1632POPC   D2A24508  22.728  43.787   8.407
 1632POPC   C3A24509  22.976  44.049   8.153
 1632POPC   C4A24510  23.011  43.775   7.824
 1632POPC   C1B24511  22.893  44.153   8.739
 1632POPC   C2B24512  22.564  44.264   8.413
 1632POPC   C3B24513  22.487  44.077   8.017
 1632POPC   C4B24514  22.765  44.201   7.684
 1633POPC   NC324515  30.796  41.549   9.476
 1633POPC   PO424516  30.283  41.205   9.504
 1633POPC   GL124517  30.486  41.297   9.097
 1633POPC   GL224518  30.558  41.667   9.052
 1633POPC   C1A24519  30.564  41.363   8.637
 1633POPC   D2A24520  30.369  41.659   8.362
 1633POPC   C3A24521  30.500  41.596   7.946
 1633POPC   C4A24522  30.919  41.419   7.792
 1633POPC   C1B24523  30.788  41.835   8.713
 1633POPC   C2B24524  30.912  41.704   8.292
 1633POPC   C3B24525  30.876  41.931   7.903
 1633POPC   C4B24526  30.582  41.979   7.563
 1634POPC   NC324527   0.963  31.221   9.738
 1634POPC   PO424528   1.396  31.532   9.281
 1634POPC   GL124529   1.149  31.594   8.964
 1634POPC   GL224530   1.351  31.891   8.942
 1634POPC   C1A24531   1.119  31.619   8.556
 1634POPC   D2A24532   0.955  31.326   8.307
 1634POPC   C3A24533   1.212  31.237   7.988
 1634POPC   C4A24534   0.905  31.379   7.719
 1634POPC   C1B24535   1.587  31.824   8.598
 1634POPC   C2B24536   1.433  31.785   8.163
 1634POPC   C3B24537   1.380  31.721   7.728
 1634POPC   C4B24538   1.476  31.871   7.299
 1635POPC   NC324539  13.738  28.479   9.592
 1635POPC   PO424540  13.925  27.860   9.486
 1635POPC   GL124541  13.646  28.192   9.173
 1635POPC   GL224542  13.433  28.551   9.161
 1635POPC   C1A24543  13.738  28.467   8.774
 1635POPC   D2A24544  13.820  28.635   8.362
 1635POPC   C3A24545  13.735  28.401   8.000
 1635POPC   C4A24546  14.047  28.206   7.765
 1635POPC   C1B24547  13.251  28.344   8.802
 1635POPC   C2B24548  13.310  28.501   8.403
 1635POPC   C3B24549  13.147  28.493   8.024
 1635POPC   C4B24550  13.303  28.274   7.726
 1636POPC   NC324551   6.524  31.405   9.475
 1636POPC   PO424552   7.099  31.663   9.342
 1636POPC   GL124553   6.823  31.494   9.071
 1636POPC   GL224554   6.587  31.791   9.164
 1636POPC   C1A24555   6.752  31.375   8.642
 1636POPC   D2A24556   6.406  31.231   8.366
 1636POPC   C3A24557   6.553  31.235   7.936
 1636POPC   C4A24558   6.941  31.395   7.784
 1636POPC   C1B24559   6.659  31.873   8.762
 1636POPC   C2B24560   6.474  31.761   8.394
 1636POPC   C3B24561   6.636  31.769   8.011
 1636POPC   C4B24562   6.529  31.676   7.634
 1637POPC   NC324563  14.348   6.466   9.561
 1637POPC   PO424564  14.301   7.045   9.488
 1637POPC   GL124565  14.543   6.767   9.151
 1637POPC   GL224566  14.473   6.366   9.079
 1637POPC   C1A24567  14.718   6.919   8.727
 1637POPC   D2A24568  14.870   6.946   8.269
 1637POPC   C3A24569  14.601   6.945   7.868
 1637POPC   C4A24570  14.529   7.226   7.504
 1637POPC   C1B24571  14.641   6.414   8.695
 1637POPC   C2B24572  14.485   6.610   8.317
 1637POPC   C3B24573  14.340   6.498   7.918
 1637POPC   C4B24574  14.478   6.448   7.508
 1638POPC   NC324575  43.873  43.649   9.795
 1638POPC   PO424576  43.611  44.082   9.410
 1638POPC   GL124577  43.829  43.816   9.149
 1638POPC   GL224578  44.117  44.008   9.163
 1638POPC   C1A24579  43.925  43.922   8.698
 1638POPC   D2A24580  44.156  43.677   8.382
 1638POPC   C3A24581  44.058  43.704   7.950
 1638POPC   C4A24582  43.647  43.752   7.753
 1638POPC   C1B24583  44.220  44.359   8.877
 1638POPC   C2B24584  44.251  44.310   8.466
 1638POPC   C3B24585  43.953  44.130   8.201
 1638POPC   C4B24586  43.881  44.201   7.790
 1639POPC   NC324587  27.332  11.889   9.663
 1639POPC   PO424588  27.941  11.969   9.484
 1639POPC   GL124589  27.677  12.093   9.143
 1639POPC   GL224590  27.299  12.132   9.160
 1639POPC   C1A24591  27.704  12.210   8.726
 1639POPC   D2A24592  27.601  12.173   8.341
 1639POPC   C3A24593  27.883  12.124   8.003
 1639POPC   C4A24594  27.791  11.930   7.596
 1639POPC   C1B24595  27.337  11.849   8.802
 1639POPC   C2B24596  27.228  11.836   8.360
 1639POPC   C3B24597  27.391  11.910   7.953
 1639POPC   C4B24598  27.205  11.834   7.607
 1640POPC   NC324599   8.774  31.937   9.496
 1640POPC   PO424600   9.085  32.583   9.483
 1640POPC   GL124601   9.114  32.241   9.190
 1640POPC   GL224602   8.778  32.284   9.102
 1640POPC   C1A24603   9.117  32.142   8.749
 1640POPC   D2A24604   8.802  32.368   8.515
 1640POPC   C3A24605   8.897  32.453   8.072
 1640POPC   C4A24606   9.050  32.160   7.756
 1640POPC   C1B24607   8.633  31.958   8.810
 1640POPC   C2B24608   8.795  31.863   8.404
 1640POPC   C3B24609   8.659  31.987   8.022
 1640POPC   C4B24610   8.611  31.995   7.566
 1641POPC   NC324611  14.279  30.866   9.633
 1641POPC   PO424612  14.601  30.287   9.731
 1641POPC   GL124613  14.668  30.569   9.313
 1641POPC   GL224614  14.846  30.386   9.059
 1641POPC   C1A24615  14.600  30.815   8.902
 1641POPC   D2A24616  14.734  30.766   8.428
 1641POPC   C3A24617  14.554  30.811   7.963
 1641POPC   C4A24618  14.518  30.668   7.497
 1641POPC   C1B24619  14.475  30.346   8.762
 1641POPC   C2B24620  14.066  30.403   8.584
 1641POPC   C3B24621  14.152  30.500   8.164
 1641POPC   C4B24622  14.094  30.687   7.773
 1642POPC   NC324623  17.542  25.504   9.687
 1642POPC   PO424624  17.651  24.900   9.569
 1642POPC   GL124625  17.565  25.103   9.212
 1642POPC   GL224626  17.605  25.462   9.170
 1642POPC   C1A24627  17.415  25.170   8.793
 1642POPC   D2A24628  17.610  25.358   8.436
 1642POPC   C3A24629  17.429  25.176   8.101
 1642POPC   C4A24630  17.526  25.126   7.704
 1642POPC   C1B24631  17.321  25.645   8.829
 1642POPC   C2B24632  17.112  25.453   8.403
 1642POPC   C3B24633  17.018  25.433   7.929
 1642POPC   C4B24634  17.175  25.433   7.515
 1643POPC   NC324635  15.635   7.460   9.526
 1643POPC   PO424636  16.232   7.128   9.530
 1643POPC   GL124637  16.051   7.310   9.175
 1643POPC   GL224638  15.946   7.631   9.162
 1643POPC   C1A24639  15.969   7.345   8.718
 1643POPC   D2A24640  15.782   7.206   8.343
 1643POPC   C3A24641  15.997   7.277   7.956
 1643POPC   C4A24642  15.950   7.124   7.536
 1643POPC   C1B24643  15.877   7.849   8.755
 1643POPC   C2B24644  15.835   7.720   8.302
 1643POPC   C3B24645  16.039   7.774   7.880
 1643POPC   C4B24646  15.985   7.854   7.406
 1644POPC   NC324647   3.844   8.017   9.492
 1644POPC   PO424648   3.398   8.471   9.236
 1644POPC   GL124649   3.758   8.322   9.043
 1644POPC   GL224650   3.703   8.002   9.009
 1644POPC   C1A24651   3.685   8.237   8.586
 1644POPC   D2A24652   3.275   8.235   8.398
 1644POPC   C3A24653   3.364   8.320   7.973
 1644POPC   C4A24654   3.800   8.318   7.828
 1644POPC   C1B24655   3.491   7.770   8.633
 1644POPC   C2B24656   3.521   7.831   8.214
 1644POPC   C3B24657   3.559   7.845   7.809
 1644POPC   C4B24658   3.622   7.568   7.462
 1645POPC   NC324659   2.377  16.627   9.492
 1645POPC   PO424660   1.782  16.879   9.484
 1645POPC   GL124661   1.873  16.610   9.181
 1645POPC   GL224662   1.969  16.324   9.379
 1645POPC   C1A24663   2.010  16.748   8.765
 1645POPC   D2A24664   2.027  17.055   8.419
 1645POPC   C3A24665   1.700  17.106   8.142
 1645POPC   C4A24666   1.894  16.837   7.829
 1645POPC   C1B24667   2.056  16.222   8.916
 1645POPC   C2B24668   2.189  16.345   8.505
 1645POPC   C3B24669   2.194  16.517   8.114
 1645POPC   C4B24670   2.107  16.341   7.735
 1646POPC   NC324671  36.153  37.301   9.386
 1646POPC   PO424672  36.363  36.646   9.354
 1646POPC   GL124673  36.088  36.869   9.114
 1646POPC   GL224674  35.799  36.662   9.152
 1646POPC   C1A24675  36.007  37.108   8.732
 1646POPC   D2A24676  35.778  37.144   8.363
 1646POPC   C3A24677  35.966  37.317   7.988
 1646POPC   C4A24678  35.952  37.068   7.609
 1646POPC   C1B24679  36.044  36.509   8.764
 1646POPC   C2B24680  36.162  36.366   8.344
 1646POPC   C3B24681  36.076  36.581   7.956
 1646POPC   C4B24682  36.331  36.593   7.626
 1647POPC   NC324683  38.443  40.419   9.486
 1647POPC   PO424684  38.601  41.135   9.535
 1647POPC   GL124685  38.317  40.908   9.203
 1647POPC   GL224686  38.157  40.576   9.083
 1647POPC   C1A24687  38.179  40.972   8.784
 1647POPC   D2A24688  38.061  40.908   8.374
 1647POPC   C3A24689  38.354  40.708   8.131
 1647POPC   C4A24690  38.429  40.863   7.748
 1647POPC   C1B24691  38.488  40.534   8.777
 1647POPC   C2B24692  38.788  40.607   8.430
 1647POPC   C3B24693  38.779  40.388   8.035
 1647POPC   C4B24694  38.442  40.344   7.753
 1648POPC   NC324695  14.948  20.373   9.433
 1648POPC   PO424696  14.307  20.690   9.483
 1648POPC   GL124697  14.562  20.604   9.161
 1648POPC   GL224698  14.551  20.935   9.059
 1648POPC   C1A24699  14.424  20.565   8.735
 1648POPC   D2A24700  14.539  20.709   8.344
 1648POPC   C3A24701  14.501  20.466   7.964
 1648POPC   C4A24702  14.153  20.535   7.703
 1648POPC   C1B24703  14.840  20.924   8.743
 1648POPC   C2B24704  14.969  21.000   8.334
 1648POPC   C3B24705  14.812  20.895   7.932
 1648POPC   C4B24706  14.619  20.743   7.544
 1649POPC   NC324707   3.092  36.372   9.497
 1649POPC   PO424708   2.717  35.855   9.715
 1649POPC   GL124709   2.857  35.909   9.258
 1649POPC   GL224710   3.064  36.177   9.041
 1649POPC   C1A24711   2.816  35.825   8.802
 1649POPC   D2A24712   3.081  36.072   8.513
 1649POPC   C3A24713   2.942  36.064   8.088
 1649POPC   C4A24714   2.488  36.043   7.898
 1649POPC   C1B24715   2.696  36.330   8.775
 1649POPC   C2B24716   2.585  36.311   8.342
 1649POPC   C3B24717   2.680  36.518   7.888
 1649POPC   C4B24718   2.538  36.469   7.408
 1650POPC   NC324719   7.168   0.912   9.521
 1650POPC   PO424720   7.609   1.359   9.492
 1650POPC   GL124721   7.342   1.225   9.147
 1650POPC   GL224722   7.489   0.930   9.128
 1650POPC   C1A24723   7.197   1.418   8.769
 1650POPC   D2A24724   7.337   1.328   8.381
 1650POPC   C3A24725   7.233   1.515   7.992
 1650POPC   C4A24726   7.351   1.356   7.642
 1650POPC   C1B24727   7.504   0.835   8.711
 1650POPC   C2B24728   7.678   0.753   8.333
 1650POPC   C3B24729   7.502   0.680   7.942
 1650POPC   C4B24730   7.600   0.930   7.593
 1651POPC   NC324731  28.759  33.369   9.590
 1651POPC   PO424732  28.283  32.865   9.532
 1651POPC   GL124733  28.394  32.848   9.136
 1651POPC   GL224734  28.515  33.172   9.179
 1651POPC   C1A24735  28.388  32.998   8.719
 1651POPC   D2A24736  28.507  32.773   8.398
 1651POPC   C3A24737  28.206  32.837   8.074
 1651POPC   C4A24738  28.306  33.055   7.683
 1651POPC   C1B24739  28.856  33.101   8.917
 1651POPC   C2B24740  28.858  33.173   8.467
 1651POPC   C3B24741  28.680  33.112   8.053
 1651POPC   C4B24742  28.809  32.960   7.652
 1652POPC   NC324743  23.045  36.828   9.672
 1652POPC   PO424744  22.525  37.158   9.363
 1652POPC   GL124745  22.903  36.833   9.190
 1652POPC   GL224746  23.301  36.895   9.230
 1652POPC   C1A24747  23.086  36.685   8.783
 1652POPC   D2A24748  22.804  36.968   8.514
 1652POPC   C3A24749  22.692  36.925   8.064
 1652POPC   C4A24750  22.948  36.801   7.730
 1652POPC   C1B24751  23.162  37.168   8.893
 1652POPC   C2B24752  23.312  37.136   8.459
 1652POPC   C3B24753  23.146  37.184   8.044
 1652POPC   C4B24754  23.205  37.273   7.589
 1653POPC   NC324755  26.176   4.213   9.541
 1653POPC   PO424756  26.240   3.741   9.215
 1653POPC   GL124757  26.392   4.149   9.054
 1653POPC   GL224758  26.468   4.503   9.163
 1653POPC   C1A24759  26.307   4.313   8.643
 1653POPC   D2A24760  25.959   4.398   8.334
 1653POPC   C3A24761  26.015   4.224   7.910
 1653POPC   C4A24762  26.401   4.086   7.746
 1653POPC   C1B24763  26.535   4.749   8.772
 1653POPC   C2B24764  26.346   4.759   8.354
 1653POPC   C3B24765  26.074   4.742   7.967
 1653POPC   C4B24766  26.132   4.589   7.565
 1654POPC   NC324767  11.945  41.354   9.597
 1654POPC   PO424768  12.097  41.889   9.803
 1654POPC   GL124769  12.167  41.712   9.346
 1654POPC   GL224770  11.807  41.752   9.258
 1654POPC   C1A24771  12.128  41.531   8.919
 1654POPC   D2A24772  12.065  41.376   8.513
 1654POPC   C3A24773  12.110  41.552   8.104
 1654POPC   C4A24774  12.271  41.334   7.760
 1654POPC   C1B24775  11.812  41.962   8.877
 1654POPC   C2B24776  11.822  41.859   8.438
 1654POPC   C3B24777  11.757  41.948   7.999
 1654POPC   C4B24778  11.860  41.681   7.650
 1655POPC   NC324779  22.402  18.954   9.812
 1655POPC   PO424780  21.952  19.420   9.517
 1655POPC   GL124781  22.253  19.121   9.318
 1655POPC   GL224782  22.034  19.193   9.061
 1655POPC   C1A24783  22.424  18.898   8.909
 1655POPC   D2A24784  22.264  18.813   8.478
 1655POPC   C3A24785  22.418  18.922   8.045
 1655POPC   C4A24786  22.415  19.208   7.692
 1655POPC   C1B24787  21.861  18.885   8.813
 1655POPC   C2B24788  21.735  18.738   8.425
 1655POPC   C3B24789  21.921  18.819   8.083
 1655POPC   C4B24790  21.974  18.980   7.689
 1656POPC   NC324791   7.619  35.075   9.447
 1656POPC   PO424792   7.083  35.500   9.582
 1656POPC   GL124793   7.375  35.463   9.196
 1656POPC   GL224794   7.345  35.128   9.022
 1656POPC   C1A24795   7.666  35.619   8.858
 1656POPC   D2A24796   7.588  35.802   8.443
 1656POPC   C3A24797   7.517  35.580   8.048
 1656POPC   C4A24798   7.152  35.488   7.788
 1656POPC   C1B24799   7.353  35.296   8.621
 1656POPC   C2B24800   7.119  35.287   8.257
 1656POPC   C3B24801   7.178  34.979   7.926
 1656POPC   C4B24802   7.198  35.075   7.490
 1657POPC   NC324803  27.934  34.717   9.551
 1657POPC   PO424804  27.916  34.049   9.624
 1657POPC   GL124805  27.938  34.242   9.230
 1657POPC   GL224806  27.676  34.501   9.185
 1657POPC   C1A24807  27.862  34.243   8.783
 1657POPC   D2A24808  28.051  34.399   8.416
 1657POPC   C3A24809  27.810  34.332   8.066
 1657POPC   C4A24810  27.953  34.412   7.656
 1657POPC   C1B24811  27.376  34.476   8.863
 1657POPC   C2B24812  27.464  34.488   8.438
 1657POPC   C3B24813  27.348  34.537   8.020
 1657POPC   C4B24814  27.540  34.749   7.668
 1658POPC   NC324815  28.197   2.567   9.566
 1658POPC   PO424816  28.646   3.047   9.445
 1658POPC   GL124817  28.339   2.896   9.187
 1658POPC   GL224818  28.491   2.588   9.144
 1658POPC   C1A24819  28.279   2.841   8.758
 1658POPC   D2A24820  28.275   3.111   8.429
 1658POPC   C3A24821  28.226   2.908   8.055
 1658POPC   C4A24822  28.294   2.700   7.662
 1658POPC   C1B24823  28.753   2.664   8.802
 1658POPC   C2B24824  28.632   2.744   8.397
 1658POPC   C3B24825  28.601   2.540   8.056
 1658POPC   C4B24826  28.634   2.300   7.712
 1659POPC   NC324827  14.310  14.066   9.519
 1659POPC   PO424828  14.496  14.707   9.414
 1659POPC   GL124829  14.255  14.541   9.040
 1659POPC   GL224830  14.047  14.220   9.076
 1659POPC   C1A24831  14.204  14.545   8.581
 1659POPC   D2A24832  14.005  14.519   8.207
 1659POPC   C3A24833  14.243  14.566   7.892
 1659POPC   C4A24834  14.580  14.324   7.832
 1659POPC   C1B24835  14.358  14.104   8.759
 1659POPC   C2B24836  14.337  14.116   8.298
 1659POPC   C3B24837  14.140  14.032   7.907
 1659POPC   C4B24838  14.175  14.093   7.465
 1660POPC   NC324839  36.863  10.965   9.930
 1660POPC   PO424840  37.283  10.665   9.582
 1660POPC   GL124841  36.977  10.698   9.230
 1660POPC   GL224842  37.259  10.824   9.059
 1660POPC   C1A24843  36.716  10.657   8.811
 1660POPC   D2A24844  36.540  10.639   8.356
 1660POPC   C3A24845  36.751  10.399   7.973
 1660POPC   C4A24846  36.913  10.042   7.696
 1660POPC   C1B24847  37.169  10.778   8.629
 1660POPC   C2B24848  37.020  10.761   8.216
 1660POPC   C3B24849  37.210  10.685   7.831
 1660POPC   C4B24850  37.020  10.491   7.494
 1661POPC   NC324851  41.414  37.987   9.724
 1661POPC   PO424852  41.660  37.490   9.506
 1661POPC   GL124853  41.630  37.721   9.171
 1661POPC   GL224854  41.319  37.910   9.161
 1661POPC   C1A24855  41.756  37.634   8.737
 1661POPC   D2A24856  41.702  37.476   8.310
 1661POPC   C3A24857  41.731  37.827   8.014
 1661POPC   C4A24858  41.722  37.884   7.574
 1661POPC   C1B24859  41.261  37.601   8.827
 1661POPC   C2B24860  41.188  37.446   8.398
 1661POPC   C3B24861  41.271  37.613   7.977
 1661POPC   C4B24862  41.552  37.426   7.689
 1662POPC   NC324863   3.083  32.714   9.389
 1662POPC   PO424864   3.610  33.115   9.596
 1662POPC   GL124865   3.424  33.024   9.169
 1662POPC   GL224866   3.181  33.245   9.137
 1662POPC   C1A24867   3.563  32.921   8.720
 1662POPC   D2A24868   3.744  33.024   8.325
 1662POPC   C3A24869   3.781  32.747   7.989
 1662POPC   C4A24870   3.592  32.661   7.611
 1662POPC   C1B24871   3.072  33.004   8.787
 1662POPC   C2B24872   3.168  32.833   8.394
 1662POPC   C3B24873   3.340  32.992   8.015
 1662POPC   C4B24874   3.327  33.201   7.639
 1663POPC   NC324875  27.686  29.270   9.446
 1663POPC   PO424876  27.396  28.739   9.503
 1663POPC   GL124877  27.498  28.936   9.097
 1663POPC   GL224878  27.838  28.968   9.060
 1663POPC   C1A24879  27.598  29.328   8.819
 1663POPC   D2A24880  27.564  29.416   8.429
 1663POPC   C3A24881  27.734  29.179   8.138
 1663POPC   C4A24882  27.628  29.235   7.728
 1663POPC   C1B24883  27.702  28.876   8.621
 1663POPC   C2B24884  27.689  28.633   8.266
 1663POPC   C3B24885  27.694  28.698   7.836
 1663POPC   C4B24886  27.924  28.715   7.452
 1664POPC   NC324887  33.644  26.607   9.529
 1664POPC   PO424888  33.697  27.303   9.633
 1664POPC   GL124889  33.607  27.013   9.201
 1664POPC   GL224890  33.837  26.670   9.081
 1664POPC   C1A24891  33.641  26.939   8.725
 1664POPC   D2A24892  33.914  27.091   8.377
 1664POPC   C3A24893  33.780  27.168   7.967
 1664POPC   C4A24894  33.599  26.841   7.733
 1664POPC   C1B24895  34.120  26.757   8.733
 1664POPC   C2B24896  34.214  26.664   8.322
 1664POPC   C3B24897  34.089  26.734   7.902
 1664POPC   C4B24898  33.993  26.634   7.488
 1665POPC   NC324899  26.834  34.447   9.615
 1665POPC   PO424900  26.782  35.046   9.378
 1665POPC   GL124901  26.877  34.708   9.122
 1665POPC   GL224902  26.682  34.382   9.151
 1665POPC   C1A24903  26.986  34.780   8.700
 1665POPC   D2A24904  26.796  34.583   8.367
 1665POPC   C3A24905  26.875  34.705   7.963
 1665POPC   C4A24906  26.672  34.713   7.581
 1665POPC   C1B24907  26.872  34.272   8.806
 1665POPC   C2B24908  27.064  34.153   8.451
 1665POPC   C3B24909  26.929  34.198   8.043
 1665POPC   C4B24910  27.042  34.362   7.643
 1666POPC   NC324911   0.410   4.380   9.665
 1666POPC   PO424912  44.710   4.359   9.565
 1666POPC   GL124913  44.612   4.396   9.159
 1666POPC   GL224914  44.847   4.665   9.097
 1666POPC   C1A24915  44.401   4.236   8.801
 1666POPC   D2A24916  44.593   4.321   8.387
 1666POPC   C3A24917  44.424   4.516   8.020
 1666POPC   C4A24918  44.428   4.379   7.601
 1666POPC   C1B24919  44.967   4.449   8.728
 1666POPC   C2B24920   0.129   4.509   8.323
 1666POPC   C3B24921   0.035   4.395   7.914
 1666POPC   C4B24922  44.928   4.327   7.500
 1667POPC   NC324923  40.079  36.866   9.647
 1667POPC   PO424924  39.467  37.160   9.591
 1667POPC   GL124925  39.694  36.861   9.293
 1667POPC   GL224926  40.030  36.964   9.154
 1667POPC   C1A24927  39.666  36.785   8.835
 1667POPC   D2A24928  39.953  36.882   8.514
 1667POPC   C3A24929  39.774  36.891   8.128
 1667POPC   C4A24930  39.857  36.810   7.726
 1667POPC   C1B24931  40.289  36.711   8.881
 1667POPC   C2B24932  40.432  36.655   8.464
 1667POPC   C3B24933  40.279  36.760   8.056
 1667POPC   C4B24934  40.327  36.645   7.654
 1668POPC   NC324935  26.602  31.688   9.793
 1668POPC   PO424936  26.051  31.475   9.509
 1668POPC   GL124937  26.055  31.276   9.128
 1668POPC   GL224938  25.720  31.121   9.224
 1668POPC   C1A24939  26.190  31.429   8.704
 1668POPC   D2A24940  26.269  31.232   8.304
 1668POPC   C3A24941  26.072  31.432   7.998
 1668POPC   C4A24942  25.916  31.672   7.668
 1668POPC   C1B24943  25.696  31.291   8.793
 1668POPC   C2B24944  25.747  31.460   8.393
 1668POPC   C3B24945  25.579  31.398   7.980
 1668POPC   C4B24946  25.749  31.173   7.662
 1669POPC   NC324947  40.432   3.783   9.582
 1669POPC   PO424948  39.887   3.562   9.733
 1669POPC   GL124949  39.953   3.625   9.267
 1669POPC   GL224950  40.271   3.537   9.163
 1669POPC   C1A24951  39.930   3.525   8.786
 1669POPC   D2A24952  39.842   3.201   8.452
 1669POPC   C3A24953  39.660   3.294   8.003
 1669POPC   C4A24954  39.689   3.248   7.534
 1669POPC   C1B24955  40.296   3.866   8.809
 1669POPC   C2B24956  40.181   3.868   8.367
 1669POPC   C3B24957  39.974   3.691   8.012
 1669POPC   C4B24958  39.882   3.714   7.580
 1670POPC   NC324959  42.105  21.734   9.413
 1670POPC   PO424960  42.518  21.298   9.747
 1670POPC   GL124961  42.380  21.146   9.288
 1670POPC   GL224962  42.730  21.098   9.224
 1670POPC   C1A24963  42.220  21.091   8.832
 1670POPC   D2A24964  41.996  21.171   8.386
 1670POPC   C3A24965  42.152  21.423   8.011
 1670POPC   C4A24966  41.997  21.500   7.599
 1670POPC   C1B24967  42.750  20.914   8.807
 1670POPC   C2B24968  42.645  20.770   8.402
 1670POPC   C3B24969  42.516  21.072   8.101
 1670POPC   C4B24970  42.711  21.480   7.962
 1671POPC   NC324971  21.190   7.933   9.471
 1671POPC   PO424972  21.507   7.350   9.339
 1671POPC   GL124973  21.508   7.522   8.992
 1671POPC   GL224974  21.436   7.843   9.038
 1671POPC   C1A24975  21.374   7.443   8.602
 1671POPC   D2A24976  21.124   7.279   8.292
 1671POPC   C3A24977  21.463   7.356   8.050
 1671POPC   C4A24978  21.804   7.251   7.794
 1671POPC   C1B24979  21.016   7.717   8.830
 1671POPC   C2B24980  20.833   7.702   8.379
 1671POPC   C3B24981  20.997   7.616   7.933
 1671POPC   C4B24982  21.399   7.650   7.646
 1672POPC   NC324983  43.608   2.690   9.477
 1672POPC   PO424984  44.292   2.821   9.458
 1672POPC   GL124985  43.984   2.708   9.095
 1672POPC   GL224986  43.703   2.448   9.020
 1672POPC   C1A24987  44.093   2.544   8.669
 1672POPC   D2A24988  44.290   2.688   8.252
 1672POPC   C3A24989  43.940   2.783   7.948
 1672POPC   C4A24990  43.592   2.907   7.662
 1672POPC   C1B24991  43.493   2.294   8.634
 1672POPC   C2B24992  43.624   2.464   8.251
 1672POPC   C3B24993  43.554   2.414   7.826
 1672POPC   C4B24994  43.452   2.472   7.393
 1673POPC   NC324995  40.114  38.423   9.727
 1673POPC   PO424996  40.481  38.604   9.247
 1673POPC   GL124997  40.120  38.381   9.171
 1673POPC   GL224998  39.837  38.615   9.107
 1673POPC   C1A24999  40.140  38.122   8.814
 1673POPC   D2A25000  40.294  38.274   8.423
 1673POPC   C3A25001  40.104  38.266   8.028
 1673POPC   C4A25002  40.125  38.423   7.620
 1673POPC   C1B25003  39.922  38.550   8.684
 1673POPC   C2B25004  39.761  38.554   8.285
 1673POPC   C3B25005  39.679  38.505   7.855
 1673POPC   C4B25006  39.762  38.756   7.530
 1674POPC   NC325007  41.504  24.810   9.451
 1674POPC   PO425008  41.894  24.311   9.540
 1674POPC   GL125009  41.835  24.476   9.169
 1674POPC   GL225010  41.913  24.783   9.139
 1674POPC   C1A25011  41.591  24.382   8.833
 1674POPC   D2A25012  41.429  24.618   8.516
 1674POPC   C3A25013  41.477  24.442   8.121
 1674POPC   C4A25014  41.742  24.246   7.845
 1674POPC   C1B25015  42.004  24.719   8.705
 1674POPC   C2B25016  41.833  24.835   8.309
 1674POPC   C3B25017  41.786  24.833   7.870
 1674POPC   C4B25018  41.766  24.970   7.429
 1675POPC   NC325019   4.475  29.313   9.390
 1675POPC   PO425020   4.051  28.846   9.696
 1675POPC   GL125021   4.104  28.980   9.224
 1675POPC   GL225022   3.960  29.333   9.180
 1675POPC   C1A25023   4.286  28.924   8.753
 1675POPC   D2A25024   4.579  29.194   8.493
 1675POPC   C3A25025   4.456  29.159   8.065
 1675POPC   C4A25026   4.195  28.919   7.812
 1675POPC   C1B25027   4.203  29.430   8.799
 1675POPC   C2B25028   4.136  29.448   8.364
 1675POPC   C3B25029   4.010  29.413   7.951
 1675POPC   C4B25030   4.293  29.399   7.632
 1676POPC   NC325031  20.228  30.946   9.512
 1676POPC   PO425032  19.699  30.492   9.665
 1676POPC   GL125033  19.764  30.437   9.217
 1676POPC   GL225034  20.002  30.697   9.116
 1676POPC   C1A25035  19.563  30.386   8.809
 1676POPC   D2A25036  19.426  30.452   8.368
 1676POPC   C3A25037  19.795  30.611   8.122
 1676POPC   C4A25038  20.053  30.641   7.759
 1676POPC   C1B25039  19.899  30.771   8.685
 1676POPC   C2B25040  19.981  31.042   8.348
 1676POPC   C3B25041  19.820  31.082   7.939
 1676POPC   C4B25042  20.087  31.127   7.617
 1677POPC   NC325043  17.940   8.324   9.485
 1677POPC   PO425044  18.526   8.030   9.391
 1677POPC   GL125045  18.597   8.261   9.022
 1677POPC   GL225046  18.358   8.473   9.128
 1677POPC   C1A25047  18.498   8.360   8.609
 1677POPC   D2A25048  18.540   8.075   8.293
 1677POPC   C3A25049  18.534   8.219   7.899
 1677POPC   C4A25050  18.228   8.113   7.633
 1677POPC   C1B25051  18.062   8.249   8.866
 1677POPC   C2B25052  17.927   8.327   8.474
 1677POPC   C3B25053  18.182   8.487   8.166
 1677POPC   C4B25054  18.138   8.584   7.743
 1678POPC   NC325055  19.564  25.167   9.589
 1678POPC   PO425056  20.244  24.999   9.533
 1678POPC   GL125057  19.863  25.037   9.195
 1678POPC   GL225058  19.642  25.342   9.130
 1678POPC   C1A25059  19.741  24.910   8.752
 1678POPC   D2A25060  19.892  25.176   8.411
 1678POPC   C3A25061  19.712  25.272   8.023
 1678POPC   C4A25062  19.912  25.053   7.709
 1678POPC   C1B25063  19.317  25.093   8.936
 1678POPC   C2B25064  19.316  25.078   8.478
 1678POPC   C3B25065  19.265  24.982   8.044
 1678POPC   C4B25066  19.413  25.018   7.648
 1679POPC   NC325067  17.397  40.404   9.688
 1679POPC   PO425068  17.974  40.155   9.412
 1679POPC   GL125069  17.564  40.205   9.201
 1679POPC   GL225070  17.201  40.219   9.262
 1679POPC   C1A25071  17.482  40.022   8.796
 1679POPC   D2A25072  17.696  39.866   8.436
 1679POPC   C3A25073  17.625  40.038   8.031
 1679POPC   C4A25074  17.405  39.794   7.737
 1679POPC   C1B25075  17.086  40.334   8.846
 1679POPC   C2B25076  17.298  40.366   8.449
 1679POPC   C3B25077  17.168  40.266   8.058
 1679POPC   C4B25078  17.296  40.315   7.679
 1680POPC   NC325079  37.294  41.585   9.346
 1680POPC   PO425080  37.897  41.837   9.534
 1680POPC   GL125081  37.784  41.595   9.189
 1680POPC   GL225082  37.971  41.317   9.076
 1680POPC   C1A25083  37.759  41.697   8.781
 1680POPC   D2A25084  37.820  41.903   8.413
 1680POPC   C3A25085  37.910  41.681   8.024
 1680POPC   C4A25086  37.626  41.485   7.744
 1680POPC   C1B25087  37.726  41.195   8.662
 1680POPC   C2B25088  37.668  41.280   8.249
 1680POPC   C3B25089  37.931  41.119   7.936
 1680POPC   C4B25090  38.144  41.243   7.568
 1681POPC   NC325091  27.419   9.808   9.587
 1681POPC   PO425092  26.761   9.989   9.789
 1681POPC   GL125093  26.839   9.743   9.356
 1681POPC   GL225094  27.172   9.679   9.176
 1681POPC   C1A25095  26.775   9.686   8.885
 1681POPC   D2A25096  26.888   9.813   8.471
 1681POPC   C3A25097  26.696   9.618   8.128
 1681POPC   C4A25098  26.587   9.928   7.824
 1681POPC   C1B25099  27.279   9.606   8.743
 1681POPC   C2B25100  27.306   9.491   8.327
 1681POPC   C3B25101  27.164   9.737   7.968
 1681POPC   C4B25102  26.916   9.563   7.665
 1682POPC   NC325103  34.589  14.937   9.578
 1682POPC   PO425104  34.907  15.441   9.505
 1682POPC   GL125105  34.707  15.197   9.166
 1682POPC   GL225106  34.358  15.079   9.152
 1682POPC   C1A25107  34.727  15.013   8.767
 1682POPC   D2A25108  34.895  14.856   8.380
 1682POPC   C3A25109  34.723  15.096   8.077
 1682POPC   C4A25110  34.570  15.169   7.690
 1682POPC   C1B25111  34.230  14.833   8.816
 1682POPC   C2B25112  34.347  14.891   8.404
 1682POPC   C3B25113  34.273  14.838   7.976
 1682POPC   C4B25114  34.208  14.842   7.521
 1683POPC   NC325115  44.638   3.922   9.401
 1683POPC   PO425116  44.728   3.286   9.584
 1683POPC   GL125117  44.639   3.455   9.166
 1683POPC   GL225118  44.947   3.660   9.059
 1683POPC   C1A25119  44.538   3.553   8.737
 1683POPC   D2A25120  44.921   3.556   8.462
 1683POPC   C3A25121  44.892   3.608   8.013
 1683POPC   C4A25122  44.642   3.521   7.675
 1683POPC   C1B25123  44.832   3.969   8.731
 1683POPC   C2B25124  44.978   4.026   8.278
 1683POPC   C3B25125  44.675   4.046   7.887
 1683POPC   C4B25126  44.645   3.932   7.389
 1684POPC   NC325127   3.322   4.904   9.810
 1684POPC   PO425128   3.167   5.369   9.365
 1684POPC   GL125129   2.846   5.201   9.084
 1684POPC   GL225130   2.791   4.825   9.149
 1684POPC   C1A25131   2.604   5.249   8.688
 1684POPC   D2A25132   2.724   5.389   8.272
 1684POPC   C3A25133   3.070   5.125   8.176
 1684POPC   C4A25134   3.127   4.890   7.806
 1684POPC   C1B25135   2.499   4.758   8.795
 1684POPC   C2B25136   2.413   4.849   8.361
 1684POPC   C3B25137   2.634   4.900   7.993
 1684POPC   C4B25138   2.661   4.856   7.565
 1685POPC   NC325139  27.447  13.149   9.640
 1685POPC   PO425140  28.024  12.764   9.635
 1685POPC   GL125141  27.746  12.912   9.277
 1685POPC   GL225142  27.424  12.734   9.314
 1685POPC   C1A25143  27.569  13.054   8.871
 1685POPC   D2A25144  27.676  12.988   8.432
 1685POPC   C3A25145  27.356  13.057   8.085
 1685POPC   C4A25146  27.514  12.923   7.661
 1685POPC   C1B25147  27.409  12.568   8.911
 1685POPC   C2B25148  27.373  12.607   8.472
 1685POPC   C3B25149  27.541  12.582   8.051
 1685POPC   C4B25150  27.716  12.441   7.650
 1686POPC   NC325151  40.109  27.494   9.622
 1686POPC   PO425152  39.851  28.013   9.308
 1686POPC   GL125153  40.083  27.711   9.101
 1686POPC   GL225154  39.910  27.425   9.151
 1686POPC   C1A25155  40.219  27.741   8.676
 1686POPC   D2A25156  40.434  27.667   8.305
 1686POPC   C3A25157  40.174  27.799   7.967
 1686POPC   C4A25158  40.225  28.170   7.731
 1686POPC   C1B25159  40.069  27.261   8.768
 1686POPC   C2B25160  39.987  27.378   8.337
 1686POPC   C3B25161  39.841  27.197   7.951
 1686POPC   C4B25162  40.086  26.999   7.656
 1687POPC   NC325163  43.684   3.683   9.389
 1687POPC   PO425164  43.075   3.821   9.520
 1687POPC   GL125165  43.070   4.010   9.152
 1687POPC   GL225166  43.421   4.031   9.106
 1687POPC   C1A25167  42.966   4.219   8.767
 1687POPC   D2A25168  43.182   4.331   8.382
 1687POPC   C3A25169  42.919   4.328   8.031
 1687POPC   C4A25170  42.719   4.047   7.757
 1687POPC   C1B25171  43.396   3.933   8.676
 1687POPC   C2B25172  43.599   4.061   8.282
 1687POPC   C3B25173  43.481   4.250   7.883
 1687POPC   C4B25174  43.491   4.136   7.422
 1688POPC   NC325175  31.980  31.978   9.577
 1688POPC   PO425176  32.276  32.529   9.509
 1688POPC   GL125177  32.241  32.365   9.115
 1688POPC   GL225178  32.181  32.004   9.112
 1688POPC   C1A25179  32.424  32.293   8.749
 1688POPC   D2A25180  32.187  32.326   8.410
 1688POPC   C3A25181  32.365  32.521   8.068
 1688POPC   C4A25182  32.180  32.421   7.714
 1688POPC   C1B25183  32.065  31.878   8.702
 1688POPC   C2B25184  31.832  31.962   8.333
 1688POPC   C3B25185  31.973  32.001   7.914
 1688POPC   C4B25186  31.848  31.957   7.494
 1689POPC   NC325187   2.282   4.072   9.813
 1689POPC   PO425188   2.855   4.444   9.569
 1689POPC   GL125189   2.739   4.296   9.163
 1689POPC   GL225190   2.602   3.955   9.183
 1689POPC   C1A25191   2.929   4.456   8.785
 1689POPC   D2A25192   2.916   4.681   8.399
 1689POPC   C3A25193   3.000   4.451   8.034
 1689POPC   C4A25194   2.728   4.386   7.722
 1689POPC   C1B25195   2.868   3.945   8.784
 1689POPC   C2B25196   2.879   4.037   8.321
 1689POPC   C3B25197   2.918   3.936   7.840
 1689POPC   C4B25198   2.970   4.092   7.378
 1690POPC   NC325199  29.590  11.395   9.223
 1690POPC   PO425200  29.052  11.171   9.522
 1690POPC   GL125201  29.101  11.438   9.140
 1690POPC   GL225202  29.125  11.173   8.887
 1690POPC   C1A25203  28.968  11.621   8.705
 1690POPC   D2A25204  28.981  11.387   8.310
 1690POPC   C3A25205  28.981  11.518   7.894
 1690POPC   C4A25206  29.214  11.193   7.717
 1690POPC   C1B25207  29.432  11.448   8.626
 1690POPC   C2B25208  29.600  11.716   8.354
 1690POPC   C3B25209  29.478  11.556   7.976
 1690POPC   C4B25210  29.631  11.517   7.564
 1691POPC   NC325211  25.766   2.688   9.731
 1691POPC   PO425212  26.376   2.587   9.622
 1691POPC   GL125213  26.126   2.787   9.276
 1691POPC   GL225214  25.777   2.657   9.217
 1691POPC   C1A25215  25.985   2.985   8.869
 1691POPC   D2A25216  25.951   2.828   8.446
 1691POPC   C3A25217  26.049   2.933   8.018
 1691POPC   C4A25218  26.116   2.681   7.644
 1691POPC   C1B25219  25.629   2.581   8.786
 1691POPC   C2B25220  25.577   2.504   8.323
 1691POPC   C3B25221  25.688   2.542   7.887
 1691POPC   C4B25222  25.803   2.309   7.488
 1692POPC   NC325223  41.785   4.663   9.448
 1692POPC   PO425224  41.363   5.155   9.474
 1692POPC   GL125225  41.400   5.040   9.099
 1692POPC   GL225226  41.387   4.678   9.146
 1692POPC   C1A25227  41.354   5.225   8.665
 1692POPC   D2A25228  41.402   5.364   8.229
 1692POPC   C3A25229  41.668   5.242   7.905
 1692POPC   C4A25230  41.800   4.928   7.627
 1692POPC   C1B25231  41.682   4.800   8.770
 1692POPC   C2B25232  41.617   4.901   8.350
 1692POPC   C3B25233  41.480   4.764   7.975
 1692POPC   C4B25234  41.308   4.679   7.559
 1693POPC   NC325235  29.409  35.320   9.601
 1693POPC   PO425236  28.928  35.696   9.356
 1693POPC   GL125237  29.270  35.530   9.124
 1693POPC   GL225238  29.264  35.158   9.140
 1693POPC   C1A25239  29.199  35.400   8.690
 1693POPC   D2A25240  29.249  35.329   8.258
 1693POPC   C3A25241  28.986  35.227   7.907
 1693POPC   C4A25242  28.963  35.124   7.461
 1693POPC   C1B25243  29.507  35.014   8.796
 1693POPC   C2B25244  29.557  34.893   8.347
 1693POPC   C3B25245  29.513  35.080   7.908
 1693POPC   C4B25246  29.506  35.045   7.445
 1694POPC   NC325247  44.044  17.717   9.484
 1694POPC   PO425248  43.717  18.373   9.463
 1694POPC   GL125249  44.114  18.388   9.183
 1694POPC   GL225250  44.441  18.307   9.309
 1694POPC   C1A25251  44.186  18.557   8.774
 1694POPC   D2A25252  43.840  18.550   8.474
 1694POPC   C3A25253  43.755  18.314   8.101
 1694POPC   C4A25254  43.681  18.540   7.722
 1694POPC   C1B25255  44.431  18.086   8.911
 1694POPC   C2B25256  44.214  18.088   8.530
 1694POPC   C3B25257  44.252  18.081   8.100
 1694POPC   C4B25258  44.153  18.312   7.771
 1695POPC   NC325259  29.877  23.620   9.582
 1695POPC   PO425260  30.374  24.035   9.319
 1695POPC   GL125261  30.090  23.781   9.064
 1695POPC   GL225262  29.788  23.705   9.097
 1695POPC   C1A25263  30.037  23.640   8.622
 1695POPC   D2A25264  30.098  23.524   8.184
 1695POPC   C3A25265  29.860  23.791   7.928
 1695POPC   C4A25266  30.068  24.188   7.844
 1695POPC   C1B25267  29.563  23.506   8.758
 1695POPC   C2B25268  29.617  23.438   8.322
 1695POPC   C3B25269  29.426  23.369   7.940
 1695POPC   C4B25270  29.540  23.566   7.520
 1696POPC   NC325271  21.374  34.166   9.451
 1696POPC   PO425272  21.729  34.709   9.564
 1696POPC   GL125273  21.559  34.847   9.181
 1696POPC   GL225274  21.395  34.527   9.065
 1696POPC   C1A25275  21.719  34.798   8.769
 1696POPC   D2A25276  21.446  34.573   8.513
 1696POPC   C3A25277  21.566  34.628   8.096
 1696POPC   C4A25278  21.521  34.455   7.703
 1696POPC   C1B25279  21.178  34.161   8.845
 1696POPC   C2B25280  21.103  34.110   8.442
 1696POPC   C3B25281  21.251  34.141   8.039
 1696POPC   C4B25282  21.082  34.118   7.662
 1697POPC   NC325283  12.766  32.844   9.676
 1697POPC   PO425284  13.115  33.236   9.425
 1697POPC   GL125285  12.821  32.991   9.167
 1697POPC   GL225286  12.583  33.222   9.024
 1697POPC   C1A25287  12.776  32.733   8.778
 1697POPC   D2A25288  12.852  32.629   8.391
 1697POPC   C3A25289  12.767  32.994   8.151
 1697POPC   C4A25290  12.742  33.078   7.734
 1697POPC   C1B25291  12.939  33.209   8.701
 1697POPC   C2B25292  13.072  33.389   8.320
 1697POPC   C3B25293  13.170  33.316   7.899
 1697POPC   C4B25294  13.003  33.435   7.489
 1698POPC   NC325295  25.986   8.774   9.531
 1698POPC   PO425296  26.458   9.165   9.817
 1698POPC   GL125297  26.315   9.101   9.337
 1698POPC   GL225298  26.161   9.380   9.209
 1698POPC   C1A25299  26.030   8.974   8.926
 1698POPC   D2A25300  26.066   8.988   8.480
 1698POPC   C3A25301  26.203   8.793   8.102
 1698POPC   C4A25302  26.006   9.022   7.785
 1698POPC   C1B25303  26.397   9.300   8.794
 1698POPC   C2B25304  26.514   9.186   8.336
 1698POPC   C3B25305  26.517   9.155   7.869
 1698POPC   C4B25306  26.375   9.030   7.417
 1699POPC   NC325307  13.450  24.831   9.272
 1699POPC   PO425308  13.686  24.184   9.423
 1699POPC   GL125309  13.635  24.264   9.007
 1699POPC   GL225310  13.849  24.556   9.048
 1699POPC   C1A25311  13.518  24.309   8.560
 1699POPC   D2A25312  13.499  24.658   8.288
 1699POPC   C3A25313  13.695  24.725   7.894
 1699POPC   C4A25314  13.757  24.768   7.456
 1699POPC   C1B25315  14.001  24.441   8.635
 1699POPC   C2B25316  13.927  24.383   8.193
 1699POPC   C3B25317  14.055  24.394   7.770
 1699POPC   C4B25318  14.058  24.339   7.354
 1700POPC   NC325319  14.849   1.149   9.656
 1700POPC   PO425320  15.461   0.922   9.474
 1700POPC   GL125321  15.267   1.097   9.074
 1700POPC   GL225322  15.061   1.398   9.152
 1700POPC   C1A25323  15.324   1.172   8.614
 1700POPC   D2A25324  15.218   1.484   8.275
 1700POPC   C3A25325  15.217   1.282   7.938
 1700POPC   C4A25326  15.533   1.106   7.691
 1700POPC   C1B25327  14.861   1.314   8.746
 1700POPC   C2B25328  14.717   1.431   8.356
 1700POPC   C3B25329  14.701   1.256   7.959
 1700POPC   C4B25330  14.687   1.486   7.641
 1701POPC   NC325331   9.587  26.594   9.506
 1701POPC   PO425332   9.909  27.199   9.681
 1701POPC   GL125333   9.730  27.098   9.252
 1701POPC   GL225334   9.755  26.784   9.081
 1701POPC   C1A25335   9.587  27.154   8.791
 1701POPC   D2A25336   9.480  26.796   8.490
 1701POPC   C3A25337   9.374  26.903   8.053
 1701POPC   C4A25338   9.683  27.009   7.713
 1701POPC   C1B25339  10.023  26.564   8.813
 1701POPC   C2B25340  10.009  26.655   8.387
 1701POPC   C3B25341   9.778  26.596   8.042
 1701POPC   C4B25342   9.776  26.341   7.701
 1702POPC   NC325343  30.996   3.874   9.368
 1702POPC   PO425344  31.605   3.566   9.473
 1702POPC   GL125345  31.532   3.460   9.073
 1702POPC   GL225346  31.181   3.479   9.029
 1702POPC   C1A25347  31.461   3.603   8.650
 1702POPC   D2A25348  31.448   3.896   8.358
 1702POPC   C3A25349  31.561   3.670   8.007
 1702POPC   C4A25350  31.374   3.579   7.599
 1702POPC   C1B25351  31.101   3.242   8.609
 1702POPC   C2B25352  31.139   3.444   8.231
 1702POPC   C3B25353  30.931   3.410   7.870
 1702POPC   C4B25354  31.072   3.195   7.508
 1703POPC   NC325355  43.702   0.373   9.638
 1703POPC   PO425356  43.782   0.938   9.330
 1703POPC   GL125357  43.808   0.507   9.164
 1703POPC   GL225358  43.554   0.230   9.127
 1703POPC   C1A25359  43.889   0.389   8.770
 1703POPC   D2A25360  44.073   0.407   8.410
 1703POPC   C3A25361  43.858   0.627   8.077
 1703POPC   C4A25362  44.218   0.790   7.884
 1703POPC   C1B25363  43.600  44.989   8.724
 1703POPC   C2B25364  43.732   0.055   8.314
 1703POPC   C3B25365  43.978   0.133   7.979
 1703POPC   C4B25366  43.721   0.167   7.636
 1704POPC   NC325367  42.327  28.666   9.342
 1704POPC   PO425368  42.206  28.084   9.720
 1704POPC   GL125369  42.248  28.151   9.197
 1704POPC   GL225370  42.132  28.456   8.949
 1704POPC   C1A25371  42.168  27.966   8.808
 1704POPC   D2A25372  41.969  28.046   8.434
 1704POPC   C3A25373  42.206  28.143   8.064
 1704POPC   C4A25374  42.042  28.199   7.656
 1704POPC   C1B25375  42.537  28.351   8.783
 1704POPC   C2B25376  42.669  28.450   8.386
 1704POPC   C3B25377  42.410  28.612   8.074
 1704POPC   C4B25378  42.505  28.463   7.686
 1705POPC   NC325379  23.915  28.961   9.445
 1705POPC   PO425380  23.327  29.054   9.525
 1705POPC   GL125381  23.490  29.030   9.114
 1705POPC   GL225382  23.585  29.373   9.129
 1705POPC   C1A25383  23.564  29.142   8.667
 1705POPC   D2A25384  23.835  29.296   8.323
 1705POPC   C3A25385  23.780  29.156   7.877
 1705POPC   C4A25386  24.007  29.007   7.480
 1705POPC   C1B25387  23.675  29.639   8.755
 1705POPC   C2B25388  23.469  29.651   8.365
 1705POPC   C3B25389  23.355  29.434   7.972
 1705POPC   C4B25390  23.255  29.019   7.828
 1706POPC   NC325391  32.373  16.892   9.629
 1706POPC   PO425392  32.595  16.266   9.811
 1706POPC   GL125393  32.600  16.454   9.351
 1706POPC   GL225394  32.261  16.510   9.293
 1706POPC   C1A25395  32.504  16.504   8.848
 1706POPC   D2A25396  32.254  16.598   8.442
 1706POPC   C3A25397  32.349  16.546   7.981
 1706POPC   C4A25398  32.329  16.490   7.534
 1706POPC   C1B25399  32.058  16.725   8.916
 1706POPC   C2B25400  31.997  17.025   8.542
 1706POPC   C3B25401  32.190  17.016   8.125
 1706POPC   C4B25402  32.127  16.938   7.692
 1707POPC   NC325403  14.369  27.992   9.425
 1707POPC   PO425404  14.519  28.655   9.607
 1707POPC   GL125405  14.639  28.498   9.229
 1707POPC   GL225406  14.349  28.634   9.048
 1707POPC   C1A25407  14.711  28.258   8.864
 1707POPC   D2A25408  14.706  28.426   8.456
 1707POPC   C3A25409  14.759  28.203   8.087
 1707POPC   C4A25410  14.536  28.053   7.756
 1707POPC   C1B25411  14.241  28.480   8.657
 1707POPC   C2B25412  14.225  28.289   8.267
 1707POPC   C3B25413  14.154  27.875   8.140
 1707POPC   C4B25414  14.131  27.696   7.737
 1708POPC   NC325415  35.924  27.477   9.769
 1708POPC   PO425416  36.552  27.688   9.547
 1708POPC   GL125417  36.280  27.585   9.273
 1708POPC   GL225418  35.991  27.806   9.339
 1708POPC   C1A25419  36.299  27.630   8.831
 1708POPC   D2A25420  36.262  27.800   8.437
 1708POPC   C3A25421  36.364  27.556   8.105
 1708POPC   C4A25422  36.314  27.630   7.688
 1708POPC   C1B25423  35.857  27.474   9.047
 1708POPC   C2B25424  35.833  27.586   8.606
 1708POPC   C3B25425  35.694  27.652   8.202
 1708POPC   C4B25426  35.875  27.433   7.861
 1709POPC   NC325427  22.946  21.160   9.494
 1709POPC   PO425428  23.150  21.809   9.582
 1709POPC   GL125429  23.157  21.538   9.163
 1709POPC   GL225430  22.794  21.451   9.091
 1709POPC   C1A25431  23.084  21.481   8.680
 1709POPC   D2A25432  22.987  21.209   8.328
 1709POPC   C3A25433  23.118  21.307   7.924
 1709POPC   C4A25434  22.966  21.627   7.640
 1709POPC   C1B25435  22.599  21.257   8.689
 1709POPC   C2B25436  22.471  21.173   8.253
 1709POPC   C3B25437  22.609  21.325   7.847
 1709POPC   C4B25438  22.533  21.287   7.396
 1710POPC   NC325439  30.399  15.252   9.485
 1710POPC   PO425440  30.737  14.754   9.570
 1710POPC   GL125441  30.770  14.986   9.188
 1710POPC   GL225442  30.438  15.037   9.023
 1710POPC   C1A25443  30.933  15.019   8.776
 1710POPC   D2A25444  31.132  15.178   8.416
 1710POPC   C3A25445  30.982  15.098   7.995
 1710POPC   C4A25446  30.588  15.113   7.733
 1710POPC   C1B25447  30.520  15.319   8.685
 1710POPC   C2B25448  30.572  15.263   8.258
 1710POPC   C3B25449  30.383  15.508   7.956
 1710POPC   C4B25450  30.275  15.508   7.551
 1711POPC   NC325451  14.503   3.223   9.602
 1711POPC   PO425452  14.498   3.852   9.425
 1711POPC   GL125453  14.274   3.690   9.100
 1711POPC   GL225454  14.245   3.337   9.152
 1711POPC   C1A25455  14.334   3.666   8.687
 1711POPC   D2A25456  14.491   3.678   8.303
 1711POPC   C3A25457  14.344   3.551   7.986
 1711POPC   C4A25458  14.303   3.925   7.833
 1711POPC   C1B25459  14.596   3.294   8.945
 1711POPC   C2B25460  14.554   3.224   8.522
 1711POPC   C3B25461  14.786   3.290   8.206
 1711POPC   C4B25462  14.777   3.248   7.809
 1712POPC   NC325463  32.519  27.418   9.858
 1712POPC   PO425464  32.005  27.713   9.514
 1712POPC   GL125465  32.189  27.550   9.181
 1712POPC   GL225466  31.918  27.448   9.065
 1712POPC   C1A25467  32.328  27.522   8.762
 1712POPC   D2A25468  32.467  27.579   8.329
 1712POPC   C3A25469  32.234  27.499   7.980
 1712POPC   C4A25470  32.410  27.456   7.616
 1712POPC   C1B25471  31.863  27.756   8.784
 1712POPC   C2B25472  31.981  27.720   8.401
 1712POPC   C3B25473  31.975  27.938   8.056
 1712POPC   C4B25474  31.842  27.879   7.638
 1713POPC   NC325475  28.297  43.998   9.569
 1713POPC   PO425476  28.390  43.391   9.429
 1713POPC   GL125477  28.434  43.745   9.145
 1713POPC   GL225478  28.124  43.925   9.106
 1713POPC   C1A25479  28.539  43.796   8.733
 1713POPC   D2A25480  28.726  43.963   8.376
 1713POPC   C3A25481  28.677  43.757   8.030
 1713POPC   C4A25482  28.449  43.846   7.697
 1713POPC   C1B25483  28.111  44.296   8.877
 1713POPC   C2B25484  28.283  44.199   8.505
 1713POPC   C3B25485  28.256  44.133   8.078
 1713POPC   C4B25486  28.031  44.170   7.680
 1714POPC   NC325487  23.497  18.722   9.476
 1714POPC   PO425488  22.834  18.961   9.629
 1714POPC   GL125489  22.862  19.015   9.191
 1714POPC   GL225490  23.216  19.004   9.161
 1714POPC   C1A25491  22.966  19.229   8.778
 1714POPC   D2A25492  23.156  19.198   8.356
 1714POPC   C3A25493  22.861  19.226   8.024
 1714POPC   C4A25494  22.826  19.458   7.668
 1714POPC   C1B25495  23.434  19.003   8.779
 1714POPC   C2B25496  23.361  18.746   8.431
 1714POPC   C3B25497  23.364  18.869   8.003
 1714POPC   C4B25498  23.326  18.617   7.656
 1715POPC   NC325499  30.056  13.039   9.487
 1715POPC   PO425500  29.693  13.532   9.210
 1715POPC   GL125501  30.039  13.616   9.007
 1715POPC   GL225502  30.175  13.289   9.062
 1715POPC   C1A25503  29.969  13.739   8.602
 1715POPC   D2A25504  29.689  13.698   8.239
 1715POPC   C3A25505  29.819  13.884   7.861
 1715POPC   C4A25506  30.259  13.980   7.841
 1715POPC   C1B25507  29.995  13.232   8.655
 1715POPC   C2B25508  30.132  13.381   8.271
 1715POPC   C3B25509  30.031  13.429   7.873
 1715POPC   C4B25510  30.138  13.205   7.552
 1716POPC   NC325511  28.753  35.200   9.244
 1716POPC   PO425512  28.145  35.157   9.576
 1716POPC   GL125513  28.270  35.428   9.211
 1716POPC   GL225514  28.294  35.127   9.035
 1716POPC   C1A25515  28.461  35.545   8.791
 1716POPC   D2A25516  28.752  35.453   8.447
 1716POPC   C3A25517  28.728  35.650   8.053
 1716POPC   C4A25518  28.620  35.469   7.627
 1716POPC   C1B25519  28.333  35.093   8.586
 1716POPC   C2B25520  28.254  35.426   8.273
 1716POPC   C3B25521  28.175  35.320   7.851
 1716POPC   C4B25522  27.849  35.182   7.583
 1717POPC   NC325523  34.005  27.668   9.736
 1717POPC   PO425524  33.542  27.726   9.306
 1717POPC   GL125525  33.695  27.758   8.962
 1717POPC   GL225526  33.647  27.428   8.869
 1717POPC   C1A25527  33.682  27.872   8.560
 1717POPC   D2A25528  33.550  27.512   8.345
 1717POPC   C3A25529  33.594  27.658   7.957
 1717POPC   C4A25530  33.969  27.847   7.758
 1717POPC   C1B25531  34.045  27.511   8.630
 1717POPC   C2B25532  34.106  27.589   8.199
 1717POPC   C3B25533  34.286  27.427   7.832
 1717POPC   C4B25534  34.128  27.129   7.552
 1718POPC   NC325535  17.080   3.517   9.440
 1718POPC   PO425536  16.456   3.644   9.200
 1718POPC   GL125537  16.847   3.626   8.994
 1718POPC   GL225538  16.810   3.283   9.051
 1718POPC   C1A25539  16.925   3.732   8.562
 1718POPC   D2A25540  16.563   3.729   8.273
 1718POPC   C3A25541  16.742   3.622   7.889
 1718POPC   C4A25542  17.182   3.604   7.749
 1718POPC   C1B25543  16.568   3.338   8.639
 1718POPC   C2B25544  16.505   3.178   8.235
 1718POPC   C3B25545  16.539   3.122   7.819
 1718POPC   C4B25546  16.897   3.196   7.613
 1719POPC   NC325547  12.682  22.750   9.493
 1719POPC   PO425548  12.878  22.013   9.421
 1719POPC   GL125549  12.842  22.278   9.131
 1719POPC   GL225550  12.524  22.356   9.166
 1719POPC   C1A25551  12.845  22.168   8.729
 1719POPC   D2A25552  12.934  22.436   8.441
 1719POPC   C3A25553  12.776  22.286   8.111
 1719POPC   C4A25554  12.800  22.200   7.747
 1719POPC   C1B25555  12.570  22.588   8.814
 1719POPC   C2B25556  12.416  22.458   8.418
 1719POPC   C3B25557  12.296  22.463   7.994
 1719POPC   C4B25558  12.496  22.572   7.639
 1720POPC   NC325559   7.401  25.079   9.450
 1720POPC   PO425560   7.800  25.597   9.427
 1720POPC   GL125561   7.497  25.456   9.088
 1720POPC   GL225562   7.492  25.085   8.967
 1720POPC   C1A25563   7.411  25.438   8.619
 1720POPC   D2A25564   7.115  25.278   8.340
 1720POPC   C3A25565   7.193  25.174   7.931
 1720POPC   C4A25566   7.076  25.535   7.757
 1720POPC   C1B25567   7.790  25.064   8.647
 1720POPC   C2B25568   7.609  25.067   8.236
 1720POPC   C3B25569   7.651  25.011   7.792
 1720POPC   C4B25570   7.633  24.822   7.381
 1721POPC   NC325571  31.665   8.693   9.601
 1721POPC   PO425572  31.350   9.292   9.521
 1721POPC   GL125573  31.207   9.116   9.105
 1721POPC   GL225574  31.130   8.763   9.127
 1721POPC   C1A25575  31.231   9.310   8.699
 1721POPC   D2A25576  31.139   9.445   8.294
 1721POPC   C3A25577  31.398   9.208   8.006
 1721POPC   C4A25578  31.236   8.852   7.801
 1721POPC   C1B25579  31.352   8.813   8.707
 1721POPC   C2B25580  31.418   8.707   8.253
 1721POPC   C3B25581  31.660   8.585   7.858
 1721POPC   C4B25582  31.944   8.702   7.510
 1722POPC   NC325583  32.529   7.151   9.540
 1722POPC   PO425584  31.976   7.107   9.569
 1722POPC   GL125585  32.191   7.336   9.179
 1722POPC   GL225586  32.539   7.509   9.155
 1722POPC   C1A25587  32.125   7.490   8.735
 1722POPC   D2A25588  32.036   7.353   8.312
 1722POPC   C3A25589  32.279   7.563   7.976
 1722POPC   C4A25590  32.118   7.743   7.603
 1722POPC   C1B25591  32.592   7.265   8.763
 1722POPC   C2B25592  32.516   7.178   8.315
 1722POPC   C3B25593  32.476   7.107   7.860
 1722POPC   C4B25594  32.431   7.358   7.483
 1723POPC   NC325595   4.676   6.044   9.546
 1723POPC   PO425596   4.224   6.588   9.510
 1723POPC   GL125597   4.143   6.689   9.113
 1723POPC   GL225598   3.818   6.601   9.010
 1723POPC   C1A25599   4.321   6.505   8.777
 1723POPC   D2A25600   4.519   6.378   8.417
 1723POPC   C3A25601   4.251   6.517   8.131
 1723POPC   C4A25602   4.281   6.484   7.709
 1723POPC   C1B25603   3.933   6.878   8.660
 1723POPC   C2B25604   3.976   6.952   8.222
 1723POPC   C3B25605   3.873   6.766   7.834
 1723POPC   C4B25606   3.809   6.688   7.390
 1724POPC   NC325607   6.536  25.581   9.416
 1724POPC   PO425608   6.925  26.075   9.356
 1724POPC   GL125609   6.762  25.974   8.982
 1724POPC   GL225610   6.400  25.876   9.021
 1724POPC   C1A25611   6.712  26.243   8.633
 1724POPC   D2A25612   6.537  26.151   8.253
 1724POPC   C3A25613   6.796  26.230   7.937
 1724POPC   C4A25614   6.933  25.988   7.580
 1724POPC   C1B25615   6.241  26.226   8.776
 1724POPC   C2B25616   6.070  26.318   8.344
 1724POPC   C3B25617   6.193  26.278   7.876
 1724POPC   C4B25618   6.430  25.918   7.732
 1725POPC   NC325619  30.652   6.610   9.476
 1725POPC   PO425620  30.220   7.158   9.606
 1725POPC   GL125621  30.279   6.910   9.217
 1725POPC   GL225622  30.621   6.934   9.071
 1725POPC   C1A25623  30.260   6.692   8.797
 1725POPC   D2A25624  30.484   6.693   8.395
 1725POPC   C3A25625  30.352   6.535   8.002
 1725POPC   C4A25626  30.333   6.735   7.585
 1725POPC   C1B25627  30.882   6.840   8.679
 1725POPC   C2B25628  30.975   6.772   8.196
 1725POPC   C3B25629  31.101   6.968   7.772
 1725POPC   C4B25630  31.250   6.740   7.400
 1726POPC   NC325631  23.808  44.804   9.616
 1726POPC   PO425632  23.176  44.572   9.395
 1726POPC   GL125633  23.553  44.698   9.134
 1726POPC   GL225634  23.915  44.641   9.123
 1726POPC   C1A25635  23.611  44.675   8.681
 1726POPC   D2A25636  23.829  44.682   8.291
 1726POPC   C3A25637  23.572  44.505   7.963
 1726POPC   C4A25638  23.395  44.690   7.609
 1726POPC   C1B25639  24.122  44.632   8.717
 1726POPC   C2B25640  24.218  44.333   8.417
 1726POPC   C3B25641  24.056  44.310   8.007
 1726POPC   C4B25642  23.988  44.723   7.788
 1727POPC   NC325643  16.483  32.676   9.559
 1727POPC   PO425644  16.560  33.287   9.720
 1727POPC   GL125645  16.781  33.141   9.323
 1727POPC   GL225646  16.500  32.989   9.160
 1727POPC   C1A25647  16.918  32.894   8.916
 1727POPC   D2A25648  16.842  32.935   8.473
 1727POPC   C3A25649  16.851  32.790   8.049
 1727POPC   C4A25650  16.855  33.037   7.671
 1727POPC   C1B25651  16.428  33.132   8.755
 1727POPC   C2B25652  16.271  33.193   8.364
 1727POPC   C3B25653  16.448  33.109   7.988
 1727POPC   C4B25654  16.385  32.826   7.675
 1728POPC   NC325655  44.343  43.504   9.336
 1728POPC   PO425656  44.407  44.150   9.552
 1728POPC   GL125657  44.623  43.917   9.202
 1728POPC   GL225658  44.847  43.619   9.290
 1728POPC   C1A25659  44.444  43.902   8.764
 1728POPC   D2A25660  44.610  43.969   8.348
 1728POPC   C3A25661  44.459  44.122   7.927
 1728POPC   C4A25662  44.691  44.093   7.488
 1728POPC   C1B25663  44.862  43.612   8.838
 1728POPC   C2B25664   0.065  43.682   8.439
 1728POPC   C3B25665  44.853  43.714   7.999
 1728POPC   C4B25666  44.501  43.665   7.673
 1729POPC   NC325667  10.392  42.434   9.457
 1729POPC   PO425668  10.544  41.808   9.696
 1729POPC   GL125669  10.655  42.099   9.194
 1729POPC   GL225670  10.350  42.239   9.000
 1729POPC   C1A25671  10.784  42.341   8.814
 1729POPC   D2A25672  10.491  42.396   8.475
 1729POPC   C3A25673  10.655  42.366   8.078
 1729POPC   C4A25674  10.642  42.544   7.651
 1729POPC   C1B25675  10.418  41.950   8.703
 1729POPC   C2B25676  10.191  41.959   8.367
 1729POPC   C3B25677  10.048  42.202   8.061
 1729POPC   C4B25678  10.343  42.103   7.790
 1730POPC   NC325679  40.103  42.406   9.566
 1730POPC   PO425680  39.781  41.856   9.256
 1730POPC   GL125681  39.902  42.224   9.151
 1730POPC   GL225682  40.292  42.143   9.191
 1730POPC   C1A25683  39.876  42.506   8.811
 1730POPC   D2A25684  40.079  42.569   8.436
 1730POPC   C3A25685  39.872  42.545   8.063
 1730POPC   C4A25686  40.140  42.608   7.704
 1730POPC   C1B25687  40.174  42.051   8.777
 1730POPC   C2B25688  39.999  41.964   8.412
 1730POPC   C3B25689  40.124  42.110   8.047
 1730POPC   C4B25690  40.274  42.084   7.668
 1731POPC   NC325691  38.216  38.820   9.623
 1731POPC   PO425692  38.281  38.135   9.572
 1731POPC   GL125693  38.478  38.336   9.240
 1731POPC   GL225694  38.417  38.682   9.192
 1731POPC   C1A25695  38.541  38.204   8.818
 1731POPC   D2A25696  38.383  38.366   8.429
 1731POPC   C3A25697  38.432  38.193   8.017
 1731POPC   C4A25698  38.355  38.158   7.563
 1731POPC   C1B25699  38.514  38.740   8.795
 1731POPC   C2B25700  38.506  38.917   8.424
 1731POPC   C3B25701  38.632  38.711   8.093
 1731POPC   C4B25702  38.465  38.636   7.736
 1732POPC   NC325703   2.210   3.537   9.488
 1732POPC   PO425704   1.706   3.928   9.410
 1732POPC   GL125705   1.989   3.721   9.083
 1732POPC   GL225706   2.089   3.338   9.058
 1732POPC   C1A25707   2.121   3.683   8.668
 1732POPC   D2A25708   1.843   3.738   8.373
 1732POPC   C3A25709   2.011   3.838   7.979
 1732POPC   C4A25710   1.828   3.709   7.576
 1732POPC   C1B25711   2.029   3.180   8.669
 1732POPC   C2B25712   2.058   3.274   8.256
 1732POPC   C3B25713   2.089   3.326   7.853
 1732POPC   C4B25714   2.360   3.614   7.699
 1733POPC   NC325715  20.986  25.892   9.512
 1733POPC   PO425716  21.567  25.859   9.637
 1733POPC   GL125717  21.578  26.041   9.194
 1733POPC   GL225718  21.241  26.143   9.124
 1733POPC   C1A25719  21.562  26.055   8.695
 1733POPC   D2A25720  21.600  25.859   8.258
 1733POPC   C3A25721  21.571  26.036   7.820
 1733POPC   C4A25722  21.540  25.822   7.402
 1733POPC   C1B25723  21.056  26.125   8.706
 1733POPC   C2B25724  21.056  25.975   8.282
 1733POPC   C3B25725  21.082  26.209   7.920
 1733POPC   C4B25726  21.352  26.578   7.794
 1734POPC   NC325727   7.387  12.185   9.477
 1734POPC   PO425728   7.100  11.660   9.226
 1734POPC   GL125729   7.439  11.962   9.012
 1734POPC   GL225730   7.527  12.329   9.022
 1734POPC   C1A25731   7.475  12.045   8.561
 1734POPC   D2A25732   7.139  11.834   8.309
 1734POPC   C3A25733   7.219  11.748   7.885
 1734POPC   C4A25734   7.501  11.791   7.525
 1734POPC   C1B25735   7.353  12.548   8.694
 1734POPC   C2B25736   7.508  12.550   8.273
 1734POPC   C3B25737   7.384  12.581   7.883
 1734POPC   C4B25738   7.502  12.254   7.677
 1735POPC   NC325739  28.050  25.911   9.455
 1735POPC   PO425740  28.812  25.680   9.370
 1735POPC   GL125741  28.549  25.946   9.117
 1735POPC   GL225742  28.259  25.794   8.985
 1735POPC   C1A25743  28.632  25.928   8.675
 1735POPC   D2A25744  28.666  25.832   8.276
 1735POPC   C3A25745  28.351  25.998   8.054
 1735POPC   C4A25746  28.184  26.165   7.709
 1735POPC   C1B25747  28.153  25.922   8.522
 1735POPC   C2B25748  27.911  25.759   8.159
 1735POPC   C3B25749  27.765  25.870   7.740
 1735POPC   C4B25750  27.889  26.019   7.310
 1736POPC   NC325751  13.555  16.426   9.441
 1736POPC   PO425752  13.454  15.808   9.583
 1736POPC   GL125753  13.431  15.992   9.180
 1736POPC   GL225754  13.765  15.917   9.067
 1736POPC   C1A25755  13.349  16.088   8.744
 1736POPC   D2A25756  13.528  15.973   8.338
 1736POPC   C3A25757  13.262  16.060   7.970
 1736POPC   C4A25758  13.299  16.055   7.482
 1736POPC   C1B25759  13.922  15.580   8.784
 1736POPC   C2B25760  13.998  15.625   8.346
 1736POPC   C3B25761  13.945  15.810   7.941
 1736POPC   C4B25762  13.958  15.441   7.652
 1737POPC   NC325763  30.878   9.284   9.447
 1737POPC   PO425764  30.545   8.703   9.448
 1737POPC   GL125765  30.651   8.944   9.101
 1737POPC   GL225766  30.414   8.747   8.946
 1737POPC   C1A25767  30.826   8.946   8.682
 1737POPC   D2A25768  30.630   9.040   8.279
 1737POPC   C3A25769  30.736   8.863   7.864
 1737POPC   C4A25770  30.940   8.905   7.407
 1737POPC   C1B25771  30.170   8.740   8.589
 1737POPC   C2B25772  30.158   8.849   8.204
 1737POPC   C3B25773  30.213   8.725   7.803
 1737POPC   C4B25774  30.504   8.614   7.496
 1738POPC   NC325775   9.826   2.027   9.612
 1738POPC   PO425776   9.403   1.682   9.229
 1738POPC   GL125777   9.719   1.882   9.122
 1738POPC   GL225778  10.010   1.699   9.179
 1738POPC   C1A25779   9.642   2.111   8.782
 1738POPC   D2A25780   9.777   2.196   8.384
 1738POPC   C3A25781   9.444   2.171   8.111
 1738POPC   C4A25782   9.412   1.927   7.753
 1738POPC   C1B25783  10.088   1.884   8.764
 1738POPC   C2B25784  10.023   1.703   8.373
 1738POPC   C3B25785   9.820   1.803   8.041
 1738POPC   C4B25786   9.943   1.890   7.679
 1739POPC   NC325787  36.196  33.426   9.562
 1739POPC   PO425788  36.504  34.040   9.516
 1739POPC   GL125789  36.231  33.879   9.136
 1739POPC   GL225790  35.928  33.639   9.129
 1739POPC   C1A25791  36.400  33.853   8.687
 1739POPC   D2A25792  36.564  34.050   8.274
 1739POPC   C3A25793  36.338  34.000   7.895
 1739POPC   C4A25794  36.023  33.742   7.743
 1739POPC   C1B25795  36.064  33.460   8.695
 1739POPC   C2B25796  36.085  33.533   8.235
 1739POPC   C3B25797  36.166  33.277   7.839
 1739POPC   C4B25798  36.279  33.392   7.412
 1740POPC   NC325799   5.263  35.859   9.329
 1740POPC   PO425800   4.930  35.418   9.753
 1740POPC   GL125801   5.004  35.347   9.286
 1740POPC   GL225802   5.030  35.585   8.982
 1740POPC   C1A25803   5.162  35.113   8.946
 1740POPC   D2A25804   5.125  35.091   8.523
 1740POPC   C3A25805   5.107  35.073   8.098
 1740POPC   C4A25806   5.042  35.149   7.686
 1740POPC   C1B25807   4.956  35.577   8.562
 1740POPC   C2B25808   5.208  35.556   8.192
 1740POPC   C3B25809   5.139  35.636   7.782
 1740POPC   C4B25810   5.317  35.587   7.417
 1741POPC   NC325811  24.724  32.022   9.315
 1741POPC   PO425812  24.413  32.408   9.777
 1741POPC   GL125813  24.340  32.400   9.293
 1741POPC   GL225814  24.216  32.101   9.151
 1741POPC   C1A25815  24.453  32.372   8.796
 1741POPC   D2A25816  24.336  32.209   8.348
 1741POPC   C3A25817  24.351  32.381   7.901
 1741POPC   C4A25818  24.598  32.341   7.501
 1741POPC   C1B25819  24.091  31.936   8.749
 1741POPC   C2B25820  23.912  31.902   8.338
 1741POPC   C3B25821  23.985  31.979   7.888
 1741POPC   C4B25822  24.337  31.942   7.620
 1742POPC   NC325823  38.038  37.724   9.574
 1742POPC   PO425824  38.683  37.446   9.674
 1742POPC   GL125825  38.489  37.648   9.256
 1742POPC   GL225826  38.236  37.892   9.116
 1742POPC   C1A25827  38.642  37.680   8.826
 1742POPC   D2A25828  38.584  37.879   8.425
 1742POPC   C3A25829  38.558  37.619   8.094
 1742POPC   C4A25830  38.622  37.755   7.725
 1742POPC   C1B25831  38.127  37.948   8.670
 1742POPC   C2B25832  38.085  37.698   8.297
 1742POPC   C3B25833  38.146  37.789   7.869
 1742POPC   C4B25834  38.086  37.759   7.415
 1743POPC   NC325835  33.547   1.305   9.696
 1743POPC   PO425836  34.054   0.943   9.510
 1743POPC   GL125837  33.676   1.129   9.235
 1743POPC   GL225838  33.969   1.133   9.050
 1743POPC   C1A25839  33.609   1.331   8.804
 1743POPC   D2A25840  33.865   1.120   8.455
 1743POPC   C3A25841  33.749   1.164   8.031
 1743POPC   C4A25842  33.766   1.398   7.651
 1743POPC   C1B25843  34.185   0.879   8.804
 1743POPC   C2B25844  34.246   0.738   8.391
 1743POPC   C3B25845  34.099   0.769   7.998
 1743POPC   C4B25846  34.130   1.010   7.657
 1744POPC   NC325847  11.429  23.843   9.318
 1744POPC   PO425848  11.499  24.433   9.631
 1744POPC   GL125849  11.415  24.467   9.184
 1744POPC   GL225850  11.716  24.671   9.114
 1744POPC   C1A25851  11.271  24.487   8.734
 1744POPC   D2A25852  11.132  24.578   8.300
 1744POPC   C3A25853  11.370  24.371   7.955
 1744POPC   C4A25854  11.615  24.609   7.628
 1744POPC   C1B25855  11.524  24.953   8.850
 1744POPC   C2B25856  11.589  25.045   8.450
 1744POPC   C3B25857  11.579  24.833   8.090
 1744POPC   C4B25858  11.226  24.881   7.852
 1745POPC   NC325859   6.942  26.500   9.533
 1745POPC   PO425860   6.438  26.858   9.742
 1745POPC   GL125861   6.464  26.759   9.268
 1745POPC   GL225862   6.681  26.484   9.105
 1745POPC   C1A25863   6.400  26.793   8.822
 1745POPC   D2A25864   6.601  26.847   8.417
 1745POPC   C3A25865   6.451  26.645   8.102
 1745POPC   C4A25866   6.550  26.619   7.686
 1745POPC   C1B25867   6.929  26.683   8.770
 1745POPC   C2B25868   7.019  26.548   8.346
 1745POPC   C3B25869   6.976  26.721   7.947
 1745POPC   C4B25870   7.039  26.495   7.581
 1746POPC   NC325871  30.598   7.362   9.407
 1746POPC   PO425872  30.487   7.953   9.718
 1746POPC   GL125873  30.802   7.844   9.237
 1746POPC   GL225874  30.622   7.560   8.952
 1746POPC   C1A25875  30.801   7.962   8.734
 1746POPC   D2A25876  30.603   7.929   8.280
 1746POPC   C3A25877  30.769   7.569   8.002
 1746POPC   C4A25878  31.018   7.458   7.634
 1746POPC   C1B25879  30.478   7.211   8.693
 1746POPC   C2B25880  30.677   7.165   8.321
 1746POPC   C3B25881  30.606   7.028   7.929
 1746POPC   C4B25882  30.604   7.156   7.519
 1747POPC   NC325883  21.525  42.750   9.474
 1747POPC   PO425884  21.023  43.215   9.586
 1747POPC   GL125885  21.290  43.227   9.194
 1747POPC   GL225886  21.636  43.105   9.152
 1747POPC   C1A25887  21.444  43.284   8.747
 1747POPC   D2A25888  21.336  43.145   8.385
 1747POPC   C3A25889  21.437  42.931   8.049
 1747POPC   C4A25890  21.589  43.037   7.694
 1747POPC   C1B25891  21.648  42.808   8.731
 1747POPC   C2B25892  21.786  42.631   8.283
 1747POPC   C3B25893  21.801  42.576   7.802
 1747POPC   C4B25894  21.742  42.738   7.316
 1748POPC   NC325895  34.647  25.305   9.718
 1748POPC   PO425896  34.657  26.077   9.540
 1748POPC   GL125897  34.788  26.121   9.140
 1748POPC   GL225898  34.642  26.415   9.112
 1748POPC   C1A25899  34.832  25.949   8.745
 1748POPC   D2A25900  34.867  26.154   8.377
 1748POPC   C3A25901  34.733  25.953   8.042
 1748POPC   C4A25902  34.608  25.893   7.672
 1748POPC   C1B25903  34.501  26.406   8.688
 1748POPC   C2B25904  34.318  26.148   8.398
 1748POPC   C3B25905  34.213  26.012   8.015
 1748POPC   C4B25906  34.245  26.247   7.689
 1749POPC   NC325907  26.288   7.278   9.372
 1749POPC   PO425908  25.847   7.710   9.563
 1749POPC   GL125909  25.987   7.636   9.133
 1749POPC   GL225910  25.831   7.354   9.093
 1749POPC   C1A25911  26.199   7.468   8.733
 1749POPC   D2A25912  26.090   7.260   8.328
 1749POPC   C3A25913  26.201   7.519   7.989
 1749POPC   C4A25914  25.969   7.667   7.634
 1749POPC   C1B25915  25.740   7.226   8.719
 1749POPC   C2B25916  25.499   7.286   8.360
 1749POPC   C3B25917  25.663   7.358   7.974
 1749POPC   C4B25918  25.961   7.157   7.706
 1750POPC   NC325919  26.709   0.441   9.419
 1750POPC   PO425920  27.215  44.979   9.523
 1750POPC   GL125921  27.077   0.188   9.139
 1750POPC   GL225922  26.706   0.208   8.981
 1750POPC   C1A25923  27.103   0.355   8.729
 1750POPC   D2A25924  26.778   0.305   8.441
 1750POPC   C3A25925  26.931   0.419   8.053
 1750POPC   C4A25926  26.915   0.175   7.722
 1750POPC   C1B25927  26.531   0.587   8.803
 1750POPC   C2B25928  26.381   0.643   8.389
 1750POPC   C3B25929  26.408   0.770   7.982
 1750POPC   C4B25930  26.696   0.644   7.661
 1751POPC   NC325931  41.607  30.184   9.791
 1751POPC   PO425932  41.707  30.777   9.477
 1751POPC   GL125933  41.589  30.561   9.133
 1751POPC   GL225934  41.223  30.553   9.206
 1751POPC   C1A25935  41.736  30.624   8.701
 1751POPC   D2A25936  41.939  30.505   8.297
 1751POPC   C3A25937  41.817  30.800   7.975
 1751POPC   C4A25938  41.564  31.002   7.651
 1751POPC   C1B25939  41.255  30.831   8.820
 1751POPC   C2B25940  41.442  30.908   8.388
 1751POPC   C3B25941  41.248  30.824   8.002
 1751POPC   C4B25942  41.172  30.639   7.586
 1752POPC   NC325943   1.892  35.062   9.411
 1752POPC   PO425944   2.358  35.508   9.355
 1752POPC   GL125945   1.997  35.563   9.052
 1752POPC   GL225946   1.681  35.382   9.041
 1752POPC   C1A25947   1.869  35.596   8.593
 1752POPC   D2A25948   1.819  35.629   8.105
 1752POPC   C3A25949   2.182  35.605   7.837
 1752POPC   C4A25950   2.179  35.546   7.384
 1752POPC   C1B25951   1.676  35.105   8.714
 1752POPC   C2B25952   1.742  35.157   8.312
 1752POPC   C3B25953   1.928  35.148   7.953
 1752POPC   C4B25954   1.741  35.331   7.609
 1753POPC   NC325955  43.334  42.373   9.385
 1753POPC   PO425956  43.310  41.783   9.723
 1753POPC   GL125957  42.968  42.011   9.317
 1753POPC   GL225958  42.839  42.327   9.232
 1753POPC   C1A25959  43.015  42.097   8.828
 1753POPC   D2A25960  43.134  41.980   8.425
 1753POPC   C3A25961  43.172  42.239   8.055
 1753POPC   C4A25962  43.032  41.940   7.790
 1753POPC   C1B25963  42.920  42.589   8.843
 1753POPC   C2B25964  42.897  42.483   8.425
 1753POPC   C3B25965  42.818  42.711   8.053
 1753POPC   C4B25966  42.851  42.566   7.645
 1754POPC   NC325967  39.309  39.991   9.599
 1754POPC   PO425968  39.293  39.597   9.077
 1754POPC   GL125969  39.050  39.972   9.114
 1754POPC   GL225970  39.302  40.227   9.111
 1754POPC   C1A25971  38.938  40.227   8.744
 1754POPC   D2A25972  39.181  40.289   8.341
 1754POPC   C3A25973  39.159  39.990   7.975
 1754POPC   C4A25974  38.828  39.912   7.677
 1754POPC   C1B25975  39.376  40.537   8.757
 1754POPC   C2B25976  39.626  40.554   8.362
 1754POPC   C3B25977  39.477  40.404   7.918
 1754POPC   C4B25978  39.562  40.438   7.475
 1755POPC   NC325979  10.862  25.680   9.282
 1755POPC   PO425980  10.202  25.654   9.584
 1755POPC   GL125981  10.372  25.429   9.224
 1755POPC   GL225982  10.067  25.507   9.083
 1755POPC   C1A25983  10.553  25.269   8.797
 1755POPC   D2A25984  10.682  25.501   8.410
 1755POPC   C3A25985  10.655  25.303   7.991
 1755POPC   C4A25986  10.748  24.980   7.681
 1755POPC   C1B25987  10.039  25.235   8.721
 1755POPC   C2B25988  10.277  25.146   8.337
 1755POPC   C3B25989  10.216  25.024   7.902
 1755POPC   C4B25990  10.066  24.973   7.493
 1756POPC   NC325991  42.254  15.880   9.845
 1756POPC   PO425992  42.014  15.830   9.439
 1756POPC   GL125993  42.152  16.095   9.099
 1756POPC   GL225994  42.452  15.854   9.022
 1756POPC   C1A25995  42.046  16.447   8.752
 1756POPC   D2A25996  42.322  16.427   8.344
 1756POPC   C3A25997  42.120  16.279   7.953
 1756POPC   C4A25998  42.207  15.899   7.649
 1756POPC   C1B25999  42.658  15.835   8.575
 1756POPC   C2B26000  42.444  15.959   8.176
 1756POPC   C3B26001  42.597  16.190   7.823
 1756POPC   C4B26002  42.650  16.057   7.403
 1757POPC   NC326003  38.611  18.089   9.548
 1757POPC   PO426004  38.169  18.593   9.665
 1757POPC   GL126005  38.330  18.507   9.169
 1757POPC   GL226006  38.488  18.212   9.085
 1757POPC   C1A26007  38.262  18.396   8.686
 1757POPC   D2A26008  38.213  18.605   8.259
 1757POPC   C3A26009  38.327  18.403   7.859
 1757POPC   C4A26010  38.382  17.973   7.685
 1757POPC   C1B26011  38.721  18.211   8.720
 1757POPC   C2B26012  38.582  18.183   8.306
 1757POPC   C3B26013  38.790  18.148   7.934
 1757POPC   C4B26014  38.773  18.293   7.532
 1758POPC   NC326015  13.120   3.870   9.451
 1758POPC   PO426016  13.146   4.664   9.548
 1758POPC   GL126017  12.905   4.465   9.197
 1758POPC   GL226018  13.091   4.193   9.091
 1758POPC   C1A26019  12.741   4.366   8.780
 1758POPC   D2A26020  12.559   4.479   8.391
 1758POPC   C3A26021  12.732   4.401   8.040
 1758POPC   C4A26022  12.875   4.397   7.658
 1758POPC   C1B26023  13.228   4.045   8.714
 1758POPC   C2B26024  13.115   4.235   8.338
 1758POPC   C3B26025  13.206   4.126   7.923
 1758POPC   C4B26026  13.026   3.920   7.585
 1759POPC   NC326027  14.777  32.144   9.300
 1759POPC   PO426028  15.329  32.528   9.332
 1759POPC   GL126029  15.253  32.196   9.051
 1759POPC   GL226030  15.238  31.830   9.145
 1759POPC   C1A26031  15.119  32.245   8.632
 1759POPC   D2A26032  15.103  32.238   8.180
 1759POPC   C3A26033  14.944  32.487   7.862
 1759POPC   C4A26034  15.302  32.661   7.680
 1759POPC   C1B26035  15.619  31.897   8.854
 1759POPC   C2B26036  15.610  32.073   8.452
 1759POPC   C3B26037  15.520  31.956   8.060
 1759POPC   C4B26038  15.541  32.170   7.681
 1760POPC   NC326039   7.718  44.390   9.399
 1760POPC   PO426040   7.055  44.563   9.579
 1760POPC   GL126041   7.334  44.643   9.209
 1760POPC   GL226042   7.271  44.998   9.229
 1760POPC   C1A26043   7.479  44.394   8.799
 1760POPC   D2A26044   7.276  44.326   8.387
 1760POPC   C3A26045   7.586  44.273   8.071
 1760POPC   C4A26046   7.529  44.402   7.653
 1760POPC   C1B26047   7.259  44.924   8.792
 1760POPC   C2B26048   7.527  44.788   8.468
 1760POPC   C3B26049   7.492  44.777   8.036
 1760POPC   C4B26050   7.389  44.879   7.629
 1761POPC   NC326051  17.366  29.859   9.482
 1761POPC   PO426052  17.971  30.126   9.583
 1761POPC   GL126053  17.813  29.879   9.259
 1761POPC   GL226054  17.624  30.163   9.132
 1761POPC   C1A26055  17.789  29.754   8.833
 1761POPC   D2A26056  17.719  30.013   8.465
 1761POPC   C3A26057  17.748  29.739   8.120
 1761POPC   C4A26058  17.500  29.659   7.782
 1761POPC   C1B26059  17.331  29.977   8.831
 1761POPC   C2B26060  17.186  30.098   8.438
 1761POPC   C3B26061  17.341  30.063   8.067
 1761POPC   C4B26062  17.232  30.076   7.675
 1762POPC   NC326063  27.850  19.939   9.756
 1762POPC   PO426064  28.476  19.980   9.496
 1762POPC   GL126065  28.180  19.953   9.168
 1762POPC   GL226066  28.288  20.308   9.082
 1762POPC   C1A26067  28.053  19.680   8.796
 1762POPC   D2A26068  27.872  19.735   8.370
 1762POPC   C3A26069  28.223  19.825   8.056
 1762POPC   C4A26070  28.341  19.695   7.636
 1762POPC   C1B26071  28.363  20.082   8.708
 1762POPC   C2B26072  28.556  20.073   8.360
 1762POPC   C3B26073  28.869  20.114   8.124
 1762POPC   C4B26074  28.596  20.113   7.793
 1763POPC   NC326075  43.260  28.618   9.482
 1763POPC   PO426076  42.641  28.339   9.446
 1763POPC   GL126077  42.909  28.497   9.127
 1763POPC   GL226078  43.245  28.307   9.073
 1763POPC   C1A26079  43.041  28.605   8.707
 1763POPC   D2A26080  43.249  28.511   8.306
 1763POPC   C3A26081  42.965  28.467   7.946
 1763POPC   C4A26082  42.972  28.324   7.516
 1763POPC   C1B26083  42.989  28.097   8.754
 1763POPC   C2B26084  43.010  28.045   8.308
 1763POPC   C3B26085  43.116  27.947   7.904
 1763POPC   C4B26086  43.076  27.823   7.472
 1764POPC   NC326087  30.798  17.037   9.461
 1764POPC   PO426088  30.279  16.600   9.488
 1764POPC   GL126089  30.541  16.706   9.169
 1764POPC   GL226090  30.620  16.390   9.112
 1764POPC   C1A26091  30.816  16.812   8.837
 1764POPC   D2A26092  30.837  17.012   8.454
 1764POPC   C3A26093  30.595  16.906   8.114
 1764POPC   C4A26094  30.711  16.851   7.708
 1764POPC   C1B26095  30.784  16.295   8.786
 1764POPC   C2B26096  30.790  16.515   8.418
 1764POPC   C3B26097  30.768  16.430   8.021
 1764POPC   C4B26098  30.479  16.388   7.689
 1765POPC   NC326099  42.089  23.880   9.504
 1765POPC   PO426100  42.667  23.561   9.801
 1765POPC   GL126101  42.458  23.551   9.374
 1765POPC   GL226102  42.594  23.384   9.144
 1765POPC   C1A26103  42.415  23.805   8.926
 1765POPC   D2A26104  42.360  23.714   8.475
 1765POPC   C3A26105  42.171  23.917   8.102
 1765POPC   C4A26106  42.336  23.834   7.689
 1765POPC   C1B26107  42.740  23.467   8.717
 1765POPC   C2B26108  42.916  23.405   8.292
 1765POPC   C3B26109  42.762  23.605   7.914
 1765POPC   C4B26110  42.827  23.846   7.533
 1766POPC   NC326111  23.615  21.927   9.530
 1766POPC   PO426112  23.982  21.310   9.585
 1766POPC   GL126113  23.646  21.375   9.267
 1766POPC   GL226114  23.706  21.684   9.081
 1766POPC   C1A26115  23.534  21.262   8.818
 1766POPC   D2A26116  23.552  20.995   8.418
 1766POPC   C3A26117  23.675  21.267   8.069
 1766POPC   C4A26118  23.495  21.630   7.840
 1766POPC   C1B26119  23.910  21.919   8.720
 1766POPC   C2B26120  23.812  21.727   8.295
 1766POPC   C3B26121  23.962  21.815   7.869
 1766POPC   C4B26122  23.772  21.839   7.410
 1767POPC   NC326123  17.113   8.178   9.482
 1767POPC   PO426124  16.462   8.008   9.560
 1767POPC   GL126125  16.680   8.137   9.192
 1767POPC   GL226126  16.559   8.465   9.255
 1767POPC   C1A26127  16.596   7.888   8.816
 1767POPC   D2A26128  16.732   7.744   8.426
 1767POPC   C3A26129  16.557   7.951   8.077
 1767POPC   C4A26130  16.784   8.075   7.730
 1767POPC   C1B26131  16.732   8.543   8.842
 1767POPC   C2B26132  16.622   8.376   8.442
 1767POPC   C3B26133  16.589   8.471   8.024
 1767POPC   C4B26134  16.908   8.559   7.721
 1768POPC   NC326135   7.200  35.924   9.476
 1768POPC   PO426136   7.652  36.321   9.632
 1768POPC   GL126137   7.564  36.206   9.227
 1768POPC   GL226138   7.745  35.907   9.260
 1768POPC   C1A26139   7.400  36.112   8.812
 1768POPC   D2A26140   7.471  36.313   8.395
 1768POPC   C3A26141   7.229  36.259   8.004
 1768POPC   C4A26142   7.351  35.933   7.690
 1768POPC   C1B26143   7.925  36.120   8.879
 1768POPC   C2B26144   8.056  36.004   8.486
 1768POPC   C3B26145   7.959  35.855   8.100
 1768POPC   C4B26146   7.726  36.169   7.950
 1769POPC   NC326147  17.226  44.233   9.572
 1769POPC   PO426148  16.616  43.865   9.465
 1769POPC   GL126149  16.852  43.904   9.121
 1769POPC   GL226150  16.879  44.223   9.202
 1769POPC   C1A26151  16.697  43.789   8.711
 1769POPC   D2A26152  16.510  43.503   8.386
 1769POPC   C3A26153  16.528  43.743   8.000
 1769POPC   C4A26154  16.585  43.939   7.606
 1769POPC   C1B26155  16.993  44.250   8.751
 1769POPC   C2B26156  16.814  44.126   8.326
 1769POPC   C3B26157  16.811  44.270   7.921
 1769POPC   C4B26158  17.017  44.194   7.514
 1770POPC   NC326159  37.452   1.087   9.276
 1770POPC   PO426160  38.009   1.430   9.313
 1770POPC   GL126161  37.837   1.274   8.994
 1770POPC   GL226162  37.958   0.949   9.060
 1770POPC   C1A26163  37.578   1.302   8.628
 1770POPC   D2A26164  37.764   1.272   8.206
 1770POPC   C3A26165  37.480   1.313   7.879
 1770POPC   C4A26166  37.831   1.314   7.629
 1770POPC   C1B26167  37.945   0.970   8.604
 1770POPC   C2B26168  37.581   0.830   8.336
 1770POPC   C3B26169  37.641   0.842   7.873
 1770POPC   C4B26170  37.828   0.801   7.484
 1771POPC   NC326171  14.301  26.389   9.513
 1771POPC   PO426172  14.621  25.725   9.436
 1771POPC   GL126173  14.454  26.056   9.147
 1771POPC   GL226174  14.655  26.322   9.100
 1771POPC   C1A26175  14.218  26.031   8.767
 1771POPC   D2A26176  14.327  25.745   8.452
 1771POPC   C3A26177  14.275  25.859   8.029
 1771POPC   C4A26178  14.516  25.899   7.680
 1771POPC   C1B26179  14.529  26.451   8.695
 1771POPC   C2B26180  14.340  26.284   8.341
 1771POPC   C3B26181  14.471  26.332   7.934
 1771POPC   C4B26182  14.786  26.551   7.752
 1772POPC   NC326183  23.229  20.200   9.527
 1772POPC   PO426184  22.872  20.757   9.695
 1772POPC   GL126185  22.859  20.644   9.246
 1772POPC   GL226186  23.221  20.586   9.183
 1772POPC   C1A26187  22.763  20.545   8.787
 1772POPC   D2A26188  22.554  20.323   8.423
 1772POPC   C3A26189  22.669  20.497   8.011
 1772POPC   C4A26190  22.838  20.869   7.842
 1772POPC   C1B26191  23.302  20.595   8.743
 1772POPC   C2B26192  23.117  20.718   8.347
 1772POPC   C3B26193  23.311  20.726   7.948
 1772POPC   C4B26194  23.231  20.664   7.479
 1773POPC   NC326195  34.915  27.640   9.614
 1773POPC   PO426196  35.604  27.811   9.694
 1773POPC   GL126197  35.450  27.742   9.215
 1773POPC   GL226198  35.137  27.562   9.180
 1773POPC   C1A26199  35.416  27.416   8.807
 1773POPC   D2A26200  35.510  27.226   8.372
 1773POPC   C3A26201  35.348  27.341   7.956
 1773POPC   C4A26202  35.166  27.521   7.570
 1773POPC   C1B26203  35.109  27.807   8.790
 1773POPC   C2B26204  35.216  27.671   8.396
 1773POPC   C3B26205  35.059  27.768   8.021
 1773POPC   C4B26206  35.018  27.995   7.650
 1774POPC   NC326207  11.005  13.505   9.442
 1774POPC   PO426208  11.604  13.195   9.612
 1774POPC   GL126209  11.445  13.438   9.127
 1774POPC   GL226210  11.094  13.438   8.934
 1774POPC   C1A26211  11.514  13.700   8.780
 1774POPC   D2A26212  11.357  13.790   8.389
 1774POPC   C3A26213  11.544  13.686   8.008
 1774POPC   C4A26214  11.386  13.666   7.578
 1774POPC   C1B26215  10.952  13.839   8.746
 1774POPC   C2B26216  10.951  14.131   8.376
 1774POPC   C3B26217  11.108  13.973   7.970
 1774POPC   C4B26218  10.804  13.775   7.700
 1775POPC   NC326219   2.289  14.879   9.372
 1775POPC   PO426220   2.240  15.485   9.637
 1775POPC   GL126221   2.229  15.343   9.185
 1775POPC   GL226222   1.950  15.108   9.071
 1775POPC   C1A26223   2.205  15.335   8.710
 1775POPC   D2A26224   1.904  15.384   8.379
 1775POPC   C3A26225   2.127  15.450   8.023
 1775POPC   C4A26226   2.378  15.272   7.702
 1775POPC   C1B26227   2.161  14.828   8.718
 1775POPC   C2B26228   2.128  14.898   8.258
 1775POPC   C3B26229   1.989  14.971   7.839
 1775POPC   C4B26230   1.751  15.054   7.451
 1776POPC   NC326231  24.487  11.477   9.616
 1776POPC   PO426232  24.695  10.853   9.520
 1776POPC   GL126233  24.632  11.191   9.196
 1776POPC   GL226234  24.288  11.335   9.178
 1776POPC   C1A26235  24.494  11.121   8.758
 1776POPC   D2A26236  24.640  10.915   8.392
 1776POPC   C3A26237  24.512  11.123   8.037
 1776POPC   C4A26238  24.715  11.468   7.814
 1776POPC   C1B26239  24.206  11.564   8.798
 1776POPC   C2B26240  24.366  11.492   8.369
 1776POPC   C3B26241  24.211  11.602   7.950
 1776POPC   C4B26242  24.042  12.045   7.846
 1777POPC   NC326243  16.708  27.499   9.354
 1777POPC   PO426244  16.054  27.584   9.347
 1777POPC   GL126245  16.336  27.493   9.024
 1777POPC   GL226246  16.666  27.711   8.900
 1777POPC   C1A26247  16.489  27.278   8.715
 1777POPC   D2A26248  16.894  27.234   8.648
 1777POPC   C3A26249  16.951  27.373   8.227
 1777POPC   C4A26250  16.827  27.125   7.864
 1777POPC   C1B26251  17.068  27.741   8.656
 1777POPC   C2B26252  17.165  27.985   8.307
 1777POPC   C3B26253  17.181  27.810   7.920
 1777POPC   C4B26254  16.849  27.618   7.771
 1778POPC   NC326255  15.671   9.215   9.644
 1778POPC   PO426256  16.123   8.757   9.727
 1778POPC   GL126257  15.976   8.790   9.283
 1778POPC   GL226258  15.969   9.154   9.216
 1778POPC   C1A26259  16.006   8.793   8.817
 1778POPC   D2A26260  16.113   8.566   8.457
 1778POPC   C3A26261  16.132   8.755   8.102
 1778POPC   C4A26262  16.058   8.641   7.700
 1778POPC   C1B26263  15.931   9.307   8.804
 1778POPC   C2B26264  16.066   9.178   8.437
 1778POPC   C3B26265  15.981   9.337   8.072
 1778POPC   C4B26266  16.085   9.154   7.744
 1779POPC   NC326267  35.046   3.388   9.415
 1779POPC   PO426268  35.536   2.896   9.647
 1779POPC   GL126269  35.529   3.016   9.210
 1779POPC   GL226270  35.170   3.007   9.084
 1779POPC   C1A26271  35.539   2.757   8.812
 1779POPC   D2A26272  35.269   2.702   8.459
 1779POPC   C3A26273  35.498   2.664   8.072
 1779POPC   C4A26274  35.374   2.587   7.662
 1779POPC   C1B26275  35.284   3.185   8.681
 1779POPC   C2B26276  35.140   3.134   8.235
 1779POPC   C3B26277  34.992   2.858   7.884
 1779POPC   C4B26278  34.891   2.967   7.427
 1780POPC   NC326279   2.724  41.127   9.425
 1780POPC   PO426280   2.641  40.393   9.359
 1780POPC   GL126281   2.873  40.675   9.090
 1780POPC   GL226282   3.045  41.013   9.062
 1780POPC   C1A26283   2.793  40.774   8.673
 1780POPC   D2A26284   2.645  40.841   8.275
 1780POPC   C3A26285   2.712  40.546   7.931
 1780POPC   C4A26286   2.670  40.553   7.492
 1780POPC   C1B26287   3.314  40.970   8.740
 1780POPC   C2B26288   3.230  40.746   8.400
 1780POPC   C3B26289   3.108  40.834   8.013
 1780POPC   C4B26290   3.144  40.623   7.631
 1781POPC   NC326291  33.225   0.618   9.308
 1781POPC   PO426292  32.739   0.112   9.485
 1781POPC   GL126293  32.875   0.279   9.117
 1781POPC   GL226294  32.730   0.629   9.154
 1781POPC   C1A26295  33.036   0.228   8.682
 1781POPC   D2A26296  33.346   0.186   8.339
 1781POPC   C3A26297  33.213   0.389   7.948
 1781POPC   C4A26298  33.120   0.302   7.506
 1781POPC   C1B26299  32.608   0.493   8.742
 1781POPC   C2B26300  32.762   0.529   8.311
 1781POPC   C3B26301  32.639   0.400   7.904
 1781POPC   C4B26302  32.635   0.448   7.457
 1782POPC   NC326303   8.412  14.421   9.573
 1782POPC   PO426304   9.016  14.330   9.654
 1782POPC   GL126305   9.013  14.427   9.238
 1782POPC   GL226306   8.671  14.552   9.125
 1782POPC   C1A26307   9.186  14.441   8.845
 1782POPC   D2A26308   9.232  14.135   8.533
 1782POPC   C3A26309   9.276  14.329   8.144
 1782POPC   C4A26310   9.100  14.336   7.775
 1782POPC   C1B26311   8.730  14.608   8.662
 1782POPC   C2B26312   8.846  14.601   8.193
 1782POPC   C3B26313   8.759  14.702   7.718
 1782POPC   C4B26314   8.765  14.781   7.243
 1783POPC   NC326315  26.907  35.837   9.469
 1783POPC   PO426316  26.473  36.347   9.506
 1783POPC   GL126317  26.651  36.427   9.093
 1783POPC   GL226318  27.035  36.452   9.091
 1783POPC   C1A26319  26.497  36.275   8.683
 1783POPC   D2A26320  26.446  36.076   8.277
 1783POPC   C3A26321  26.749  36.236   8.020
 1783POPC   C4A26322  26.722  36.424   7.620
 1783POPC   C1B26323  26.957  36.100   8.831
 1783POPC   C2B26324  27.012  35.982   8.411
 1783POPC   C3B26325  27.183  35.957   7.992
 1783POPC   C4B26326  27.031  36.017   7.583
 1784POPC   NC326327  33.730  17.986   9.733
 1784POPC   PO426328  33.921  18.566   9.616
 1784POPC   GL126329  33.765  18.313   9.262
 1784POPC   GL226330  34.035  18.127   9.154
 1784POPC   C1A26331  33.618  18.233   8.798
 1784POPC   D2A26332  33.538  18.346   8.333
 1784POPC   C3A26333  33.599  18.076   7.944
 1784POPC   C4A26334  33.604  17.942   7.485
 1784POPC   C1B26335  34.047  18.531   8.876
 1784POPC   C2B26336  33.975  18.612   8.439
 1784POPC   C3B26337  34.037  18.356   8.062
 1784POPC   C4B26338  33.887  18.365   7.626
 1785POPC   NC326339   0.730   4.230   9.217
 1785POPC   PO426340   0.406   4.764   9.414
 1785POPC   GL126341   0.329   4.502   9.085
 1785POPC   GL226342   0.105   4.199   9.147
 1785POPC   C1A26343   0.531   4.534   8.683
 1785POPC   D2A26344   0.795   4.590   8.334
 1785POPC   C3A26345   0.512   4.554   7.966
 1785POPC   C4A26346   0.427   4.322   7.563
 1785POPC   C1B26347   0.329   4.054   8.735
 1785POPC   C2B26348   0.493   4.157   8.318
 1785POPC   C3B26349   0.429   3.963   7.934
 1785POPC   C4B26350   0.101   3.897   7.650
 1786POPC   NC326351  43.484  36.628   9.295
 1786POPC   PO426352  43.168  37.117   9.694
 1786POPC   GL126353  43.118  37.036   9.246
 1786POPC   GL226354  43.415  37.158   9.124
 1786POPC   C1A26355  42.929  36.861   8.832
 1786POPC   D2A26356  43.099  36.816   8.394
 1786POPC   C3A26357  42.886  36.694   8.043
 1786POPC   C4A26358  42.794  36.950   7.709
 1786POPC   C1B26359  43.439  36.962   8.746
 1786POPC   C2B26360  43.613  36.949   8.365
 1786POPC   C3B26361  43.621  36.770   7.959
 1786POPC   C4B26362  43.292  36.804   7.729
 1787POPC   NC326363  38.726  37.962   9.559
 1787POPC   PO426364  39.291  38.366   9.571
 1787POPC   GL126365  39.216  38.299   9.132
 1787POPC   GL226366  38.940  38.153   9.132
 1787POPC   C1A26367  39.428  38.349   8.687
 1787POPC   D2A26368  39.268  38.653   8.364
 1787POPC   C3A26369  39.097  38.540   7.946
 1787POPC   C4A26370  39.276  38.604   7.548
 1787POPC   C1B26371  38.949  38.478   8.761
 1787POPC   C2B26372  38.897  38.298   8.368
 1787POPC   C3B26373  38.926  38.052   8.014
 1787POPC   C4B26374  38.858  38.204   7.608
 1788POPC   NC326375  28.336  19.509   9.394
 1788POPC   PO426376  28.384  18.800   9.410
 1788POPC   GL126377  28.314  19.052   9.097
 1788POPC   GL226378  28.045  19.246   9.080
 1788POPC   C1A26379  28.442  19.281   8.754
 1788POPC   D2A26380  28.296  19.421   8.378
 1788POPC   C3A26381  28.528  19.201   8.052
 1788POPC   C4A26382  28.610  19.248   7.617
 1788POPC   C1B26383  27.964  19.048   8.685
 1788POPC   C2B26384  27.917  19.097   8.241
 1788POPC   C3B26385  28.068  19.348   7.897
 1788POPC   C4B26386  28.029  19.351   7.426
 1789POPC   NC326387  44.852   0.999   9.516
 1789POPC   PO426388  44.434   1.595   9.486
 1789POPC   GL126389  44.540   1.333   9.120
 1789POPC   GL226390  44.854   1.181   9.018
 1789POPC   C1A26391  44.390   1.242   8.701
 1789POPC   D2A26392  44.369   0.860   8.406
 1789POPC   C3A26393  44.687   0.878   8.083
 1789POPC   C4A26394  44.615   0.996   7.658
 1789POPC   C1B26395  44.998   1.175   8.584
 1789POPC   C2B26396  44.689   1.347   8.296
 1789POPC   C3B26397  44.624   1.451   7.890
 1789POPC   C4B26398  44.962   1.359   7.616
 1790POPC   NC326399   6.789  13.998   9.454
 1790POPC   PO426400   7.361  14.289   9.471
 1790POPC   GL126401   7.289  14.515   9.112
 1790POPC   GL226402   6.957  14.353   9.112
 1790POPC   C1A26403   7.305  14.561   8.660
 1790POPC   D2A26404   7.630  14.504   8.309
 1790POPC   C3A26405   7.482  14.312   7.907
 1790POPC   C4A26406   7.462  13.876   7.841
 1790POPC   C1B26407   7.091  14.095   8.813
 1790POPC   C2B26408   7.211  14.128   8.379
 1790POPC   C3B26409   7.099  14.512   8.183
 1790POPC   C4B26410   6.908  14.690   7.850
 1791POPC   NC326411  19.334  40.272   9.554
 1791POPC   PO426412  18.726  40.240   9.704
 1791POPC   GL126413  18.950  40.143   9.257
 1791POPC   GL226414  19.158  39.814   9.283
 1791POPC   C1A26415  19.255  40.087   8.870
 1791POPC   D2A26416  19.254  39.834   8.473
 1791POPC   C3A26417  19.258  39.990   8.041
 1791POPC   C4A26418  18.997  39.952   7.679
 1791POPC   C1B26419  19.141  39.532   8.900
 1791POPC   C2B26420  18.916  39.431   8.491
 1791POPC   C3B26421  18.920  39.619   8.070
 1791POPC   C4B26422  19.258  39.528   7.731
 1792POPC   NC326423  28.820  11.954   9.543
 1792POPC   PO426424  29.394  12.078   9.768
 1792POPC   GL126425  29.171  12.219   9.239
 1792POPC   GL226426  28.977  11.966   9.060
 1792POPC   C1A26427  29.343  12.022   8.716
 1792POPC   D2A26428  29.129  11.899   8.298
 1792POPC   C3A26429  29.310  12.021   7.896
 1792POPC   C4A26430  29.218  12.254   7.538
 1792POPC   C1B26431  28.938  12.303   8.695
 1792POPC   C2B26432  29.013  12.403   8.224
 1792POPC   C3B26433  28.820  12.173   7.861
 1792POPC   C4B26434  28.698  12.256   7.401
 1793POPC   NC326435  11.453  32.001   9.401
 1793POPC   PO426436  11.401  32.646   9.587
 1793POPC   GL126437  11.330  32.489   9.169
 1793POPC   GL226438  11.089  32.216   9.109
 1793POPC   C1A26439  11.391  32.381   8.726
 1793POPC   D2A26440  11.459  32.501   8.296
 1793POPC   C3A26441  11.507  32.298   7.857
 1793POPC   C4A26442  11.577  32.376   7.381
 1793POPC   C1B26443  10.928  32.165   8.668
 1793POPC   C2B26444  11.034  32.217   8.201
 1793POPC   C3B26445  10.930  32.210   7.744
 1793POPC   C4B26446  10.958  32.121   7.296
 1794POPC   NC326447  27.364   6.830   9.549
 1794POPC   PO426448  27.804   6.356   9.568
 1794POPC   GL126449  27.718   6.628   9.200
 1794POPC   GL226450  27.329   6.649   9.082
 1794POPC   C1A26451  27.711   6.784   8.777
 1794POPC   D2A26452  27.412   6.660   8.461
 1794POPC   C3A26453  27.635   6.563   8.099
 1794POPC   C4A26454  27.780   6.600   7.668
 1794POPC   C1B26455  27.306   7.083   8.897
 1794POPC   C2B26456  27.393   7.161   8.475
 1794POPC   C3B26457  27.464   7.047   8.029
 1794POPC   C4B26458  27.286   6.674   7.764
 1795POPC   NC326459  15.393   6.662   9.431
 1795POPC   PO426460  14.787   6.386   9.464
 1795POPC   GL126461  15.011   6.561   9.064
 1795POPC   GL226462  15.148   6.909   9.045
 1795POPC   C1A26463  15.092   6.598   8.600
 1795POPC   D2A26464  14.940   6.398   8.214
 1795POPC   C3A26465  14.902   6.556   7.790
 1795POPC   C4A26466  14.980   6.916   7.486
 1795POPC   C1B26467  15.412   6.998   8.686
 1795POPC   C2B26468  15.388   6.879   8.283
 1795POPC   C3B26469  15.242   6.915   7.931
 1795POPC   C4B26470  15.477   7.018   7.637
 1796POPC   NC326471  31.120  37.423   9.410
 1796POPC   PO426472  31.374  38.078   9.574
 1796POPC   GL126473  31.432  37.780   9.192
 1796POPC   GL226474  31.608  37.466   9.161
 1796POPC   C1A26475  31.562  37.733   8.752
 1796POPC   D2A26476  31.617  37.485   8.424
 1796POPC   C3A26477  31.548  37.759   8.102
 1796POPC   C4A26478  31.490  37.662   7.725
 1796POPC   C1B26479  31.293  37.304   8.816
 1796POPC   C2B26480  31.199  37.120   8.442
 1796POPC   C3B26481  31.182  37.385   8.116
 1796POPC   C4B26482  31.081  37.375   7.694
 1797POPC   NC326483  13.878  23.040   9.529
 1797POPC   PO426484  13.197  22.808   9.576
 1797POPC   GL126485  13.433  22.737   9.178
 1797POPC   GL226486  13.597  23.064   9.129
 1797POPC   C1A26487  13.607  22.733   8.730
 1797POPC   D2A26488  13.669  22.550   8.336
 1797POPC   C3A26489  13.581  22.763   7.960
 1797POPC   C4A26490  13.845  23.045   7.798
 1797POPC   C1B26491  13.450  23.212   8.776
 1797POPC   C2B26492  13.603  23.138   8.352
 1797POPC   C3B26493  13.448  23.309   7.986
 1797POPC   C4B26494  13.244  23.060   7.701
 1798POPC   NC326495   2.454  27.907   9.361
 1798POPC   PO426496   3.070  27.773   9.492
 1798POPC   GL126497   2.924  27.707   9.115
 1798POPC   GL226498   2.772  27.404   9.209
 1798POPC   C1A26499   3.012  27.606   8.699
 1798POPC   D2A26500   2.802  27.772   8.326
 1798POPC   C3A26501   2.899  27.636   7.922
 1798POPC   C4A26502   2.509  27.698   7.668
 1798POPC   C1B26503   2.719  27.195   8.815
 1798POPC   C2B26504   2.755  27.277   8.383
 1798POPC   C3B26505   2.477  27.420   8.099
 1798POPC   C4B26506   2.671  27.206   7.733
 1799POPC   NC326507  19.945  42.697   9.324
 1799POPC   PO426508  19.723  43.318   9.445
 1799POPC   GL126509  19.939  43.182   9.102
 1799POPC   GL226510  19.609  43.011   9.009
 1799POPC   C1A26511  19.980  43.033   8.659
 1799POPC   D2A26512  19.890  42.644   8.397
 1799POPC   C3A26513  19.998  42.702   7.966
 1799POPC   C4A26514  20.066  43.076   7.713
 1799POPC   C1B26515  19.637  43.442   8.768
 1799POPC   C2B26516  19.599  43.609   8.331
 1799POPC   C3B26517  19.769  43.441   7.969
 1799POPC   C4B26518  19.605  43.320   7.622
 1800POPC   NC326519  15.699   0.494   9.560
 1800POPC   PO426520  16.279   0.336   9.805
 1800POPC   GL126521  16.135   0.290   9.331
 1800POPC   GL226522  15.921   0.535   9.094
 1800POPC   C1A26523  15.957   0.078   8.938
 1800POPC   D2A26524  15.917   0.348   8.591
 1800POPC   C3A26525  15.783   0.285   8.165
 1800POPC   C4A26526  15.973   0.281   7.736
 1800POPC   C1B26527  15.592   0.725   8.850
 1800POPC   C2B26528  15.393   0.683   8.476
 1800POPC   C3B26529  15.394   0.821   8.100
 1800POPC   C4B26530  15.598   0.620   7.802
 1801POPC   NC326531  37.548  39.973   9.514
 1801POPC   PO426532  37.988  40.370   9.509
 1801POPC   GL126533  37.719  40.258   9.123
 1801POPC   GL226534  37.726  39.865   9.067
 1801POPC   C1A26535  37.550  40.146   8.698
 1801POPC   D2A26536  37.688  39.984   8.323
 1801POPC   C3A26537  37.434  39.983   7.960
 1801POPC   C4A26538  37.543  40.289   7.675
 1801POPC   C1B26539  38.065  39.685   8.833
 1801POPC   C2B26540  38.117  39.713   8.410
 1801POPC   C3B26541  37.890  39.551   8.052
 1801POPC   C4B26542  37.802  39.760   7.689
 1802POPC   NC326543  20.105  11.080   9.454
 1802POPC   PO426544  19.668  11.614   9.480
 1802POPC   GL126545  19.711  11.285   9.162
 1802POPC   GL226546  20.060  11.252   8.975
 1802POPC   C1A26547  19.657  11.018   8.805
 1802POPC   D2A26548  19.956  11.091   8.460
 1802POPC   C3A26549  19.739  11.203   8.101
 1802POPC   C4A26550  19.708  11.143   7.700
 1802POPC   C1B26551  20.422  11.001   8.795
 1802POPC   C2B26552  20.386  10.790   8.379
 1802POPC   C3B26553  20.209  11.005   7.985
 1802POPC   C4B26554  20.170  11.388   7.745
 1803POPC   NC326555  33.084  16.209   9.794
 1803POPC   PO426556  33.333  15.694   9.314
 1803POPC   GL126557  33.100  15.938   8.969
 1803POPC   GL226558  32.808  16.126   8.960
 1803POPC   C1A26559  33.147  16.144   8.582
 1803POPC   D2A26560  33.087  15.876   8.282
 1803POPC   C3A26561  33.201  16.037   7.905
 1803POPC   C4A26562  33.021  15.768   7.655
 1803POPC   C1B26563  32.635  16.102   8.571
 1803POPC   C2B26564  32.748  16.289   8.191
 1803POPC   C3B26565  32.714  16.201   7.755
 1803POPC   C4B26566  32.930  16.158   7.350
 1804POPC   NC326567  42.568  22.298   9.485
 1804POPC   PO426568  42.516  21.621   9.220
 1804POPC   GL126569  42.541  22.055   9.051
 1804POPC   GL226570  42.240  22.239   9.064
 1804POPC   C1A26571  42.495  22.251   8.643
 1804POPC   D2A26572  42.663  22.003   8.316
 1804POPC   C3A26573  42.452  22.101   7.992
 1804POPC   C4A26574  42.414  21.788   7.688
 1804POPC   C1B26575  42.078  21.948   8.770
 1804POPC   C2B26576  42.000  21.794   8.358
 1804POPC   C3B26577  41.969  21.919   7.937
 1804POPC   C4B26578  42.101  22.179   7.644
 1805POPC   NC326579  28.686  15.561   9.585
 1805POPC   PO426580  29.304  15.838   9.525
 1805POPC   GL126581  29.168  15.901   9.159
 1805POPC   GL226582  28.831  15.935   9.213
 1805POPC   C1A26583  29.100  15.760   8.763
 1805POPC   D2A26584  29.092  15.711   8.344
 1805POPC   C3A26585  29.128  16.051   8.069
 1805POPC   C4A26586  29.236  15.966   7.643
 1805POPC   C1B26587  28.811  16.163   8.849
 1805POPC   C2B26588  28.707  16.026   8.429
 1805POPC   C3B26589  28.638  16.125   7.992
 1805POPC   C4B26590  28.774  16.186   7.567
 1806POPC   NC326591  23.196  31.887   9.512
 1806POPC   PO426592  23.100  32.539   9.502
 1806POPC   GL126593  22.832  32.282   9.290
 1806POPC   GL226594  22.890  31.953   9.096
 1806POPC   C1A26595  22.826  32.413   8.900
 1806POPC   D2A26596  23.074  32.257   8.565
 1806POPC   C3A26597  23.119  32.427   8.133
 1806POPC   C4A26598  22.925  32.459   7.768
 1806POPC   C1B26599  22.780  31.768   8.693
 1806POPC   C2B26600  22.966  31.819   8.297
 1806POPC   C3B26601  23.031  31.959   7.880
 1806POPC   C4B26602  22.705  32.047   7.570
 1807POPC   NC326603   4.739  16.541   9.531
 1807POPC   PO426604   5.195  16.936   9.634
 1807POPC   GL126605   5.159  16.643   9.237
 1807POPC   GL226606   5.487  16.513   9.101
 1807POPC   C1A26607   4.858  16.566   8.868
 1807POPC   D2A26608   4.684  16.748   8.480
 1807POPC   C3A26609   4.875  16.717   8.113
 1807POPC   C4A26610   5.168  16.661   7.760
 1807POPC   C1B26611   5.321  16.754   8.736
 1807POPC   C2B26612   5.368  16.713   8.290
 1807POPC   C3B26613   5.461  17.023   8.002
 1807POPC   C4B26614   5.404  17.274   7.670
 1808POPC   NC326615  38.595  28.056   9.552
 1808POPC   PO426616  38.138  28.531   9.449
 1808POPC   GL126617  38.511  28.448   9.180
 1808POPC   GL226618  38.504  28.129   9.076
 1808POPC   C1A26619  38.747  28.440   8.766
 1808POPC   D2A26620  38.870  28.242   8.392
 1808POPC   C3A26621  38.625  28.441   8.087
 1808POPC   C4A26622  38.360  28.372   7.730
 1808POPC   C1B26623  38.509  27.952   8.701
 1808POPC   C2B26624  38.340  28.026   8.312
 1808POPC   C3B26625  38.488  27.930   7.919
 1808POPC   C4B26626  38.247  27.909   7.520
 1809POPC   NC326627  16.053  10.095   9.363
 1809POPC   PO426628  15.679   9.583   9.379
 1809POPC   GL126629  15.694   9.842   9.080
 1809POPC   GL226630  16.067   9.774   8.974
 1809POPC   C1A26631  15.659   9.751   8.675
 1809POPC   D2A26632  15.948   9.733   8.405
 1809POPC   C3A26633  15.790   9.816   8.012
 1809POPC   C4A26634  15.731   9.600   7.661
 1809POPC   C1B26635  15.950  10.161   8.738
 1809POPC   C2B26636  16.013  10.254   8.325
 1809POPC   C3B26637  16.249  10.031   8.043
 1809POPC   C4B26638  16.110   9.939   7.611
 1810POPC   NC326639  37.226  25.141   9.622
 1810POPC   PO426640  36.766  25.644   9.478
 1810POPC   GL126641  36.811  25.366   9.138
 1810POPC   GL226642  37.053  25.108   9.144
 1810POPC   C1A26643  36.802  25.299   8.713
 1810POPC   D2A26644  36.942  25.402   8.324
 1810POPC   C3A26645  36.761  25.116   8.075
 1810POPC   C4A26646  36.871  25.121   7.697
 1810POPC   C1B26647  37.270  25.026   8.761
 1810POPC   C2B26648  37.189  24.938   8.312
 1810POPC   C3B26649  37.315  25.150   7.928
 1810POPC   C4B26650  37.301  25.052   7.425
 1811POPC   NC326651  24.828  12.484   9.469
 1811POPC   PO426652  24.401  11.938   9.551
 1811POPC   GL126653  24.507  11.823   9.150
 1811POPC   GL226654  24.703  12.111   9.091
 1811POPC   C1A26655  24.703  11.679   8.758
 1811POPC   D2A26656  24.918  11.674   8.359
 1811POPC   C3A26657  24.628  11.897   8.100
 1811POPC   C4A26658  24.497  11.930   7.671
 1811POPC   C1B26659  24.403  12.154   8.742
 1811POPC   C2B26660  24.448  12.318   8.327
 1811POPC   C3B26661  24.526  12.399   7.889
 1811POPC   C4B26662  24.271  12.387   7.533
 1812POPC   NC326663  17.906  22.003   9.586
 1812POPC   PO426664  17.349  22.385   9.755
 1812POPC   GL126665  17.474  22.239   9.293
 1812POPC   GL226666  17.139  22.216   9.154
 1812POPC   C1A26667  17.642  22.309   8.847
 1812POPC   D2A26668  17.631  22.120   8.418
 1812POPC   C3A26669  17.857  22.215   8.037
 1812POPC   C4A26670  17.694  22.336   7.638
 1812POPC   C1B26671  17.205  22.060   8.761
 1812POPC   C2B26672  17.097  22.184   8.359
 1812POPC   C3B26673  17.337  22.246   8.011
 1812POPC   C4B26674  17.172  22.221   7.623
 1813POPC   NC326675  24.307  36.856   9.549
 1813POPC   PO426676  24.865  36.480   9.560
 1813POPC   GL126677  24.590  36.599   9.217
 1813POPC   GL226678  24.747  36.902   9.215
 1813POPC   C1A26679  24.356  36.878   8.901
 1813POPC   D2A26680  24.470  36.915   8.484
 1813POPC   C3A26681  24.299  37.094   8.134
 1813POPC   C4A26682  24.373  36.841   7.818
 1813POPC   C1B26683  24.861  37.016   8.826
 1813POPC   C2B26684  24.851  37.230   8.415
 1813POPC   C3B26685  24.805  37.038   8.009
 1813POPC   C4B26686  24.719  37.186   7.587
 1814POPC   NC326687   3.780  42.938   9.339
 1814POPC   PO426688   4.260  43.292   9.737
 1814POPC   GL126689   4.280  43.204   9.280
 1814POPC   GL226690   4.521  42.921   9.171
 1814POPC   C1A26691   4.356  43.300   8.834
 1814POPC   D2A26692   4.567  43.045   8.523
 1814POPC   C3A26693   4.435  43.047   8.102
 1814POPC   C4A26694   4.469  43.292   7.749
 1814POPC   C1B26695   4.221  42.813   8.836
 1814POPC   C2B26696   4.047  42.998   8.460
 1814POPC   C3B26697   3.939  42.973   8.021
 1814POPC   C4B26698   4.136  42.924   7.614
 1815POPC   NC326699  36.196  40.926   9.607
 1815POPC   PO426700  35.663  40.483   9.765
 1815POPC   GL126701  35.998  40.564   9.323
 1815POPC   GL226702  35.908  40.920   9.184
 1815POPC   C1A26703  36.016  40.495   8.847
 1815POPC   D2A26704  36.093  40.475   8.365
 1815POPC   C3A26705  35.994  40.768   8.044
 1815POPC   C4A26706  36.194  40.783   7.679
 1815POPC   C1B26707  36.195  40.983   8.857
 1815POPC   C2B26708  36.311  40.952   8.419
 1815POPC   C3B26709  36.393  41.117   8.002
 1815POPC   C4B26710  36.050  41.259   7.748
 1816POPC   NC326711  44.565  40.261   9.640
 1816POPC   PO426712  44.537  39.644   9.798
 1816POPC   GL126713  44.717  39.857   9.340
 1816POPC   GL226714  44.797  40.240   9.196
 1816POPC   C1A26715  44.711  39.854   8.883
 1816POPC   D2A26716  44.493  39.794   8.499
 1816POPC   C3A26717  44.695  39.810   8.088
 1816POPC   C4A26718  44.699  39.907   7.671
 1816POPC   C1B26719  44.887  40.333   8.765
 1816POPC   C2B26720  44.727  40.305   8.358
 1816POPC   C3B26721  44.867  40.318   7.909
 1816POPC   C4B26722  44.683  40.395   7.438
 1817POPC   NC326723   0.960  37.422   9.662
 1817POPC   PO426724   1.253  37.901   9.345
 1817POPC   GL126725   1.055  37.605   9.191
 1817POPC   GL226726   1.331  37.367   9.298
 1817POPC   C1A26727   0.830  37.703   8.827
 1817POPC   D2A26728   1.105  37.834   8.489
 1817POPC   C3A26729   1.076  37.646   8.080
 1817POPC   C4A26730   1.165  37.833   7.682
 1817POPC   C1B26731   1.511  37.253   8.898
 1817POPC   C2B26732   1.404  37.377   8.450
 1817POPC   C3B26733   1.355  37.219   8.021
 1817POPC   C4B26734   1.362  37.381   7.550
 1818POPC   NC326735  13.313  30.357   9.610
 1818POPC   PO426736  13.775  30.820   9.582
 1818POPC   GL126737  13.623  30.694   9.170
 1818POPC   GL226738  13.306  30.600   9.135
 1818POPC   C1A26739  13.655  30.711   8.729
 1818POPC   D2A26740  13.485  30.830   8.353
 1818POPC   C3A26741  13.727  30.954   7.981
 1818POPC   C4A26742  13.652  30.779   7.529
 1818POPC   C1B26743  13.151  30.513   8.722
 1818POPC   C2B26744  13.286  30.380   8.319
 1818POPC   C3B26745  13.353  30.601   7.919
 1818POPC   C4B26746  13.197  30.485   7.550
 1819POPC   NC326747  40.788   2.631   9.738
 1819POPC   PO426748  40.549   3.141   9.393
 1819POPC   GL126749  40.725   2.718   9.213
 1819POPC   GL226750  40.520   2.490   9.046
 1819POPC   C1A26751  40.964   2.600   8.801
 1819POPC   D2A26752  40.999   2.789   8.351
 1819POPC   C3A26753  40.948   2.566   7.939
 1819POPC   C4A26754  40.782   2.758   7.542
 1819POPC   C1B26755  40.319   2.577   8.689
 1819POPC   C2B26756  40.449   2.853   8.381
 1819POPC   C3B26757  40.468   2.757   7.959
 1819POPC   C4B26758  40.272   2.618   7.597
 1820POPC   NC326759   0.639  23.403   9.429
 1820POPC   PO426760   0.120  23.786   9.492
 1820POPC   GL126761   0.447  23.849   9.127
 1820POPC   GL226762   0.691  23.578   8.971
 1820POPC   C1A26763   0.631  23.980   8.689
 1820POPC   D2A26764   0.737  23.737   8.323
 1820POPC   C3A26765   0.598  23.883   7.879
 1820POPC   C4A26766   0.280  23.639   7.592
 1820POPC   C1B26767   0.324  23.571   8.715
 1820POPC   C2B26768   0.172  23.465   8.389
 1820POPC   C3B26769   0.405  23.442   8.045
 1820POPC   C4B26770   0.751  23.416   7.761
 1821POPC   NC326771  35.215  17.070   9.458
 1821POPC   PO426772  35.141  16.394   9.463
 1821POPC   GL126773  35.294  16.543   9.098
 1821POPC   GL226774  35.510  16.777   9.137
 1821POPC   C1A26775  35.360  16.559   8.653
 1821POPC   D2A26776  35.131  16.667   8.296
 1821POPC   C3A26777  35.259  16.630   7.893
 1821POPC   C4A26778  35.010  16.970   7.780
 1821POPC   C1B26779  35.528  17.033   8.782
 1821POPC   C2B26780  35.582  17.004   8.330
 1821POPC   C3B26781  35.493  17.074   7.891
 1821POPC   C4B26782  35.563  16.932   7.471
 1822POPC   NC326783  18.562   5.112   9.434
 1822POPC   PO426784  17.938   4.990   9.363
 1822POPC   GL126785  18.050   5.142   8.991
 1822POPC   GL226786  18.387   5.350   9.014
 1822POPC   C1A26787  17.904   4.943   8.609
 1822POPC   D2A26788  18.035   4.641   8.320
 1822POPC   C3A26789  18.069   4.748   7.882
 1822POPC   C4A26790  17.790   5.045   7.629
 1822POPC   C1B26791  18.399   5.149   8.624
 1822POPC   C2B26792  18.292   5.094   8.224
 1822POPC   C3B26793  18.209   5.270   7.852
 1822POPC   C4B26794  18.336   5.033   7.534
 1823POPC   NC326795  15.470   4.661   9.471
 1823POPC   PO426796  15.165   4.090   9.668
 1823POPC   GL126797  15.190   4.062   9.198
 1823POPC   GL226798  15.241   4.382   9.066
 1823POPC   C1A26799  15.171   4.033   8.718
 1823POPC   D2A26800  15.182   4.315   8.356
 1823POPC   C3A26801  15.347   4.137   7.995
 1823POPC   C4A26802  15.291   3.845   7.686
 1823POPC   C1B26803  14.923   4.531   8.753
 1823POPC   C2B26804  14.768   4.634   8.340
 1823POPC   C3B26805  14.957   4.676   7.903
 1823POPC   C4B26806  15.059   4.622   7.450
 1824POPC   NC326807   4.391  11.861   9.589
 1824POPC   PO426808   4.735  12.453   9.424
 1824POPC   GL126809   4.463  12.362   9.111
 1824POPC   GL226810   4.470  12.021   9.127
 1824POPC   C1A26811   4.258  12.453   8.742
 1824POPC   D2A26812   4.377  12.577   8.341
 1824POPC   C3A26813   4.082  12.420   8.042
 1824POPC   C4A26814   4.109  12.186   7.665
 1824POPC   C1B26815   4.248  11.932   8.775
 1824POPC   C2B26816   4.266  12.071   8.368
 1824POPC   C3B26817   4.357  11.871   7.987
 1824POPC   C4B26818   4.571  11.869   7.596
 1825POPC   NC326819   3.611  15.477   9.843
 1825POPC   PO426820   3.261  15.923   9.404
 1825POPC   GL126821   3.454  15.804   8.973
 1825POPC   GL226822   3.813  15.847   8.979
 1825POPC   C1A26823   3.580  16.019   8.587
 1825POPC   D2A26824   3.473  16.388   8.429
 1825POPC   C3A26825   3.507  16.230   8.039
 1825POPC   C4A26826   3.608  16.335   7.623
 1825POPC   C1B26827   3.911  15.609   8.666
 1825POPC   C2B26828   3.921  15.787   8.270
 1825POPC   C3B26829   3.684  15.752   7.930
 1825POPC   C4B26830   3.788  15.839   7.515
 1826POPC   NC326831  19.066   9.033   9.465
 1826POPC   PO426832  19.424   8.515   9.394
 1826POPC   GL126833  19.329   8.824   9.063
 1826POPC   GL226834  18.987   8.826   9.015
 1826POPC   C1A26835  19.248   8.959   8.607
 1826POPC   D2A26836  19.115   8.800   8.194
 1826POPC   C3A26837  19.302   8.989   7.852
 1826POPC   C4A26838  19.667   9.251   7.870
 1826POPC   C1B26839  18.852   9.206   8.837
 1826POPC   C2B26840  18.732   9.023   8.457
 1826POPC   C3B26841  18.817   9.218   8.075
 1826POPC   C4B26842  18.838   9.122   7.691
 1827POPC   NC326843  29.390  40.202   9.560
 1827POPC   PO426844  28.834  40.367   9.349
 1827POPC   GL126845  29.266  40.504   9.122
 1827POPC   GL226846  29.562  40.766   9.173
 1827POPC   C1A26847  29.437  40.568   8.666
 1827POPC   D2A26848  29.505  40.629   8.181
 1827POPC   C3A26849  29.159  40.823   7.901
 1827POPC   C4A26850  29.045  41.020   7.475
 1827POPC   C1B26851  29.645  41.021   8.767
 1827POPC   C2B26852  29.725  41.083   8.295
 1827POPC   C3B26853  29.635  41.015   7.847
 1827POPC   C4B26854  29.840  40.958   7.445
 1828POPC   NC326855  31.163  28.918   9.432
 1828POPC   PO426856  31.716  29.250   9.520
 1828POPC   GL126857  31.436  29.275   9.168
 1828POPC   GL226858  31.534  28.963   9.069
 1828POPC   C1A26859  31.206  29.268   8.784
 1828POPC   D2A26860  31.169  29.482   8.361
 1828POPC   C3A26861  31.284  29.292   7.982
 1828POPC   C4A26862  31.686  29.342   7.786
 1828POPC   C1B26863  31.659  29.092   8.669
 1828POPC   C2B26864  31.709  29.118   8.248
 1828POPC   C3B26865  31.619  28.851   7.874
 1828POPC   C4B26866  31.830  28.944   7.478
 1829POPC   NC326867   7.225  27.686   9.444
 1829POPC   PO426868   7.651  27.221   9.449
 1829POPC   GL126869   7.432  27.388   9.082
 1829POPC   GL226870   7.021  27.365   9.127
 1829POPC   C1A26871   7.488  27.752   8.793
 1829POPC   D2A26872   7.214  28.045   8.539
 1829POPC   C3A26873   7.318  27.984   8.092
 1829POPC   C4A26874   7.278  27.797   7.638
 1829POPC   C1B26875   6.991  27.637   8.791
 1829POPC   C2B26876   7.179  27.560   8.405
 1829POPC   C3B26877   7.032  27.551   8.013
 1829POPC   C4B26878   7.100  27.206   7.813
 1830POPC   NC326879   0.787  13.799   9.518
 1830POPC   PO426880   0.190  13.938   9.473
 1830POPC   GL126881   0.465  13.762   9.105
 1830POPC   GL226882   0.685  13.464   9.118
 1830POPC   C1A26883   0.555  13.693   8.637
 1830POPC   D2A26884   0.591  13.735   8.175
 1830POPC   C3A26885   0.302  13.490   7.893
 1830POPC   C4A26886   0.372  13.306   7.490
 1830POPC   C1B26887   0.749  13.229   8.715
 1830POPC   C2B26888   0.588  13.234   8.280
 1830POPC   C3B26889   0.767  13.295   7.868
 1830POPC   C4B26890   0.886  13.415   7.456
 1831POPC   NC326891  30.746   2.456   9.280
 1831POPC   PO426892  30.935   3.064   9.183
 1831POPC   GL126893  30.777   2.804   8.901
 1831POPC   GL226894  30.455   2.842   8.985
 1831POPC   C1A26895  30.643   2.689   8.507
 1831POPC   D2A26896  31.018   2.718   8.305
 1831POPC   C3A26897  30.996   2.903   7.942
 1831POPC   C4A26898  30.844   2.594   7.695
 1831POPC   C1B26899  30.199   2.945   8.618
 1831POPC   C2B26900  30.140   2.945   8.181
 1831POPC   C3B26901  30.440   2.831   7.910
 1831POPC   C4B26902  30.610   3.093   7.622
 1832POPC   NC326903  44.988  39.603   9.666
 1832POPC   PO426904  44.454  39.390   9.322
 1832POPC   GL126905  44.679  39.193   9.037
 1832POPC   GL226906  44.728  38.831   9.052
 1832POPC   C1A26907  44.529  39.187   8.641
 1832POPC   D2A26908  44.440  39.100   8.236
 1832POPC   C3A26909  44.589  39.338   7.869
 1832POPC   C4A26910  44.543  39.474   7.442
 1832POPC   C1B26911  44.958  38.925   8.671
 1832POPC   C2B26912  44.938  38.956   8.257
 1832POPC   C3B26913  44.761  38.853   7.912
 1832POPC   C4B26914   0.036  39.027   7.656
 1833POPC   NC326915   9.309  16.503   9.433
 1833POPC   PO426916   8.592  16.494   9.260
 1833POPC   GL126917   8.890  16.778   9.049
 1833POPC   GL226918   9.249  16.925   9.118
 1833POPC   C1A26919   8.771  16.802   8.637
 1833POPC   D2A26920   8.933  16.963   8.270
 1833POPC   C3A26921   9.202  16.660   8.086
 1833POPC   C4A26922   8.876  16.343   8.020
 1833POPC   C1B26923   9.091  17.172   8.756
 1833POPC   C2B26924   9.252  17.350   8.368
 1833POPC   C3B26925   9.202  17.219   7.926
 1833POPC   C4B26926   8.918  16.894   7.734
 1834POPC   NC326927  15.676  44.769   9.535
 1834POPC   PO426928  16.293  44.809   9.447
 1834POPC   GL126929  16.024  44.583   9.147
 1834POPC   GL226930  15.689  44.403   9.179
 1834POPC   C1A26931  16.149  44.672   8.716
 1834POPC   D2A26932  16.298  44.986   8.435
 1834POPC   C3A26933  16.122  44.901   8.035
 1834POPC   C4A26934  16.007  44.654   7.703
 1834POPC   C1B26935  15.649  44.663   8.790
 1834POPC   C2B26936  15.775  44.691   8.345
 1834POPC   C3B26937  15.535  44.615   7.951
 1834POPC   C4B26938  15.539  44.626   7.484
 1835POPC   NC326939   4.158  25.555   9.405
 1835POPC   PO426940   4.644  25.067   9.460
 1835POPC   GL126941   4.394  25.204   9.127
 1835POPC   GL226942   4.016  25.137   9.131
 1835POPC   C1A26943   4.321  25.390   8.748
 1835POPC   D2A26944   4.374  25.687   8.443
 1835POPC   C3A26945   4.189  25.576   8.040
 1835POPC   C4A26946   4.319  25.379   7.656
 1835POPC   C1B26947   4.146  24.889   8.778
 1835POPC   C2B26948   4.449  24.967   8.440
 1835POPC   C3B26949   4.310  25.057   8.041
 1835POPC   C4B26950   3.985  24.921   7.732
 1836POPC   NC326951  24.881  13.473   9.310
 1836POPC   PO426952  24.363  13.723   9.602
 1836POPC   GL126953  24.380  13.450   9.180
 1836POPC   GL226954  24.624  13.200   8.973
 1836POPC   C1A26955  24.424  13.595   8.743
 1836POPC   D2A26956  24.358  13.957   8.481
 1836POPC   C3A26957  24.543  13.862   8.123
 1836POPC   C4A26958  24.433  13.764   7.736
 1836POPC   C1B26959  24.594  13.150   8.527
 1836POPC   C2B26960  24.764  13.394   8.196
 1836POPC   C3B26961  24.960  13.336   7.810
 1836POPC   C4B26962  24.854  13.187   7.384
 1837POPC   NC326963   4.877  12.652   9.812
 1837POPC   PO426964   5.336  12.954   9.477
 1837POPC   GL126965   5.230  13.082   9.098
 1837POPC   GL226966   4.966  12.840   9.123
 1837POPC   C1A26967   5.130  13.095   8.671
 1837POPC   D2A26968   5.266  13.031   8.278
 1837POPC   C3A26969   5.061  13.069   7.898
 1837POPC   C4A26970   5.328  12.897   7.595
 1837POPC   C1B26971   4.975  12.607   8.754
 1837POPC   C2B26972   4.882  12.695   8.341
 1837POPC   C3B26973   5.039  12.563   7.943
 1837POPC   C4B26974   5.195  12.413   7.535
 1838POPC   NC326975  44.149  39.668   9.531
 1838POPC   PO426976  44.099  40.289   9.637
 1838POPC   GL126977  43.978  40.070   9.244
 1838POPC   GL226978  44.302  40.073   9.180
 1838POPC   C1A26979  44.029  39.862   8.805
 1838POPC   D2A26980  43.809  39.794   8.388
 1838POPC   C3A26981  43.953  39.962   7.992
 1838POPC   C4A26982  43.953  40.442   7.923
 1838POPC   C1B26983  44.367  40.248   8.775
 1838POPC   C2B26984  44.169  40.177   8.396
 1838POPC   C3B26985  44.384  40.198   8.004
 1838POPC   C4B26986  44.265  40.183   7.597
 1839POPC   NC326987   7.560  15.572   9.287
 1839POPC   PO426988   7.712  14.984   9.493
 1839POPC   GL126989   7.473  15.048   9.123
 1839POPC   GL226990   7.144  15.293   9.169
 1839POPC   C1A26991   7.625  14.963   8.701
 1839POPC   D2A26992   7.402  14.954   8.299
 1839POPC   C3A26993   7.698  15.086   7.988
 1839POPC   C4A26994   7.596  15.255   7.611
 1839POPC   C1B26995   7.285  15.368   8.726
 1839POPC   C2B26996   7.108  15.374   8.317
 1839POPC   C3B26997   7.263  15.508   7.882
 1839POPC   C4B26998   7.301  15.579   7.366
 1840POPC   NC326999  13.995  23.732   9.404
 1840POPC   PO427000  14.556  23.420   9.732
 1840POPC   GL127001  14.551  23.492   9.196
 1840POPC   GL227002  14.264  23.683   8.978
 1840POPC   C1A27003  14.720  23.773   8.829
 1840POPC   D2A27004  14.860  23.754   8.402
 1840POPC   C3A27005  14.748  23.928   8.032
 1840POPC   C4A27006  14.543  23.668   7.737
 1840POPC   C1B27007  13.980  23.959   8.794
 1840POPC   C2B27008  14.106  23.971   8.418
 1840POPC   C3B27009  14.242  23.992   8.031
 1840POPC   C4B27010  14.100  23.910   7.652
 1841POPC   NC327011   0.108  26.024   9.714
 1841POPC   PO427012  44.504  25.915   9.401
 1841POPC   GL127013  44.525  26.023   8.967
 1841POPC   GL227014  44.205  26.268   8.935
 1841POPC   C1A27015  44.841  25.945   8.626
 1841POPC   D2A27016   0.034  26.157   8.281
 1841POPC   C3A27017   0.137  25.873   7.943
 1841POPC   C4A27018  44.927  25.933   7.546
 1841POPC   C1B27019  44.274  26.497   8.588
 1841POPC   C2B27020  44.466  26.179   8.371
 1841POPC   C3B27021  44.630  25.978   8.014
 1841POPC   C4B27022  44.624  25.605   7.802
 1842POPC   NC327023  12.425  23.713   9.575
 1842POPC   PO427024  11.812  23.485   9.699
 1842POPC   GL127025  11.978  23.656   9.241
 1842POPC   GL227026  12.249  23.890   9.146
 1842POPC   C1A27027  11.927  23.644   8.738
 1842POPC   D2A27028  11.849  23.396   8.338
 1842POPC   C3A27029  12.031  23.604   7.948
 1842POPC   C4A27030  11.903  23.692   7.489
 1842POPC   C1B27031  12.181  24.080   8.771
 1842POPC   C2B27032  12.257  23.880   8.392
 1842POPC   C3B27033  12.358  24.074   8.038
 1842POPC   C4B27034  12.260  24.031   7.645
 1843POPC   NC327035  38.141  39.642   9.531
 1843POPC   PO427036  38.595  39.081   9.502
 1843POPC   GL127037  38.636  39.152   9.070
 1843POPC   GL227038  38.420  39.447   9.113
 1843POPC   C1A27039  38.669  39.364   8.658
 1843POPC   D2A27040  38.500  39.436   8.241
 1843POPC   C3A27041  38.690  39.346   7.845
 1843POPC   C4A27042  38.928  38.987   7.729
 1843POPC   C1B27043  38.205  39.177   8.797
 1843POPC   C2B27044  38.062  39.167   8.359
 1843POPC   C3B27045  38.247  39.104   7.943
 1843POPC   C4B27046  38.184  39.366   7.600
 1844POPC   NC327047  25.223  23.294   9.368
 1844POPC   PO427048  25.064  22.728   9.720
 1844POPC   GL127049  25.055  22.720   9.211
 1844POPC   GL227050  25.347  22.847   9.074
 1844POPC   C1A27051  25.055  22.744   8.687
 1844POPC   D2A27052  25.220  22.956   8.291
 1844POPC   C3A27053  25.319  22.701   7.934
 1844POPC   C4A27054  25.273  22.546   7.508
 1844POPC   C1B27055  25.500  23.076   8.702
 1844POPC   C2B27056  25.582  23.327   8.322
 1844POPC   C3B27057  25.479  23.200   7.879
 1844POPC   C4B27058  25.460  23.053   7.448
 1845POPC   NC327059  22.350  34.351   9.573
 1845POPC   PO427060  22.462  34.938   9.171
 1845POPC   GL127061  22.352  34.518   9.088
 1845POPC   GL227062  21.979  34.460   9.151
 1845POPC   C1A27063  22.266  34.363   8.685
 1845POPC   D2A27064  21.983  34.534   8.407
 1845POPC   C3A27065  22.118  34.716   8.056
 1845POPC   C4A27066  21.900  34.807   7.714
 1845POPC   C1B27067  21.758  34.259   8.792
 1845POPC   C2B27068  21.662  34.157   8.330
 1845POPC   C3B27069  21.916  34.236   7.958
 1845POPC   C4B27070  22.014  34.251   7.520
 1846POPC   NC327071   5.548  38.458   9.482
 1846POPC   PO427072   5.834  38.994   9.462
 1846POPC   GL127073   5.875  38.669   9.147
 1846POPC   GL227074   5.530  38.800   9.077
 1846POPC   C1A27075   6.082  38.415   8.806
 1846POPC   D2A27076   6.106  38.166   8.397
 1846POPC   C3A27077   5.946  38.299   8.008
 1846POPC   C4A27078   6.197  38.321   7.609
 1846POPC   C1B27079   5.519  38.429   8.820
 1846POPC   C2B27080   5.588  38.304   8.408
 1846POPC   C3B27081   5.466  38.482   8.033
 1846POPC   C4B27082   5.668  38.506   7.620
 1847POPC   NC327083  38.443  44.292   9.447
 1847POPC   PO427084  38.143  44.908   9.545
 1847POPC   GL127085  38.287  44.774   9.175
 1847POPC   GL227086  38.615  44.741   9.225
 1847POPC   C1A27087  38.349  44.772   8.739
 1847POPC   D2A27088  38.130  44.801   8.342
 1847POPC   C3A27089  38.366  44.766   7.954
 1847POPC   C4A27090  38.338   0.026   7.579
 1847POPC   C1B27091  38.735  44.442   8.876
 1847POPC   C2B27092  38.648  44.402   8.423
 1847POPC   C3B27093  38.851  44.509   8.029
 1847POPC   C4B27094  38.744  44.693   7.607
 1848POPC   NC327095  21.575   9.990   9.459
 1848POPC   PO427096  20.931   9.901   9.490
 1848POPC   GL127097  21.182   9.923   9.132
 1848POPC   GL227098  21.269   9.571   9.204
 1848POPC   C1A27099  21.537   9.854   8.801
 1848POPC   D2A27100  21.566   9.604   8.398
 1848POPC   C3A27101  21.484   9.849   8.015
 1848POPC   C4A27102  21.499  10.045   7.598
 1848POPC   C1B27103  21.102   9.588   8.764
 1848POPC   C2B27104  21.028   9.488   8.337
 1848POPC   C3B27105  21.258   9.409   7.997
 1848POPC   C4B27106  21.694   9.260   7.950
 1849POPC   NC327107  30.843  35.028   9.428
 1849POPC   PO427108  30.449  35.546   9.447
 1849POPC   GL127109  30.714  35.433   9.130
 1849POPC   GL227110  30.490  35.154   9.085
 1849POPC   C1A27111  30.940  35.223   8.780
 1849POPC   D2A27112  31.116  35.396   8.407
 1849POPC   C3A27113  30.905  35.448   7.978
 1849POPC   C4A27114  30.690  35.794   7.746
 1849POPC   C1B27115  30.439  35.365   8.708
 1849POPC   C2B27116  30.524  35.356   8.309
 1849POPC   C3B27117  30.350  35.474   7.944
 1849POPC   C4B27118  30.528  35.166   7.693
 1850POPC   NC327119  36.331  31.818   9.411
 1850POPC   PO427120  35.780  31.480   9.329
 1850POPC   GL127121  36.096  31.575   9.034
 1850POPC   GL227122  36.406  31.388   9.116
 1850POPC   C1A27123  36.109  31.786   8.656
 1850POPC   D2A27124  35.871  31.673   8.293
 1850POPC   C3A27125  36.024  31.746   7.880
 1850POPC   C4A27126  35.948  31.452   7.537
 1850POPC   C1B27127  36.475  31.412   8.670
 1850POPC   C2B27128  36.368  31.532   8.232
 1850POPC   C3B27129  36.383  31.380   7.794
 1850POPC   C4B27130  36.394  31.229   7.339
 1851POPC   NC327131  42.506  28.621   9.804
 1851POPC   PO427132  42.260  29.194   9.553
 1851POPC   GL127133  42.203  29.158   9.123
 1851POPC   GL227134  42.555  29.054   9.100
 1851POPC   C1A27135  42.171  29.311   8.678
 1851POPC   D2A27136  42.206  29.030   8.322
 1851POPC   C3A27137  42.261  29.250   7.956
 1851POPC   C4A27138  42.114  29.631   8.114
 1851POPC   C1B27139  42.551  28.887   8.689
 1851POPC   C2B27140  42.719  28.980   8.272
 1851POPC   C3B27141  42.675  28.963   7.817
 1851POPC   C4B27142  42.589  28.874   7.392
 1852POPC   NC327143   6.393  43.371   9.527
 1852POPC   PO427144   6.892  42.840   9.507
 1852POPC   GL127145   6.924  42.974   9.091
 1852POPC   GL227146   6.600  42.843   8.982
 1852POPC   C1A27147   6.990  42.958   8.652
 1852POPC   D2A27148   6.662  42.899   8.351
 1852POPC   C3A27149   6.727  43.024   7.936
 1852POPC   C4A27150   6.519  42.919   7.556
 1852POPC   C1B27151   6.560  43.275   8.836
 1852POPC   C2B27152   6.293  43.447   8.526
 1852POPC   C3B27153   6.398  43.344   8.141
 1852POPC   C4B27154   6.479  43.398   7.740
 1853POPC   NC327155   7.479   9.434   9.407
 1853POPC   PO427156   7.766  10.052   9.617
 1853POPC   GL127157   7.449   9.969   9.284
 1853POPC   GL227158   7.518   9.728   9.004
 1853POPC   C1A27159   7.353  10.181   8.880
 1853POPC   D2A27160   7.361  10.120   8.427
 1853POPC   C3A27161   7.433  10.233   8.001
 1853POPC   C4A27162   7.412   9.946   7.636
 1853POPC   C1B27163   7.597   9.609   8.557
 1853POPC   C2B27164   7.498   9.712   8.117
 1853POPC   C3B27165   7.244   9.497   7.792
 1853POPC   C4B27166   7.379   9.182   7.461
 1854POPC   NC327167   4.835  39.387   9.589
 1854POPC   PO427168   4.880  38.722   9.591
 1854POPC   GL127169   4.920  39.094   9.188
 1854POPC   GL227170   4.754  39.494   9.113
 1854POPC   C1A27171   5.105  39.265   8.792
 1854POPC   D2A27172   5.377  39.044   8.492
 1854POPC   C3A27173   5.161  38.933   8.119
 1854POPC   C4A27174   5.222  39.098   7.714
 1854POPC   C1B27175   4.615  39.441   8.718
 1854POPC   C2B27176   4.789  39.234   8.347
 1854POPC   C3B27177   4.818  39.382   7.908
 1854POPC   C4B27178   4.950  39.445   7.454
 1855POPC   NC327179  26.580   5.635   9.377
 1855POPC   PO427180  27.026   6.118   9.510
 1855POPC   GL127181  26.842   6.096   9.120
 1855POPC   GL227182  26.972   5.809   9.062
 1855POPC   C1A27183  27.037   6.133   8.670
 1855POPC   D2A27184  27.194   5.775   8.385
 1855POPC   C3A27185  27.115   5.821   7.936
 1855POPC   C4A27186  26.693   5.937   7.857
 1855POPC   C1B27187  26.609   5.856   8.742
 1855POPC   C2B27188  26.608   5.711   8.321
 1855POPC   C3B27189  26.839   5.427   8.075
 1855POPC   C4B27190  26.839   5.234   7.688
 1856POPC   NC327191  30.903  28.076   9.619
 1856POPC   PO427192  30.308  27.831   9.385
 1856POPC   GL127193  30.683  27.594   9.198
 1856POPC   GL227194  30.966  27.824   9.163
 1856POPC   C1A27195  30.848  27.346   8.824
 1856POPC   D2A27196  30.637  27.246   8.413
 1856POPC   C3A27197  30.563  27.577   8.142
 1856POPC   C4A27198  30.634  27.518   7.725
 1856POPC   C1B27199  30.964  28.139   8.814
 1856POPC   C2B27200  30.913  28.009   8.377
 1856POPC   C3B27201  30.966  27.836   7.958
 1856POPC   C4B27202  30.839  27.952   7.556
 1857POPC   NC327203  17.784  33.843   9.425
 1857POPC   PO427204  17.218  33.470   9.497
 1857POPC   GL127205  17.199  33.703   9.096
 1857POPC   GL227206  17.331  34.049   9.192
 1857POPC   C1A27207  17.220  33.629   8.605
 1857POPC   D2A27208  17.674  33.604   8.388
 1857POPC   C3A27209  17.620  33.535   7.950
 1857POPC   C4A27210  17.439  33.601   7.529
 1857POPC   C1B27211  17.547  33.951   8.786
 1857POPC   C2B27212  17.439  34.035   8.311
 1857POPC   C3B27213  17.499  34.053   7.836
 1857POPC   C4B27214  17.804  34.297   7.555
 1858POPC   NC327215   9.032  40.603   9.668
 1858POPC   PO427216   8.849  39.947   9.518
 1858POPC   GL127217   8.921  40.021   9.108
 1858POPC   GL227218   8.679  40.259   9.100
 1858POPC   C1A27219   8.936  39.806   8.729
 1858POPC   D2A27220   8.903  39.612   8.342
 1858POPC   C3A27221   9.224  39.744   8.050
 1858POPC   C4A27222   9.117  39.620   7.652
 1858POPC   C1B27223   8.806  40.299   8.668
 1858POPC   C2B27224   9.020  40.145   8.318
 1858POPC   C3B27225   8.823  40.083   7.923
 1858POPC   C4B27226   8.609  39.851   7.605
 1859POPC   NC327227  40.190  22.959   9.505
 1859POPC   PO427228  39.692  23.205   9.185
 1859POPC   GL127229  39.958  22.884   9.047
 1859POPC   GL227230  39.691  22.755   8.842
 1859POPC   C1A27231  40.230  22.832   8.714
 1859POPC   D2A27232  40.097  22.774   8.302
 1859POPC   C3A27233  40.267  23.054   8.054
 1859POPC   C4A27234  40.360  22.809   7.709
 1859POPC   C1B27235  39.839  23.119   8.569
 1859POPC   C2B27236  39.677  23.253   8.177
 1859POPC   C3B27237  39.821  23.046   7.798
 1859POPC   C4B27238  39.803  23.155   7.367
 1860POPC   NC327239   2.239  28.585   9.598
 1860POPC   PO427240   1.985  27.971   9.396
 1860POPC   GL127241   1.974  28.385   9.164
 1860POPC   GL227242   2.251  28.608   9.097
 1860POPC   C1A27243   1.871  28.476   8.724
 1860POPC   D2A27244   1.734  28.116   8.429
 1860POPC   C3A27245   1.807  28.247   8.033
 1860POPC   C4A27246   1.870  28.711   7.988
 1860POPC   C1B27247   2.386  28.380   8.752
 1860POPC   C2B27248   2.197  28.299   8.350
 1860POPC   C3B27249   2.283  28.384   7.905
 1860POPC   C4B27250   2.415  28.518   7.488
 1861POPC   NC327251  40.935  33.341   9.311
 1861POPC   PO427252  40.654  32.737   9.476
 1861POPC   GL127253  40.950  32.748   9.121
 1861POPC   GL227254  40.808  33.028   8.930
 1861POPC   C1A27255  41.088  32.682   8.698
 1861POPC   D2A27256  40.798  32.907   8.413
 1861POPC   C3A27257  40.903  32.980   7.992
 1861POPC   C4A27258  40.921  33.404   7.799
 1861POPC   C1B27259  40.560  33.381   8.733
 1861POPC   C2B27260  40.317  33.461   8.364
 1861POPC   C3B27261  40.456  33.273   7.981
 1861POPC   C4B27262  40.301  33.350   7.587
 1862POPC   NC327263  30.379  31.615   9.435
 1862POPC   PO427264  30.933  31.387   9.650
 1862POPC   GL127265  30.862  31.441   9.211
 1862POPC   GL227266  30.609  31.168   9.216
 1862POPC   C1A27267  30.648  31.571   8.809
 1862POPC   D2A27268  30.521  31.754   8.402
 1862POPC   C3A27269  30.695  31.591   8.029
 1862POPC   C4A27270  30.634  31.698   7.577
 1862POPC   C1B27271  30.537  31.069   8.791
 1862POPC   C2B27272  30.362  31.253   8.424
 1862POPC   C3B27273  30.365  31.190   8.018
 1862POPC   C4B27274  30.657  31.213   7.661
 1863POPC   NC327275  34.741  16.535   9.254
 1863POPC   PO427276  34.329  16.975   9.521
 1863POPC   GL127277  34.314  16.818   9.088
 1863POPC   GL227278  34.325  16.473   8.942
 1863POPC   C1A27279  34.410  16.909   8.652
 1863POPC   D2A27280  34.658  16.878   8.268
 1863POPC   C3A27281  34.448  16.969   7.872
 1863POPC   C4A27282  34.244  17.118   7.460
 1863POPC   C1B27283  34.662  16.439   8.624
 1863POPC   C2B27284  34.674  16.378   8.211
 1863POPC   C3B27285  34.741  16.539   7.844
 1863POPC   C4B27286  34.737  16.370   7.478
 1864POPC   NC327287  10.577  36.842   9.630
 1864POPC   PO427288  10.055  37.246   9.488
 1864POPC   GL127289  10.409  37.045   9.207
 1864POPC   GL227290  10.318  36.731   9.201
 1864POPC   C1A27291  10.532  36.806   8.759
 1864POPC   D2A27292  10.513  36.638   8.320
 1864POPC   C3A27293  10.717  36.850   7.889
 1864POPC   C4A27294  10.850  36.848   7.387
 1864POPC   C1B27295  10.094  37.047   8.837
 1864POPC   C2B27296  10.082  36.946   8.421
 1864POPC   C3B27297  10.199  36.890   8.002
 1864POPC   C4B27298  10.119  37.135   7.688
 1865POPC   NC327299  33.525  31.923   9.549
 1865POPC   PO427300  33.737  32.510   9.686
 1865POPC   GL127301  33.711  32.440   9.217
 1865POPC   GL227302  33.756  32.125   9.144
 1865POPC   C1A27303  33.722  32.417   8.722
 1865POPC   D2A27304  33.998  32.364   8.321
 1865POPC   C3A27305  34.013  32.039   7.974
 1865POPC   C4A27306  33.944  32.345   7.684
 1865POPC   C1B27307  33.842  31.906   8.776
 1865POPC   C2B27308  33.702  31.951   8.367
 1865POPC   C3B27309  33.534  32.194   8.013
 1865POPC   C4B27310  33.550  32.041   7.581
 1866POPC   NC327311  10.895   2.004   9.824
 1866POPC   PO427312  10.281   1.960   9.592
 1866POPC   GL127313  10.376   2.045   9.172
 1866POPC   GL227314  10.485   1.688   9.019
 1866POPC   C1A27315  10.521   2.150   8.754
 1866POPC   D2A27316  10.470   1.918   8.383
 1866POPC   C3A27317  10.276   2.100   8.029
 1866POPC   C4A27318  10.578   2.286   7.750
 1866POPC   C1B27319  10.296   1.421   8.724
 1866POPC   C2B27320  10.442   1.405   8.320
 1866POPC   C3B27321  10.267   1.550   7.929
 1866POPC   C4B27322  10.434   1.792   7.617
 1867POPC   NC327323  16.205  34.284   9.484
 1867POPC   PO427324  15.572  34.451   9.456
 1867POPC   GL127325  15.815  34.271   9.146
 1867POPC   GL227326  15.575  34.103   8.973
 1867POPC   C1A27327  15.958  34.279   8.697
 1867POPC   D2A27328  15.689  34.233   8.315
 1867POPC   C3A27329  15.848  34.497   7.964
 1867POPC   C4A27330  16.070  34.715   7.607
 1867POPC   C1B27331  15.536  34.544   8.806
 1867POPC   C2B27332  15.507  34.723   8.396
 1867POPC   C3B27333  15.464  34.839   7.952
 1867POPC   C4B27334  15.567  34.709   7.529
 1868POPC   NC327335  36.497  16.499   9.456
 1868POPC   PO427336  35.845  16.810   9.504
 1868POPC   GL127337  36.044  16.672   9.174
 1868POPC   GL227338  36.375  16.837   9.090
 1868POPC   C1A27339  35.853  16.576   8.797
 1868POPC   D2A27340  35.993  16.681   8.376
 1868POPC   C3A27341  35.773  16.644   8.020
 1868POPC   C4A27342  35.981  16.817   7.713
 1868POPC   C1B27343  36.349  16.640   8.716
 1868POPC   C2B27344  36.471  16.456   8.318
 1868POPC   C3B27345  36.441  16.502   7.860
 1868POPC   C4B27346  36.215  16.463   7.442
 1869POPC   NC327347  20.365  18.630  10.032
 1869POPC   PO427348  20.664  18.401   9.467
 1869POPC   GL127349  20.514  18.241   9.122
 1869POPC   GL227350  20.720  17.968   9.061
 1869POPC   C1A27351  20.602  18.315   8.698
 1869POPC   D2A27352  20.757  18.210   8.305
 1869POPC   C3A27353  20.465  18.109   8.008
 1869POPC   C4A27354  20.320  17.984   7.635
 1869POPC   C1B27355  20.846  17.821   8.623
 1869POPC   C2B27356  20.764  17.716   8.153
 1869POPC   C3B27357  20.772  17.733   7.666
 1869POPC   C4B27358  20.574  17.859   7.217
 1870POPC   NC327359  21.323  17.364   9.497
 1870POPC   PO427360  20.817  17.717   9.512
 1870POPC   GL127361  21.176  17.753   9.160
 1870POPC   GL227362  21.471  17.997   9.161
 1870POPC   C1A27363  21.336  17.743   8.722
 1870POPC   D2A27364  21.441  17.496   8.343
 1870POPC   C3A27365  21.200  17.499   7.940
 1870POPC   C4A27366  21.260  17.362   7.479
 1870POPC   C1B27367  21.810  17.860   8.828
 1870POPC   C2B27368  21.884  17.761   8.381
 1870POPC   C3B27369  21.669  17.766   7.962
 1870POPC   C4B27370  21.386  17.834   7.616
 1871POPC   NC327371   0.174  31.836   9.773
 1871POPC   PO427372   0.537  31.279   9.535
 1871POPC   GL127373   0.672  31.350   9.142
 1871POPC   GL227374   0.305  31.293   9.056
 1871POPC   C1A27375   0.630  31.505   8.708
 1871POPC   D2A27376   0.431  31.254   8.385
 1871POPC   C3A27377   0.406  31.411   7.984
 1871POPC   C4A27378   0.415  31.153   7.649
 1871POPC   C1B27379   0.082  31.456   8.707
 1871POPC   C2B27380   0.201  31.730   8.371
 1871POPC   C3B27381   0.054  31.891   7.993
 1871POPC   C4B27382   0.121  31.698   7.601
 1872POPC   NC327383   7.778  29.878   9.418
 1872POPC   PO427384   7.135  29.668   9.465
 1872POPC   GL127385   7.121  29.964   9.112
 1872POPC   GL227386   7.498  30.086   9.041
 1872POPC   C1A27387   7.134  30.180   8.706
 1872POPC   D2A27388   7.438  30.133   8.406
 1872POPC   C3A27389   7.313  29.958   8.021
 1872POPC   C4A27390   7.160  30.078   7.642
 1872POPC   C1B27391   7.883  30.268   8.822
 1872POPC   C2B27392   7.873  30.396   8.386
 1872POPC   C3B27393   7.768  30.190   7.991
 1872POPC   C4B27394   7.657  29.975   7.629
 1873POPC   NC327395   3.895  14.838   9.549
 1873POPC   PO427396   3.315  14.431   9.540
 1873POPC   GL127397   3.545  14.596   9.206
 1873POPC   GL227398   3.855  14.427   9.185
 1873POPC   C1A27399   3.614  14.590   8.760
 1873POPC   D2A27400   3.757  14.386   8.377
 1873POPC   C3A27401   3.644  14.603   8.011
 1873POPC   C4A27402   3.268  14.461   7.800
 1873POPC   C1B27403   3.850  14.101   8.842
 1873POPC   C2B27404   3.989  13.916   8.429
 1873POPC   C3B27405   3.850  13.981   8.012
 1873POPC   C4B27406   3.756  14.250   7.676
 1874POPC   NC327407   1.286   3.901   9.606
 1874POPC   PO427408   0.890   3.401   9.891
 1874POPC   GL127409   1.059   3.489   9.388
 1874POPC   GL227410   1.402   3.565   9.227
 1874POPC   C1A27411   1.021   3.724   8.937
 1874POPC   D2A27412   0.899   3.934   8.525
 1874POPC   C3A27413   0.912   3.756   8.069
 1874POPC   C4A27414   1.259   3.616   7.751
 1874POPC   C1B27415   1.627   3.457   8.843
 1874POPC   C2B27416   1.553   3.275   8.462
 1874POPC   C3B27417   1.605   3.398   8.048
 1874POPC   C4B27418   1.630   3.246   7.647
 1875POPC   NC327419   0.434   3.380   9.671
 1875POPC   PO427420   0.448   3.967   9.450
 1875POPC   GL127421   0.574   3.613   9.192
 1875POPC   GL227422   0.647   3.240   9.244
 1875POPC   C1A27423   0.584   3.550   8.753
 1875POPC   D2A27424   0.438   3.649   8.368
 1875POPC   C3A27425   0.548   3.347   8.077
 1875POPC   C4A27426   0.368   3.481   7.708
 1875POPC   C1B27427   0.262   3.241   8.981
 1875POPC   C2B27428   0.279   3.173   8.517
 1875POPC   C3B27429   0.048   3.170   8.154
 1875POPC   C4B27430  44.990   3.165   7.715
 1876POPC   NC327431  41.823  29.306   9.486
 1876POPC   PO427432  41.253  29.194   9.454
 1876POPC   GL127433  41.508  29.170   9.098
 1876POPC   GL227434  41.736  28.865   9.179
 1876POPC   C1A27435  41.411  29.411   8.716
 1876POPC   D2A27436  41.212  29.409   8.290
 1876POPC   C3A27437  41.489  29.451   7.942
 1876POPC   C4A27438  41.433  29.540   7.493
 1876POPC   C1B27439  41.843  28.952   8.767
 1876POPC   C2B27440  41.661  29.076   8.384
 1876POPC   C3B27441  41.406  28.936   8.065
 1876POPC   C4B27442  41.502  29.032   7.662
 1877POPC   NC327443  23.447  32.853   9.577
 1877POPC   PO427444  23.986  33.323   9.467
 1877POPC   GL127445  23.733  33.056   9.190
 1877POPC   GL227446  23.375  33.063   9.133
 1877POPC   C1A27447  23.706  32.900   8.764
 1877POPC   D2A27448  23.970  32.892   8.390
 1877POPC   C3A27449  23.889  33.231   8.086
 1877POPC   C4A27450  23.729  33.062   7.720
 1877POPC   C1B27451  23.214  32.753   8.867
 1877POPC   C2B27452  23.253  32.782   8.453
 1877POPC   C3B27453  23.543  32.771   8.099
 1877POPC   C4B27454  23.406  32.646   7.673
 1878POPC   NC327455  19.956  42.258   9.786
 1878POPC   PO427456  19.532  42.585   9.507
 1878POPC   GL127457  19.700  42.299   9.156
 1878POPC   GL227458  20.039  42.150   9.160
 1878POPC   C1A27459  19.694  42.270   8.705
 1878POPC   D2A27460  19.671  42.059   8.284
 1878POPC   C3A27461  19.635  42.323   7.872
 1878POPC   C4A27462  19.571  42.757   7.648
 1878POPC   C1B27463  20.027  41.895   8.778
 1878POPC   C2B27464  20.171  41.785   8.376
 1878POPC   C3B27465  20.086  42.012   7.986
 1878POPC   C4B27466  20.041  42.186   7.572
 1879POPC   NC327467  31.872  31.213   9.437
 1879POPC   PO427468  32.436  31.711   9.494
 1879POPC   GL127469  32.243  31.462   9.067
 1879POPC   GL227470  31.890  31.294   8.956
 1879POPC   C1A27471  32.185  31.381   8.581
 1879POPC   D2A27472  32.241  31.638   8.205
 1879POPC   C3A27473  32.358  31.486   7.781
 1879POPC   C4A27474  32.144  31.544   7.399
 1879POPC   C1B27475  31.661  31.543   8.659
 1879POPC   C2B27476  31.720  31.470   8.243
 1879POPC   C3B27477  31.854  31.510   7.845
 1879POPC   C4B27478  32.010  31.105   7.808
 1880POPC   NC327479   9.953   4.101   9.484
 1880POPC   PO427480  10.530   4.357   9.627
 1880POPC   GL127481  10.618   4.239   9.151
 1880POPC   GL227482  10.902   4.028   9.031
 1880POPC   C1A27483  10.420   4.291   8.741
 1880POPC   D2A27484  10.135   4.487   8.433
 1880POPC   C3A27485  10.257   4.530   8.014
 1880POPC   C4A27486  10.468   4.344   7.662
 1880POPC   C1B27487  10.862   4.050   8.598
 1880POPC   C2B27488  10.688   4.018   8.202
 1880POPC   C3B27489  10.878   4.111   7.823
 1880POPC   C4B27490  10.938   4.043   7.381
 1881POPC   NC327491  28.665  25.169   9.439
 1881POPC   PO427492  28.133  25.467   9.521
 1881POPC   GL127493  28.272  25.286   9.118
 1881POPC   GL227494  28.614  25.387   8.994
 1881POPC   C1A27495  28.223  25.064   8.725
 1881POPC   D2A27496  28.519  25.002   8.372
 1881POPC   C3A27497  28.472  25.062   7.945
 1881POPC   C4A27498  28.690  25.189   7.601
 1881POPC   C1B27499  28.510  25.457   8.608
 1881POPC   C2B27500  28.328  25.470   8.244
 1881POPC   C3B27501  28.455  25.567   7.842
 1881POPC   C4B27502  28.201  25.680   7.534
 1882POPC   NC327503   0.351   5.577  10.050
 1882POPC   PO427504   0.853   5.642   9.589
 1882POPC   GL127505   0.720   5.606   9.133
 1882POPC   GL227506   0.583   5.921   9.003
 1882POPC   C1A27507   0.788   5.578   8.685
 1882POPC   D2A27508   0.855   5.820   8.310
 1882POPC   C3A27509   0.480   5.984   8.095
 1882POPC   C4A27510   0.375   6.080   7.666
 1882POPC   C1B27511   0.373   5.876   8.593
 1882POPC   C2B27512   0.059   5.772   8.276
 1882POPC   C3B27513  44.951   5.883   7.854
 1882POPC   C4B27514  44.907   6.116   7.441
 1883POPC   NC327515  41.588  40.485   9.447
 1883POPC   PO427516  41.149  40.968   9.306
 1883POPC   GL127517  41.365  40.904   8.987
 1883POPC   GL227518  41.662  40.781   9.043
 1883POPC   C1A27519  41.436  40.730   8.605
 1883POPC   D2A27520  41.287  40.512   8.297
 1883POPC   C3A27521  41.441  40.683   7.912
 1883POPC   C4A27522  41.837  40.933   7.816
 1883POPC   C1B27523  41.894  40.564   8.792
 1883POPC   C2B27524  41.808  40.381   8.444
 1883POPC   C3B27525  41.881  40.458   8.058
 1883POPC   C4B27526  41.725  40.342   7.682
 1884POPC   NC327527  12.501  42.007   9.625
 1884POPC   PO427528  12.989  42.503   9.473
 1884POPC   GL127529  12.877  42.294   9.125
 1884POPC   GL227530  12.567  42.330   9.228
 1884POPC   C1A27531  12.816  42.101   8.744
 1884POPC   D2A27532  13.059  42.254   8.434
 1884POPC   C3A27533  12.971  42.585   8.134
 1884POPC   C4A27534  13.002  42.436   7.715
 1884POPC   C1B27535  12.514  42.528   8.834
 1884POPC   C2B27536  12.543  42.384   8.406
 1884POPC   C3B27537  12.719  42.147   8.064
 1884POPC   C4B27538  12.512  42.381   7.747
 1885POPC   NC327539   7.245   1.639   9.402
 1885POPC   PO427540   7.789   2.046   9.504
 1885POPC   GL127541   7.419   2.136   9.209
 1885POPC   GL227542   7.430   1.835   8.986
 1885POPC   C1A27543   7.200   2.261   8.858
 1885POPC   D2A27544   7.333   2.007   8.506
 1885POPC   C3A27545   7.248   2.022   8.092
 1885POPC   C4A27546   7.315   2.157   7.688
 1885POPC   C1B27547   7.726   1.745   8.662
 1885POPC   C2B27548   7.654   1.705   8.215
 1885POPC   C3B27549   7.634   1.766   7.757
 1885POPC   C4B27550   7.505   1.707   7.308
 1886POPC   NC327551  27.507  17.053   9.753
 1886POPC   PO427552  27.863  16.461   9.639
 1886POPC   GL127553  27.802  16.562   9.207
 1886POPC   GL227554  27.866  16.912   9.193
 1886POPC   C1A27555  27.559  16.542   8.810
 1886POPC   D2A27556  27.277  16.588   8.464
 1886POPC   C3A27557  27.435  16.485   8.073
 1886POPC   C4A27558  27.501  16.722   7.710
 1886POPC   C1B27559  27.964  17.122   8.813
 1886POPC   C2B27560  27.894  16.989   8.411
 1886POPC   C3B27561  27.880  17.130   8.011
 1886POPC   C4B27562  27.977  16.943   7.619
 1887POPC   NC327563  10.739  11.857   9.442
 1887POPC   PO427564  10.261  12.155   9.538
 1887POPC   GL127565  10.500  12.310   9.194
 1887POPC   GL227566  10.428  11.994   9.036
 1887POPC   C1A27567  10.429  12.430   8.759
 1887POPC   D2A27568  10.285  12.286   8.383
 1887POPC   C3A27569  10.460  12.399   7.982
 1887POPC   C4A27570  10.806  12.377   7.705
 1887POPC   C1B27571  10.648  11.974   8.624
 1887POPC   C2B27572  10.789  11.895   8.169
 1887POPC   C3B27573  10.630  11.616   7.820
 1887POPC   C4B27574  10.522  11.546   7.366
 1888POPC   NC327575   7.050  17.845   9.444
 1888POPC   PO427576   6.831  18.508   9.467
 1888POPC   GL127577   6.591  18.316   9.145
 1888POPC   GL227578   6.593  17.962   9.178
 1888POPC   C1A27579   6.548  18.441   8.722
 1888POPC   D2A27580   6.691  18.602   8.366
 1888POPC   C3A27581   6.665  18.346   8.032
 1888POPC   C4A27582   6.651  18.541   7.675
 1888POPC   C1B27583   6.841  18.011   8.808
 1888POPC   C2B27584   6.850  18.052   8.404
 1888POPC   C3B27585   7.030  17.980   8.013
 1888POPC   C4B27586   6.874  18.060   7.608
 1889POPC   NC327587   4.803   4.316   9.440
 1889POPC   PO427588   5.464   4.623   9.525
 1889POPC   GL127589   5.128   4.575   9.127
 1889POPC   GL227590   4.745   4.614   9.040
 1889POPC   C1A27591   5.139   4.339   8.738
 1889POPC   D2A27592   5.314   4.044   8.389
 1889POPC   C3A27593   5.201   4.148   7.996
 1889POPC   C4A27594   4.923   3.950   7.718
 1889POPC   C1B27595   4.746   4.627   8.612
 1889POPC   C2B27596   5.066   4.614   8.310
 1889POPC   C3B27597   5.037   4.763   7.918
 1889POPC   C4B27598   5.041   4.446   7.582
 1890POPC   NC327599  31.338  41.827   9.468
 1890POPC   PO427600  31.942  41.527   9.374
 1890POPC   GL127601  31.519  41.500   9.104
 1890POPC   GL227602  31.111  41.620   9.073
 1890POPC   C1A27603  31.637  41.285   8.738
 1890POPC   D2A27604  31.805  41.212   8.310
 1890POPC   C3A27605  31.658  41.441   7.942
 1890POPC   C4A27606  31.790  41.851   7.728
 1890POPC   C1B27607  31.118  41.405   8.713
 1890POPC   C2B27608  31.393  41.548   8.390
 1890POPC   C3B27609  31.408  41.864   8.120
 1890POPC   C4B27610  31.300  41.758   7.755
 1891POPC   NC327611  16.823  18.844   9.562
 1891POPC   PO427612  16.645  18.238   9.538
 1891POPC   GL127613  16.664  18.485   9.199
 1891POPC   GL227614  17.022  18.572   9.163
 1891POPC   C1A27615  16.544  18.312   8.822
 1891POPC   D2A27616  16.681  18.119   8.455
 1891POPC   C3A27617  16.534  18.236   8.033
 1891POPC   C4A27618  16.434  17.986   7.665
 1891POPC   C1B27619  16.900  18.639   8.724
 1891POPC   C2B27620  17.006  18.489   8.338
 1891POPC   C3B27621  17.027  18.421   7.923
 1891POPC   C4B27622  16.770  18.420   7.567
 1892POPC   NC327623  19.113  20.402   9.330
 1892POPC   PO427624  18.606  20.920   9.375
 1892POPC   GL127625  18.833  20.775   9.022
 1892POPC   GL227626  18.865  20.445   8.904
 1892POPC   C1A27627  19.065  20.805   8.626
 1892POPC   D2A27628  19.062  20.572   8.272
 1892POPC   C3A27629  19.028  20.816   7.924
 1892POPC   C4A27630  19.324  20.695   7.656
 1892POPC   C1B27631  18.708  20.282   8.537
 1892POPC   C2B27632  18.872  20.101   8.175
 1892POPC   C3B27633  19.122  20.243   7.875
 1892POPC   C4B27634  18.895  20.409   7.569
 1893POPC   NC327635  42.441  29.622   9.600
 1893POPC   PO427636  42.458  30.281   9.656
 1893POPC   GL127637  42.388  30.010   9.231
 1893POPC   GL227638  42.142  29.707   9.181
 1893POPC   C1A27639  42.470  29.978   8.745
 1893POPC   D2A27640  42.211  30.059   8.366
 1893POPC   C3A27641  42.483  30.093   8.032
 1893POPC   C4A27642  42.422  29.794   7.755
 1893POPC   C1B27643  42.516  29.541   8.971
 1893POPC   C2B27644  42.660  29.429   8.581
 1893POPC   C3B27645  42.642  29.632   8.214
 1893POPC   C4B27646  42.770  29.457   7.848
 1894POPC   NC327647  31.013  11.987   9.514
 1894POPC   PO427648  30.368  12.245   9.613
 1894POPC   GL127649  30.641  12.240   9.246
 1894POPC   GL227650  30.638  11.903   9.164
 1894POPC   C1A27651  30.795  12.264   8.816
 1894POPC   D2A27652  30.674  12.570   8.547
 1894POPC   C3A27653  30.628  12.533   8.117
 1894POPC   C4A27654  30.731  12.354   7.731
 1894POPC   C1B27655  30.430  11.857   8.747
 1894POPC   C2B27656  30.556  12.042   8.338
 1894POPC   C3B27657  30.447  11.947   7.899
 1894POPC   C4B27658  30.869  11.857   7.750
 1895POPC   NC327659  16.496  26.532   9.461
 1895POPC   PO427660  15.857  26.633   9.585
 1895POPC   GL127661  15.856  26.661   9.176
 1895POPC   GL227662  16.185  26.768   9.112
 1895POPC   C1A27663  15.610  26.759   8.851
 1895POPC   D2A27664  15.581  27.075   8.595
 1895POPC   C3A27665  15.535  27.008   8.117
 1895POPC   C4A27666  15.689  26.901   7.696
 1895POPC   C1B27667  16.068  26.996   8.761
 1895POPC   C2B27668  16.002  26.981   8.325
 1895POPC   C3B27669  16.147  26.921   7.909
 1895POPC   C4B27670  16.177  26.525   7.662
 1896POPC   NC327671  18.571  21.848   9.948
 1896POPC   PO427672  18.326  22.319   9.562
 1896POPC   GL127673  18.403  22.250   9.171
 1896POPC   GL227674  18.485  22.606   9.077
 1896POPC   C1A27675  18.394  22.016   8.779
 1896POPC   D2A27676  18.162  22.022   8.410
 1896POPC   C3A27677  18.441  22.128   8.079
 1896POPC   C4A27678  18.675  22.415   7.820
 1896POPC   C1B27679  18.136  22.480   8.796
 1896POPC   C2B27680  18.060  22.571   8.374
 1896POPC   C3B27681  18.205  22.570   7.953
 1896POPC   C4B27682  18.209  22.261   7.639
 1897POPC   NC327683   2.317  43.512   9.478
 1897POPC   PO427684   1.866  44.003   9.536
 1897POPC   GL127685   2.075  43.884   9.189
 1897POPC   GL227686   2.424  44.027   9.266
 1897POPC   C1A27687   1.964  43.726   8.766
 1897POPC   D2A27688   2.139  43.486   8.419
 1897POPC   C3A27689   2.212  43.679   8.042
 1897POPC   C4A27690   1.938  43.988   7.897
 1897POPC   C1B27691   2.402  44.000   8.806
 1897POPC   C2B27692   2.180  44.115   8.418
 1897POPC   C3B27693   2.400  44.179   8.038
 1897POPC   C4B27694   2.459  43.960   7.661
 1898POPC   NC327695  14.907  44.884   9.591
 1898POPC   PO427696  15.384  44.451   9.662
 1898POPC   GL127697  15.217  44.590   9.261
 1898POPC   GL227698  15.148  44.240   9.160
 1898POPC   C1A27699  15.161  44.810   8.841
 1898POPC   D2A27700  15.297  44.859   8.364
 1898POPC   C3A27701  15.052  44.817   7.962
 1898POPC   C4A27702  15.041  44.660   7.498
 1898POPC   C1B27703  15.361  44.235   8.780
 1898POPC   C2B27704  15.273  44.340   8.352
 1898POPC   C3B27705  15.013  44.305   8.002
 1898POPC   C4B27706  15.253  44.252   7.709
 1899POPC   NC327707  27.481   6.034   9.511
 1899POPC   PO427708  27.783   5.412   9.553
 1899POPC   GL127709  27.745   5.694   9.175
 1899POPC   GL227710  27.833   6.069   9.143
 1899POPC   C1A27711  27.555   5.756   8.774
 1899POPC   D2A27712  27.756   5.687   8.382
 1899POPC   C3A27713  27.557   5.564   8.009
 1899POPC   C4A27714  27.697   5.722   7.612
 1899POPC   C1B27715  27.560   6.268   8.836
 1899POPC   C2B27716  27.543   6.159   8.415
 1899POPC   C3B27717  27.698   6.055   8.020
 1899POPC   C4B27718  27.430   6.177   7.733
 1900POPC   NC327719  38.558  26.706   9.728
 1900POPC   PO427720  38.083  26.967   9.375
 1900POPC   GL127721  38.324  26.691   9.196
 1900POPC   GL227722  38.649  26.833   9.163
 1900POPC   C1A27723  38.362  26.625   8.766
 1900POPC   D2A27724  38.412  26.881   8.395
 1900POPC   C3A27725  38.203  26.733   8.028
 1900POPC   C4A27726  38.299  26.627   7.617
 1900POPC   C1B27727  38.788  26.999   8.743
 1900POPC   C2B27728  38.869  27.083   8.272
 1900POPC   C3B27729  38.673  26.888   7.876
 1900POPC   C4B27730  38.546  27.026   7.417
 1901POPC   NC327731  26.741   8.839   9.629
 1901POPC   PO427732  27.186   9.192   9.361
 1901POPC   GL127733  26.848   9.254   9.128
 1901POPC   GL227734  26.745   8.954   9.134
 1901POPC   C1A27735  26.895   9.217   8.685
 1901POPC   D2A27736  27.110   8.992   8.373
 1901POPC   C3A27737  27.030   9.175   7.980
 1901POPC   C4A27738  26.901   9.054   7.550
 1901POPC   C1B27739  26.499   8.802   8.844
 1901POPC   C2B27740  26.540   8.676   8.463
 1901POPC   C3B27741  26.752   8.754   8.109
 1901POPC   C4B27742  26.584   8.668   7.744
 1902POPC   NC327743  44.432  37.428   9.628
 1902POPC   PO427744   0.008  37.730   9.440
 1902POPC   GL127745  44.657  37.631   9.180
 1902POPC   GL227746  44.405  37.905   9.107
 1902POPC   C1A27747  44.722  37.516   8.758
 1902POPC   D2A27748  44.520  37.649   8.378
 1902POPC   C3A27749  44.722  37.597   8.008
 1902POPC   C4A27750  44.935  37.233   7.834
 1902POPC   C1B27751  44.627  38.008   8.717
 1902POPC   C2B27752  44.956  37.941   8.379
 1902POPC   C3B27753  44.863  38.086   7.941
 1902POPC   C4B27754  44.461  37.962   7.766
 1903POPC   NC327755  31.181   3.283   9.500
 1903POPC   PO427756  31.292   2.638   9.673
 1903POPC   GL127757  31.232   2.660   9.204
 1903POPC   GL227758  31.414   2.974   9.092
 1903POPC   C1A27759  31.269   2.645   8.742
 1903POPC   D2A27760  31.526   2.502   8.386
 1903POPC   C3A27761  31.380   2.534   7.983
 1903POPC   C4A27762  31.541   2.330   7.621
 1903POPC   C1B27763  31.586   3.072   8.695
 1903POPC   C2B27764  31.453   3.018   8.261
 1903POPC   C3B27765  31.450   3.139   7.835
 1903POPC   C4B27766  31.596   3.146   7.370
 1904POPC   NC327767   4.543  31.569   9.529
 1904POPC   PO427768   5.191  31.297   9.429
 1904POPC   GL127769   5.029  31.537   9.103
 1904POPC   GL227770   4.827  31.842   9.175
 1904POPC   C1A27771   5.101  31.628   8.690
 1904POPC   D2A27772   4.977  31.440   8.321
 1904POPC   C3A27773   5.200  31.287   8.025
 1904POPC   C4A27774   5.073  31.461   7.679
 1904POPC   C1B27775   4.603  31.856   8.771
 1904POPC   C2B27776   4.551  31.708   8.344
 1904POPC   C3B27777   4.663  31.685   7.926
 1904POPC   C4B27778   4.677  31.732   7.492
 1905POPC   NC327779  19.153   7.178   9.233
 1905POPC   PO427780  19.039   7.778   9.556
 1905POPC   GL127781  18.909   7.635   9.094
 1905POPC   GL227782  19.202   7.541   8.828
 1905POPC   C1A27783  18.744   7.377   8.730
 1905POPC   D2A27784  19.000   7.273   8.351
 1905POPC   C3A27785  18.776   7.354   7.990
 1905POPC   C4A27786  18.789   7.084   7.634
 1905POPC   C1B27787  19.450   7.177   8.614
 1905POPC   C2B27788  19.477   7.172   8.146
 1905POPC   C3B27789  19.291   7.514   7.933
 1905POPC   C4B27790  19.025   7.533   7.594
 1906POPC   NC327791   7.952  19.419   9.479
 1906POPC   PO427792   8.533  18.961   9.433
 1906POPC   GL127793   8.179  19.015   9.128
 1906POPC   GL227794   8.425  19.072   8.887
 1906POPC   C1A27795   8.049  18.756   8.743
 1906POPC   D2A27796   8.312  18.938   8.405
 1906POPC   C3A27797   8.230  18.829   7.977
 1906POPC   C4A27798   7.888  18.861   7.708
 1906POPC   C1B27799   8.022  19.261   8.701
 1906POPC   C2B27800   7.845  19.136   8.280
 1906POPC   C3B27801   8.000  19.317   7.904
 1906POPC   C4B27802   8.439  19.300   7.778
 1907POPC   NC327803  39.800  41.450   9.476
 1907POPC   PO427804  40.093  41.959   9.744
 1907POPC   GL127805  40.224  41.616   9.301
 1907POPC   GL227806  40.427  41.679   9.033
 1907POPC   C1A27807  40.081  41.326   8.905
 1907POPC   D2A27808  40.039  41.289   8.448
 1907POPC   C3A27809  39.776  41.571   8.171
 1907POPC   C4A27810  39.918  41.729   7.790
 1907POPC   C1B27811  40.403  41.643   8.584
 1907POPC   C2B27812  40.320  41.589   8.135
 1907POPC   C3B27813  40.399  41.578   7.686
 1907POPC   C4B27814  40.422  41.799   7.270
 1908POPC   NC327815   4.490  37.145   9.487
 1908POPC   PO427816   3.849  36.749   9.504
 1908POPC   GL127817   4.211  36.730   9.298
 1908POPC   GL227818   4.098  37.034   9.154
 1908POPC   C1A27819   4.432  36.728   8.910
 1908POPC   D2A27820   4.225  36.857   8.535
 1908POPC   C3A27821   4.491  36.803   8.222
 1908POPC   C4A27822   4.453  36.690   7.817
 1908POPC   C1B27823   4.339  37.243   8.863
 1908POPC   C2B27824   4.493  37.364   8.492
 1908POPC   C3B27825   4.373  37.291   8.096
 1908POPC   C4B27826   4.696  37.142   7.867
 1909POPC   NC327827   6.751  36.627   9.504
 1909POPC   PO427828   6.716  36.000   9.487
 1909POPC   GL127829   6.799  36.233   9.146
 1909POPC   GL227830   6.470  36.323   9.089
 1909POPC   C1A27831   6.843  36.040   8.756
 1909POPC   D2A27832   7.090  35.961   8.411
 1909POPC   C3A27833   6.891  35.865   8.040
 1909POPC   C4A27834   6.878  36.093   7.659
 1909POPC   C1B27835   6.577  36.470   8.703
 1909POPC   C2B27836   6.600  36.244   8.320
 1909POPC   C3B27837   6.703  36.431   7.970
 1909POPC   C4B27838   6.559  36.712   7.684
 1910POPC   NC327839  31.123  33.149   9.988
 1910POPC   PO427840  31.551  33.218   9.501
 1910POPC   GL127841  31.342  33.058   9.091
 1910POPC   GL227842  31.556  32.748   9.007
 1910POPC   C1A27843  31.277  32.924   8.645
 1910POPC   D2A27844  31.554  32.946   8.295
 1910POPC   C3A27845  31.323  33.051   7.929
 1910POPC   C4A27846  31.225  32.736   7.626
 1910POPC   C1B27847  31.766  33.100   8.791
 1910POPC   C2B27848  31.922  33.300   8.427
 1910POPC   C3B27849  31.780  33.323   8.029
 1910POPC   C4B27850  31.705  33.187   7.619
 1911POPC   NC327851  28.934  26.132   9.422
 1911POPC   PO427852  28.916  26.772   9.578
 1911POPC   GL127853  29.143  26.829   9.229
 1911POPC   GL227854  29.213  26.499   9.087
 1911POPC   C1A27855  29.437  26.925   8.892
 1911POPC   D2A27856  29.547  26.735   8.494
 1911POPC   C3A27857  29.368  26.883   8.110
 1911POPC   C4A27858  29.455  26.729   7.704
 1911POPC   C1B27859  28.962  26.821   8.769
 1911POPC   C2B27860  28.805  26.734   8.334
 1911POPC   C3B27861  28.946  26.646   7.897
 1911POPC   C4B27862  29.020  26.910   7.527
 1912POPC   NC327863  11.692  17.837   9.453
 1912POPC   PO427864  12.119  17.402   9.500
 1912POPC   GL127865  12.048  17.246   9.126
 1912POPC   GL227866  11.709  17.287   9.194
 1912POPC   C1A27867  12.219  17.375   8.699
 1912POPC   D2A27868  12.069  17.686   8.388
 1912POPC   C3A27869  12.088  17.510   7.983
 1912POPC   C4A27870  12.164  17.705   7.581
 1912POPC   C1B27871  11.739  17.507   8.806
 1912POPC   C2B27872  11.783  17.258   8.415
 1912POPC   C3B27873  11.627  17.209   7.994
 1912POPC   C4B27874  11.756  17.361   7.572
 1913POPC   NC327875  26.315  13.227   9.682
 1913POPC   PO427876  26.017  13.805   9.477
 1913POPC   GL127877  26.279  13.569   9.175
 1913POPC   GL227878  26.115  13.263   9.129
 1913POPC   C1A27879  26.349  13.391   8.699
 1913POPC   D2A27880  26.092  13.430   8.372
 1913POPC   C3A27881  26.300  13.593   8.049
 1913POPC   C4A27882  26.275  13.408   7.653
 1913POPC   C1B27883  25.951  13.645   8.834
 1913POPC   C2B27884  25.786  13.828   8.482
 1913POPC   C3B27885  25.790  13.722   8.071
 1913POPC   C4B27886  26.010  13.848   7.710
 1914POPC   NC327887  24.853  13.044   9.796
 1914POPC   PO427888  24.348  12.578   9.581
 1914POPC   GL127889  24.468  12.567   9.138
 1914POPC   GL227890  24.285  12.829   9.055
 1914POPC   C1A27891  24.608  12.657   8.731
 1914POPC   D2A27892  24.262  12.755   8.507
 1914POPC   C3A27893  24.401  12.883   8.130
 1914POPC   C4A27894  24.740  12.876   7.857
 1914POPC   C1B27895  24.145  13.172   8.802
 1914POPC   C2B27896  24.051  13.214   8.394
 1914POPC   C3B27897  24.274  13.384   8.091
 1914POPC   C4B27898  24.467  13.267   7.709
 1915POPC   NC327899  43.469  43.195   9.559
 1915POPC   PO427900  43.036  42.727   9.454
 1915POPC   GL127901  43.314  42.874   9.183
 1915POPC   GL227902  43.156  43.177   9.154
 1915POPC   C1A27903  43.453  42.898   8.792
 1915POPC   D2A27904  43.167  42.913   8.458
 1915POPC   C3A27905  43.285  42.991   8.049
 1915POPC   C4A27906  43.018  43.100   7.754
 1915POPC   C1B27907  43.241  43.347   8.723
 1915POPC   C2B27908  43.136  43.413   8.300
 1915POPC   C3B27909  43.209  43.544   7.898
 1915POPC   C4B27910  42.823  43.586   7.690
 1916POPC   NC327911  26.065   8.073   9.412
 1916POPC   PO427912  26.448   8.523   9.455
 1916POPC   GL127913  26.118   8.491   9.103
 1916POPC   GL227914  25.793   8.273   9.016
 1916POPC   C1A27915  26.055   8.511   8.652
 1916POPC   D2A27916  25.897   8.279   8.277
 1916POPC   C3A27917  26.192   8.296   7.923
 1916POPC   C4A27918  26.134   8.556   7.566
 1916POPC   C1B27919  26.010   7.976   8.739
 1916POPC   C2B27920  25.883   7.724   8.379
 1916POPC   C3B27921  25.694   7.872   8.011
 1916POPC   C4B27922  25.771   8.135   7.667
 1917POPC   NC327923  43.298  33.897   9.894
 1917POPC   PO427924  42.817  34.234   9.706
 1917POPC   GL127925  43.038  33.971   9.359
 1917POPC   GL227926  42.933  34.028   9.012
 1917POPC   C1A27927  43.386  33.826   9.024
 1917POPC   D2A27928  43.401  33.984   8.582
 1917POPC   C3A27929  43.273  33.775   8.175
 1917POPC   C4A27930  43.150  33.721   7.730
 1917POPC   C1B27931  42.963  33.675   8.712
 1917POPC   C2B27932  42.788  33.598   8.296
 1917POPC   C3B27933  42.735  33.884   7.965
 1917POPC   C4B27934  42.698  33.875   7.493
 1918POPC   NC327935  16.273  43.511   9.456
 1918POPC   PO427936  15.905  44.107   9.541
 1918POPC   GL127937  16.114  43.908   9.208
 1918POPC   GL227938  16.370  44.067   9.056
 1918POPC   C1A27939  16.173  43.689   8.797
 1918POPC   D2A27940  16.231  43.930   8.428
 1918POPC   C3A27941  16.013  43.738   8.100
 1918POPC   C4A27942  16.082  43.806   7.674
 1918POPC   C1B27943  15.986  44.188   8.822
 1918POPC   C2B27944  15.774  44.191   8.470
 1918POPC   C3B27945  15.849  44.238   8.073
 1918POPC   C4B27946  15.757  44.207   7.674
 1919POPC   NC327947  28.946   0.175   9.496
 1919POPC   PO427948  29.385   0.712   9.417
 1919POPC   GL127949  29.277   0.409   9.148
 1919POPC   GL227950  28.952   0.542   9.116
 1919POPC   C1A27951  29.270   0.500   8.722
 1919POPC   D2A27952  29.375   0.343   8.334
 1919POPC   C3A27953  29.355   0.626   8.001
 1919POPC   C4A27954  29.206   0.451   7.668
 1919POPC   C1B27955  28.777   0.253   8.850
 1919POPC   C2B27956  28.813   0.445   8.450
 1919POPC   C3B27957  28.931   0.305   8.072
 1919POPC   C4B27958  28.743   0.151   7.728
 1920POPC   NC327959  15.066   5.246   9.498
 1920POPC   PO427960  14.973   4.651   9.386
 1920POPC   GL127961  15.240   4.890   9.085
 1920POPC   GL227962  15.246   5.221   9.024
 1920POPC   C1A27963  15.382   4.846   8.685
 1920POPC   D2A27964  15.262   4.831   8.288
 1920POPC   C3A27965  15.303   5.146   7.965
 1920POPC   C4A27966  15.319   5.026   7.555
 1920POPC   C1B27967  15.512   5.399   8.745
 1920POPC   C2B27968  15.666   5.263   8.363
 1920POPC   C3B27969  15.673   5.529   8.020
 1920POPC   C4B27970  15.679   5.349   7.624
 1921POPC   NC327971  43.806  41.928   9.470
 1921POPC   PO427972  43.673  42.668   9.492
 1921POPC   GL127973  43.744  42.558   9.087
 1921POPC   GL227974  43.738  42.220   9.063
 1921POPC   C1A27975  43.722  42.485   8.637
 1921POPC   D2A27976  44.047  42.508   8.350
 1921POPC   C3A27977  43.884  42.438   7.962
 1921POPC   C4A27978  43.691  42.793   7.819
 1921POPC   C1B27979  44.095  42.142   8.751
 1921POPC   C2B27980  44.035  42.009   8.319
 1921POPC   C3B27981  44.127  41.983   7.910
 1921POPC   C4B27982  44.024  42.079   7.501
 1922POPC   NC327983  15.200  25.515   9.432
 1922POPC   PO427984  15.494  24.949   9.392
 1922POPC   GL127985  15.275  25.131   9.052
 1922POPC   GL227986  15.380  25.467   8.963
 1922POPC   C1A27987  15.194  25.164   8.600
 1922POPC   D2A27988  15.233  25.480   8.283
 1922POPC   C3A27989  15.181  25.191   7.960
 1922POPC   C4A27990  15.497  25.128   7.675
 1922POPC   C1B27991  14.914  25.488   8.846
 1922POPC   C2B27992  14.770  25.503   8.436
 1922POPC   C3B27993  14.773  25.541   7.982
 1922POPC   C4B27994  14.854  25.529   7.537
 1923POPC   NC327995   3.909  43.009   9.848
 1923POPC   PO427996   3.495  43.338   9.423
 1923POPC   GL127997   3.400  43.096   9.052
 1923POPC   GL227998   3.690  43.082   8.845
 1923POPC   C1A27999   3.310  42.756   8.724
 1923POPC   D2A28000   3.567  42.800   8.390
 1923POPC   C3A28001   3.442  42.997   8.003
 1923POPC   C4A28002   3.626  43.084   7.602
 1923POPC   C1B28003   3.874  43.446   8.620
 1923POPC   C2B28004   4.059  43.449   8.185
 1923POPC   C3B28005   3.988  43.436   7.732
 1923POPC   C4B28006   3.988  43.278   7.304
 1924POPC   NC328007  19.544  33.475   9.364
 1924POPC   PO428008  19.848  32.819   9.565
 1924POPC   GL128009  20.040  32.914   9.194
 1924POPC   GL228010  19.964  33.240   9.167
 1924POPC   C1A28011  20.075  32.936   8.770
 1924POPC   D2A28012  19.981  33.009   8.389
 1924POPC   C3A28013  19.906  32.829   8.051
 1924POPC   C4A28014  19.941  33.037   7.722
 1924POPC   C1B28015  19.858  33.409   8.774
 1924POPC   C2B28016  19.671  33.384   8.380
 1924POPC   C3B28017  19.569  33.224   8.003
 1924POPC   C4B28018  19.636  33.393   7.572
 1925POPC   NC328019   7.019   7.226   9.379
 1925POPC   PO428020   6.340   7.239   9.642
 1925POPC   GL128021   6.508   7.316   9.166
 1925POPC   GL228022   6.298   7.595   8.977
 1925POPC   C1A28023   6.493   7.252   8.683
 1925POPC   D2A28024   6.489   7.419   8.219
 1925POPC   C3A28025   6.813   7.252   7.914
 1925POPC   C4A28026   7.105   7.081   7.600
 1925POPC   C1B28027   6.395   7.874   8.594
 1925POPC   C2B28028   6.618   7.965   8.214
 1925POPC   C3B28029   6.710   7.765   7.812
 1925POPC   C4B28030   6.621   7.710   7.325
 1926POPC   NC328031  29.517  14.801   9.507
 1926POPC   PO428032  29.976  14.250   9.547
 1926POPC   GL128033  30.012  14.322   9.140
 1926POPC   GL228034  29.727  14.528   9.137
 1926POPC   C1A28035  29.869  14.229   8.720
 1926POPC   D2A28036  29.993  14.132   8.291
 1926POPC   C3A28037  30.119  14.439   8.019
 1926POPC   C4A28038  29.934  14.319   7.629
 1926POPC   C1B28039  29.970  14.734   8.814
 1926POPC   C2B28040  29.832  14.653   8.395
 1926POPC   C3B28041  29.630  14.601   7.992
 1926POPC   C4B28042  29.851  14.802   7.664
 1927POPC   NC328043  15.310   3.678   9.555
 1927POPC   PO428044  15.006   3.101   9.553
 1927POPC   GL128045  15.182   3.336   9.175
 1927POPC   GL228046  14.942   3.622   9.126
 1927POPC   C1A28047  15.325   3.532   8.770
 1927POPC   D2A28048  15.431   3.686   8.348
 1927POPC   C3A28049  15.210   3.466   8.000
 1927POPC   C4A28050  15.183   3.369   7.539
 1927POPC   C1B28051  14.850   3.644   8.657
 1927POPC   C2B28052  14.958   3.844   8.248
 1927POPC   C3B28053  14.799   3.748   7.828
 1927POPC   C4B28054  14.889   3.789   7.360
 1928POPC   NC328055  17.713   3.864   9.624
 1928POPC   PO428056  17.462   3.301   9.626
 1928POPC   GL128057  17.601   3.399   9.222
 1928POPC   GL228058  17.325   3.331   8.995
 1928POPC   C1A28059  17.759   3.580   8.843
 1928POPC   D2A28060  17.580   3.725   8.460
 1928POPC   C3A28061  17.839   3.752   8.101
 1928POPC   C4A28062  17.692   3.524   7.748
 1928POPC   C1B28063  17.069   3.221   8.625
 1928POPC   C2B28064  17.033   3.300   8.189
 1928POPC   C3B28065  17.332   3.134   7.876
 1928POPC   C4B28066  17.378   3.181   7.419
 1929POPC   NC328067  10.707  21.827   9.410
 1929POPC   PO428068  10.820  21.240   9.798
 1929POPC   GL128069  10.627  21.327   9.327
 1929POPC   GL228070  10.328  21.129   9.241
 1929POPC   C1A28071  10.769  21.413   8.860
 1929POPC   D2A28072  10.598  21.468   8.441
 1929POPC   C3A28073  10.797  21.479   8.029
 1929POPC   C4A28074  10.838  21.160   7.714
 1929POPC   C1B28075  10.273  21.312   8.844
 1929POPC   C2B28076  10.178  21.177   8.430
 1929POPC   C3B28077  10.260  21.378   8.025
 1929POPC   C4B28078  10.042  21.676   7.788
 1930POPC   NC328079  43.811  21.494   9.746
 1930POPC   PO428080  44.326  21.148   9.524
 1930POPC   GL128081  44.054  21.321   9.195
 1930POPC   GL228082  43.743  21.159   9.141
 1930POPC   C1A28083  44.023  21.453   8.748
 1930POPC   D2A28084  44.301  21.739   8.511
 1930POPC   C3A28085  44.124  21.734   8.074
 1930POPC   C4A28086  43.892  21.441   7.812
 1930POPC   C1B28087  43.811  20.947   8.780
 1930POPC   C2B28088  43.701  21.055   8.360
 1930POPC   C3B28089  43.518  21.126   7.951
 1930POPC   C4B28090  43.664  21.118   7.498
 1931POPC   NC328091  42.985  40.566   9.332
 1931POPC   PO428092  42.822  41.188   9.505
 1931POPC   GL128093  43.066  41.070   9.119
 1931POPC   GL228094  43.297  40.745   8.980
 1931POPC   C1A28095  43.275  41.177   8.732
 1931POPC   D2A28096  43.314  40.847   8.421
 1931POPC   C3A28097  43.145  40.884   8.017
 1931POPC   C4A28098  42.859  40.798   7.719
 1931POPC   C1B28099  43.168  40.422   8.662
 1931POPC   C2B28100  43.149  40.389   8.235
 1931POPC   C3B28101  43.073  40.363   7.823
 1931POPC   C4B28102  42.776  40.244   7.530
 1932POPC   NC328103   3.871  33.603   9.686
 1932POPC   PO428104   4.326  34.072   9.453
 1932POPC   GL128105   4.421  33.908   9.047
 1932POPC   GL228106   4.174  34.158   8.870
 1932POPC   C1A28107   4.399  33.719   8.630
 1932POPC   D2A28108   4.552  33.912   8.239
 1932POPC   C3A28109   4.573  33.827   7.791
 1932POPC   C4A28110   4.490  33.938   7.370
 1932POPC   C1B28111   3.907  33.895   8.581
 1932POPC   C2B28112   4.064  33.630   8.235
 1932POPC   C3B28113   4.054  33.728   7.819
 1932POPC   C4B28114   4.181  33.520   7.489
 1933POPC   NC328115   6.029   7.359   9.322
 1933POPC   PO428116   5.486   7.697   9.394
 1933POPC   GL128117   5.679   7.481   8.983
 1933POPC   GL228118   5.979   7.211   8.859
 1933POPC   C1A28119   5.574   7.298   8.601
 1933POPC   D2A28120   5.867   7.097   8.367
 1933POPC   C3A28121   6.015   7.318   8.035
 1933POPC   C4A28122   5.910   7.299   7.631
 1933POPC   C1B28123   6.067   7.511   8.524
 1933POPC   C2B28124   6.102   7.824   8.182
 1933POPC   C3B28125   6.205   7.764   7.759
 1933POPC   C4B28126   6.404   7.376   7.660
 1934POPC   NC328127   4.833  17.926   9.339
 1934POPC   PO428128   4.882  18.620   9.474
 1934POPC   GL128129   4.958  18.583   9.069
 1934POPC   GL228130   5.116  18.263   9.051
 1934POPC   C1A28131   5.283  18.678   8.768
 1934POPC   D2A28132   5.459  18.574   8.367
 1934POPC   C3A28133   5.179  18.486   8.041
 1934POPC   C4A28134   5.287  18.294   7.667
 1934POPC   C1B28135   4.800  18.245   8.691
 1934POPC   C2B28136   4.775  18.219   8.232
 1934POPC   C3B28137   4.892  18.024   7.834
 1934POPC   C4B28138   4.954  17.994   7.346
 1935POPC   NC328139   3.577  35.562   9.396
 1935POPC   PO428140   4.044  35.033   9.491
 1935POPC   GL128141   3.787  35.149   9.104
 1935POPC   GL228142   3.742  35.510   8.935
 1935POPC   C1A28143   3.712  35.083   8.675
 1935POPC   D2A28144   3.871  35.449   8.443
 1935POPC   C3A28145   3.694  35.476   8.057
 1935POPC   C4A28146   3.447  35.189   7.835
 1935POPC   C1B28147   3.312  35.641   8.755
 1935POPC   C2B28148   3.099  35.587   8.335
 1935POPC   C3B28149   3.241  35.671   7.907
 1935POPC   C4B28150   3.580  35.641   7.597
 1936POPC   NC328151   4.815  29.897   9.471
 1936POPC   PO428152   5.500  29.912   9.384
 1936POPC   GL128153   5.175  29.753   9.094
 1936POPC   GL228154   4.810  29.877   8.968
 1936POPC   C1A28155   5.178  29.696   8.659
 1936POPC   D2A28156   4.977  29.873   8.304
 1936POPC   C3A28157   5.097  29.732   7.930
 1936POPC   C4A28158   5.268  30.064   7.734
 1936POPC   C1B28159   4.996  30.214   8.713
 1936POPC   C2B28160   4.922  30.401   8.300
 1936POPC   C3B28161   4.791  30.218   7.913
 1936POPC   C4B28162   4.707  29.888   7.626
 1937POPC   NC328163  17.175  22.661   9.407
 1937POPC   PO428164  16.787  23.125   9.700
 1937POPC   GL128165  16.717  22.956   9.294
 1937POPC   GL228166  16.723  23.260   9.199
 1937POPC   C1A28167  16.593  22.834   8.861
 1937POPC   D2A28168  16.306  22.915   8.500
 1937POPC   C3A28169  16.496  22.927   8.078
 1937POPC   C4A28170  16.397  22.744   7.677
 1937POPC   C1B28171  16.939  23.281   8.808
 1937POPC   C2B28172  16.908  23.028   8.446
 1937POPC   C3B28173  17.021  22.979   8.024
 1937POPC   C4B28174  16.779  23.149   7.690
 1938POPC   NC328175  27.749  36.371   9.388
 1938POPC   PO428176  27.366  35.729   9.437
 1938POPC   GL128177  27.419  36.043   9.123
 1938POPC   GL228178  27.718  35.898   8.958
 1938POPC   C1A28179  27.429  36.233   8.702
 1938POPC   D2A28180  27.545  36.003   8.349
 1938POPC   C3A28181  27.675  36.206   8.014
 1938POPC   C4A28182  27.425  36.300   7.659
 1938POPC   C1B28183  27.956  36.131   8.635
 1938POPC   C2B28184  28.071  35.945   8.241
 1938POPC   C3B28185  27.903  35.757   7.899
 1938POPC   C4B28186  27.792  35.969   7.549
 1939POPC   NC328187  18.624  28.648   9.608
 1939POPC   PO428188  18.411  28.128   9.288
 1939POPC   GL128189  18.301  28.474   9.080
 1939POPC   GL228190  18.533  28.726   9.106
 1939POPC   C1A28191  18.223  28.345   8.691
 1939POPC   D2A28192  18.182  28.528   8.333
 1939POPC   C3A28193  18.226  28.236   8.015
 1939POPC   C4A28194  18.315  28.574   7.757
 1939POPC   C1B28195  18.604  28.705   8.664
 1939POPC   C2B28196  18.658  28.346   8.392
 1939POPC   C3B28197  18.735  28.291   7.956
 1939POPC   C4B28198  18.516  28.139   7.591
 1940POPC   NC328199  38.356   1.116   9.392
 1940POPC   PO428200  38.567   1.680   9.479
 1940POPC   GL128201  38.685   1.464   9.066
 1940POPC   GL228202  38.361   1.285   8.921
 1940POPC   C1A28203  38.733   1.378   8.593
 1940POPC   D2A28204  38.276   1.359   8.409
 1940POPC   C3A28205  38.202   1.492   7.982
 1940POPC   C4A28206  38.572   1.380   7.766
 1940POPC   C1B28207  38.671   0.936   8.831
 1940POPC   C2B28208  38.799   0.878   8.409
 1940POPC   C3B28209  38.551   0.974   8.059
 1940POPC   C4B28210  38.211   1.017   7.769
 1941POPC   NC328211  35.409  41.032   9.314
 1941POPC   PO428212  35.309  41.728   9.491
 1941POPC   GL128213  35.411  41.561   9.121
 1941POPC   GL228214  35.694  41.433   9.191
 1941POPC   C1A28215  35.268  41.474   8.733
 1941POPC   D2A28216  35.045  41.270   8.425
 1941POPC   C3A28217  35.192  41.394   8.056
 1941POPC   C4A28218  35.144  41.371   7.660
 1941POPC   C1B28219  35.755  41.241   8.779
 1941POPC   C2B28220  35.592  41.306   8.362
 1941POPC   C3B28221  35.672  41.531   7.957
 1941POPC   C4B28222  35.641  41.389   7.495
 1942POPC   NC328223  14.811  26.129   9.549
 1942POPC   PO428224  15.441  25.921   9.504
 1942POPC   GL128225  15.288  25.953   9.103
 1942POPC   GL228226  14.964  25.916   9.104
 1942POPC   C1A28227  15.230  25.864   8.665
 1942POPC   D2A28228  15.293  26.144   8.352
 1942POPC   C3A28229  15.467  25.980   7.985
 1942POPC   C4A28230  15.269  25.650   7.782
 1942POPC   C1B28231  14.725  25.958   8.705
 1942POPC   C2B28232  14.753  25.970   8.241
 1942POPC   C3B28233  14.962  26.058   7.837
 1942POPC   C4B28234  14.868  26.200   7.394
 1943POPC   NC328235  10.161  41.461   9.437
 1943POPC   PO428236   9.535  41.704   9.566
 1943POPC   GL128237   9.727  41.386   9.212
 1943POPC   GL228238   9.866  41.617   9.058
 1943POPC   C1A28239   9.692  41.272   8.681
 1943POPC   D2A28240   9.422  41.467   8.349
 1943POPC   C3A28241   9.580  41.438   7.928
 1943POPC   C4A28242   9.549  41.252   7.538
 1943POPC   C1B28243  10.102  41.551   8.723
 1943POPC   C2B28244   9.956  41.520   8.315
 1943POPC   C3B28245  10.033  41.693   7.930
 1943POPC   C4B28246  10.058  41.374   7.680
 1944POPC   NC328247  41.891   0.232   9.388
 1944POPC   PO428248  42.247   0.818   9.587
 1944POPC   GL128249  42.048   0.702   9.241
 1944POPC   GL228250  42.313   0.436   9.181
 1944POPC   C1A28251  42.134   0.766   8.812
 1944POPC   D2A28252  42.324   0.618   8.428
 1944POPC   C3A28253  42.099   0.522   8.045
 1944POPC   C4A28254  42.402   0.543   7.692
 1944POPC   C1B28255  42.208   0.243   8.791
 1944POPC   C2B28256  42.190   0.115   8.371
 1944POPC   C3B28257  42.420   0.111   7.989
 1944POPC   C4B28258  42.181   0.094   7.620
 1945POPC   NC328259  41.501  20.916   9.467
 1945POPC   PO428260  41.405  20.262   9.396
 1945POPC   GL128261  41.620  20.419   9.009
 1945POPC   GL228262  41.713  20.759   9.026
 1945POPC   C1A28263  41.743  20.376   8.560
 1945POPC   D2A28264  41.809  20.693   8.253
 1945POPC   C3A28265  41.736  20.511   7.858
 1945POPC   C4A28266  41.411  20.177   7.813
 1945POPC   C1B28267  41.453  20.795   8.634
 1945POPC   C2B28268  41.350  20.943   8.237
 1945POPC   C3B28269  41.274  20.753   7.848
 1945POPC   C4B28270  41.126  20.961   7.454
 1946POPC   NC328271  40.680  34.940   9.464
 1946POPC   PO428272  41.250  34.511   9.532
 1946POPC   GL128273  41.052  34.687   9.178
 1946POPC   GL228274  41.209  34.458   8.977
 1946POPC   C1A28275  40.755  34.621   8.809
 1946POPC   D2A28276  40.532  34.426   8.454
 1946POPC   C3A28277  40.712  34.595   8.044
 1946POPC   C4A28278  40.670  34.511   7.588
 1946POPC   C1B28279  41.304  34.534   8.562
 1946POPC   C2B28280  41.334  34.254   8.193
 1946POPC   C3B28281  41.104  34.281   7.819
 1946POPC   C4B28282  41.147  34.665   7.597
 1947POPC   NC328283   0.140  38.135   9.605
 1947POPC   PO428284   0.544  38.599   9.446
 1947POPC   GL128285   0.324  38.422   9.150
 1947POPC   GL228286   0.405  38.110   9.182
 1947POPC   C1A28287   0.366  38.647   8.806
 1947POPC   D2A28288   0.379  38.748   8.427
 1947POPC   C3A28289   0.661  38.575   8.189
 1947POPC   C4A28290   0.653  38.412   7.779
 1947POPC   C1B28291   0.615  38.169   8.806
 1947POPC   C2B28292   0.396  38.227   8.480
 1947POPC   C3B28293   0.363  38.130   8.072
 1947POPC   C4B28294   0.264  38.039   7.627
 1948POPC   NC328295  12.480  27.263   9.610
 1948POPC   PO428296  12.951  27.635   9.454
 1948POPC   GL128297  12.795  27.721   9.053
 1948POPC   GL228298  12.530  27.509   9.133
 1948POPC   C1A28299  12.852  27.634   8.626
 1948POPC   D2A28300  13.025  27.564   8.245
 1948POPC   C3A28301  12.710  27.538   7.958
 1948POPC   C4A28302  12.586  27.743   7.583
 1948POPC   C1B28303  12.874  27.232   8.941
 1948POPC   C2B28304  13.137  27.166   8.565
 1948POPC   C3B28305  13.378  27.176   8.159
 1948POPC   C4B28306  13.164  27.355   7.796
 1949POPC   NC328307   6.436   0.861   9.643
 1949POPC   PO428308   6.927   1.320   9.494
 1949POPC   GL128309   6.729   1.307   9.132
 1949POPC   GL228310   6.716   0.944   9.192
 1949POPC   C1A28311   6.680   1.410   8.691
 1949POPC   D2A28312   6.464   1.561   8.291
 1949POPC   C3A28313   6.717   1.404   7.944
 1949POPC   C4A28314   6.647   0.990   7.768
 1949POPC   C1B28315   7.007   0.941   8.848
 1949POPC   C2B28316   6.926   1.032   8.409
 1949POPC   C3B28317   7.120   1.015   8.001
 1949POPC   C4B28318   7.106   0.854   7.586
 1950POPC   NC328319  21.753  14.983   9.533
 1950POPC   PO428320  22.360  15.220   9.723
 1950POPC   GL128321  22.359  15.207   9.274
 1950POPC   GL228322  22.018  15.213   9.154
 1950POPC   C1A28323  22.383  15.041   8.858
 1950POPC   D2A28324  22.162  15.064   8.480
 1950POPC   C3A28325  22.379  14.935   8.145
 1950POPC   C4A28326  22.331  15.007   7.715
 1950POPC   C1B28327  21.814  15.321   8.751
 1950POPC   C2B28328  21.728  15.258   8.291
 1950POPC   C3B28329  21.870  14.983   7.936
 1950POPC   C4B28330  21.935  15.163   7.457
 1951POPC   NC328331   6.913  20.381   9.738
 1951POPC   PO428332   6.283  20.421   9.457
 1951POPC   GL128333   6.693  20.537   9.258
 1951POPC   GL228334   6.544  20.856   9.182
 1951POPC   C1A28335   6.910  20.653   8.841
 1951POPC   D2A28336   6.949  20.947   8.496
 1951POPC   C3A28337   6.852  20.827   8.058
 1951POPC   C4A28338   6.947  20.679   7.610
 1951POPC   C1B28339   6.397  20.558   8.826
 1951POPC   C2B28340   6.579  20.540   8.416
 1951POPC   C3B28341   6.372  20.633   8.019
 1951POPC   C4B28342   6.498  20.880   7.670
 1952POPC   NC328343   2.417  38.901   9.507
 1952POPC   PO428344   2.763  39.471   9.726
 1952POPC   GL128345   2.632  39.237   9.232
 1952POPC   GL228346   2.783  38.947   9.119
 1952POPC   C1A28347   2.573  39.264   8.741
 1952POPC   D2A28348   2.737  39.361   8.315
 1952POPC   C3A28349   2.585  39.378   7.870
 1952POPC   C4A28350   2.708  39.195   7.465
 1952POPC   C1B28351   2.558  38.764   8.737
 1952POPC   C2B28352   2.415  38.940   8.294
 1952POPC   C3B28353   2.443  38.858   7.817
 1952POPC   C4B28354   2.422  38.803   7.322
 1953POPC   NC328355  12.867  26.374   9.364
 1953POPC   PO428356  12.451  26.791   9.703
 1953POPC   GL128357  12.715  26.878   9.293
 1953POPC   GL228358  12.542  26.696   9.094
 1953POPC   C1A28359  12.989  26.750   8.852
 1953POPC   D2A28360  13.056  26.699   8.391
 1953POPC   C3A28361  12.891  27.049   8.123
 1953POPC   C4A28362  12.764  27.006   7.699
 1953POPC   C1B28363  12.567  26.494   8.712
 1953POPC   C2B28364  12.723  26.325   8.349
 1953POPC   C3B28365  12.731  26.547   7.995
 1953POPC   C4B28366  12.825  26.495   7.607
 1954POPC   NC328367   3.766   6.364   9.482
 1954POPC   PO428368   3.746   6.995   9.352
 1954POPC   GL128369   3.382   6.705   9.284
 1954POPC   GL228370   3.085   6.897   9.155
 1954POPC   C1A28371   3.319   6.350   8.960
 1954POPC   D2A28372   3.291   6.335   8.493
 1954POPC   C3A28373   3.539   6.484   8.127
 1954POPC   C4A28374   3.406   6.572   7.697
 1954POPC   C1B28375   3.335   6.820   8.777
 1954POPC   C2B28376   3.463   6.917   8.373
 1954POPC   C3B28377   3.231   6.959   7.970
 1954POPC   C4B28378   3.508   7.073   7.607
 1955POPC   NC328379   8.564  16.107   9.505
 1955POPC   PO428380   7.935  15.767   9.464
 1955POPC   GL128381   8.172  16.046   9.196
 1955POPC   GL228382   8.352  15.741   9.134
 1955POPC   C1A28383   8.384  16.121   8.770
 1955POPC   D2A28384   8.211  16.171   8.343
 1955POPC   C3A28385   8.260  15.836   8.012
 1955POPC   C4A28386   8.421  15.662   7.626
 1955POPC   C1B28387   8.007  15.780   8.800
 1955POPC   C2B28388   7.926  15.692   8.382
 1955POPC   C3B28389   7.757  15.619   7.989
 1955POPC   C4B28390   7.930  15.731   7.607
 1956POPC   NC328391   6.782  29.047   9.333
 1956POPC   PO428392   6.269  29.274   9.338
 1956POPC   GL128393   6.525  29.266   8.962
 1956POPC   GL228394   6.851  29.487   9.066
 1956POPC   C1A28395   6.464  29.138   8.536
 1956POPC   D2A28396   6.671  28.865   8.262
 1956POPC   C3A28397   6.604  28.981   7.876
 1956POPC   C4A28398   6.243  29.091   7.638
 1956POPC   C1B28399   6.945  29.331   8.662
 1956POPC   C2B28400   6.827  29.356   8.232
 1956POPC   C3B28401   7.011  29.457   7.862
 1956POPC   C4B28402   7.076  29.084   7.681
 1957POPC   NC328403  43.474  22.380   9.566
 1957POPC   PO428404  42.926  22.008   9.494
 1957POPC   GL128405  43.127  22.251   9.204
 1957POPC   GL228406  42.992  22.547   9.310
 1957POPC   C1A28407  43.364  22.307   8.795
 1957POPC   D2A28408  43.383  22.032   8.433
 1957POPC   C3A28409  43.178  22.155   8.072
 1957POPC   C4A28410  42.898  21.981   7.767
 1957POPC   C1B28411  42.907  22.515   8.841
 1957POPC   C2B28412  42.896  22.439   8.401
 1957POPC   C3B28413  42.801  22.482   7.952
 1957POPC   C4B28414  43.008  22.521   7.527
 1958POPC   NC328415   6.722  44.304   9.378
 1958POPC   PO428416   6.888  43.689   9.567
 1958POPC   GL128417   6.763  43.820   9.163
 1958POPC   GL228418   6.384  43.896   9.179
 1958POPC   C1A28419   6.648  43.787   8.734
 1958POPC   D2A28420   6.488  43.906   8.359
 1958POPC   C3A28421   6.640  43.811   7.983
 1958POPC   C4A28422   6.840  43.720   7.592
 1958POPC   C1B28423   6.318  44.219   8.838
 1958POPC   C2B28424   6.261  44.384   8.424
 1958POPC   C3B28425   6.258  44.212   7.997
 1958POPC   C4B28426   6.564  44.208   7.652
 1959POPC   NC328427  25.064  10.819   9.201
 1959POPC   PO428428  25.200  11.342   9.617
 1959POPC   GL128429  25.367  11.307   9.156
 1959POPC   GL228430  25.646  11.553   9.110
 1959POPC   C1A28431  25.423  11.060   8.709
 1959POPC   D2A28432  25.168  10.924   8.313
 1959POPC   C3A28433  25.287  11.036   7.860
 1959POPC   C4A28434  25.335  11.030   7.383
 1959POPC   C1B28435  25.507  11.557   8.705
 1959POPC   C2B28436  25.403  11.389   8.301
 1959POPC   C3B28437  25.269  11.563   7.929
 1959POPC   C4B28438  25.488  11.929   7.803
 1960POPC   NC328439  20.149  39.795   9.589
 1960POPC   PO428440  19.722  40.255   9.798
 1960POPC   GL128441  19.776  40.204   9.283
 1960POPC   GL228442  20.127  40.250   9.183
 1960POPC   C1A28443  19.769  40.190   8.794
 1960POPC   D2A28444  19.910  40.320   8.354
 1960POPC   C3A28445  19.768  40.035   8.032
 1960POPC   C4A28446  19.588  40.025   7.624
 1960POPC   C1B28447  20.151  39.874   8.888
 1960POPC   C2B28448  20.011  39.802   8.452
 1960POPC   C3B28449  20.173  39.754   8.020
 1960POPC   C4B28450  20.026  39.760   7.602
 1961POPC   NC328451  21.301  22.924   9.609
 1961POPC   PO428452  21.068  23.390   9.230
 1961POPC   GL128453  21.187  22.936   9.080
 1961POPC   GL228454  21.475  22.730   9.148
 1961POPC   C1A28455  21.159  22.795   8.649
 1961POPC   D2A28456  20.955  23.079   8.320
 1961POPC   C3A28457  21.087  23.068   7.883
 1961POPC   C4A28458  21.518  23.107   7.727
 1961POPC   C1B28459  21.667  22.703   8.734
 1961POPC   C2B28460  21.554  22.784   8.283
 1961POPC   C3B28461  21.374  22.632   7.878
 1961POPC   C4B28462  21.585  22.669   7.479
 1962POPC   NC328463  28.286  23.230   9.351
 1962POPC   PO428464  28.444  23.781   9.491
 1962POPC   GL128465  28.604  23.713   9.044
 1962POPC   GL228466  28.380  23.963   8.945
 1962POPC   C1A28467  28.694  23.798   8.573
 1962POPC   D2A28468  28.494  24.079   8.246
 1962POPC   C3A28469  28.461  23.860   7.851
 1962POPC   C4A28470  28.528  23.398   7.760
 1962POPC   C1B28471  28.192  23.787   8.580
 1962POPC   C2B28472  28.281  23.540   8.209
 1962POPC   C3B28473  28.019  23.546   7.832
 1962POPC   C4B28474  27.926  23.962   7.646
 1963POPC   NC328475  29.609  25.066   9.872
 1963POPC   PO428476  29.106  25.054   9.516
 1963POPC   GL128477  29.154  25.040   9.091
 1963POPC   GL228478  29.499  25.024   9.157
 1963POPC   C1A28479  29.215  25.127   8.647
 1963POPC   D2A28480  29.016  24.999   8.274
 1963POPC   C3A28481  28.831  25.364   8.139
 1963POPC   C4A28482  28.975  25.644   7.821
 1963POPC   C1B28483  29.667  24.938   8.750
 1963POPC   C2B28484  29.794  25.132   8.384
 1963POPC   C3B28485  29.453  25.313   8.147
 1963POPC   C4B28486  29.185  25.179   7.828
 1964POPC   NC328487  36.760  13.413   9.498
 1964POPC   PO428488  37.067  13.965   9.563
 1964POPC   GL128489  37.107  13.674   9.201
 1964POPC   GL228490  37.354  13.873   9.053
 1964POPC   C1A28491  36.863  13.409   8.871
 1964POPC   D2A28492  36.562  13.510   8.554
 1964POPC   C3A28493  36.815  13.463   8.211
 1964POPC   C4A28494  36.890  13.455   7.810
 1964POPC   C1B28495  37.078  13.844   8.696
 1964POPC   C2B28496  37.192  13.851   8.292
 1964POPC   C3B28497  37.124  13.890   7.903
 1964POPC   C4B28498  36.922  13.861   7.522
 1965POPC   NC328499  20.656  24.968   9.322
 1965POPC   PO428500  20.632  25.631   9.366
 1965POPC   GL128501  20.616  25.376   9.025
 1965POPC   GL228502  20.312  25.256   9.073
 1965POPC   C1A28503  20.686  25.124   8.652
 1965POPC   D2A28504  20.884  24.992   8.277
 1965POPC   C3A28505  20.841  25.254   7.931
 1965POPC   C4A28506  20.899  25.335   7.504
 1965POPC   C1B28507  20.272  25.448   8.650
 1965POPC   C2B28508  20.340  25.409   8.200
 1965POPC   C3B28509  20.361  25.259   7.774
 1965POPC   C4B28510  20.243  25.199   7.309
 1966POPC   NC328511  22.676  32.742   9.500
 1966POPC   PO428512  23.148  33.237   9.571
 1966POPC   GL128513  23.040  33.432   9.168
 1966POPC   GL228514  22.776  33.186   9.172
 1966POPC   C1A28515  23.079  33.247   8.731
 1966POPC   D2A28516  22.889  33.159   8.310
 1966POPC   C3A28517  23.103  32.942   7.958
 1966POPC   C4A28518  23.267  33.114   7.533
 1966POPC   C1B28519  22.713  32.908   8.826
 1966POPC   C2B28520  22.751  32.654   8.465
 1966POPC   C3B28521  22.668  32.730   8.078
 1966POPC   C4B28522  22.693  32.935   7.681
 1967POPC   NC328523  26.872  30.492   9.624
 1967POPC   PO428524  26.600  31.121   9.505
 1967POPC   GL128525  26.788  30.783   9.211
 1967POPC   GL228526  27.049  30.474   9.156
 1967POPC   C1A28527  26.671  30.596   8.812
 1967POPC   D2A28528  26.527  30.351   8.464
 1967POPC   C3A28529  26.793  30.449   8.115
 1967POPC   C4A28530  26.740  30.681   7.726
 1967POPC   C1B28531  27.199  30.823   8.924
 1967POPC   C2B28532  27.151  30.823   8.492
 1967POPC   C3B28533  27.127  30.836   8.040
 1967POPC   C4B28534  27.314  30.665   7.651
 1968POPC   NC328535   2.326   2.455   9.322
 1968POPC   PO428536   2.204   3.077   9.576
 1968POPC   GL128537   2.023   2.843   9.184
 1968POPC   GL228538   1.728   2.603   9.164
 1968POPC   C1A28539   2.067   2.677   8.749
 1968POPC   D2A28540   1.852   2.814   8.344
 1968POPC   C3A28541   2.098   2.797   7.980
 1968POPC   C4A28542   2.015   2.848   7.580
 1968POPC   C1B28543   1.572   2.625   8.730
 1968POPC   C2B28544   1.655   2.344   8.355
 1968POPC   C3B28545   1.734   2.406   7.909
 1968POPC   C4B28546   1.562   2.768   7.766
 1969POPC   NC328547  20.213  18.680   9.437
 1969POPC   PO428548  19.516  18.953   9.421
 1969POPC   GL128549  19.849  18.926   9.151
 1969POPC   GL228550  20.130  19.153   9.231
 1969POPC   C1A28551  19.801  18.719   8.748
 1969POPC   D2A28552  19.493  18.780   8.396
 1969POPC   C3A28553  19.681  18.750   7.975
 1969POPC   C4A28554  19.523  18.972   7.655
 1969POPC   C1B28555  20.065  19.188   8.775
 1969POPC   C2B28556  19.924  19.050   8.374
 1969POPC   C3B28557  19.997  19.177   7.984
 1969POPC   C4B28558  20.228  19.457   7.705
 1970POPC   NC328559  37.489  35.097   9.496
 1970POPC   PO428560  37.868  35.420   9.871
 1970POPC   GL128561  37.856  35.372   9.323
 1970POPC   GL228562  38.105  35.497   9.193
 1970POPC   C1A28563  37.679  35.285   8.891
 1970POPC   D2A28564  37.484  35.383   8.480
 1970POPC   C3A28565  37.658  35.252   8.093
 1970POPC   C4A28566  37.449  35.245   7.724
 1970POPC   C1B28567  37.981  35.703   8.808
 1970POPC   C2B28568  38.034  35.845   8.382
 1970POPC   C3B28569  38.063  35.676   7.968
 1970POPC   C4B28570  37.881  35.476   7.594
 1971POPC   NC328571  42.825  33.069   9.477
 1971POPC   PO428572  43.440  32.713   9.583
 1971POPC   GL128573  43.186  32.788   9.211
 1971POPC   GL228574  42.874  32.665   9.123
 1971POPC   C1A28575  43.157  33.082   8.847
 1971POPC   D2A28576  43.287  33.039   8.425
 1971POPC   C3A28577  43.132  33.269   8.090
 1971POPC   C4A28578  43.143  33.173   7.672
 1971POPC   C1B28579  42.717  32.811   8.719
 1971POPC   C2B28580  42.848  32.809   8.275
 1971POPC   C3B28581  42.702  32.994   7.908
 1971POPC   C4B28582  42.691  33.420   7.765
 1972POPC   NC328583  15.766  42.795   9.441
 1972POPC   PO428584  16.057  42.144   9.395
 1972POPC   GL128585  16.096  42.239   9.013
 1972POPC   GL228586  15.803  42.465   8.992
 1972POPC   C1A28587  16.085  42.184   8.594
 1972POPC   D2A28588  15.700  42.271   8.400
 1972POPC   C3A28589  15.722  42.388   7.989
 1972POPC   C4A28590  16.130  42.278   7.860
 1972POPC   C1B28591  15.976  42.663   8.602
 1972POPC   C2B28592  16.372  42.564   8.345
 1972POPC   C3B28593  16.426  42.714   7.944
 1972POPC   C4B28594  16.007  42.811   7.811
 1973POPC   NC328595  34.008  39.682   9.546
 1973POPC   PO428596  33.630  40.208   9.633
 1973POPC   GL128597  33.595  39.998   9.219
 1973POPC   GL228598  33.952  39.954   9.113
 1973POPC   C1A28599  33.617  39.809   8.759
 1973POPC   D2A28600  33.904  39.956   8.437
 1973POPC   C3A28601  33.759  39.892   8.027
 1973POPC   C4A28602  33.586  40.261   7.828
 1973POPC   C1B28603  34.145  39.668   8.809
 1973POPC   C2B28604  34.306  39.650   8.390
 1973POPC   C3B28605  34.313  39.900   7.995
 1973POPC   C4B28606  34.092  40.225   7.755
 1974POPC   NC328607  36.666   3.312   9.498
 1974POPC   PO428608  37.256   3.733   9.530
 1974POPC   GL128609  37.020   3.533   9.170
 1974POPC   GL228610  37.201   3.257   9.060
 1974POPC   C1A28611  36.841   3.421   8.733
 1974POPC   D2A28612  36.637   3.317   8.356
 1974POPC   C3A28613  36.659   3.584   8.020
 1974POPC   C4A28614  37.011   3.406   7.851
 1974POPC   C1B28615  37.347   3.519   8.759
 1974POPC   C2B28616  37.177   3.630   8.378
 1974POPC   C3B28617  37.179   3.868   8.021
 1974POPC   C4B28618  36.926   3.876   7.670
 1975POPC   NC328619  31.627   9.662   9.531
 1975POPC   PO428620  31.059  10.015   9.599
 1975POPC   GL128621  31.286   9.900   9.208
 1975POPC   GL228622  31.405   9.591   9.095
 1975POPC   C1A28623  31.112   9.816   8.759
 1975POPC   D2A28624  31.086  10.009   8.360
 1975POPC   C3A28625  30.951   9.816   7.982
 1975POPC   C4A28626  31.349   9.704   7.865
 1975POPC   C1B28627  31.627   9.677   8.721
 1975POPC   C2B28628  31.611   9.605   8.284
 1975POPC   C3B28629  31.838   9.602   7.898
 1975POPC   C4B28630  32.052   9.837   7.579
 1976POPC   NC328631  29.854   2.739   9.633
 1976POPC   PO428632  30.361   2.316   9.503
 1976POPC   GL128633  30.110   2.557   9.210
 1976POPC   GL228634  29.802   2.807   9.139
 1976POPC   C1A28635  30.054   2.494   8.790
 1976POPC   D2A28636  29.907   2.535   8.390
 1976POPC   C3A28637  30.111   2.435   8.029
 1976POPC   C4A28638  30.015   2.625   7.645
 1976POPC   C1B28639  29.610   2.759   8.738
 1976POPC   C2B28640  29.621   2.942   8.306
 1976POPC   C3B28641  29.602   2.892   7.825
 1976POPC   C4B28642  29.677   2.972   7.351
 1977POPC   NC328643   3.459   2.550   9.853
 1977POPC   PO428644   3.382   1.981   9.513
 1977POPC   GL128645   3.448   1.915   9.085
 1977POPC   GL228646   3.239   1.634   9.066
 1977POPC   C1A28647   3.508   2.043   8.643
 1977POPC   D2A28648   3.252   2.222   8.296
 1977POPC   C3A28649   3.579   2.360   8.004
 1977POPC   C4A28650   3.780   2.117   7.722
 1977POPC   C1B28651   3.550   1.507   8.776
 1977POPC   C2B28652   3.722   1.618   8.414
 1977POPC   C3B28653   3.542   1.841   8.115
 1977POPC   C4B28654   3.554   1.660   7.726
 1978POPC   NC328655   5.411  35.602   9.789
 1978POPC   PO428656   6.096  35.659   9.562
 1978POPC   GL128657   5.878  35.477   9.186
 1978POPC   GL228658   5.533  35.496   9.086
 1978POPC   C1A28659   5.973  35.356   8.753
 1978POPC   D2A28660   6.003  35.447   8.322
 1978POPC   C3A28661   6.019  35.161   8.001
 1978POPC   C4A28662   6.150  35.424   7.692
 1978POPC   C1B28663   5.464  35.451   8.651
 1978POPC   C2B28664   5.567  35.182   8.274
 1978POPC   C3B28665   5.550  35.313   7.838
 1978POPC   C4B28666   5.660  35.725   7.761
 1979POPC   NC328667  21.460  43.333   9.714
 1979POPC   PO428668  21.659  43.926   9.541
 1979POPC   GL128669  21.418  43.959   9.143
 1979POPC   GL228670  21.575  43.642   9.103
 1979POPC   C1A28671  21.150  44.088   8.726
 1979POPC   D2A28672  20.960  44.052   8.292
 1979POPC   C3A28673  21.226  43.942   7.928
 1979POPC   C4A28674  21.629  43.919   7.748
 1979POPC   C1B28675  21.526  43.767   8.668
 1979POPC   C2B28676  21.269  43.642   8.341
 1979POPC   C3B28677  21.423  43.459   7.955
 1979POPC   C4B28678  21.302  43.398   7.524
 1980POPC   NC328679  34.601  36.240   9.408
 1980POPC   PO428680  34.566  35.586   9.438
 1980POPC   GL128681  34.471  35.819   9.058
 1980POPC   GL228682  34.559  36.159   8.924
 1980POPC   C1A28683  34.669  35.756   8.647
 1980POPC   D2A28684  34.835  36.121   8.438
 1980POPC   C3A28685  34.860  36.098   8.023
 1980POPC   C4A28686  34.521  35.991   7.790
 1980POPC   C1B28687  34.902  36.464   8.803
 1980POPC   C2B28688  34.873  36.697   8.424
 1980POPC   C3B28689  34.975  36.593   7.983
 1980POPC   C4B28690  34.662  36.451   7.668
 1981POPC   NC328691  28.796  14.889   9.337
 1981POPC   PO428692  29.355  15.251   9.532
 1981POPC   GL128693  29.166  15.177   9.115
 1981POPC   GL228694  28.914  15.429   9.138
 1981POPC   C1A28695  29.079  14.861   8.737
 1981POPC   D2A28696  29.224  14.826   8.288
 1981POPC   C3A28697  29.152  15.253   8.153
 1981POPC   C4A28698  29.442  15.586   7.955
 1981POPC   C1B28699  28.831  15.319   8.709
 1981POPC   C2B28700  28.638  15.484   8.345
 1981POPC   C3B28701  28.691  15.338   7.929
 1981POPC   C4B28702  28.929  15.033   7.751
 1982POPC   NC328703  26.483  31.531   9.307
 1982POPC   PO428704  26.827  32.073   9.710
 1982POPC   GL128705  26.900  31.802   9.260
 1982POPC   GL228706  26.958  31.366   9.205
 1982POPC   C1A28707  26.898  31.640   8.800
 1982POPC   D2A28708  26.755  31.437   8.415
 1982POPC   C3A28709  26.804  31.657   8.018
 1982POPC   C4A28710  26.924  31.581   7.564
 1982POPC   C1B28711  26.775  31.113   8.816
 1982POPC   C2B28712  26.669  30.920   8.377
 1982POPC   C3B28713  26.694  31.156   7.968
 1982POPC   C4B28714  26.454  31.500   7.701
 1983POPC   NC328715   8.606  22.783   9.474
 1983POPC   PO428716   9.252  22.789   9.531
 1983POPC   GL128717   9.206  22.951   9.124
 1983POPC   GL228718   8.900  23.145   9.162
 1983POPC   C1A28719   8.998  22.823   8.748
 1983POPC   D2A28720   8.828  22.916   8.344
 1983POPC   C3A28721   9.043  22.788   7.989
 1983POPC   C4A28722   8.841  22.618   7.629
 1983POPC   C1B28723   8.778  23.295   8.742
 1983POPC   C2B28724   8.600  23.373   8.341
 1983POPC   C3B28725   8.586  23.287   7.895
 1983POPC   C4B28726   8.851  23.111   7.618
 1984POPC   NC328727  24.086  32.099   9.676
 1984POPC   PO428728  23.892  32.730   9.597
 1984POPC   GL128729  23.823  32.441   9.277
 1984POPC   GL228730  23.698  32.088   9.242
 1984POPC   C1A28731  23.923  32.422   8.853
 1984POPC   D2A28732  23.667  32.462   8.503
 1984POPC   C3A28733  23.895  32.411   8.145
 1984POPC   C4A28734  23.909  32.564   7.726
 1984POPC   C1B28735  23.553  32.023   8.763
 1984POPC   C2B28736  23.445  32.069   8.282
 1984POPC   C3B28737  23.507  32.177   7.861
 1984POPC   C4B28738  23.473  31.812   7.619
 1985POPC   NC328739  34.937  22.604   9.403
 1985POPC   PO428740  34.879  23.199   9.496
 1985POPC   GL128741  34.739  23.072   9.094
 1985POPC   GL228742  34.388  23.068   9.041
 1985POPC   C1A28743  34.722  23.223   8.663
 1985POPC   D2A28744  34.860  23.404   8.257
 1985POPC   C3A28745  34.817  23.194   7.830
 1985POPC   C4A28746  35.080  22.908   7.545
 1985POPC   C1B28747  34.279  22.969   8.607
 1985POPC   C2B28748  34.467  23.033   8.203
 1985POPC   C3B28749  34.284  23.053   7.788
 1985POPC   C4B28750  34.071  23.004   7.362
 1986POPC   NC328751   3.610  41.353   9.496
 1986POPC   PO428752   3.264  41.833   9.486
 1986POPC   GL128753   3.527  41.732   9.115
 1986POPC   GL228754   3.473  41.378   9.017
 1986POPC   C1A28755   3.491  41.749   8.659
 1986POPC   D2A28756   3.335  41.559   8.317
 1986POPC   C3A28757   3.524  41.530   7.922
 1986POPC   C4A28758   3.721  41.787   7.641
 1986POPC   C1B28759   3.096  41.447   8.790
 1986POPC   C2B28760   2.977  41.220   8.411
 1986POPC   C3B28761   3.036  41.329   7.970
 1986POPC   C4B28762   3.149  41.502   7.581
 1987POPC   NC328763  25.783  17.772   9.868
 1987POPC   PO428764  26.235  17.385   9.489
 1987POPC   GL128765  26.032  17.433   9.114
 1987POPC   GL228766  26.193  17.748   9.029
 1987POPC   C1A28767  26.086  17.241   8.710
 1987POPC   D2A28768  26.357  17.178   8.350
 1987POPC   C3A28769  26.153  17.233   7.978
 1987POPC   C4A28770  25.773  17.113   7.854
 1987POPC   C1B28771  25.866  17.708   8.695
 1987POPC   C2B28772  25.894  17.564   8.280
 1987POPC   C3B28773  25.865  17.652   7.847
 1987POPC   C4B28774  25.791  17.814   7.445
 1988POPC   NC328775   9.733  38.207   9.534
 1988POPC   PO428776   9.631  37.614   9.773
 1988POPC   GL128777   9.759  37.626   9.325
 1988POPC   GL228778   9.956  37.920   9.177
 1988POPC   C1A28779   9.751  37.451   8.902
 1988POPC   D2A28780  10.079  37.475   8.561
 1988POPC   C3A28781  10.039  37.408   8.131
 1988POPC   C4A28782   9.815  37.547   7.760
 1988POPC   C1B28783   9.901  37.940   8.723
 1988POPC   C2B28784   9.990  37.922   8.262
 1988POPC   C3B28785   9.934  38.044   7.794
 1988POPC   C4B28786   9.528  38.054   7.537
 1989POPC   NC328787  10.708  29.210   9.477
 1989POPC   PO428788  10.277  28.772   9.152
 1989POPC   GL128789  10.515  29.112   9.006
 1989POPC   GL228790  10.822  28.909   9.078
 1989POPC   C1A28791  10.605  29.358   8.615
 1989POPC   D2A28792  10.762  29.500   8.171
 1989POPC   C3A28793  10.705  29.256   7.845
 1989POPC   C4A28794  10.372  29.038   7.724
 1989POPC   C1B28795  10.761  28.839   8.657
 1989POPC   C2B28796  10.572  28.963   8.279
 1989POPC   C3B28797  10.816  28.799   7.986
 1989POPC   C4B28798  10.739  28.661   7.620
 1990POPC   NC328799   4.114  32.083   9.656
 1990POPC   PO428800   3.683  32.549   9.391
 1990POPC   GL128801   4.094  32.355   9.193
 1990POPC   GL228802   4.311  32.013   9.175
 1990POPC   C1A28803   4.372  32.373   8.824
 1990POPC   D2A28804   4.571  32.411   8.446
 1990POPC   C3A28805   4.382  32.327   8.087
 1990POPC   C4A28806   4.553  32.186   7.725
 1990POPC   C1B28807   4.025  31.984   8.821
 1990POPC   C2B28808   4.163  32.017   8.417
 1990POPC   C3B28809   4.168  31.875   7.974
 1990POPC   C4B28810   3.820  31.815   7.685
 1991POPC   NC328811  39.364  28.673   9.713
 1991POPC   PO428812  38.979  28.242   9.408
 1991POPC   GL128813  39.040  28.577   9.154
 1991POPC   GL228814  39.321  28.743   9.210
 1991POPC   C1A28815  39.254  28.480   8.752
 1991POPC   D2A28816  39.202  28.662   8.354
 1991POPC   C3A28817  39.153  28.495   7.941
 1991POPC   C4A28818  38.849  28.343   7.644
 1991POPC   C1B28819  39.582  28.864   8.868
 1991POPC   C2B28820  39.714  28.648   8.497
 1991POPC   C3B28821  39.639  28.734   8.060
 1991POPC   C4B28822  39.612  28.498   7.674
 1992POPC   NC328823   5.311  11.761   9.676
 1992POPC   PO428824   5.303  11.053   9.467
 1992POPC   GL128825   5.134  11.427   9.267
 1992POPC   GL228826   4.751  11.529   9.305
 1992POPC   C1A28827   5.154  11.462   8.818
 1992POPC   D2A28828   5.110  11.294   8.402
 1992POPC   C3A28829   5.328  11.464   8.073
 1992POPC   C4A28830   5.371  11.274   7.681
 1992POPC   C1B28831   4.698  11.664   8.861
 1992POPC   C2B28832   4.934  11.778   8.479
 1992POPC   C3B28833   4.833  11.664   8.069
 1992POPC   C4B28834   4.979  11.576   7.653
 1993POPC   NC328835  31.989  10.536   9.427
 1993POPC   PO428836  32.541  11.010   9.538
 1993POPC   GL128837  32.362  10.804   9.200
 1993POPC   GL228838  32.046  10.982   9.159
 1993POPC   C1A28839  32.194  10.594   8.811
 1993POPC   D2A28840  32.044  10.465   8.406
 1993POPC   C3A28841  32.380  10.455   8.091
 1993POPC   C4A28842  32.226  10.358   7.673
 1993POPC   C1B28843  31.875  10.997   8.750
 1993POPC   C2B28844  31.761  10.986   8.308
 1993POPC   C3B28845  32.029  10.801   7.992
 1993POPC   C4B28846  32.135  10.854   7.558
 1994POPC   NC328847  34.023   1.431   9.452
 1994POPC   PO428848  34.705   1.258   9.579
 1994POPC   GL128849  34.528   1.090   9.190
 1994POPC   GL228850  34.419   1.394   9.114
 1994POPC   C1A28851  34.663   1.106   8.746
 1994POPC   D2A28852  34.470   1.192   8.352
 1994POPC   C3A28853  34.575   1.016   7.959
 1994POPC   C4A28854  34.691   1.058   7.537
 1994POPC   C1B28855  34.200   1.408   8.724
 1994POPC   C2B28856  34.117   1.599   8.344
 1994POPC   C3B28857  34.201   1.398   7.975
 1994POPC   C4B28858  34.505   1.501   7.676
 1995POPC   NC328859  27.954  28.624   9.638
 1995POPC   PO428860  27.417  28.245   9.922
 1995POPC   GL128861  27.603  28.228   9.431
 1995POPC   GL228862  27.735  28.486   9.220
 1995POPC   C1A28863  27.374  28.292   8.949
 1995POPC   D2A28864  27.254  28.597   8.592
 1995POPC   C3A28865  27.205  28.485   8.122
 1995POPC   C4A28866  27.088  28.382   7.687
 1995POPC   C1B28867  27.863  28.415   8.812
 1995POPC   C2B28868  27.839  28.172   8.451
 1995POPC   C3B28869  27.888  28.199   8.018
 1995POPC   C4B28870  27.592  28.192   7.686
 1996POPC   NC328871  33.738  10.942   9.586
 1996POPC   PO428872  33.361  10.485   9.500
 1996POPC   GL128873  33.624  10.581   9.168
 1996POPC   GL228874  33.755  10.253   9.213
 1996POPC   C1A28875  33.692  10.724   8.730
 1996POPC   D2A28876  33.878  10.939   8.378
 1996POPC   C3A28877  33.845  10.662   8.019
 1996POPC   C4A28878  33.979  10.552   7.610
 1996POPC   C1B28879  33.712  10.213   8.767
 1996POPC   C2B28880  33.662  10.181   8.313
 1996POPC   C3B28881  33.874  10.134   7.900
 1996POPC   C4B28882  33.709  10.147   7.466
 1997POPC   NC328883  12.163  25.614   9.570
 1997POPC   PO428884  11.960  24.980   9.557
 1997POPC   GL128885  12.213  25.172   9.249
 1997POPC   GL228886  12.570  25.288   9.375
 1997POPC   C1A28887  12.103  25.115   8.808
 1997POPC   D2A28888  12.007  25.320   8.416
 1997POPC   C3A28889  12.008  25.125   8.087
 1997POPC   C4A28890  11.886  25.032   7.702
 1997POPC   C1B28891  12.580  25.306   8.929
 1997POPC   C2B28892  12.516  25.304   8.505
 1997POPC   C3B28893  12.413  25.423   8.100
 1997POPC   C4B28894  12.194  25.426   7.704
 1998POPC   NC328895  37.204  26.761   9.518
 1998POPC   PO428896  37.786  26.867   9.816
 1998POPC   GL128897  37.626  26.831   9.294
 1998POPC   GL228898  37.568  27.149   9.133
 1998POPC   C1A28899  37.763  26.709   8.860
 1998POPC   D2A28900  37.925  26.675   8.443
 1998POPC   C3A28901  37.657  26.657   8.052
 1998POPC   C4A28902  37.303  26.453   7.800
 1998POPC   C1B28903  37.871  27.208   8.785
 1998POPC   C2B28904  37.986  27.181   8.380
 1998POPC   C3B28905  37.857  27.161   7.984
 1998POPC   C4B28906  38.122  27.111   7.676
 1999POPC   NC328907  30.941  34.123   9.843
 1999POPC   PO428908  30.485  33.793   9.461
 1999POPC   GL128909  30.644  33.657   9.111
 1999POPC   GL228910  30.789  33.922   9.003
 1999POPC   C1A28911  30.525  33.516   8.722
 1999POPC   D2A28912  30.638  33.617   8.317
 1999POPC   C3A28913  30.364  33.510   8.000
 1999POPC   C4A28914  30.438  33.637   7.610
 1999POPC   C1B28915  31.096  33.829   8.749
 1999POPC   C2B28916  31.228  33.964   8.393
 1999POPC   C3B28917  31.041  33.908   8.006
 1999POPC   C4B28918  30.874  33.930   7.631
 2000POPC   NC328919  40.026  20.137   9.755
 2000POPC   PO428920  39.928  20.743   9.493
 2000POPC   GL128921  40.047  20.622   9.095
 2000POPC   GL228922  40.273  20.406   9.200
 2000POPC   C1A28923  39.928  20.474   8.677
 2000POPC   D2A28924  39.737  20.361   8.270
 2000POPC   C3A28925  39.682  20.687   7.961
 2000POPC   C4A28926  39.977  20.932   7.738
 2000POPC   C1B28927  40.432  20.384   8.805
 2000POPC   C2B28928  40.393  20.624   8.441
 2000POPC   C3B28929  40.185  20.556   8.053
 2000POPC   C4B28930  40.354  20.466   7.658
 2001POPC   NC328931  11.710  11.958   9.657
 2001POPC   PO428932  11.233  12.391   9.524
 2001POPC   GL128933  11.196  12.326   9.100
 2001POPC   GL228934  10.963  12.061   9.027
 2001POPC   C1A28935  10.937  12.496   8.775
 2001POPC   D2A28936  10.825  12.375   8.366
 2001POPC   C3A28937  11.144  12.356   8.087
 2001POPC   C4A28938  11.240  12.113   7.731
 2001POPC   C1B28939  11.183  12.074   8.601
 2001POPC   C2B28940  11.336  11.903   8.193
 2001POPC   C3B28941  11.167  11.627   7.845
 2001POPC   C4B28942  11.008  11.402   7.463
 2002POPC   NC328943  15.337  19.794   9.647
 2002POPC   PO428944  14.727  19.961   9.411
 2002POPC   GL128945  15.168  19.913   9.191
 2002POPC   GL228946  15.463  19.593   9.209
 2002POPC   C1A28947  15.255  19.999   8.758
 2002POPC   D2A28948  15.385  20.276   8.425
 2002POPC   C3A28949  15.338  20.107   8.002
 2002POPC   C4A28950  14.951  19.891   7.821
 2002POPC   C1B28951  15.157  19.493   8.903
 2002POPC   C2B28952  15.019  19.447   8.482
 2002POPC   C3B28953  15.172  19.506   8.077
 2002POPC   C4B28954  15.032  19.400   7.645
 2003POPC   NC328955   0.693  39.796   9.514
 2003POPC   PO428956   0.083  40.114   9.604
 2003POPC   GL128957   0.271  39.998   9.233
 2003POPC   GL228958   0.333  39.643   9.163
 2003POPC   C1A28959   0.267  40.005   8.799
 2003POPC   D2A28960   0.026  39.904   8.472
 2003POPC   C3A28961   0.206  39.933   8.082
 2003POPC   C4A28962   0.296  39.937   7.667
 2003POPC   C1B28963   0.542  39.592   8.760
 2003POPC   C2B28964   0.638  39.751   8.338
 2003POPC   C3B28965   0.733  39.926   7.934
 2003POPC   C4B28966   0.757  39.704   7.518
 2004POPC   NC328967  15.848  20.183   9.709
 2004POPC   PO428968  16.151  20.746   9.717
 2004POPC   GL128969  15.887  20.608   9.306
 2004POPC   GL228970  15.771  20.901   9.119
 2004POPC   C1A28971  15.800  20.522   8.788
 2004POPC   D2A28972  15.875  20.268   8.342
 2004POPC   C3A28973  15.986  20.463   7.939
 2004POPC   C4A28974  16.265  20.840   7.901
 2004POPC   C1B28975  15.831  21.070   8.684
 2004POPC   C2B28976  15.862  20.975   8.230
 2004POPC   C3B28977  15.769  20.917   7.794
 2004POPC   C4B28978  15.621  20.968   7.353
 2005POPC   NC328979   5.824  30.252   9.450
 2005POPC   PO428980   6.192  29.742   9.615
 2005POPC   GL128981   5.971  29.891   9.161
 2005POPC   GL228982   6.117  30.182   9.045
 2005POPC   C1A28983   5.785  29.942   8.728
 2005POPC   D2A28984   5.499  29.969   8.358
 2005POPC   C3A28985   5.743  30.044   7.998
 2005POPC   C4A28986   5.838  30.140   7.601
 2005POPC   C1B28987   6.275  30.122   8.635
 2005POPC   C2B28988   6.251  30.176   8.198
 2005POPC   C3B28989   6.237  29.912   7.849
 2005POPC   C4B28990   6.018  29.550   7.761
 2006POPC   NC328991  40.205   4.611   9.214
 2006POPC   PO428992  39.868   5.108   9.670
 2006POPC   GL128993  39.882   5.053   9.219
 2006POPC   GL228994  39.975   5.330   9.019
 2006POPC   C1A28995  39.857   4.900   8.781
 2006POPC   D2A28996  40.149   4.880   8.451
 2006POPC   C3A28997  39.941   5.016   8.100
 2006POPC   C4A28998  39.754   5.116   7.714
 2006POPC   C1B28999  40.191   5.345   8.645
 2006POPC   C2B29000  40.358   5.294   8.232
 2006POPC   C3B29001  40.202   5.364   7.812
 2006POPC   C4B29002  40.425   5.374   7.415
 2007POPC   NC329003   1.931  41.276   9.595
 2007POPC   PO429004   1.724  41.901   9.573
 2007POPC   GL129005   1.960  41.629   9.245
 2007POPC   GL229006   1.717  41.347   9.151
 2007POPC   C1A29007   2.165  41.744   8.846
 2007POPC   D2A29008   2.348  41.908   8.459
 2007POPC   C3A29009   2.022  41.948   8.134
 2007POPC   C4A29010   1.872  41.777   7.731
 2007POPC   C1B29011   1.924  41.306   8.761
 2007POPC   C2B29012   2.024  41.503   8.369
 2007POPC   C3B29013   2.156  41.412   7.943
 2007POPC   C4B29014   1.912  41.107   7.738
 2008POPC   NC329015  20.162  11.802   9.493
 2008POPC   PO429016  20.374  12.425   9.335
 2008POPC   GL129017  20.026  12.153   9.107
 2008POPC   GL229018  19.931  11.764   9.045
 2008POPC   C1A29019  19.846  12.111   8.683
 2008POPC   D2A29020  19.688  11.912   8.308
 2008POPC   C3A29021  19.736  12.175   7.927
 2008POPC   C4A29022  19.997  12.480   7.717
 2008POPC   C1B29023  20.153  11.646   8.648
 2008POPC   C2B29024  20.083  11.584   8.203
 2008POPC   C3B29025  19.779  11.672   7.866
 2008POPC   C4B29026  19.774  11.620   7.439
 2009POPC   NC329027  35.733  38.205   9.461
 2009POPC   PO429028  36.410  38.310   9.682
 2009POPC   GL129029  36.285  38.253   9.238
 2009POPC   GL229030  36.027  38.504   9.163
 2009POPC   C1A29031  36.407  38.427   8.803
 2009POPC   D2A29032  36.419  38.602   8.385
 2009POPC   C3A29033  36.373  38.328   8.019
 2009POPC   C4A29034  36.481  38.597   7.684
 2009POPC   C1B29035  35.967  38.174   8.822
 2009POPC   C2B29036  35.979  38.298   8.395
 2009POPC   C3B29037  35.986  38.652   8.094
 2009POPC   C4B29038  35.967  38.540   7.678
 2010POPC   NC329039  14.118  30.139   9.632
 2010POPC   PO429040  13.473  29.868   9.631
 2010POPC   GL129041  13.724  29.888   9.238
 2010POPC   GL229042  13.739  30.223   9.288
 2010POPC   C1A29043  13.574  29.713   8.829
 2010POPC   D2A29044  13.403  29.563   8.424
 2010POPC   C3A29045  13.574  29.774   8.032
 2010POPC   C4A29046  13.396  30.056   7.734
 2010POPC   C1B29047  13.585  30.225   8.867
 2010POPC   C2B29048  13.671  30.065   8.458
 2010POPC   C3B29049  13.716  30.274   8.081
 2010POPC   C4B29050  13.869  30.247   7.694
 2011POPC   NC329051  18.150  35.688   9.695
 2011POPC   PO429052  18.279  35.090   9.650
 2011POPC   GL129053  18.252  35.364   9.264
 2011POPC   GL229054  17.982  35.561   9.182
 2011POPC   C1A29055  18.330  35.282   8.828
 2011POPC   D2A29056  18.035  35.238   8.483
 2011POPC   C3A29057  18.222  35.344   8.106
 2011POPC   C4A29058  18.176  35.241   7.697
 2011POPC   C1B29059  18.048  35.719   8.747
 2011POPC   C2B29060  17.959  35.749   8.281
 2011POPC   C3B29061  17.821  35.585   7.859
 2011POPC   C4B29062  17.951  35.644   7.419
 2012POPC   NC329063  13.190   2.193   9.801
 2012POPC   PO429064  12.725   1.801   9.359
 2012POPC   GL129065  12.780   2.112   9.043
 2012POPC   GL229066  12.979   1.888   8.895
 2012POPC   C1A29067  12.798   2.313   8.684
 2012POPC   D2A29068  12.900   1.997   8.415
 2012POPC   C3A29069  12.841   2.171   8.080
 2012POPC   C4A29070  12.823   2.134   7.676
 2012POPC   C1B29071  13.415   1.776   8.825
 2012POPC   C2B29072  13.410   1.854   8.439
 2012POPC   C3B29073  13.178   1.705   8.088
 2012POPC   C4B29074  13.284   1.850   7.682
 2013POPC   NC329075  17.207   9.109   9.490
 2013POPC   PO429076  17.810   8.766   9.548
 2013POPC   GL129077  17.612   8.952   9.191
 2013POPC   GL229078  17.304   8.856   9.054
 2013POPC   C1A29079  17.612   9.135   8.773
 2013POPC   D2A29080  17.330   8.989   8.438
 2013POPC   C3A29081  17.426   9.085   7.993
 2013POPC   C4A29082  17.489   9.136   7.544
 2013POPC   C1B29083  17.541   8.627   8.760
 2013POPC   C2B29084  17.406   8.458   8.386
 2013POPC   C3B29085  17.354   8.578   7.974
 2013POPC   C4B29086  17.639   8.647   7.627
 2014POPC   NC329087  16.799  40.105   9.573
 2014POPC   PO429088  16.231  39.868   9.478
 2014POPC   GL129089  16.478  39.906   9.104
 2014POPC   GL229090  16.843  39.878   9.120
 2014POPC   C1A29091  16.640  39.866   8.660
 2014POPC   D2A29092  16.813  40.175   8.431
 2014POPC   C3A29093  16.656  40.276   8.038
 2014POPC   C4A29094  16.822  40.517   7.732
 2014POPC   C1B29095  17.098  39.704   8.770
 2014POPC   C2B29096  17.174  39.829   8.324
 2014POPC   C3B29097  16.921  39.840   7.911
 2014POPC   C4B29098  16.964  39.694   7.459
 2015POPC   NC329099   5.188  12.426   9.377
 2015POPC   PO429100   4.860  11.909   9.701
 2015POPC   GL129101   5.045  11.943   9.257
 2015POPC   GL229102   4.936  12.175   9.024
 2015POPC   C1A29103   5.346  11.937   8.882
 2015POPC   D2A29104   5.486  11.847   8.453
 2015POPC   C3A29105   5.246  12.092   8.163
 2015POPC   C4A29106   4.967  12.074   7.821
 2015POPC   C1B29107   4.690  12.185   8.670
 2015POPC   C2B29108   4.739  12.206   8.248
 2015POPC   C3B29109   4.561  12.345   7.878
 2015POPC   C4B29110   4.609  12.330   7.418
 2016POPC   NC329111  30.088  38.323   9.498
 2016POPC   PO429112  29.560  38.840   9.664
 2016POPC   GL129113  29.828  38.833   9.239
 2016POPC   GL229114  30.174  38.698   9.136
 2016POPC   C1A29115  29.812  38.697   8.764
 2016POPC   D2A29116  30.020  38.751   8.322
 2016POPC   C3A29117  29.743  38.629   7.956
 2016POPC   C4A29118  29.578  38.175   7.862
 2016POPC   C1B29119  30.229  38.329   8.813
 2016POPC   C2B29120  30.170  38.152   8.363
 2016POPC   C3B29121  30.124  38.307   7.911
 2016POPC   C4B29122  30.204  38.659   7.609
 2017POPC   NC329123   0.857  38.132   9.401
 2017POPC   PO429124   1.203  38.702   9.523
 2017POPC   GL129125   0.967  38.622   9.161
 2017POPC   GL229126   1.170  38.337   9.043
 2017POPC   C1A29127   0.865  38.610   8.727
 2017POPC   D2A29128   1.121  38.359   8.506
 2017POPC   C3A29129   1.152  38.470   8.114
 2017POPC   C4A29130   1.158  38.340   7.737
 2017POPC   C1B29131   1.508  38.140   8.798
 2017POPC   C2B29132   1.628  38.259   8.380
 2017POPC   C3B29133   1.589  38.162   7.969
 2017POPC   C4B29134   1.641  38.023   7.535
 2018POPC   NC329135   5.288  15.707   9.468
 2018POPC   PO429136   4.655  16.088   9.533
 2018POPC   GL129137   4.877  15.891   9.199
 2018POPC   GL229138   5.142  16.116   9.161
 2018POPC   C1A29139   5.034  15.759   8.788
 2018POPC   D2A29140   4.872  15.844   8.392
 2018POPC   C3A29141   5.022  15.740   8.001
 2018POPC   C4A29142   4.734  15.776   7.667
 2018POPC   C1B29143   5.233  16.238   8.747
 2018POPC   C2B29144   5.026  16.326   8.380
 2018POPC   C3B29145   4.883  16.220   7.954
 2018POPC   C4B29146   5.097  16.177   7.561
 2019POPC   NC329147  14.243   0.894   9.330
 2019POPC   PO429148  14.642   1.495   9.448
 2019POPC   GL129149  14.497   1.305   9.123
 2019POPC   GL229150  14.717   1.018   9.119
 2019POPC   C1A29151  14.360   1.443   8.734
 2019POPC   D2A29152  14.136   1.439   8.358
 2019POPC   C3A29153  14.263   1.572   7.971
 2019POPC   C4A29154  14.184   1.340   7.607
 2019POPC   C1B29155  14.485   0.931   8.730
 2019POPC   C2B29156  14.421   1.017   8.314
 2019POPC   C3B29157  14.295   0.907   7.898
 2019POPC   C4B29158  14.146   0.843   7.441
 2020POPC   NC329159   5.880   4.844   9.668
 2020POPC   PO429160   6.044   5.419   9.350
 2020POPC   GL129161   5.962   5.066   9.175
 2020POPC   GL229162   6.256   4.931   9.031
 2020POPC   C1A29163   5.666   4.890   8.895
 2020POPC   D2A29164   5.563   4.679   8.495
 2020POPC   C3A29165   5.693   4.942   8.146
 2020POPC   C4A29166   5.694   4.989   7.680
 2020POPC   C1B29167   6.088   5.120   8.669
 2020POPC   C2B29168   6.218   5.233   8.264
 2020POPC   C3B29169   6.143   5.078   7.867
 2020POPC   C4B29170   6.139   4.763   7.535
 2021POPC   NC329171  38.305  10.748   9.730
 2021POPC   PO429172  38.829  10.390   9.619
 2021POPC   GL129173  38.474  10.424   9.325
 2021POPC   GL229174  38.241  10.738   9.242
 2021POPC   C1A29175  38.483  10.493   8.893
 2021POPC   D2A29176  38.580  10.689   8.554
 2021POPC   C3A29177  38.510  10.583   8.140
 2021POPC   C4A29178  38.429  10.418   7.728
 2021POPC   C1B29179  38.158  10.897   8.830
 2021POPC   C2B29180  38.084  10.702   8.432
 2021POPC   C3B29181  38.090  10.846   8.008
 2021POPC   C4B29182  37.984  10.650   7.645
 2022POPC   NC329183  35.998  26.025   9.320
 2022POPC   PO429184  36.324  26.586   9.403
 2022POPC   GL129185  36.090  26.439   9.006
 2022POPC   GL229186  35.832  26.130   8.867
 2022POPC   C1A29187  36.133  26.393   8.562
 2022POPC   D2A29188  36.102  25.971   8.362
 2022POPC   C3A29189  36.082  26.057   7.939
 2022POPC   C4A29190  36.195  26.457   7.785
 2022POPC   C1B29191  35.842  25.696   8.713
 2022POPC   C2B29192  35.920  25.443   8.349
 2022POPC   C3B29193  35.867  25.590   7.945
 2022POPC   C4B29194  35.822  25.766   7.486
 2023POPC   NC329195  37.981  42.291   9.519
 2023POPC   PO429196  37.438  42.605   9.629
 2023POPC   GL129197  37.571  42.401   9.213
 2023POPC   GL229198  37.524  42.047   9.230
 2023POPC   C1A29199  37.874  42.288   8.829
 2023POPC   D2A29200  38.060  42.362   8.392
 2023POPC   C3A29201  37.779  42.443   8.003
 2023POPC   C4A29202  37.583  42.548   7.584
 2023POPC   C1B29203  37.407  42.097   8.796
 2023POPC   C2B29204  37.502  42.304   8.418
 2023POPC   C3B29205  37.473  42.014   8.059
 2023POPC   C4B29206  37.653  41.987   7.670
 2024POPC   NC329207  40.621  14.289   9.691
 2024POPC   PO429208  40.129  14.064   9.561
 2024POPC   GL129209  40.473  14.109   9.229
 2024POPC   GL229210  40.805  14.310   9.208
 2024POPC   C1A29211  40.508  14.155   8.790
 2024POPC   D2A29212  40.281  14.342   8.449
 2024POPC   C3A29213  40.417  14.167   8.067
 2024POPC   C4A29214  40.378  14.240   7.583
 2024POPC   C1B29215  40.928  14.449   8.787
 2024POPC   C2B29216  40.724  14.589   8.393
 2024POPC   C3B29217  40.777  14.987   8.138
 2024POPC   C4B29218  40.487  15.121   7.763
 2025POPC   NC329219   6.049  41.301   9.228
 2025POPC   PO429220   5.556  41.669   9.447
 2025POPC   GL129221   5.638  41.527   9.037
 2025POPC   GL229222   5.578  41.132   9.075
 2025POPC   C1A29223   5.944  41.704   8.720
 2025POPC   D2A29224   6.174  41.675   8.318
 2025POPC   C3A29225   5.939  41.710   7.941
 2025POPC   C4A29226   5.732  41.919   7.621
 2025POPC   C1B29227   5.707  41.209   8.638
 2025POPC   C2B29228   6.015  41.165   8.359
 2025POPC   C3B29229   6.132  41.235   7.990
 2025POPC   C4B29230   5.877  41.266   7.658
 2026POPC   NC329231   7.181   3.737   9.589
 2026POPC   PO429232   7.757   3.436   9.434
 2026POPC   GL129233   7.623   3.631   9.058
 2026POPC   GL229234   7.268   3.616   9.088
 2026POPC   C1A29235   7.504   3.561   8.617
 2026POPC   D2A29236   7.238   3.685   8.298
 2026POPC   C3A29237   7.501   3.609   7.958
 2026POPC   C4A29238   7.461   3.826   7.597
 2026POPC   C1B29239   7.172   3.230   8.832
 2026POPC   C2B29240   7.227   3.138   8.385
 2026POPC   C3B29241   7.081   3.284   7.987
 2026POPC   C4B29242   7.253   3.344   7.590
 2027POPC   NC329243  19.365  24.203   9.412
 2027POPC   PO429244  19.320  23.458   9.394
 2027POPC   GL129245  19.059  23.499   9.030
 2027POPC   GL229246  18.919  23.804   9.126
 2027POPC   C1A29247  19.056  23.658   8.607
 2027POPC   D2A29248  19.405  23.786   8.343
 2027POPC   C3A29249  19.372  23.580   7.941
 2027POPC   C4A29250  19.057  23.616   7.585
 2027POPC   C1B29251  18.678  24.034   8.826
 2027POPC   C2B29252  18.635  23.886   8.430
 2027POPC   C3B29253  18.905  23.813   8.066
 2027POPC   C4B29254  18.895  24.082   7.735
 2028POPC   NC329255  40.589  36.584   9.437
 2028POPC   PO429256  41.103  36.158   9.353
 2028POPC   GL129257  40.842  36.033   9.029
 2028POPC   GL229258  40.670  36.350   8.999
 2028POPC   C1A29259  40.731  36.057   8.586
 2028POPC   D2A29260  40.709  35.807   8.236
 2028POPC   C3A29261  40.951  36.021   7.918
 2028POPC   C4A29262  40.902  36.030   7.459
 2028POPC   C1B29263  40.323  36.082   8.902
 2028POPC   C2B29264  40.221  36.017   8.470
 2028POPC   C3B29265  40.414  36.225   8.128
 2028POPC   C4B29266  40.470  36.079   7.741
 2029POPC   NC329267  37.900  28.083   9.472
 2029POPC   PO429268  37.238  28.229   9.250
 2029POPC   GL129269  37.695  28.455   9.141
 2029POPC   GL229270  38.020  28.273   9.023
 2029POPC   C1A29271  37.804  28.605   8.716
 2029POPC   D2A29272  37.453  28.621   8.460
 2029POPC   C3A29273  37.432  28.395   8.061
 2029POPC   C4A29274  37.639  28.512   7.687
 2029POPC   C1B29275  37.709  28.097   8.763
 2029POPC   C2B29276  37.802  28.210   8.366
 2029POPC   C3B29277  37.961  28.183   7.976
 2029POPC   C4B29278  37.734  28.012   7.667
 2030POPC   NC329279  39.429  28.153   9.456
 2030POPC   PO429280  39.220  27.489   9.468
 2030POPC   GL129281  39.434  27.685   9.179
 2030POPC   GL229282  39.416  27.396   8.959
 2030POPC   C1A29283  39.258  27.881   8.822
 2030POPC   D2A29284  39.267  27.668   8.423
 2030POPC   C3A29285  39.256  28.004   8.115
 2030POPC   C4A29286  39.236  28.035   7.673
 2030POPC   C1B29287  39.713  27.657   8.719
 2030POPC   C2B29288  39.733  27.820   8.287
 2030POPC   C3B29289  39.511  27.597   7.931
 2030POPC   C4B29290  39.733  27.558   7.550
 2031POPC   NC329291  24.180  18.871   9.456
 2031POPC   PO429292  23.635  19.176   9.410
 2031POPC   GL129293  23.876  19.064   9.078
 2031POPC   GL229294  23.850  18.739   9.094
 2031POPC   C1A29295  23.966  19.186   8.670
 2031POPC   D2A29296  23.705  19.109   8.349
 2031POPC   C3A29297  23.703  19.267   7.974
 2031POPC   C4A29298  23.314  19.439   7.887
 2031POPC   C1B29299  23.823  18.675   8.668
 2031POPC   C2B29300  23.846  18.642   8.232
 2031POPC   C3B29301  23.822  18.744   7.811
 2031POPC   C4B29302  23.905  18.653   7.384
 2032POPC   NC329303  43.493  37.488   9.566
 2032POPC   PO429304  44.127  37.780   9.665
 2032POPC   GL129305  44.113  37.517   9.257
 2032POPC   GL229306  43.820  37.463   9.143
 2032POPC   C1A29307  44.202  37.542   8.808
 2032POPC   D2A29308  44.036  37.739   8.452
 2032POPC   C3A29309  44.144  37.609   8.038
 2032POPC   C4A29310  43.996  37.711   7.651
 2032POPC   C1B29311  43.600  37.448   8.745
 2032POPC   C2B29312  43.665  37.446   8.309
 2032POPC   C3B29313  43.598  37.714   7.998
 2032POPC   C4B29314  43.394  37.727   7.628
 2033POPC   NC329315  37.944  22.133   9.744
 2033POPC   PO429316  37.479  22.409   9.432
 2033POPC   GL129317  37.778  22.109   9.243
 2033POPC   GL229318  37.976  22.366   9.209
 2033POPC   C1A29319  37.905  21.947   8.837
 2033POPC   D2A29320  37.683  22.052   8.456
 2033POPC   C3A29321  37.678  21.874   8.069
 2033POPC   C4A29322  37.582  21.843   7.667
 2033POPC   C1B29323  37.680  22.425   8.821
 2033POPC   C2B29324  37.627  22.567   8.406
 2033POPC   C3B29325  37.594  22.401   7.997
 2033POPC   C4B29326  37.947  22.278   7.796
 2034POPC   NC329327  10.049  29.018   9.455
 2034POPC   PO429328   9.580  29.509   9.639
 2034POPC   GL129329   9.615  29.232   9.216
 2034POPC   GL229330   9.939  29.334   9.078
 2034POPC   C1A29331   9.687  29.011   8.782
 2034POPC   D2A29332   9.753  29.130   8.334
 2034POPC   C3A29333   9.977  28.925   8.018
 2034POPC   C4A29334   9.875  28.889   7.573
 2034POPC   C1B29335  10.095  29.326   8.662
 2034POPC   C2B29336  10.252  29.425   8.259
 2034POPC   C3B29337  10.015  29.446   7.954
 2034POPC   C4B29338   9.645  29.278   7.797
 2035POPC   NC329339  36.647  43.363   9.885
 2035POPC   PO429340  36.772  42.862   9.466
 2035POPC   GL129341  37.081  42.867   9.135
 2035POPC   GL229342  36.849  42.920   8.886
 2035POPC   C1A29343  37.307  43.184   8.872
 2035POPC   D2A29344  37.400  43.160   8.427
 2035POPC   C3A29345  37.028  42.996   8.185
 2035POPC   C4A29346  36.760  43.077   7.781
 2035POPC   C1B29347  36.480  43.030   8.647
 2035POPC   C2B29348  36.576  43.214   8.273
 2035POPC   C3B29349  36.467  43.471   7.940
 2035POPC   C4B29350  36.216  43.252   7.646
 2036POPC   NC329351  42.395  34.971   9.521
 2036POPC   PO429352  42.504  35.668   9.452
 2036POPC   GL129353  42.406  35.319   9.155
 2036POPC   GL229354  42.663  35.018   9.103
 2036POPC   C1A29355  42.215  35.238   8.757
 2036POPC   D2A29356  42.176  35.499   8.413
 2036POPC   C3A29357  42.225  35.257   8.073
 2036POPC   C4A29358  42.181  35.375   7.699
 2036POPC   C1B29359  42.736  35.295   8.770
 2036POPC   C2B29360  42.650  35.221   8.364
 2036POPC   C3B29361  42.718  35.333   7.952
 2036POPC   C4B29362  42.617  35.124   7.593
 2037POPC   NC329363  28.017  18.574   9.239
 2037POPC   PO429364  28.344  18.134   9.629
 2037POPC   GL129365  28.467  18.264   9.204
 2037POPC   GL229366  28.726  18.514   9.107
 2037POPC   C1A29367  28.367  18.197   8.770
 2037POPC   D2A29368  28.172  18.060   8.385
 2037POPC   C3A29369  28.304  18.205   7.966
 2037POPC   C4A29370  28.299  18.210   7.493
 2037POPC   C1B29371  28.484  18.711   8.750
 2037POPC   C2B29372  28.094  18.589   8.489
 2037POPC   C3B29373  27.985  18.607   8.039
 2037POPC   C4B29374  28.354  18.689   7.730
 2038POPC   NC329375  33.285  39.052   9.828
 2038POPC   PO429376  32.691  38.988   9.544
 2038POPC   GL129377  32.812  38.987   9.119
 2038POPC   GL229378  32.923  39.316   9.089
 2038POPC   C1A29379  32.990  39.008   8.691
 2038POPC   D2A29380  32.847  39.169   8.323
 2038POPC   C3A29381  33.042  39.018   7.970
 2038POPC   C4A29382  33.333  39.003   7.646
 2038POPC   C1B29383  33.096  39.612   8.788
 2038POPC   C2B29384  33.280  39.580   8.369
 2038POPC   C3B29385  33.403  39.427   7.965
 2038POPC   C4B29386  33.065  39.434   7.665
 2039POPC   NC329387  18.628  30.245   9.335
 2039POPC   PO429388  18.125  30.747   9.526
 2039POPC   GL129389  18.369  30.682   9.146
 2039POPC   GL229390  18.527  30.949   8.979
 2039POPC   C1A29391  18.476  30.481   8.741
 2039POPC   D2A29392  18.611  30.661   8.353
 2039POPC   C3A29393  18.610  30.467   7.967
 2039POPC   C4A29394  18.225  30.516   7.788
 2039POPC   C1B29395  18.157  30.890   8.722
 2039POPC   C2B29396  18.190  31.032   8.328
 2039POPC   C3B29397  18.419  30.964   7.970
 2039POPC   C4B29398  18.466  31.090   7.566
 2040POPC   NC329399  10.086  22.386   9.553
 2040POPC   PO429400   9.534  21.947   9.651
 2040POPC   GL129401   9.804  21.999   9.296
 2040POPC   GL229402   9.771  22.329   9.120
 2040POPC   C1A29403   9.921  21.853   8.884
 2040POPC   D2A29404  10.000  22.128   8.541
 2040POPC   C3A29405   9.891  22.066   8.096
 2040POPC   C4A29406   9.628  21.991   7.739
 2040POPC   C1B29407   9.448  22.545   8.847
 2040POPC   C2B29408   9.353  22.693   8.403
 2040POPC   C3B29409   9.551  22.584   8.003
 2040POPC   C4B29410   9.868  22.456   7.706
 2041POPC   NC329411  25.595  31.465   9.634
 2041POPC   PO429412  25.111  31.799   9.400
 2041POPC   GL129413  25.354  31.499   9.154
 2041POPC   GL229414  25.692  31.646   9.172
 2041POPC   C1A29415  25.276  31.538   8.704
 2041POPC   D2A29416  24.940  31.557   8.396
 2041POPC   C3A29417  25.075  31.437   7.982
 2041POPC   C4A29418  25.249  31.299   7.605
 2041POPC   C1B29419  25.778  31.818   8.781
 2041POPC   C2B29420  25.506  31.919   8.449
 2041POPC   C3B29421  25.688  31.886   8.058
 2041POPC   C4B29422  25.386  31.807   7.719
 2042POPC   NC329423  14.397  31.698   9.585
 2042POPC   PO429424  14.354  32.314   9.404
 2042POPC   GL129425  14.297  32.082   9.120
 2042POPC   GL229426  13.981  31.940   9.222
 2042POPC   C1A29427  14.420  32.267   8.710
 2042POPC   D2A29428  14.324  32.660   8.445
 2042POPC   C3A29429  14.447  32.548   8.041
 2042POPC   C4A29430  14.569  32.108   7.906
 2042POPC   C1B29431  13.948  32.070   8.763
 2042POPC   C2B29432  14.091  32.214   8.329
 2042POPC   C3B29433  14.075  31.890   8.037
 2042POPC   C4B29434  13.972  31.829   7.632
 2043POPC   NC329435   9.191   3.683   9.363
 2043POPC   PO429436   9.923   3.578   9.465
 2043POPC   GL129437   9.738   3.497   9.102
 2043POPC   GL229438   9.611   3.808   9.097
 2043POPC   C1A29439   9.800   3.495   8.674
 2043POPC   D2A29440   9.787   3.661   8.277
 2043POPC   C3A29441   9.924   3.390   8.018
 2043POPC   C4A29442   9.831   3.214   7.671
 2043POPC   C1B29443   9.917   3.991   8.804
 2043POPC   C2B29444  10.194   3.944   8.445
 2043POPC   C3B29445  10.234   3.816   8.020
 2043POPC   C4B29446   9.913   3.793   7.715
 2044POPC   NC329447  32.668  26.683   9.376
 2044POPC   PO429448  32.223  27.055   9.784
 2044POPC   GL129449  32.406  27.101   9.221
 2044POPC   GL229450  32.379  26.786   8.967
 2044POPC   C1A29451  32.604  27.098   8.697
 2044POPC   D2A29452  32.428  26.737   8.407
 2044POPC   C3A29453  32.435  26.898   7.958
 2044POPC   C4A29454  32.260  26.996   7.530
 2044POPC   C1B29455  32.031  26.590   8.720
 2044POPC   C2B29456  31.885  26.692   8.332
 2044POPC   C3B29457  31.765  26.517   7.951
 2044POPC   C4B29458  32.133  26.539   7.707
 2045POPC   NC329459   9.994  30.933   9.504
 2045POPC   PO429460   9.777  30.245   9.530
 2045POPC   GL129461   9.796  30.546   9.218
 2045POPC   GL229462  10.132  30.510   9.194
 2045POPC   C1A29463   9.763  30.742   8.807
 2045POPC   D2A29464   9.583  30.854   8.412
 2045POPC   C3A29465   9.715  30.749   8.036
 2045POPC   C4A29466   9.558  30.705   7.647
 2045POPC   C1B29467  10.122  30.374   8.755
 2045POPC   C2B29468   9.873  30.373   8.379
 2045POPC   C3B29469  10.034  30.362   7.973
 2045POPC   C4B29470  10.053  30.619   7.654
 2046POPC   NC329471  32.402  39.422   9.540
 2046POPC   PO429472  32.183  38.664   9.641
 2046POPC   GL129473  32.284  39.017   9.187
 2046POPC   GL229474  32.405  39.376   9.054
 2046POPC   C1A29475  32.454  39.040   8.692
 2046POPC   D2A29476  32.371  38.891   8.227
 2046POPC   C3A29477  32.542  39.136   7.898
 2046POPC   C4A29478  32.499  39.476   7.608
 2046POPC   C1B29479  32.094  39.436   8.747
 2046POPC   C2B29480  31.992  39.580   8.379
 2046POPC   C3B29481  32.163  39.455   8.019
 2046POPC   C4B29482  31.947  39.473   7.651
 2047POPC   NC329483   8.172  26.285   9.596
 2047POPC   PO429484   8.507  26.939   9.437
 2047POPC   GL129485   8.460  26.835   9.043
 2047POPC   GL229486   8.095  26.789   9.082
 2047POPC   C1A29487   8.276  26.918   8.620
 2047POPC   D2A29488   7.916  26.875   8.327
 2047POPC   C3A29489   8.109  26.983   7.967
 2047POPC   C4A29490   8.454  26.825   7.781
 2047POPC   C1B29491   7.967  26.530   8.695
 2047POPC   C2B29492   7.999  26.376   8.262
 2047POPC   C3B29493   7.928  26.533   7.851
 2047POPC   C4B29494   8.070  26.736   7.465
 2048POPC   NC329495  13.078  11.508   9.376
 2048POPC   PO429496  13.509  11.052   9.726
 2048POPC   GL129497  13.508  11.240   9.241
 2048POPC   GL229498  13.785  11.475   9.127
 2048POPC   C1A29499  13.555  11.252   8.755
 2048POPC   D2A29500  13.585  11.506   8.390
 2048POPC   C3A29501  13.775  11.304   8.083
 2048POPC   C4A29502  13.542  11.408   7.738
 2048POPC   C1B29503  13.975  11.541   8.727
 2048POPC   C2B29504  14.106  11.705   8.304
 2048POPC   C3B29505  14.062  11.637   7.846
 2048POPC   C4B29506  13.891  11.762   7.478
 2049POPC   NC329507  30.020  17.660   9.383
 2049POPC   PO429508  29.642  17.216   9.425
 2049POPC   GL129509  29.609  17.450   9.086
 2049POPC   GL229510  29.898  17.279   8.933
 2049POPC   C1A29511  29.668  17.665   8.708
 2049POPC   D2A29512  29.923  17.501   8.393
 2049POPC   C3A29513  29.795  17.507   7.973
 2049POPC   C4A29514  29.926  17.219   7.635
 2049POPC   C1B29515  30.236  17.583   8.797
 2049POPC   C2B29516  30.425  17.753   8.434
 2049POPC   C3B29517  30.172  17.845   8.104
 2049POPC   C4B29518  30.162  17.693   7.699
 2050POPC   NC329519   2.571  22.549   9.473
 2050POPC   PO429520   3.062  23.084   9.558
 2050POPC   GL129521   2.671  23.071   9.272
 2050POPC   GL229522   2.834  22.820   9.115
 2050POPC   C1A29523   2.547  23.073   8.791
 2050POPC   D2A29524   2.608  22.936   8.372
 2050POPC   C3A29525   2.473  23.191   8.005
 2050POPC   C4A29526   2.750  23.302   7.703
 2050POPC   C1B29527   3.032  22.865   8.709
 2050POPC   C2B29528   3.014  22.601   8.335
 2050POPC   C3B29529   3.128  22.556   7.925
 2050POPC   C4B29530   3.064  22.886   7.697
 2051POPC   NC329531  31.358  16.231   9.551
 2051POPC   PO429532  31.228  16.901   9.566
 2051POPC   GL129533  31.215  16.812   9.157
 2051POPC   GL229534  31.132  16.469   9.120
 2051POPC   C1A29535  31.570  16.833   8.858
 2051POPC   D2A29536  31.730  16.592   8.507
 2051POPC   C3A29537  31.738  16.772   8.094
 2051POPC   C4A29538  31.832  16.526   7.740
 2051POPC   C1B29539  31.237  16.513   8.678
 2051POPC   C2B29540  31.246  16.724   8.278
 2051POPC   C3B29541  31.224  16.661   7.838
 2051POPC   C4B29542  30.973  16.361   7.562
 2052POPC   NC329543  29.395  13.179   9.288
 2052POPC   PO429544  29.200  13.801   9.526
 2052POPC   GL129545  29.243  13.716   9.109
 2052POPC   GL229546  28.974  13.511   9.156
 2052POPC   C1A29547  29.430  13.890   8.727
 2052POPC   D2A29548  29.215  13.818   8.358
 2052POPC   C3A29549  29.233  13.448   8.147
 2052POPC   C4A29550  29.383  13.591   7.791
 2052POPC   C1B29551  28.925  13.620   8.730
 2052POPC   C2B29552  28.711  13.805   8.381
 2052POPC   C3B29553  28.862  13.740   7.978
 2052POPC   C4B29554  28.914  13.362   7.762
 2053POPC   NC329555  10.701   1.568   9.460
 2053POPC   PO429556  10.125   1.221   9.474
 2053POPC   GL129557  10.303   1.089   9.103
 2053POPC   GL229558  10.640   1.167   9.106
 2053POPC   C1A29559  10.411   0.906   8.692
 2053POPC   D2A29560  10.199   0.925   8.298
 2053POPC   C3A29561  10.432   1.073   7.956
 2053POPC   C4A29562  10.428   1.170   7.497
 2053POPC   C1B29563  10.777   1.243   8.680
 2053POPC   C2B29564  10.795   0.960   8.356
 2053POPC   C3B29565  10.906   1.217   8.089
 2053POPC   C4B29566  10.764   1.429   7.756
 2054POPC   NC329567  44.415  11.281   9.627
 2054POPC   PO429568  44.700  11.771   9.634
 2054POPC   GL129569  44.673  11.542   9.196
 2054POPC   GL229570  44.526  11.215   9.113
 2054POPC   C1A29571  44.584  11.528   8.728
 2054POPC   D2A29572  44.627  11.186   8.407
 2054POPC   C3A29573  44.727  11.377   8.005
 2054POPC   C4A29574  44.979  11.740   7.864
 2054POPC   C1B29575  44.943  11.197   8.855
 2054POPC   C2B29576   0.145  11.047   8.451
 2054POPC   C3B29577  44.968  10.931   8.050
 2054POPC   C4B29578  44.650  10.935   7.704
 2055POPC   NC329579   7.617   4.823   9.805
 2055POPC   PO429580   7.147   5.123   9.418
 2055POPC   GL129581   7.415   5.256   9.094
 2055POPC   GL229582   7.262   5.010   8.908
 2055POPC   C1A29583   7.661   5.218   8.706
 2055POPC   D2A29584   7.454   5.337   8.324
 2055POPC   C3A29585   7.528   5.065   8.002
 2055POPC   C4A29586   7.642   5.005   7.546
 2055POPC   C1B29587   7.046   5.263   8.696
 2055POPC   C2B29588   7.010   5.017   8.353
 2055POPC   C3B29589   7.000   5.119   7.953
 2055POPC   C4B29590   7.157   4.882   7.648
 2056POPC   NC329591   9.449  42.932   9.532
 2056POPC   PO429592  10.108  42.763   9.619
 2056POPC   GL129593   9.883  42.980   9.249
 2056POPC   GL229594   9.642  43.295   9.228
 2056POPC   C1A29595   9.773  43.000   8.808
 2056POPC   D2A29596   9.953  42.836   8.429
 2056POPC   C3A29597   9.838  42.905   8.017
 2056POPC   C4A29598   9.469  42.976   7.807
 2056POPC   C1B29599   9.446  43.422   8.818
 2056POPC   C2B29600   9.464  43.236   8.394
 2056POPC   C3B29601   9.652  43.397   8.020
 2056POPC   C4B29602   9.918  43.306   7.681
 2057POPC   NC329603  25.632   5.868   9.597
 2057POPC   PO429604  26.282   6.042   9.420
 2057POPC   GL129605  26.152   5.943   9.052
 2057POPC   GL229606  25.775   5.917   9.054
 2057POPC   C1A29607  26.139   6.086   8.646
 2057POPC   D2A29608  25.913   5.869   8.329
 2057POPC   C3A29609  26.188   5.834   8.001
 2057POPC   C4A29610  26.425   5.522   7.769
 2057POPC   C1B29611  25.665   6.250   8.711
 2057POPC   C2B29612  25.834   6.359   8.308
 2057POPC   C3B29613  25.610   6.340   7.939
 2057POPC   C4B29614  25.796   6.013   7.682
 2058POPC   NC329615  28.902   5.630   9.561
 2058POPC   PO429616  29.526   5.780   9.365
 2058POPC   GL129617  29.156   5.860   9.145
 2058POPC   GL229618  29.278   6.206   9.100
 2058POPC   C1A29619  28.982   5.724   8.754
 2058POPC   D2A29620  29.097   5.800   8.318
 2058POPC   C3A29621  28.878   5.619   7.937
 2058POPC   C4A29622  29.113   5.539   7.548
 2058POPC   C1B29623  29.135   6.196   8.675
 2058POPC   C2B29624  29.245   6.271   8.243
 2058POPC   C3B29625  29.135   6.051   7.844
 2058POPC   C4B29626  29.171   6.034   7.390
 2059POPC   NC329627   4.248  30.466   9.552
 2059POPC   PO429628   4.254  29.779   9.397
 2059POPC   GL129629   4.032  29.859   9.010
 2059POPC   GL229630   4.120  30.199   9.068
 2059POPC   C1A29631   4.134  29.899   8.603
 2059POPC   D2A29632   4.542  29.738   8.514
 2059POPC   C3A29633   4.551  29.670   8.078
 2059POPC   C4A29634   4.228  29.864   7.831
 2059POPC   C1B29635   4.476  30.241   8.742
 2059POPC   C2B29636   4.409  30.213   8.276
 2059POPC   C3B29637   4.238  30.367   7.859
 2059POPC   C4B29638   4.427  30.276   7.445
 2060POPC   NC329639  36.956  23.406   9.527
 2060POPC   PO429640  36.481  23.920   9.655
 2060POPC   GL129641  36.610  23.617   9.243
 2060POPC   GL229642  36.981  23.685   9.071
 2060POPC   C1A29643  36.635  23.552   8.749
 2060POPC   D2A29644  36.965  23.609   8.419
 2060POPC   C3A29645  36.761  23.561   8.016
 2060POPC   C4A29646  36.412  23.764   7.874
 2060POPC   C1B29647  37.273  23.949   8.778
 2060POPC   C2B29648  37.232  24.068   8.322
 2060POPC   C3B29649  37.187  23.823   7.941
 2060POPC   C4B29650  37.224  23.909   7.476
 2061POPC   NC329651  19.785  38.233   9.390
 2061POPC   PO429652  19.543  38.837   9.405
 2061POPC   GL129653  19.746  38.639   9.059
 2061POPC   GL229654  20.084  38.699   8.962
 2061POPC   C1A29655  19.789  38.464   8.656
 2061POPC   D2A29656  19.776  38.593   8.274
 2061POPC   C3A29657  19.868  38.397   7.956
 2061POPC   C4A29658  19.655  38.285   7.617
 2061POPC   C1B29659  20.214  38.246   8.794
 2061POPC   C2B29660  20.044  38.098   8.378
 2061POPC   C3B29661  20.232  38.069   7.980
 2061POPC   C4B29662  20.160  38.245   7.532
 2062POPC   NC329663  40.170   5.401   9.479
 2062POPC   PO429664  39.923   5.969   9.419
 2062POPC   GL129665  39.696   5.760   9.117
 2062POPC   GL229666  39.608   5.483   9.351
 2062POPC   C1A29667  39.730   5.760   8.642
 2062POPC   D2A29668  39.980   5.647   8.223
 2062POPC   C3A29669  40.022   5.873   7.776
 2062POPC   C4A29670  40.190   5.894   7.323
 2062POPC   C1B29671  39.475   5.348   8.926
 2062POPC   C2B29672  39.670   5.282   8.517
 2062POPC   C3B29673  39.566   5.388   8.115
 2062POPC   C4B29674  39.591   5.608   7.771
 2063POPC   NC329675  12.582   0.460   9.430
 2063POPC   PO429676  13.083   0.869   9.413
 2063POPC   GL129677  12.929   0.642   9.060
 2063POPC   GL229678  12.650   0.782   8.969
 2063POPC   C1A29679  12.824   0.431   8.643
 2063POPC   D2A29680  13.001   0.418   8.249
 2063POPC   C3A29681  12.841   0.195   7.920
 2063POPC   C4A29682  12.713   0.284   7.519
 2063POPC   C1B29683  13.040   0.897   8.637
 2063POPC   C2B29684  13.078   0.905   8.182
 2063POPC   C3B29685  12.972   0.695   7.786
 2063POPC   C4B29686  13.064   0.719   7.360
 2064POPC   NC329687   2.215  30.170   9.354
 2064POPC   PO429688   1.628  29.858   9.263
 2064POPC   GL129689   1.859  29.677   8.965
 2064POPC   GL229690   2.188  29.633   9.091
 2064POPC   C1A29691   2.099  29.970   8.692
 2064POPC   D2A29692   2.046  30.231   8.325
 2064POPC   C3A29693   2.161  30.094   7.899
 2064POPC   C4A29694   1.917  30.227   7.530
 2064POPC   C1B29695   2.215  29.471   8.646
 2064POPC   C2B29696   2.061  29.681   8.262
 2064POPC   C3B29697   1.719  29.881   8.031
 2064POPC   C4B29698   1.865  29.729   7.648
 2065POPC   NC329699   9.199  36.352   9.298
 2065POPC   PO429700   8.839  35.979   9.656
 2065POPC   GL129701   8.833  36.041   9.157
 2065POPC   GL229702   8.760  36.410   9.039
 2065POPC   C1A29703   8.983  36.142   8.698
 2065POPC   D2A29704   8.880  36.161   8.254
 2065POPC   C3A29705   9.183  35.975   8.009
 2065POPC   C4A29706   9.323  35.897   7.605
 2065POPC   C1B29707   8.805  36.623   8.640
 2065POPC   C2B29708   9.002  36.704   8.256
 2065POPC   C3B29709   8.962  36.508   7.852
 2065POPC   C4B29710   8.794  36.125   7.707
 2066POPC   NC329711   1.473  21.924   9.835
 2066POPC   PO429712   1.458  22.290   9.320
 2066POPC   GL129713   1.416  22.056   9.013
 2066POPC   GL229714   1.063  21.987   8.977
 2066POPC   C1A29715   1.360  22.170   8.585
 2066POPC   D2A29716   1.441  22.312   8.164
 2066POPC   C3A29717   1.530  22.018   7.850
 2066POPC   C4A29718   1.304  22.256   7.588
 2066POPC   C1B29719   0.791  22.032   8.634
 2066POPC   C2B29720   0.927  22.212   8.258
 2066POPC   C3B29721   1.009  21.987   7.882
 2066POPC   C4B29722   0.989  21.895   7.426
 2067POPC   NC329723  11.489   1.220   9.641
 2067POPC   PO429724  11.056   1.463   9.202
 2067POPC   GL129725  11.500   1.508   9.178
 2067POPC   GL229726  11.543   1.135   9.147
 2067POPC   C1A29727  11.549   1.595   8.749
 2067POPC   D2A29728  11.245   1.401   8.484
 2067POPC   C3A29729  11.357   1.460   8.071
 2067POPC   C4A29730  11.243   1.234   7.714
 2067POPC   C1B29731  11.663   1.072   8.743
 2067POPC   C2B29732  11.748   1.252   8.363
 2067POPC   C3B29733  11.638   1.020   8.013
 2067POPC   C4B29734  11.663   0.912   7.601
 2068POPC   NC329735  37.714  34.258   9.428
 2068POPC   PO429736  37.915  34.887   9.484
 2068POPC   GL129737  37.725  34.734   9.113
 2068POPC   GL229738  37.779  34.353   8.946
 2068POPC   C1A29739  37.599  34.777   8.689
 2068POPC   D2A29740  37.694  34.446   8.399
 2068POPC   C3A29741  37.568  34.395   8.000
 2068POPC   C4A29742  37.476  34.730   7.736
 2068POPC   C1B29743  38.082  34.566   8.788
 2068POPC   C2B29744  38.088  34.797   8.433
 2068POPC   C3B29745  37.900  34.777   8.032
 2068POPC   C4B29746  38.149  34.683   7.696
 2069POPC   NC329747  14.196   4.863   9.808
 2069POPC   PO429748  14.626   5.411   9.614
 2069POPC   GL129749  14.513   5.017   9.317
 2069POPC   GL229750  14.771   5.074   9.114
 2069POPC   C1A29751  14.462   4.832   8.833
 2069POPC   D2A29752  14.406   5.019   8.437
 2069POPC   C3A29753  14.369   4.813   8.037
 2069POPC   C4A29754  14.177   5.076   7.738
 2069POPC   C1B29755  14.903   5.056   8.655
 2069POPC   C2B29756  14.839   5.112   8.198
 2069POPC   C3B29757  14.710   5.116   7.804
 2069POPC   C4B29758  14.609   4.812   7.513
 2070POPC   NC329759  11.688  27.903   9.929
 2070POPC   PO429760  12.156  27.596   9.499
 2070POPC   GL129761  12.034  27.668   9.102
 2070POPC   GL229762  12.266  27.959   9.093
 2070POPC   C1A29763  11.985  27.464   8.715
 2070POPC   D2A29764  12.206  27.442   8.327
 2070POPC   C3A29765  12.010  27.264   7.950
 2070POPC   C4A29766  12.358  27.303   7.690
 2070POPC   C1B29767  12.380  27.805   8.708
 2070POPC   C2B29768  12.475  27.915   8.285
 2070POPC   C3B29769  12.223  27.783   7.927
 2070POPC   C4B29770  11.788  27.715   7.832
 2071POPC   NC329771   1.801  31.767   9.325
 2071POPC   PO429772   2.343  31.584   9.700
 2071POPC   GL129773   2.183  31.405   9.260
 2071POPC   GL229774   1.863  31.195   9.236
 2071POPC   C1A29775   2.156  31.401   8.788
 2071POPC   D2A29776   2.220  31.244   8.343
 2071POPC   C3A29777   2.199  31.540   7.978
 2071POPC   C4A29778   2.049  31.505   7.573
 2071POPC   C1B29779   1.693  31.173   8.800
 2071POPC   C2B29780   1.552  31.342   8.403
 2071POPC   C3B29781   1.714  31.392   7.985
 2071POPC   C4B29782   1.593  31.270   7.585
 2072POPC   NC329783  13.826  20.593   9.400
 2072POPC   PO429784  13.197  20.324   9.454
 2072POPC   GL129785  13.347  20.656   9.187
 2072POPC   GL229786  13.538  20.373   9.048
 2072POPC   C1A29787  13.623  20.814   8.807
 2072POPC   D2A29788  14.012  20.837   8.498
 2072POPC   C3A29789  13.822  20.803   8.056
 2072POPC   C4A29790  13.392  20.884   7.859
 2072POPC   C1B29791  13.199  20.458   8.747
 2072POPC   C2B29792  13.214  20.731   8.396
 2072POPC   C3B29793  13.311  20.441   8.081
 2072POPC   C4B29794  13.655  20.390   7.784
 2073POPC   NC329795   6.819  30.347   9.416
 2073POPC   PO429796   6.684  30.991   9.564
 2073POPC   GL129797   6.739  30.862   9.148
 2073POPC   GL229798   6.489  30.590   9.098
 2073POPC   C1A29799   6.603  30.895   8.717
 2073POPC   D2A29800   6.370  30.665   8.405
 2073POPC   C3A29801   6.542  30.716   8.031
 2073POPC   C4A29802   6.753  30.809   7.663
 2073POPC   C1B29803   6.680  30.394   8.769
 2073POPC   C2B29804   6.734  30.273   8.358
 2073POPC   C3B29805   6.937  30.396   7.982
 2073POPC   C4B29806   6.725  30.301   7.609
 2074POPC   NC329807   4.147  30.966   9.359
 2074POPC   PO429808   4.664  30.417   9.399
 2074POPC   GL129809   4.380  30.634   9.065
 2074POPC   GL229810   4.341  30.969   8.901
 2074POPC   C1A29811   4.083  30.565   8.714
 2074POPC   D2A29812   4.141  30.681   8.296
 2074POPC   C3A29813   4.524  30.702   8.106
 2074POPC   C4A29814   4.655  30.658   7.702
 2074POPC   C1B29815   4.012  31.080   8.618
 2074POPC   C2B29816   3.811  31.056   8.207
 2074POPC   C3B29817   3.984  30.860   7.831
 2074POPC   C4B29818   4.312  31.007   7.568
 2075POPC   NC329819  29.484  30.176   9.341
 2075POPC   PO429820  30.162  29.957   9.469
 2075POPC   GL129821  29.912  29.899   9.140
 2075POPC   GL229822  29.861  30.211   9.035
 2075POPC   C1A29823  29.863  29.678   8.757
 2075POPC   D2A29824  29.883  29.519   8.348
 2075POPC   C3A29825  29.921  29.775   7.979
 2075POPC   C4A29826  29.568  30.008   7.839
 2075POPC   C1B29827  30.167  30.122   8.780
 2075POPC   C2B29828  30.016  30.078   8.385
 2075POPC   C3B29829  30.118  30.295   8.020
 2075POPC   C4B29830  29.981  30.198   7.609
 2076POPC   NC329831  19.950   0.326   9.636
 2076POPC   PO429832  20.180   0.811   9.560
 2076POPC   GL129833  19.999   0.537   9.168
 2076POPC   GL229834  19.969   0.133   9.146
 2076POPC   C1A29835  19.747   0.431   8.783
 2076POPC   D2A29836  19.814   0.110   8.483
 2076POPC   C3A29837  19.779   0.245   8.047
 2076POPC   C4A29838  19.720   0.685   7.851
 2076POPC   C1B29839  20.237   0.246   8.781
 2076POPC   C2B29840  20.200   0.452   8.375
 2076POPC   C3B29841  20.241   0.491   7.925
 2076POPC   C4B29842  19.988   0.335   7.586
 2077POPC   NC329843  13.250   0.388   9.364
 2077POPC   PO429844  13.904   0.329   9.463
 2077POPC   GL129845  13.774   0.581   9.123
 2077POPC   GL229846  13.470   0.808   9.084
 2077POPC   C1A29847  13.924   0.590   8.714
 2077POPC   D2A29848  13.711   0.521   8.343
 2077POPC   C3A29849  13.960   0.483   7.970
 2077POPC   C4A29850  13.796   0.260   7.641
 2077POPC   C1B29851  13.366   0.506   8.742
 2077POPC   C2B29852  13.369   0.134   8.483
 2077POPC   C3B29853  13.414   0.184   8.043
 2077POPC   C4B29854  13.461   0.629   7.907
 2078POPC   NC329855  31.476  10.207   9.728
 2078POPC   PO429856  31.631  10.823   9.460
 2078POPC   GL129857  31.644  10.643   9.057
 2078POPC   GL229858  31.523  10.356   9.227
 2078POPC   C1A29859  31.567  10.600   8.607
 2078POPC   D2A29860  31.302  10.458   8.273
 2078POPC   C3A29861  31.490  10.672   7.959
 2078POPC   C4A29862  31.743  10.539   7.661
 2078POPC   C1B29863  31.489  10.159   8.826
 2078POPC   C2B29864  31.646  10.110   8.408
 2078POPC   C3B29865  31.673  10.115   7.971
 2078POPC   C4B29866  31.312  10.214   7.760
 2079POPC   NC329867  31.569  35.714   9.385
 2079POPC   PO429868  31.190  36.207   9.329
 2079POPC   GL129869  31.500  36.101   9.070
 2079POPC   GL229870  31.262  35.810   8.987
 2079POPC   C1A29871  31.724  35.983   8.722
 2079POPC   D2A29872  31.655  36.122   8.337
 2079POPC   C3A29873  31.643  35.992   7.933
 2079POPC   C4A29874  31.726  36.279   7.672
 2079POPC   C1B29875  31.207  36.121   8.652
 2079POPC   C2B29876  31.164  36.048   8.220
 2079POPC   C3B29877  31.160  35.966   7.805
 2079POPC   C4B29878  31.187  36.346   7.625
 2080POPC   NC329879  37.828  27.276   9.596
 2080POPC   PO429880  37.543  27.813   9.603
 2080POPC   GL129881  37.657  27.668   9.175
 2080POPC   GL229882  37.982  27.496   9.173
 2080POPC   C1A29883  37.546  27.611   8.717
 2080POPC   D2A29884  37.412  27.863   8.297
 2080POPC   C3A29885  37.410  27.649   7.865
 2080POPC   C4A29886  37.396  27.697   7.396
 2080POPC   C1B29887  38.058  27.722   8.807
 2080POPC   C2B29888  37.923  27.711   8.376
 2080POPC   C3B29889  38.051  27.659   7.962
 2080POPC   C4B29890  37.853  27.536   7.596
 2081POPC   NC329891   3.083  42.221   9.351
 2081POPC   PO429892   3.339  42.828   9.558
 2081POPC   GL129893   3.459  42.582   9.176
 2081POPC   GL229894   3.587  42.247   9.231
 2081POPC   C1A29895   3.779  42.550   8.810
 2081POPC   D2A29896   4.023  42.499   8.436
 2081POPC   C3A29897   3.765  42.469   8.075
 2081POPC   C4A29898   3.768  42.579   7.715
 2081POPC   C1B29899   3.398  42.220   8.819
 2081POPC   C2B29900   3.578  42.214   8.454
 2081POPC   C3B29901   3.587  41.997   8.097
 2081POPC   C4B29902   3.383  42.195   7.747
 2082POPC   NC329903   4.072  22.294   9.623
 2082POPC   PO429904   3.370  22.283   9.559
 2082POPC   GL129905   3.621  22.337   9.144
 2082POPC   GL229906   3.303  22.206   9.040
 2082POPC   C1A29907   3.674  22.122   8.715
 2082POPC   D2A29908   3.550  21.940   8.356
 2082POPC   C3A29909   3.841  22.115   8.039
 2082POPC   C4A29910   3.874  21.968   7.629
 2082POPC   C1B29911   3.153  22.189   8.622
 2082POPC   C2B29912   3.058  22.094   8.197
 2082POPC   C3B29913   3.341  22.084   7.868
 2082POPC   C4B29914   3.459  22.242   7.496
 2083POPC   NC329915  22.709  10.607   9.514
 2083POPC   PO429916  23.160  11.109   9.471
 2083POPC   GL129917  23.001  10.959   9.114
 2083POPC   GL229918  22.702  10.885   9.094
 2083POPC   C1A29919  23.092  10.797   8.744
 2083POPC   D2A29920  22.998  10.953   8.378
 2083POPC   C3A29921  22.954  10.700   8.056
 2083POPC   C4A29922  23.153  10.648   7.679
 2083POPC   C1B29923  22.704  10.475   8.857
 2083POPC   C2B29924  22.650  10.483   8.429
 2083POPC   C3B29925  22.728  10.258   8.095
 2083POPC   C4B29926  22.757  10.333   7.708
 2084POPC   NC329927  32.256  26.021   9.499
 2084POPC   PO429928  32.180  26.685   9.399
 2084POPC   GL129929  32.229  26.336   9.114
 2084POPC   GL229930  32.194  25.971   9.010
 2084POPC   C1A29931  32.432  26.309   8.731
 2084POPC   D2A29932  32.255  26.054   8.456
 2084POPC   C3A29933  32.305  26.255   8.100
 2084POPC   C4A29934  32.032  26.048   7.837
 2084POPC   C1B29935  32.570  25.817   8.790
 2084POPC   C2B29936  32.727  25.863   8.345
 2084POPC   C3B29937  32.497  25.796   7.937
 2084POPC   C4B29938  32.417  25.710   7.473
 2085POPC   NC329939  34.935  34.179   9.316
 2085POPC   PO429940  34.501  33.773   9.627
 2085POPC   GL129941  34.505  33.908   9.216
 2085POPC   GL229942  34.195  34.094   9.148
 2085POPC   C1A29943  34.745  33.780   8.827
 2085POPC   D2A29944  34.805  34.006   8.449
 2085POPC   C3A29945  34.729  33.787   8.062
 2085POPC   C4A29946  34.565  33.897   7.701
 2085POPC   C1B29947  34.229  33.753   8.824
 2085POPC   C2B29948  34.421  33.639   8.434
 2085POPC   C3B29949  34.313  33.455   8.006
 2085POPC   C4B29950  34.216  33.533   7.558
 2086POPC   NC329951  15.439  29.503   9.874
 2086POPC   PO429952  15.155  29.941   9.449
 2086POPC   GL129953  15.109  29.958   9.058
 2086POPC   GL229954  15.420  29.928   8.957
 2086POPC   C1A29955  14.955  30.013   8.667
 2086POPC   D2A29956  14.937  29.673   8.388
 2086POPC   C3A29957  15.169  29.714   8.048
 2086POPC   C4A29958  14.957  29.900   7.716
 2086POPC   C1B29959  15.429  29.697   8.599
 2086POPC   C2B29960  15.651  29.785   8.233
 2086POPC   C3B29961  15.702  30.126   7.957
 2086POPC   C4B29962  15.464  29.875   7.656
 2087POPC   NC329963  38.107   9.851   9.626
 2087POPC   PO429964  37.466   9.801   9.485
 2087POPC   GL129965  37.831   9.765   9.194
 2087POPC   GL229966  38.089   9.483   9.217
 2087POPC   C1A29967  37.983   9.872   8.760
 2087POPC   D2A29968  37.800   9.715   8.354
 2087POPC   C3A29969  37.660   9.869   7.934
 2087POPC   C4A29970  37.566   9.980   7.467
 2087POPC   C1B29971  37.969   9.360   8.742
 2087POPC   C2B29972  37.970   9.242   8.278
 2087POPC   C3B29973  37.727   9.347   7.903
 2087POPC   C4B29974  37.458   9.489   7.560
 2088POPC   NC329975  41.859  27.868   9.921
 2088POPC   PO429976  41.924  28.452   9.443
 2088POPC   GL129977  41.552  28.350   9.169
 2088POPC   GL229978  41.738  28.152   8.964
 2088POPC   C1A29979  41.288  28.208   8.780
 2088POPC   D2A29980  41.472  28.168   8.350
 2088POPC   C3A29981  41.554  28.423   7.995
 2088POPC   C4A29982  41.421  28.246   7.594
 2088POPC   C1B29983  41.701  28.483   8.685
 2088POPC   C2B29984  41.925  28.600   8.335
 2088POPC   C3B29985  41.919  28.818   7.945
 2088POPC   C4B29986  41.782  28.627   7.582
 2089POPC   NC329987  32.370  32.977   9.555
 2089POPC   PO429988  32.158  33.536   9.665
 2089POPC   GL129989  32.027  33.262   9.257
 2089POPC   GL229990  32.012  32.880   9.205
 2089POPC   C1A29991  32.279  33.180   8.856
 2089POPC   D2A29992  32.554  33.281   8.499
 2089POPC   C3A29993  32.317  33.247   8.099
 2089POPC   C4A29994  32.203  33.299   7.670
 2089POPC   C1B29995  32.070  32.697   8.782
 2089POPC   C2B29996  32.055  32.823   8.355
 2089POPC   C3B29997  31.990  32.870   7.920
 2089POPC   C4B29998  32.058  32.844   7.486
 2090POPC   NC329999  32.865  15.590   9.251
 2090POPC   PO430000  33.149  15.038   9.556
 2090POPC   GL130001  33.222  14.922   9.105
 2090POPC   GL230002  33.171  15.246   9.068
 2090POPC   C1A30003  33.269  14.966   8.665
 2090POPC   D2A30004  33.036  14.813   8.315
 2090POPC   C3A30005  33.133  15.048   7.943
 2090POPC   C4A30006  33.176  14.920   7.545
 2090POPC   C1B30007  33.159  15.489   8.701
 2090POPC   C2B30008  33.078  15.340   8.349
 2090POPC   C3B30009  32.840  15.474   8.031
 2090POPC   C4B30010  32.755  15.296   7.652
 2091POPC   NC330011   0.813  34.264   9.491
 2091POPC   PO430012   0.291  34.694   9.593
 2091POPC   GL130013   0.185  34.694   9.156
 2091POPC   GL230014   0.478  34.493   9.103
 2091POPC   C1A30015   0.307  34.839   8.744
 2091POPC   D2A30016   0.476  34.583   8.443
 2091POPC   C3A30017   0.627  34.678   8.053
 2091POPC   C4A30018   0.283  34.539   7.841
 2091POPC   C1B30019   0.836  34.428   8.801
 2091POPC   C2B30020   0.851  34.231   8.411
 2091POPC   C3B30021   0.544  34.160   8.108
 2091POPC   C4B30022   0.702  34.239   7.705
 2092POPC   NC330023  23.786   9.128   9.386
 2092POPC   PO430024  23.452   8.545   9.405
 2092POPC   GL130025  23.643   8.753   9.055
 2092POPC   GL230026  23.991   8.886   8.989
 2092POPC   C1A30027  23.624   8.906   8.647
 2092POPC   D2A30028  23.754   8.865   8.254
 2092POPC   C3A30029  23.484   8.627   8.075
 2092POPC   C4A30030  23.426   8.885   7.734
 2092POPC   C1B30031  23.960   9.290   8.728
 2092POPC   C2B30032  23.785   9.388   8.283
 2092POPC   C3B30033  23.823   9.193   7.839
 2092POPC   C4B30034  23.746   9.390   7.377
 2093POPC   NC330035   2.859  29.518   9.605
 2093POPC   PO430036   2.498  30.048   9.692
 2093POPC   GL130037   2.648  29.890   9.287
 2093POPC   GL230038   3.006  29.847   9.249
 2093POPC   C1A30039   2.587  29.829   8.845
 2093POPC   D2A30040   2.688  29.688   8.451
 2093POPC   C3A30041   2.630  29.956   8.114
 2093POPC   C4A30042   2.522  29.772   7.733
 2093POPC   C1B30043   3.015  30.121   8.885
 2093POPC   C2B30044   3.260  30.116   8.504
 2093POPC   C3B30045   3.255  30.012   8.089
 2093POPC   C4B30046   2.974  29.991   7.719
 2094POPC   NC330047   4.521  35.246   9.506
 2094POPC   PO430048   4.018  35.759   9.526
 2094POPC   GL130049   4.177  35.466   9.211
 2094POPC   GL230050   4.535  35.486   9.063
 2094POPC   C1A30051   4.187  35.232   8.809
 2094POPC   D2A30052   4.382  35.370   8.416
 2094POPC   C3A30053   4.143  35.260   8.036
 2094POPC   C4A30054   4.041  35.357   7.622
 2094POPC   C1B30055   4.680  35.122   8.794
 2094POPC   C2B30056   4.662  34.928   8.366
 2094POPC   C3B30057   4.624  35.170   7.979
 2094POPC   C4B30058   4.540  35.170   7.522
 2095POPC   NC330059   3.414  11.916   9.549
 2095POPC   PO430060   4.052  12.137   9.411
 2095POPC   GL130061   3.741  12.007   9.118
 2095POPC   GL230062   3.407  12.147   9.104
 2095POPC   C1A30063   3.757  11.995   8.670
 2095POPC   D2A30064   3.922  11.716   8.381
 2095POPC   C3A30065   3.842  11.965   8.043
 2095POPC   C4A30066   3.508  12.074   7.785
 2095POPC   C1B30067   3.269  11.878   8.788
 2095POPC   C2B30068   3.343  11.997   8.349
 2095POPC   C3B30069   3.078  11.923   8.009
 2095POPC   C4B30070   3.181  11.680   7.685
 2096POPC   NC330071  30.137  37.551   9.536
 2096POPC   PO430072  29.706  38.025   9.483
 2096POPC   GL130073  30.000  37.861   9.136
 2096POPC   GL230074  30.143  37.493   9.045
 2096POPC   C1A30075  29.908  37.836   8.710
 2096POPC   D2A30076  29.782  37.562   8.410
 2096POPC   C3A30077  29.844  37.762   8.026
 2096POPC   C4A30078  29.798  37.488   7.651
 2096POPC   C1B30079  30.398  37.709   8.753
 2096POPC   C2B30080  30.306  37.635   8.326
 2096POPC   C3B30081  30.242  37.492   7.896
 2096POPC   C4B30082  30.203  37.876   7.670
 2097POPC   NC330083  34.249  12.516   9.544
 2097POPC   PO430084  34.645  13.070   9.434
 2097POPC   GL130085  34.565  12.948   9.079
 2097POPC   GL230086  34.566  12.628   9.127
 2097POPC   C1A30087  34.444  13.097   8.699
 2097POPC   D2A30088  34.630  13.272   8.366
 2097POPC   C3A30089  34.558  13.006   8.070
 2097POPC   C4A30090  34.450  13.022   7.659
 2097POPC   C1B30091  34.725  12.647   8.703
 2097POPC   C2B30092  34.601  12.510   8.291
 2097POPC   C3B30093  34.634  12.571   7.843
 2097POPC   C4B30094  34.818  12.735   7.428
 2098POPC   NC330095   1.327  44.627   9.515
 2098POPC   PO430096   0.800   0.065   9.260
 2098POPC   GL130097   1.084  44.728   9.087
 2098POPC   GL230098   1.468  44.767   9.071
 2098POPC   C1A30099   1.215  44.532   8.702
 2098POPC   D2A30100   1.025  44.818   8.444
 2098POPC   C3A30101   1.083  44.742   8.039
 2098POPC   C4A30102   0.990  44.962   7.674
 2098POPC   C1B30103   1.460  44.989   8.756
 2098POPC   C2B30104   1.523  44.855   8.352
 2098POPC   C3B30105   1.484   0.041   7.973
 2098POPC   C4B30106   1.476  44.736   7.669
 2099POPC   NC330107  37.267  16.661   9.481
 2099POPC   PO430108  36.672  17.006   9.484
 2099POPC   GL130109  36.893  16.749   9.169
 2099POPC   GL230110  36.744  16.478   8.994
 2099POPC   C1A30111  37.201  16.579   8.831
 2099POPC   D2A30112  37.228  16.456   8.419
 2099POPC   C3A30113  36.925  16.611   8.120
 2099POPC   C4A30114  37.082  16.602   7.729
 2099POPC   C1B30115  36.794  16.849   8.704
 2099POPC   C2B30116  36.589  16.944   8.360
 2099POPC   C3B30117  36.370  16.973   8.007
 2099POPC   C4B30118  36.438  16.987   7.545
 2100POPC   NC330119  33.245  25.873   9.478
 2100POPC   PO430120  32.662  26.229   9.379
 2100POPC   GL130121  33.071  26.266   9.175
 2100POPC   GL230122  33.016  25.919   9.020
 2100POPC   C1A30123  33.385  26.205   8.824
 2100POPC   D2A30124  33.295  25.931   8.450
 2100POPC   C3A30125  33.367  26.052   8.040
 2100POPC   C4A30126  33.306  26.438   7.841
 2100POPC   C1B30127  32.910  26.211   8.688
 2100POPC   C2B30128  32.789  26.379   8.300
 2100POPC   C3B30129  32.871  26.166   7.934
 2100POPC   C4B30130  32.985  25.774   7.766
 2101POPC   NC330131  36.381  30.347   9.539
 2101POPC   PO430132  35.790  30.612   9.543
 2101POPC   GL130133  36.055  30.663   9.195
 2101POPC   GL230134  36.010  30.333   9.159
 2101POPC   C1A30135  36.017  30.732   8.723
 2101POPC   D2A30136  36.211  31.039   8.405
 2101POPC   C3A30137  35.998  31.150   8.042
 2101POPC   C4A30138  36.121  30.950   7.674
 2101POPC   C1B30139  36.341  30.366   8.874
 2101POPC   C2B30140  36.325  30.381   8.456
 2101POPC   C3B30141  36.183  30.613   8.091
 2101POPC   C4B30142  36.358  30.483   7.696
 2102POPC   NC330143  14.862  21.723   9.523
 2102POPC   PO430144  15.188  22.257   9.514
 2102POPC   GL130145  15.145  22.218   9.113
 2102POPC   GL230146  15.293  21.877   9.143
 2102POPC   C1A30147  14.983  22.343   8.697
 2102POPC   D2A30148  15.116  22.311   8.257
 2102POPC   C3A30149  14.965  22.287   7.824
 2102POPC   C4A30150  15.158  22.166   7.426
 2102POPC   C1B30151  15.384  21.982   8.719
 2102POPC   C2B30152  15.298  21.821   8.328
 2102POPC   C3B30153  15.168  21.813   7.909
 2102POPC   C4B30154  15.429  21.773   7.551
 2103POPC   NC330155  32.093  14.154   9.434
 2103POPC   PO430156  32.608  14.508   9.709
 2103POPC   GL130157  32.489  14.466   9.241
 2103POPC   GL230158  32.219  14.671   9.102
 2103POPC   C1A30159  32.389  14.279   8.805
 2103POPC   D2A30160  32.154  14.376   8.420
 2103POPC   C3A30161  32.337  14.585   8.076
 2103POPC   C4A30162  32.242  14.438   7.687
 2103POPC   C1B30163  32.335  14.789   8.662
 2103POPC   C2B30164  31.992  14.849   8.362
 2103POPC   C3B30165  31.824  14.646   7.993
 2103POPC   C4B30166  31.869  14.764   7.588
 2104POPC   NC330167  16.567   5.965   9.440
 2104POPC   PO430168  17.022   6.401   9.222
 2104POPC   GL130169  16.985   5.972   9.085
 2104POPC   GL230170  16.805   5.642   9.149
 2104POPC   C1A30171  16.838   5.893   8.679
 2104POPC   D2A30172  16.689   6.024   8.288
 2104POPC   C3A30173  16.845   6.050   7.890
 2104POPC   C4A30174  16.520   6.315   7.744
 2104POPC   C1B30175  16.583   5.483   8.797
 2104POPC   C2B30176  16.577   5.534   8.355
 2104POPC   C3B30177  16.429   5.503   7.924
 2104POPC   C4B30178  16.582   5.623   7.534
 2105POPC   NC330179  35.401  37.463   9.463
 2105POPC   PO430180  35.368  38.080   9.705
 2105POPC   GL130181  35.335  37.946   9.247
 2105POPC   GL230182  35.630  37.873   9.061
 2105POPC   C1A30183  35.222  37.969   8.783
 2105POPC   D2A30184  35.593  37.929   8.495
 2105POPC   C3A30185  35.475  37.843   8.102
 2105POPC   C4A30186  35.645  37.733   7.731
 2105POPC   C1B30187  35.507  37.513   8.799
 2105POPC   C2B30188  35.328  37.450   8.413
 2105POPC   C3B30189  35.464  37.349   8.011
 2105POPC   C4B30190  35.164  37.558   7.777
 2106POPC   NC330191  10.984  19.051   9.585
 2106POPC   PO430192  11.472  19.413   9.429
 2106POPC   GL130193  11.259  19.104   9.131
 2106POPC   GL230194  10.960  18.894   9.108
 2106POPC   C1A30195  11.345  18.902   8.722
 2106POPC   D2A30196  11.398  19.108   8.334
 2106POPC   C3A30197  11.337  19.013   7.927
 2106POPC   C4A30198  11.481  18.789   7.596
 2106POPC   C1B30199  10.849  19.020   8.708
 2106POPC   C2B30200  10.931  18.918   8.274
 2106POPC   C3B30201  10.788  19.135   7.920
 2106POPC   C4B30202  10.702  19.374   7.528
 2107POPC   NC330203   5.467   8.167   9.496
 2107POPC   PO430204   6.171   8.114   9.627
 2107POPC   GL130205   5.905   8.258   9.260
 2107POPC   GL230206   5.929   7.922   9.171
 2107POPC   C1A30207   5.693   8.380   8.862
 2107POPC   D2A30208   5.832   8.265   8.419
 2107POPC   C3A30209   5.665   8.192   8.063
 2107POPC   C4A30210   5.868   8.158   7.678
 2107POPC   C1B30211   5.842   7.895   8.749
 2107POPC   C2B30212   5.638   7.758   8.348
 2107POPC   C3B30213   5.693   7.713   7.866
 2107POPC   C4B30214   5.825   7.729   7.393
 2108POPC   NC330215  37.960  32.562   9.447
 2108POPC   PO430216  37.547  33.133   9.625
 2108POPC   GL130217  37.664  32.960   9.263
 2108POPC   GL230218  37.932  33.199   9.247
 2108POPC   C1A30219  37.568  32.819   8.857
 2108POPC   D2A30220  37.519  32.986   8.451
 2108POPC   C3A30221  37.352  32.867   8.061
 2108POPC   C4A30222  37.480  33.062   7.714
 2108POPC   C1B30223  38.063  32.933   8.906
 2108POPC   C2B30224  37.952  32.706   8.514
 2108POPC   C3B30225  37.896  32.857   8.095
 2108POPC   C4B30226  37.989  32.966   7.691
 2109POPC   NC330227  35.127  29.303   9.404
 2109POPC   PO430228  35.750  29.230   9.341
 2109POPC   GL130229  35.611  29.136   8.966
 2109POPC   GL230230  35.248  29.068   8.943
 2109POPC   C1A30231  35.718  29.096   8.548
 2109POPC   D2A30232  35.328  28.985   8.363
 2109POPC   C3A30233  35.183  29.346   8.159
 2109POPC   C4A30234  35.455  29.418   7.832
 2109POPC   C1B30235  35.067  28.677   8.761
 2109POPC   C2B30236  34.937  28.649   8.355
 2109POPC   C3B30237  34.859  28.958   8.041
 2109POPC   C4B30238  34.956  29.256   7.692
 2110POPC   NC330239  22.335  22.971   9.501
 2110POPC   PO430240  21.728  22.672   9.617
 2110POPC   GL130241  21.997  22.616   9.258
 2110POPC   GL230242  21.982  22.921   9.095
 2110POPC   C1A30243  22.240  22.515   8.892
 2110POPC   D2A30244  22.450  22.621   8.508
 2110POPC   C3A30245  22.162  22.796   8.218
 2110POPC   C4A30246  22.190  22.760   7.783
 2110POPC   C1B30247  22.354  23.021   8.830
 2110POPC   C2B30248  22.473  23.146   8.426
 2110POPC   C3B30249  22.432  23.178   7.994
 2110POPC   C4B30250  22.004  23.235   7.876
 2111POPC   NC330251  39.669  20.370   9.374
 2111POPC   PO430252  39.233  20.782   9.700
 2111POPC   GL130253  39.205  20.813   9.247
 2111POPC   GL230254  39.200  20.491   9.104
 2111POPC   C1A30255  39.158  20.885   8.790
 2111POPC   D2A30256  39.411  20.830   8.405
 2111POPC   C3A30257  39.138  20.666   8.068
 2111POPC   C4A30258  39.206  20.700   7.636
 2111POPC   C1B30259  39.324  20.387   8.660
 2111POPC   C2B30260  39.264  20.176   8.239
 2111POPC   C3B30261  39.399  20.280   7.840
 2111POPC   C4B30262  39.361  20.224   7.402
 2112POPC   NC330263  14.117  16.974   9.433
 2112POPC   PO430264  14.629  16.489   9.573
 2112POPC   GL130265  14.443  16.684   9.160
 2112POPC   GL230266  14.112  16.755   8.979
 2112POPC   C1A30267  14.506  16.610   8.726
 2112POPC   D2A30268  14.220  16.518   8.372
 2112POPC   C3A30269  14.383  16.601   7.955
 2112POPC   C4A30270  14.607  16.988   7.845
 2112POPC   C1B30271  14.194  17.025   8.659
 2112POPC   C2B30272  14.291  17.062   8.236
 2112POPC   C3B30273  14.108  16.999   7.829
 2112POPC   C4B30274  14.122  17.108   7.394
 2113POPC   NC330275  27.063   4.676   9.549
 2113POPC   PO430276  26.629   4.183   9.531
 2113POPC   GL130277  26.902   4.207   9.134
 2113POPC   GL230278  26.974   4.548   9.062
 2113POPC   C1A30279  26.766   4.021   8.718
 2113POPC   D2A30280  26.837   3.830   8.309
 2113POPC   C3A30281  27.014   4.109   7.999
 2113POPC   C4A30282  26.892   4.217   7.584
 2113POPC   C1B30283  26.926   4.480   8.621
 2113POPC   C2B30284  26.687   4.369   8.292
 2113POPC   C3B30285  26.566   4.534   7.910
 2113POPC   C4B30286  26.634   4.772   7.558
 2114POPC   NC330287  41.816  38.668   9.744
 2114POPC   PO430288  41.376  39.034   9.363
 2114POPC   GL130289  41.458  39.233   9.004
 2114POPC   GL230290  41.811  39.184   8.889
 2114POPC   C1A30291  41.474  39.483   8.633
 2114POPC   D2A30292  41.748  39.469   8.272
 2114POPC   C3A30293  41.650  39.232   7.905
 2114POPC   C4A30294  41.232  39.218   7.762
 2114POPC   C1B30295  41.518  38.959   8.595
 2114POPC   C2B30296  41.252  39.015   8.254
 2114POPC   C3B30297  41.416  38.763   7.930
 2114POPC   C4B30298  41.745  38.732   7.708
 2115POPC   NC330299   5.054  22.277   9.800
 2115POPC   PO430300   5.133  21.730   9.337
 2115POPC   GL130301   5.291  22.017   9.044
 2115POPC   GL230302   5.219  22.389   9.047
 2115POPC   C1A30303   5.223  22.100   8.620
 2115POPC   D2A30304   5.026  22.220   8.275
 2115POPC   C3A30305   5.259  22.292   7.918
 2115POPC   C4A30306   5.260  22.029   7.571
 2115POPC   C1B30307   4.919  22.506   8.738
 2115POPC   C2B30308   4.841  22.720   8.372
 2115POPC   C3B30309   4.689  22.491   8.033
 2115POPC   C4B30310   4.758  22.431   7.655
 2116POPC   NC330311  38.650  15.540   9.516
 2116POPC   PO430312  38.451  14.841   9.477
 2116POPC   GL130313  38.542  15.139   9.164
 2116POPC   GL230314  38.239  15.281   9.177
 2116POPC   C1A30315  38.534  15.224   8.727
 2116POPC   D2A30316  38.550  14.952   8.344
 2116POPC   C3A30317  38.578  14.854   7.909
 2116POPC   C4A30318  38.423  15.000   7.528
 2116POPC   C1B30319  38.125  15.521   8.778
 2116POPC   C2B30320  38.352  15.529   8.354
 2116POPC   C3B30321  38.393  15.311   7.981
 2116POPC   C4B30322  38.125  15.468   7.654
 2117POPC   NC330323  18.604   0.586   9.488
 2117POPC   PO430324  18.033   0.195   9.544
 2117POPC   GL130325  18.276   0.302   9.224
 2117POPC   GL230326  18.013   0.496   9.066
 2117POPC   C1A30327  18.337   0.232   8.788
 2117POPC   D2A30328  18.041   0.171   8.472
 2117POPC   C3A30329  18.268   0.140   8.096
 2117POPC   C4A30330  18.519   0.266   7.747
 2117POPC   C1B30331  18.104   0.692   8.690
 2117POPC   C2B30332  18.309   0.623   8.289
 2117POPC   C3B30333  18.226   0.660   7.855
 2117POPC   C4B30334  18.424   0.814   7.504
 2118POPC   NC330335  10.869  35.920   9.553
 2118POPC   PO430336  10.378  36.346   9.596
 2118POPC   GL130337  10.257  36.227   9.134
 2118POPC   GL230338  10.032  35.957   9.156
 2118POPC   C1A30339  10.369  36.230   8.645
 2118POPC   D2A30340  10.530  35.904   8.289
 2118POPC   C3A30341  10.713  35.971   7.846
 2118POPC   C4A30342  10.883  35.875   7.422
 2118POPC   C1B30343   9.887  36.064   8.723
 2118POPC   C2B30344  10.034  36.006   8.301
 2118POPC   C3B30345  10.198  36.031   7.874
 2118POPC   C4B30346  10.439  36.409   7.883
 2119POPC   NC330347  17.207  41.955   9.455
 2119POPC   PO430348  17.678  42.391   9.441
 2119POPC   GL130349  17.523  42.216   9.112
 2119POPC   GL230350  17.836  42.049   9.069
 2119POPC   C1A30351  17.379  42.476   8.791
 2119POPC   D2A30352  17.540  42.624   8.441
 2119POPC   C3A30353  17.512  42.336   8.137
 2119POPC   C4A30354  17.442  42.614   7.825
 2119POPC   C1B30355  17.680  42.084   8.640
 2119POPC   C2B30356  17.694  41.842   8.292
 2119POPC   C3B30357  17.827  41.955   7.921
 2119POPC   C4B30358  17.541  42.147   7.647
 2120POPC   NC330359  34.500  17.416   9.446
 2120POPC   PO430360  34.932  16.950   9.122
 2120POPC   GL130361  34.701  17.258   9.012
 2120POPC   GL230362  34.922  17.542   9.090
 2120POPC   C1A30363  34.451  17.468   8.746
 2120POPC   D2A30364  34.505  17.559   8.318
 2120POPC   C3A30365  34.768  17.332   8.062
 2120POPC   C4A30366  34.706  17.334   7.611
 2120POPC   C1B30367  34.955  17.504   8.611
 2120POPC   C2B30368  34.986  17.771   8.222
 2120POPC   C3B30369  34.689  17.799   7.852
 2120POPC   C4B30370  34.239  17.953   7.771
 2121POPC   NC330371  10.366  35.070   9.419
 2121POPC   PO430372  10.873  35.502   9.392
 2121POPC   GL130373  10.593  35.363   9.049
 2121POPC   GL230374  10.239  35.457   9.101
 2121POPC   C1A30375  10.647  35.337   8.597
 2121POPC   D2A30376  10.730  35.361   8.156
 2121POPC   C3A30377  10.409  35.551   7.915
 2121POPC   C4A30378  10.394  35.692   7.508
 2121POPC   C1B30379  10.190  35.159   8.741
 2121POPC   C2B30380  10.409  34.929   8.382
 2121POPC   C3B30381  10.396  35.034   7.948
 2121POPC   C4B30382  10.322  34.836   7.578
 2122POPC   NC330383  12.312  40.483   9.445
 2122POPC   PO430384  11.865  40.942   9.426
 2122POPC   GL130385  11.940  40.678   9.077
 2122POPC   GL230386  11.924  41.023   8.908
 2122POPC   C1A30387  11.884  40.610   8.627
 2122POPC   D2A30388  11.873  40.934   8.327
 2122POPC   C3A30389  12.084  40.834   7.966
 2122POPC   C4A30390  12.068  40.859   7.526
 2122POPC   C1B30391  11.607  41.253   8.684
 2122POPC   C2B30392  11.631  41.375   8.220
 2122POPC   C3B30393  11.754  41.197   7.785
 2122POPC   C4B30394  11.631  41.013   7.327
 2123POPC   NC330395  37.255  12.758   9.857
 2123POPC   PO430396  37.904  12.801   9.757
 2123POPC   GL130397  37.854  12.916   9.306
 2123POPC   GL230398  37.873  12.610   9.093
 2123POPC   C1A30399  37.949  13.084   8.881
 2123POPC   D2A30400  37.808  12.985   8.506
 2123POPC   C3A30401  37.905  13.212   8.156
 2123POPC   C4A30402  37.911  13.002   7.773
 2123POPC   C1B30403  37.492  12.836   8.907
 2123POPC   C2B30404  37.328  12.884   8.478
 2123POPC   C3B30405  37.518  12.878   8.071
 2123POPC   C4B30406  37.526  12.706   7.624
 2124POPC   NC330407  44.890  22.277   9.773
 2124POPC   PO430408  44.396  22.467   9.334
 2124POPC   GL130409  44.642  22.183   9.101
 2124POPC   GL230410  44.964  22.105   9.207
 2124POPC   C1A30411  44.706  21.885   8.812
 2124POPC   D2A30412  44.826  21.978   8.434
 2124POPC   C3A30413  44.640  21.775   8.101
 2124POPC   C4A30414  44.647  21.849   7.684
 2124POPC   C1B30415  44.970  22.382   8.794
 2124POPC   C2B30416  44.919  22.484   8.374
 2124POPC   C3B30417  44.802  22.277   7.989
 2124POPC   C4B30418  44.579  22.547   7.701
 2125POPC   NC330419  10.258  43.214   9.544
 2125POPC   PO430420  10.758  42.743   9.413
 2125POPC   GL130421  10.524  43.001   9.181
 2125POPC   GL230422  10.754  43.233   9.138
 2125POPC   C1A30423  10.305  43.077   8.811
 2125POPC   D2A30424  10.451  42.905   8.420
 2125POPC   C3A30425  10.338  43.121   8.057
 2125POPC   C4A30426  10.248  42.906   7.674
 2125POPC   C1B30427  10.820  43.100   8.747
 2125POPC   C2B30428  10.789  43.267   8.358
 2125POPC   C3B30429  10.859  43.088   7.997
 2125POPC   C4B30430  10.727  43.048   7.610
 2126POPC   NC330431  10.548  25.939   9.671
 2126POPC   PO430432  10.012  26.437   9.664
 2126POPC   GL130433  10.368  26.303   9.331
 2126POPC   GL230434  10.337  25.956   9.215
 2126POPC   C1A30435  10.448  26.250   8.847
 2126POPC   D2A30436  10.581  26.024   8.438
 2126POPC   C3A30437  10.596  26.188   8.033
 2126POPC   C4A30438  10.693  25.874   7.715
 2126POPC   C1B30439  10.398  25.750   8.816
 2126POPC   C2B30440  10.159  25.662   8.471
 2126POPC   C3B30441  10.330  25.722   8.090
 2126POPC   C4B30442  10.270  25.551   7.728
 2127POPC   NC330443  11.933  24.564   9.756
 2127POPC   PO430444  12.473  24.248   9.497
 2127POPC   GL130445  12.123  24.392   9.231
 2127POPC   GL230446  11.834  24.177   9.264
 2127POPC   C1A30447  12.115  24.589   8.799
 2127POPC   D2A30448  12.243  24.434   8.386
 2127POPC   C3A30449  12.138  24.656   7.997
 2127POPC   C4A30450  12.256  24.709   7.562
 2127POPC   C1B30451  11.717  24.258   8.809
 2127POPC   C2B30452  11.730  24.397   8.346
 2127POPC   C3B30453  11.878  24.252   7.893
 2127POPC   C4B30454  11.975  24.336   7.388
 2128POPC   NC330455  18.045   6.745   9.497
 2128POPC   PO430456  18.600   6.352   9.655
 2128POPC   GL130457  18.420   6.452   9.243
 2128POPC   GL230458  18.201   6.272   9.072
 2128POPC   C1A30459  18.373   6.811   8.928
 2128POPC   D2A30460  18.333   6.912   8.485
 2128POPC   C3A30461  18.163   6.681   8.152
 2128POPC   C4A30462  18.346   6.769   7.737
 2128POPC   C1B30463  18.286   6.394   8.663
 2128POPC   C2B30464  18.569   6.448   8.349
 2128POPC   C3B30465  18.539   6.275   7.971
 2128POPC   C4B30466  18.201   6.289   7.720
 2129POPC   NC330467  11.863  28.026   9.418
 2129POPC   PO430468  12.467  28.414   9.366
 2129POPC   GL130469  12.271  28.462   9.004
 2129POPC   GL230470  11.917  28.352   9.019
 2129POPC   C1A30471  12.264  28.311   8.609
 2129POPC   D2A30472  12.047  28.533   8.312
 2129POPC   C3A30473  12.155  28.419   7.914
 2129POPC   C4A30474  11.909  28.524   7.506
 2129POPC   C1B30475  11.886  27.996   8.723
 2129POPC   C2B30476  11.911  28.001   8.267
 2129POPC   C3B30477  11.698  28.204   7.875
 2129POPC   C4B30478  11.701  28.040   7.424
 2130POPC   NC330479  31.865  27.258   9.528
 2130POPC   PO430480  31.255  27.676   9.563
 2130POPC   GL130481  31.436  27.438   9.241
 2130POPC   GL230482  31.483  27.732   9.103
 2130POPC   C1A30483  31.515  27.308   8.798
 2130POPC   D2A30484  31.680  27.199   8.404
 2130POPC   C3A30485  31.699  27.456   8.052
 2130POPC   C4A30486  31.355  27.437   7.775
 2130POPC   C1B30487  31.222  27.705   8.730
 2130POPC   C2B30488  31.308  27.650   8.311
 2130POPC   C3B30489  31.464  27.909   7.977
 2130POPC   C4B30490  31.326  27.904   7.580
 2131POPC   NC330491  15.177   8.031   9.473
 2131POPC   PO430492  14.783   8.540   9.649
 2131POPC   GL130493  15.099   8.582   9.282
 2131POPC   GL230494  15.412   8.400   9.192
 2131POPC   C1A30495  15.113   8.516   8.819
 2131POPC   D2A30496  15.273   8.471   8.409
 2131POPC   C3A30497  15.097   8.271   8.037
 2131POPC   C4A30498  15.303   8.366   7.644
 2131POPC   C1B30499  15.363   8.058   8.827
 2131POPC   C2B30500  15.318   7.922   8.390
 2131POPC   C3B30501  15.482   7.921   7.970
 2131POPC   C4B30502  15.298   7.868   7.552
 2132POPC   NC330503   3.911  11.038   9.367
 2132POPC   PO430504   3.737  11.551   9.777
 2132POPC   GL130505   3.604  11.463   9.314
 2132POPC   GL230506   3.475  11.134   9.101
 2132POPC   C1A30507   3.694  11.547   8.876
 2132POPC   D2A30508   3.469  11.493   8.489
 2132POPC   C3A30509   3.546  11.550   8.042
 2132POPC   C4A30510   3.536  11.319   7.650
 2132POPC   C1B30511   3.797  11.073   8.745
 2132POPC   C2B30512   3.882  11.211   8.354
 2132POPC   C3B30513   3.772  11.056   8.002
 2132POPC   C4B30514   4.020  11.065   7.683
 2133POPC   NC330515  42.752  38.216   9.620
 2133POPC   PO430516  42.028  38.268   9.636
 2133POPC   GL130517  42.327  38.261   9.299
 2133POPC   GL230518  42.504  38.611   9.282
 2133POPC   C1A30519  42.230  38.144   8.884
 2133POPC   D2A30520  42.029  38.360   8.547
 2133POPC   C3A30521  42.252  38.421   8.172
 2133POPC   C4A30522  42.238  38.693   7.824
 2133POPC   C1B30523  42.452  38.605   8.827
 2133POPC   C2B30524  42.652  38.337   8.507
 2133POPC   C3B30525  42.717  38.196   8.099
 2133POPC   C4B30526  42.466  38.201   7.744
 2134POPC   NC330527   3.656  37.188   9.375
 2134POPC   PO430528   3.467  37.936   9.464
 2134POPC   GL130529   3.468  37.614   9.159
 2134POPC   GL230530   3.175  37.603   9.010
 2134POPC   C1A30531   3.591  37.427   8.748
 2134POPC   D2A30532   3.942  37.308   8.491
 2134POPC   C3A30533   3.882  37.491   8.083
 2134POPC   C4A30534   4.046  37.391   7.686
 2134POPC   C1B30535   3.309  37.910   8.730
 2134POPC   C2B30536   3.191  38.039   8.316
 2134POPC   C3B30537   3.410  37.883   7.943
 2134POPC   C4B30538   3.526  37.509   7.698
 2135POPC   NC330539   2.701  11.166   9.483
 2135POPC   PO430540   2.985  11.746   9.436
 2135POPC   GL130541   2.765  11.493   9.099
 2135POPC   GL230542   2.671  11.106   8.993
 2135POPC   C1A30543   3.025  11.388   8.763
 2135POPC   D2A30544   2.989  11.609   8.401
 2135POPC   C3A30545   2.995  11.363   8.035
 2135POPC   C4A30546   2.725  11.393   7.680
 2135POPC   C1B30547   2.527  11.328   8.602
 2135POPC   C2B30548   2.497  11.218   8.143
 2135POPC   C3B30549   2.669  10.912   7.830
 2135POPC   C4B30550   2.665  10.883   7.353
 2136POPC   NC330551  44.726  32.708   9.575
 2136POPC   PO430552  44.274  33.261   9.515
 2136POPC   GL130553  44.491  32.956   9.218
 2136POPC   GL230554  44.841  32.874   9.095
 2136POPC   C1A30555  44.468  32.790   8.804
 2136POPC   D2A30556  44.613  33.027   8.457
 2136POPC   C3A30557  44.906  32.874   8.161
 2136POPC   C4A30558  44.844  32.961   7.745
 2136POPC   C1B30559  44.725  33.283   8.881
 2136POPC   C2B30560  44.910  33.505   8.526
 2136POPC   C3B30561  44.845  33.374   8.112
 2136POPC   C4B30562  44.579  33.446   7.760
 2137POPC   NC330563   1.712   4.388   9.316
 2137POPC   PO430564   1.087   4.322   9.554
 2137POPC   GL130565   1.209   4.430   9.169
 2137POPC   GL230566   1.319   4.101   9.122
 2137POPC   C1A30567   1.181   4.373   8.717
 2137POPC   D2A30568   1.435   4.277   8.366
 2137POPC   C3A30569   1.126   4.263   8.047
 2137POPC   C4A30570   0.983   4.628   7.842
 2137POPC   C1B30571   1.454   3.916   8.743
 2137POPC   C2B30572   1.344   3.746   8.345
 2137POPC   C3B30573   1.527   3.944   7.988
 2137POPC   C4B30574   1.423   4.202   7.621
 2138POPC   NC330575  18.252   6.039   9.647
 2138POPC   PO430576  18.721   5.596   9.427
 2138POPC   GL130577  18.447   5.842   9.162
 2138POPC   GL230578  18.650   6.063   8.941
 2138POPC   C1A30579  18.202   5.871   8.759
 2138POPC   D2A30580  18.404   5.961   8.365
 2138POPC   C3A30581  18.268   5.810   7.976
 2138POPC   C4A30582  18.099   5.802   7.581
 2138POPC   C1B30583  18.673   5.697   8.704
 2138POPC   C2B30584  18.740   5.562   8.301
 2138POPC   C3B30585  18.757   5.663   7.890
 2138POPC   C4B30586  18.524   5.508   7.537
 2139POPC   NC330587  19.962   9.474   9.504
 2139POPC   PO430588  19.716  10.014   9.749
 2139POPC   GL130589  19.747   9.983   9.261
 2139POPC   GL230590  19.732   9.682   9.109
 2139POPC   C1A30591  19.942  10.029   8.802
 2139POPC   D2A30592  19.842   9.933   8.368
 2139POPC   C3A30593  19.995  10.134   8.013
 2139POPC   C4A30594  19.860  10.042   7.605
 2139POPC   C1B30595  19.791   9.512   8.691
 2139POPC   C2B30596  20.060   9.467   8.318
 2139POPC   C3B30597  20.044   9.613   7.917
 2139POPC   C4B30598  20.247   9.535   7.555
 2140POPC   NC330599  33.289  36.103   9.496
 2140POPC   PO430600  32.755  35.692   9.459
 2140POPC   GL130601  32.885  36.007   9.152
 2140POPC   GL230602  33.220  36.114   9.009
 2140POPC   C1A30603  32.808  36.339   8.861
 2140POPC   D2A30604  32.766  36.167   8.449
 2140POPC   C3A30605  32.900  36.346   8.109
 2140POPC   C4A30606  32.627  36.065   7.833
 2140POPC   C1B30607  33.267  36.256   8.599
 2140POPC   C2B30608  33.223  35.991   8.275
 2140POPC   C3B30609  33.128  35.966   7.863
 2140POPC   C4B30610  33.285  36.402   7.773
 2141POPC   NC330611   1.527  23.824   9.614
 2141POPC   PO430612   1.037  23.413   9.656
 2141POPC   GL130613   1.141  23.645   9.221
 2141POPC   GL230614   1.383  23.942   9.136
 2141POPC   C1A30615   1.111  23.757   8.746
 2141POPC   D2A30616   1.285  23.692   8.331
 2141POPC   C3A30617   1.101  23.823   7.985
 2141POPC   C4A30618   1.160  23.680   7.626
 2141POPC   C1B30619   1.555  24.020   8.704
 2141POPC   C2B30620   1.739  23.918   8.293
 2141POPC   C3B30621   1.555  24.067   7.942
 2141POPC   C4B30622   1.510  24.153   7.526
 2142POPC   NC330623  35.580  31.878   9.474
 2142POPC   PO430624  35.188  31.275   9.495
 2142POPC   GL130625  35.226  31.343   9.113
 2142POPC   GL230626  35.286  31.690   9.116
 2142POPC   C1A30627  35.216  31.128   8.739
 2142POPC   D2A30628  35.416  31.056   8.349
 2142POPC   C3A30629  35.524  31.355   8.063
 2142POPC   C4A30630  35.521  31.211   7.675
 2142POPC   C1B30631  35.456  31.577   8.709
 2142POPC   C2B30632  35.156  31.544   8.368
 2142POPC   C3B30633  35.199  31.771   7.973
 2142POPC   C4B30634  35.544  31.721   7.689
 2143POPC   NC330635  44.774  42.160   9.376
 2143POPC   PO430636  44.125  42.271   9.409
 2143POPC   GL130637  44.404  42.511   9.092
 2143POPC   GL230638  44.751  42.401   8.945
 2143POPC   C1A30639  44.430  42.641   8.660
 2143POPC   D2A30640  44.528  42.296   8.369
 2143POPC   C3A30641  44.402  42.410   7.957
 2143POPC   C4A30642  44.514  42.175   7.620
 2143POPC   C1B30643  44.978  42.132   8.673
 2143POPC   C2B30644  44.955  41.849   8.300
 2143POPC   C3B30645  44.965  42.018   7.890
 2143POPC   C4B30646   0.004  42.332   7.576
 2144POPC   NC330647  13.102  28.716   9.528
 2144POPC   PO430648  12.669  29.238   9.390
 2144POPC   GL130649  12.810  29.112   9.035
 2144POPC   GL230650  13.162  29.027   9.130
 2144POPC   C1A30651  12.644  29.138   8.629
 2144POPC   D2A30652  12.440  28.907   8.302
 2144POPC   C3A30653  12.586  29.075   7.938
 2144POPC   C4A30654  12.664  29.140   7.522
 2144POPC   C1B30655  13.115  28.847   8.725
 2144POPC   C2B30656  12.960  28.890   8.291
 2144POPC   C3B30657  13.115  29.118   7.925
 2144POPC   C4B30658  13.178  29.559   7.815
 2145POPC   NC330659  35.577  39.082   9.437
 2145POPC   PO430660  34.888  39.129   9.584
 2145POPC   GL130661  35.129  39.155   9.158
 2145POPC   GL230662  35.477  39.288   8.992
 2145POPC   C1A30663  35.032  39.344   8.754
 2145POPC   D2A30664  35.308  39.593   8.491
 2145POPC   C3A30665  35.244  39.524   8.044
 2145POPC   C4A30666  35.566  39.352   7.781
 2145POPC   C1B30667  35.387  38.962   8.696
 2145POPC   C2B30668  35.362  39.058   8.237
 2145POPC   C3B30669  35.504  38.831   7.848
 2145POPC   C4B30670  35.213  38.679   7.538
 2146POPC   NC330671   3.908   4.170   9.456
 2146POPC   PO430672   3.692   4.785   9.493
 2146POPC   GL130673   3.520   4.434   9.217
 2146POPC   GL230674   3.441   4.615   8.903
 2146POPC   C1A30675   3.380   4.123   8.866
 2146POPC   D2A30676   3.310   4.309   8.464
 2146POPC   C3A30677   3.371   4.085   8.118
 2146POPC   C4A30678   3.359   4.173   7.709
 2146POPC   C1B30679   3.768   4.428   8.715
 2146POPC   C2B30680   3.899   4.537   8.320
 2146POPC   C3B30681   3.890   4.260   7.990
 2146POPC   C4B30682   3.858   4.282   7.577
 2147POPC   NC330683  40.538  32.247   9.553
 2147POPC   PO430684  41.207  32.262   9.445
 2147POPC   GL130685  40.877  32.195   9.110
 2147POPC   GL230686  40.578  32.395   9.089
 2147POPC   C1A30687  40.828  32.254   8.648
 2147POPC   D2A30688  40.990  32.445   8.244
 2147POPC   C3A30689  40.934  32.129   7.952
 2147POPC   C4A30690  41.048  32.039   7.522
 2147POPC   C1B30691  40.496  32.646   8.768
 2147POPC   C2B30692  40.487  32.503   8.366
 2147POPC   C3B30693  40.531  32.570   7.945
 2147POPC   C4B30694  40.538  32.224   7.660
 2148POPC   NC330695  38.276  41.677   9.343
 2148POPC   PO430696  38.891  41.935   9.573
 2148POPC   GL130697  38.790  41.672   9.193
 2148POPC   GL230698  38.587  41.894   9.008
 2148POPC   C1A30699  38.515  41.431   8.824
 2148POPC   D2A30700  38.162  41.432   8.514
 2148POPC   C3A30701  38.336  41.363   8.115
 2148POPC   C4A30702  38.597  41.353   7.763
 2148POPC   C1B30703  38.242  41.906   8.721
 2148POPC   C2B30704  38.308  41.913   8.276
 2148POPC   C3B30705  38.397  41.817   7.841
 2148POPC   C4B30706  38.105  41.780   7.477
 2149POPC   NC330707  41.410  23.120   9.592
 2149POPC   PO430708  40.693  22.996   9.461
 2149POPC   GL130709  40.543  22.842   9.124
 2149POPC   GL230710  40.533  23.166   8.948
 2149POPC   C1A30711  40.708  22.653   8.774
 2149POPC   D2A30712  40.648  22.875   8.392
 2149POPC   C3A30713  40.694  22.648   8.040
 2149POPC   C4A30714  40.950  22.740   7.647
 2149POPC   C1B30715  40.989  23.074   8.865
 2149POPC   C2B30716  41.181  23.061   8.475
 2149POPC   C3B30717  41.079  22.956   8.086
 2149POPC   C4B30718  41.216  23.184   7.689
 2150POPC   NC330719  28.005  15.431   9.363
 2150POPC   PO430720  27.531  14.970   9.564
 2150POPC   GL130721  27.488  15.264   9.226
 2150POPC   GL230722  27.756  15.095   9.082
 2150POPC   C1A30723  27.321  15.179   8.806
 2150POPC   D2A30724  27.459  14.977   8.421
 2150POPC   C3A30725  27.449  15.183   7.998
 2150POPC   C4A30726  27.787  15.503   7.858
 2150POPC   C1B30727  27.891  14.895   8.729
 2150POPC   C2B30728  27.961  14.812   8.324
 2150POPC   C3B30729  27.892  14.948   7.909
 2150POPC   C4B30730  27.993  14.833   7.523
 2151POPC   NC330731  16.332  44.318   9.485
 2151POPC   PO430732  16.976  44.659   9.568
 2151POPC   GL130733  16.864  44.718   9.140
 2151POPC   GL230734  16.533  44.560   9.075
 2151POPC   C1A30735  16.724  44.804   8.703
 2151POPC   D2A30736  16.729  44.641   8.317
 2151POPC   C3A30737  16.607  44.791   7.949
 2151POPC   C4A30738  16.908  44.696   7.672
 2151POPC   C1B30739  16.497  44.329   8.665
 2151POPC   C2B30740  16.275  44.422   8.276
 2151POPC   C3B30741  16.303  44.276   7.856
 2151POPC   C4B30742  16.496  44.483   7.509
 2152POPC   NC330743  29.389  33.601   9.478
 2152POPC   PO430744  29.673  34.221   9.488
 2152POPC   GL130745  29.398  34.046   9.131
 2152POPC   GL230746  29.055  34.215   9.053
 2152POPC   C1A30747  29.180  33.742   8.825
 2152POPC   D2A30748  29.008  33.717   8.379
 2152POPC   C3A30749  29.365  33.805   8.090
 2152POPC   C4A30750  29.473  33.929   7.669
 2152POPC   C1B30751  28.788  34.060   8.730
 2152POPC   C2B30752  28.561  34.083   8.352
 2152POPC   C3B30753  28.677  33.867   7.976
 2152POPC   C4B30754  29.008  33.734   7.735
 2153POPC   NC330755  40.380  26.680   9.406
 2153POPC   PO430756  41.076  26.902   9.512
 2153POPC   GL130757  40.748  27.022   9.210
 2153POPC   GL230758  40.418  27.230   9.242
 2153POPC   C1A30759  40.799  26.889   8.792
 2153POPC   D2A30760  41.028  26.816   8.428
 2153POPC   C3A30761  40.865  26.876   8.041
 2153POPC   C4A30762  40.925  26.709   7.642
 2153POPC   C1B30763  40.574  27.378   8.847
 2153POPC   C2B30764  40.642  27.212   8.432
 2153POPC   C3B30765  40.399  27.164   8.063
 2153POPC   C4B30766  40.579  27.095   7.667
 2154POPC   NC330767  11.208  18.202  10.102
 2154POPC   PO430768  11.275  18.631   9.614
 2154POPC   GL130769  11.534  18.385   9.292
 2154POPC   GL230770  11.319  18.528   9.058
 2154POPC   C1A30771  11.515  18.084   8.890
 2154POPC   D2A30772  11.332  18.205   8.496
 2154POPC   C3A30773  11.219  18.019   8.091
 2154POPC   C4A30774  11.259  18.183   7.670
 2154POPC   C1B30775  10.975  18.516   8.725
 2154POPC   C2B30776  10.913  18.407   8.272
 2154POPC   C3B30777  11.031  18.598   7.843
 2154POPC   C4B30778  11.069  18.547   7.356
 2155POPC   NC330779  37.629  17.925   9.453
 2155POPC   PO430780  37.391  17.216   9.513
 2155POPC   GL130781  37.410  17.528   9.189
 2155POPC   GL230782  37.775  17.558   9.121
 2155POPC   C1A30783  37.414  17.582   8.740
 2155POPC   D2A30784  37.542  17.288   8.371
 2155POPC   C3A30785  37.339  17.385   7.962
 2155POPC   C4A30786  37.326  17.527   7.526
 2155POPC   C1B30787  37.915  17.502   8.693
 2155POPC   C2B30788  37.707  17.750   8.342
 2155POPC   C3B30789  37.815  17.589   7.989
 2155POPC   C4B30790  38.036  17.562   7.643
 2156POPC   NC330791  24.327  32.898   9.588
 2156POPC   PO430792  24.838  32.458   9.416
 2156POPC   GL130793  24.654  32.789   9.146
 2156POPC   GL230794  24.633  33.147   9.245
 2156POPC   C1A30795  24.400  32.876   8.743
 2156POPC   D2A30796  24.471  32.731   8.292
 2156POPC   C3A30797  24.252  32.925   7.921
 2156POPC   C4A30798  24.166  33.224   7.527
 2156POPC   C1B30799  24.822  33.158   8.832
 2156POPC   C2B30800  24.793  33.305   8.399
 2156POPC   C3B30801  24.848  33.105   8.024
 2156POPC   C4B30802  24.726  32.717   7.834
 2157POPC   NC330803   3.078   9.531   9.487
 2157POPC   PO430804   3.587   9.973   9.521
 2157POPC   GL130805   3.459   9.728   9.211
 2157POPC   GL230806   3.745   9.808   9.026
 2157POPC   C1A30807   3.277   9.667   8.826
 2157POPC   D2A30808   3.557   9.836   8.511
 2157POPC   C3A30809   3.506   9.731   8.102
 2157POPC   C4A30810   3.638   9.641   7.729
 2157POPC   C1B30811   3.744   9.454   8.790
 2157POPC   C2B30812   3.775   9.366   8.367
 2157POPC   C3B30813   4.011   9.634   8.085
 2157POPC   C4B30814   4.130   9.583   7.651
 2158POPC   NC330815  26.698  17.596   9.530
 2158POPC   PO430816  27.039  17.023   9.710
 2158POPC   GL130817  26.843  17.099   9.253
 2158POPC   GL230818  26.946  17.447   9.112
 2158POPC   C1A30819  26.629  17.207   8.810
 2158POPC   D2A30820  26.804  17.443   8.436
 2158POPC   C3A30821  26.818  17.334   8.003
 2158POPC   C4A30822  27.093  17.602   7.757
 2158POPC   C1B30823  26.675  17.707   8.856
 2158POPC   C2B30824  26.361  17.653   8.555
 2158POPC   C3B30825  26.396  17.657   8.117
 2158POPC   C4B30826  26.650  17.840   7.823
 2159POPC   NC330827   8.720  19.395   9.462
 2159POPC   PO430828   8.209  19.816   9.588
 2159POPC   GL130829   8.155  19.775   9.180
 2159POPC   GL230830   8.334  19.509   9.133
 2159POPC   C1A30831   8.092  19.882   8.800
 2159POPC   D2A30832   7.928  19.721   8.458
 2159POPC   C3A30833   7.902  20.065   8.249
 2159POPC   C4A30834   7.875  20.023   7.860
 2159POPC   C1B30835   8.470  19.546   8.709
 2159POPC   C2B30836   8.334  19.441   8.308
 2159POPC   C3B30837   8.269  19.741   8.023
 2159POPC   C4B30838   8.232  19.775   7.612
 2160POPC   NC330839   1.370  42.140   9.388
 2160POPC   PO430840   1.120  42.693   9.662
 2160POPC   GL130841   1.266  42.592   9.181
 2160POPC   GL230842   0.990  42.456   9.088
 2160POPC   C1A30843   1.449  42.357   8.767
 2160POPC   D2A30844   1.569  42.379   8.297
 2160POPC   C3A30845   1.322  42.663   7.992
 2160POPC   C4A30846   1.250  42.561   7.544
 2160POPC   C1B30847   0.950  42.257   8.697
 2160POPC   C2B30848   1.138  42.133   8.309
 2160POPC   C3B30849   1.143  42.208   7.893
 2160POPC   C4B30850   0.898  42.151   7.558
 2161POPC   NC330851  21.686  39.245   9.396
 2161POPC   PO430852  21.023  39.469   9.367
 2161POPC   GL130853  21.282  39.283   9.076
 2161POPC   GL230854  21.366  38.940   9.159
 2161POPC   C1A30855  21.449  39.379   8.692
 2161POPC   D2A30856  21.310  39.269   8.315
 2161POPC   C3A30857  21.537  39.441   7.939
 2161POPC   C4A30858  21.317  39.186   7.625
 2161POPC   C1B30859  21.607  38.897   8.795
 2161POPC   C2B30860  21.738  39.035   8.385
 2161POPC   C3B30861  21.572  38.949   8.017
 2161POPC   C4B30862  21.590  38.763   7.651
 2162POPC   NC330863   6.760  34.574   9.339
 2162POPC   PO430864   6.002  34.495   9.303
 2162POPC   GL130865   6.378  34.310   9.067
 2162POPC   GL230866   6.512  34.628   8.897
 2162POPC   C1A30867   6.681  34.200   8.713
 2162POPC   D2A30868   6.617  34.389   8.316
 2162POPC   C3A30869   6.724  34.221   7.897
 2162POPC   C4A30870   6.552  34.385   7.496
 2162POPC   C1B30871   6.893  34.781   8.683
 2162POPC   C2B30872   6.782  34.911   8.275
 2162POPC   C3B30873   6.739  34.716   7.900
 2162POPC   C4B30874   7.074  34.532   7.681
 2163POPC   NC330875  22.399  13.064   9.218
 2163POPC   PO430876  21.934  12.825   9.601
 2163POPC   GL130877  21.966  12.725   9.155
 2163POPC   GL230878  21.918  13.079   9.098
 2163POPC   C1A30879  22.102  12.744   8.692
 2163POPC   D2A30880  21.994  12.585   8.279
 2163POPC   C3A30881  22.218  12.693   7.923
 2163POPC   C4A30882  22.407  12.521   7.589
 2163POPC   C1B30883  22.035  13.252   8.685
 2163POPC   C2B30884  22.153  13.081   8.290
 2163POPC   C3B30885  21.911  13.083   7.909
 2163POPC   C4B30886  22.115  13.021   7.533
 2164POPC   NC330887  20.520  21.105   9.483
 2164POPC   PO430888  20.907  21.571   9.475
 2164POPC   GL130889  20.694  21.607   9.118
 2164POPC   GL230890  20.340  21.635   9.235
 2164POPC   C1A30891  20.814  21.418   8.717
 2164POPC   D2A30892  20.917  21.112   8.394
 2164POPC   C3A30893  20.719  21.259   8.035
 2164POPC   C4A30894  20.893  21.565   7.842
 2164POPC   C1B30895  20.335  21.684   8.766
 2164POPC   C2B30896  20.504  21.667   8.330
 2164POPC   C3B30897  20.280  21.515   7.948
 2164POPC   C4B30898  20.362  21.238   7.600
 2165POPC   NC330899  28.553  21.164   9.466
 2165POPC   PO430900  27.974  21.346   9.775
 2165POPC   GL130901  28.042  21.361   9.232
 2165POPC   GL230902  28.369  21.477   9.122
 2165POPC   C1A30903  28.052  21.525   8.748
 2165POPC   D2A30904  28.021  21.742   8.336
 2165POPC   C3A30905  28.221  21.490   8.039
 2165POPC   C4A30906  28.527  21.441   7.759
 2165POPC   C1B30907  28.614  21.311   8.779
 2165POPC   C2B30908  28.764  21.272   8.360
 2165POPC   C3B30909  28.519  21.020   8.150
 2165POPC   C4B30910  28.275  20.995   7.814
 2166POPC   NC330911  11.220  21.386   9.586
 2166POPC   PO430912  11.781  21.714   9.283
 2166POPC   GL130913  11.534  21.347   9.166
 2166POPC   GL230914  11.856  21.132   9.151
 2166POPC   C1A30915  11.281  21.230   8.753
 2166POPC   D2A30916  11.019  21.115   8.387
 2166POPC   C3A30917  11.263  21.199   8.004
 2166POPC   C4A30918  11.273  21.597   7.851
 2166POPC   C1B30919  11.784  21.378   8.734
 2166POPC   C2B30920  11.609  21.451   8.321
 2166POPC   C3B30921  11.754  21.682   7.950
 2166POPC   C4B30922  11.683  21.502   7.497
 2167POPC   NC330923  36.005  28.881   9.179
 2167POPC   PO430924  36.537  29.168   9.543
 2167POPC   GL130925  36.428  29.193   9.119
 2167POPC   GL230926  36.150  29.351   9.070
 2167POPC   C1A30927  36.467  29.059   8.702
 2167POPC   D2A30928  36.185  28.842   8.442
 2167POPC   C3A30929  36.187  28.908   8.033
 2167POPC   C4A30930  35.837  28.816   7.796
 2167POPC   C1B30931  36.237  29.512   8.721
 2167POPC   C2B30932  36.143  29.355   8.334
 2167POPC   C3B30933  35.968  29.343   7.934
 2167POPC   C4B30934  36.101  29.164   7.553
 2168POPC   NC330935  16.267  20.977   9.328
 2168POPC   PO430936  16.749  21.297   9.757
 2168POPC   GL130937  16.726  21.490   9.297
 2168POPC   GL230938  16.868  21.770   9.083
 2168POPC   C1A30939  16.695  21.339   8.826
 2168POPC   D2A30940  16.884  21.323   8.364
 2168POPC   C3A30941  16.642  21.204   7.983
 2168POPC   C4A30942  16.496  21.467   7.636
 2168POPC   C1B30943  17.132  21.564   8.734
 2168POPC   C2B30944  17.294  21.707   8.368
 2168POPC   C3B30945  17.140  21.778   7.980
 2168POPC   C4B30946  17.009  21.453   7.737
 2169POPC   NC330947  31.532  43.399   9.454
 2169POPC   PO430948  31.571  44.096   9.486
 2169POPC   GL130949  31.419  44.029   9.070
 2169POPC   GL230950  31.237  43.713   9.104
 2169POPC   C1A30951  31.568  44.121   8.635
 2169POPC   D2A30952  31.909  44.172   8.337
 2169POPC   C3A30953  31.755  44.075   7.927
 2169POPC   C4A30954  31.437  44.084   7.573
 2169POPC   C1B30955  31.461  43.626   8.706
 2169POPC   C2B30956  31.551  43.757   8.281
 2169POPC   C3B30957  31.247  43.795   7.982
 2169POPC   C4B30958  31.209  43.632   7.585
 2170POPC   NC330959   9.094  15.461   9.469
 2170POPC   PO430960   9.137  16.080   9.523
 2170POPC   GL130961   8.861  15.829   9.200
 2170POPC   GL230962   9.120  15.796   9.037
 2170POPC   C1A30963   8.685  15.682   8.760
 2170POPC   D2A30964   8.654  15.912   8.356
 2170POPC   C3A30965   8.762  15.660   7.997
 2170POPC   C4A30966   8.919  15.604   7.546
 2170POPC   C1B30967   9.052  16.041   8.682
 2170POPC   C2B30968   9.156  15.919   8.266
 2170POPC   C3B30969   9.146  15.952   7.851
 2170POPC   C4B30970   9.240  16.366   7.640
 2171POPC   NC330971   5.352  40.322   9.479
 2171POPC   PO430972   5.091  39.725   9.427
 2171POPC   GL130973   5.103  40.100   9.115
 2171POPC   GL230974   4.810  40.319   8.980
 2171POPC   C1A30975   5.254  40.289   8.757
 2171POPC   D2A30976   5.175  40.109   8.383
 2171POPC   C3A30977   5.077  40.312   8.031
 2171POPC   C4A30978   5.477  40.302   7.817
 2171POPC   C1B30979   4.836  39.906   8.743
 2171POPC   C2B30980   4.854  39.729   8.340
 2171POPC   C3B30981   5.022  39.832   7.927
 2171POPC   C4B30982   4.726  39.886   7.603
 2172POPC   NC330983  17.062  34.534   9.394
 2172POPC   PO430984  17.675  34.360   9.508
 2172POPC   GL130985  17.803  34.339   9.123
 2172POPC   GL230986  17.486  34.551   9.066
 2172POPC   C1A30987  17.778  34.388   8.708
 2172POPC   D2A30988  17.526  34.527   8.401
 2172POPC   C3A30989  17.678  34.494   8.009
 2172POPC   C4A30990  17.553  34.815   7.734
 2172POPC   C1B30991  17.216  34.326   8.768
 2172POPC   C2B30992  17.028  34.332   8.365
 2172POPC   C3B30993  17.088  34.390   7.912
 2172POPC   C4B30994  16.818  34.438   7.522
 2173POPC   NC330995  42.887  30.363   9.486
 2173POPC   PO430996  43.306  31.018   9.584
 2173POPC   GL130997  43.148  30.957   9.137
 2173POPC   GL230998  43.139  30.587   9.061
 2173POPC   C1A30999  43.123  30.940   8.689
 2173POPC   D2A31000  43.000  30.638   8.385
 2173POPC   C3A31001  42.923  30.823   7.989
 2173POPC   C4A31002  43.327  30.864   7.790
 2173POPC   C1B31003  42.872  30.316   8.777
 2173POPC   C2B31004  42.901  30.133   8.359
 2173POPC   C3B31005  43.152  30.317   8.003
 2173POPC   C4B31006  43.017  30.490   7.621
 2174POPC   NC331007  16.291  22.442   9.547
 2174POPC   PO431008  16.058  21.782   9.649
 2174POPC   GL131009  15.970  21.945   9.182
 2174POPC   GL231010  16.038  22.292   9.140
 2174POPC   C1A31011  15.940  22.011   8.719
 2174POPC   D2A31012  15.891  22.360   8.424
 2174POPC   C3A31013  15.870  22.214   7.991
 2174POPC   C4A31014  15.613  22.227   7.633
 2174POPC   C1B31015  16.274  22.407   8.784
 2174POPC   C2B31016  16.367  22.158   8.408
 2174POPC   C3B31017  16.381  22.328   8.004
 2174POPC   C4B31018  16.240  22.256   7.596
 2175POPC   NC331019   9.243  37.583   9.512
 2175POPC   PO431020   8.644  37.763   9.714
 2175POPC   GL131021   8.807  37.745   9.243
 2175POPC   GL231022   8.974  37.413   9.096
 2175POPC   C1A31023   8.804  37.740   8.762
 2175POPC   D2A31024   8.830  37.599   8.347
 2175POPC   C3A31025   8.823  37.755   7.925
 2175POPC   C4A31026   8.948  37.440   7.604
 2175POPC   C1B31027   9.274  37.559   8.717
 2175POPC   C2B31028   9.343  37.742   8.277
 2175POPC   C3B31029   9.329  37.680   7.814
 2175POPC   C4B31030   9.398  37.608   7.318
 2176POPC   NC331031   5.381  10.805   9.850
 2176POPC   PO431032   5.938  10.450   9.683
 2176POPC   GL131033   5.871  10.457   9.224
 2176POPC   GL231034   5.566  10.691   9.185
 2176POPC   C1A31035   6.006  10.407   8.784
 2176POPC   D2A31036   5.815  10.549   8.390
 2176POPC   C3A31037   6.001  10.659   8.007
 2176POPC   C4A31038   5.854  10.537   7.654
 2176POPC   C1B31039   5.508  10.508   8.799
 2176POPC   C2B31040   5.377  10.282   8.444
 2176POPC   C3B31041   5.447  10.414   8.033
 2176POPC   C4B31042   5.197  10.330   7.691
 2177POPC   NC331043  20.899  42.084   9.503
 2177POPC   PO431044  20.307  42.455   9.538
 2177POPC   GL131045  20.545  42.277   9.184
 2177POPC   GL231046  20.822  42.504   9.160
 2177POPC   C1A31047  20.508  42.148   8.743
 2177POPC   D2A31048  20.278  42.291   8.406
 2177POPC   C3A31049  20.500  42.294   8.034
 2177POPC   C4A31050  20.400  42.520   7.727
 2177POPC   C1B31051  20.644  42.629   8.778
 2177POPC   C2B31052  20.796  42.451   8.405
 2177POPC   C3B31053  20.906  42.622   7.987
 2177POPC   C4B31054  20.855  42.479   7.547
 2178POPC   NC331055  24.575   7.579   9.535
 2178POPC   PO431056  24.675   6.922   9.548
 2178POPC   GL131057  24.513   7.212   9.217
 2178POPC   GL231058  24.858   7.290   9.178
 2178POPC   C1A31059  24.562   7.505   8.832
 2178POPC   D2A31060  24.454   7.653   8.431
 2178POPC   C3A31061  24.661   7.525   8.044
 2178POPC   C4A31062  24.477   7.297   7.674
 2178POPC   C1B31063  24.729   7.036   8.804
 2178POPC   C2B31064  24.558   7.156   8.404
 2178POPC   C3B31065  24.623   6.991   8.017
 2178POPC   C4B31066  24.879   6.962   7.613
 2179POPC   NC331067  34.909  39.569   9.415
 2179POPC   PO431068  34.712  40.253   9.558
 2179POPC   GL131069  34.471  40.117   9.210
 2179POPC   GL231070  34.774  40.180   9.029
 2179POPC   C1A31071  34.332  40.139   8.765
 2179POPC   D2A31072  34.594  40.079   8.397
 2179POPC   C3A31073  34.763  40.348   8.102
 2179POPC   C4A31074  34.719  40.278   7.696
 2179POPC   C1B31075  34.744  39.775   8.781
 2179POPC   C2B31076  34.808  39.606   8.338
 2179POPC   C3B31077  34.832  39.813   7.903
 2179POPC   C4B31078  34.919  39.850   7.423
 2180POPC   NC331079  39.508  32.866   9.488
 2180POPC   PO431080  38.942  32.958   9.756
 2180POPC   GL131081  39.044  33.089   9.283
 2180POPC   GL231082  39.344  33.326   9.240
 2180POPC   C1A31083  39.240  33.084   8.825
 2180POPC   D2A31084  39.121  32.902   8.453
 2180POPC   C3A31085  38.936  33.043   8.085
 2180POPC   C4A31086  39.071  32.823   7.736
 2180POPC   C1B31087  39.612  33.422   8.857
 2180POPC   C2B31088  39.691  33.227   8.444
 2180POPC   C3B31089  39.469  33.129   8.063
 2180POPC   C4B31090  39.211  33.357   7.786
 2181POPC   NC331091   2.216   8.007   9.353
 2181POPC   PO431092   1.671   8.312   9.499
 2181POPC   GL131093   1.847   8.244   9.093
 2181POPC   GL231094   2.170   8.378   8.985
 2181POPC   C1A31095   1.724   8.099   8.716
 2181POPC   D2A31096   1.581   8.239   8.319
 2181POPC   C3A31097   1.897   8.318   8.037
 2181POPC   C4A31098   1.833   8.063   7.675
 2181POPC   C1B31099   2.226   8.001   8.711
 2181POPC   C2B31100   2.020   7.914   8.334
 2181POPC   C3B31101   2.228   7.941   7.966
 2181POPC   C4B31102   2.323   8.293   7.747
 2182POPC   NC331103   1.044  22.076   9.481
 2182POPC   PO431104   0.306  22.173   9.588
 2182POPC   GL131105   0.496  22.173   9.182
 2182POPC   GL231106   0.433  21.850   9.118
 2182POPC   C1A31107   0.489  22.414   8.774
 2182POPC   D2A31108   0.514  22.547   8.316
 2182POPC   C3A31109   0.503  22.236   7.970
 2182POPC   C4A31110   0.636  22.211   7.571
 2182POPC   C1B31111   0.225  21.942   8.789
 2182POPC   C2B31112   0.313  22.069   8.406
 2182POPC   C3B31113   0.160  21.838   8.053
 2182POPC   C4B31114   0.155  21.988   7.641
 2183POPC   NC331115   1.014   2.939   9.600
 2183POPC   PO431116   0.407   2.933   9.596
 2183POPC   GL131117   0.387   2.770   9.199
 2183POPC   GL231118   0.752   2.725   9.184
 2183POPC   C1A31119   0.206   2.741   8.786
 2183POPC   D2A31120   0.319   2.574   8.387
 2183POPC   C3A31121   0.331   2.794   8.036
 2183POPC   C4A31122   0.216   2.721   7.646
 2183POPC   C1B31123   0.676   3.008   8.811
 2183POPC   C2B31124   0.721   2.930   8.388
 2183POPC   C3B31125   0.834   2.819   7.992
 2183POPC   C4B31126   0.625   3.027   7.660
 2184POPC   NC331127  10.195  26.851   9.799
 2184POPC   PO431128  10.753  27.102   9.575
 2184POPC   GL131129  10.599  26.795   9.276
 2184POPC   GL231130  10.225  26.797   9.257
 2184POPC   C1A31131  10.554  26.728   8.830
 2184POPC   D2A31132  10.506  26.547   8.416
 2184POPC   C3A31133  10.724  26.789   8.110
 2184POPC   C4A31134  10.948  26.602   7.784
 2184POPC   C1B31135  10.118  27.075   8.860
 2184POPC   C2B31136   9.970  27.174   8.402
 2184POPC   C3B31137  10.122  26.993   7.981
 2184POPC   C4B31138  10.278  26.565   7.904
 2185POPC   NC331139   3.539  16.235   9.195
 2185POPC   PO431140   3.658  16.804   9.511
 2185POPC   GL131141   3.583  16.801   9.085
 2185POPC   GL231142   3.286  16.989   9.015
 2185POPC   C1A31143   3.809  16.726   8.698
 2185POPC   D2A31144   3.710  16.952   8.293
 2185POPC   C3A31145   3.785  16.700   7.947
 2185POPC   C4A31146   4.124  16.609   7.664
 2185POPC   C1B31147   3.325  16.854   8.617
 2185POPC   C2B31148   3.208  16.770   8.198
 2185POPC   C3B31149   3.278  16.849   7.778
 2185POPC   C4B31150   3.172  17.034   7.383
 2186POPC   NC331151  22.617  16.409   9.651
 2186POPC   PO431152  23.348  16.555   9.481
 2186POPC   GL131153  22.981  16.812   9.241
 2186POPC   GL231154  22.637  17.019   9.224
 2186POPC   C1A31155  22.881  16.850   8.805
 2186POPC   D2A31156  23.115  16.830   8.431
 2186POPC   C3A31157  23.008  16.800   8.031
 2186POPC   C4A31158  23.246  16.583   7.774
 2186POPC   C1B31159  22.497  17.180   8.806
 2186POPC   C2B31160  22.670  17.126   8.400
 2186POPC   C3B31161  22.651  17.286   7.984
 2186POPC   C4B31162  22.777  17.079   7.606
 2187POPC   NC331163   3.135  39.336   9.502
 2187POPC   PO431164   3.652  39.024   9.626
 2187POPC   GL131165   3.652  39.226   9.192
 2187POPC   GL231166   3.315  39.159   9.067
 2187POPC   C1A31167   3.627  39.483   8.787
 2187POPC   D2A31168   3.865  39.494   8.397
 2187POPC   C3A31169   3.643  39.442   8.024
 2187POPC   C4A31170   3.664  39.160   7.710
 2187POPC   C1B31171   3.130  39.296   8.697
 2187POPC   C2B31172   3.250  39.321   8.320
 2187POPC   C3B31173   3.067  39.127   7.967
 2187POPC   C4B31174   3.188  39.246   7.599
 2188POPC   NC331175   1.425  18.946   9.402
 2188POPC   PO431176   0.780  19.214   9.398
 2188POPC   GL131177   1.003  19.134   9.061
 2188POPC   GL231178   1.028  18.773   9.094
 2188POPC   C1A31179   1.307  19.120   8.715
 2188POPC   D2A31180   1.484  18.941   8.323
 2188POPC   C3A31181   1.418  19.219   7.972
 2188POPC   C4A31182   1.051  19.422   7.894
 2188POPC   C1B31183   0.887  18.818   8.676
 2188POPC   C2B31184   0.962  19.043   8.282
 2188POPC   C3B31185   1.051  18.896   7.884
 2188POPC   C4B31186   0.953  18.639   7.566
 2189POPC   NC331187  12.855  26.411   9.976
 2189POPC   PO431188  12.902  25.917   9.519
 2189POPC   GL131189  12.800  25.966   9.091
 2189POPC   GL231190  12.483  26.187   9.100
 2189POPC   C1A31191  13.024  26.188   8.753
 2189POPC   D2A31192  13.307  26.193   8.396
 2189POPC   C3A31193  13.028  25.964   8.149
 2189POPC   C4A31194  12.853  26.004   7.738
 2189POPC   C1B31195  12.496  26.001   8.694
 2189POPC   C2B31196  12.550  25.841   8.319
 2189POPC   C3B31197  12.393  25.899   7.916
 2189POPC   C4B31198  12.364  26.267   7.679
 2190POPC   NC331199  42.397  34.062   9.492
 2190POPC   PO431200  42.480  33.366   9.343
 2190POPC   GL131201  42.517  33.723   9.099
 2190POPC   GL231202  42.193  33.863   9.076
 2190POPC   C1A31203  42.435  33.672   8.676
 2190POPC   D2A31204  42.133  33.567   8.412
 2190POPC   C3A31205  42.293  33.686   8.074
 2190POPC   C4A31206  42.240  33.640   7.677
 2190POPC   C1B31207  42.062  34.040   8.653
 2190POPC   C2B31208  42.200  34.146   8.243
 2190POPC   C3B31209  42.304  34.147   7.798
 2190POPC   C4B31210  42.405  34.287   7.379
 2191POPC   NC331211  43.111  29.392   9.564
 2191POPC   PO431212  42.844  28.823   9.568
 2191POPC   GL131213  43.061  29.024   9.171
 2191POPC   GL231214  42.975  29.403   9.090
 2191POPC   C1A31215  43.038  29.109   8.696
 2191POPC   D2A31216  43.117  29.301   8.289
 2191POPC   C3A31217  43.168  28.953   7.991
 2191POPC   C4A31218  43.085  28.832   7.542
 2191POPC   C1B31219  43.381  29.449   8.872
 2191POPC   C2B31220  43.615  29.346   8.487
 2191POPC   C3B31221  43.569  29.480   8.061
 2191POPC   C4B31222  43.252  29.396   7.746
 2192POPC   NC331223   3.898  32.930   9.277
 2192POPC   PO431224   4.233  33.465   9.386
 2192POPC   GL131225   4.329  33.186   9.042
 2192POPC   GL231226   4.372  32.812   9.110
 2192POPC   C1A31227   4.131  32.998   8.675
 2192POPC   D2A31228   4.169  32.733   8.326
 2192POPC   C3A31229   4.173  33.067   8.014
 2192POPC   C4A31230   4.473  33.351   7.911
 2192POPC   C1B31231   4.768  32.767   8.902
 2192POPC   C2B31232   4.916  32.771   8.497
 2192POPC   C3B31233   4.652  32.911   8.185
 2192POPC   C4B31234   4.504  32.733   7.815
 2193POPC   NC331235  13.916  41.792   9.435
 2193POPC   PO431236  13.279  41.581   9.457
 2193POPC   GL131237  13.535  41.630   9.101
 2193POPC   GL231238  13.581  41.959   9.117
 2193POPC   C1A31239  13.763  41.680   8.705
 2193POPC   D2A31240  13.947  41.611   8.286
 2193POPC   C3A31241  13.681  41.411   7.949
 2193POPC   C4A31242  13.785  41.096   7.634
 2193POPC   C1B31243  13.378  42.035   8.761
 2193POPC   C2B31244  13.474  41.888   8.342
 2193POPC   C3B31245  13.685  41.916   7.953
 2193POPC   C4B31246  13.505  41.765   7.585
 2194POPC   NC331247  42.031  22.942   9.479
 2194POPC   PO431248  41.402  22.642   9.551
 2194POPC   GL131249  41.375  22.846   9.156
 2194POPC   GL231250  41.726  22.876   9.077
 2194POPC   C1A31251  41.386  22.688   8.745
 2194POPC   D2A31252  41.678  22.715   8.429
 2194POPC   C3A31253  41.557  22.917   8.088
 2194POPC   C4A31254  41.451  22.716   7.703
 2194POPC   C1B31255  41.651  23.168   8.736
 2194POPC   C2B31256  41.941  23.143   8.406
 2194POPC   C3B31257  42.037  22.970   8.031
 2194POPC   C4B31258  41.762  23.148   7.680
 2195POPC   NC331259  17.251  33.006   9.547
 2195POPC   PO431260  17.887  32.899   9.488
 2195POPC   GL131261  17.558  32.910   9.139
 2195POPC   GL231262  17.288  33.187   9.082
 2195POPC   C1A31263  17.391  32.736   8.756
 2195POPC   D2A31264  17.280  32.714   8.319
 2195POPC   C3A31265  17.619  32.877   8.075
 2195POPC   C4A31266  17.792  32.740   7.694
 2195POPC   C1B31267  17.586  33.318   8.819
 2195POPC   C2B31268  17.414  33.177   8.455
 2195POPC   C3B31269  17.195  33.182   8.094
 2195POPC   C4B31270  17.365  33.119   7.701
 2196POPC   NC331271  32.480   3.288   9.561
 2196POPC   PO431272  32.590   3.833   9.418
 2196POPC   GL131273  32.393   3.565   9.120
 2196POPC   GL231274  32.079   3.486   9.259
 2196POPC   C1A31275  32.443   3.397   8.693
 2196POPC   D2A31276  32.346   3.282   8.263
 2196POPC   C3A31277  32.218   3.621   7.982
 2196POPC   C4A31278  32.215   3.804   7.555
 2196POPC   C1B31279  31.962   3.505   8.820
 2196POPC   C2B31280  31.856   3.401   8.405
 2196POPC   C3B31281  31.890   3.249   8.029
 2196POPC   C4B31282  31.869   3.456   7.647
 2197POPC   NC331283  17.421  24.127   9.646
 2197POPC   PO431284  17.413  23.363   9.671
 2197POPC   GL131285  17.520  23.569   9.237
 2197POPC   GL231286  17.356  23.834   9.245
 2197POPC   C1A31287  17.693  23.742   8.830
 2197POPC   D2A31288  17.681  23.563   8.416
 2197POPC   C3A31289  17.844  23.701   8.028
 2197POPC   C4A31290  17.865  23.455   7.624
 2197POPC   C1B31291  17.250  23.978   8.840
 2197POPC   C2B31292  17.160  23.835   8.446
 2197POPC   C3B31293  17.310  23.711   8.060
 2197POPC   C4B31294  17.490  23.801   7.661
 2198POPC   NC331295  33.514  40.569   9.390
 2198POPC   PO431296  34.037  40.934   9.441
 2198POPC   GL131297  33.949  40.762   9.055
 2198POPC   GL231298  33.605  40.857   8.957
 2198POPC   C1A31299  34.021  40.702   8.618
 2198POPC   D2A31300  33.821  40.668   8.216
 2198POPC   C3A31301  33.985  40.917   7.871
 2198POPC   C4A31302  33.859  40.859   7.415
 2198POPC   C1B31303  33.474  40.581   8.600
 2198POPC   C2B31304  33.317  40.551   8.178
 2198POPC   C3B31305  33.500  40.751   7.818
 2198POPC   C4B31306  33.555  41.137   7.737
 2199POPC   NC331307   1.315  14.717   9.534
 2199POPC   PO431308   1.184  14.037   9.523
 2199POPC   GL131309   1.193  14.345   9.204
 2199POPC   GL231310   1.535  14.322   9.206
 2199POPC   C1A31311   1.266  14.505   8.767
 2199POPC   D2A31312   1.437  14.515   8.343
 2199POPC   C3A31313   1.136  14.515   7.949
 2199POPC   C4A31314   1.055  14.193   7.622
 2199POPC   C1B31315   1.391  14.020   8.877
 2199POPC   C2B31316   1.345  13.943   8.437
 2199POPC   C3B31317   1.386  14.092   8.047
 2199POPC   C4B31318   1.489  13.933   7.699
 2200POPC   NC331319  16.340  21.513   9.889
 2200POPC   PO431320  15.883  21.251   9.457
 2200POPC   GL131321  15.913  21.409   9.118
 2200POPC   GL231322  16.239  21.513   9.183
 2200POPC   C1A31323  15.704  21.562   8.771
 2200POPC   D2A31324  15.890  21.620   8.368
 2200POPC   C3A31325  15.683  21.682   7.996
 2200POPC   C4A31326  15.714  21.393   7.678
 2200POPC   C1B31327  16.217  21.460   8.731
 2200POPC   C2B31328  16.299  21.241   8.365
 2200POPC   C3B31329  16.136  21.368   7.976
 2200POPC   C4B31330  16.194  21.821   7.882
 2201POPC   NC331331   9.740  24.097   9.402
 2201POPC   PO431332   9.764  24.755   9.569
 2201POPC   GL131333   9.637  24.618   9.176
 2201POPC   GL231334   9.921  24.437   9.078
 2201POPC   C1A31335   9.397  24.479   8.834
 2201POPC   D2A31336   9.311  24.652   8.418
 2201POPC   C3A31337   9.432  24.432   8.057
 2201POPC   C4A31338   9.709  24.513   7.730
 2201POPC   C1B31339   9.825  24.225   8.719
 2201POPC   C2B31340   9.856  24.420   8.340
 2201POPC   C3B31341  10.111  24.457   8.001
 2201POPC   C4B31342  10.126  24.175   7.595
 2202POPC   NC331343   8.570   0.518   9.875
 2202POPC   PO431344   8.201   0.052   9.565
 2202POPC   GL131345   8.090   0.283   9.117
 2202POPC   GL231346   8.020   0.643   9.142
 2202POPC   C1A31347   8.258   0.420   8.739
 2202POPC   D2A31348   8.157   0.364   8.323
 2202POPC   C3A31349   8.417   0.506   8.006
 2202POPC   C4A31350   8.295   0.437   7.612
 2202POPC   C1B31351   8.051   0.873   8.722
 2202POPC   C2B31352   8.186   0.881   8.281
 2202POPC   C3B31353   7.989   0.761   7.887
 2202POPC   C4B31354   8.071   0.858   7.415
 2203POPC   NC331355   0.687   1.196   9.511
 2203POPC   PO431356   0.026   1.405   9.450
 2203POPC   GL131357   0.335   1.249   9.160
 2203POPC   GL231358   0.283   1.526   9.000
 2203POPC   C1A31359   0.504   1.094   8.745
 2203POPC   D2A31360   0.506   0.874   8.311
 2203POPC   C3A31361   0.209   0.967   7.942
 2203POPC   C4A31362   0.352   1.062   7.496
 2203POPC   C1B31363   0.574   1.608   8.681
 2203POPC   C2B31364   0.593   1.430   8.279
 2203POPC   C3B31365   0.411   1.428   7.861
 2203POPC   C4B31366   0.557   1.516   7.447
 2204POPC   NC331367  11.958   0.502   9.539
 2204POPC   PO431368  12.553   0.059   9.663
 2204POPC   GL131369  12.344   0.077   9.200
 2204POPC   GL231370  12.210   0.447   9.085
 2204POPC   C1A31371  12.417   0.131   8.749
 2204POPC   D2A31372  12.278   0.480   8.504
 2204POPC   C3A31373  12.423   0.450   8.100
 2204POPC   C4A31374  12.284   0.151   7.789
 2204POPC   C1B31375  11.847   0.552   8.810
 2204POPC   C2B31376  11.757   0.617   8.362
 2204POPC   C3B31377  11.932   0.555   7.911
 2204POPC   C4B31378  12.315   0.624   7.622
 2205POPC   NC331379  26.278  20.202   9.316
 2205POPC   PO431380  25.743  20.603   9.485
 2205POPC   GL131381  25.851  20.383   9.110
 2205POPC   GL231382  25.999  20.715   9.052
 2205POPC   C1A31383  26.084  20.371   8.707
 2205POPC   D2A31384  26.321  20.233   8.369
 2205POPC   C3A31385  26.134  20.405   8.012
 2205POPC   C4A31386  26.023  20.180   7.604
 2205POPC   C1B31387  26.198  20.877   8.685
 2205POPC   C2B31388  26.063  21.099   8.344
 2205POPC   C3B31389  26.015  20.977   7.947
 2205POPC   C4B31390  26.141  20.677   7.602
 2206POPC   NC331391  40.546  44.682   9.383
 2206POPC   PO431392  41.115  44.365   9.499
 2206POPC   GL131393  40.935  44.425   9.106
 2206POPC   GL231394  40.672  44.241   9.150
 2206POPC   C1A31395  40.874  44.721   8.758
 2206POPC   D2A31396  40.872   0.005   8.388
 2206POPC   C3A31397  40.823  44.797   8.000
 2206POPC   C4A31398  40.844  44.979   7.602
 2206POPC   C1B31399  40.484  44.390   8.777
 2206POPC   C2B31400  40.512  44.602   8.394
 2206POPC   C3B31401  40.448  44.430   8.009
 2206POPC   C4B31402  40.471  44.622   7.620
 2207POPC   NC331403  38.787  32.520   9.670
 2207POPC   PO431404  39.481  32.406   9.473
 2207POPC   GL131405  39.216  32.231   9.209
 2207POPC   GL231406  39.428  32.448   8.965
 2207POPC   C1A31407  39.098  32.090   8.819
 2207POPC   D2A31408  39.341  32.236   8.487
 2207POPC   C3A31409  39.156  32.118   8.128
 2207POPC   C4A31410  39.148  32.272   7.714
 2207POPC   C1B31411  39.035  32.621   8.912
 2207POPC   C2B31412  38.847  32.480   8.556
 2207POPC   C3B31413  38.817  32.518   8.113
 2207POPC   C4B31414  38.663  32.500   7.702
 2208POPC   NC331415  27.629  10.673   9.535
 2208POPC   PO431416  27.870  10.071   9.665
 2208POPC   GL131417  27.913  10.405   9.212
 2208POPC   GL231418  27.872  10.772   9.123
 2208POPC   C1A31419  27.588  10.524   8.800
 2208POPC   D2A31420  27.644  10.552   8.347
 2208POPC   C3A31421  27.368  10.506   7.978
 2208POPC   C4A31422  27.278  10.300   7.581
 2208POPC   C1B31423  28.022  10.746   8.694
 2208POPC   C2B31424  28.158  10.690   8.290
 2208POPC   C3B31425  27.954  10.542   7.935
 2208POPC   C4B31426  27.749  10.554   7.590
 2209POPC   NC331427  37.347  11.788   9.632
 2209POPC   PO431428  37.840  11.293   9.496
 2209POPC   GL131429  37.634  11.517   9.182
 2209POPC   GL231430  37.313  11.412   9.076
 2209POPC   C1A31431  37.750  11.313   8.790
 2209POPC   D2A31432  37.842  11.168   8.390
 2209POPC   C3A31433  37.636  11.492   8.150
 2209POPC   C4A31434  37.732  11.598   7.775
 2209POPC   C1B31435  37.254  11.412   8.624
 2209POPC   C2B31436  37.346  11.120   8.302
 2209POPC   C3B31437  37.604  11.014   7.931
 2209POPC   C4B31438  37.326  11.262   7.755
 2210POPC   NC331439  10.002  11.792   9.650
 2210POPC   PO431440   9.545  12.164   9.433
 2210POPC   GL131441   9.811  11.986   9.152
 2210POPC   GL231442   9.495  11.787   9.074
 2210POPC   C1A31443  10.012  12.022   8.744
 2210POPC   D2A31444   9.889  11.875   8.321
 2210POPC   C3A31445   9.994  12.158   7.997
 2210POPC   C4A31446   9.920  12.179   7.557
 2210POPC   C1B31447   9.509  12.118   8.730
 2210POPC   C2B31448   9.556  12.268   8.289
 2210POPC   C3B31449   9.495  12.028   7.878
 2210POPC   C4B31450   9.418  12.211   7.455
 2211POPC   NC331451  16.624   0.070   9.635
 2211POPC   PO431452  16.936   0.606   9.411
 2211POPC   GL131453  16.959   0.218   9.257
 2211POPC   GL231454  16.597   0.143   9.127
 2211POPC   C1A31455  17.045   0.168   8.841
 2211POPC   D2A31456  16.755   0.267   8.500
 2211POPC   C3A31457  16.911   0.208   8.101
 2211POPC   C4A31458  16.842   0.190   7.668
 2211POPC   C1B31459  16.380   0.424   8.853
 2211POPC   C2B31460  16.340   0.543   8.407
 2211POPC   C3B31461  16.412   0.329   8.052
 2211POPC   C4B31462  16.434   0.480   7.673
 2212POPC   NC331463  29.859   9.978   9.477
 2212POPC   PO431464  30.414   9.478   9.478
 2212POPC   GL131465  30.084   9.627   9.144
 2212POPC   GL231466  30.059  10.023   9.011
 2212POPC   C1A31467  29.939   9.627   8.714
 2212POPC   D2A31468  30.059   9.900   8.371
 2212POPC   C3A31469  29.927   9.729   7.987
 2212POPC   C4A31470  29.734   9.498   7.608
 2212POPC   C1B31471  29.650  10.045   8.824
 2212POPC   C2B31472  29.552  10.032   8.391
 2212POPC   C3B31473  29.702  10.187   7.989
 2212POPC   C4B31474  29.823  10.020   7.568
 2213POPC   NC331475  29.716  42.870   9.545
 2213POPC   PO431476  30.365  42.852   9.374
 2213POPC   GL131477  29.985  43.050   9.145
 2213POPC   GL231478  29.835  43.416   9.142
 2213POPC   C1A31479  29.914  43.049   8.710
 2213POPC   D2A31480  30.234  43.058   8.368
 2213POPC   C3A31481  30.050  43.081   7.961
 2213POPC   C4A31482  29.698  43.081   7.727
 2213POPC   C1B31483  29.991  43.540   8.715
 2213POPC   C2B31484  29.842  43.391   8.297
 2213POPC   C3B31485  29.771  43.556   7.865
 2213POPC   C4B31486  29.597  43.459   7.406
 2214POPC   NC331487  12.954  41.250   9.450
 2214POPC   PO431488  12.781  40.560   9.543
 2214POPC   GL131489  12.692  40.868   9.182
 2214POPC   GL231490  12.351  40.991   9.219
 2214POPC   C1A31491  12.772  41.112   8.748
 2214POPC   D2A31492  12.992  41.228   8.318
 2214POPC   C3A31493  13.085  40.971   7.932
 2214POPC   C4A31494  12.923  40.870   7.503
 2214POPC   C1B31495  12.359  40.788   8.792
 2214POPC   C2B31496  12.387  40.978   8.389
 2214POPC   C3B31497  12.572  40.976   7.983
 2214POPC   C4B31498  12.501  40.630   7.692
 2215POPC   NC331499  10.820  22.582   9.616
 2215POPC   PO431500  10.465  23.080   9.755
 2215POPC   GL131501  10.459  23.035   9.269
 2215POPC   GL231502  10.602  23.335   9.095
 2215POPC   C1A31503  10.468  22.852   8.828
 2215POPC   D2A31504  10.418  22.877   8.377
 2215POPC   C3A31505  10.757  22.809   8.071
 2215POPC   C4A31506  10.702  22.759   7.609
 2215POPC   C1B31507  10.598  23.303   8.634
 2215POPC   C2B31508  10.818  23.292   8.222
 2215POPC   C3B31509  10.634  23.258   7.841
 2215POPC   C4B31510  10.210  23.183   7.834
 2216POPC   NC331511   6.392  17.039   9.332
 2216POPC   PO431512   7.029  17.306   9.484
 2216POPC   GL131513   6.695  17.454   9.200
 2216POPC   GL231514   6.962  17.564   9.008
 2216POPC   C1A31515   6.507  17.619   8.782
 2216POPC   D2A31516   6.616  17.563   8.334
 2216POPC   C3A31517   6.571  17.796   7.945
 2216POPC   C4A31518   6.611  17.644   7.495
 2216POPC   C1B31519   6.887  17.255   8.663
 2216POPC   C2B31520   6.854  17.109   8.229
 2216POPC   C3B31521   6.862  17.344   7.824
 2216POPC   C4B31522   7.117  17.253   7.415
 2217POPC   NC331523   5.093  34.964   9.623
 2217POPC   PO431524   5.246  34.268   9.572
 2217POPC   GL131525   5.045  34.539   9.272
 2217POPC   GL231526   5.037  34.255   9.084
 2217POPC   C1A31527   5.002  34.656   8.796
 2217POPC   D2A31528   5.283  34.622   8.412
 2217POPC   C3A31529   5.023  34.587   8.033
 2217POPC   C4A31530   4.694  34.725   7.749
 2217POPC   C1B31531   5.217  34.172   8.718
 2217POPC   C2B31532   5.017  34.135   8.349
 2217POPC   C3B31533   4.988  34.085   7.957
 2217POPC   C4B31534   5.330  34.302   7.745
 2218POPC   NC331535  11.665  22.069   9.565
 2218POPC   PO431536  11.043  21.807   9.722
 2218POPC   GL131537  11.246  21.822   9.303
 2218POPC   GL231538  11.361  22.139   9.148
 2218POPC   C1A31539  11.169  21.731   8.865
 2218POPC   D2A31540  11.135  21.628   8.421
 2218POPC   C3A31541  11.379  21.950   8.209
 2218POPC   C4A31542  11.213  22.114   7.848
 2218POPC   C1B31543  10.948  22.232   8.911
 2218POPC   C2B31544  10.878  22.563   8.582
 2218POPC   C3B31545  11.159  22.529   8.221
 2218POPC   C4B31546  11.151  22.599   7.789
 2219POPC   NC331547  15.654  19.214   9.553
 2219POPC   PO431548  16.349  18.896   9.551
 2219POPC   GL131549  16.316  19.222   9.212
 2219POPC   GL231550  15.990  19.173   9.155
 2219POPC   C1A31551  16.285  19.347   8.761
 2219POPC   D2A31552  15.983  19.327   8.420
 2219POPC   C3A31553  16.141  19.404   8.006
 2219POPC   C4A31554  16.126  19.284   7.544
 2219POPC   C1B31555  15.971  18.940   8.753
 2219POPC   C2B31556  15.778  18.819   8.361
 2219POPC   C3B31557  15.600  18.745   7.956
 2219POPC   C4B31558  15.893  18.843   7.640
 2220POPC   NC331559   8.937  18.191   9.541
 2220POPC   PO431560   9.340  17.710   9.548
 2220POPC   GL131561   9.174  17.949   9.180
 2220POPC   GL231562   9.155  18.341   9.083
 2220POPC   C1A31563   8.828  18.044   8.856
 2220POPC   D2A31564   8.959  18.344   8.534
 2220POPC   C3A31565   8.932  18.237   8.102
 2220POPC   C4A31566   8.815  18.380   7.708
 2220POPC   C1B31567   9.327  18.622   8.763
 2220POPC   C2B31568   9.219  18.742   8.341
 2220POPC   C3B31569   9.143  18.673   7.946
 2220POPC   C4B31570   9.344  18.409   7.644
 2221POPC   NC331571  42.405  44.440   9.342
 2221POPC   PO431572  41.959  44.862   9.633
 2221POPC   GL131573  42.203  44.890   9.172
 2221POPC   GL231574  42.578  44.922   9.144
 2221POPC   C1A31575  42.212  44.715   8.708
 2221POPC   D2A31576  42.241  44.373   8.357
 2221POPC   C3A31577  42.019  44.380   7.943
 2221POPC   C4A31578  42.057  44.325   7.472
 2221POPC   C1B31579  42.716  44.688   8.760
 2221POPC   C2B31580  42.579  44.764   8.344
 2221POPC   C3B31581  42.544  44.592   7.935
 2221POPC   C4B31582  42.646  44.849   7.592
 2222POPC   NC331583   8.065  42.795   9.335
 2222POPC   PO431584   8.381  43.400   9.514
 2222POPC   GL131585   8.107  43.334   9.149
 2222POPC   GL231586   8.318  43.143   8.977
 2222POPC   C1A31587   7.971  43.345   8.672
 2222POPC   D2A31588   8.174  43.405   8.232
 2222POPC   C3A31589   7.927  43.330   7.853
 2222POPC   C4A31590   7.512  43.138   7.831
 2222POPC   C1B31591   8.362  43.001   8.556
 2222POPC   C2B31592   8.554  42.867   8.202
 2222POPC   C3B31593   8.239  42.895   7.913
 2222POPC   C4B31594   8.209  42.866   7.503
 2223POPC   NC331595   7.633   2.971   9.433
 2223POPC   PO431596   8.272   2.789   9.431
 2223POPC   GL131597   8.046   2.830   9.074
 2223POPC   GL231598   8.087   3.174   9.008
 2223POPC   C1A31599   8.147   2.843   8.633
 2223POPC   D2A31600   8.452   3.111   8.440
 2223POPC   C3A31601   8.400   3.041   8.012
 2223POPC   C4A31602   8.188   2.660   7.868
 2223POPC   C1B31603   7.709   3.151   8.827
 2223POPC   C2B31604   7.644   2.882   8.563
 2223POPC   C3B31605   7.818   2.797   8.189
 2223POPC   C4B31606   7.652   3.101   7.904
 2224POPC   NC331607  36.676   2.422   9.391
 2224POPC   PO431608  37.073   2.972   9.452
 2224POPC   GL131609  36.901   2.827   9.093
 2224POPC   GL231610  36.659   3.083   9.046
 2224POPC   C1A31611  37.065   2.917   8.674
 2224POPC   D2A31612  37.153   3.129   8.276
 2224POPC   C3A31613  37.104   2.897   7.881
 2224POPC   C4A31614  37.078   2.451   7.789
 2224POPC   C1B31615  36.568   2.856   8.678
 2224POPC   C2B31616  36.715   2.826   8.246
 2224POPC   C3B31617  36.603   2.657   7.857
 2224POPC   C4B31618  36.587   2.591   7.413
 2225POPC   NC331619  27.528   3.286   9.533
 2225POPC   PO431620  27.882   3.846   9.465
 2225POPC   GL131621  27.787   3.556   9.167
 2225POPC   GL231622  28.013   3.291   9.280
 2225POPC   C1A31623  27.486   3.458   8.843
 2225POPC   D2A31624  27.379   3.629   8.415
 2225POPC   C3A31625  27.617   3.662   8.051
 2225POPC   C4A31626  27.525   3.407   7.718
 2225POPC   C1B31627  27.908   3.158   8.871
 2225POPC   C2B31628  27.819   3.356   8.472
 2225POPC   C3B31629  27.672   3.146   8.104
 2225POPC   C4B31630  27.884   3.031   7.693
 2226POPC   NC331631  11.783  15.986   9.564
 2226POPC   PO431632  12.456  15.858   9.535
 2226POPC   GL131633  12.129  15.894   9.185
 2226POPC   GL231634  11.750  15.861   9.078
 2226POPC   C1A31635  12.156  15.861   8.752
 2226POPC   D2A31636  11.874  15.870   8.399
 2226POPC   C3A31637  12.129  15.889   8.019
 2226POPC   C4A31638  12.121  15.708   7.618
 2226POPC   C1B31639  11.578  16.198   8.815
 2226POPC   C2B31640  11.671  16.362   8.413
 2226POPC   C3B31641  11.706  16.190   8.008
 2226POPC   C4B31642  11.959  16.189   7.602
 2227POPC   NC331643   8.779  27.352   9.415
 2227POPC   PO431644   9.191  27.889   9.588
 2227POPC   GL131645   9.151  27.783   9.185
 2227POPC   GL231646   8.821  27.772   9.106
 2227POPC   C1A31647   9.161  27.487   8.843
 2227POPC   D2A31648   8.877  27.489   8.507
 2227POPC   C3A31649   9.053  27.424   8.129
 2227POPC   C4A31650   8.998  27.466   7.718
 2227POPC   C1B31651   8.522  27.732   8.785
 2227POPC   C2B31652   8.437  27.748   8.361
 2227POPC   C3B31653   8.622  27.717   7.959
 2227POPC   C4B31654   8.671  27.773   7.482
 2228POPC   NC331655   0.745  16.748   9.471
 2228POPC   PO431656   0.128  16.872   9.655
 2228POPC   GL131657   0.272  16.745   9.222
 2228POPC   GL231658  44.953  16.916   9.136
 2228POPC   C1A31659   0.554  16.716   8.793
 2228POPC   D2A31660   0.507  16.841   8.295
 2228POPC   C3A31661   0.745  16.651   7.926
 2228POPC   C4A31662   0.751  16.614   7.446
 2228POPC   C1B31663   0.096  16.915   8.703
 2228POPC   C2B31664   0.036  17.032   8.280
 2228POPC   C3B31665   0.087  16.800   7.885
 2228POPC   C4B31666   0.202  16.641   7.444
 2229POPC   NC331667  26.329  35.025   9.392
 2229POPC   PO431668  26.362  34.274   9.540
 2229POPC   GL131669  26.197  34.542   9.193
 2229POPC   GL231670  25.827  34.516   9.114
 2229POPC   C1A31671  26.445  34.656   8.805
 2229POPC   D2A31672  26.307  34.759   8.394
 2229POPC   C3A31673  26.383  34.545   8.012
 2229POPC   C4A31674  26.230  34.889   7.789
 2229POPC   C1B31675  25.983  34.458   8.696
 2229POPC   C2B31676  25.966  34.309   8.268
 2229POPC   C3B31677  25.867  34.520   7.885
 2229POPC   C4B31678  25.702  34.365   7.499
 2230POPC   NC331679  37.820   0.283   9.452
 2230POPC   PO431680  37.251   0.680   9.328
 2230POPC   GL131681  37.590   0.575   9.077
 2230POPC   GL231682  37.501   0.241   9.004
 2230POPC   C1A31683  37.785   0.500   8.683
 2230POPC   D2A31684  37.773   0.207   8.388
 2230POPC   C3A31685  37.588   0.391   8.084
 2230POPC   C4A31686  37.800   0.350   7.733
 2230POPC   C1B31687  37.308   0.307   8.616
 2230POPC   C2B31688  37.236   0.078   8.265
 2230POPC   C3B31689  37.456  44.972   7.850
 2230POPC   C4B31690  37.628   0.035   7.386
 2231POPC   NC331691  17.131  18.077   9.540
 2231POPC   PO431692  17.481  18.707   9.582
 2231POPC   GL131693  17.542  18.593   9.149
 2231POPC   GL231694  17.415  18.250   9.131
 2231POPC   C1A31695  17.393  18.576   8.744
 2231POPC   D2A31696  17.481  18.332   8.416
 2231POPC   C3A31697  17.548  18.574   8.097
 2231POPC   C4A31698  17.630  18.470   7.700
 2231POPC   C1B31699  17.086  18.159   8.788
 2231POPC   C2B31700  17.152  17.960   8.356
 2231POPC   C3B31701  17.379  18.060   7.958
 2231POPC   C4B31702  17.242  18.177   7.540
 2232POPC   NC331703  38.922  39.468   9.337
 2232POPC   PO431704  38.491  39.961   9.550
 2232POPC   GL131705  38.521  39.957   9.162
 2232POPC   GL231706  38.202  40.064   9.136
 2232POPC   C1A31707  38.528  39.893   8.746
 2232POPC   D2A31708  38.490  40.170   8.411
 2232POPC   C3A31709  38.504  39.933   8.077
 2232POPC   C4A31710  38.319  39.825   7.726
 2232POPC   C1B31711  38.072  40.192   8.731
 2232POPC   C2B31712  38.016  40.374   8.325
 2232POPC   C3B31713  37.989  40.159   7.944
 2232POPC   C4B31714  38.022  40.189   7.482
 2233POPC   NC331715   8.070  18.636   9.422
 2233POPC   PO431716   8.485  18.061   9.495
 2233POPC   GL131717   8.496  18.335   9.136
 2233POPC   GL231718   8.173  18.291   8.996
 2233POPC   C1A31719   8.496  18.473   8.681
 2233POPC   D2A31720   8.229  18.446   8.346
 2233POPC   C3A31721   8.392  18.313   7.980
 2233POPC   C4A31722   8.280  18.434   7.576
 2233POPC   C1B31723   7.873  18.217   8.621
 2233POPC   C2B31724   7.987  18.023   8.206
 2233POPC   C3B31725   8.044  18.010   7.749
 2233POPC   C4B31726   7.842  18.251   7.382
 2234POPC   NC331727  36.993   1.788   9.577
 2234POPC   PO431728  37.034   2.302   9.127
 2234POPC   GL131729  37.068   1.877   9.071
 2234POPC   GL231730  36.717   1.867   9.024
 2234POPC   C1A31731  37.252   1.725   8.700
 2234POPC   D2A31732  37.233   2.015   8.350
 2234POPC   C3A31733  37.211   1.782   7.967
 2234POPC   C4A31734  37.117   1.974   7.575
 2234POPC   C1B31735  36.492   2.224   8.798
 2234POPC   C2B31736  36.748   2.363   8.467
 2234POPC   C3B31737  36.804   2.142   8.090
 2234POPC   C4B31738  36.655   2.169   7.693
 2235POPC   NC331739   3.406  13.967   9.496
 2235POPC   PO431740   3.789  13.550   9.896
 2235POPC   GL131741   3.725  13.518   9.349
 2235POPC   GL231742   3.431  13.685   9.075
 2235POPC   C1A31743   3.844  13.577   8.868
 2235POPC   D2A31744   3.505  13.762   8.555
 2235POPC   C3A31745   3.455  13.655   8.091
 2235POPC   C4A31746   3.581  13.727   7.631
 2235POPC   C1B31747   3.102  13.503   8.795
 2235POPC   C2B31748   3.139  13.284   8.412
 2235POPC   C3B31749   3.012  13.420   8.050
 2235POPC   C4B31750   3.182  13.391   7.681
 2236POPC   NC331751   5.352  18.612   9.413
 2236POPC   PO431752   5.879  18.288   9.464
 2236POPC   GL131753   5.797  18.493   9.119
 2236POPC   GL231754   6.126  18.590   9.004
 2236POPC   C1A31755   5.656  18.306   8.772
 2236POPC   D2A31756   5.855  18.244   8.396
 2236POPC   C3A31757   5.587  18.086   8.060
 2236POPC   C4A31758   5.770  18.094   7.658
 2236POPC   C1B31759   6.165  18.147   8.857
 2236POPC   C2B31760   6.316  17.989   8.454
 2236POPC   C3B31761   6.116  18.001   8.036
 2236POPC   C4B31762   6.259  18.239   7.716
 2237POPC   NC331763   1.846  25.008   9.537
 2237POPC   PO431764   2.047  25.662   9.495
 2237POPC   GL131765   1.960  25.352   9.182
 2237POPC   GL231766   2.279  25.139   9.141
 2237POPC   C1A31767   1.729  25.298   8.801
 2237POPC   D2A31768   1.946  25.445   8.424
 2237POPC   C3A31769   1.861  25.261   8.033
 2237POPC   C4A31770   1.784  25.365   7.610
 2237POPC   C1B31771   2.194  25.032   8.701
 2237POPC   C2B31772   2.296  25.013   8.250
 2237POPC   C3B31773   2.310  25.096   7.820
 2237POPC   C4B31774   2.246  25.529   7.780
 2238POPC   NC331775  32.285  15.901   9.731
 2238POPC   PO431776  32.883  15.995   9.434
 2238POPC   GL131777  32.417  15.988   9.246
 2238POPC   GL231778  32.118  15.767   9.241
 2238POPC   C1A31779  32.097  16.182   8.953
 2238POPC   D2A31780  32.120  16.135   8.542
 2238POPC   C3A31781  31.967  16.259   8.160
 2238POPC   C4A31782  32.180  16.097   7.807
 2238POPC   C1B31783  32.233  15.692   8.795
 2238POPC   C2B31784  32.003  15.690   8.373
 2238POPC   C3B31785  32.032  15.606   7.926
 2238POPC   C4B31786  32.013  15.730   7.478
 2239POPC   NC331787  39.008  11.544   9.513
 2239POPC   PO431788  39.449  11.039   9.574
 2239POPC   GL131789  39.355  11.348   9.220
 2239POPC   GL231790  39.037  11.152   9.151
 2239POPC   C1A31791  39.177  11.452   8.776
 2239POPC   D2A31792  39.143  11.242   8.359
 2239POPC   C3A31793  39.424  11.412   8.034
 2239POPC   C4A31794  39.547  11.614   7.665
 2239POPC   C1B31795  39.044  10.895   8.755
 2239POPC   C2B31796  39.003  10.732   8.305
 2239POPC   C3B31797  39.272  10.880   7.988
 2239POPC   C4B31798  39.086  11.195   7.733
 2240POPC   NC331799  19.092  18.843   9.611
 2240POPC   PO431800  19.362  19.426   9.844
 2240POPC   GL131801  19.232  19.381   9.346
 2240POPC   GL231802  19.074  19.073   9.175
 2240POPC   C1A31803  19.089  19.444   8.864
 2240POPC   D2A31804  19.196  19.221   8.468
 2240POPC   C3A31805  18.959  19.267   8.091
 2240POPC   C4A31806  19.124  19.301   7.662
 2240POPC   C1B31807  18.881  18.944   8.772
 2240POPC   C2B31808  18.921  18.806   8.327
 2240POPC   C3B31809  19.069  18.823   7.898
 2240POPC   C4B31810  18.816  18.907   7.499
 2241POPC   NC331811  29.705   0.281   9.461
 2241POPC   PO431812  30.007   0.794   9.667
 2241POPC   GL131813  30.043   0.571   9.224
 2241POPC   GL231814  29.822   0.284   8.990
 2241POPC   C1A31815  30.068   0.657   8.801
 2241POPC   D2A31816  29.742   0.656   8.491
 2241POPC   C3A31817  29.864   0.710   8.059
 2241POPC   C4A31818  29.724   0.643   7.612
 2241POPC   C1B31819  29.985   0.207   8.574
 2241POPC   C2B31820  30.258   0.388   8.271
 2241POPC   C3B31821  30.121   0.311   7.881
 2241POPC   C4B31822  29.664   0.224   7.909
 2242POPC   NC331823   9.780  17.861   9.558
 2242POPC   PO431824   9.366  18.429   9.534
 2242POPC   GL131825   9.623  18.198   9.223
 2242POPC   GL231826   9.917  18.309   9.077
 2242POPC   C1A31827   9.529  18.087   8.801
 2242POPC   D2A31828   9.541  18.324   8.424
 2242POPC   C3A31829   9.429  18.127   8.077
 2242POPC   C4A31830   9.686  17.999   7.770
 2242POPC   C1B31831  10.027  18.313   8.632
 2242POPC   C2B31832  10.082  18.525   8.224
 2242POPC   C3B31833  10.175  18.375   7.795
 2242POPC   C4B31834  10.270  18.193   7.372
 2243POPC   NC331835  23.285  31.601  10.008
 2243POPC   PO431836  22.841  31.574   9.455
 2243POPC   GL131837  22.695  31.454   9.118
 2243POPC   GL231838  23.027  31.248   9.114
 2243POPC   C1A31839  22.657  31.264   8.761
 2243POPC   D2A31840  22.981  31.274   8.479
 2243POPC   C3A31841  22.749  31.375   8.143
 2243POPC   C4A31842  22.744  31.557   7.743
 2243POPC   C1B31843  23.225  31.599   8.877
 2243POPC   C2B31844  23.404  31.599   8.457
 2243POPC   C3B31845  23.237  31.475   8.030
 2243POPC   C4B31846  23.289  31.335   7.605
 2244POPC   NC331847  31.012   2.376   9.951
 2244POPC   PO431848  30.975   2.033   9.354
 2244POPC   GL131849  30.644   1.997   9.024
 2244POPC   GL231850  30.519   2.328   8.858
 2244POPC   C1A31851  30.550   1.913   8.580
 2244POPC   D2A31852  30.525   2.208   8.269
 2244POPC   C3A31853  30.669   1.948   7.974
 2244POPC   C4A31854  30.719   1.860   7.553
 2244POPC   C1B31855  30.922   2.272   8.634
 2244POPC   C2B31856  31.069   2.186   8.213
 2244POPC   C3B31857  31.090   2.161   7.738
 2244POPC   C4B31858  31.100   2.340   7.300
 2245POPC   NC331859   3.111  37.636   9.526
 2245POPC   PO431860   2.407  37.613   9.507
 2245POPC   GL131861   2.705  37.702   9.211
 2245POPC   GL231862   2.792  37.333   9.197
 2245POPC   C1A31863   2.783  37.889   8.780
 2245POPC   D2A31864   2.658  37.949   8.324
 2245POPC   C3A31865   2.898  37.663   8.057
 2245POPC   C4A31866   3.034  37.690   7.633
 2245POPC   C1B31867   2.478  37.427   8.867
 2245POPC   C2B31868   2.525  37.461   8.448
 2245POPC   C3B31869   2.386  37.564   8.055
 2245POPC   C4B31870   2.602  37.371   7.732
 2246POPC   NC331871  12.667  13.253   9.373
 2246POPC   PO431872  12.927  12.658   9.568
 2246POPC   GL131873  12.952  12.871   9.152
 2246POPC   GL231874  12.591  12.869   9.071
 2246POPC   C1A31875  12.996  12.882   8.682
 2246POPC   D2A31876  13.271  12.787   8.320
 2246POPC   C3A31877  13.143  12.728   7.923
 2246POPC   C4A31878  12.966  13.044   7.680
 2246POPC   C1B31879  12.443  13.114   8.725
 2246POPC   C2B31880  12.432  13.342   8.336
 2246POPC   C3B31881  12.489  13.186   7.917
 2246POPC   C4B31882  12.556  12.768   7.725
 2247POPC   NC331883   2.999  42.598   9.792
 2247POPC   PO431884   2.698  42.035   9.541
 2247POPC   GL131885   2.615  42.282   9.176
 2247POPC   GL231886   2.336  42.135   9.104
 2247POPC   C1A31887   2.866  42.435   8.789
 2247POPC   D2A31888   3.080  42.298   8.434
 2247POPC   C3A31889   3.226  42.526   8.109
 2247POPC   C4A31890   2.906  42.455   7.836
 2247POPC   C1B31891   2.349  42.426   8.745
 2247POPC   C2B31892   2.577  42.436   8.346
 2247POPC   C3B31893   2.596  42.117   8.061
 2247POPC   C4B31894   2.372  41.893   7.754
 2248POPC   NC331895  27.392  31.156   9.490
 2248POPC   PO431896  27.386  30.505   9.558
 2248POPC   GL131897  27.589  30.564   9.163
 2248POPC   GL231898  27.711  30.896   9.139
 2248POPC   C1A31899  27.539  30.439   8.727
 2248POPC   D2A31900  27.364  30.376   8.304
 2248POPC   C3A31901  27.620  30.649   8.072
 2248POPC   C4A31902  27.826  30.662   7.691
 2248POPC   C1B31903  27.623  30.951   8.678
 2248POPC   C2B31904  27.510  31.103   8.258
 2248POPC   C3B31905  27.696  31.133   7.874
 2248POPC   C4B31906  27.673  31.102   7.433
 2249POPC   NC331907   1.809   9.720   9.392
 2249POPC   PO431908   2.439   9.789   9.520
 2249POPC   GL131909   2.259   9.889   9.136
 2249POPC   GL231910   2.164   9.549   9.023
 2249POPC   C1A31911   2.395   9.858   8.697
 2249POPC   D2A31912   2.158   9.607   8.399
 2249POPC   C3A31913   2.008   9.712   7.993
 2249POPC   C4A31914   1.818   9.437   7.695
 2249POPC   C1B31915   1.887   9.850   8.763
 2249POPC   C2B31916   1.694   9.911   8.362
 2249POPC   C3B31917   1.511   9.608   8.064
 2249POPC   C4B31918   1.347   9.595   7.640
 2250POPC   NC331919  32.067  42.004   9.397
 2250POPC   PO431920  32.274  42.675   9.570
 2250POPC   GL131921  32.241  42.479   9.183
 2250POPC   GL231922  31.905  42.494   9.151
 2250POPC   C1A31923  32.395  42.280   8.784
 2250POPC   D2A31924  32.162  42.235   8.388
 2250POPC   C3A31925  32.369  42.241   7.991
 2250POPC   C4A31926  32.251  42.405   7.588
 2250POPC   C1B31927  32.023  42.624   8.752
 2250POPC   C2B31928  32.255  42.751   8.398
 2250POPC   C3B31929  32.137  42.749   7.988
 2250POPC   C4B31930  32.247  42.907   7.551
 2251POPC   NC331931  26.399  19.673   9.653
 2251POPC   PO431932  26.978  19.380   9.438
 2251POPC   GL131933  26.818  19.699   9.161
 2251POPC   GL231934  27.019  20.026   9.102
 2251POPC   C1A31935  26.615  19.652   8.769
 2251POPC   D2A31936  26.450  19.694   8.378
 2251POPC   C3A31937  26.608  19.799   8.028
 2251POPC   C4A31938  26.516  20.167   7.766
 2251POPC   C1B31939  26.863  20.103   8.701
 2251POPC   C2B31940  26.824  20.183   8.288
 2251POPC   C3B31941  27.005  20.114   7.914
 2251POPC   C4B31942  27.254  20.264   7.639
 2252POPC   NC331943  16.946  25.896   9.627
 2252POPC   PO431944  16.828  26.495   9.777
 2252POPC   GL131945  16.895  26.298   9.273
 2252POPC   GL231946  16.921  25.927   9.126
 2252POPC   C1A31947  16.625  26.307   8.858
 2252POPC   D2A31948  16.718  26.390   8.409
 2252POPC   C3A31949  16.570  26.142   8.084
 2252POPC   C4A31950  16.453  26.082   7.676
 2252POPC   C1B31951  17.013  26.022   8.695
 2252POPC   C2B31952  17.008  25.934   8.265
 2252POPC   C3B31953  16.968  25.920   7.823
 2252POPC   C4B31954  16.717  25.656   7.565
 2253POPC   NC331955   6.306   6.759   9.647
 2253POPC   PO431956   6.903   6.786   9.456
 2253POPC   GL131957   6.545   6.706   9.201
 2253POPC   GL231958   6.233   6.889   9.169
 2253POPC   C1A31959   6.545   6.373   8.933
 2253POPC   D2A31960   6.859   6.325   8.616
 2253POPC   C3A31961   6.748   6.537   8.231
 2253POPC   C4A31962   6.504   6.434   7.860
 2253POPC   C1B31963   6.241   6.768   8.748
 2253POPC   C2B31964   6.342   6.903   8.337
 2253POPC   C3B31965   6.375   6.941   7.919
 2253POPC   C4B31966   6.657   6.844   7.598
 2254POPC   NC331967   8.869  33.709   9.348
 2254POPC   PO431968   9.326  34.187   9.295
 2254POPC   GL131969   9.186  33.858   8.977
 2254POPC   GL231970   9.306  33.504   9.133
 2254POPC   C1A31971   8.798  33.769   8.699
 2254POPC   D2A31972   8.586  33.586   8.336
 2254POPC   C3A31973   8.687  33.792   7.988
 2254POPC   C4A31974   9.086  33.847   7.808
 2254POPC   C1B31975   9.444  33.500   8.720
 2254POPC   C2B31976   9.163  33.583   8.387
 2254POPC   C3B31977   8.969  33.356   8.064
 2254POPC   C4B31978   9.222  33.327   7.718
 2255POPC   NC331979  21.686   6.013   9.652
 2255POPC   PO431980  21.050   5.868   9.666
 2255POPC   GL131981  21.332   5.986   9.273
 2255POPC   GL231982  21.595   5.739   9.191
 2255POPC   C1A31983  21.376   6.108   8.808
 2255POPC   D2A31984  21.264   6.337   8.391
 2255POPC   C3A31985  21.241   6.042   8.007
 2255POPC   C4A31986  21.073   5.733   7.677
 2255POPC   C1B31987  21.762   5.701   8.746
 2255POPC   C2B31988  21.634   5.472   8.355
 2255POPC   C3B31989  21.538   5.572   7.902
 2255POPC   C4B31990  21.525   5.440   7.440
 2256POPC   NC331991  21.650  28.942   9.491
 2256POPC   PO431992  21.287  29.500   9.248
 2256POPC   GL131993  21.586  29.294   9.087
 2256POPC   GL231994  21.369  29.035   9.039
 2256POPC   C1A31995  21.589  29.304   8.651
 2256POPC   D2A31996  21.400  29.381   8.288
 2256POPC   C3A31997  21.644  29.340   7.966
 2256POPC   C4A31998  21.371  29.410   7.668
 2256POPC   C1B31999  21.391  28.835   8.659
 2256POPC   C2B32000  21.347  28.888   8.271
 2256POPC   C3B32001  21.377  28.913   7.874
 2256POPC   C4B32002  21.650  28.666   7.697
 2257POPC   NC332003  25.831  12.413   9.490
 2257POPC   PO432004  25.945  11.718   9.502
 2257POPC   GL132005  26.196  11.882   9.141
 2257POPC   GL232006  26.068  12.209   9.068
 2257POPC   C1A32007  26.341  11.935   8.710
 2257POPC   D2A32008  26.212  12.129   8.342
 2257POPC   C3A32009  26.358  12.014   7.984
 2257POPC   C4A32010  26.306  11.964   7.577
 2257POPC   C1B32011  25.826  12.045   8.692
 2257POPC   C2B32012  25.719  12.086   8.236
 2257POPC   C3B32013  25.908  12.191   7.850
 2257POPC   C4B32014  26.068  12.433   7.542
 2258POPC   NC332015  32.535  38.598   9.346
 2258POPC   PO432016  33.134  38.603   9.725
 2258POPC   GL132017  33.094  38.555   9.261
 2258POPC   GL232018  33.046  38.180   9.183
 2258POPC   C1A32019  32.908  38.531   8.837
 2258POPC   D2A32020  32.656  38.582   8.493
 2258POPC   C3A32021  32.798  38.572   8.082
 2258POPC   C4A32022  32.927  38.613   7.655
 2258POPC   C1B32023  32.944  38.027   8.751
 2258POPC   C2B32024  32.996  38.149   8.311
 2258POPC   C3B32025  33.126  38.209   7.868
 2258POPC   C4B32026  33.110  38.197   7.377
 2259POPC   NC332027  26.817  12.439   9.327
 2259POPC   PO432028  27.058  13.104   9.375
 2259POPC   GL132029  27.081  12.965   8.990
 2259POPC   GL232030  26.914  12.694   8.892
 2259POPC   C1A32031  27.101  13.038   8.557
 2259POPC   D2A32032  26.885  12.725   8.299
 2259POPC   C3A32033  26.942  12.742   7.871
 2259POPC   C4A32034  27.034  13.077   7.604
 2259POPC   C1B32035  26.586  12.912   8.664
 2259POPC   C2B32036  26.235  12.941   8.417
 2259POPC   C3B32037  26.371  13.064   8.023
 2259POPC   C4B32038  26.537  12.962   7.621
 2260POPC   NC332039   8.829  20.142   9.510
 2260POPC   PO432040   8.269  20.617   9.461
 2260POPC   GL132041   8.340  20.529   9.080
 2260POPC   GL232042   8.420  20.200   9.190
 2260POPC   C1A32043   8.090  20.403   8.722
 2260POPC   D2A32044   7.964  20.579   8.342
 2260POPC   C3A32045   8.198  20.411   8.007
 2260POPC   C4A32046   8.197  20.684   7.683
 2260POPC   C1B32047   8.548  20.175   8.778
 2260POPC   C2B32048   8.427  20.036   8.401
 2260POPC   C3B32049   8.629  20.154   8.024
 2260POPC   C4B32050   8.658  20.481   7.713
 2261POPC   NC332051   5.892  10.005   9.536
 2261POPC   PO432052   6.273   9.393   9.524
 2261POPC   GL132053   6.070   9.647   9.195
 2261POPC   GL232054   5.715   9.658   9.093
 2261POPC   C1A32055   6.113   9.807   8.798
 2261POPC   D2A32056   6.205   9.609   8.405
 2261POPC   C3A32057   5.900   9.628   8.063
 2261POPC   C4A32058   6.094   9.592   7.648
 2261POPC   C1B32059   5.624   9.990   8.809
 2261POPC   C2B32060   5.865  10.049   8.431
 2261POPC   C3B32061   5.873  10.145   8.032
 2261POPC   C4B32062   5.524   9.960   7.801
 2262POPC   NC332063  44.262   4.466   9.616
 2262POPC   PO432064  44.157   3.811   9.419
 2262POPC   GL132065  43.952   4.120   9.160
 2262POPC   GL232066  44.084   4.472   9.123
 2262POPC   C1A32067  43.829   4.217   8.736
 2262POPC   D2A32068  44.087   4.370   8.413
 2262POPC   C3A32069  44.063   4.148   8.050
 2262POPC   C4A32070  43.931   4.238   7.646
 2262POPC   C1B32071  43.888   4.717   8.765
 2262POPC   C2B32072  43.650   4.611   8.366
 2262POPC   C3B32073  43.878   4.626   7.967
 2262POPC   C4B32074  44.098   4.754   7.566
 2263POPC   NC332075  18.343  19.493   9.487
 2263POPC   PO432076  18.561  20.024   9.817
 2263POPC   GL132077  18.296  19.969   9.339
 2263POPC   GL232078  17.966  20.108   9.214
 2263POPC   C1A32079  18.369  19.824   8.832
 2263POPC   D2A32080  18.534  19.760   8.391
 2263POPC   C3A32081  18.383  19.993   8.013
 2263POPC   C4A32082  18.573  20.025   7.602
 2263POPC   C1B32083  17.883  19.950   8.786
 2263POPC   C2B32084  18.025  19.837   8.369
 2263POPC   C3B32085  17.841  19.710   7.981
 2263POPC   C4B32086  17.939  19.906   7.611
 2264POPC   NC332087  33.486  12.342   9.511
 2264POPC   PO432088  33.927  12.873   9.559
 2264POPC   GL132089  34.067  12.880   9.164
 2264POPC   GL232090  34.041  12.533   9.091
 2264POPC   C1A32091  33.953  13.156   8.825
 2264POPC   D2A32092  33.716  12.973   8.502
 2264POPC   C3A32093  33.751  13.055   8.080
 2264POPC   C4A32094  33.604  12.789   7.768
 2264POPC   C1B32095  34.179  12.661   8.708
 2264POPC   C2B32096  34.085  12.535   8.306
 2264POPC   C3B32097  34.128  12.728   7.928
 2264POPC   C4B32098  34.003  12.590   7.554
 2265POPC   NC332099  41.693   0.973   9.578
 2265POPC   PO432100  41.427   0.315   9.515
 2265POPC   GL132101  41.554   0.529   9.141
 2265POPC   GL232102  41.486   0.229   9.029
 2265POPC   C1A32103  41.719   0.496   8.686
 2265POPC   D2A32104  41.553   0.694   8.338
 2265POPC   C3A32105  41.514   0.552   7.935
 2265POPC   C4A32106  41.782   0.410   7.635
 2265POPC   C1B32107  41.281   0.021   8.729
 2265POPC   C2B32108  41.399   0.143   8.332
 2265POPC   C3B32109  41.194   0.152   7.951
 2265POPC   C4B32110  41.375   0.122   7.564
 2266POPC   NC332111  31.140  40.241   9.343
 2266POPC   PO432112  31.480  39.811   9.685
 2266POPC   GL132113  31.417  39.819   9.197
 2266POPC   GL232114  31.308  39.547   9.038
 2266POPC   C1A32115  31.363  39.996   8.770
 2266POPC   D2A32116  31.154  40.153   8.419
 2266POPC   C3A32117  31.470  40.429   8.189
 2266POPC   C4A32118  31.757  40.354   7.825
 2266POPC   C1B32119  31.574  39.519   8.706
 2266POPC   C2B32120  31.404  39.696   8.354
 2266POPC   C3B32121  31.318  39.933   7.986
 2266POPC   C4B32122  31.574  39.854   7.672
 2267POPC   NC332123   2.213  41.973   9.574
 2267POPC   PO432124   1.782  42.526   9.371
 2267POPC   GL132125   1.895  42.370   9.025
 2267POPC   GL232126   1.806  42.079   9.100
 2267POPC   C1A32127   1.921  42.171   8.611
 2267POPC   D2A32128   2.070  42.455   8.290
 2267POPC   C3A32129   2.175  42.356   7.882
 2267POPC   C4A32130   2.080  42.524   7.517
 2267POPC   C1B32131   1.622  41.773   8.864
 2267POPC   C2B32132   1.587  41.735   8.445
 2267POPC   C3B32133   1.508  41.896   8.059
 2267POPC   C4B32134   1.657  42.249   7.797
 2268POPC   NC332135  38.245  16.455   9.493
 2268POPC   PO432136  38.728  16.029   9.618
 2268POPC   GL132137  38.525  16.032   9.193
 2268POPC   GL232138  38.517  15.693   9.062
 2268POPC   C1A32139  38.156  16.113   8.863
 2268POPC   D2A32140  37.974  16.013   8.450
 2268POPC   C3A32141  38.139  15.914   8.060
 2268POPC   C4A32142  38.353  16.265   7.887
 2268POPC   C1B32143  38.537  15.855   8.685
 2268POPC   C2B32144  38.558  16.111   8.351
 2268POPC   C3B32145  38.801  16.016   8.017
 2268POPC   C4B32146  38.557  15.747   7.840
 2269POPC   NC332147  13.174   2.946   9.485
 2269POPC   PO432148  12.852   2.330   9.505
 2269POPC   GL132149  12.950   2.608   9.139
 2269POPC   GL232150  12.713   2.887   9.201
 2269POPC   C1A32151  12.874   2.848   8.724
 2269POPC   D2A32152  12.901   2.680   8.325
 2269POPC   C3A32153  12.991   2.913   7.969
 2269POPC   C4A32154  13.075   2.539   7.811
 2269POPC   C1B32155  12.448   2.625   8.887
 2269POPC   C2B32156  12.405   2.690   8.420
 2269POPC   C3B32157  12.550   2.592   7.970
 2269POPC   C4B32158  12.656   2.594   7.522
 2270POPC   NC332159  39.732   8.407   9.555
 2270POPC   PO432160  39.919   7.735   9.407
 2270POPC   GL132161  39.748   7.990   9.072
 2270POPC   GL232162  39.629   8.335   9.048
 2270POPC   C1A32163  39.779   8.078   8.636
 2270POPC   D2A32164  39.777   7.937   8.236
 2270POPC   C3A32165  39.732   8.179   7.854
 2270POPC   C4A32166  39.778   8.021   7.482
 2270POPC   C1B32167  39.627   8.569   8.661
 2270POPC   C2B32168  39.774   8.497   8.242
 2270POPC   C3B32169  39.818   8.701   7.824
 2270POPC   C4B32170  40.068   8.803   7.447
 2271POPC   NC332171  38.966   9.046   9.487
 2271POPC   PO432172  39.302   8.522   9.383
 2271POPC   GL132173  39.111   8.748   9.080
 2271POPC   GL232174  38.778   8.742   9.111
 2271POPC   C1A32175  39.189   8.820   8.658
 2271POPC   D2A32176  39.321   8.726   8.232
 2271POPC   C3A32177  39.393   9.024   7.896
 2271POPC   C4A32178  39.482   8.971   7.436
 2271POPC   C1B32179  38.683   8.699   8.701
 2271POPC   C2B32180  38.874   8.517   8.366
 2271POPC   C3B32181  38.880   8.685   7.975
 2271POPC   C4B32182  39.000   8.877   7.622
 2272POPC   NC332183   9.264  22.329   9.587
 2272POPC   PO432184   8.830  21.889   9.642
 2272POPC   GL132185   8.932  22.092   9.247
 2272POPC   GL232186   9.274  21.992   9.196
 2272POPC   C1A32187   8.979  22.286   8.799
 2272POPC   D2A32188   8.900  22.407   8.333
 2272POPC   C3A32189   8.775  22.189   7.905
 2272POPC   C4A32190   8.845  22.159   7.412
 2272POPC   C1B32191   9.451  22.034   8.815
 2272POPC   C2B32192   9.495  22.205   8.418
 2272POPC   C3B32193   9.271  22.159   8.057
 2272POPC   C4B32194   9.258  22.336   7.662
 2273POPC   NC332195  12.404  13.250   9.914
 2273POPC   PO432196  12.273  12.623   9.851
 2273POPC   GL132197  12.124  12.697   9.358
 2273POPC   GL232198  12.283  12.475   9.124
 2273POPC   C1A32199  12.042  12.822   8.858
 2273POPC   D2A32200  11.962  13.049   8.446
 2273POPC   C3A32201  11.952  12.912   8.010
 2273POPC   C4A32202  12.138  13.030   7.603
 2273POPC   C1B32203  12.142  12.356   8.681
 2273POPC   C2B32204  12.238  12.400   8.231
 2273POPC   C3B32205  12.135  12.486   7.802
 2273POPC   C4B32206  11.809  12.651   7.546
 2274POPC   NC332207  18.788  31.907   9.405
 2274POPC   PO432208  19.126  31.294   9.495
 2274POPC   GL132209  19.212  31.430   9.079
 2274POPC   GL232210  18.979  31.669   9.006
 2274POPC   C1A32211  19.196  31.390   8.623
 2274POPC   D2A32212  19.114  31.567   8.230
 2274POPC   C3A32213  19.363  31.329   7.971
 2274POPC   C4A32214  19.293  31.148   7.574
 2274POPC   C1B32215  18.749  31.638   8.606
 2274POPC   C2B32216  18.633  31.325   8.286
 2274POPC   C3B32217  18.816  31.380   7.861
 2274POPC   C4B32218  18.897  31.849   7.758
 2275POPC   NC332219  11.431  23.703   9.839
 2275POPC   PO432220  11.522  23.428   9.174
 2275POPC   GL132221  11.129  23.587   8.994
 2275POPC   GL232222  11.123  23.983   8.941
 2275POPC   C1A32223  11.058  23.529   8.593
 2275POPC   D2A32224  11.340  23.495   8.296
 2275POPC   C3A32225  11.226  23.491   7.917
 2275POPC   C4A32226  11.555  23.362   7.685
 2275POPC   C1B32227  11.443  23.871   8.640
 2275POPC   C2B32228  11.722  23.888   8.291
 2275POPC   C3B32229  11.586  23.847   7.874
 2275POPC   C4B32230  11.542  24.124   7.523
 2276POPC   NC332231  21.898   7.640   9.369
 2276POPC   PO432232  22.456   7.212   9.621
 2276POPC   GL132233  22.212   7.273   9.204
 2276POPC   GL232234  22.272   7.509   8.921
 2276POPC   C1A32235  21.913   7.190   8.807
 2276POPC   D2A32236  21.906   7.354   8.354
 2276POPC   C3A32237  22.263   7.226   8.054
 2276POPC   C4A32238  22.251   7.146   7.567
 2276POPC   C1B32239  21.892   7.718   8.729
 2276POPC   C2B32240  21.815   7.924   8.364
 2276POPC   C3B32241  21.833   7.731   7.989
 2276POPC   C4B32242  22.192   7.632   7.759
 2277POPC   NC332243  26.423  14.051   9.605
 2277POPC   PO432244  27.040  14.436   9.493
 2277POPC   GL132245  26.834  14.528   9.137
 2277POPC   GL232246  26.541  14.374   9.224
 2277POPC   C1A32247  26.714  14.354   8.729
 2277POPC   D2A32248  26.761  14.529   8.312
 2277POPC   C3A32249  26.886  14.298   7.958
 2277POPC   C4A32250  26.728  14.540   7.689
 2277POPC   C1B32251  26.377  14.024   8.946
 2277POPC   C2B32252  26.269  13.953   8.526
 2277POPC   C3B32253  26.483  14.066   8.156
 2277POPC   C4B32254  26.363  14.205   7.739
 2278POPC   NC332255  25.078  44.901   9.894
 2278POPC   PO432256  25.450   0.314   9.483
 2278POPC   GL132257  25.583   0.393   9.072
 2278POPC   GL232258  25.351   0.134   8.953
 2278POPC   C1A32259  25.528   0.462   8.595
 2278POPC   D2A32260  25.199   0.463   8.275
 2278POPC   C3A32261  25.256   0.463   7.827
 2278POPC   C4A32262  25.444   0.444   7.419
 2278POPC   C1B32263  24.984   0.263   8.697
 2278POPC   C2B32264  24.868   0.065   8.288
 2278POPC   C3B32265  24.945   0.022   7.845
 2278POPC   C4B32266  24.983   0.221   7.432
 2279POPC   NC332267   9.287  30.209   9.506
 2279POPC   PO432268   8.923  30.766   9.540
 2279POPC   GL132269   9.035  30.607   9.175
 2279POPC   GL232270   9.340  30.817   9.126
 2279POPC   C1A32271   8.796  30.497   8.816
 2279POPC   D2A32272   8.729  30.382   8.394
 2279POPC   C3A32273   8.955  30.644   8.098
 2279POPC   C4A32274   9.138  30.470   7.754
 2279POPC   C1B32275   9.074  30.946   8.770
 2279POPC   C2B32276   9.139  31.087   8.352
 2279POPC   C3B32277   9.279  31.038   7.925
 2279POPC   C4B32278   9.089  30.900   7.512
 2280POPC   NC332279  40.170  17.893   9.478
 2280POPC   PO432280  39.855  17.292   9.689
 2280POPC   GL132281  39.995  17.506   9.243
 2280POPC   GL232282  40.287  17.452   9.208
 2280POPC   C1A32283  39.935  17.530   8.764
 2280POPC   D2A32284  39.662  17.248   8.482
 2280POPC   C3A32285  39.834  17.257   8.060
 2280POPC   C4A32286  40.006  17.600   7.815
 2280POPC   C1B32287  40.449  17.452   8.809
 2280POPC   C2B32288  40.345  17.511   8.390
 2280POPC   C3B32289  40.481  17.620   7.993
 2280POPC   C4B32290  40.466  17.483   7.594
 2281POPC   NC332291   8.935   5.396   9.583
 2281POPC   PO432292   8.722   4.745   9.462
 2281POPC   GL132293   8.905   5.024   9.222
 2281POPC   GL232294   8.662   5.266   9.108
 2281POPC   C1A32295   9.097   5.008   8.851
 2281POPC   D2A32296   8.992   4.864   8.436
 2281POPC   C3A32297   9.111   4.987   7.999
 2281POPC   C4A32298   8.837   4.907   7.667
 2281POPC   C1B32299   8.767   5.337   8.677
 2281POPC   C2B32300   8.835   5.332   8.236
 2281POPC   C3B32301   8.929   5.422   7.802
 2281POPC   C4B32302   9.063   5.734   7.476
 2282POPC   NC332303  39.649   4.109   9.467
 2282POPC   PO432304  39.002   4.019   9.728
 2282POPC   GL132305  39.012   4.352   9.304
 2282POPC   GL232306  39.349   4.339   9.146
 2282POPC   C1A32307  39.021   4.399   8.788
 2282POPC   D2A32308  39.293   4.135   8.485
 2282POPC   C3A32309  39.283   4.266   8.061
 2282POPC   C4A32310  39.108   4.049   7.703
 2282POPC   C1B32311  39.595   4.455   8.770
 2282POPC   C2B32312  39.767   4.573   8.356
 2282POPC   C3B32313  39.654   4.637   7.903
 2282POPC   C4B32314  39.385   4.471   7.592
 2283POPC   NC332315   3.166   8.123   9.042
 2283POPC   PO432316   2.650   8.111   9.481
 2283POPC   GL132317   2.643   8.181   9.063
 2283POPC   GL232318   2.600   7.839   9.046
 2283POPC   C1A32319   2.592   8.359   8.638
 2283POPC   D2A32320   2.629   8.150   8.214
 2283POPC   C3A32321   2.811   8.382   7.862
 2283POPC   C4A32322   3.088   8.399   7.531
 2283POPC   C1B32323   2.722   7.863   8.637
 2283POPC   C2B32324   3.022   7.785   8.359
 2283POPC   C3B32325   3.042   7.920   7.954
 2283POPC   C4B32326   3.092   7.852   7.530
 2284POPC   NC332327   3.076  44.963   9.359
 2284POPC   PO432328   2.503  44.642   9.486
 2284POPC   GL132329   2.683  44.748   9.080
 2284POPC   GL232330   2.603  44.427   8.952
 2284POPC   C1A32331   2.917  44.709   8.675
 2284POPC   D2A32332   2.769  44.910   8.298
 2284POPC   C3A32333   3.006  44.885   7.919
 2284POPC   C4A32334   2.930  44.734   7.482
 2284POPC   C1B32335   2.365  44.574   8.644
 2284POPC   C2B32336   2.306  44.656   8.223
 2284POPC   C3B32337   2.541  44.639   7.837
 2284POPC   C4B32338   2.480  44.446   7.412
 2285POPC   NC332339  17.864  23.374   9.536
 2285POPC   PO432340  17.914  24.063   9.405
 2285POPC   GL132341  18.061  23.650   9.176
 2285POPC   GL232342  18.418  23.650   9.098
 2285POPC   C1A32343  18.065  23.401   8.757
 2285POPC   D2A32344  18.210  23.536   8.377
 2285POPC   C3A32345  18.261  23.396   7.966
 2285POPC   C4A32346  18.576  23.552   7.712
 2285POPC   C1B32347  18.188  23.908   8.776
 2285POPC   C2B32348  18.143  24.037   8.390
 2285POPC   C3B32349  18.345  23.926   8.019
 2285POPC   C4B32350  18.133  23.941   7.677
 2286POPC   NC332351  18.042  25.046   9.774
 2286POPC   PO432352  18.257  25.695   9.598
 2286POPC   GL132353  18.234  25.381   9.248
 2286POPC   GL232354  18.085  25.031   9.252
 2286POPC   C1A32355  18.398  25.320   8.832
 2286POPC   D2A32356  18.458  25.516   8.447
 2286POPC   C3A32357  18.390  25.271   8.090
 2286POPC   C4A32358  18.456  25.316   7.681
 2286POPC   C1B32359  17.918  25.170   8.860
 2286POPC   C2B32360  18.071  25.126   8.464
 2286POPC   C3B32361  17.924  25.088   8.051
 2286POPC   C4B32362  17.860  25.492   7.857
 2287POPC   NC332363   4.694  18.927   9.774
 2287POPC   PO432364   5.283  19.090   9.449
 2287POPC   GL132365   5.149  19.239   9.073
 2287POPC   GL232366   4.779  19.277   9.106
 2287POPC   C1A32367   5.339  19.201   8.689
 2287POPC   D2A32368   5.560  19.220   8.310
 2287POPC   C3A32369   5.437  18.939   8.013
 2287POPC   C4A32370   5.248  18.800   7.631
 2287POPC   C1B32371   4.841  18.970   8.765
 2287POPC   C2B32372   5.046  18.911   8.381
 2287POPC   C3B32373   4.946  19.040   8.018
 2287POPC   C4B32374   4.775  18.733   7.780
 2288POPC   NC332375  44.647   0.049   9.611
 2288POPC   PO432376  44.508   0.700   9.613
 2288POPC   GL132377  44.443   0.413   9.266
 2288POPC   GL232378  44.756   0.247   9.163
 2288POPC   C1A32379  44.393   0.360   8.824
 2288POPC   D2A32380  44.582   0.232   8.461
 2288POPC   C3A32381  44.441   0.362   8.077
 2288POPC   C4A32382  44.636   0.499   7.741
 2288POPC   C1B32383  44.910   0.033   8.809
 2288POPC   C2B32384  44.972  44.925   8.374
 2288POPC   C3B32385  44.918   0.160   8.026
 2288POPC   C4B32386  44.931   0.046   7.626
 2289POPC   NC332387   8.424  13.464   9.431
 2289POPC   PO432388   8.058  14.091   9.492
 2289POPC   GL132389   8.216  13.844   9.148
 2289POPC   GL232390   8.079  13.498   9.067
 2289POPC   C1A32391   8.433  13.778   8.773
 2289POPC   D2A32392   8.259  13.923   8.380
 2289POPC   C3A32393   8.439  13.784   8.005
 2289POPC   C4A32394   8.241  13.786   7.634
 2289POPC   C1B32395   8.212  13.328   8.681
 2289POPC   C2B32396   8.224  13.405   8.243
 2289POPC   C3B32397   8.153  13.295   7.816
 2289POPC   C4B32398   8.230  13.352   7.364
 2290POPC   NC332399  12.687   4.631   9.635
 2290POPC   PO432400  12.817   5.275   9.428
 2290POPC   GL132401  12.814   4.959   9.114
 2290POPC   GL232402  13.134   4.979   9.012
 2290POPC   C1A32403  12.819   4.855   8.641
 2290POPC   D2A32404  12.664   4.989   8.251
 2290POPC   C3A32405  12.772   4.862   7.818
 2290POPC   C4A32406  13.109   4.800   7.470
 2290POPC   C1B32407  12.920   5.333   8.768
 2290POPC   C2B32408  12.961   5.398   8.311
 2290POPC   C3B32409  13.042   5.307   7.859
 2290POPC   C4B32410  13.074   5.616   7.520
 2291POPC   NC332411   8.100  27.202   9.418
 2291POPC   PO432412   8.450  27.786   9.437
 2291POPC   GL132413   8.160  27.621   9.118
 2291POPC   GL232414   8.287  27.302   8.960
 2291POPC   C1A32415   7.995  27.617   8.694
 2291POPC   D2A32416   8.118  27.338   8.375
 2291POPC   C3A32417   8.182  27.477   7.966
 2291POPC   C4A32418   8.503  27.317   7.667
 2291POPC   C1B32419   7.850  27.139   8.797
 2291POPC   C2B32420   7.602  27.267   8.446
 2291POPC   C3B32421   7.552  27.414   8.017
 2291POPC   C4B32422   7.764  27.768   7.820
 2292POPC   NC332423  30.684  39.036   9.496
 2292POPC   PO432424  30.985  39.631   9.404
 2292POPC   GL132425  30.672  39.510   9.126
 2292POPC   GL232426  30.843  39.235   9.054
 2292POPC   C1A32427  30.525  39.411   8.689
 2292POPC   D2A32428  30.459  39.115   8.329
 2292POPC   C3A32429  30.636  39.292   7.985
 2292POPC   C4A32430  30.580  39.251   7.574
 2292POPC   C1B32431  30.702  38.932   8.731
 2292POPC   C2B32432  30.758  38.690   8.354
 2292POPC   C3B32433  30.707  38.786   7.924
 2292POPC   C4B32434  31.019  39.044   7.730
 2293POPC   NC332435  31.013  36.599   9.485
 2293POPC   PO432436  31.477  37.144   9.515
 2293POPC   GL132437  31.501  36.966   9.140
 2293POPC   GL232438  31.440  36.631   9.172
 2293POPC   C1A32439  31.734  37.056   8.759
 2293POPC   D2A32440  31.669  36.933   8.350
 2293POPC   C3A32441  31.608  37.187   8.005
 2293POPC   C4A32442  31.697  37.225   7.602
 2293POPC   C1B32443  31.254  36.706   8.768
 2293POPC   C2B32444  31.356  36.534   8.380
 2293POPC   C3B32445  31.471  36.593   7.978
 2293POPC   C4B32446  31.335  36.856   7.646
 2294POPC   NC332447  41.004  31.410   9.389
 2294POPC   PO432448  40.455  31.783   9.503
 2294POPC   GL132449  40.648  31.665   9.110
 2294POPC   GL232450  40.549  31.306   9.076
 2294POPC   C1A32451  40.777  31.751   8.674
 2294POPC   D2A32452  40.480  31.938   8.340
 2294POPC   C3A32453  40.548  31.735   7.930
 2294POPC   C4A32454  40.971  31.629   7.802
 2294POPC   C1B32455  40.874  31.236   8.767
 2294POPC   C2B32456  40.925  31.011   8.389
 2294POPC   C3B32457  40.877  31.171   7.995
 2294POPC   C4B32458  41.070  31.143   7.617
 2295POPC   NC332459   4.632  44.445   9.426
 2295POPC   PO432460   4.970  45.000   9.518
 2295POPC   GL132461   4.991  44.701   9.130
 2295POPC   GL232462   5.070  44.340   9.172
 2295POPC   C1A32463   4.786  44.494   8.769
 2295POPC   D2A32464   4.805  44.285   8.375
 2295POPC   C3A32465   4.956  44.540   8.037
 2295POPC   C4A32466   4.842  44.752   7.643
 2295POPC   C1B32467   5.282  44.374   8.796
 2295POPC   C2B32468   5.320  44.615   8.436
 2295POPC   C3B32469   5.453  44.487   8.025
 2295POPC   C4B32470   5.251  44.392   7.611
 2296POPC   NC332471  37.362  39.014   9.867
 2296POPC   PO432472  37.672  39.500   9.487
 2296POPC   GL132473  37.793  39.343   9.099
 2296POPC   GL232474  37.440  39.421   8.997
 2296POPC   C1A32475  37.714  39.072   8.740
 2296POPC   D2A32476  37.541  39.119   8.344
 2296POPC   C3A32477  37.733  39.049   7.939
 2296POPC   C4A32478  37.695  39.285   7.534
 2296POPC   C1B32479  37.619  39.571   8.628
 2296POPC   C2B32480  37.395  39.585   8.277
 2296POPC   C3B32481  37.281  39.351   7.961
 2296POPC   C4B32482  37.284  39.570   7.625
 2297POPC   NC332483   5.767  17.840   9.415
 2297POPC   PO432484   6.115  17.321   9.561
 2297POPC   GL132485   6.154  17.451   9.123
 2297POPC   GL232486   6.051  17.135   8.969
 2297POPC   C1A32487   5.978  17.675   8.748
 2297POPC   D2A32488   5.644  17.721   8.422
 2297POPC   C3A32489   5.688  17.558   7.989
 2297POPC   C4A32490   5.756  17.599   7.532
 2297POPC   C1B32491   6.211  17.244   8.572
 2297POPC   C2B32492   6.122  17.546   8.263
 2297POPC   C3B32493   6.175  17.509   7.817
 2297POPC   C4B32494   6.186  17.354   7.404
 2298POPC   NC332495  44.017  18.737   9.534
 2298POPC   PO432496  43.646  19.370   9.501
 2298POPC   GL132497  43.818  19.218   9.132
 2298POPC   GL232498  43.895  19.545   9.036
 2298POPC   C1A32499  43.851  19.016   8.718
 2298POPC   D2A32500  44.164  18.950   8.389
 2298POPC   C3A32501  44.051  18.743   8.035
 2298POPC   C4A32502  44.125  18.791   7.598
 2298POPC   C1B32503  44.097  19.460   8.651
 2298POPC   C2B32504  43.963  19.389   8.236
 2298POPC   C3B32505  43.857  19.189   7.831
 2298POPC   C4B32506  43.813  19.125   7.375
 2299POPC   NC332507   1.534  34.513   9.533
 2299POPC   PO432508   0.865  34.711   9.379
 2299POPC   GL132509   1.234  34.532   9.122
 2299POPC   GL232510   1.513  34.815   9.121
 2299POPC   C1A32511   1.315  34.219   8.770
 2299POPC   D2A32512   1.354  34.180   8.307
 2299POPC   C3A32513   1.142  34.526   8.075
 2299POPC   C4A32514   1.121  34.611   7.628
 2299POPC   C1B32515   1.661  34.596   8.738
 2299POPC   C2B32516   1.615  34.638   8.284
 2299POPC   C3B32517   1.624  34.548   7.848
 2299POPC   C4B32518   1.575  34.844   7.473
 2300POPC   NC332519  35.418  36.634   9.508
 2300POPC   PO432520  35.718  37.172   9.307
 2300POPC   GL132521  35.365  37.051   9.098
 2300POPC   GL232522  35.290  36.701   9.035
 2300POPC   C1A32523  35.137  37.069   8.719
 2300POPC   D2A32524  35.288  36.948   8.330
 2300POPC   C3A32525  35.047  37.094   8.010
 2300POPC   C4A32526  35.268  37.007   7.676
 2300POPC   C1B32527  35.590  36.787   8.716
 2300POPC   C2B32528  35.719  36.612   8.358
 2300POPC   C3B32529  35.572  36.716   7.977
 2300POPC   C4B32530  35.669  36.580   7.601
 2301POPC   NC332531  21.280  21.282   9.500
 2301POPC   PO432532  21.637  21.849   9.521
 2301POPC   GL132533  21.563  21.525   9.163
 2301POPC   GL232534  21.209  21.530   9.057
 2301POPC   C1A32535  21.523  21.257   8.753
 2301POPC   D2A32536  21.665  21.103   8.336
 2301POPC   C3A32537  21.659  21.392   7.986
 2301POPC   C4A32538  21.393  21.619   7.771
 2301POPC   C1B32539  21.252  21.712   8.649
 2301POPC   C2B32540  21.230  21.499   8.260
 2301POPC   C3B32541  21.218  21.141   7.972
 2301POPC   C4B32542  21.235  21.184   7.542
 2302POPC   NC332543  22.215   6.371   9.376
 2302POPC   PO432544  22.029   5.754   9.497
 2302POPC   GL132545  22.125   5.803   9.098
 2302POPC   GL232546  21.926   6.095   9.065
 2302POPC   C1A32547  22.260   5.946   8.701
 2302POPC   D2A32548  22.190   6.121   8.278
 2302POPC   C3A32549  22.369   5.878   7.937
 2302POPC   C4A32550  22.392   5.945   7.485
 2302POPC   C1B32551  21.839   6.213   8.651
 2302POPC   C2B32552  21.679   5.990   8.304
 2302POPC   C3B32553  21.864   5.986   7.911
 2302POPC   C4B32554  21.946   6.219   7.504
 2303POPC   NC332555  21.666  29.679   9.437
 2303POPC   PO432556  21.063  29.772   9.694
 2303POPC   GL132557  21.265  30.023   9.284
 2303POPC   GL232558  21.621  30.200   9.195
 2303POPC   C1A32559  21.350  29.980   8.806
 2303POPC   D2A32560  21.611  29.793   8.469
 2303POPC   C3A32561  21.468  29.828   8.023
 2303POPC   C4A32562  21.155  30.137   7.903
 2303POPC   C1B32563  21.870  30.135   8.784
 2303POPC   C2B32564  21.897  30.174   8.311
 2303POPC   C3B32565  21.670  30.292   7.939
 2303POPC   C4B32566  21.680  30.030   7.578
 2304POPC   NC332567  27.174  19.869   9.559
 2304POPC   PO432568  27.738  19.489   9.737
 2304POPC   GL132569  27.672  19.736   9.290
 2304POPC   GL232570  27.342  19.632   9.160
 2304POPC   C1A32571  27.587  19.933   8.821
 2304POPC   D2A32572  27.326  19.999   8.404
 2304POPC   C3A32573  27.517  19.956   7.977
 2304POPC   C4A32574  27.833  19.760   7.729
 2304POPC   C1B32575  27.144  19.651   8.760
 2304POPC   C2B32576  26.974  19.621   8.345
 2304POPC   C3B32577  27.121  19.622   7.910
 2304POPC   C4B32578  27.239  19.720   7.470
 2305POPC   NC332579  37.226  15.051   9.441
 2305POPC   PO432580  36.562  15.388   9.565
 2305POPC   GL132581  36.713  15.333   9.181
 2305POPC   GL232582  36.841  15.019   9.088
 2305POPC   C1A32583  36.915  15.550   8.867
 2305POPC   D2A32584  36.905  15.636   8.450
 2305POPC   C3A32585  36.894  15.288   8.167
 2305POPC   C4A32586  36.861  15.352   7.732
 2305POPC   C1B32587  37.002  14.817   8.708
 2305POPC   C2B32588  37.155  14.833   8.295
 2305POPC   C3B32589  37.032  14.853   7.849
 2305POPC   C4B32590  36.993  14.757   7.400
 2306POPC   NC332591  31.317   0.270   9.462
 2306POPC   PO432592  31.857   0.637   9.593
 2306POPC   GL132593  31.751   0.657   9.119
 2306POPC   GL232594  31.676   0.323   9.091
 2306POPC   C1A32595  31.705   0.511   8.635
 2306POPC   D2A32596  31.627   0.483   8.195
 2306POPC   C3A32597  31.217   0.520   8.043
 2306POPC   C4A32598  31.215   0.761   7.681
 2306POPC   C1B32599  31.308   0.213   8.801
 2306POPC   C2B32600  31.339   0.077   8.375
 2306POPC   C3B32601  31.496   0.036   7.976
 2306POPC   C4B32602  31.467   0.329   7.647
 2307POPC   NC332603   1.459  35.771   9.486
 2307POPC   PO432604   1.165  36.388   9.714
 2307POPC   GL132605   1.147  36.144   9.344
 2307POPC   GL232606   1.212  36.377   9.134
 2307POPC   C1A32607   1.083  35.884   8.933
 2307POPC   D2A32608   0.926  35.743   8.504
 2307POPC   C3A32609   1.041  35.915   8.089
 2307POPC   C4A32610   1.444  35.964   7.864
 2307POPC   C1B32611   0.910  36.369   8.783
 2307POPC   C2B32612   0.974  36.362   8.332
 2307POPC   C3B32613   0.865  36.397   7.876
 2307POPC   C4B32614   0.996  36.473   7.420
 2308POPC   NC332615   4.807  34.096   9.511
 2308POPC   PO432616   5.161  33.521   9.454
 2308POPC   GL132617   5.068  33.742   9.114
 2308POPC   GL232618   5.397  33.887   9.122
 2308POPC   C1A32619   4.904  33.750   8.687
 2308POPC   D2A32620   4.818  33.465   8.310
 2308POPC   C3A32621   5.008  33.558   7.895
 2308POPC   C4A32622   5.043  33.820   7.511
 2308POPC   C1B32623   5.405  33.626   8.735
 2308POPC   C2B32624   5.296  33.701   8.342
 2308POPC   C3B32625   5.437  33.852   7.970
 2308POPC   C4B32626   5.511  33.639   7.632
 2309POPC   NC332627  38.863   8.321   9.431
 2309POPC   PO432628  39.453   8.094   9.777
 2309POPC   GL132629  39.285   8.036   9.282
 2309POPC   GL232630  39.011   7.915   9.115
 2309POPC   C1A32631  39.157   8.310   8.811
 2309POPC   D2A32632  39.346   8.222   8.400
 2309POPC   C3A32633  39.190   8.278   8.008
 2309POPC   C4A32634  39.350   8.535   7.730
 2309POPC   C1B32635  39.332   7.855   8.788
 2309POPC   C2B32636  39.327   7.704   8.371
 2309POPC   C3B32637  39.379   7.813   7.943
 2309POPC   C4B32638  39.008   7.864   7.736
 2310POPC   NC332639  29.841  25.990   9.653
 2310POPC   PO432640  30.435  25.863   9.458
 2310POPC   GL132641  30.073  25.856   9.172
 2310POPC   GL232642  29.800  26.089   9.163
 2310POPC   C1A32643  30.018  25.957   8.733
 2310POPC   D2A32644  30.207  25.983   8.350
 2310POPC   C3A32645  29.951  25.948   7.995
 2310POPC   C4A32646  30.070  25.912   7.584
 2310POPC   C1B32647  29.705  26.376   8.839
 2310POPC   C2B32648  29.902  26.387   8.412
 2310POPC   C3B32649  29.734  26.414   8.010
 2310POPC   C4B32650  29.752  26.318   7.605
 2311POPC   NC332651   4.054  36.246   9.484
 2311POPC   PO432652   3.397  36.006   9.416
 2311POPC   GL132653   3.754  36.021   9.135
 2311POPC   GL232654   3.829  36.396   9.053
 2311POPC   C1A32655   3.736  35.981   8.714
 2311POPC   D2A32656   3.544  35.856   8.355
 2311POPC   C3A32657   3.665  36.001   7.979
 2311POPC   C4A32658   3.349  36.167   7.730
 2311POPC   C1B32659   3.469  36.413   8.751
 2311POPC   C2B32660   3.454  36.370   8.296
 2311POPC   C3B32661   3.651  36.539   7.937
 2311POPC   C4B32662   3.911  36.319   7.665
 2312POPC   NC332663   5.316  41.016   9.513
 2312POPC   PO432664   4.903  40.452   9.461
 2312POPC   GL132665   5.202  40.663   9.142
 2312POPC   GL232666   5.066  40.964   9.081
 2312POPC   C1A32667   5.343  40.797   8.716
 2312POPC   D2A32668   5.010  40.632   8.471
 2312POPC   C3A32669   4.961  40.790   8.099
 2312POPC   C4A32670   5.255  40.754   7.809
 2312POPC   C1B32671   4.826  41.036   8.705
 2312POPC   C2B32672   4.772  41.230   8.279
 2312POPC   C3B32673   4.800  41.150   7.794
 2312POPC   C4B32674   4.677  41.175   7.332
 2313POPC   NC332675  21.616  20.584   9.472
 2313POPC   PO432676  20.978  20.911   9.498
 2313POPC   GL132677  21.201  20.679   9.183
 2313POPC   GL232678  21.527  20.849   9.054
 2313POPC   C1A32679  21.159  20.705   8.742
 2313POPC   D2A32680  21.267  20.740   8.318
 2313POPC   C3A32681  21.108  20.410   8.067
 2313POPC   C4A32682  21.241  20.677   7.728
 2313POPC   C1B32683  21.678  20.652   8.645
 2313POPC   C2B32684  21.524  20.305   8.361
 2313POPC   C3B32685  21.575  20.293   7.924
 2313POPC   C4B32686  21.934  20.268   7.748
 2314POPC   NC332687   5.542  31.587   9.527
 2314POPC   PO432688   6.138  31.515   9.664
 2314POPC   GL132689   6.095  31.567   9.232
 2314POPC   GL232690   5.840  31.344   9.177
 2314POPC   C1A32691   6.234  31.571   8.812
 2314POPC   D2A32692   5.976  31.559   8.441
 2314POPC   C3A32693   6.149  31.565   8.020
 2314POPC   C4A32694   6.113  31.354   7.623
 2314POPC   C1B32695   5.619  31.561   8.841
 2314POPC   C2B32696   5.496  31.338   8.470
 2314POPC   C3B32697   5.699  31.306   8.078
 2314POPC   C4B32698   5.591  31.459   7.693
 2315POPC   NC332699  42.623   0.730   9.852
 2315POPC   PO432700  43.239   0.504   9.637
 2315POPC   GL132701  43.283   0.647   9.200
 2315POPC   GL232702  43.026   0.426   9.080
 2315POPC   C1A32703  43.399   0.540   8.751
 2315POPC   D2A32704  43.284   0.294   8.386
 2315POPC   C3A32705  43.236   0.416   7.948
 2315POPC   C4A32706  42.873   0.301   7.684
 2315POPC   C1B32707  42.837   0.403   8.642
 2315POPC   C2B32708  42.768   0.467   8.182
 2315POPC   C3B32709  42.839   0.782   7.839
 2315POPC   C4B32710  42.885   0.680   7.355
 2316POPC   NC332711  11.459   3.601   9.596
 2316POPC   PO432712  10.814   3.764   9.455
 2316POPC   GL132713  11.159   3.582   9.178
 2316POPC   GL232714  11.501   3.649   9.100
 2316POPC   C1A32715  11.250   3.299   8.800
 2316POPC   D2A32716  11.463   3.268   8.414
 2316POPC   C3A32717  11.254   3.277   8.021
 2316POPC   C4A32718  11.401   3.380   7.625
 2316POPC   C1B32719  11.312   3.818   8.755
 2316POPC   C2B32720  11.476   3.946   8.384
 2316POPC   C3B32721  11.491   3.740   8.049
 2316POPC   C4B32722  11.284   3.847   7.737
 2317POPC   NC332723  35.120  23.553   9.662
 2317POPC   PO432724  35.656  23.873   9.535
 2317POPC   GL132725  35.412  23.817   9.170
 2317POPC   GL232726  35.586  24.114   9.064
 2317POPC   C1A32727  35.476  23.706   8.753
 2317POPC   D2A32728  35.371  23.492   8.369
 2317POPC   C3A32729  35.237  23.552   7.929
 2317POPC   C4A32730  35.450  23.660   7.566
 2317POPC   C1B32731  35.830  24.111   8.705
 2317POPC   C2B32732  35.642  23.980   8.350
 2317POPC   C3B32733  35.623  24.112   7.925
 2317POPC   C4B32734  35.562  24.127   7.461
 2318POPC   NC332735  39.656  38.212   9.331
 2318POPC   PO432736  39.090  37.711   9.389
 2318POPC   GL132737  39.307  37.568   9.069
 2318POPC   GL232738  39.420  37.860   9.033
 2318POPC   C1A32739  39.353  37.481   8.630
 2318POPC   D2A32740  38.964  37.539   8.387
 2318POPC   C3A32741  39.047  37.566   7.959
 2318POPC   C4A32742  39.460  37.663   7.814
 2318POPC   C1B32743  39.103  37.929   8.719
 2318POPC   C2B32744  39.300  37.918   8.357
 2318POPC   C3B32745  39.413  38.183   8.119
 2318POPC   C4B32746  39.377  38.135   7.698
 2319POPC   NC332747  29.227  12.520   9.696
 2319POPC   PO432748  29.345  12.748   9.118
 2319POPC   GL132749  28.989  12.769   8.936
 2319POPC   GL232750  29.077  13.128   8.843
 2319POPC   C1A32751  28.840  12.808   8.533
 2319POPC   D2A32752  29.195  12.969   8.343
 2319POPC   C3A32753  29.137  12.956   7.937
 2319POPC   C4A32754  28.917  12.652   7.737
 2319POPC   C1B32755  29.408  13.383   8.613
 2319POPC   C2B32756  29.655  13.190   8.249
 2319POPC   C3B32757  29.602  13.129   7.793
 2319POPC   C4B32758  29.271  13.148   7.445
 2320POPC   NC332759  29.884  27.690   9.486
 2320POPC   PO432760  29.488  27.162   9.504
 2320POPC   GL132761  29.723  27.334   9.163
 2320POPC   GL232762  30.113  27.309   9.226
 2320POPC   C1A32763  29.907  27.611   8.839
 2320POPC   D2A32764  29.745  27.736   8.456
 2320POPC   C3A32765  29.926  27.758   8.069
 2320POPC   C4A32766  29.630  27.730   7.738
 2320POPC   C1B32767  30.336  27.309   8.837
 2320POPC   C2B32768  30.145  27.405   8.434
 2320POPC   C3B32769  30.152  27.301   8.025
 2320POPC   C4B32770  30.128  27.507   7.626
 2321POPC   NC332771  42.400   1.162   9.310
 2321POPC   PO432772  41.900   1.398   9.489
 2321POPC   GL132773  42.158   1.592   9.117
 2321POPC   GL232774  42.564   1.609   9.114
 2321POPC   C1A32775  42.179   1.407   8.679
 2321POPC   D2A32776  42.242   1.416   8.208
 2321POPC   C3A32777  42.304   1.006   7.997
 2321POPC   C4A32778  42.018   0.873   7.665
 2321POPC   C1B32779  42.636   1.621   8.663
 2321POPC   C2B32780  42.730   1.316   8.299
 2321POPC   C3B32781  42.636   1.386   7.844
 2321POPC   C4B32782  42.581   1.513   7.394
 2322POPC   NC332783   2.540  30.474   9.828
 2322POPC   PO432784   2.938  30.941   9.592
 2322POPC   GL132785   2.669  30.708   9.274
 2322POPC   GL232786   2.400  30.939   9.130
 2322POPC   C1A32787   2.797  30.614   8.829
 2322POPC   D2A32788   2.757  30.317   8.468
 2322POPC   C3A32789   2.913  30.422   8.033
 2322POPC   C4A32790   2.728  30.425   7.599
 2322POPC   C1B32791   2.515  31.026   8.704
 2322POPC   C2B32792   2.738  30.840   8.334
 2322POPC   C3B32793   2.513  30.750   7.928
 2322POPC   C4B32794   2.157  31.049   7.807
 2323POPC   NC332795  15.755  41.161   9.549
 2323POPC   PO432796  15.845  40.569   9.773
 2323POPC   GL132797  16.000  40.777   9.302
 2323POPC   GL232798  15.809  41.058   9.057
 2323POPC   C1A32799  16.155  40.762   8.822
 2323POPC   D2A32800  15.922  40.746   8.375
 2323POPC   C3A32801  15.974  40.919   7.928
 2323POPC   C4A32802  16.354  41.140   7.822
 2323POPC   C1B32803  15.723  41.339   8.668
 2323POPC   C2B32804  15.497  41.432   8.260
 2323POPC   C3B32805  15.476  41.116   7.957
 2323POPC   C4B32806  15.394  40.712   7.766
 2324POPC   NC332807   4.407   1.018   9.523
 2324POPC   PO432808   4.098   1.599   9.397
 2324POPC   GL132809   4.336   1.228   9.078
 2324POPC   GL232810   4.715   1.184   9.136
 2324POPC   C1A32811   4.513   1.297   8.641
 2324POPC   D2A32812   4.700   1.525   8.294
 2324POPC   C3A32813   4.526   1.377   7.894
 2324POPC   C4A32814   4.298   0.978   7.823
 2324POPC   C1B32815   4.759   0.886   8.802
 2324POPC   C2B32816   4.617   0.787   8.377
 2324POPC   C3B32817   4.779   0.882   7.980
 2324POPC   C4B32818   4.759   1.044   7.558
 2325POPC   NC332819  13.089  25.492   9.593
 2325POPC   PO432820  12.950  24.859   9.480
 2325POPC   GL132821  13.038  25.147   9.148
 2325POPC   GL232822  13.021  25.505   9.099
 2325POPC   C1A32823  13.014  25.158   8.703
 2325POPC   D2A32824  13.137  25.000   8.317
 2325POPC   C3A32825  12.927  24.961   7.951
 2325POPC   C4A32826  12.536  25.049   7.803
 2325POPC   C1B32827  12.875  25.661   8.690
 2325POPC   C2B32828  12.948  25.478   8.293
 2325POPC   C3B32829  12.880  25.507   7.886
 2325POPC   C4B32830  12.641  25.594   7.526
 2326POPC   NC332831  26.133  18.633   9.499
 2326POPC   PO432832  26.101  19.340   9.502
 2326POPC   GL132833  25.919  19.064   9.185
 2326POPC   GL232834  26.196  18.959   9.105
 2326POPC   C1A32835  25.814  18.936   8.738
 2326POPC   D2A32836  25.660  18.834   8.304
 2326POPC   C3A32837  25.853  19.052   7.926
 2326POPC   C4A32838  25.867  19.127   7.445
 2326POPC   C1B32839  26.342  19.101   8.734
 2326POPC   C2B32840  26.118  19.253   8.420
 2326POPC   C3B32841  26.217  19.393   8.039
 2326POPC   C4B32842  26.307  19.206   7.666
 2327POPC   NC332843  13.422  31.665   9.364
 2327POPC   PO432844  13.250  32.252   9.547
 2327POPC   GL132845  13.546  32.287   9.149
 2327POPC   GL232846  13.894  32.446   9.140
 2327POPC   C1A32847  13.478  32.248   8.698
 2327POPC   D2A32848  13.642  32.011   8.349
 2327POPC   C3A32849  13.632  32.150   7.972
 2327POPC   C4A32850  13.441  32.538   7.836
 2327POPC   C1B32851  13.881  32.570   8.706
 2327POPC   C2B32852  13.680  32.562   8.319
 2327POPC   C3B32853  13.922  32.593   7.990
 2327POPC   C4B32854  14.093  32.305   7.753
 2328POPC   NC332855   3.945  33.896   9.248
 2328POPC   PO432856   3.354  33.889   9.606
 2328POPC   GL132857   3.397  33.805   9.193
 2328POPC   GL232858   3.587  33.519   9.267
 2328POPC   C1A32859   3.398  33.973   8.773
 2328POPC   D2A32860   3.260  33.850   8.359
 2328POPC   C3A32861   3.618  33.909   8.097
 2328POPC   C4A32862   3.591  34.214   7.771
 2328POPC   C1B32863   3.653  33.419   8.846
 2328POPC   C2B32864   3.606  33.495   8.416
 2328POPC   C3B32865   3.662  33.408   7.959
 2328POPC   C4B32866   3.678  33.525   7.487
 2329POPC   NC332867  31.078  44.289   9.477
 2329POPC   PO432868  30.667  43.709   9.311
 2329POPC   GL132869  30.823  44.062   9.079
 2329POPC   GL232870  30.520  44.195   8.922
 2329POPC   C1A32871  31.025  44.030   8.683
 2329POPC   D2A32872  30.861  43.748   8.356
 2329POPC   C3A32873  30.638  43.981   8.047
 2329POPC   C4A32874  30.905  44.061   7.690
 2329POPC   C1B32875  30.451  43.839   8.663
 2329POPC   C2B32876  30.285  43.650   8.292
 2329POPC   C3B32877  30.289  43.545   7.868
 2329POPC   C4B32878  30.472  43.807   7.564
 2330POPC   NC332879  23.018  43.568   9.601
 2330POPC   PO432880  22.913  42.960   9.732
 2330POPC   GL132881  22.873  43.112   9.270
 2330POPC   GL232882  22.702  43.433   9.207
 2330POPC   C1A32883  22.936  43.131   8.787
 2330POPC   D2A32884  22.915  43.316   8.336
 2330POPC   C3A32885  22.995  43.084   7.937
 2330POPC   C4A32886  23.362  43.122   7.626
 2330POPC   C1B32887  22.467  43.435   8.823
 2330POPC   C2B32888  22.403  43.377   8.383
 2330POPC   C3B32889  22.581  43.520   7.982
 2330POPC   C4B32890  22.480  43.753   7.626
 2331POPC   NC332891  17.631   2.108   9.490
 2331POPC   PO432892  17.236   1.607   9.293
 2331POPC   GL132893  17.368   1.986   9.073
 2331POPC   GL232894  17.682   1.884   8.989
 2331POPC   C1A32895  17.509   2.321   8.785
 2331POPC   D2A32896  17.788   2.292   8.407
 2331POPC   C3A32897  17.646   2.089   8.065
 2331POPC   C4A32898  17.419   2.123   7.739
 2331POPC   C1B32899  17.573   1.859   8.551
 2331POPC   C2B32900  17.286   1.749   8.201
 2331POPC   C3B32901  17.465   1.605   7.841
 2331POPC   C4B32902  17.891   1.697   7.729
 2332POPC   NC332903   7.157  22.753   9.208
 2332POPC   PO432904   7.624  23.169   9.441
 2332POPC   GL132905   7.493  23.107   9.019
 2332POPC   GL232906   7.801  23.253   8.936
 2332POPC   C1A32907   7.320  22.900   8.603
 2332POPC   D2A32908   7.418  22.661   8.236
 2332POPC   C3A32909   7.271  22.903   7.920
 2332POPC   C4A32910   7.276  22.770   7.517
 2332POPC   C1B32911   7.569  23.345   8.551
 2332POPC   C2B32912   7.611  23.241   8.110
 2332POPC   C3B32913   7.723  23.043   7.702
 2332POPC   C4B32914   7.933  23.048   7.275
 2333POPC   NC332915  31.784   4.005   9.512
 2333POPC   PO432916  31.186   4.367   9.418
 2333POPC   GL132917  31.515   4.326   9.166
 2333POPC   GL232918  31.468   3.969   9.102
 2333POPC   C1A32919  31.561   4.442   8.731
 2333POPC   D2A32920  31.741   4.372   8.314
 2333POPC   C3A32921  31.422   4.261   8.004
 2333POPC   C4A32922  31.154   4.371   7.665
 2333POPC   C1B32923  31.780   3.979   8.775
 2333POPC   C2B32924  31.975   3.903   8.360
 2333POPC   C3B32925  31.947   4.059   7.938
 2333POPC   C4B32926  31.640   4.004   7.633
 2334POPC   NC332927  39.915  35.582   9.437
 2334POPC   PO432928  39.550  34.973   9.185
 2334POPC   GL132929  39.967  35.100   9.041
 2334POPC   GL232930  40.098  35.456   8.996
 2334POPC   C1A32931  40.060  35.149   8.602
 2334POPC   D2A32932  40.012  35.017   8.175
 2334POPC   C3A32933  39.928  35.355   7.917
 2334POPC   C4A32934  39.595  35.572   7.731
 2334POPC   C1B32935  40.365  35.580   8.689
 2334POPC   C2B32936  40.273  35.516   8.294
 2334POPC   C3B32937  40.364  35.610   7.906
 2334POPC   C4B32938  40.354  35.316   7.594
 2335POPC   NC332939   4.595  42.963   9.693
 2335POPC   PO432940   5.237  43.210   9.539
 2335POPC   GL132941   4.974  43.265   9.176
 2335POPC   GL232942   5.033  42.964   9.006
 2335POPC   C1A32943   4.944  43.385   8.722
 2335POPC   D2A32944   5.149  43.320   8.292
 2335POPC   C3A32945   4.924  43.514   7.939
 2335POPC   C4A32946   4.856  43.432   7.464
 2335POPC   C1B32947   5.037  42.876   8.562
 2335POPC   C2B32948   4.846  42.729   8.182
 2335POPC   C3B32949   4.901  43.001   7.864
 2335POPC   C4B32950   5.227  43.164   7.690
 2336POPC   NC332951  15.296  31.326   9.505
 2336POPC   PO432952  14.845  31.804   9.586
 2336POPC   GL132953  14.748  31.649   9.176
 2336POPC   GL232954  14.935  31.353   9.135
 2336POPC   C1A32955  14.880  31.740   8.747
 2336POPC   D2A32956  15.160  31.776   8.394
 2336POPC   C3A32957  15.016  31.799   7.941
 2336POPC   C4A32958  15.343  31.712   7.617
 2336POPC   C1B32959  15.265  31.373   8.825
 2336POPC   C2B32960  15.220  31.213   8.424
 2336POPC   C3B32961  15.228  31.347   8.013
 2336POPC   C4B32962  15.385  31.213   7.628
 2337POPC   NC332963  13.397  27.775   9.520
 2337POPC   PO432964  13.670  27.256   9.848
 2337POPC   GL132965  13.671  27.321   9.331
 2337POPC   GL232966  13.689  27.656   9.101
 2337POPC   C1A32967  13.533  27.255   8.868
 2337POPC   D2A32968  13.484  27.546   8.500
 2337POPC   C3A32969  13.759  27.547   8.129
 2337POPC   C4A32970  13.660  27.403   7.736
 2337POPC   C1B32971  13.700  27.950   8.727
 2337POPC   C2B32972  13.519  28.032   8.311
 2337POPC   C3B32973  13.360  27.821   7.951
 2337POPC   C4B32974  13.651  27.909   7.647
 2338POPC   NC332975   7.190   6.398   9.484
 2338POPC   PO432976   7.491   7.058   9.467
 2338POPC   GL132977   7.266   6.815   9.080
 2338POPC   GL232978   7.021   6.527   9.037
 2338POPC   C1A32979   7.252   6.663   8.610
 2338POPC   D2A32980   7.258   6.395   8.235
 2338POPC   C3A32981   7.529   6.606   7.902
 2338POPC   C4A32982   7.680   7.034   7.744
 2338POPC   C1B32983   6.780   6.824   8.771
 2338POPC   C2B32984   6.858   7.030   8.389
 2338POPC   C3B32985   7.125   6.881   8.079
 2338POPC   C4B32986   7.028   6.572   7.787
 2339POPC   NC332987   9.191   4.673   9.502
 2339POPC   PO432988   9.825   4.546   9.538
 2339POPC   GL132989   9.525   4.328   9.252
 2339POPC   GL232990   9.419   4.589   9.064
 2339POPC   C1A32991   9.392   4.154   8.835
 2339POPC   D2A32992   9.566   4.083   8.431
 2339POPC   C3A32993   9.851   4.180   8.117
 2339POPC   C4A32994   9.627   4.205   7.748
 2339POPC   C1B32995   9.738   4.503   8.759
 2339POPC   C2B32996   9.599   4.597   8.335
 2339POPC   C3B32997   9.743   4.656   7.915
 2339POPC   C4B32998   9.991   4.500   7.531
 2340POPC   NC332999  31.534   7.066   9.595
 2340POPC   PO433000  30.925   7.007   9.466
 2340POPC   GL133001  31.025   7.289   9.142
 2340POPC   GL233002  31.376   7.325   9.149
 2340POPC   C1A33003  31.019   7.349   8.704
 2340POPC   D2A33004  31.256   7.141   8.394
 2340POPC   C3A33005  31.317   7.352   8.025
 2340POPC   C4A33006  31.293   7.789   7.920
 2340POPC   C1B33007  31.570   7.405   8.735
 2340POPC   C2B33008  31.581   7.649   8.351
 2340POPC   C3B33009  31.762   7.594   7.948
 2340POPC   C4B33010  31.934   7.236   7.800
 2341POPC   NC333011   6.454   1.613   9.543
 2341POPC   PO433012   6.932   2.083   9.536
 2341POPC   GL133013   6.823   1.840   9.190
 2341POPC   GL233014   6.493   1.955   9.171
 2341POPC   C1A33015   6.912   1.864   8.761
 2341POPC   D2A33016   6.947   1.702   8.352
 2341POPC   C3A33017   6.753   1.919   7.973
 2341POPC   C4A33018   6.333   1.850   7.801
 2341POPC   C1B33019   6.412   1.858   8.767
 2341POPC   C2B33020   6.550   2.052   8.417
 2341POPC   C3B33021   6.490   2.364   8.104
 2341POPC   C4B33022   6.312   2.357   7.711
 2342POPC   NC333023  27.572  33.798   9.822
 2342POPC   PO433024  28.317  33.588   9.618
 2342POPC   GL133025  28.021  33.727   9.229
 2342POPC   GL233026  27.642  33.793   9.267
 2342POPC   C1A33027  27.826  33.666   8.798
 2342POPC   D2A33028  27.651  33.440   8.413
 2342POPC   C3A33029  27.465  33.497   8.030
 2342POPC   C4A33030  27.765  33.724   7.870
 2342POPC   C1B33031  27.413  33.956   8.888
 2342POPC   C2B33032  27.557  33.977   8.459
 2342POPC   C3B33033  27.387  34.002   8.076
 2342POPC   C4B33034  27.484  34.145   7.702
 2343POPC   NC333035  40.321  21.980   9.355
 2343POPC   PO433036  39.918  22.527   9.463
 2343POPC   GL133037  39.864  22.323   9.091
 2343POPC   GL233038  39.897  21.965   9.115
 2343POPC   C1A33039  40.003  22.392   8.672
 2343POPC   D2A33040  40.405  22.396   8.439
 2343POPC   C3A33041  40.269  22.335   8.025
 2343POPC   C4A33042  39.935  22.544   7.849
 2343POPC   C1B33043  40.148  21.920   8.724
 2343POPC   C2B33044  39.972  21.995   8.332
 2343POPC   C3B33045  39.987  21.816   7.959
 2343POPC   C4B33046  40.381  21.882   7.752
 2344POPC   NC333047   3.239  10.324   9.492
 2344POPC   PO433048   2.647  10.703   9.460
 2344POPC   GL133049   3.003  10.722   9.210
 2344POPC   GL233050   2.930  10.393   9.100
 2344POPC   C1A33051   3.024  10.789   8.762
 2344POPC   D2A33052   2.741  10.776   8.383
 2344POPC   C3A33053   2.976  10.539   8.049
 2344POPC   C4A33054   3.047  10.635   7.608
 2344POPC   C1B33055   2.642  10.397   8.778
 2344POPC   C2B33056   2.631  10.266   8.355
 2344POPC   C3B33057   2.486  10.457   7.980
 2344POPC   C4B33058   2.615  10.301   7.587
 2345POPC   NC333059  14.045  27.439   9.671
 2345POPC   PO433060  14.658  27.632   9.551
 2345POPC   GL133061  14.481  27.461   9.193
 2345POPC   GL233062  14.182  27.246   9.224
 2345POPC   C1A33063  14.552  27.716   8.838
 2345POPC   D2A33064  14.574  27.930   8.471
 2345POPC   C3A33065  14.623  27.692   8.110
 2345POPC   C4A33066  14.631  27.543   7.717
 2345POPC   C1B33067  14.102  27.454   8.836
 2345POPC   C2B33068  14.336  27.416   8.436
 2345POPC   C3B33069  14.292  27.278   7.997
 2345POPC   C4B33070  14.082  27.216   7.569
 2346POPC   NC333071  10.908  12.727   9.404
 2346POPC   PO433072  10.218  12.829   9.299
 2346POPC   GL133073  10.524  12.839   9.052
 2346POPC   GL233074  10.683  13.133   9.112
 2346POPC   C1A33075  10.381  12.938   8.665
 2346POPC   D2A33076  10.560  12.790   8.338
 2346POPC   C3A33077  10.395  12.916   8.001
 2346POPC   C4A33078  10.486  12.801   7.625
 2346POPC   C1B33079  10.895  13.006   8.715
 2346POPC   C2B33080  10.968  13.103   8.292
 2346POPC   C3B33081  10.922  12.846   7.905
 2346POPC   C4B33082  10.955  12.790   7.421
 2347POPC   NC333083   4.564   3.737   9.569
 2347POPC   PO433084   4.322   3.164   9.477
 2347POPC   GL133085   4.184   3.439   9.111
 2347POPC   GL233086   4.126   3.775   9.232
 2347POPC   C1A33087   4.118   3.457   8.649
 2347POPC   D2A33088   4.435   3.423   8.295
 2347POPC   C3A33089   4.290   3.351   7.888
 2347POPC   C4A33090   4.090   2.993   7.654
 2347POPC   C1B33091   4.098   3.998   8.827
 2347POPC   C2B33092   4.295   3.897   8.428
 2347POPC   C3B33093   4.454   3.881   8.004
 2347POPC   C4B33094   4.196   3.881   7.639
 2348POPC   NC333095  30.557  28.838   9.573
 2348POPC   PO433096  30.951  29.344   9.454
 2348POPC   GL133097  30.686  29.116   9.144
 2348POPC   GL233098  30.726  29.384   8.931
 2348POPC   C1A33099  30.382  28.898   8.825
 2348POPC   D2A33100  30.385  28.883   8.331
 2348POPC   C3A33101  30.599  28.794   7.919
 2348POPC   C4A33102  30.869  29.122   7.688
 2348POPC   C1B33103  30.794  29.064   8.604
 2348POPC   C2B33104  30.807  29.160   8.200
 2348POPC   C3B33105  30.793  29.529   7.960
 2348POPC   C4B33106  31.036  29.594   7.610
 2349POPC   NC333107  32.891  29.528   9.466
 2349POPC   PO433108  33.501  29.655   9.714
 2349POPC   GL133109  33.296  29.742   9.278
 2349POPC   GL233110  33.102  30.061   9.212
 2349POPC   C1A33111  33.202  29.736   8.824
 2349POPC   D2A33112  33.328  30.004   8.480
 2349POPC   C3A33113  33.208  29.816   8.136
 2349POPC   C4A33114  33.282  29.865   7.742
 2349POPC   C1B33115  32.952  30.214   8.787
 2349POPC   C2B33116  32.849  30.137   8.324
 2349POPC   C3B33117  32.827  30.051   7.849
 2349POPC   C4B33118  32.691  30.087   7.393
 2350POPC   NC333119  29.201  28.206   9.481
 2350POPC   PO433120  29.095  28.876   9.331
 2350POPC   GL133121  29.081  28.471   9.039
 2350POPC   GL233122  29.080  28.075   8.998
 2350POPC   C1A33123  29.138  28.354   8.580
 2350POPC   D2A33124  28.942  28.449   8.190
 2350POPC   C3A33125  29.173  28.639   7.847
 2350POPC   C4A33126  29.197  28.585   7.370
 2350POPC   C1B33127  29.500  28.075   8.800
 2350POPC   C2B33128  29.646  28.215   8.383
 2350POPC   C3B33129  29.404  28.132   8.056
 2350POPC   C4B33130  29.371  28.205   7.665
 2351POPC   NC333131   7.298  25.818   9.459
 2351POPC   PO433132   7.335  26.416   9.764
 2351POPC   GL133133   7.335  26.351   9.241
 2351POPC   GL233134   7.560  26.071   9.120
 2351POPC   C1A33135   7.222  26.263   8.772
 2351POPC   D2A33136   7.083  25.997   8.396
 2351POPC   C3A33137   7.263  25.985   7.978
 2351POPC   C4A33138   7.432  26.056   7.565
 2351POPC   C1B33139   7.698  26.084   8.705
 2351POPC   C2B33140   7.575  25.850   8.363
 2351POPC   C3B33141   7.521  25.548   8.074
 2351POPC   C4B33142   7.561  25.571   7.665
 2352POPC   NC333143  29.196  34.346   9.519
 2352POPC   PO433144  29.004  35.019   9.584
 2352POPC   GL133145  29.018  34.720   9.225
 2352POPC   GL233146  29.396  34.620   9.135
 2352POPC   C1A33147  29.037  34.793   8.796
 2352POPC   D2A33148  28.941  34.965   8.421
 2352POPC   C3A33149  29.116  34.764   8.080
 2352POPC   C4A33150  28.832  34.711   7.769
 2352POPC   C1B33151  29.368  34.412   8.720
 2352POPC   C2B33152  29.000  34.411   8.446
 2352POPC   C3B33153  29.026  34.236   8.066
 2352POPC   C4B33154  29.351  34.402   7.784
 2353POPC   NC333155  44.763  29.179   9.729
 2353POPC   PO433156  44.395  28.760   9.336
 2353POPC   GL133157  44.777  28.967   9.128
 2353POPC   GL233158  44.862  29.271   9.217
 2353POPC   C1A33159   0.011  29.154   8.755
 2353POPC   D2A33160  44.900  29.339   8.375
 2353POPC   C3A33161  44.788  29.167   7.977
 2353POPC   C4A33162   0.101  28.934   7.831
 2353POPC   C1B33163  44.606  29.436   8.864
 2353POPC   C2B33164  44.469  29.593   8.457
 2353POPC   C3B33165  44.452  29.572   7.999
 2353POPC   C4B33166  44.647  29.548   7.570
 2354POPC   NC333167  20.020  35.950   9.633
 2354POPC   PO433168  19.367  36.113   9.546
 2354POPC   GL133169  19.720  36.185   9.258
 2354POPC   GL233170  19.823  35.829   9.166
 2354POPC   C1A33171  19.862  36.300   8.828
 2354POPC   D2A33172  19.916  36.118   8.383
 2354POPC   C3A33173  19.945  36.352   7.964
 2354POPC   C4A33174  19.724  36.130   7.605
 2354POPC   C1B33175  19.470  35.974   8.870
 2354POPC   C2B33176  19.422  35.995   8.432
 2354POPC   C3B33177  19.623  35.823   8.053
 2354POPC   C4B33178  19.315  35.866   7.752
 2355POPC   NC333179  43.657  35.101   9.641
 2355POPC   PO433180  44.294  35.313   9.537
 2355POPC   GL133181  44.002  35.335   9.175
 2355POPC   GL233182  43.647  35.254   9.126
 2355POPC   C1A33183  44.021  35.231   8.744
 2355POPC   D2A33184  43.901  35.338   8.342
 2355POPC   C3A33185  44.216  35.173   8.079
 2355POPC   C4A33186  44.136  35.042   7.632
 2355POPC   C1B33187  43.584  35.528   8.731
 2355POPC   C2B33188  43.532  35.737   8.334
 2355POPC   C3B33189  43.551  35.526   7.977
 2355POPC   C4B33190  43.893  35.449   7.815
 2356POPC   NC333191   7.677  40.559   9.369
 2356POPC   PO433192   7.040  41.070   9.357
 2356POPC   GL133193   7.221  40.821   9.079
 2356POPC   GL233194   7.537  40.923   9.080
 2356POPC   C1A33195   7.374  40.667   8.682
 2356POPC   D2A33196   7.307  40.529   8.258
 2356POPC   C3A33197   7.532  40.612   7.928
 2356POPC   C4A33198   7.417  40.482   7.550
 2356POPC   C1B33199   7.757  41.019   8.743
 2356POPC   C2B33200   7.518  41.040   8.370
 2356POPC   C3B33201   7.643  41.094   7.966
 2356POPC   C4B33202   7.716  40.933   7.531
 2357POPC   NC333203   1.527  32.706   9.534
 2357POPC   PO433204   1.076  33.154   9.441
 2357POPC   GL133205   1.374  33.049   9.137
 2357POPC   GL233206   1.161  32.795   9.055
 2357POPC   C1A33207   1.390  33.030   8.671
 2357POPC   D2A33208   1.247  32.910   8.296
 2357POPC   C3A33209   1.311  33.083   7.917
 2357POPC   C4A33210   1.012  33.243   7.631
 2357POPC   C1B33211   1.035  32.601   8.672
 2357POPC   C2B33212   0.932  32.517   8.248
 2357POPC   C3B33213   1.188  32.581   7.926
 2357POPC   C4B33214   1.161  32.762   7.546
 2358POPC   NC333215  44.153  39.070   9.452
 2358POPC   PO433216  43.636  39.547   9.418
 2358POPC   GL133217  43.955  39.415   9.086
 2358POPC   GL233218  43.876  39.058   9.008
 2358POPC   C1A33219  44.061  39.389   8.609
 2358POPC   D2A33220  44.197  39.539   8.169
 2358POPC   C3A33221  43.936  39.337   7.855
 2358POPC   C4A33222  43.768  38.938   7.655
 2358POPC   C1B33223  44.114  38.866   8.662
 2358POPC   C2B33224  44.092  38.719   8.214
 2358POPC   C3B33225  44.253  38.926   7.801
 2358POPC   C4B33226  44.147  39.191   7.395
 2359POPC   NC333227  27.772  37.088   9.471
 2359POPC   PO433228  27.287  36.665   9.481
 2359POPC   GL133229  27.507  36.751   9.132
 2359POPC   GL233230  27.534  37.101   9.027
 2359POPC   C1A33231  27.333  36.732   8.757
 2359POPC   D2A33232  27.563  36.776   8.450
 2359POPC   C3A33233  27.420  36.639   8.104
 2359POPC   C4A33234  27.627  36.844   7.794
 2359POPC   C1B33235  27.891  37.000   8.784
 2359POPC   C2B33236  28.024  37.101   8.366
 2359POPC   C3B33237  27.891  37.248   7.966
 2359POPC   C4B33238  27.894  37.149   7.491
 2360POPC   NC333239  19.849  44.325   9.518
 2360POPC   PO433240  19.682  44.943   9.564
 2360POPC   GL133241  19.722  44.660   9.154
 2360POPC   GL233242  20.059  44.528   9.092
 2360POPC   C1A33243  19.721  44.510   8.704
 2360POPC   D2A33244  19.857  44.658   8.282
 2360POPC   C3A33245  19.718  44.441   7.908
 2360POPC   C4A33246  19.687  44.377   7.470
 2360POPC   C1B33247  20.187  44.744   8.711
 2360POPC   C2B33248  20.346  44.952   8.326
 2360POPC   C3B33249  20.261  44.980   7.879
 2360POPC   C4B33250  19.949  44.808   7.573
 2361POPC   NC333251   2.367  20.391   9.479
 2361POPC   PO433252   3.025  20.065   9.479
 2361POPC   GL133253   2.939  20.379   9.133
 2361POPC   GL233254   2.574  20.335   9.031
 2361POPC   C1A33255   2.883  20.497   8.676
 2361POPC   D2A33256   2.668  20.277   8.349
 2361POPC   C3A33257   2.721  20.474   7.946
 2361POPC   C4A33258   2.933  20.811   7.743
 2361POPC   C1B33259   2.381  20.562   8.690
 2361POPC   C2B33260   2.566  20.786   8.347
 2361POPC   C3B33261   2.470  20.907   7.938
 2361POPC   C4B33262   2.437  20.752   7.505
 2362POPC   NC333263  12.375   5.244   9.349
 2362POPC   PO433264  12.227   4.718   9.641
 2362POPC   GL133265  12.367   4.742   9.231
 2362POPC   GL233266  12.041   4.878   9.140
 2362POPC   C1A33267  12.348   4.695   8.789
 2362POPC   D2A33268  12.109   4.721   8.388
 2362POPC   C3A33269  12.279   4.824   7.986
 2362POPC   C4A33270  12.284   4.971   7.555
 2362POPC   C1B33271  12.065   5.119   8.743
 2362POPC   C2B33272  12.177   5.223   8.307
 2362POPC   C3B33273  11.970   5.220   7.892
 2362POPC   C4B33274  12.013   5.429   7.478
 2363POPC   NC333275  16.851  20.335   9.386
 2363POPC   PO433276  16.700  19.676   9.470
 2363POPC   GL133277  16.755  19.775   9.079
 2363POPC   GL233278  17.058  19.777   9.030
 2363POPC   C1A33279  16.529  19.802   8.695
 2363POPC   D2A33280  16.550  19.569   8.317
 2363POPC   C3A33281  16.824  19.772   7.994
 2363POPC   C4A33282  16.654  19.931   7.586
 2363POPC   C1B33283  16.905  20.145   8.753
 2363POPC   C2B33284  16.903  20.238   8.294
 2363POPC   C3B33285  16.999  20.247   7.855
 2363POPC   C4B33286  17.124  20.053   7.474
 2364POPC   NC333287  15.719   5.847   9.405
 2364POPC   PO433288  16.348   5.530   9.408
 2364POPC   GL133289  16.281   5.802   9.060
 2364POPC   GL233290  16.150   6.102   9.158
 2364POPC   C1A33291  16.321   5.906   8.640
 2364POPC   D2A33292  16.107   5.718   8.304
 2364POPC   C3A33293  16.223   5.955   7.974
 2364POPC   C4A33294  15.999   5.754   7.658
 2364POPC   C1B33295  15.867   6.059   8.790
 2364POPC   C2B33296  15.919   6.187   8.349
 2364POPC   C3B33297  15.717   6.059   7.948
 2364POPC   C4B33298  15.577   6.096   7.497
 2365POPC   NC333299  34.447  29.255   9.350
 2365POPC   PO433300  34.883  28.740   9.434
 2365POPC   GL133301  34.721  28.965   9.017
 2365POPC   GL233302  34.318  29.001   8.956
 2365POPC   C1A33303  34.844  29.116   8.566
 2365POPC   D2A33304  34.684  29.477   8.282
 2365POPC   C3A33305  34.514  29.428   7.847
 2365POPC   C4A33306  34.730  29.640   7.429
 2365POPC   C1B33307  34.366  29.255   8.643
 2365POPC   C2B33308  34.387  29.070   8.269
 2365POPC   C3B33309  34.358  28.802   7.952
 2365POPC   C4B33310  34.555  28.942   7.631
 2366POPC   NC333311  18.345  29.385   9.430
 2366POPC   PO433312  18.143  28.705   9.533
 2366POPC   GL133313  18.083  28.967   9.163
 2366POPC   GL233314  18.354  29.177   8.963
 2366POPC   C1A33315  18.022  28.808   8.750
 2366POPC   D2A33316  17.734  28.827   8.396
 2366POPC   C3A33317  17.957  28.973   8.010
 2366POPC   C4A33318  18.066  29.399   7.841
 2366POPC   C1B33319  18.614  29.548   8.776
 2366POPC   C2B33320  18.688  29.715   8.349
 2366POPC   C3B33321  18.601  29.505   7.948
 2366POPC   C4B33322  18.478  29.166   7.613
 2367POPC   NC333323  30.556  18.043   9.661
 2367POPC   PO433324  30.831  17.482   9.560
 2367POPC   GL133325  30.586  17.409   9.177
 2367POPC   GL233326  30.294  17.172   9.274
 2367POPC   C1A33327  30.759  17.439   8.750
 2367POPC   D2A33328  31.044  17.449   8.377
 2367POPC   C3A33329  30.788  17.436   8.037
 2367POPC   C4A33330  30.620  17.822   7.864
 2367POPC   C1B33331  30.377  17.085   8.836
 2367POPC   C2B33332  30.379  17.246   8.430
 2367POPC   C3B33333  30.277  17.311   8.014
 2367POPC   C4B33334  30.507  17.329   7.622
 2368POPC   NC333335  17.872  18.890   9.418
 2368POPC   PO433336  18.524  19.078   9.423
 2368POPC   GL133337  18.176  19.188   9.095
 2368POPC   GL233338  18.039  19.554   9.091
 2368POPC   C1A33339  18.169  18.992   8.667
 2368POPC   D2A33340  18.070  18.814   8.233
 2368POPC   C3A33341  18.387  18.868   7.874
 2368POPC   C4A33342  18.287  19.051   7.436
 2368POPC   C1B33343  17.944  19.456   8.699
 2368POPC   C2B33344  18.095  19.338   8.288
 2368POPC   C3B33345  18.187  19.339   7.876
 2368POPC   C4B33346  18.610  19.316   7.728
 2369POPC   NC333347  11.932  16.989   9.593
 2369POPC   PO433348  11.623  16.404   9.445
 2369POPC   GL133349  11.923  16.707   9.177
 2369POPC   GL233350  12.248  16.645   9.145
 2369POPC   C1A33351  12.055  16.904   8.767
 2369POPC   D2A33352  11.972  16.765   8.384
 2369POPC   C3A33353  12.068  16.959   7.997
 2369POPC   C4A33354  12.056  16.702   7.630
 2369POPC   C1B33355  12.056  16.378   8.818
 2369POPC   C2B33356  12.187  16.281   8.430
 2369POPC   C3B33357  12.165  16.427   8.043
 2369POPC   C4B33358  12.424  16.361   7.706
 2370POPC   NC333359  19.025  32.678   9.322
 2370POPC   PO433360  19.232  32.035   9.487
 2370POPC   GL133361  19.159  32.209   9.107
 2370POPC   GL233362  18.879  32.160   8.910
 2370POPC   C1A33363  19.312  32.432   8.755
 2370POPC   D2A33364  19.447  32.221   8.410
 2370POPC   C3A33365  19.185  32.211   8.058
 2370POPC   C4A33366  19.319  32.351   7.671
 2370POPC   C1B33367  18.804  32.570   8.705
 2370POPC   C2B33368  18.890  32.684   8.280
 2370POPC   C3B33369  18.710  32.406   7.961
 2370POPC   C4B33370  18.820  32.338   7.522
 2371POPC   NC333371  42.376   1.664   9.596
 2371POPC   PO433372  41.896   1.979   9.391
 2371POPC   GL133373  42.080   2.216   9.156
 2371POPC   GL233374  42.382   2.072   9.198
 2371POPC   C1A33375  42.052   2.121   8.756
 2371POPC   D2A33376  42.156   1.872   8.450
 2371POPC   C3A33377  42.206   2.096   8.094
 2371POPC   C4A33378  42.380   1.842   7.764
 2371POPC   C1B33379  42.567   2.123   8.804
 2371POPC   C2B33380  42.640   2.077   8.374
 2371POPC   C3B33381  42.664   2.328   8.018
 2371POPC   C4B33382  42.589   2.283   7.618
 2372POPC   NC333383  19.516  18.101   9.706
 2372POPC   PO433384  20.174  18.324   9.749
 2372POPC   GL133385  20.021  18.220   9.306
 2372POPC   GL233386  19.702  18.123   9.140
 2372POPC   C1A33387  20.091  18.272   8.840
 2372POPC   D2A33388  20.056  18.135   8.389
 2372POPC   C3A33389  19.949  18.126   7.956
 2372POPC   C4A33390  20.128  18.454   7.744
 2372POPC   C1B33391  19.616  18.215   8.663
 2372POPC   C2B33392  19.549  18.303   8.203
 2372POPC   C3B33393  19.494  18.237   7.727
 2372POPC   C4B33394  19.433  18.233   7.223
 2373POPC   NC333395  16.021  27.135   9.469
 2373POPC   PO433396  15.632  27.589   9.773
 2373POPC   GL133397  15.543  27.519   9.266
 2373POPC   GL233398  15.732  27.251   9.069
 2373POPC   C1A33399  15.435  27.547   8.779
 2373POPC   D2A33400  15.638  27.488   8.334
 2373POPC   C3A33401  15.506  27.534   7.967
 2373POPC   C4A33402  15.925  27.544   7.761
 2373POPC   C1B33403  15.946  27.493   8.717
 2373POPC   C2B33404  16.190  27.452   8.330
 2373POPC   C3B33405  16.396  27.419   7.936
 2373POPC   C4B33406  16.380  27.808   7.680
 2374POPC   NC333407  23.531  33.488   9.460
 2374POPC   PO433408  23.749  34.132   9.604
 2374POPC   GL133409  23.740  34.065   9.135
 2374POPC   GL233410  23.802  33.674   9.077
 2374POPC   C1A33411  23.568  33.914   8.719
 2374POPC   D2A33412  23.631  33.716   8.305
 2374POPC   C3A33413  23.679  34.026   7.984
 2374POPC   C4A33414  23.417  34.054   7.637
 2374POPC   C1B33415  23.562  33.405   8.800
 2374POPC   C2B33416  23.481  33.220   8.408
 2374POPC   C3B33417  23.388  33.339   8.019
 2374POPC   C4B33418  23.602  33.579   7.764
 2375POPC   NC333419  23.372  17.046   9.500
 2375POPC   PO433420  24.035  16.901   9.560
 2375POPC   GL133421  23.985  16.924   9.145
 2375POPC   GL233422  23.683  16.805   9.162
 2375POPC   C1A33423  24.007  16.753   8.712
 2375POPC   D2A33424  23.931  16.456   8.369
 2375POPC   C3A33425  24.000  16.638   7.997
 2375POPC   C4A33426  24.043  17.077   7.898
 2375POPC   C1B33427  23.463  16.788   8.810
 2375POPC   C2B33428  23.612  16.935   8.419
 2375POPC   C3B33429  23.552  16.895   8.000
 2375POPC   C4B33430  23.724  16.795   7.588
 2376POPC   NC333431  19.006  34.702   9.588
 2376POPC   PO433432  19.062  34.082   9.620
 2376POPC   GL133433  19.208  34.390   9.240
 2376POPC   GL233434  19.007  34.705   9.067
 2376POPC   C1A33435  19.332  34.442   8.793
 2376POPC   D2A33436  19.043  34.662   8.511
 2376POPC   C3A33437  19.175  34.675   8.106
 2376POPC   C4A33438  19.168  34.469   7.746
 2376POPC   C1B33439  18.617  34.763   8.781
 2376POPC   C2B33440  18.461  34.972   8.414
 2376POPC   C3B33441  18.495  34.900   7.987
 2376POPC   C4B33442  18.674  34.569   7.767
 2377POPC   NC333443   9.461  27.481   9.560
 2377POPC   PO433444   9.930  27.928   9.559
 2377POPC   GL133445   9.930  27.588   9.224
 2377POPC   GL233446   9.615  27.577   9.103
 2377POPC   C1A33447   9.979  27.585   8.757
 2377POPC   D2A33448   9.891  27.941   8.472
 2377POPC   C3A33449   9.793  27.851   8.057
 2377POPC   C4A33450   9.981  27.518   7.792
 2377POPC   C1B33451   9.525  27.884   8.831
 2377POPC   C2B33452   9.423  27.697   8.427
 2377POPC   C3B33453   9.565  27.394   8.104
 2377POPC   C4B33454   9.489  27.535   7.684
 2378POPC   NC333455  30.580  40.847   9.481
 2378POPC   PO433456  31.181  41.296   9.457
 2378POPC   GL133457  30.934  41.070   9.139
 2378POPC   GL233458  30.938  40.678   9.101
 2378POPC   C1A33459  30.851  40.947   8.706
 2378POPC   D2A33460  30.559  40.836   8.423
 2378POPC   C3A33461  30.725  41.036   8.089
 2378POPC   C4A33462  30.507  41.122   7.745
 2378POPC   C1B33463  30.773  40.392   8.726
 2378POPC   C2B33464  30.664  40.253   8.280
 2378POPC   C3B33465  30.551  40.569   7.963
 2378POPC   C4B33466  30.799  40.744   7.615
 2379POPC   NC333467  27.971  15.045   9.763
 2379POPC   PO433468  28.458  15.236   9.299
 2379POPC   GL133469  28.245  15.279   8.932
 2379POPC   GL233470  28.059  15.598   8.895
 2379POPC   C1A33471  28.370  15.082   8.582
 2379POPC   D2A33472  28.712  14.979   8.314
 2379POPC   C3A33473  28.443  14.879   7.968
 2379POPC   C4A33474  28.493  14.898   7.557
 2379POPC   C1B33475  27.771  15.421   8.687
 2379POPC   C2B33476  27.835  15.306   8.331
 2379POPC   C3B33477  28.194  15.276   8.140
 2379POPC   C4B33478  28.238  15.308   7.690
 2380POPC   NC333479  29.288  10.366   9.565
 2380POPC   PO433480  28.696  10.619   9.534
 2380POPC   GL133481  28.958  10.555   9.194
 2380POPC   GL233482  29.254  10.783   9.224
 2380POPC   C1A33483  28.988  10.670   8.775
 2380POPC   D2A33484  29.060  10.888   8.442
 2380POPC   C3A33485  28.944  10.610   8.138
 2380POPC   C4A33486  29.003  10.621   7.712
 2380POPC   C1B33487  29.434  10.503   8.911
 2380POPC   C2B33488  29.430  10.524   8.438
 2380POPC   C3B33489  29.436  10.649   7.990
 2380POPC   C4B33490  29.452  10.793   7.547
 2381POPC   NC333491  44.576  23.326   9.612
 2381POPC   PO433492  44.821  22.709   9.629
 2381POPC   GL133493  44.765  22.800   9.149
 2381POPC   GL233494  44.830  23.147   9.202
 2381POPC   C1A33495  44.519  22.844   8.705
 2381POPC   D2A33496  44.294  23.080   8.310
 2381POPC   C3A33497  44.509  23.030   7.910
 2381POPC   C4A33498  44.400  22.992   7.473
 2381POPC   C1B33499  44.892  23.211   8.777
 2381POPC   C2B33500  44.792  23.138   8.352
 2381POPC   C3B33501  44.907  23.347   7.962
 2381POPC   C4B33502  44.723  23.357   7.563
 2382POPC   NC333503   7.428  21.746   9.420
 2382POPC   PO433504   7.308  22.391   9.453
 2382POPC   GL133505   7.540  22.388   9.102
 2382POPC   GL233506   7.456  22.027   9.004
 2382POPC   C1A33507   7.391  22.393   8.681
 2382POPC   D2A33508   7.355  22.026   8.474
 2382POPC   C3A33509   7.375  22.141   8.074
 2382POPC   C4A33510   7.571  22.407   7.765
 2382POPC   C1B33511   7.018  21.932   8.855
 2382POPC   C2B33512   6.857  21.860   8.428
 2382POPC   C3B33513   7.040  21.761   8.048
 2382POPC   C4B33514   7.120  21.975   7.677
 2383POPC   NC333515  38.147  11.630   9.286
 2383POPC   PO433516  38.474  11.205   9.722
 2383POPC   GL133517  38.511  11.197   9.239
 2383POPC   GL233518  38.628  11.498   9.080
 2383POPC   C1A33519  38.600  11.150   8.752
 2383POPC   D2A33520  38.361  11.133   8.368
 2383POPC   C3A33521  38.562  11.109   7.969
 2383POPC   C4A33522  38.619  11.349   7.591
 2383POPC   C1B33523  38.468  11.721   8.683
 2383POPC   C2B33524  38.459  11.680   8.206
 2383POPC   C3B33525  38.252  11.670   7.790
 2383POPC   C4B33526  38.064  11.666   7.373
 2384POPC   NC333527  17.726  37.580   9.497
 2384POPC   PO433528  18.428  37.567   9.491
 2384POPC   GL133529  18.291  37.644   9.066
 2384POPC   GL233530  17.985  37.756   9.067
 2384POPC   C1A33531  18.386  37.593   8.618
 2384POPC   D2A33532  18.704  37.590   8.270
 2384POPC   C3A33533  18.547  37.559   7.845
 2384POPC   C4A33534  18.243  37.588   7.496
 2384POPC   C1B33535  17.864  37.702   8.654
 2384POPC   C2B33536  17.996  37.449   8.306
 2384POPC   C3B33537  18.083  37.684   7.963
 2384POPC   C4B33538  17.769  37.783   7.650
 2385POPC   NC333539  32.971  14.621   9.423
 2385POPC   PO433540  32.958  13.968   9.334
 2385POPC   GL133541  32.906  14.251   9.055
 2385POPC   GL233542  33.197  14.381   9.032
 2385POPC   C1A33543  32.805  14.583   8.763
 2385POPC   D2A33544  32.705  14.383   8.382
 2385POPC   C3A33545  33.086  14.276   8.177
 2385POPC   C4A33546  33.130  14.543   7.864
 2385POPC   C1B33547  33.303  14.459   8.639
 2385POPC   C2B33548  33.534  14.167   8.476
 2385POPC   C3B33549  33.561  14.017   8.103
 2385POPC   C4B33550  33.316  14.074   7.743
 2386POPC   NC333551   5.894  10.889   9.510
 2386POPC   PO433552   5.568  11.366   9.841
 2386POPC   GL133553   5.670  11.386   9.361
 2386POPC   GL233554   5.960  11.222   9.151
 2386POPC   C1A33555   5.645  11.530   8.928
 2386POPC   D2A33556   5.607  11.343   8.523
 2386POPC   C3A33557   5.835  11.556   8.189
 2386POPC   C4A33558   5.779  11.542   7.753
 2386POPC   C1B33559   5.847  10.935   8.800
 2386POPC   C2B33560   5.992  11.026   8.383
 2386POPC   C3B33561   5.746  11.092   8.018
 2386POPC   C4B33562   5.856  11.044   7.601
 2387POPC   NC333563  24.067  12.979   9.473
 2387POPC   PO433564  23.655  12.435   9.411
 2387POPC   GL133565  23.544  12.761   9.123
 2387POPC   GL233566  23.785  12.913   9.010
 2387POPC   C1A33567  23.416  12.740   8.679
 2387POPC   D2A33568  23.124  12.733   8.328
 2387POPC   C3A33569  23.365  12.701   7.930
 2387POPC   C4A33570  23.518  12.984   7.598
 2387POPC   C1B33571  23.626  13.214   8.697
 2387POPC   C2B33572  23.530  13.105   8.276
 2387POPC   C3B33573  23.844  12.962   7.995
 2387POPC   C4B33574  24.171  12.859   7.685
 2388POPC   NC333575  10.683  40.425   9.463
 2388POPC   PO433576  10.300  41.020   9.607
 2388POPC   GL133577  10.462  40.833   9.198
 2388POPC   GL233578  10.250  40.525   9.144
 2388POPC   C1A33579  10.720  40.964   8.798
 2388POPC   D2A33580  10.786  40.934   8.332
 2388POPC   C3A33581  10.401  40.766   8.123
 2388POPC   C4A33582  10.323  40.855   7.705
 2388POPC   C1B33583  10.357  40.633   8.720
 2388POPC   C2B33584  10.593  40.443   8.463
 2388POPC   C3B33585  10.823  40.465   8.116
 2388POPC   C4B33586  10.744  40.420   7.697
 2389POPC   NC333587  39.536  43.192   9.282
 2389POPC   PO433588  40.112  42.863   9.387
 2389POPC   GL133589  40.132  43.163   9.078
 2389POPC   GL233590  39.938  43.475   9.154
 2389POPC   C1A33591  40.189  43.105   8.636
 2389POPC   D2A33592  39.847  43.025   8.408
 2389POPC   C3A33593  39.927  43.042   8.004
 2389POPC   C4A33594  40.212  43.105   7.691
 2389POPC   C1B33595  39.795  43.484   8.713
 2389POPC   C2B33596  39.874  43.567   8.271
 2389POPC   C3B33597  39.826  43.481   7.799
 2389POPC   C4B33598  39.629  43.241   7.437
 2390POPC   NC333599  39.536  16.857   9.541
 2390POPC   PO433600  38.913  16.958   9.694
 2390POPC   GL133601  39.090  17.055   9.292
 2390POPC   GL233602  39.160  16.708   9.225
 2390POPC   C1A33603  39.162  17.029   8.834
 2390POPC   D2A33604  39.266  16.784   8.489
 2390POPC   C3A33605  39.158  16.896   8.089
 2390POPC   C4A33606  39.395  16.914   7.713
 2390POPC   C1B33607  39.375  16.496   8.903
 2390POPC   C2B33608  39.521  16.342   8.498
 2390POPC   C3B33609  39.370  16.449   8.093
 2390POPC   C4B33610  39.614  16.457   7.787
 2391POPC   NC333611  10.235  19.383   9.558
 2391POPC   PO433612  10.616  18.795   9.478
 2391POPC   GL133613  10.469  19.089   9.181
 2391POPC   GL233614  10.104  19.065   9.163
 2391POPC   C1A33615  10.365  19.168   8.748
 2391POPC   D2A33616  10.501  19.249   8.363
 2391POPC   C3A33617  10.246  19.061   8.082
 2391POPC   C4A33618  10.365  18.989   7.669
 2391POPC   C1B33619  10.035  19.500   8.943
 2391POPC   C2B33620  10.214  19.659   8.539
 2391POPC   C3B33621  10.123  19.581   8.130
 2391POPC   C4B33622  10.256  19.476   7.750
 2392POPC   NC333623  20.280  34.137   9.507
 2392POPC   PO433624  20.957  34.010   9.568
 2392POPC   GL133625  20.684  33.968   9.207
 2392POPC   GL233626  20.476  33.667   9.239
 2392POPC   C1A33627  20.707  33.811   8.785
 2392POPC   D2A33628  20.538  33.930   8.406
 2392POPC   C3A33629  20.732  34.030   8.036
 2392POPC   C4A33630  20.561  33.877   7.666
 2392POPC   C1B33631  20.366  33.383   8.877
 2392POPC   C2B33632  20.217  33.444   8.437
 2392POPC   C3B33633  20.055  33.403   8.052
 2392POPC   C4B33634  20.133  33.562   7.681
 2393POPC   NC333635  10.949  41.999   9.565
 2393POPC   PO433636  11.489  41.512   9.568
 2393POPC   GL133637  11.309  41.550   9.193
 2393POPC   GL233638  11.282  41.873   9.166
 2393POPC   C1A33639  11.069  41.356   8.866
 2393POPC   D2A33640  11.147  41.289   8.446
 2393POPC   C3A33641  11.000  41.352   8.034
 2393POPC   C4A33642  11.269  41.187   7.647
 2393POPC   C1B33643  11.397  41.717   8.722
 2393POPC   C2B33644  11.307  41.759   8.294
 2393POPC   C3B33645  11.368  41.651   7.869
 2393POPC   C4B33646  11.417  41.926   7.570
 2394POPC   NC333647  19.001  24.822   9.601
 2394POPC   PO433648  18.871  24.176   9.471
 2394POPC   GL133649  18.985  24.348   9.105
 2394POPC   GL233650  19.001  24.704   9.121
 2394POPC   C1A33651  19.176  24.129   8.772
 2394POPC   D2A33652  19.062  24.203   8.363
 2394POPC   C3A33653  19.348  24.178   8.026
 2394POPC   C4A33654  19.387  23.998   7.661
 2394POPC   C1B33655  19.128  24.651   8.718
 2394POPC   C2B33656  18.947  24.697   8.335
 2394POPC   C3B33657  19.000  24.533   7.936
 2394POPC   C4B33658  19.312  24.511   7.626
 2395POPC   NC333659  33.454  38.237   9.508
 2395POPC   PO433660  33.715  38.856   9.278
 2395POPC   GL133661  33.819  38.636   8.950
 2395POPC   GL233662  33.777  38.261   9.039
 2395POPC   C1A33663  33.729  38.668   8.531
 2395POPC   D2A33664  33.662  38.287   8.322
 2395POPC   C3A33665  33.815  38.314   7.937
 2395POPC   C4A33666  33.963  38.654   7.697
 2395POPC   C1B33667  33.388  38.372   8.795
 2395POPC   C2B33668  33.213  38.596   8.429
 2395POPC   C3B33669  33.382  38.634   8.030
 2395POPC   C4B33670  33.449  38.515   7.620
 2396POPC   NC333671  22.271  14.043   9.376
 2396POPC   PO433672  22.073  14.661   9.444
 2396POPC   GL133673  22.298  14.568   9.102
 2396POPC   GL233674  22.054  14.329   9.014
 2396POPC   C1A33675  22.259  14.595   8.633
 2396POPC   D2A33676  22.004  14.605   8.282
 2396POPC   C3A33677  22.159  14.530   7.920
 2396POPC   C4A33678  21.947  14.639   7.575
 2396POPC   C1B33679  21.902  14.226   8.618
 2396POPC   C2B33680  22.031  14.089   8.213
 2396POPC   C3B33681  21.953  14.076   7.781
 2396POPC   C4B33682  21.666  14.250   7.470
 2397POPC   NC333683   4.644  14.947   9.389
 2397POPC   PO433684   3.999  15.310   9.568
 2397POPC   GL133685   4.101  15.151   9.169
 2397POPC   GL233686   4.170  15.499   9.087
 2397POPC   C1A33687   4.142  15.029   8.714
 2397POPC   D2A33688   4.083  15.283   8.312
 2397POPC   C3A33689   4.206  15.088   7.938
 2397POPC   C4A33690   4.617  14.924   7.840
 2397POPC   C1B33691   4.515  15.352   8.843
 2397POPC   C2B33692   4.741  15.335   8.460
 2397POPC   C3B33693   4.599  15.424   8.037
 2397POPC   C4B33694   4.455  15.358   7.591
 2398POPC   NC333695  33.185  40.032   9.660
 2398POPC   PO433696  33.198  39.435   9.576
 2398POPC   GL133697  32.896  39.756   9.324
 2398POPC   GL233698  33.070  40.040   9.159
 2398POPC   C1A33699  32.665  39.846   8.904
 2398POPC   D2A33700  32.832  39.906   8.453
 2398POPC   C3A33701  32.831  39.629   8.075
 2398POPC   C4A33702  32.803  39.877   7.671
 2398POPC   C1B33703  33.203  40.124   8.735
 2398POPC   C2B33704  33.374  40.071   8.326
 2398POPC   C3B33705  33.244  39.910   7.907
 2398POPC   C4B33706  33.241  40.042   7.442
 2399POPC   NC333707   8.523   0.328   9.366
 2399POPC   PO433708   8.952   0.741   9.725
 2399POPC   GL133709   8.881   0.689   9.289
 2399POPC   GL233710   9.055   0.379   9.276
 2399POPC   C1A33711   8.626   0.782   8.880
 2399POPC   D2A33712   8.661   0.585   8.477
 2399POPC   C3A33713   8.744   0.855   8.163
 2399POPC   C4A33714   8.869   0.661   7.768
 2399POPC   C1B33715   9.087   0.427   8.832
 2399POPC   C2B33716   9.114   0.282   8.401
 2399POPC   C3B33717   8.829   0.211   8.086
 2399POPC   C4B33718   8.892   0.075   7.695
 2400POPC   NC333719   0.021  10.501   9.488
 2400POPC   PO433720  44.823  11.093   9.524
 2400POPC   GL133721  44.804  10.795   9.128
 2400POPC   GL233722  44.592  10.494   9.078
 2400POPC   C1A33723  44.792  10.752   8.659
 2400POPC   D2A33724  44.785  10.383   8.392
 2400POPC   C3A33725  44.787  10.466   7.936
 2400POPC   C4A33726  44.669  10.454   7.510
 2400POPC   C1B33727  44.342  10.553   8.666
 2400POPC   C2B33728  44.448  10.725   8.226
 2400POPC   C3B33729  44.273  10.606   7.819
 2400POPC   C4B33730  44.170  10.543   7.356
 2401POPC   NC333731   5.118  32.379   9.652
 2401POPC   PO433732   4.572  32.060   9.617
 2401POPC   GL133733   4.737  32.348   9.239
 2401POPC   GL233734   5.108  32.516   9.181
 2401POPC   C1A33735   4.906  32.271   8.807
 2401POPC   D2A33736   4.967  32.059   8.429
 2401POPC   C3A33737   4.928  32.301   8.063
 2401POPC   C4A33738   5.070  32.039   7.707
 2401POPC   C1B33739   5.301  32.643   8.811
 2401POPC   C2B33740   5.370  32.552   8.376
 2401POPC   C3B33741   5.432  32.345   7.967
 2401POPC   C4B33742   5.398  32.398   7.513
 2402POPC   NC333743  41.072  29.631   9.436
 2402POPC   PO433744  41.770  29.782   9.557
 2402POPC   GL133745  41.721  30.040   9.190
 2402POPC   GL233746  41.344  30.045   9.207
 2402POPC   C1A33747  41.845  29.946   8.740
 2402POPC   D2A33748  41.661  29.710   8.366
 2402POPC   C3A33749  41.721  29.909   7.949
 2402POPC   C4A33750  42.010  30.203   7.827
 2402POPC   C1B33751  41.406  30.224   8.800
 2402POPC   C2B33752  41.536  30.219   8.399
 2402POPC   C3B33753  41.510  30.376   8.008
 2402POPC   C4B33754  41.342  30.147   7.670
 2403POPC   NC333755  37.091  26.038   9.437
 2403POPC   PO433756  36.820  26.610   9.730
 2403POPC   GL133757  36.754  26.357   9.266
 2403POPC   GL233758  36.519  26.103   9.278
 2403POPC   C1A33759  36.917  26.084   8.829
 2403POPC   D2A33760  37.065  26.266   8.411
 2403POPC   C3A33761  36.974  26.092   8.005
 2403POPC   C4A33762  36.645  26.189   7.702
 2403POPC   C1B33763  36.412  26.059   8.836
 2403POPC   C2B33764  36.621  25.925   8.458
 2403POPC   C3B33765  36.532  25.834   8.076
 2403POPC   C4B33766  36.776  25.604   7.819
 2404POPC   NC333767   1.951  37.502   9.550
 2404POPC   PO433768   1.819  38.067   9.611
 2404POPC   GL133769   1.763  37.844   9.197
 2404POPC   GL233770   2.110  37.725   9.108
 2404POPC   C1A33771   1.751  37.692   8.746
 2404POPC   D2A33772   2.021  37.555   8.417
 2404POPC   C3A33773   1.873  37.378   8.051
 2404POPC   C4A33774   1.583  37.661   7.918
 2404POPC   C1B33775   2.265  37.896   8.713
 2404POPC   C2B33776   2.110  38.046   8.305
 2404POPC   C3B33777   2.114  37.965   7.856
 2404POPC   C4B33778   2.535  37.878   7.670
 2405POPC   NC333779   3.298  27.407   9.646
 2405POPC   PO433780   3.643  27.929   9.413
 2405POPC   GL133781   3.483  27.737   9.048
 2405POPC   GL233782   3.361  27.402   9.102
 2405POPC   C1A33783   3.430  27.899   8.609
 2405POPC   D2A33784   3.591  27.949   8.181
 2405POPC   C3A33785   3.430  27.638   7.821
 2405POPC   C4A33786   3.484  27.713   7.356
 2405POPC   C1B33787   3.662  27.437   8.706
 2405POPC   C2B33788   3.567  27.435   8.273
 2405POPC   C3B33789   3.717  27.214   7.909
 2405POPC   C4B33790   3.572  27.248   7.503
 2406POPC   NC333791  19.780  23.469   9.471
 2406POPC   PO433792  19.820  24.099   9.373
 2406POPC   GL133793  19.831  23.820   9.060
 2406POPC   GL233794  19.622  23.512   8.981
 2406POPC   C1A33795  19.821  23.934   8.637
 2406POPC   D2A33796  19.793  24.148   8.256
 2406POPC   C3A33797  19.814  23.858   7.940
 2406POPC   C4A33798  19.840  23.860   7.501
 2406POPC   C1B33799  20.017  23.450   8.763
 2406POPC   C2B33800  20.113  23.581   8.350
 2406POPC   C3B33801  20.014  23.384   7.954
 2406POPC   C4B33802  19.903  23.358   7.497
 2407POPC   NC333803  29.673   1.082   9.525
 2407POPC   PO433804  29.820   1.676   9.235
 2407POPC   GL133805  29.851   1.282   9.084
 2407POPC   GL233806  30.118   1.088   9.205
 2407POPC   C1A33807  29.880   1.112   8.704
 2407POPC   D2A33808  29.709   1.127   8.317
 2407POPC   C3A33809  29.715   1.495   8.076
 2407POPC   C4A33810  29.756   1.628   7.656
 2407POPC   C1B33811  30.372   1.053   8.828
 2407POPC   C2B33812  30.268   0.920   8.402
 2407POPC   C3B33813  30.152   1.191   8.072
 2407POPC   C4B33814  29.863   1.127   7.742
 2408POPC   NC333815  15.091   0.688   9.356
 2408POPC   PO433816  15.352   0.107   9.509
 2408POPC   GL133817  15.420   0.318   9.127
 2408POPC   GL233818  15.064   0.370   8.964
 2408POPC   C1A33819  15.444   0.220   8.692
 2408POPC   D2A33820  15.055   0.308   8.425
 2408POPC   C3A33821  15.196   0.331   7.993
 2408POPC   C4A33822  15.504   0.089   7.759
 2408POPC   C1B33823  14.978   0.781   8.739
 2408POPC   C2B33824  14.945   0.960   8.334
 2408POPC   C3B33825  14.909   0.779   7.930
 2408POPC   C4B33826  14.657   0.781   7.575
 2409POPC   NC333827  13.340  30.963   9.507
 2409POPC   PO433828  13.844  31.454   9.407
 2409POPC   GL133829  13.624  31.330   9.044
 2409POPC   GL233830  13.812  31.597   8.887
 2409POPC   C1A33831  13.599  31.233   8.632
 2409POPC   D2A33832  13.793  31.529   8.356
 2409POPC   C3A33833  13.747  31.485   7.929
 2409POPC   C4A33834  13.776  31.294   7.534
 2409POPC   C1B33835  13.430  31.723   8.703
 2409POPC   C2B33836  13.200  31.784   8.319
 2409POPC   C3B33837  13.269  31.683   7.903
 2409POPC   C4B33838  13.484  31.718   7.490
 2410POPC   NC333839  19.121  27.319   9.486
 2410POPC   PO433840  18.961  27.958   9.421
 2410POPC   GL133841  18.971  27.730   9.091
 2410POPC   GL233842  19.316  27.627   9.099
 2410POPC   C1A33843  18.755  27.780   8.712
 2410POPC   D2A33844  18.776  27.566   8.338
 2410POPC   C3A33845  18.630  27.809   8.029
 2410POPC   C4A33846  18.737  27.691   7.663
 2410POPC   C1B33847  19.202  27.512   8.662
 2410POPC   C2B33848  19.269  27.540   8.204
 2410POPC   C3B33849  19.195  27.445   7.765
 2410POPC   C4B33850  19.180  27.751   7.415
 2411POPC   NC333851  26.591   5.223  10.236
 2411POPC   PO433852  26.918   5.133   9.648
 2411POPC   GL133853  26.977   5.313   9.224
 2411POPC   GL233854  26.788   5.035   9.113
 2411POPC   C1A33855  26.919   5.428   8.755
 2411POPC   D2A33856  26.667   5.183   8.498
 2411POPC   C3A33857  26.822   4.921   8.188
 2411POPC   C4A33858  26.470   5.045   7.954
 2411POPC   C1B33859  27.039   4.944   8.756
 2411POPC   C2B33860  27.336   4.766   8.506
 2411POPC   C3B33861  27.180   4.558   8.172
 2411POPC   C4B33862  27.083   4.665   7.760
 2412POPC   NC333863   1.126  15.677   9.594
 2412POPC   PO433864   0.951  16.327   9.412
 2412POPC   GL133865   1.238  16.021   9.183
 2412POPC   GL233866   1.591  16.124   9.110
 2412POPC   C1A33867   1.320  15.894   8.758
 2412POPC   D2A33868   1.098  15.915   8.385
 2412POPC   C3A33869   1.292  15.805   8.021
 2412POPC   C4A33870   1.054  15.638   7.701
 2412POPC   C1B33871   1.512  16.455   8.822
 2412POPC   C2B33872   1.336  16.363   8.422
 2412POPC   C3B33873   1.133  16.300   8.031
 2412POPC   C4B33874   1.323  16.153   7.651
 2413POPC   NC333875   3.100  14.720   9.846
 2413POPC   PO433876   2.703  15.094   9.365
 2413POPC   GL133877   2.844  15.258   9.043
 2413POPC   GL233878   2.956  15.630   9.073
 2413POPC   C1A33879   2.920  15.067   8.671
 2413POPC   D2A33880   2.565  15.063   8.456
 2413POPC   C3A33881   2.589  14.968   8.043
 2413POPC   C4A33882   2.384  14.639   7.777
 2413POPC   C1B33883   2.711  15.601   8.714
 2413POPC   C2B33884   2.854  15.472   8.357
 2413POPC   C3B33885   2.682  15.529   8.012
 2413POPC   C4B33886   2.895  15.327   7.725
 2414POPC   NC333887   4.376   2.746   9.646
 2414POPC   PO433888   4.654   2.389   9.212
 2414POPC   GL133889   4.419   2.751   9.107
 2414POPC   GL233890   4.130   2.597   9.197
 2414POPC   C1A33891   4.356   2.977   8.706
 2414POPC   D2A33892   4.262   2.936   8.250
 2414POPC   C3A33893   4.570   2.913   7.898
 2414POPC   C4A33894   4.586   3.104   7.467
 2414POPC   C1B33895   4.173   2.392   8.755
 2414POPC   C2B33896   4.330   2.395   8.309
 2414POPC   C3B33897   4.095   2.550   7.932
 2414POPC   C4B33898   3.966   2.516   7.494
 2415POPC   NC333899  33.450  42.695   9.561
 2415POPC   PO433900  34.144  42.645   9.437
 2415POPC   GL133901  33.964  42.437   9.097
 2415POPC   GL233902  33.682  42.263   9.234
 2415POPC   C1A33903  33.594  42.528   8.808
 2415POPC   D2A33904  33.443  42.332   8.429
 2415POPC   C3A33905  33.522  42.516   8.036
 2415POPC   C4A33906  33.895  42.408   7.882
 2415POPC   C1B33907  33.476  42.011   8.887
 2415POPC   C2B33908  33.342  41.818   8.481
 2415POPC   C3B33909  33.592  41.959   8.097
 2415POPC   C4B33910  33.989  41.898   7.819
 2416POPC   NC333911   6.965  39.125   9.604
 2416POPC   PO433912   6.978  39.665   9.272
 2416POPC   GL133913   6.832  39.279   9.112
 2416POPC   GL233914   7.014  38.932   9.149
 2416POPC   C1A33915   6.601  39.333   8.733
 2416POPC   D2A33916   6.619  39.577   8.320
 2416POPC   C3A33917   6.613  39.351   7.925
 2416POPC   C4A33918   6.763  39.253   7.495
 2416POPC   C1B33919   6.847  38.886   8.740
 2416POPC   C2B33920   6.670  39.000   8.332
 2416POPC   C3B33921   6.715  38.864   7.926
 2416POPC   C4B33922   7.023  38.837   7.608
 2417POPC   NC333923  39.663  14.063   9.514
 2417POPC   PO433924  39.358  14.662   9.342
 2417POPC   GL133925  39.743  14.669   9.098
 2417POPC   GL233926  40.039  14.448   9.195
 2417POPC   C1A33927  39.900  14.670   8.671
 2417POPC   D2A33928  39.796  14.408   8.335
 2417POPC   C3A33929  40.027  14.480   7.970
 2417POPC   C4A33930  40.016  14.858   7.749
 2417POPC   C1B33931  39.832  14.202   8.863
 2417POPC   C2B33932  39.949  13.943   8.524
 2417POPC   C3B33933  39.912  13.978   8.096
 2417POPC   C4B33934  39.612  14.234   7.848
 2418POPC   NC333935  26.588  14.786   9.556
 2418POPC   PO433936  26.694  15.514   9.502
 2418POPC   GL133937  26.924  15.362   9.149
 2418POPC   GL233938  27.023  15.022   9.273
 2418POPC   C1A33939  26.917  15.506   8.725
 2418POPC   D2A33940  26.883  15.753   8.343
 2418POPC   C3A33941  26.842  15.482   7.997
 2418POPC   C4A33942  26.518  15.443   7.710
 2418POPC   C1B33943  26.842  14.955   8.851
 2418POPC   C2B33944  26.936  15.032   8.417
 2418POPC   C3B33945  26.792  14.953   8.004
 2418POPC   C4B33946  27.036  15.099   7.675
 2419POPC   NC333947   2.430  24.252   9.623
 2419POPC   PO433948   3.038  24.579   9.510
 2419POPC   GL133949   2.841  24.568   9.133
 2419POPC   GL233950   2.560  24.407   9.159
 2419POPC   C1A33951   2.629  24.761   8.796
 2419POPC   D2A33952   2.543  24.603   8.397
 2419POPC   C3A33953   2.778  24.659   8.042
 2419POPC   C4A33954   2.573  24.674   7.663
 2419POPC   C1B33955   2.747  24.257   8.756
 2419POPC   C2B33956   2.698  24.133   8.327
 2419POPC   C3B33957   2.562  24.198   7.884
 2419POPC   C4B33958   2.434  24.221   7.417
 2420POPC   NC333959  22.036  38.429   9.461
 2420POPC   PO433960  22.530  38.829   9.501
 2420POPC   GL133961  22.375  38.567   9.114
 2420POPC   GL233962  22.376  38.179   9.147
 2420POPC   C1A33963  22.010  38.573   8.798
 2420POPC   D2A33964  22.093  38.685   8.382
 2420POPC   C3A33965  21.901  38.564   7.998
 2420POPC   C4A33966  22.072  38.694   7.551
 2420POPC   C1B33967  22.246  38.139   8.709
 2420POPC   C2B33968  22.232  38.213   8.257
 2420POPC   C3B33969  22.391  38.493   7.956
 2420POPC   C4B33970  22.359  38.267   7.603
 2421POPC   NC333971   8.010  43.681   9.529
 2421POPC   PO433972   8.582  44.129   9.525
 2421POPC   GL133973   8.404  43.872   9.239
 2421POPC   GL233974   8.105  44.082   9.225
 2421POPC   C1A33975   8.389  43.886   8.811
 2421POPC   D2A33976   8.501  43.836   8.404
 2421POPC   C3A33977   8.443  44.058   8.025
 2421POPC   C4A33978   8.280  43.711   7.770
 2421POPC   C1B33979   7.881  44.054   8.847
 2421POPC   C2B33980   8.020  44.042   8.449
 2421POPC   C3B33981   7.948  43.906   8.080
 2421POPC   C4B33982   8.024  44.189   7.752
 2422POPC   NC333983  22.617  31.086   9.471
 2422POPC   PO433984  22.984  30.456   9.535
 2422POPC   GL133985  22.985  30.720   9.217
 2422POPC   GL233986  22.673  30.636   9.134
 2422POPC   C1A33987  22.998  30.861   8.800
 2422POPC   D2A33988  22.906  30.741   8.409
 2422POPC   C3A33989  23.064  30.965   8.048
 2422POPC   C4A33990  23.207  30.833   7.642
 2422POPC   C1B33991  22.484  30.775   8.782
 2422POPC   C2B33992  22.469  30.981   8.376
 2422POPC   C3B33993  22.535  30.692   8.059
 2422POPC   C4B33994  22.593  30.554   7.681
 2423POPC   NC333995  18.336  30.346   9.740
 2423POPC   PO433996  18.597  29.778   9.395
 2423POPC   GL133997  18.301  29.901   9.099
 2423POPC   GL233998  18.148  30.236   9.113
 2423POPC   C1A33999  18.251  29.954   8.668
 2423POPC   D2A34000  18.425  30.157   8.333
 2423POPC   C3A34001  18.364  30.011   7.918
 2423POPC   C4A34002  18.585  30.123   7.528
 2423POPC   C1B34003  17.978  30.396   8.722
 2423POPC   C2B34004  18.050  30.486   8.288
 2423POPC   C3B34005  17.863  30.212   7.974
 2423POPC   C4B34006  17.934  29.873   7.657
 2424POPC   NC334007  32.569  44.642   9.478
 2424POPC   PO434008  33.200  44.484   9.568
 2424POPC   GL134009  32.989  44.482   9.197
 2424POPC   GL234010  33.315  44.550   9.068
 2424POPC   C1A34011  32.886  44.565   8.762
 2424POPC   D2A34012  32.932  44.829   8.383
 2424POPC   C3A34013  32.762  44.673   8.028
 2424POPC   C4A34014  32.804  44.438   7.655
 2424POPC   C1B34015  33.353  44.760   8.686
 2424POPC   C2B34016  33.312  44.474   8.346
 2424POPC   C3B34017  33.231  44.475   7.939
 2424POPC   C4B34018  33.197  44.894   7.822
 2425POPC   NC334019  11.467  28.841   9.662
 2425POPC   PO434020  11.124  29.404   9.577
 2425POPC   GL134021  11.420  29.343   9.244
 2425POPC   GL234022  11.489  29.017   9.120
 2425POPC   C1A34023  11.520  29.540   8.845
 2425POPC   D2A34024  11.539  29.287   8.491
 2425POPC   C3A34025  11.671  29.479   8.108
 2425POPC   C4A34026  11.633  29.280   7.719
 2425POPC   C1B34027  11.152  29.182   8.841
 2425POPC   C2B34028  11.047  29.174   8.421
 2425POPC   C3B34029  11.248  29.121   8.065
 2425POPC   C4B34030  11.154  29.071   7.660
 2426POPC   NC334031  34.036  33.799   9.541
 2426POPC   PO434032  33.677  33.388   9.212
 2426POPC   GL134033  33.793  33.766   9.085
 2426POPC   GL234034  33.665  34.068   9.265
 2426POPC   C1A34035  33.737  33.748   8.659
 2426POPC   D2A34036  33.930  33.629   8.346
 2426POPC   C3A34037  33.733  33.823   8.036
 2426POPC   C4A34038  33.709  33.634   7.673
 2426POPC   C1B34039  33.774  34.214   8.834
 2426POPC   C2B34040  34.109  34.125   8.500
 2426POPC   C3B34041  34.230  33.962   8.090
 2426POPC   C4B34042  34.061  34.014   7.690
 2427POPC   NC334043   0.151  24.888   9.477
 2427POPC   PO434044   0.384  25.598   9.509
 2427POPC   GL134045   0.528  25.388   9.134
 2427POPC   GL234046   0.472  25.058   9.120
 2427POPC   C1A34047   0.334  25.442   8.776
 2427POPC   D2A34048   0.272  25.710   8.440
 2427POPC   C3A34049   0.536  25.562   8.118
 2427POPC   C4A34050   0.629  25.321   7.763
 2427POPC   C1B34051   0.406  24.895   8.711
 2427POPC   C2B34052   0.682  24.750   8.382
 2427POPC   C3B34053   0.511  24.932   8.070
 2427POPC   C4B34054   0.381  24.821   7.692
 2428POPC   NC334055   1.097  31.860   9.390
 2428POPC   PO434056   1.657  32.260   9.522
 2428POPC   GL134057   1.458  32.367   9.157
 2428POPC   GL234058   1.100  32.301   9.120
 2428POPC   C1A34059   1.464  32.324   8.753
 2428POPC   D2A34060   1.320  32.230   8.381
 2428POPC   C3A34061   1.599  32.267   8.046
 2428POPC   C4A34062   1.453  32.280   7.635
 2428POPC   C1B34063   0.938  32.092   8.736
 2428POPC   C2B34064   0.874  31.968   8.298
 2428POPC   C3B34065   1.030  32.104   7.905
 2428POPC   C4B34066   0.795  32.396   7.598
 2429POPC   NC334067  35.540  28.219   9.476
 2429POPC   PO434068  35.003  28.020   9.371
 2429POPC   GL134069  35.198  28.286   9.096
 2429POPC   GL234070  35.380  28.617   9.176
 2429POPC   C1A34071  35.485  28.153   8.797
 2429POPC   D2A34072  35.340  28.274   8.418
 2429POPC   C3A34073  35.473  28.089   8.031
 2429POPC   C4A34074  35.739  28.321   7.776
 2429POPC   C1B34075  35.578  28.649   8.747
 2429POPC   C2B34076  35.717  28.609   8.310
 2429POPC   C3B34077  35.386  28.602   8.013
 2429POPC   C4B34078  35.327  28.936   7.780
 2430POPC   NC334079  39.895   2.202   9.605
 2430POPC   PO434080  40.266   1.670   9.746
 2430POPC   GL134081  40.055   1.856   9.290
 2430POPC   GL234082  39.925   1.545   9.163
 2430POPC   C1A34083  39.982   2.169   8.891
 2430POPC   D2A34084  40.176   2.118   8.436
 2430POPC   C3A34085  40.040   2.269   7.965
 2430POPC   C4A34086  40.121   2.153   7.478
 2430POPC   C1B34087  40.060   1.676   8.731
 2430POPC   C2B34088  40.477   1.679   8.541
 2430POPC   C3B34089  40.399   1.768   8.137
 2430POPC   C4B34090  40.194   1.769   7.768
 2431POPC   NC334091  15.540  20.992   9.604
 2431POPC   PO434092  15.393  20.305   9.605
 2431POPC   GL134093  15.358  20.624   9.259
 2431POPC   GL234094  15.054  20.865   9.228
 2431POPC   C1A34095  15.206  20.524   8.849
 2431POPC   D2A34096  14.887  20.385   8.599
 2431POPC   C3A34097  14.973  20.477   8.194
 2431POPC   C4A34098  14.999  20.422   7.775
 2431POPC   C1B34099  15.335  21.010   8.873
 2431POPC   C2B34100  15.426  20.798   8.465
 2431POPC   C3B34101  15.325  20.796   8.008
 2431POPC   C4B34102  15.149  20.853   7.558
 2432POPC   NC334103   4.357  26.950   9.706
 2432POPC   PO434104   3.754  27.048   9.575
 2432POPC   GL134105   4.100  27.087   9.263
 2432POPC   GL234106   4.274  26.781   9.178
 2432POPC   C1A34107   4.087  27.113   8.807
 2432POPC   D2A34108   4.208  26.923   8.416
 2432POPC   C3A34109   4.235  27.147   8.033
 2432POPC   C4A34110   4.370  26.877   7.708
 2432POPC   C1B34111   4.423  26.627   8.772
 2432POPC   C2B34112   4.376  26.447   8.331
 2432POPC   C3B34113   4.619  26.503   7.950
 2432POPC   C4B34114   4.619  26.519   7.455
 2433POPC   NC334115  15.035  30.374   9.596
 2433POPC   PO434116  15.479  30.884   9.527
 2433POPC   GL134117  15.229  30.716   9.212
 2433POPC   GL234118  15.392  30.384   9.224
 2433POPC   C1A34119  15.102  30.850   8.795
 2433POPC   D2A34120  15.284  30.707   8.390
 2433POPC   C3A34121  15.066  30.854   8.037
 2433POPC   C4A34122  14.961  30.916   7.626
 2433POPC   C1B34123  15.358  30.399   8.797
 2433POPC   C2B34124  15.399  30.195   8.406
 2433POPC   C3B34125  15.220  30.285   8.002
 2433POPC   C4B34126  14.879  30.424   7.759
 2434POPC   NC334127   2.430   4.599   9.477
 2434POPC   PO434128   1.883   4.300   9.752
 2434POPC   GL134129   2.146   4.170   9.296
 2434POPC   GL234130   2.240   4.407   9.055
 2434POPC   C1A34131   1.933   4.135   8.788
 2434POPC   D2A34132   2.019   4.229   8.351
 2434POPC   C3A34133   1.811   4.363   7.976
 2434POPC   C4A34134   1.925   4.219   7.563
 2434POPC   C1B34135   2.453   4.253   8.659
 2434POPC   C2B34136   2.496   4.372   8.189
 2434POPC   C3B34137   2.261   4.569   7.808
 2434POPC   C4B34138   2.197   4.584   7.345
 2435POPC   NC334139  11.896  19.613   9.417
 2435POPC   PO434140  12.254  19.042   9.552
 2435POPC   GL134141  12.061  19.059   9.150
 2435POPC   GL234142  11.719  18.904   9.107
 2435POPC   C1A34143  12.067  18.914   8.731
 2435POPC   D2A34144  11.893  19.116   8.391
 2435POPC   C3A34145  11.871  18.879   8.055
 2435POPC   C4A34146  12.085  18.717   7.726
 2435POPC   C1B34147  11.687  19.283   8.821
 2435POPC   C2B34148  11.609  19.554   8.422
 2435POPC   C3B34149  11.660  19.424   8.006
 2435POPC   C4B34150  11.806  19.178   7.675
 2436POPC   NC334151  29.320  29.938   9.782
 2436POPC   PO434152  28.758  29.708   9.420
 2436POPC   GL134153  29.057  29.873   9.105
 2436POPC   GL234154  29.426  29.843   8.982
 2436POPC   C1A34155  29.017  29.847   8.687
 2436POPC   D2A34156  29.357  29.688   8.457
 2436POPC   C3A34157  29.207  29.653   8.055
 2436POPC   C4A34158  29.085  29.945   7.716
 2436POPC   C1B34159  29.433  30.150   8.627
 2436POPC   C2B34160  29.197  30.143   8.209
 2436POPC   C3B34161  29.168  30.420   7.835
 2436POPC   C4B34162  28.936  30.529   7.441
 2437POPC   NC334163  22.041  34.953   9.327
 2437POPC   PO434164  21.673  35.479   9.537
 2437POPC   GL134165  21.935  35.429   9.174
 2437POPC   GL234166  21.872  35.721   9.091
 2437POPC   C1A34167  22.146  35.301   8.753
 2437POPC   D2A34168  21.999  35.074   8.395
 2437POPC   C3A34169  22.102  35.218   7.960
 2437POPC   C4A34170  22.442  35.373   7.702
 2437POPC   C1B34171  22.019  35.779   8.744
 2437POPC   C2B34172  22.209  35.708   8.411
 2437POPC   C3B34173  22.171  35.711   7.997
 2437POPC   C4B34174  22.007  35.674   7.567
 2438POPC   NC334175  42.981  27.053   9.427
 2438POPC   PO434176  43.523  26.716   9.519
 2438POPC   GL134177  43.250  26.645   9.188
 2438POPC   GL234178  43.348  26.367   9.008
 2438POPC   C1A34179  43.128  26.839   8.793
 2438POPC   D2A34180  43.146  26.966   8.366
 2438POPC   C3A34181  42.852  27.041   8.068
 2438POPC   C4A34182  43.076  27.043   7.702
 2438POPC   C1B34183  42.982  26.351   8.746
 2438POPC   C2B34184  42.932  26.480   8.301
 2438POPC   C3B34185  43.250  26.563   7.959
 2438POPC   C4B34186  43.306  26.618   7.496
 2439POPC   NC334187  43.282  32.235   9.532
 2439POPC   PO434188  42.677  32.363   9.475
 2439POPC   GL134189  42.932  32.083   9.170
 2439POPC   GL234190  43.230  32.283   9.042
 2439POPC   C1A34191  43.103  31.908   8.744
 2439POPC   D2A34192  43.315  32.059   8.379
 2439POPC   C3A34193  43.158  32.207   7.944
 2439POPC   C4A34194  43.269  31.879   7.663
 2439POPC   C1B34195  43.205  32.568   8.716
 2439POPC   C2B34196  43.319  32.553   8.309
 2439POPC   C3B34197  43.283  32.767   7.964
 2439POPC   C4B34198  43.461  32.757   7.568
 2440POPC   NC334199  21.617  22.290   9.359
 2440POPC   PO434200  22.173  21.956   9.636
 2440POPC   GL134201  22.121  22.101   9.212
 2440POPC   GL234202  21.875  21.920   9.101
 2440POPC   C1A34203  22.180  22.037   8.736
 2440POPC   D2A34204  22.415  22.085   8.393
 2440POPC   C3A34205  22.311  22.321   8.088
 2440POPC   C4A34206  22.309  22.235   7.693
 2440POPC   C1B34207  21.773  21.703   8.740
 2440POPC   C2B34208  21.652  21.821   8.340
 2440POPC   C3B34209  21.904  21.958   8.040
 2440POPC   C4B34210  21.940  21.726   7.678
 2441POPC   NC334211  39.153  43.956   9.426
 2441POPC   PO434212  39.648  43.556   9.568
 2441POPC   GL134213  39.560  43.817   9.101
 2441POPC   GL234214  39.208  43.889   8.926
 2441POPC   C1A34215  39.636  44.011   8.686
 2441POPC   D2A34216  39.567  44.170   8.278
 2441POPC   C3A34217  39.491  43.808   8.021
 2441POPC   C4A34218  39.445  43.745   7.586
 2441POPC   C1B34219  39.033  43.580   8.646
 2441POPC   C2B34220  38.959  43.490   8.228
 2441POPC   C3B34221  38.672  43.618   7.934
 2441POPC   C4B34222  38.684  43.568   7.520
 2442POPC   NC334223  17.375  38.505   9.360
 2442POPC   PO434224  17.773  38.037   9.425
 2442POPC   GL134225  17.671  38.179   9.015
 2442POPC   GL234226  17.678  38.542   8.944
 2442POPC   C1A34227  17.648  38.195   8.566
 2442POPC   D2A34228  17.626  38.428   8.164
 2442POPC   C3A34229  17.518  38.234   7.751
 2442POPC   C4A34230  17.667  38.173   7.325
 2442POPC   C1B34231  17.929  38.638   8.577
 2442POPC   C2B34232  18.005  38.788   8.170
 2442POPC   C3B34233  17.834  38.650   7.753
 2442POPC   C4B34234  18.005  38.577   7.347
 2443POPC   NC334235   8.832  39.480   9.565
 2443POPC   PO434236   8.675  38.814   9.402
 2443POPC   GL134237   8.827  39.212   9.135
 2443POPC   GL234238   8.653  39.574   9.112
 2443POPC   C1A34239   9.113  39.323   8.775
 2443POPC   D2A34240   9.373  39.333   8.393
 2443POPC   C3A34241   9.106  39.233   8.047
 2443POPC   C4A34242   9.132  39.108   7.637
 2443POPC   C1B34243   8.588  39.421   8.728
 2443POPC   C2B34244   8.709  39.131   8.457
 2443POPC   C3B34245   8.580  39.124   8.076
 2443POPC   C4B34246   8.691  39.334   7.715
 2444POPC   NC334247  15.444  22.648   9.507
 2444POPC   PO434248  15.010  23.156   9.604
 2444POPC   GL134249  15.176  22.988   9.180
 2444POPC   GL234250  15.564  23.018   9.131
 2444POPC   C1A34251  15.075  22.839   8.735
 2444POPC   D2A34252  15.252  22.839   8.307
 2444POPC   C3A34253  15.039  22.821   7.895
 2444POPC   C4A34254  15.338  22.679   7.581
 2444POPC   C1B34255  15.432  23.201   8.718
 2444POPC   C2B34256  15.463  23.373   8.319
 2444POPC   C3B34257  15.400  23.204   7.918
 2444POPC   C4B34258  15.581  23.135   7.506
 2445POPC   NC334259  12.391  28.870   9.304
 2445POPC   PO434260  11.801  29.145   9.515
 2445POPC   GL134261  12.034  29.215   9.131
 2445POPC   GL234262  12.258  29.518   9.214
 2445POPC   C1A34263  12.135  28.979   8.711
 2445POPC   D2A34264  11.954  29.072   8.292
 2445POPC   C3A34265  11.949  28.885   7.888
 2445POPC   C4A34266  12.069  29.033   7.477
 2445POPC   C1B34267  12.282  29.488   8.755
 2445POPC   C2B34268  12.336  29.423   8.296
 2445POPC   C3B34269  12.163  29.362   7.873
 2445POPC   C4B34270  12.309  29.495   7.454
 2446POPC   NC334271  29.288  37.022   9.533
 2446POPC   PO434272  28.926  36.398   9.563
 2446POPC   GL134273  28.836  36.609   9.105
 2446POPC   GL234274  28.966  36.973   9.121
 2446POPC   C1A34275  28.919  36.815   8.655
 2446POPC   D2A34276  29.345  36.762   8.473
 2446POPC   C3A34277  29.375  36.712   8.035
 2446POPC   C4A34278  29.021  36.803   7.785
 2446POPC   C1B34279  29.290  37.114   8.854
 2446POPC   C2B34280  29.293  37.280   8.453
 2446POPC   C3B34281  29.226  37.209   8.035
 2446POPC   C4B34282  28.915  37.398   7.823
 2447POPC   NC334283  11.723  34.471   9.492
 2447POPC   PO434284  11.118  34.224   9.512
 2447POPC   GL134285  11.170  34.291   9.099
 2447POPC   GL234286  11.515  34.209   9.120
 2447POPC   C1A34287  11.066  34.313   8.663
 2447POPC   D2A34288  11.277  34.545   8.320
 2447POPC   C3A34289  11.415  34.337   7.957
 2447POPC   C4A34290  11.024  34.403   7.767
 2447POPC   C1B34291  11.509  34.550   8.806
 2447POPC   C2B34292  11.774  34.673   8.461
 2447POPC   C3B34293  11.693  34.777   8.039
 2447POPC   C4B34294  11.311  34.828   7.821
 2448POPC   NC334295  37.718  29.502   9.380
 2448POPC   PO434296  37.345  29.079   9.765
 2448POPC   GL134297  37.668  28.994   9.329
 2448POPC   GL234298  38.039  28.958   9.136
 2448POPC   C1A34299  37.617  29.046   8.854
 2448POPC   D2A34300  37.535  29.158   8.432
 2448POPC   C3A34301  37.604  28.905   8.062
 2448POPC   C4A34302  37.431  29.000   7.683
 2448POPC   C1B34303  38.088  29.165   8.682
 2448POPC   C2B34304  38.032  29.162   8.199
 2448POPC   C3B34305  37.934  29.181   7.720
 2448POPC   C4B34306  38.086  29.192   7.260
 2449POPC   NC334307  36.824  33.658   9.568
 2449POPC   PO434308  37.293  34.069   9.462
 2449POPC   GL134309  37.089  33.946   9.081
 2449POPC   GL234310  36.740  33.841   9.111
 2449POPC   C1A34311  36.890  34.038   8.682
 2449POPC   D2A34312  36.965  33.745   8.358
 2449POPC   C3A34313  37.011  33.885   7.962
 2449POPC   C4A34314  37.370  33.996   7.756
 2449POPC   C1B34315  36.805  33.517   8.815
 2449POPC   C2B34316  36.577  33.426   8.447
 2449POPC   C3B34317  36.564  33.568   8.044
 2449POPC   C4B34318  36.664  33.663   7.651
 2450POPC   NC334319  35.073   0.104   9.378
 2450POPC   PO434320  35.601   0.578   9.431
 2450POPC   GL134321  35.265   0.651   9.161
 2450POPC   GL234322  35.387   0.327   9.026
 2450POPC   C1A34323  35.118   0.660   8.743
 2450POPC   D2A34324  35.273   0.342   8.453
 2450POPC   C3A34325  35.056   0.379   8.067
 2450POPC   C4A34326  34.935   0.651   7.746
 2450POPC   C1B34327  35.734   0.279   8.748
 2450POPC   C2B34328  35.836   0.408   8.329
 2450POPC   C3B34329  35.544   0.457   7.997
 2450POPC   C4B34330  35.613   0.337   7.545
 2451POPC   NC334331  22.379  28.392   9.674
 2451POPC   PO434332  21.760  28.472   9.604
 2451POPC   GL134333  21.984  28.529   9.203
 2451POPC   GL234334  22.195  28.250   9.111
 2451POPC   C1A34335  22.249  28.648   8.798
 2451POPC   D2A34336  22.318  28.473   8.366
 2451POPC   C3A34337  22.164  28.483   7.947
 2451POPC   C4A34338  22.428  28.438   7.560
 2451POPC   C1B34339  22.005  28.197   8.659
 2451POPC   C2B34340  21.863  28.158   8.190
 2451POPC   C3B34341  22.083  28.021   7.764
 2451POPC   C4B34342  22.303  27.784   7.416
 2452POPC   NC334343  19.287  19.824   9.628
 2452POPC   PO434344  18.779  20.077   9.258
 2452POPC   GL134345  19.048  19.954   8.993
 2452POPC   GL234346  19.346  19.816   9.089
 2452POPC   C1A34347  19.006  19.860   8.591
 2452POPC   D2A34348  19.171  19.689   8.226
 2452POPC   C3A34349  18.911  19.726   7.832
 2452POPC   C4A34350  18.814  19.603   7.361
 2452POPC   C1B34351  19.505  19.872   8.658
 2452POPC   C2B34352  19.535  20.023   8.202
 2452POPC   C3B34353  19.428  19.827   7.786
 2452POPC   C4B34354  19.156  19.964   7.445
 2453POPC   NC334355   6.276  13.456   9.542
 2453POPC   PO434356   6.448  14.030   9.158
 2453POPC   GL134357   6.732  13.743   9.008
 2453POPC   GL234358   6.524  13.477   9.108
 2453POPC   C1A34359   6.773  13.653   8.581
 2453POPC   D2A34360   6.448  13.628   8.261
 2453POPC   C3A34361   6.608  13.894   7.929
 2453POPC   C4A34362   6.947  13.892   7.627
 2453POPC   C1B34363   6.387  13.342   8.717
 2453POPC   C2B34364   6.701  13.138   8.513
 2453POPC   C3B34365   6.725  13.178   8.115
 2453POPC   C4B34366   6.450  13.386   7.808
 2454POPC   NC334367  37.789  15.992   9.382
 2454POPC   PO434368  37.372  15.491   9.532
 2454POPC   GL134369  37.362  15.801   9.151
 2454POPC   GL234370  37.377  16.206   9.155
 2454POPC   C1A34371  37.637  15.789   8.751
 2454POPC   D2A34372  37.817  15.542   8.370
 2454POPC   C3A34373  37.679  15.636   7.945
 2454POPC   C4A34374  37.785  15.868   7.575
 2454POPC   C1B34375  37.626  16.303   8.756
 2454POPC   C2B34376  37.730  16.435   8.327
 2454POPC   C3B34377  37.719  16.191   7.979
 2454POPC   C4B34378  37.360  16.123   7.762
 2455POPC   NC334379  18.316   9.250   9.523
 2455POPC   PO434380  18.751   8.686   9.430
 2455POPC   GL134381  18.508   8.965   9.150
 2455POPC   GL234382  18.127   8.926   9.164
 2455POPC   C1A34383  18.341   9.174   8.788
 2455POPC   D2A34384  18.202   9.132   8.383
 2455POPC   C3A34385  18.395   8.944   8.051
 2455POPC   C4A34386  18.341   9.183   7.710
 2455POPC   C1B34387  18.029   8.770   8.729
 2455POPC   C2B34388  17.800   8.815   8.305
 2455POPC   C3B34389  17.903   8.987   7.883
 2455POPC   C4B34390  17.983   8.935   7.377
 2456POPC   NC334391  30.368  16.134   9.453
 2456POPC   PO434392  31.019  15.928   9.471
 2456POPC   GL134393  30.715  15.857   9.175
 2456POPC   GL234394  30.679  15.504   9.150
 2456POPC   C1A34395  30.515  15.839   8.779
 2456POPC   D2A34396  30.546  16.072   8.403
 2456POPC   C3A34397  30.505  15.988   7.992
 2456POPC   C4A34398  30.654  15.839   7.608
 2456POPC   C1B34399  30.960  15.555   8.811
 2456POPC   C2B34400  30.849  15.650   8.413
 2456POPC   C3B34401  30.883  15.618   8.000
 2456POPC   C4B34402  31.066  15.456   7.634
 2457POPC   NC334403   3.736  40.620   9.598
 2457POPC   PO434404   3.188  41.160   9.535
 2457POPC   GL134405   3.508  40.917   9.254
 2457POPC   GL234406   3.360  40.600   9.240
 2457POPC   C1A34407   3.807  40.924   8.901
 2457POPC   D2A34408   3.758  40.797   8.477
 2457POPC   C3A34409   3.547  41.093   8.202
 2457POPC   C4A34410   3.493  41.048   7.756
 2457POPC   C1B34411   3.439  40.475   8.821
 2457POPC   C2B34412   3.530  40.328   8.410
 2457POPC   C3B34413   3.538  40.543   8.000
 2457POPC   C4B34414   3.630  40.528   7.548
 2458POPC   NC334415  39.405   5.070   9.598
 2458POPC   PO434416  39.775   4.573   9.419
 2458POPC   GL134417  39.445   4.832   9.140
 2458POPC   GL234418  39.099   4.980   9.201
 2458POPC   C1A34419  39.338   4.897   8.719
 2458POPC   D2A34420  39.420   4.914   8.280
 2458POPC   C3A34421  39.142   4.747   7.984
 2458POPC   C4A34422  39.283   4.982   7.634
 2458POPC   C1B34423  38.969   5.246   8.854
 2458POPC   C2B34424  38.958   5.061   8.430
 2458POPC   C3B34425  39.096   5.241   8.051
 2458POPC   C4B34426  39.095   5.448   7.713
 2459POPC   NC334427  35.939   1.774   9.585
 2459POPC   PO434428  36.544   1.920   9.502
 2459POPC   GL134429  36.243   1.883   9.195
 2459POPC   GL234430  36.125   2.210   9.166
 2459POPC   C1A34431  36.259   1.767   8.778
 2459POPC   D2A34432  36.367   1.937   8.385
 2459POPC   C3A34433  36.233   1.663   8.089
 2459POPC   C4A34434  36.257   1.879   7.733
 2459POPC   C1B34435  35.822   2.017   8.851
 2459POPC   C2B34436  35.849   1.915   8.395
 2459POPC   C3B34437  35.991   2.166   8.034
 2459POPC   C4B34438  35.808   2.110   7.577
 2460POPC   NC334439   0.880  36.675   9.939
 2460POPC   PO434440   0.434  36.828   9.420
 2460POPC   GL134441   0.418  36.831   9.036
 2460POPC   GL234442   0.066  36.920   9.030
 2460POPC   C1A34443   0.671  36.839   8.668
 2460POPC   D2A34444   0.541  36.609   8.314
 2460POPC   C3A34445   0.529  36.789   7.954
 2460POPC   C4A34446   0.676  36.817   7.578
 2460POPC   C1B34447   0.139  36.798   8.591
 2460POPC   C2B34448   0.040  36.796   8.154
 2460POPC   C3B34449   0.082  36.760   7.707
 2460POPC   C4B34450   0.222  36.727   7.299
 2461POPC   NC334451  18.078  32.174   9.491
 2461POPC   PO434452  18.700  32.359   9.349
 2461POPC   GL134453  18.398  32.162   9.096
 2461POPC   GL234454  18.476  31.832   8.988
 2461POPC   C1A34455  18.206  32.365   8.751
 2461POPC   D2A34456  18.337  32.704   8.456
 2461POPC   C3A34457  18.115  32.669   8.083
 2461POPC   C4A34458  18.315  32.597   7.691
 2461POPC   C1B34459  18.059  31.860   8.806
 2461POPC   C2B34460  17.872  32.022   8.428
 2461POPC   C3B34461  18.068  32.149   8.007
 2461POPC   C4B34462  18.397  32.087   7.685
 2462POPC   NC334463  18.627  41.432   9.213
 2462POPC   PO434464  18.135  41.731   9.590
 2462POPC   GL134465  18.141  41.645   9.163
 2462POPC   GL234466  18.092  41.318   9.101
 2462POPC   C1A34467  17.959  41.664   8.743
 2462POPC   D2A34468  18.179  41.716   8.349
 2462POPC   C3A34469  18.090  41.503   7.971
 2462POPC   C4A34470  18.184  41.621   7.549
 2462POPC   C1B34471  18.259  41.275   8.684
 2462POPC   C2B34472  18.418  41.262   8.303
 2462POPC   C3B34473  18.649  41.252   7.954
 2462POPC   C4B34474  18.501  41.201   7.572
 2463POPC   NC334475   0.946   8.259   9.402
 2463POPC   PO434476   1.116   7.680   9.522
 2463POPC   GL134477   0.907   7.845   9.105
 2463POPC   GL234478   0.559   8.001   9.102
 2463POPC   C1A34479   0.840   8.067   8.689
 2463POPC   D2A34480   0.687   7.952   8.266
 2463POPC   C3A34481   0.571   8.223   7.907
 2463POPC   C4A34482   0.717   8.432   7.527
 2463POPC   C1B34483   0.332   8.060   8.665
 2463POPC   C2B34484   0.183   8.064   8.207
 2463POPC   C3B34485   0.033   8.067   7.778
 2463POPC   C4B34486  44.738   8.117   7.419
 2464POPC   NC334487  18.821  42.651   9.517
 2464POPC   PO434488  18.124  42.846   9.431
 2464POPC   GL134489  18.045  43.073   9.080
 2464POPC   GL234490  18.345  43.244   9.057
 2464POPC   C1A34491  18.206  42.925   8.695
 2464POPC   D2A34492  18.375  43.119   8.360
 2464POPC   C3A34493  18.212  42.881   8.020
 2464POPC   C4A34494  18.137  42.870   7.557
 2464POPC   C1B34495  18.601  43.492   8.824
 2464POPC   C2B34496  18.667  43.576   8.409
 2464POPC   C3B34497  18.619  43.401   8.020
 2464POPC   C4B34498  18.580  43.070   7.730
 2465POPC   NC334499  16.237  31.440   9.703
 2465POPC   PO434500  15.594  31.699   9.494
 2465POPC   GL134501  15.789  31.361   9.239
 2465POPC   GL234502  16.175  31.331   9.202
 2465POPC   C1A34503  15.812  31.372   8.796
 2465POPC   D2A34504  15.603  31.552   8.457
 2465POPC   C3A34505  15.722  31.459   8.059
 2465POPC   C4A34506  15.860  31.728   7.762
 2465POPC   C1B34507  16.307  31.217   8.778
 2465POPC   C2B34508  16.132  31.292   8.381
 2465POPC   C3B34509  16.165  31.231   7.962
 2465POPC   C4B34510  16.379  30.995   7.698
 2466POPC   NC334511  28.202  21.702   9.555
 2466POPC   PO434512  28.390  22.344   9.423
 2466POPC   GL134513  28.370  22.010   9.164
 2466POPC   GL234514  28.053  21.914   9.092
 2466POPC   C1A34515  28.558  21.828   8.822
 2466POPC   D2A34516  28.501  21.701   8.452
 2466POPC   C3A34517  28.396  22.061   8.201
 2466POPC   C4A34518  28.141  22.002   7.867
 2466POPC   C1B34519  28.166  22.125   8.693
 2466POPC   C2B34520  27.927  22.277   8.336
 2466POPC   C3B34521  28.040  22.495   7.977
 2466POPC   C4B34522  28.427  22.441   7.767
 2467POPC   NC334523   3.796  37.000   9.880
 2467POPC   PO434524   3.219  37.189   9.526
 2467POPC   GL134525   3.285  37.101   9.062
 2467POPC   GL234526   3.471  36.778   9.139
 2467POPC   C1A34527   3.288  37.035   8.616
 2467POPC   D2A34528   3.413  37.292   8.249
 2467POPC   C3A34529   3.575  37.060   7.909
 2467POPC   C4A34530   3.494  37.018   7.502
 2467POPC   C1B34531   3.754  36.863   8.794
 2467POPC   C2B34532   3.722  36.853   8.357
 2467POPC   C3B34533   4.028  36.901   8.026
 2467POPC   C4B34534   3.969  36.804   7.583
 2468POPC   NC334535  26.178  28.615   9.591
 2468POPC   PO434536  25.877  28.088   9.333
 2468POPC   GL134537  26.202  28.240   9.045
 2468POPC   GL234538  26.292  28.591   9.080
 2468POPC   C1A34539  26.216  28.229   8.599
 2468POPC   D2A34540  25.970  28.116   8.214
 2468POPC   C3A34541  26.082  28.241   7.850
 2468POPC   C4A34542  26.249  28.636   7.816
 2468POPC   C1B34543  25.950  28.614   8.762
 2468POPC   C2B34544  26.003  28.623   8.305
 2468POPC   C3B34545  25.729  28.578   7.948
 2468POPC   C4B34546  25.838  28.665   7.499
 2469POPC   NC334547  12.713  42.920   9.357
 2469POPC   PO434548  13.168  43.486   9.431
 2469POPC   GL134549  13.030  43.221   9.100
 2469POPC   GL234550  13.131  42.845   9.088
 2469POPC   C1A34551  12.855  43.227   8.707
 2469POPC   D2A34552  12.673  43.454   8.392
 2469POPC   C3A34553  12.870  43.351   8.040
 2469POPC   C4A34554  12.706  43.393   7.669
 2469POPC   C1B34555  12.946  42.727   8.657
 2469POPC   C2B34556  12.623  42.903   8.332
 2469POPC   C3B34557  12.627  42.890   7.864
 2469POPC   C4B34558  13.011  42.929   7.612
 2470POPC   NC334559  26.311  21.972   9.507
 2470POPC   PO434560  25.670  22.169   9.478
 2470POPC   GL134561  25.915  22.016   9.133
 2470POPC   GL234562  26.216  22.220   9.077
 2470POPC   C1A34563  25.830  22.055   8.687
 2470POPC   D2A34564  25.686  21.954   8.266
 2470POPC   C3A34565  25.607  22.258   7.922
 2470POPC   C4A34566  25.773  22.228   7.501
 2470POPC   C1B34567  26.291  21.875   8.804
 2470POPC   C2B34568  26.247  22.057   8.361
 2470POPC   C3B34569  26.065  21.994   7.929
 2470POPC   C4B34570  26.314  22.166   7.591
 2471POPC   NC334571   3.538   0.634   9.511
 2471POPC   PO434572   3.519  44.928   9.514
 2471POPC   GL134573   3.441   0.260   9.174
 2471POPC   GL234574   3.774   0.346   9.185
 2471POPC   C1A34575   3.254   0.554   8.835
 2471POPC   D2A34576   3.462   0.593   8.407
 2471POPC   C3A34577   3.389   0.531   7.978
 2471POPC   C4A34578   3.711   0.841   7.904
 2471POPC   C1B34579   3.800   0.553   8.821
 2471POPC   C2B34580   3.935   0.399   8.453
 2471POPC   C3B34581   3.809   0.259   8.090
 2471POPC   C4B34582   3.876   0.417   7.688
 2472POPC   NC334583  27.888  22.341   9.341
 2472POPC   PO434584  27.342  21.814   9.372
 2472POPC   GL134585  27.552  22.094   9.064
 2472POPC   GL234586  27.715  22.363   8.878
 2472POPC   C1A34587  27.708  21.927   8.675
 2472POPC   D2A34588  27.547  21.899   8.272
 2472POPC   C3A34589  27.659  22.108   7.860
 2472POPC   C4A34590  27.806  22.030   7.441
 2472POPC   C1B34591  27.450  22.336   8.525
 2472POPC   C2B34592  27.302  22.340   8.124
 2472POPC   C3B34593  27.492  22.566   7.778
 2472POPC   C4B34594  27.471  22.416   7.397
 2473POPC   NC334595   0.156  37.285   9.410
 2473POPC   PO434596   0.659  37.781   9.620
 2473POPC   GL134597   0.517  37.627   9.240
 2473POPC   GL234598   0.647  37.302   9.264
 2473POPC   C1A34599   0.278  37.763   8.830
 2473POPC   D2A34600   0.443  37.705   8.410
 2473POPC   C3A34601   0.238  37.657   7.995
 2473POPC   C4A34602   0.644  37.709   7.788
 2473POPC   C1B34603   0.501  37.298   8.851
 2473POPC   C2B34604   0.181  37.303   8.594
 2473POPC   C3B34605   0.325  37.203   8.197
 2473POPC   C4B34606   0.417  37.241   7.740
 2474POPC   NC334607   5.733  13.264   9.416
 2474POPC   PO434608   6.046  13.800   9.738
 2474POPC   GL134609   6.001  13.748   9.225
 2474POPC   GL234610   5.970  13.415   9.009
 2474POPC   C1A34611   5.909  13.828   8.776
 2474POPC   D2A34612   5.970  13.519   8.470
 2474POPC   C3A34613   5.883  13.640   8.079
 2474POPC   C4A34614   6.129  13.805   7.795
 2474POPC   C1B34615   5.558  13.406   8.758
 2474POPC   C2B34616   5.448  13.515   8.321
 2474POPC   C3B34617   5.493  13.335   7.887
 2474POPC   C4B34618   5.602  13.280   7.413
 2475POPC   NC334619   2.327  13.139   9.510
 2475POPC   PO434620   2.160  13.877   9.610
 2475POPC   GL134621   2.013  13.629   9.253
 2475POPC   GL234622   1.816  13.890   9.098
 2475POPC   C1A34623   2.032  13.532   8.802
 2475POPC   D2A34624   2.010  13.530   8.373
 2475POPC   C3A34625   2.230  13.675   8.014
 2475POPC   C4A34626   2.129  13.557   7.590
 2475POPC   C1B34627   1.837  13.971   8.628
 2475POPC   C2B34628   1.857  13.983   8.176
 2475POPC   C3B34629   1.966  14.055   7.739
 2475POPC   C4B34630   1.875  13.898   7.322
 2476POPC   NC334631  27.708   7.862   9.415
 2476POPC   PO434632  27.706   7.142   9.497
 2476POPC   GL134633  27.736   7.371   9.128
 2476POPC   GL234634  27.443   7.570   9.087
 2476POPC   C1A34635  27.768   7.460   8.692
 2476POPC   D2A34636  27.624   7.579   8.300
 2476POPC   C3A34637  27.870   7.438   7.937
 2476POPC   C4A34638  27.945   7.623   7.496
 2476POPC   C1B34639  27.256   7.597   8.687
 2476POPC   C2B34640  27.088   7.514   8.284
 2476POPC   C3B34641  27.267   7.550   7.912
 2476POPC   C4B34642  27.496   7.375   7.590
 2477POPC   NC334643  40.229   1.277   9.512
 2477POPC   PO434644  39.799   0.802   9.576
 2477POPC   GL134645  39.882   1.031   9.212
 2477POPC   GL234646  40.200   0.959   9.113
 2477POPC   C1A34647  39.834   1.213   8.791
 2477POPC   D2A34648  39.740   0.967   8.465
 2477POPC   C3A34649  39.683   1.030   8.016
 2477POPC   C4A34650  39.925   0.890   7.668
 2477POPC   C1B34651  40.357   1.132   8.725
 2477POPC   C2B34652  40.160   1.301   8.376
 2477POPC   C3B34653  40.136   1.299   7.974
 2477POPC   C4B34654  39.852   1.414   7.684
 2478POPC   NC334655  31.781  34.474   9.427
 2478POPC   PO434656  31.164  34.701   9.423
 2478POPC   GL134657  31.455  34.726   9.098
 2478POPC   GL234658  31.414  34.388   9.088
 2478POPC   C1A34659  31.742  34.523   8.760
 2478POPC   D2A34660  31.615  34.326   8.417
 2478POPC   C3A34661  31.608  34.600   8.129
 2478POPC   C4A34662  31.731  34.401   7.776
 2478POPC   C1B34663  31.212  34.376   8.705
 2478POPC   C2B34664  31.092  34.463   8.291
 2478POPC   C3B34665  31.209  34.375   7.883
 2478POPC   C4B34666  31.355  34.726   7.702
 2479POPC   NC334667  32.021  43.958   9.430
 2479POPC   PO434668  32.122  44.724   9.537
 2479POPC   GL134669  32.118  44.423   9.198
 2479POPC   GL234670  32.423  44.503   9.004
 2479POPC   C1A34671  31.950  44.452   8.790
 2479POPC   D2A34672  32.168  44.701   8.507
 2479POPC   C3A34673  32.290  44.506   8.134
 2479POPC   C4A34674  32.321  44.590   7.659
 2479POPC   C1B34675  32.542  44.941   8.829
 2479POPC   C2B34676  32.488   0.095   8.398
 2479POPC   C3B34677  32.367  44.991   7.974
 2479POPC   C4B34678  32.689  44.964   7.620
 2480POPC   NC334679  37.199  32.052   9.519
 2480POPC   PO434680  36.737  32.547   9.594
 2480POPC   GL134681  36.657  32.276   9.224
 2480POPC   GL234682  36.997  32.290   9.123
 2480POPC   C1A34683  36.685  32.089   8.781
 2480POPC   D2A34684  36.858  32.300   8.392
 2480POPC   C3A34685  36.773  32.106   7.985
 2480POPC   C4A34686  36.914  32.087   7.584
 2480POPC   C1B34687  37.172  32.528   8.798
 2480POPC   C2B34688  37.340  32.492   8.405
 2480POPC   C3B34689  37.242  32.352   8.005
 2480POPC   C4B34690  37.124  32.573   7.689
 2481POPC   NC334691  35.563  33.399   9.420
 2481POPC   PO434692  35.117  32.987   9.583
 2481POPC   GL134693  35.260  33.058   9.164
 2481POPC   GL234694  35.595  32.988   9.127
 2481POPC   C1A34695  35.328  32.896   8.738
 2481POPC   D2A34696  35.108  33.013   8.403
 2481POPC   C3A34697  35.286  33.111   8.024
 2481POPC   C4A34698  35.261  33.322   7.616
 2481POPC   C1B34699  35.583  33.333   8.798
 2481POPC   C2B34700  35.538  33.425   8.367
 2481POPC   C3B34701  35.682  33.399   7.941
 2481POPC   C4B34702  35.760  33.321   7.509
 2482POPC   NC334703   9.947  36.462   9.490
 2482POPC   PO434704   9.459  35.982   9.449
 2482POPC   GL134705   9.521  35.998   9.077
 2482POPC   GL234706   9.668  36.321   9.106
 2482POPC   C1A34707   9.397  35.855   8.690
 2482POPC   D2A34708   9.593  35.760   8.334
 2482POPC   C3A34709   9.687  35.965   7.950
 2482POPC   C4A34710   9.811  35.729   7.596
 2482POPC   C1B34711   9.471  36.390   8.734
 2482POPC   C2B34712   9.382  36.292   8.356
 2482POPC   C3B34713   9.438  36.562   8.028
 2482POPC   C4B34714   9.517  36.366   7.677
 2483POPC   NC334715  42.535  25.479   9.509
 2483POPC   PO434716  41.849  25.124   9.556
 2483POPC   GL134717  42.212  25.137   9.326
 2483POPC   GL234718  42.116  25.452   9.210
 2483POPC   C1A34719  42.333  25.099   8.884
 2483POPC   D2A34720  42.511  25.259   8.475
 2483POPC   C3A34721  42.317  25.051   8.114
 2483POPC   C4A34722  42.277  24.821   7.731
 2483POPC   C1B34723  42.335  25.615   8.834
 2483POPC   C2B34724  42.226  25.757   8.432
 2483POPC   C3B34725  42.333  25.562   8.063
 2483POPC   C4B34726  42.528  25.415   7.679
 2484POPC   NC334727  29.103   6.983   9.501
 2484POPC   PO434728  28.758   7.566   9.489
 2484POPC   GL134729  28.980   7.372   9.139
 2484POPC   GL234730  29.294   7.271   9.138
 2484POPC   C1A34731  29.119   7.531   8.734
 2484POPC   D2A34732  28.958   7.508   8.325
 2484POPC   C3A34733  29.281   7.590   8.036
 2484POPC   C4A34734  29.324   7.403   7.637
 2484POPC   C1B34735  29.412   7.107   8.759
 2484POPC   C2B34736  29.419   7.228   8.369
 2484POPC   C3B34737  29.567   7.074   7.988
 2484POPC   C4B34738  29.505   6.939   7.567
 2485POPC   NC334739   2.462  39.677   9.445
 2485POPC   PO434740   1.837  40.194   9.429
 2485POPC   GL134741   1.955  39.921   9.130
 2485POPC   GL234742   2.183  40.116   8.937
 2485POPC   C1A34743   1.753  39.906   8.749
 2485POPC   D2A34744   2.049  40.038   8.443
 2485POPC   C3A34745   1.942  40.033   8.035
 2485POPC   C4A34746   2.175  39.883   7.683
 2485POPC   C1B34747   2.421  40.358   8.638
 2485POPC   C2B34748   2.274  40.467   8.236
 2485POPC   C3B34749   2.255  40.367   7.796
 2485POPC   C4B34750   2.181  40.599   7.437
 2486POPC   NC334751  10.246  14.046   9.753
 2486POPC   PO434752  10.543  13.431   9.516
 2486POPC   GL134753  10.549  13.640   9.137
 2486POPC   GL234754  10.247  13.858   9.215
 2486POPC   C1A34755  10.575  13.440   8.719
 2486POPC   D2A34756  10.386  13.318   8.318
 2486POPC   C3A34757  10.681  13.350   7.970
 2486POPC   C4A34758  10.815  13.252   7.561
 2486POPC   C1B34759  10.263  13.857   8.758
 2486POPC   C2B34760  10.504  13.818   8.361
 2486POPC   C3B34761  10.315  13.716   7.953
 2486POPC   C4B34762  10.316  13.866   7.545
 2487POPC   NC334763  43.372  38.459   9.475
 2487POPC   PO434764  43.077  37.955   9.820
 2487POPC   GL134765  43.100  38.108   9.272
 2487POPC   GL234766  43.383  38.225   9.048
 2487POPC   C1A34767  42.924  38.408   8.932
 2487POPC   D2A34768  42.990  38.727   8.569
 2487POPC   C3A34769  43.080  38.597   8.127
 2487POPC   C4A34770  42.899  38.472   7.704
 2487POPC   C1B34771  43.355  38.354   8.638
 2487POPC   C2B34772  43.163  38.126   8.322
 2487POPC   C3B34773  43.240  38.133   7.904
 2487POPC   C4B34774  43.231  38.183   7.421
 2488POPC   NC334775  29.871  16.826   9.523
 2488POPC   PO434776  29.284  16.699   9.463
 2488POPC   GL134777  29.583  16.837   9.078
 2488POPC   GL234778  30.010  16.776   9.045
 2488POPC   C1A34779  29.727  16.836   8.635
 2488POPC   D2A34780  29.973  16.956   8.275
 2488POPC   C3A34781  29.706  16.867   7.932
 2488POPC   C4A34782  29.685  16.781   7.498
 2488POPC   C1B34783  30.321  16.592   8.710
 2488POPC   C2B34784  30.288  16.485   8.262
 2488POPC   C3B34785  30.021  16.441   7.913
 2488POPC   C4B34786  30.195  16.822   7.788
 2489POPC   NC334787  34.095  43.772   9.376
 2489POPC   PO434788  33.447  43.891   9.501
 2489POPC   GL134789  33.627  43.737   9.130
 2489POPC   GL234790  33.771  44.071   9.089
 2489POPC   C1A34791  33.863  43.693   8.719
 2489POPC   D2A34792  34.164  43.858   8.367
 2489POPC   C3A34793  34.038  43.837   7.925
 2489POPC   C4A34794  34.079  43.711   7.494
 2489POPC   C1B34795  34.073  44.161   8.778
 2489POPC   C2B34796  34.055  44.390   8.387
 2489POPC   C3B34797  34.108  44.356   7.965
 2489POPC   C4B34798  34.115  44.217   7.543
 2490POPC   NC334799   7.011  28.424   9.439
 2490POPC   PO434800   7.569  27.981   9.444
 2490POPC   GL134801   7.639  28.292   9.153
 2490POPC   GL234802   7.354  28.551   9.072
 2490POPC   C1A34803   7.617  28.288   8.727
 2490POPC   D2A34804   7.389  28.521   8.435
 2490POPC   C3A34805   7.574  28.510   8.049
 2490POPC   C4A34806   7.569  28.234   7.718
 2490POPC   C1B34807   7.115  28.826   8.772
 2490POPC   C2B34808   7.161  28.974   8.353
 2490POPC   C3B34809   7.097  28.697   8.029
 2490POPC   C4B34810   6.893  28.607   7.676
 2491POPC   NC334811   9.712  31.921   9.531
 2491POPC   PO434812   9.638  31.226   9.454
 2491POPC   GL134813   9.437  31.454   9.125
 2491POPC   GL234814   9.494  31.845   9.067
 2491POPC   C1A34815   9.509  31.236   8.746
 2491POPC   D2A34816   9.916  31.233   8.531
 2491POPC   C3A34817   9.819  31.258   8.115
 2491POPC   C4A34818   9.585  31.448   7.820
 2491POPC   C1B34819   9.770  31.678   8.739
 2491POPC   C2B34820   9.841  31.758   8.299
 2491POPC   C3B34821   9.549  31.950   8.008
 2491POPC   C4B34822   9.430  31.853   7.572
 2492POPC   NC334823  37.957   7.003   9.739
 2492POPC   PO434824  37.631   6.460   9.583
 2492POPC   GL134825  37.669   6.555   9.172
 2492POPC   GL234826  37.839   6.858   9.174
 2492POPC   C1A34827  37.909   6.497   8.774
 2492POPC   D2A34828  38.012   6.723   8.389
 2492POPC   C3A34829  37.831   6.543   7.979
 2492POPC   C4A34830  37.461   6.475   7.716
 2492POPC   C1B34831  37.620   6.924   8.754
 2492POPC   C2B34832  37.665   7.078   8.303
 2492POPC   C3B34833  37.669   6.998   7.862
 2492POPC   C4B34834  37.288   7.035   7.629
 2493POPC   NC334835   9.007  38.499   9.487
 2493POPC   PO434836   9.390  37.974   9.320
 2493POPC   GL134837   9.102  38.229   9.040
 2493POPC   GL234838   8.838  38.519   9.022
 2493POPC   C1A34839   9.083  38.355   8.611
 2493POPC   D2A34840   8.943  38.114   8.287
 2493POPC   C3A34841   9.217  38.167   7.942
 2493POPC   C4A34842   9.146  38.421   7.592
 2493POPC   C1B34843   8.956  38.835   8.790
 2493POPC   C2B34844   9.150  38.856   8.412
 2493POPC   C3B34845   9.068  38.704   8.010
 2493POPC   C4B34846   8.748  38.780   7.703
 2494POPC   NC334847  12.472  32.213   9.634
 2494POPC   PO434848  11.891  31.899   9.275
 2494POPC   GL134849  11.765  32.233   9.058
 2494POPC   GL234850  11.846  32.496   9.308
 2494POPC   C1A34851  11.893  32.315   8.634
 2494POPC   D2A34852  12.031  32.365   8.242
 2494POPC   C3A34853  11.998  32.048   8.013
 2494POPC   C4A34854  12.351  31.976   7.783
 2494POPC   C1B34855  11.790  32.722   8.925
 2494POPC   C2B34856  11.850  32.804   8.461
 2494POPC   C3B34857  11.795  32.730   7.999
 2494POPC   C4B34858  11.986  32.481   7.713
 2495POPC   NC334859  38.753  18.960   9.567
 2495POPC   PO434860  38.049  19.198   9.540
 2495POPC   GL134861  38.346  19.078   9.168
 2495POPC   GL234862  38.708  19.067   9.093
 2495POPC   C1A34863  38.362  19.266   8.743
 2495POPC   D2A34864  38.300  19.539   8.345
 2495POPC   C3A34865  38.340  19.315   7.940
 2495POPC   C4A34866  38.520  18.897   7.934
 2495POPC   C1B34867  38.713  18.765   8.767
 2495POPC   C2B34868  38.794  18.653   8.331
 2495POPC   C3B34869  38.959  18.636   7.897
 2495POPC   C4B34870  38.889  18.972   7.568
 2496POPC   NC334871  23.443  30.533   9.576
 2496POPC   PO434872  23.956  30.861   9.498
 2496POPC   GL134873  23.842  30.742   9.113
 2496POPC   GL234874  23.493  30.730   9.102
 2496POPC   C1A34875  23.828  30.873   8.687
 2496POPC   D2A34876  23.898  30.618   8.359
 2496POPC   C3A34877  24.043  30.756   7.986
 2496POPC   C4A34878  24.004  30.441   7.725
 2496POPC   C1B34879  23.400  30.558   8.723
 2496POPC   C2B34880  23.385  30.625   8.310
 2496POPC   C3B34881  23.563  30.534   7.971
 2496POPC   C4B34882  23.510  30.343   7.629
 2497POPC   NC334883   8.750   1.128   9.533
 2497POPC   PO434884   9.286   1.534   9.691
 2497POPC   GL134885   9.097   1.318   9.234
 2497POPC   GL234886   8.790   1.305   9.053
 2497POPC   C1A34887   9.193   1.379   8.716
 2497POPC   D2A34888   8.981   1.345   8.330
 2497POPC   C3A34889   9.039   1.176   7.913
 2497POPC   C4A34890   8.763   1.302   7.581
 2497POPC   C1B34891   9.103   0.940   8.926
 2497POPC   C2B34892   9.144   0.835   8.514
 2497POPC   C3B34893   9.248   0.731   8.121
 2497POPC   C4B34894   9.417   0.860   7.745
 2498POPC   NC334895  24.915   2.465   9.799
 2498POPC   PO434896  24.585   2.920   9.561
 2498POPC   GL134897  24.603   2.720   9.178
 2498POPC   GL234898  24.252   2.700   9.141
 2498POPC   C1A34899  24.605   2.783   8.730
 2498POPC   D2A34900  24.780   2.893   8.328
 2498POPC   C3A34901  24.672   2.582   8.011
 2498POPC   C4A34902  24.797   2.528   7.597
 2498POPC   C1B34903  24.246   3.108   8.919
 2498POPC   C2B34904  24.352   3.172   8.475
 2498POPC   C3B34905  24.297   2.922   8.098
 2498POPC   C4B34906  24.293   2.710   7.689
 2499POPC   NC334907  31.024  27.256   9.484
 2499POPC   PO434908  30.635  26.842   9.426
 2499POPC   GL134909  30.569  26.692   9.072
 2499POPC   GL234910  30.882  26.517   9.048
 2499POPC   C1A34911  30.623  26.835   8.696
 2499POPC   D2A34912  30.833  26.749   8.322
 2499POPC   C3A34913  30.528  26.890   8.033
 2499POPC   C4A34914  30.401  27.057   7.674
 2499POPC   C1B34915  31.104  26.880   8.825
 2499POPC   C2B34916  31.151  27.159   8.439
 2499POPC   C3B34917  30.961  27.198   8.009
 2499POPC   C4B34918  30.889  27.056   7.576
 2500POPC   NC334919   9.997  39.616   9.376
 2500POPC   PO434920  10.276  40.205   9.568
 2500POPC   GL134921  10.388  40.008   9.216
 2500POPC   GL234922  10.752  39.964   9.236
 2500POPC   C1A34923  10.366  40.132   8.808
 2500POPC   D2A34924  10.413  39.982   8.399
 2500POPC   C3A34925  10.363  40.225   8.036
 2500POPC   C4A34926  10.392  40.005   7.685
 2500POPC   C1B34927  10.888  40.137   8.835
 2500POPC   C2B34928  10.949  40.061   8.400
 2500POPC   C3B34929  10.795  39.941   7.995
 2500POPC   C4B34930  10.865  39.919   7.535
 2501POPC   NC334931  35.842  12.209   9.322
 2501POPC   PO434932  36.411  11.841   9.442
 2501POPC   GL134933  36.157  11.894   9.068
 2501POPC   GL234934  35.841  11.736   9.152
 2501POPC   C1A34935  36.011  12.143   8.670
 2501POPC   D2A34936  35.963  12.421   8.300
 2501POPC   C3A34937  36.185  12.274   7.951
 2501POPC   C4A34938  36.348  11.877   7.784
 2501POPC   C1B34939  35.667  11.783   8.749
 2501POPC   C2B34940  35.891  11.728   8.374
 2501POPC   C3B34941  35.763  11.769   7.968
 2501POPC   C4B34942  35.863  11.990   7.656
 2502POPC   NC334943  25.644  19.435   9.407
 2502POPC   PO434944  25.573  18.736   9.424
 2502POPC   GL134945  25.399  19.035   9.147
 2502POPC   GL234946  25.054  19.133   9.213
 2502POPC   C1A34947  25.329  19.177   8.738
 2502POPC   D2A34948  25.092  19.241   8.359
 2502POPC   C3A34949  25.322  19.126   7.979
 2502POPC   C4A34950  25.416  19.306   7.601
 2502POPC   C1B34951  24.996  18.807   8.864
 2502POPC   C2B34952  24.829  18.762   8.430
 2502POPC   C3B34953  24.940  18.779   7.970
 2502POPC   C4B34954  24.873  18.830   7.470
 2503POPC   NC334955  19.012   4.395   9.483
 2503POPC   PO434956  19.598   4.041   9.492
 2503POPC   GL134957  19.271   4.128   9.115
 2503POPC   GL234958  19.133   4.497   9.010
 2503POPC   C1A34959  19.186   4.151   8.638
 2503POPC   D2A34960  19.056   4.543   8.367
 2503POPC   C3A34961  19.169   4.526   7.924
 2503POPC   C4A34962  19.394   4.205   7.697
 2503POPC   C1B34963  18.751   4.381   8.787
 2503POPC   C2B34964  18.730   4.158   8.390
 2503POPC   C3B34965  19.013   4.055   8.095
 2503POPC   C4B34966  18.856   4.154   7.708
 2504POPC   NC334967  13.734  29.490   9.550
 2504POPC   PO434968  13.534  28.874   9.552
 2504POPC   GL134969  13.679  29.077   9.195
 2504POPC   GL234970  14.020  29.037   9.238
 2504POPC   C1A34971  13.527  29.184   8.787
 2504POPC   D2A34972  13.465  29.006   8.389
 2504POPC   C3A34973  13.607  29.236   8.089
 2504POPC   C4A34974  13.598  29.288   7.694
 2504POPC   C1B34975  13.982  28.925   8.781
 2504POPC   C2B34976  14.045  29.088   8.344
 2504POPC   C3B34977  13.981  28.897   7.917
 2504POPC   C4B34978  13.961  28.995   7.466
 2505POPC   NC334979  22.581  29.283   9.359
 2505POPC   PO434980  21.973  29.364   9.616
 2505POPC   GL134981  22.091  29.348   9.213
 2505POPC   GL234982  22.123  29.012   9.229
 2505POPC   C1A34983  22.253  29.232   8.791
 2505POPC   D2A34984  22.033  29.231   8.430
 2505POPC   C3A34985  22.263  29.263   8.094
 2505POPC   C4A34986  22.131  29.353   7.732
 2505POPC   C1B34987  21.848  28.922   8.867
 2505POPC   C2B34988  21.848  28.729   8.444
 2505POPC   C3B34989  21.913  28.913   8.034
 2505POPC   C4B34990  22.124  28.848   7.614
 2506POPC   NC334991  35.743  17.886   9.642
 2506POPC   PO434992  35.156  17.504   9.711
 2506POPC   GL134993  35.445  17.560   9.337
 2506POPC   GL234994  35.353  17.891   9.251
 2506POPC   C1A34995  35.623  17.600   8.902
 2506POPC   D2A34996  35.459  17.463   8.509
 2506POPC   C3A34997  35.506  17.554   8.071
 2506POPC   C4A34998  35.159  17.514   7.797
 2506POPC   C1B34999  35.217  17.905   8.805
 2506POPC   C2B35000  35.443  17.962   8.409
 2506POPC   C3B35001  35.452  18.047   7.963
 2506POPC   C4B35002  35.412  17.907   7.547
 2507POPC   NC335003  25.048   8.890   9.449
 2507POPC   PO435004  25.670   9.151   9.470
 2507POPC   GL135005  25.373   9.127   9.082
 2507POPC   GL235006  24.958   9.181   9.047
 2507POPC   C1A35007  25.595   9.144   8.665
 2507POPC   D2A35008  25.650   9.160   8.195
 2507POPC   C3A35009  25.692   8.735   8.086
 2507POPC   C4A35010  25.545   8.581   7.715
 2507POPC   C1B35011  25.090   9.215   8.637
 2507POPC   C2B35012  25.254   8.874   8.379
 2507POPC   C3B35013  25.218   8.903   7.978
 2507POPC   C4B35014  24.984   9.208   7.807
 2508POPC   NC335015  44.106  25.514   9.471
 2508POPC   PO435016  43.599  25.011   9.500
 2508POPC   GL135017  43.757  25.263   9.164
 2508POPC   GL235018  44.101  25.111   9.092
 2508POPC   C1A35019  43.857  25.439   8.777
 2508POPC   D2A35020  44.146  25.394   8.443
 2508POPC   C3A35021  44.020  25.580   8.056
 2508POPC   C4A35022  44.097  25.448   7.624
 2508POPC   C1B35023  43.957  24.959   8.685
 2508POPC   C2B35024  43.754  25.101   8.290
 2508POPC   C3B35025  43.843  25.043   7.853
 2508POPC   C4B35026  43.651  24.840   7.485
 2509POPC   NC335027  10.887  33.329   9.531
 2509POPC   PO435028  11.591  33.343   9.505
 2509POPC   GL135029  11.459  33.021   9.174
 2509POPC   GL235030  11.102  32.949   9.252
 2509POPC   C1A35031  11.367  32.888   8.704
 2509POPC   D2A35032  11.428  33.018   8.257
 2509POPC   C3A35033  11.289  32.795   7.877
 2509POPC   C4A35034  11.520  32.886   7.499
 2509POPC   C1B35035  10.950  33.148   8.871
 2509POPC   C2B35036  10.978  33.164   8.449
 2509POPC   C3B35037  11.058  33.258   7.986
 2509POPC   C4B35038  11.054  33.155   7.521
 2510POPC   NC335039  28.827  43.461   9.343
 2510POPC   PO435040  29.459  43.261   9.482
 2510POPC   GL135041  29.451  43.074   9.090
 2510POPC   GL235042  29.106  43.137   9.021
 2510POPC   C1A35043  29.426  42.911   8.662
 2510POPC   D2A35044  29.656  42.880   8.265
 2510POPC   C3A35045  29.310  42.867   7.931
 2510POPC   C4A35046  29.242  43.105   7.521
 2510POPC   C1B35047  28.968  43.409   8.677
 2510POPC   C2B35048  28.846  43.325   8.247
 2510POPC   C3B35049  28.848  43.108   7.846
 2510POPC   C4B35050  28.741  43.100   7.390
 2511POPC   NC335051   6.889  16.216   9.345
 2511POPC   PO435052   6.403  15.753   9.500
 2511POPC   GL135053   6.517  15.941   9.116
 2511POPC   GL235054   6.836  15.800   9.064
 2511POPC   C1A35055   6.670  16.142   8.719
 2511POPC   D2A35056   6.436  16.084   8.343
 2511POPC   C3A35057   6.594  16.113   7.971
 2511POPC   C4A35058   6.374  15.793   7.754
 2511POPC   C1B35059   6.846  15.635   8.713
 2511POPC   C2B35060   6.881  15.830   8.339
 2511POPC   C3B35061   6.802  15.658   7.974
 2511POPC   C4B35062   6.909  15.824   7.585
 2512POPC   NC335063  17.000  41.066   9.385
 2512POPC   PO435064  17.685  40.832   9.570
 2512POPC   GL135065  17.385  40.710   9.248
 2512POPC   GL235066  17.701  40.689   9.085
 2512POPC   C1A35067  17.309  40.804   8.791
 2512POPC   D2A35068  17.560  40.824   8.398
 2512POPC   C3A35069  17.336  40.741   8.010
 2512POPC   C4A35070  17.214  40.845   7.589
 2512POPC   C1B35071  17.716  40.464   8.756
 2512POPC   C2B35072  17.825  40.367   8.364
 2512POPC   C3B35073  17.842  40.589   8.010
 2512POPC   C4B35074  17.698  40.669   7.636
 2513POPC   NC335075  33.755  30.033   9.670
 2513POPC   PO435076  34.084  29.510   9.472
 2513POPC   GL135077  33.794  29.718   9.217
 2513POPC   GL235078  33.630  29.461   9.004
 2513POPC   C1A35079  33.658  29.955   8.856
 2513POPC   D2A35080  33.859  29.993   8.410
 2513POPC   C3A35081  33.722  30.038   7.959
 2513POPC   C4A35082  34.030  30.124   7.598
 2513POPC   C1B35083  33.983  29.582   8.733
 2513POPC   C2B35084  34.090  29.525   8.293
 2513POPC   C3B35085  34.057  29.665   7.868
 2513POPC   C4B35086  33.744  29.678   7.527
 2514POPC   NC335087  29.594  28.813   9.337
 2514POPC   PO435088  29.702  28.139   9.490
 2514POPC   GL135089  29.773  28.321   9.120
 2514POPC   GL235090  29.986  28.603   9.002
 2514POPC   C1A35091  30.004  28.168   8.756
 2514POPC   D2A35092  30.085  28.513   8.486
 2514POPC   C3A35093  30.171  28.435   8.053
 2514POPC   C4A35094  29.882  28.185   7.795
 2514POPC   C1B35095  29.619  28.591   8.725
 2514POPC   C2B35096  29.442  28.682   8.340
 2514POPC   C3B35097  29.668  28.584   7.998
 2514POPC   C4B35098  29.666  28.639   7.582
 2515POPC   NC335099  39.725  30.264   9.849
 2515POPC   PO435100  39.892  29.698   9.445
 2515POPC   GL135101  39.887  29.862   9.058
 2515POPC   GL235102  40.120  30.107   9.008
 2515POPC   C1A35103  39.754  30.030   8.655
 2515POPC   D2A35104  39.699  29.673   8.388
 2515POPC   C3A35105  39.776  29.752   7.989
 2515POPC   C4A35106  39.618  29.543   7.662
 2515POPC   C1B35107  40.171  29.730   8.672
 2515POPC   C2B35108  40.195  29.565   8.255
 2515POPC   C3B35109  40.235  29.950   8.005
 2515POPC   C4B35110  40.151  30.072   7.594
 2516POPC   NC335111  29.742  39.269   9.623
 2516POPC   PO435112  30.383  39.403   9.580
 2516POPC   GL135113  30.247  39.215   9.190
 2516POPC   GL235114  29.903  39.334   9.132
 2516POPC   C1A35115  30.150  39.071   8.761
 2516POPC   D2A35116  29.767  39.160   8.515
 2516POPC   C3A35117  29.832  39.183   8.070
 2516POPC   C4A35118  30.115  39.137   7.751
 2516POPC   C1B35119  30.038  39.574   8.770
 2516POPC   C2B35120  30.144  39.499   8.330
 2516POPC   C3B35121  30.265  39.615   7.886
 2516POPC   C4B35122  30.206  39.558   7.426
 2517POPC   NC335123   3.676  15.590   9.354
 2517POPC   PO435124   3.409  15.051   9.675
 2517POPC   GL135125   3.571  15.103   9.261
 2517POPC   GL235126   3.326  15.288   9.153
 2517POPC   C1A35127   3.667  15.150   8.808
 2517POPC   D2A35128   3.696  14.948   8.400
 2517POPC   C3A35129   3.679  15.111   7.976
 2517POPC   C4A35130   3.428  14.910   7.630
 2517POPC   C1B35131   3.257  15.441   8.716
 2517POPC   C2B35132   3.512  15.450   8.376
 2517POPC   C3B35133   3.284  15.434   8.036
 2517POPC   C4B35134   3.417  15.422   7.649
 2518POPC   NC335135  37.889  25.608   9.496
 2518POPC   PO435136  37.656  24.994   9.567
 2518POPC   GL135137  37.551  25.288   9.230
 2518POPC   GL235138  37.292  25.550   9.300
 2518POPC   C1A35139  37.657  25.372   8.816
 2518POPC   D2A35140  37.476  25.357   8.411
 2518POPC   C3A35141  37.787  25.436   8.134
 2518POPC   C4A35142  38.002  25.248   7.803
 2518POPC   C1B35143  37.196  25.606   8.854
 2518POPC   C2B35144  37.234  25.798   8.428
 2518POPC   C3B35145  37.266  25.647   7.987
 2518POPC   C4B35146  37.585  25.496   7.667
 2519POPC   NC335147   6.297  40.918   9.679
 2519POPC   PO435148   5.638  40.674   9.498
 2519POPC   GL135149   5.714  40.621   9.030
 2519POPC   GL235150   5.966  40.820   8.808
 2519POPC   C1A35151   5.714  40.435   8.617
 2519POPC   D2A35152   5.470  40.550   8.278
 2519POPC   C3A35153   5.678  40.874   8.085
 2519POPC   C4A35154   5.768  40.764   7.698
 2519POPC   C1B35155   6.357  41.045   8.691
 2519POPC   C2B35156   6.527  40.997   8.314
 2519POPC   C3B35157   6.290  40.761   8.035
 2519POPC   C4B35158   6.258  40.891   7.641
 2520POPC   NC335159  23.235  19.391   9.527
 2520POPC   PO435160  22.787  19.931   9.392
 2520POPC   GL135161  22.969  20.147   9.061
 2520POPC   GL235162  23.343  20.092   9.046
 2520POPC   C1A35163  22.850  19.995   8.671
 2520POPC   D2A35164  22.956  19.676   8.361
 2520POPC   C3A35165  22.982  19.825   7.957
 2520POPC   C4A35166  22.822  19.937   7.548
 2520POPC   C1B35167  23.349  20.092   8.609
 2520POPC   C2B35168  23.067  20.231   8.260
 2520POPC   C3B35169  23.114  20.283   7.800
 2520POPC   C4B35170  23.262  20.128   7.382
 2521POPC   NC335171  44.289  36.649   9.463
 2521POPC   PO435172  43.644  36.995   9.528
 2521POPC   GL135173  43.940  36.976   9.208
 2521POPC   GL235174  43.972  36.676   9.065
 2521POPC   C1A35175  43.962  37.079   8.765
 2521POPC   D2A35176  44.202  37.183   8.417
 2521POPC   C3A35177  43.964  37.135   8.028
 2521POPC   C4A35178  43.678  37.289   7.722
 2521POPC   C1B35179  43.800  36.575   8.684
 2521POPC   C2B35180  44.005  36.644   8.294
 2521POPC   C3B35181  44.143  36.677   7.892
 2521POPC   C4B35182  44.187  36.698   7.412
 2522POPC   NC335183  20.785  12.502   9.536
 2522POPC   PO435184  20.572  11.835   9.735
 2522POPC   GL135185  20.693  11.920   9.281
 2522POPC   GL235186  20.432  11.845   9.054
 2522POPC   C1A35187  20.842  11.922   8.805
 2522POPC   D2A35188  20.619  11.795   8.370
 2522POPC   C3A35189  20.668  12.079   8.023
 2522POPC   C4A35190  20.812  12.061   7.588
 2522POPC   C1B35191  20.361  12.113   8.691
 2522POPC   C2B35192  20.181  12.080   8.255
 2522POPC   C3B35193  20.207  11.979   7.798
 2522POPC   C4B35194  20.374  12.244   7.434
 2523POPC   NC335195  38.990  24.394   9.457
 2523POPC   PO435196  39.595  24.359   9.423
 2523POPC   GL135197  39.342  24.472   9.072
 2523POPC   GL235198  39.070  24.263   8.986
 2523POPC   C1A35199  39.234  24.672   8.680
 2523POPC   D2A35200  39.385  24.707   8.245
 2523POPC   C3A35201  39.024  24.684   7.966
 2523POPC   C4A35202  39.122  24.740   7.531
 2523POPC   C1B35203  38.914  23.967   8.713
 2523POPC   C2B35204  39.125  23.919   8.349
 2523POPC   C3B35205  39.141  24.052   7.948
 2523POPC   C4B35206  39.399  24.376   7.814
 2524POPC   NC335207  37.763  36.737   9.382
 2524POPC   PO435208  37.812  37.317   9.701
 2524POPC   GL135209  37.753  37.247   9.211
 2524POPC   GL235210  37.399  37.376   9.034
 2524POPC   C1A35211  37.773  37.121   8.776
 2524POPC   D2A35212  37.851  37.222   8.368
 2524POPC   C3A35213  37.825  36.864   8.113
 2524POPC   C4A35214  37.591  36.725   7.797
 2524POPC   C1B35215  37.305  37.391   8.629
 2524POPC   C2B35216  37.327  37.088   8.378
 2524POPC   C3B35217  37.404  37.158   8.015
 2524POPC   C4B35218  37.242  37.101   7.655
 2525POPC   NC335219  38.689  44.156  10.067
 2525POPC   PO435220  38.336  43.866   9.625
 2525POPC   GL135221  38.498  43.780   9.236
 2525POPC   GL235222  38.738  44.004   9.137
 2525POPC   C1A35223  38.532  43.530   8.875
 2525POPC   D2A35224  38.449  43.575   8.429
 2525POPC   C3A35225  38.399  43.960   8.191
 2525POPC   C4A35226  38.289  43.939   7.734
 2525POPC   C1B35227  38.712  43.968   8.683
 2525POPC   C2B35228  39.023  44.013   8.340
 2525POPC   C3B35229  39.045  44.019   7.890
 2525POPC   C4B35230  38.720  44.183   7.667
 2526POPC   NC335231  39.020  19.748   9.247
 2526POPC   PO435232  39.282  19.129   9.568
 2526POPC   GL135233  39.245  18.994   9.158
 2526POPC   GL235234  39.183  19.303   9.049
 2526POPC   C1A35235  39.228  18.919   8.692
 2526POPC   D2A35236  39.188  19.201   8.321
 2526POPC   C3A35237  39.268  19.052   7.929
 2526POPC   C4A35238  39.586  18.922   7.743
 2526POPC   C1B35239  38.894  19.327   8.715
 2526POPC   C2B35240  38.681  19.191   8.345
 2526POPC   C3B35241  38.839  19.321   7.957
 2526POPC   C4B35242  38.719  19.470   7.576
 2527POPC   NC335243  31.643  30.375   9.485
 2527POPC   PO435244  31.431  31.046   9.428
 2527POPC   GL135245  31.633  30.864   9.125
 2527POPC   GL235246  31.438  30.578   9.074
 2527POPC   C1A35247  31.596  30.947   8.724
 2527POPC   D2A35248  31.409  30.681   8.472
 2527POPC   C3A35249  31.543  30.774   8.079
 2527POPC   C4A35250  31.630  30.746   7.681
 2527POPC   C1B35251  31.771  30.459   8.783
 2527POPC   C2B35252  31.760  30.335   8.347
 2527POPC   C3B35253  31.576  30.270   7.947
 2527POPC   C4B35254  31.840  30.285   7.599
 2528POPC   NC335255  23.588  37.444   9.714
 2528POPC   PO435256  23.940  37.910   9.581
 2528POPC   GL135257  23.843  37.596   9.243
 2528POPC   GL235258  23.595  37.346   9.212
 2528POPC   C1A35259  23.990  37.424   8.832
 2528POPC   D2A35260  23.847  37.495   8.382
 2528POPC   C3A35261  24.037  37.608   7.984
 2528POPC   C4A35262  24.210  37.334   7.681
 2528POPC   C1B35263  23.500  37.518   8.790
 2528POPC   C2B35264  23.368  37.638   8.392
 2528POPC   C3B35265  23.471  37.576   7.978
 2528POPC   C4B35266  23.644  37.843   7.701
 2529POPC   NC335267   1.046  22.950   9.683
 2529POPC   PO435268   1.416  22.402   9.814
 2529POPC   GL135269   1.413  22.783   9.380
 2529POPC   GL235270   1.219  23.119   9.247
 2529POPC   C1A35271   1.367  22.780   8.891
 2529POPC   D2A35272   1.024  22.782   8.570
 2529POPC   C3A35273   1.129  22.751   8.131
 2529POPC   C4A35274   0.927  22.528   7.821
 2529POPC   C1B35275   1.148  23.252   8.815
 2529POPC   C2B35276   1.284  23.190   8.382
 2529POPC   C3B35277   1.201  23.234   7.939
 2529POPC   C4B35278   1.429  23.234   7.544
 2530POPC   NC335279  23.214  28.613   9.578
 2530POPC   PO435280  23.892  28.559   9.668
 2530POPC   GL135281  23.647  28.564   9.266
 2530POPC   GL235282  23.384  28.343   9.172
 2530POPC   C1A35283  23.694  28.650   8.815
 2530POPC   D2A35284  23.757  28.778   8.376
 2530POPC   C3A35285  23.939  28.540   8.079
 2530POPC   C4A35286  23.720  28.670   7.755
 2530POPC   C1B35287  23.445  28.209   8.737
 2530POPC   C2B35288  23.516  28.327   8.293
 2530POPC   C3B35289  23.571  28.194   7.851
 2530POPC   C4B35290  23.548  27.896   7.495
 2531POPC   NC335291  13.166  42.034   9.453
 2531POPC   PO435292  12.634  41.575   9.509
 2531POPC   GL135293  12.718  41.797   9.182
 2531POPC   GL235294  13.030  41.767   9.064
 2531POPC   C1A35295  12.637  41.613   8.774
 2531POPC   D2A35296  12.543  41.458   8.372
 2531POPC   C3A35297  12.639  41.635   7.985
 2531POPC   C4A35298  12.803  41.342   7.699
 2531POPC   C1B35299  13.146  41.575   8.722
 2531POPC   C2B35300  12.984  41.736   8.368
 2531POPC   C3B35301  13.168  41.622   7.990
 2531POPC   C4B35302  13.079  41.944   7.760
 2532POPC   NC335303  40.440  19.666   9.529
 2532POPC   PO435304  39.771  19.764   9.617
 2532POPC   GL135305  39.920  19.965   9.229
 2532POPC   GL235306  40.239  19.900   9.134
 2532POPC   C1A35307  39.859  19.972   8.765
 2532POPC   D2A35308  39.905  19.661   8.432
 2532POPC   C3A35309  40.077  19.714   7.995
 2532POPC   C4A35310  40.221  19.366   7.703
 2532POPC   C1B35311  40.372  19.877   8.714
 2532POPC   C2B35312  40.192  20.113   8.368
 2532POPC   C3B35313  40.400  20.095   7.982
 2532POPC   C4B35314  40.399  19.934   7.576
 2533POPC   NC335315  21.466  44.349   9.542
 2533POPC   PO435316  21.774  44.917   9.466
 2533POPC   GL135317  21.499  44.684   9.133
 2533POPC   GL235318  21.666  44.395   9.071
 2533POPC   C1A35319  21.278  44.613   8.724
 2533POPC   D2A35320  21.189  44.951   8.416
 2533POPC   C3A35321  21.177  44.871   7.986
 2533POPC   C4A35322  21.163  44.445   7.879
 2533POPC   C1B35323  21.655  44.254   8.653
 2533POPC   C2B35324  21.492  44.275   8.234
 2533POPC   C3B35325  21.678  44.426   7.830
 2533POPC   C4B35326  21.762  44.401   7.373
 2534POPC   NC335327  15.809  11.806   9.782
 2534POPC   PO435328  16.120  11.742   9.212
 2534POPC   GL135329  15.867  11.923   8.963
 2534POPC   GL235330  15.730  12.153   9.180
 2534POPC   C1A35331  15.863  11.847   8.552
 2534POPC   D2A35332  16.211  11.780   8.303
 2534POPC   C3A35333  16.111  11.897   7.918
 2534POPC   C4A35334  15.771  12.158   7.790
 2534POPC   C1B35335  15.656  12.301   8.728
 2534POPC   C2B35336  15.832  12.293   8.302
 2534POPC   C3B35337  16.042  12.535   7.984
 2534POPC   C4B35338  15.925  12.661   7.548
 2535POPC   NC335339  37.108  20.931   9.509
 2535POPC   PO435340  36.642  20.447   9.446
 2535POPC   GL135341  37.000  20.507   9.198
 2535POPC   GL235342  36.986  20.825   9.033
 2535POPC   C1A35343  37.080  20.388   8.782
 2535POPC   D2A35344  36.908  20.580   8.414
 2535POPC   C3A35345  37.075  20.420   8.044
 2535POPC   C4A35346  36.777  20.248   7.751
 2535POPC   C1B35347  36.751  20.994   8.693
 2535POPC   C2B35348  36.631  20.997   8.239
 2535POPC   C3B35349  36.684  20.730   7.889
 2535POPC   C4B35350  36.785  20.852   7.464
 2536POPC   NC335351  21.971  26.049   9.586
 2536POPC   PO435352  22.451  26.276   9.424
 2536POPC   GL135353  22.115  26.189   9.115
 2536POPC   GL235354  22.040  25.832   9.112
 2536POPC   C1A35355  22.043  26.205   8.673
 2536POPC   D2A35356  22.116  25.930   8.328
 2536POPC   C3A35357  22.086  26.070   7.907
 2536POPC   C4A35358  22.033  25.947   7.513
 2536POPC   C1B35359  22.389  25.848   8.805
 2536POPC   C2B35360  22.584  25.721   8.408
 2536POPC   C3B35361  22.455  25.707   7.981
 2536POPC   C4B35362  22.563  25.995   7.656
 2537POPC   NC335363  39.669  19.332   9.420
 2537POPC   PO435364  40.262  19.014   9.402
 2537POPC   GL135365  40.110  18.975   9.022
 2537POPC   GL235366  39.766  18.845   9.088
 2537POPC   C1A35367  40.196  19.241   8.654
 2537POPC   D2A35368  40.231  19.287   8.218
 2537POPC   C3A35369  40.031  18.954   7.991
 2537POPC   C4A35370  40.108  18.836   7.577
 2537POPC   C1B35371  39.687  19.162   8.759
 2537POPC   C2B35372  39.699  19.209   8.300
 2537POPC   C3B35373  39.729  19.369   7.876
 2537POPC   C4B35374  39.792  19.295   7.426
 2538POPC   NC335375  18.022  34.707   9.551
 2538POPC   PO435376  18.654  34.511   9.376
 2538POPC   GL135377  18.312  34.502   9.152
 2538POPC   GL235378  18.324  34.871   9.173
 2538POPC   C1A35379  18.285  34.367   8.738
 2538POPC   D2A35380  18.498  34.460   8.352
 2538POPC   C3A35381  18.236  34.433   7.996
 2538POPC   C4A35382  18.285  34.211   7.624
 2538POPC   C1B35383  18.066  34.823   8.820
 2538POPC   C2B35384  18.029  34.697   8.398
 2538POPC   C3B35385  17.982  34.899   8.034
 2538POPC   C4B35386  18.060  34.741   7.638
 2539POPC   NC335387   7.212  23.390   9.500
 2539POPC   PO435388   7.674  23.901   9.615
 2539POPC   GL135389   7.628  23.672   9.209
 2539POPC   GL235390   7.312  23.588   9.046
 2539POPC   C1A35391   7.757  23.750   8.782
 2539POPC   D2A35392   7.921  23.861   8.342
 2539POPC   C3A35393   7.820  23.715   7.878
 2539POPC   C4A35394   7.764  24.033   7.505
 2539POPC   C1B35395   7.083  23.332   8.754
 2539POPC   C2B35396   7.120  23.298   8.297
 2539POPC   C3B35397   7.279  23.582   7.964
 2539POPC   C4B35398   7.327  23.807   7.580
 2540POPC   NC335399  27.458   0.379   9.483
 2540POPC   PO435400  27.825   0.910   9.215
 2540POPC   GL135401  27.553   0.655   9.055
 2540POPC   GL235402  27.855   0.393   9.155
 2540POPC   C1A35403  27.341   0.789   8.659
 2540POPC   D2A35404  27.375   0.758   8.195
 2540POPC   C3A35405  27.438   0.357   7.958
 2540POPC   C4A35406  27.356   0.310   7.516
 2540POPC   C1B35407  27.674   0.259   8.791
 2540POPC   C2B35408  27.739   0.471   8.416
 2540POPC   C3B35409  27.869   0.621   8.033
 2540POPC   C4B35410  27.852   0.488   7.619
 2541POPC   NC335411  29.200  22.839   9.461
 2541POPC   PO435412  29.526  23.372   9.417
 2541POPC   GL135413  29.139  23.296   9.145
 2541POPC   GL235414  29.151  22.933   8.968
 2541POPC   C1A35415  28.891  23.289   8.745
 2541POPC   D2A35416  29.093  23.046   8.373
 2541POPC   C3A35417  28.966  23.094   7.933
 2541POPC   C4A35418  28.814  22.930   7.522
 2541POPC   C1B35419  29.064  22.603   8.640
 2541POPC   C2B35420  29.044  22.496   8.183
 2541POPC   C3B35421  29.219  22.641   7.774
 2541POPC   C4B35422  29.616  22.691   7.525
 2542POPC   NC335423  32.489  36.091   9.485
 2542POPC   PO435424  32.020  35.643   9.366
 2542POPC   GL135425  32.232  35.869   9.105
 2542POPC   GL235426  32.050  36.184   9.070
 2542POPC   C1A35427  32.451  35.977   8.788
 2542POPC   D2A35428  32.176  36.161   8.482
 2542POPC   C3A35429  32.119  36.037   8.074
 2542POPC   C4A35430  32.145  35.971   7.634
 2542POPC   C1B35431  32.320  36.475   8.840
 2542POPC   C2B35432  32.526  36.606   8.505
 2542POPC   C3B35433  32.421  36.456   8.125
 2542POPC   C4B35434  32.205  36.446   7.760
 2543POPC   NC335435   8.297   3.249   9.448
 2543POPC   PO435436   8.348   3.917   9.521
 2543POPC   GL135437   8.148   3.661   9.177
 2543POPC   GL235438   8.420   3.571   9.082
 2543POPC   C1A35439   8.019   3.573   8.720
 2543POPC   D2A35440   7.945   3.274   8.364
 2543POPC   C3A35441   8.039   3.441   7.946
 2543POPC   C4A35442   7.981   3.839   7.704
 2543POPC   C1B35443   8.480   3.786   8.736
 2543POPC   C2B35444   8.447   3.616   8.340
 2543POPC   C3B35445   8.447   3.738   7.936
 2543POPC   C4B35446   8.494   3.919   7.565
 2544POPC   NC335447  36.260  44.374   9.491
 2544POPC   PO435448  35.792  44.857   9.534
 2544POPC   GL135449  35.991  44.749   9.159
 2544POPC   GL235450  35.812  44.428   9.178
 2544POPC   C1A35451  36.175  44.857   8.715
 2544POPC   D2A35452  36.162  44.979   8.254
 2544POPC   C3A35453  36.242  44.627   7.944
 2544POPC   C4A35454  36.326  44.606   7.499
 2544POPC   C1B35455  35.753  44.543   8.755
 2544POPC   C2B35456  35.935  44.534   8.341
 2544POPC   C3B35457  35.756  44.491   7.922
 2544POPC   C4B35458  35.803  44.485   7.456
 2545POPC   NC335459  38.500  28.883   9.456
 2545POPC   PO435460  38.168  29.444   9.329
 2545POPC   GL135461  38.495  29.258   9.052
 2545POPC   GL235462  38.620  28.912   8.966
 2545POPC   C1A35463  38.597  29.276   8.614
 2545POPC   D2A35464  38.780  28.964   8.351
 2545POPC   C3A35465  38.512  28.946   7.991
 2545POPC   C4A35466  38.444  29.174   7.618
 2545POPC   C1B35467  38.304  28.692   8.747
 2545POPC   C2B35468  38.172  28.569   8.324
 2545POPC   C3B35469  38.049  28.714   7.919
 2545POPC   C4B35470  38.186  28.765   7.488
 2546POPC   NC335471  40.598  21.679   9.827
 2546POPC   PO435472  40.845  21.061   9.615
 2546POPC   GL135473  40.556  21.393   9.336
 2546POPC   GL235474  40.758  21.672   9.118
 2546POPC   C1A35475  40.393  21.458   8.876
 2546POPC   D2A35476  40.702  21.525   8.539
 2546POPC   C3A35477  40.601  21.464   8.123
 2546POPC   C4A35478  40.723  21.482   7.715
 2546POPC   C1B35479  41.088  21.754   8.776
 2546POPC   C2B35480  41.066  21.912   8.336
 2546POPC   C3B35481  41.096  21.786   7.865
 2546POPC   C4B35482  41.135  21.536   7.433
 2547POPC   NC335483  11.562  44.593   9.406
 2547POPC   PO435484  10.954  44.903   9.382
 2547POPC   GL135485  11.205   0.008   9.039
 2547POPC   GL235486  11.488  44.777   8.931
 2547POPC   C1A35487  11.062  44.968   8.617
 2547POPC   D2A35488  11.054  44.993   8.173
 2547POPC   C3A35489  11.406  44.887   7.882
 2547POPC   C4A35490  11.415  44.817   7.439
 2547POPC   C1B35491  11.139  44.454   8.862
 2547POPC   C2B35492  10.971  44.293   8.480
 2547POPC   C3B35493  11.053  44.466   8.069
 2547POPC   C4B35494  11.335  44.374   7.684
 2548POPC   NC335495  22.791  22.142   9.599
 2548POPC   PO435496  23.419  22.358   9.414
 2548POPC   GL135497  23.007  22.328   9.167
 2548POPC   GL235498  22.899  21.971   9.134
 2548POPC   C1A35499  22.693  22.273   8.797
 2548POPC   D2A35500  22.866  22.325   8.358
 2548POPC   C3A35501  22.754  22.106   7.977
 2548POPC   C4A35502  22.790  22.080   7.508
 2548POPC   C1B35503  23.117  21.988   8.724
 2548POPC   C2B35504  23.169  21.849   8.269
 2548POPC   C3B35505  23.233  22.061   7.854
 2548POPC   C4B35506  23.284  21.992   7.419
 2549POPC   NC335507   0.534  28.580   9.509
 2549POPC   PO435508   0.108  28.126   9.382
 2549POPC   GL135509   0.259  28.417   9.084
 2549POPC   GL235510   0.616  28.435   9.044
 2549POPC   C1A35511   0.073  28.666   8.777
 2549POPC   D2A35512   0.207  28.855   8.376
 2549POPC   C3A35513   0.351  28.521   8.128
 2549POPC   C4A35514   0.205  28.463   7.731
 2549POPC   C1B35515   0.505  28.406   8.622
 2549POPC   C2B35516   0.347  28.084   8.467
 2549POPC   C3B35517   0.393  28.006   8.082
 2549POPC   C4B35518   0.610  28.171   7.738
 2550POPC   NC335519  14.659  21.113   9.516
 2550POPC   PO435520  14.363  21.688   9.515
 2550POPC   GL135521  14.304  21.395   9.189
 2550POPC   GL235522  14.397  21.677   8.989
 2550POPC   C1A35523  14.273  21.219   8.749
 2550POPC   D2A35524  14.444  21.212   8.324
 2550POPC   C3A35525  14.302  20.986   7.973
 2550POPC   C4A35526  14.257  21.198   7.604
 2550POPC   C1B35527  14.121  21.738   8.647
 2550POPC   C2B35528  14.005  21.545   8.263
 2550POPC   C3B35529  14.185  21.624   7.837
 2550POPC   C4B35530  13.978  21.617   7.402
 2551POPC   NC335531  27.174  15.596   9.517
 2551POPC   PO435532  26.900  16.213   9.543
 2551POPC   GL135533  26.951  15.962   9.201
 2551POPC   GL235534  26.672  15.830   9.100
 2551POPC   C1A35535  27.008  16.032   8.757
 2551POPC   D2A35536  27.310  16.057   8.423
 2551POPC   C3A35537  27.086  16.119   8.042
 2551POPC   C4A35538  27.074  16.403   7.713
 2551POPC   C1B35539  26.474  15.861   8.704
 2551POPC   C2B35540  26.441  16.048   8.294
 2551POPC   C3B35541  26.546  15.941   7.840
 2551POPC   C4B35542  26.598  15.879   7.360
 2552POPC   NC335543  40.887  39.034   9.683
 2552POPC   PO435544  40.418  39.465   9.386
 2552POPC   GL135545  40.630  39.237   9.092
 2552POPC   GL235546  40.952  39.245   9.188
 2552POPC   C1A35547  40.541  39.197   8.673
 2552POPC   D2A35548  40.567  39.430   8.304
 2552POPC   C3A35549  40.775  39.140   8.005
 2552POPC   C4A35550  40.536  38.781   7.820
 2552POPC   C1B35551  40.977  39.446   8.773
 2552POPC   C2B35552  41.073  39.501   8.326
 2552POPC   C3B35553  41.081  39.694   7.938
 2552POPC   C4B35554  40.967  39.591   7.517
 2553POPC   NC335555  34.542  24.322   9.867
 2553POPC   PO435556  34.373  24.897   9.703
 2553POPC   GL135557  34.431  24.839   9.255
 2553POPC   GL235558  34.728  24.587   9.176
 2553POPC   C1A35559  34.436  24.881   8.798
 2553POPC   D2A35560  34.386  24.559   8.486
 2553POPC   C3A35561  34.401  24.584   8.049
 2553POPC   C4A35562  34.468  24.299   7.707
 2553POPC   C1B35563  34.892  24.584   8.738
 2553POPC   C2B35564  34.846  24.358   8.359
 2553POPC   C3B35565  34.902  24.437   7.959
 2553POPC   C4B35566  34.753  24.756   7.723
 2554POPC   NC335567   6.616  35.544   9.549
 2554POPC   PO435568   6.477  34.949   9.297
 2554POPC   GL135569   6.849  35.238   9.163
 2554POPC   GL235570   6.881  35.636   9.119
 2554POPC   C1A35571   6.841  35.300   8.721
 2554POPC   D2A35572   6.445  35.245   8.498
 2554POPC   C3A35573   6.503  35.343   8.073
 2554POPC   C4A35574   6.753  35.199   7.747
 2554POPC   C1B35575   6.480  35.650   8.870
 2554POPC   C2B35576   6.387  35.776   8.428
 2554POPC   C3B35577   6.380  35.845   7.971
 2554POPC   C4B35578   6.614  35.668   7.638
 2555POPC   NC335579  17.903  41.258   9.572
 2555POPC   PO435580  17.225  41.500   9.403
 2555POPC   GL135581  17.584  41.543   9.142
 2555POPC   GL235582  17.591  41.184   9.169
 2555POPC   C1A35583  17.459  41.616   8.707
 2555POPC   D2A35584  17.293  41.502   8.301
 2555POPC   C3A35585  17.475  41.583   7.885
 2555POPC   C4A35586  17.349  41.347   7.520
 2555POPC   C1B35587  17.757  41.136   8.769
 2555POPC   C2B35588  17.801  41.314   8.371
 2555POPC   C3B35589  17.690  41.125   7.983
 2555POPC   C4B35590  17.841  41.235   7.597
 2556POPC   NC335591   8.381  39.884   9.428
 2556POPC   PO435592   7.773  40.080   9.367
 2556POPC   GL135593   7.996  39.923   9.066
 2556POPC   GL235594   8.179  40.216   9.032
 2556POPC   C1A35595   7.937  39.947   8.640
 2556POPC   D2A35596   7.707  39.774   8.309
 2556POPC   C3A35597   8.009  39.836   8.052
 2556POPC   C4A35598   8.125  40.036   7.715
 2556POPC   C1B35599   8.433  39.911   8.781
 2556POPC   C2B35600   8.503  39.952   8.363
 2556POPC   C3B35601   8.289  40.274   8.151
 2556POPC   C4B35602   8.442  40.413   7.780
 2557POPC   NC335603  31.109  15.487   9.453
 2557POPC   PO435604  31.695  15.900   9.575
 2557POPC   GL135605  31.546  15.844   9.201
 2557POPC   GL235606  31.573  16.206   9.081
 2557POPC   C1A35607  31.734  15.833   8.797
 2557POPC   D2A35608  31.599  16.098   8.487
 2557POPC   C3A35609  31.618  15.891   8.112
 2557POPC   C4A35610  31.686  16.040   7.748
 2557POPC   C1B35611  31.222  16.012   8.839
 2557POPC   C2B35612  31.082  16.094   8.421
 2557POPC   C3B35613  31.227  16.201   8.045
 2557POPC   C4B35614  31.199  15.931   7.715
 2558POPC   NC335615  22.396  20.691   9.536
 2558POPC   PO435616  21.765  21.057   9.473
 2558POPC   GL135617  22.039  20.776   9.154
 2558POPC   GL235618  22.334  20.496   9.088
 2558POPC   C1A35619  22.258  20.856   8.751
 2558POPC   D2A35620  22.233  20.712   8.348
 2558POPC   C3A35621  21.869  20.670   8.123
 2558POPC   C4A35622  22.152  20.731   7.787
 2558POPC   C1B35623  22.107  20.376   8.727
 2558POPC   C2B35624  22.034  20.208   8.310
 2558POPC   C3B35625  22.334  20.103   8.003
 2558POPC   C4B35626  22.420  20.278   7.591
 2559POPC   NC335627   1.400  40.433   9.514
 2559POPC   PO435628   1.367  41.147   9.614
 2559POPC   GL135629   1.353  40.944   9.171
 2559POPC   GL235630   1.161  40.605   9.102
 2559POPC   C1A35631   1.451  40.798   8.726
 2559POPC   D2A35632   1.239  40.609   8.350
 2559POPC   C3A35633   1.040  40.906   8.069
 2559POPC   C4A35634   0.996  40.923   7.621
 2559POPC   C1B35635   0.904  40.502   8.723
 2559POPC   C2B35636   0.789  40.315   8.308
 2559POPC   C3B35637   0.954  40.422   7.891
 2559POPC   C4B35638   1.279  40.486   7.558
 2560POPC   NC335639  14.631  29.924   9.463
 2560POPC   PO435640  14.174  30.512   9.353
 2560POPC   GL135641  14.229  30.080   9.147
 2560POPC   GL235642  14.541  29.918   8.984
 2560POPC   C1A35643  14.057  29.928   8.788
 2560POPC   D2A35644  14.285  29.958   8.415
 2560POPC   C3A35645  14.126  29.958   8.019
 2560POPC   C4A35646  14.380  30.248   7.775
 2560POPC   C1B35647  14.536  29.613   8.685
 2560POPC   C2B35648  14.461  29.474   8.259
 2560POPC   C3B35649  14.509  29.674   7.818
 2560POPC   C4B35650  14.676  29.627   7.352
 2561POPC   NC335651  44.125  42.742   9.457
 2561POPC   PO435652  43.928  43.326   9.476
 2561POPC   GL135653  43.801  43.070   9.171
 2561POPC   GL235654  43.619  43.333   9.070
 2561POPC   C1A35655  43.975  42.925   8.791
 2561POPC   D2A35656  44.166  43.140   8.459
 2561POPC   C3A35657  44.078  42.947   8.091
 2561POPC   C4A35658  44.096  43.096   7.665
 2561POPC   C1B35659  43.784  43.418   8.721
 2561POPC   C2B35660  43.643  43.209   8.384
 2561POPC   C3B35661  43.717  43.302   7.984
 2561POPC   C4B35662  43.523  43.252   7.612
 2562POPC   NC335663   6.544  32.833   9.648
 2562POPC   PO435664   6.832  33.305   9.485
 2562POPC   GL135665   6.603  33.151   9.140
 2562POPC   GL235666   6.536  32.806   9.130
 2562POPC   C1A35667   6.580  33.215   8.724
 2562POPC   D2A35668   6.722  33.053   8.336
 2562POPC   C3A35669   6.610  33.211   7.930
 2562POPC   C4A35670   6.331  33.452   7.693
 2562POPC   C1B35671   6.709  32.636   8.736
 2562POPC   C2B35672   6.849  32.567   8.310
 2562POPC   C3B35673   6.641  32.691   7.925
 2562POPC   C4B35674   6.194  32.721   7.830
 2563POPC   NC335675   7.849   5.669   9.524
 2563POPC   PO435676   8.487   5.499   9.532
 2563POPC   GL135677   8.235   5.620   9.178
 2563POPC   GL235678   7.927   5.425   9.086
 2563POPC   C1A35679   8.126   5.810   8.782
 2563POPC   D2A35680   7.822   5.689   8.500
 2563POPC   C3A35681   7.969   5.714   8.105
 2563POPC   C4A35682   8.045   5.714   7.681
 2563POPC   C1B35683   8.255   5.319   8.777
 2563POPC   C2B35684   8.381   5.539   8.406
 2563POPC   C3B35685   8.430   5.509   7.961
 2563POPC   C4B35686   8.552   5.684   7.544
 2564POPC   NC335687   2.691  12.482   9.550
 2564POPC   PO435688   2.798  13.140   9.597
 2564POPC   GL135689   2.672  13.034   9.149
 2564POPC   GL235690   2.800  12.689   9.089
 2564POPC   C1A35691   2.799  13.061   8.722
 2564POPC   D2A35692   3.055  12.745   8.508
 2564POPC   C3A35693   3.033  12.772   8.069
 2564POPC   C4A35694   2.827  13.019   7.784
 2564POPC   C1B35695   2.531  12.623   8.728
 2564POPC   C2B35696   2.562  12.813   8.316
 2564POPC   C3B35697   2.454  12.689   7.909
 2564POPC   C4B35698   2.682  12.634   7.495
 2565POPC   NC335699   7.054  32.098   9.517
 2565POPC   PO435700   6.496  32.382   9.673
 2565POPC   GL135701   6.631  32.309   9.253
 2565POPC   GL235702   6.960  32.448   9.150
 2565POPC   C1A35703   6.366  32.277   8.898
 2565POPC   D2A35704   6.246  32.470   8.519
 2565POPC   C3A35705   6.432  32.246   8.200
 2565POPC   C4A35706   6.366  32.203   7.771
 2565POPC   C1B35707   7.069  32.179   8.795
 2565POPC   C2B35708   6.914  32.063   8.359
 2565POPC   C3B35709   6.851  32.232   7.916
 2565POPC   C4B35710   6.752  32.414   7.486
 2566POPC   NC335711  24.478  44.301   9.399
 2566POPC   PO435712  24.743  44.873   9.574
 2566POPC   GL135713  24.582  44.999   9.142
 2566POPC   GL235714  24.444  44.691   9.081
 2566POPC   C1A35715  24.516  44.988   8.666
 2566POPC   D2A35716  24.372  44.785   8.255
 2566POPC   C3A35717  24.413   0.010   7.861
 2566POPC   C4A35718  24.569  44.908   7.446
 2566POPC   C1B35719  24.648  44.494   8.703
 2566POPC   C2B35720  24.852  44.562   8.302
 2566POPC   C3B35721  24.839  44.519   7.871
 2566POPC   C4B35722  24.448  44.504   7.773
 2567POPC   NC335723  18.580  20.463   9.425
 2567POPC   PO435724  17.935  20.716   9.454
 2567POPC   GL135725  18.190  20.593   9.094
 2567POPC   GL235726  18.385  20.303   8.978
 2567POPC   C1A35727  18.408  20.744   8.736
 2567POPC   D2A35728  18.602  20.770   8.356
 2567POPC   C3A35729  18.615  20.502   8.003
 2567POPC   C4A35730  18.585  20.819   7.671
 2567POPC   C1B35731  18.209  20.278   8.574
 2567POPC   C2B35732  18.069  20.624   8.364
 2567POPC   C3B35733  18.191  20.774   7.992
 2567POPC   C4B35734  18.234  20.404   7.669
 2568POPC   NC335735  42.577  27.888   9.517
 2568POPC   PO435736  41.920  27.541   9.561
 2568POPC   GL135737  42.182  27.631   9.232
 2568POPC   GL235738  42.484  27.407   9.208
 2568POPC   C1A35739  42.095  27.465   8.832
 2568POPC   D2A35740  42.206  27.557   8.422
 2568POPC   C3A35741  41.989  27.662   8.052
 2568POPC   C4A35742  42.230  27.706   7.664
 2568POPC   C1B35743  42.610  27.724   8.882
 2568POPC   C2B35744  42.556  27.920   8.487
 2568POPC   C3B35745  42.560  27.776   8.086
 2568POPC   C4B35746  42.647  27.981   7.713
 2569POPC   NC335747  25.274  32.609   9.505
 2569POPC   PO435748  24.954  33.162   9.657
 2569POPC   GL135749  25.141  33.044   9.247
 2569POPC   GL235750  25.182  33.384   9.142
 2569POPC   C1A35751  25.178  32.776   8.862
 2569POPC   D2A35752  25.133  32.915   8.421
 2569POPC   C3A35753  25.219  32.725   8.021
 2569POPC   C4A35754  25.162  32.890   7.630
 2569POPC   C1B35755  25.307  33.296   8.743
 2569POPC   C2B35756  25.414  33.389   8.354
 2569POPC   C3B35757  25.345  33.220   7.970
 2569POPC   C4B35758  25.109  33.394   7.599
 2570POPC   NC335759  20.452  38.175   9.665
 2570POPC   PO435760  20.842  37.742   9.231
 2570POPC   GL135761  20.518  37.855   9.001
 2570POPC   GL235762  20.314  37.571   9.085
 2570POPC   C1A35763  20.589  37.842   8.571
 2570POPC   D2A35764  20.706  37.922   8.162
 2570POPC   C3A35765  20.901  37.557   7.956
 2570POPC   C4A35766  20.883  37.254   7.636
 2570POPC   C1B35767  20.121  37.686   8.667
 2570POPC   C2B35768  20.266  37.620   8.215
 2570POPC   C3B35769  20.423  37.650   7.766
 2570POPC   C4B35770  20.238  37.758   7.323
 2571POPC   NC335771  32.534  43.054   9.740
 2571POPC   PO435772  31.947  43.247   9.636
 2571POPC   GL135773  32.079  43.036   9.181
 2571POPC   GL235774  32.474  42.972   9.229
 2571POPC   C1A35775  31.961  43.115   8.679
 2571POPC   D2A35776  31.767  43.295   8.284
 2571POPC   C3A35777  31.865  43.143   7.858
 2571POPC   C4A35778  31.992  43.344   7.435
 2571POPC   C1B35779  32.440  42.986   8.829
 2571POPC   C2B35780  32.391  43.350   8.553
 2571POPC   C3B35781  32.284  43.234   8.141
 2571POPC   C4B35782  32.420  43.339   7.724
 2572POPC   NC335783  36.182  34.424   9.623
 2572POPC   PO435784  36.403  34.988   9.446
 2572POPC   GL135785  36.174  34.726   9.173
 2572POPC   GL235786  36.371  34.397   9.113
 2572POPC   C1A35787  36.249  34.794   8.743
 2572POPC   D2A35788  36.103  34.754   8.330
 2572POPC   C3A35789  36.310  34.485   8.039
 2572POPC   C4A35790  36.294  34.411   7.554
 2572POPC   C1B35791  36.141  34.301   8.705
 2572POPC   C2B35792  35.897  34.275   8.307
 2572POPC   C3B35793  35.896  34.282   7.853
 2572POPC   C4B35794  35.862  34.124   7.436
 2573POPC   NC335795   6.232  38.757   9.526
 2573POPC   PO435796   6.949  38.585   9.528
 2573POPC   GL135797   6.642  38.577   9.189
 2573POPC   GL235798   6.488  38.897   9.120
 2573POPC   C1A35799   6.762  38.373   8.797
 2573POPC   D2A35800   6.646  38.075   8.448
 2573POPC   C3A35801   6.847  38.128   8.031
 2573POPC   C4A35802   6.742  38.388   7.681
 2573POPC   C1B35803   6.340  38.866   8.731
 2573POPC   C2B35804   6.443  38.557   8.454
 2573POPC   C3B35805   6.408  38.491   8.062
 2573POPC   C4B35806   6.132  38.764   7.839
 2574POPC   NC335807   2.192  14.306   9.784
 2574POPC   PO435808   1.819  14.809   9.489
 2574POPC   GL135809   1.976  14.557   9.144
 2574POPC   GL235810   2.214  14.279   9.252
 2574POPC   C1A35811   1.788  14.458   8.763
 2574POPC   D2A35812   2.010  14.417   8.386
 2574POPC   C3A35813   1.811  14.491   7.997
 2574POPC   C4A35814   1.834  14.561   7.571
 2574POPC   C1B35815   2.280  13.964   8.913
 2574POPC   C2B35816   2.326  13.978   8.445
 2574POPC   C3B35817   2.358  14.186   8.034
 2574POPC   C4B35818   2.457  13.960   7.627
 2575POPC   NC335819  16.128   8.329   9.560
 2575POPC   PO435820  15.628   7.924   9.483
 2575POPC   GL135821  15.851   8.152   9.168
 2575POPC   GL235822  16.183   8.066   9.139
 2575POPC   C1A35823  15.766   8.359   8.792
 2575POPC   D2A35824  15.725   8.219   8.399
 2575POPC   C3A35825  15.646   8.433   8.036
 2575POPC   C4A35826  15.781   8.219   7.684
 2575POPC   C1B35827  16.279   8.287   8.834
 2575POPC   C2B35828  16.223   8.063   8.450
 2575POPC   C3B35829  16.127   8.236   8.066
 2575POPC   C4B35830  16.292   8.170   7.676
 2576POPC   NC335831  24.832  32.252   9.837
 2576POPC   PO435832  25.403  32.211   9.710
 2576POPC   GL135833  25.242  32.233   9.192
 2576POPC   GL235834  25.349  31.982   8.985
 2576POPC   C1A35835  25.003  32.280   8.769
 2576POPC   D2A35836  24.996  32.057   8.375
 2576POPC   C3A35837  24.829  32.221   7.989
 2576POPC   C4A35838  25.061  32.391   7.634
 2576POPC   C1B35839  25.527  32.333   8.770
 2576POPC   C2B35840  25.418  32.446   8.396
 2576POPC   C3B35841  25.343  32.238   8.029
 2576POPC   C4B35842  25.549  32.314   7.652
 2577POPC   NC335843  41.533  44.246   9.328
 2577POPC   PO435844  41.722  43.570   9.496
 2577POPC   GL135845  41.587  43.767   9.139
 2577POPC   GL235846  41.377  43.534   9.071
 2577POPC   C1A35847  41.609  43.976   8.733
 2577POPC   D2A35848  41.713  44.256   8.406
 2577POPC   C3A35849  41.580  44.087   8.028
 2577POPC   C4A35850  41.575  44.289   7.649
 2577POPC   C1B35851  41.296  43.546   8.680
 2577POPC   C2B35852  41.362  43.661   8.294
 2577POPC   C3B35853  41.128  43.840   7.964
 2577POPC   C4B35854  41.293  43.873   7.555
 2578POPC   NC335855  41.302  18.314   9.483
 2578POPC   PO435856  40.555  18.176   9.496
 2578POPC   GL135857  40.844  18.260   9.130
 2578POPC   GL235858  40.743  18.562   9.072
 2578POPC   C1A35859  40.698  18.304   8.645
 2578POPC   D2A35860  40.586  18.027   8.287
 2578POPC   C3A35861  40.734  18.054   7.866
 2578POPC   C4A35862  40.950  18.238   7.508
 2578POPC   C1B35863  41.081  18.632   8.727
 2578POPC   C2B35864  40.978  18.798   8.308
 2578POPC   C3B35865  40.757  18.525   8.016
 2578POPC   C4B35866  40.533  18.516   7.597
 2579POPC   NC335867  27.860  30.648   9.608
 2579POPC   PO435868  28.566  30.953   9.633
 2579POPC   GL135869  28.370  30.866   9.244
 2579POPC   GL235870  28.244  30.533   9.274
 2579POPC   C1A35871  28.463  30.908   8.797
 2579POPC   D2A35872  28.511  30.722   8.379
 2579POPC   C3A35873  28.455  31.023   8.002
 2579POPC   C4A35874  28.164  31.053   7.674
 2579POPC   C1B35875  28.031  30.608   8.881
 2579POPC   C2B35876  27.990  30.683   8.440
 2579POPC   C3B35877  28.166  30.550   8.050
 2579POPC   C4B35878  28.155  30.246   7.730
 2580POPC   NC335879  14.074  14.890   9.365
 2580POPC   PO435880  14.368  15.527   9.488
 2580POPC   GL135881  14.204  15.319   9.120
 2580POPC   GL235882  14.467  15.093   9.074
 2580POPC   C1A35883  14.123  15.089   8.706
 2580POPC   D2A35884  14.313  14.957   8.304
 2580POPC   C3A35885  14.240  15.094   7.893
 2580POPC   C4A35886  14.579  15.263   7.647
 2580POPC   C1B35887  14.607  14.812   8.740
 2580POPC   C2B35888  14.662  14.598   8.319
 2580POPC   C3B35889  14.693  14.820   7.924
 2580POPC   C4B35890  14.536  14.761   7.494
 2581POPC   NC335891  38.809  27.303   9.411
 2581POPC   PO435892  38.256  27.749   9.522
 2581POPC   GL135893  38.492  27.622   9.160
 2581POPC   GL235894  38.858  27.757   9.164
 2581POPC   C1A35895  38.386  27.314   8.843
 2581POPC   D2A35896  38.378  27.491   8.452
 2581POPC   C3A35897  38.412  27.292   8.073
 2581POPC   C4A35898  38.483  27.475   7.687
 2581POPC   C1B35899  38.840  27.560   8.738
 2581POPC   C2B35900  38.787  27.732   8.297
 2581POPC   C3B35901  38.962  27.622   7.905
 2581POPC   C4B35902  38.943  27.262   7.660
 2582POPC   NC335903  35.672  16.365   9.481
 2582POPC   PO435904  35.367  15.792   9.482
 2582POPC   GL135905  35.683  15.736   9.244
 2582POPC   GL235906  35.544  16.059   9.057
 2582POPC   C1A35907  35.577  15.554   8.871
 2582POPC   D2A35908  35.298  15.751   8.581
 2582POPC   C3A35909  35.421  15.791   8.157
 2582POPC   C4A35910  35.409  15.726   7.719
 2582POPC   C1B35911  35.120  16.139   8.840
 2582POPC   C2B35912  35.086  16.163   8.381
 2582POPC   C3B35913  35.103  16.149   7.922
 2582POPC   C4B35914  35.204  16.145   7.459
 2583POPC   NC335915   3.242  28.120   9.237
 2583POPC   PO435916   3.639  28.577   9.452
 2583POPC   GL135917   3.682  28.351   9.098
 2583POPC   GL235918   3.368  28.500   8.950
 2583POPC   C1A35919   3.736  28.329   8.657
 2583POPC   D2A35920   3.771  28.669   8.383
 2583POPC   C3A35921   3.437  28.582   8.112
 2583POPC   C4A35922   3.427  28.475   7.731
 2583POPC   C1B35923   3.201  28.416   8.551
 2583POPC   C2B35924   3.137  28.150   8.204
 2583POPC   C3B35925   3.170  28.057   7.780
 2583POPC   C4B35926   3.300  28.173   7.358
 2584POPC   NC335927  18.279  11.137   9.453
 2584POPC   PO435928  18.785  11.521   9.345
 2584POPC   GL135929  18.519  11.324   9.030
 2584POPC   GL235930  18.518  11.004   9.035
 2584POPC   C1A35931  18.341  11.271   8.607
 2584POPC   D2A35932  18.312  11.601   8.291
 2584POPC   C3A35933  18.331  11.458   7.887
 2584POPC   C4A35934  18.625  11.120   7.745
 2584POPC   C1B35935  18.289  10.753   8.784
 2584POPC   C2B35936  18.046  10.858   8.463
 2584POPC   C3B35937  18.271  11.008   8.128
 2584POPC   C4B35938  18.052  11.072   7.736
 2585POPC   NC335939   1.556  43.677   9.411
 2585POPC   PO435940   1.025  44.198   9.455
 2585POPC   GL135941   1.111  44.214   9.084
 2585POPC   GL235942   1.469  44.254   9.119
 2585POPC   C1A35943   0.944  44.072   8.719
 2585POPC   D2A35944   1.097  43.835   8.397
 2585POPC   C3A35945   0.997  43.945   7.969
 2585POPC   C4A35946   1.134  44.322   7.734
 2585POPC   C1B35947   1.483  43.963   8.754
 2585POPC   C2B35948   1.621  43.889   8.301
 2585POPC   C3B35949   1.481  43.718   7.864
 2585POPC   C4B35950   1.540  43.699   7.397
 2586POPC   NC335951  19.474  36.766   9.441
 2586POPC   PO435952  18.818  36.648   9.555
 2586POPC   GL135953  18.785  36.765   9.145
 2586POPC   GL235954  18.937  37.044   9.139
 2586POPC   C1A35955  18.884  36.726   8.734
 2586POPC   D2A35956  19.187  36.888   8.498
 2586POPC   C3A35957  19.006  36.937   8.127
 2586POPC   C4A35958  18.849  36.648   7.808
 2586POPC   C1B35959  18.981  37.282   8.718
 2586POPC   C2B35960  19.193  37.420   8.333
 2586POPC   C3B35961  19.280  37.326   7.907
 2586POPC   C4B35962  18.887  37.183   7.704
 2587POPC   NC335963  10.059  29.968   9.250
 2587POPC   PO435964  10.496  29.597   9.673
 2587POPC   GL135965  10.584  29.711   9.230
 2587POPC   GL235966  10.353  29.618   8.995
 2587POPC   C1A35967  10.633  30.001   8.831
 2587POPC   D2A35968  10.608  29.895   8.424
 2587POPC   C3A35969  10.896  29.989   8.064
 2587POPC   C4A35970  10.829  30.212   7.690
 2587POPC   C1B35971  10.128  29.842   8.641
 2587POPC   C2B35972  10.094  29.930   8.246
 2587POPC   C3B35973  10.407  29.967   7.962
 2587POPC   C4B35974  10.433  29.649   7.683
 2588POPC   NC335975  36.948  17.387   9.548
 2588POPC   PO435976  37.156  17.932   9.443
 2588POPC   GL135977  36.908  17.617   9.105
 2588POPC   GL235978  36.863  17.256   9.072
 2588POPC   C1A35979  36.899  17.620   8.660
 2588POPC   D2A35980  37.167  17.753   8.317
 2588POPC   C3A35981  37.006  17.812   7.899
 2588POPC   C4A35982  36.829  17.588   7.564
 2588POPC   C1B35983  36.511  17.277   8.807
 2588POPC   C2B35984  36.513  17.426   8.386
 2588POPC   C3B35985  36.856  17.357   8.136
 2588POPC   C4B35986  36.891  17.092   7.780
 2589POPC   NC335987  29.501  26.694   9.538
 2589POPC   PO435988  30.064  26.391   9.689
 2589POPC   GL135989  30.055  26.528   9.235
 2589POPC   GL235990  29.883  26.832   9.185
 2589POPC   C1A35991  30.163  26.606   8.786
 2589POPC   D2A35992  30.199  26.901   8.427
 2589POPC   C3A35993  29.916  26.865   8.111
 2589POPC   C4A35994  30.042  26.715   7.697
 2589POPC   C1B35995  29.902  27.060   8.790
 2589POPC   C2B35996  29.644  27.237   8.479
 2589POPC   C3B35997  29.638  27.320   8.049
 2589POPC   C4B35998  29.778  27.133   7.676
 2590POPC   NC335999  37.721  23.597   9.684
 2590POPC   PO436000  37.228  23.783   9.499
 2590POPC   GL136001  37.524  23.694   9.173
 2590POPC   GL236002  37.812  23.503   9.204
 2590POPC   C1A36003  37.454  23.476   8.788
 2590POPC   D2A36004  37.467  23.539   8.342
 2590POPC   C3A36005  37.664  23.858   8.120
 2590POPC   C4A36006  37.684  23.770   7.712
 2590POPC   C1B36007  37.934  23.317   8.836
 2590POPC   C2B36008  38.007  23.438   8.405
 2590POPC   C3B36009  37.919  23.380   7.982
 2590POPC   C4B36010  38.168  23.500   7.629
 2591POPC   NC336011  33.087   3.782   9.455
 2591POPC   PO436012  32.919   3.094   9.520
 2591POPC   GL136013  32.858   3.370   9.201
 2591POPC   GL236014  32.620   3.118   9.089
 2591POPC   C1A36015  32.843   3.674   8.833
 2591POPC   D2A36016  33.108   3.832   8.493
 2591POPC   C3A36017  33.267   3.537   8.140
 2591POPC   C4A36018  33.164   3.566   7.709
 2591POPC   C1B36019  32.919   3.165   8.731
 2591POPC   C2B36020  32.839   3.411   8.373
 2591POPC   C3B36021  32.719   3.506   7.957
 2591POPC   C4B36022  32.490   3.378   7.580
 2592POPC   NC336023  42.298  26.428   9.364
 2592POPC   PO436024  42.222  25.824   9.574
 2592POPC   GL136025  42.217  25.971   9.158
 2592POPC   GL236026  42.538  26.060   9.094
 2592POPC   C1A36027  42.053  26.135   8.774
 2592POPC   D2A36028  41.851  26.213   8.376
 2592POPC   C3A36029  42.180  26.191   8.065
 2592POPC   C4A36030  42.410  25.928   7.729
 2592POPC   C1B36031  42.551  26.087   8.651
 2592POPC   C2B36032  42.648  26.013   8.217
 2592POPC   C3B36033  42.646  26.325   7.893
 2592POPC   C4B36034  42.782  26.652   7.750
 2593POPC   NC336035   9.354  42.015   9.233
 2593POPC   PO436036   8.825  42.407   9.565
 2593POPC   GL136037   8.896  42.297   9.183
 2593POPC   GL236038   8.835  41.961   9.254
 2593POPC   C1A36039   8.999  42.414   8.763
 2593POPC   D2A36040   8.845  42.404   8.351
 2593POPC   C3A36041   9.180  42.319   8.079
 2593POPC   C4A36042   9.118  42.620   7.817
 2593POPC   C1B36043   8.656  41.989   8.855
 2593POPC   C2B36044   8.595  41.968   8.403
 2593POPC   C3B36045   8.741  42.044   7.968
 2593POPC   C4B36046   8.542  42.096   7.531
 2594POPC   NC336047  36.681  14.213   9.654
 2594POPC   PO436048  37.014  14.650   9.389
 2594POPC   GL136049  36.796  14.473   9.048
 2594POPC   GL236050  36.895  14.144   9.088
 2594POPC   C1A36051  36.739  14.296   8.602
 2594POPC   D2A36052  36.681  13.959   8.290
 2594POPC   C3A36053  36.661  14.115   7.875
 2594POPC   C4A36054  36.628  14.534   7.762
 2594POPC   C1B36055  37.227  14.323   8.773
 2594POPC   C2B36056  37.334  14.352   8.399
 2594POPC   C3B36057  37.049  14.362   8.097
 2594POPC   C4B36058  37.102  14.348   7.675
 2595POPC   NC336059   1.318   5.663   9.566
 2595POPC   PO436060   1.706   6.180   9.418
 2595POPC   GL136061   1.368   5.991   9.148
 2595POPC   GL236062   1.047   5.982   9.238
 2595POPC   C1A36063   1.258   5.586   8.913
 2595POPC   D2A36064   1.205   5.394   8.495
 2595POPC   C3A36065   1.362   5.678   8.187
 2595POPC   C4A36066   1.391   5.627   7.759
 2595POPC   C1B36067   1.041   6.025   8.764
 2595POPC   C2B36068   1.249   6.154   8.383
 2595POPC   C3B36069   1.181   6.110   7.932
 2595POPC   C4B36070   0.853   5.892   7.782
 2596POPC   NC336071  18.263  33.157   9.480
 2596POPC   PO436072  18.881  32.948   9.694
 2596POPC   GL136073  18.633  32.943   9.236
 2596POPC   GL236074  18.330  32.701   9.176
 2596POPC   C1A36075  18.555  33.023   8.801
 2596POPC   D2A36076  18.660  33.168   8.368
 2596POPC   C3A36077  18.541  32.956   8.008
 2596POPC   C4A36078  18.366  33.106   7.647
 2596POPC   C1B36079  18.012  32.847   8.844
 2596POPC   C2B36080  17.929  33.071   8.450
 2596POPC   C3B36081  18.025  33.188   8.019
 2596POPC   C4B36082  17.858  33.252   7.597
 2597POPC   NC336083  41.558  34.880   9.518
 2597POPC   PO436084  41.860  34.230   9.417
 2597POPC   GL136085  41.691  34.549   9.147
 2597POPC   GL236086  41.517  34.872   9.023
 2597POPC   C1A36087  41.817  34.566   8.745
 2597POPC   D2A36088  41.794  34.419   8.371
 2597POPC   C3A36089  41.592  34.706   8.157
 2597POPC   C4A36090  41.580  34.525   7.791
 2597POPC   C1B36091  41.688  35.079   8.658
 2597POPC   C2B36092  41.731  35.209   8.213
 2597POPC   C3B36093  41.843  34.996   7.808
 2597POPC   C4B36094  41.597  34.903   7.442
 2598POPC   NC336095  15.638  41.803   9.429
 2598POPC   PO436096  16.117  41.391   9.714
 2598POPC   GL136097  16.104  41.434   9.260
 2598POPC   GL236098  16.032  41.729   9.100
 2598POPC   C1A36099  16.216  41.324   8.821
 2598POPC   D2A36100  16.356  41.371   8.384
 2598POPC   C3A36101  16.004  41.399   8.112
 2598POPC   C4A36102  15.949  41.489   7.680
 2598POPC   C1B36103  15.725  41.881   8.801
 2598POPC   C2B36104  15.827  41.774   8.421
 2598POPC   C3B36105  15.836  41.877   8.020
 2598POPC   C4B36106  15.762  41.969   7.615
 2599POPC   NC336107  34.321   3.069   9.546
 2599POPC   PO436108  34.972   2.948   9.569
 2599POPC   GL136109  34.779   2.654   9.260
 2599POPC   GL236110  34.448   2.698   9.229
 2599POPC   C1A36111  34.873   2.635   8.811
 2599POPC   D2A36112  34.752   2.798   8.397
 2599POPC   C3A36113  34.639   2.504   8.083
 2599POPC   C4A36114  34.504   2.731   7.732
 2599POPC   C1B36115  34.410   2.853   8.793
 2599POPC   C2B36116  34.253   2.578   8.449
 2599POPC   C3B36117  34.113   2.550   8.028
 2599POPC   C4B36118  33.999   2.670   7.611
 2600POPC   NC336119  44.385  27.493   9.521
 2600POPC   PO436120  44.971  27.218   9.341
 2600POPC   GL136121  44.578  27.330   9.083
 2600POPC   GL236122  44.615  27.709   9.118
 2600POPC   C1A36123  44.374  27.357   8.641
 2600POPC   D2A36124  44.680  27.362   8.284
 2600POPC   C3A36125  44.563  27.444   7.848
 2600POPC   C4A36126  44.299  27.331   7.511
 2600POPC   C1B36127  44.790  27.637   8.729
 2600POPC   C2B36128  44.978  27.770   8.374
 2600POPC   C3B36129  44.985  27.700   7.973
 2600POPC   C4B36130   0.135  27.969   7.660
 2601POPC   NC336131   3.478  26.518   9.525
 2601POPC   PO436132   3.117  27.039   9.457
 2601POPC   GL136133   3.459  26.896   9.172
 2601POPC   GL236134   3.774  26.681   9.161
 2601POPC   C1A36135   3.565  26.954   8.761
 2601POPC   D2A36136   3.716  26.960   8.360
 2601POPC   C3A36137   3.463  26.784   8.035
 2601POPC   C4A36138   3.339  26.816   7.606
 2601POPC   C1B36139   3.916  26.607   8.746
 2601POPC   C2B36140   3.860  26.474   8.350
 2601POPC   C3B36141   3.980  26.677   7.986
 2601POPC   C4B36142   3.870  26.846   7.572
 2602POPC   NC336143  43.725  24.561   9.548
 2602POPC   PO436144  44.262  24.285   9.364
 2602POPC   GL136145  44.042  24.542   9.059
 2602POPC   GL236146  43.717  24.749   9.076
 2602POPC   C1A36147  44.170  24.496   8.654
 2602POPC   D2A36148  43.977  24.637   8.283
 2602POPC   C3A36149  44.211  24.681   7.927
 2602POPC   C4A36150  44.144  24.519   7.549
 2602POPC   C1B36151  43.662  24.507   8.706
 2602POPC   C2B36152  43.491  24.411   8.311
 2602POPC   C3B36153  43.612  24.564   7.915
 2602POPC   C4B36154  43.695  24.328   7.551
 2603POPC   NC336155  17.057   6.860   9.287
 2603POPC   PO436156  16.693   6.395   9.646
 2603POPC   GL136157  16.538   6.525   9.171
 2603POPC   GL236158  16.590   6.265   8.916
 2603POPC   C1A36159  16.648   6.732   8.742
 2603POPC   D2A36160  16.513   6.518   8.356
 2603POPC   C3A36161  16.819   6.588   8.041
 2603POPC   C4A36162  16.879   6.972   7.772
 2603POPC   C1B36163  16.967   6.371   8.585
 2603POPC   C2B36164  17.210   6.224   8.242
 2603POPC   C3B36165  17.306   6.320   7.820
 2603POPC   C4B36166  17.002   6.487   7.576
 2604POPC   NC336167  10.962  31.166   9.416
 2604POPC   PO436168  11.397  31.599   9.597
 2604POPC   GL136169  11.337  31.498   9.195
 2604POPC   GL236170  11.030  31.679   9.164
 2604POPC   C1A36171  11.189  31.339   8.804
 2604POPC   D2A36172  11.265  31.519   8.413
 2604POPC   C3A36173  11.292  31.266   8.056
 2604POPC   C4A36174  11.324  31.363   7.643
 2604POPC   C1B36175  10.783  31.686   8.771
 2604POPC   C2B36176  10.807  31.763   8.323
 2604POPC   C3B36177  11.091  31.744   7.957
 2604POPC   C4B36178  10.934  31.671   7.557
 2605POPC   NC336179  36.122  15.585   9.612
 2605POPC   PO436180  36.125  16.231   9.534
 2605POPC   GL136181  36.049  16.104   9.156
 2605POPC   GL236182  36.291  16.253   9.022
 2605POPC   C1A36183  36.064  15.754   8.865
 2605POPC   D2A36184  35.835  15.653   8.447
 2605POPC   C3A36185  35.920  15.839   8.039
 2605POPC   C4A36186  35.911  15.721   7.625
 2605POPC   C1B36187  36.133  16.180   8.602
 2605POPC   C2B36188  36.353  15.961   8.278
 2605POPC   C3B36189  36.613  15.719   8.033
 2605POPC   C4B36190  36.401  15.610   7.686
 2606POPC   NC336191  21.914  40.200   9.585
 2606POPC   PO436192  22.018  39.540   9.478
 2606POPC   GL136193  21.977  39.885   9.164
 2606POPC   GL236194  22.198  40.194   9.033
 2606POPC   C1A36195  21.873  39.924   8.741
 2606POPC   D2A36196  21.953  40.247   8.422
 2606POPC   C3A36197  22.008  40.070   7.985
 2606POPC   C4A36198  21.949  39.699   7.718
 2606POPC   C1B36199  22.409  40.424   8.632
 2606POPC   C2B36200  22.489  40.475   8.163
 2606POPC   C3B36201  22.405  40.299   7.732
 2606POPC   C4B36202  22.373  40.490   7.286
 2607POPC   NC336203  11.616   1.973   9.445
 2607POPC   PO436204  11.105   1.605   9.762
 2607POPC   GL136205  11.132   1.921   9.361
 2607POPC   GL236206  10.874   1.977   9.144
 2607POPC   C1A36207  11.294   2.038   8.895
 2607POPC   D2A36208  11.521   2.057   8.499
 2607POPC   C3A36209  11.301   2.069   8.118
 2607POPC   C4A36210  11.422   1.858   7.755
 2607POPC   C1B36211  10.879   1.777   8.677
 2607POPC   C2B36212  10.908   1.720   8.208
 2607POPC   C3B36213  10.925   1.901   7.778
 2607POPC   C4B36214  11.086   1.652   7.415
 2608POPC   NC336215  38.036   4.585   9.403
 2608POPC   PO436216  38.604   4.904   9.640
 2608POPC   GL136217  38.579   5.101   9.189
 2608POPC   GL236218  38.318   5.368   9.204
 2608POPC   C1A36219  38.541   4.981   8.747
 2608POPC   D2A36220  38.337   5.026   8.347
 2608POPC   C3A36221  38.627   5.078   8.052
 2608POPC   C4A36222  38.775   4.946   7.685
 2608POPC   C1B36223  38.174   5.347   8.763
 2608POPC   C2B36224  38.175   5.579   8.370
 2608POPC   C3B36225  38.236   5.421   7.955
 2608POPC   C4B36226  38.228   4.987   7.775
 2609POPC   NC336227  30.378   3.712   9.912
 2609POPC   PO436228  29.968   3.238   9.537
 2609POPC   GL136229  29.786   3.489   9.155
 2609POPC   GL236230  29.496   3.272   9.043
 2609POPC   C1A36231  29.967   3.726   8.782
 2609POPC   D2A36232  30.316   3.743   8.475
 2609POPC   C3A36233  30.073   3.818   8.110
 2609POPC   C4A36234  30.023   3.659   7.718
 2609POPC   C1B36235  29.804   3.225   8.742
 2609POPC   C2B36236  29.959   3.380   8.387
 2609POPC   C3B36237  29.799   3.334   8.018
 2609POPC   C4B36238  29.560   3.391   7.657
 2610POPC   NC336239  40.302  18.558   9.403
 2610POPC   PO436240  39.778  18.138   9.417
 2610POPC   GL136241  39.980  18.341   9.079
 2610POPC   GL236242  40.327  18.229   9.023
 2610POPC   C1A36243  40.063  18.574   8.714
 2610POPC   D2A36244  40.236  18.373   8.395
 2610POPC   C3A36245  40.179  18.437   7.971
 2610POPC   C4A36246  40.245  18.056   7.749
 2610POPC   C1B36247  40.282  17.937   8.698
 2610POPC   C2B36248  40.048  17.905   8.291
 2610POPC   C3B36249  39.780  18.055   7.975
 2610POPC   C4B36250  39.793  17.989   7.531
 2611POPC   NC336251   6.163  19.976   9.440
 2611POPC   PO436252   5.483  19.807   9.425
 2611POPC   GL136253   5.821  19.783   9.060
 2611POPC   GL236254   6.165  19.612   9.054
 2611POPC   C1A36255   5.888  19.809   8.585
 2611POPC   D2A36256   5.660  19.859   8.213
 2611POPC   C3A36257   5.740  19.538   7.925
 2611POPC   C4A36258   6.154  19.478   7.754
 2611POPC   C1B36259   6.267  20.024   8.820
 2611POPC   C2B36260   6.259  20.148   8.416
 2611POPC   C3B36261   6.168  19.874   8.091
 2611POPC   C4B36262   6.108  19.995   7.680
 2612POPC   NC336263  22.337  12.572   9.731
 2612POPC   PO436264  21.968  12.060   9.582
 2612POPC   GL136265  22.220  12.291   9.314
 2612POPC   GL236266  22.288  11.996   9.123
 2612POPC   C1A36267  22.446  12.450   8.958
 2612POPC   D2A36268  22.467  12.198   8.594
 2612POPC   C3A36269  22.371  12.239   8.173
 2612POPC   C4A36270  22.072  12.221   7.859
 2612POPC   C1B36271  22.175  11.798   8.774
 2612POPC   C2B36272  22.363  11.709   8.417
 2612POPC   C3B36273  22.133  11.765   8.072
 2612POPC   C4B36274  22.187  11.726   7.664
 2613POPC   NC336275  37.405  11.094   9.465
 2613POPC   PO436276  36.899  11.514   9.752
 2613POPC   GL136277  36.858  11.522   9.291
 2613POPC   GL236278  36.909  11.189   9.333
 2613POPC   C1A36279  36.709  11.570   8.845
 2613POPC   D2A36280  36.862  11.723   8.447
 2613POPC   C3A36281  36.946  11.446   8.090
 2613POPC   C4A36282  36.646  11.456   7.740
 2613POPC   C1B36283  36.903  11.122   8.909
 2613POPC   C2B36284  36.808  11.154   8.498
 2613POPC   C3B36285  36.579  11.088   8.131
 2613POPC   C4B36286  36.840  11.000   7.781
 2614POPC   NC336287  16.114  33.412   9.709
 2614POPC   PO436288  15.698  32.918   9.619
 2614POPC   GL136289  15.978  32.966   9.233
 2614POPC   GL236290  16.111  33.312   9.186
 2614POPC   C1A36291  16.046  32.790   8.803
 2614POPC   D2A36292  15.838  32.896   8.426
 2614POPC   C3A36293  15.981  32.918   8.019
 2614POPC   C4A36294  15.733  32.915   7.643
 2614POPC   C1B36295  15.941  33.301   8.760
 2614POPC   C2B36296  15.771  33.388   8.334
 2614POPC   C3B36297  15.802  33.393   7.897
 2614POPC   C4B36298  16.095  33.269   7.611
 2615POPC   NC336299  29.616  13.963   9.377
 2615POPC   PO436300  29.130  14.551   9.372
 2615POPC   GL136301  29.265  14.264   9.114
 2615POPC   GL236302  28.930  14.108   9.093
 2615POPC   C1A36303  29.404  14.452   8.726
 2615POPC   D2A36304  29.495  14.261   8.365
 2615POPC   C3A36305  29.215  14.232   8.071
 2615POPC   C4A36306  29.373  14.109   7.703
 2615POPC   C1B36307  28.981  14.146   8.679
 2615POPC   C2B36308  28.909  14.462   8.421
 2615POPC   C3B36309  28.858  14.594   7.998
 2615POPC   C4B36310  29.189  14.598   7.712
 2616POPC   NC336311  32.951  10.705   9.536
 2616POPC   PO436312  32.893  10.033   9.581
 2616POPC   GL136313  32.943  10.300   9.210
 2616POPC   GL236314  33.236  10.269   9.043
 2616POPC   C1A36315  32.743  10.565   8.871
 2616POPC   D2A36316  32.733  10.701   8.416
 2616POPC   C3A36317  32.978  10.614   8.025
 2616POPC   C4A36318  33.315  10.846   7.816
 2616POPC   C1B36319  33.229  10.499   8.665
 2616POPC   C2B36320  33.414  10.618   8.280
 2616POPC   C3B36321  33.435  10.373   7.873
 2616POPC   C4B36322  33.190  10.222   7.532
 2617POPC   NC336323  17.654  10.851   9.428
 2617POPC   PO436324  17.297  10.243   9.501
 2617POPC   GL136325  17.411  10.470   9.145
 2617POPC   GL236326  17.757  10.464   9.034
 2617POPC   C1A36327  17.353  10.388   8.706
 2617POPC   D2A36328  17.696  10.467   8.380
 2617POPC   C3A36329  17.573  10.396   7.947
 2617POPC   C4A36330  17.323  10.531   7.615
 2617POPC   C1B36331  17.613  10.815   8.762
 2617POPC   C2B36332  17.552  10.976   8.342
 2617POPC   C3B36333  17.608  10.922   7.894
 2617POPC   C4B36334  17.576  11.058   7.428
 2618POPC   NC336335   4.918  23.969   9.480
 2618POPC   PO436336   5.278  23.465   9.559
 2618POPC   GL136337   5.170  23.637   9.179
 2618POPC   GL236338   4.873  23.472   9.138
 2618POPC   C1A36339   5.282  23.884   8.796
 2618POPC   D2A36340   5.251  24.046   8.369
 2618POPC   C3A36341   5.129  23.740   8.052
 2618POPC   C4A36342   5.168  23.731   7.613
 2618POPC   C1B36343   4.765  23.812   8.879
 2618POPC   C2B36344   4.853  23.754   8.495
 2618POPC   C3B36345   4.601  23.731   8.177
 2618POPC   C4B36346   4.702  23.857   7.774
 2619POPC   NC336347  10.872  18.409   9.478
 2619POPC   PO436348  10.169  18.135   9.541
 2619POPC   GL136349  10.408  18.321   9.223
 2619POPC   GL236350  10.352  18.009   9.042
 2619POPC   C1A36351  10.360  18.633   8.882
 2619POPC   D2A36352  10.497  18.730   8.459
 2619POPC   C3A36353  10.548  18.645   8.009
 2619POPC   C4A36354  10.597  18.547   7.552
 2619POPC   C1B36355  10.541  18.200   8.659
 2619POPC   C2B36356  10.448  18.163   8.220
 2619POPC   C3B36357  10.692  18.137   7.864
 2619POPC   C4B36358  10.926  17.787   7.728
 2620POPC   NC336359  11.906  18.736   9.553
 2620POPC   PO436360  12.095  18.071   9.496
 2620POPC   GL136361  11.993  18.182   9.136
 2620POPC   GL236362  12.078  18.521   9.112
 2620POPC   C1A36363  12.022  18.028   8.763
 2620POPC   D2A36364  11.850  18.170   8.400
 2620POPC   C3A36365  12.071  18.394   8.115
 2620POPC   C4A36366  11.945  18.095   7.807
 2620POPC   C1B36367  11.762  18.510   8.786
 2620POPC   C2B36368  11.603  18.622   8.383
 2620POPC   C3B36369  11.585  18.446   7.955
 2620POPC   C4B36370  11.735  18.385   7.477
 2621POPC   NC336371  41.346  42.425   9.396
 2621POPC   PO436372  42.087  42.564   9.335
 2621POPC   GL136373  41.759  42.503   9.088
 2621POPC   GL236374  41.656  42.204   9.030
 2621POPC   C1A36375  41.507  42.638   8.768
 2621POPC   D2A36376  41.423  42.501   8.390
 2621POPC   C3A36377  41.396  42.612   7.970
 2621POPC   C4A36378  41.529  42.286   7.722
 2621POPC   C1B36379  41.295  42.154   8.771
 2621POPC   C2B36380  41.270  42.015   8.360
 2621POPC   C3B36381  41.423  41.856   7.983
 2621POPC   C4B36382  41.257  41.829   7.589
 2622POPC   NC336383  30.166  28.277   9.431
 2622POPC   PO436384  30.652  28.445   9.775
 2622POPC   GL136385  30.632  28.409   9.251
 2622POPC   GL236386  30.870  28.642   9.048
 2622POPC   C1A36387  30.532  28.413   8.758
 2622POPC   D2A36388  30.804  28.562   8.369
 2622POPC   C3A36389  30.749  28.307   7.958
 2622POPC   C4A36390  30.393  27.999   7.825
 2622POPC   C1B36391  31.226  28.656   8.753
 2622POPC   C2B36392  31.243  28.902   8.369
 2622POPC   C3B36393  31.113  28.785   7.960
 2622POPC   C4B36394  30.977  28.682   7.501
 2623POPC   NC336395  27.100  20.586   9.619
 2623POPC   PO436396  26.683  20.053   9.510
 2623POPC   GL136397  26.771  20.451   9.247
 2623POPC   GL236398  26.515  20.737   9.192
 2623POPC   C1A36399  27.063  20.555   8.893
 2623POPC   D2A36400  27.201  20.506   8.467
 2623POPC   C3A36401  27.031  20.623   8.057
 2623POPC   C4A36402  27.317  20.766   7.744
 2623POPC   C1B36403  26.562  20.525   8.793
 2623POPC   C2B36404  26.643  20.669   8.414
 2623POPC   C3B36405  26.491  20.829   8.061
 2623POPC   C4B36406  26.641  20.664   7.706
 2624POPC   NC336407   5.290   8.580   9.947
 2624POPC   PO436408   5.039   8.004   9.668
 2624POPC   GL136409   4.977   8.216   9.291
 2624POPC   GL236410   5.084   7.920   9.138
 2624POPC   C1A36411   4.873   8.439   8.893
 2624POPC   D2A36412   4.723   8.564   8.457
 2624POPC   C3A36413   4.855   8.303   8.078
 2624POPC   C4A36414   4.814   8.199   7.629
 2624POPC   C1B36415   5.277   8.103   8.815
 2624POPC   C2B36416   5.203   8.038   8.396
 2624POPC   C3B36417   5.195   7.887   7.988
 2624POPC   C4B36418   5.314   8.165   7.709
 2625POPC   NC336419  35.090  25.904   9.508
 2625POPC   PO436420  35.628  26.290   9.432
 2625POPC   GL136421  35.327  26.171   9.082
 2625POPC   GL236422  35.257  25.816   9.050
 2625POPC   C1A36423  35.318  26.131   8.627
 2625POPC   D2A36424  35.566  25.851   8.291
 2625POPC   C3A36425  35.503  25.933   7.862
 2625POPC   C4A36426  35.112  26.085   7.699
 2625POPC   C1B36427  35.326  25.640   8.680
 2625POPC   C2B36428  35.040  25.659   8.323
 2625POPC   C3B36429  35.112  25.626   7.888
 2625POPC   C4B36430  35.460  25.445   7.701
 2626POPC   NC336431   4.143  34.527   9.415
 2626POPC   PO436432   4.677  34.822   9.496
 2626POPC   GL136433   4.577  34.731   9.114
 2626POPC   GL236434   4.557  34.398   9.127
 2626POPC   C1A36435   4.342  34.696   8.742
 2626POPC   D2A36436   4.129  34.901   8.411
 2626POPC   C3A36437   4.252  34.767   8.000
 2626POPC   C4A36438   4.161  34.836   7.560
 2626POPC   C1B36439   4.657  34.262   8.695
 2626POPC   C2B36440   4.582  34.422   8.244
 2626POPC   C3B36441   4.411  34.307   7.805
 2626POPC   C4B36442   4.408  34.452   7.346
 2627POPC   NC336443  12.001  23.018   9.601
 2627POPC   PO436444  12.354  22.461   9.620
 2627POPC   GL136445  12.310  22.837   9.186
 2627POPC   GL236446  12.113  23.163   9.145
 2627POPC   C1A36447  12.181  22.907   8.723
 2627POPC   D2A36448  12.140  22.870   8.280
 2627POPC   C3A36449  11.906  23.062   7.952
 2627POPC   C4A36450  12.029  22.801   7.617
 2627POPC   C1B36451  12.348  23.395   8.870
 2627POPC   C2B36452  12.335  23.342   8.441
 2627POPC   C3B36453  12.402  23.243   8.032
 2627POPC   C4B36454  12.238  23.264   7.604
 2628POPC   NC336455  26.586  44.658   9.584
 2628POPC   PO436456  27.097  44.253   9.633
 2628POPC   GL136457  26.993  44.558   9.297
 2628POPC   GL236458  27.254  44.679   9.110
 2628POPC   C1A36459  26.800  44.726   8.916
 2628POPC   D2A36460  26.946  44.604   8.522
 2628POPC   C3A36461  26.874  44.601   8.079
 2628POPC   C4A36462  26.647  44.749   7.722
 2628POPC   C1B36463  27.317  44.895   8.729
 2628POPC   C2B36464  27.209   0.006   8.282
 2628POPC   C3B36465  27.269  44.840   7.850
 2628POPC   C4B36466  27.096  44.500   7.579
 2629POPC   NC336467  31.720  44.526   9.506
 2629POPC   PO436468  31.134  44.844   9.442
 2629POPC   GL136469  31.467  44.834   9.153
 2629POPC   GL236470  31.848  44.852   9.114
 2629POPC   C1A36471  31.394  44.524   8.870
 2629POPC   D2A36472  31.211  44.488   8.474
 2629POPC   C3A36473  31.356  44.264   8.163
 2629POPC   C4A36474  31.444  44.522   7.810
 2629POPC   C1B36475  31.693  44.884   8.684
 2629POPC   C2B36476  31.691  44.652   8.296
 2629POPC   C3B36477  31.897  44.736   7.895
 2629POPC   C4B36478  31.740  44.914   7.488
 2630POPC   NC336479  30.772   4.570   9.476
 2630POPC   PO436480  30.541   3.954   9.412
 2630POPC   GL136481  30.636   4.251   9.095
 2630POPC   GL236482  30.390   4.579   9.146
 2630POPC   C1A36483  30.609   4.167   8.639
 2630POPC   D2A36484  30.395   4.201   8.236
 2630POPC   C3A36485  30.692   4.285   7.904
 2630POPC   C4A36486  30.740   4.166   7.470
 2630POPC   C1B36487  30.665   4.654   8.790
 2630POPC   C2B36488  30.652   4.631   8.344
 2630POPC   C3B36489  30.709   4.796   7.929
 2630POPC   C4B36490  30.780   4.679   7.501
 2631POPC   NC336491  26.737   2.896   9.612
 2631POPC   PO436492  27.063   2.281   9.503
 2631POPC   GL136493  27.019   2.661   9.249
 2631POPC   GL236494  26.656   2.727   9.131
 2631POPC   C1A36495  27.040   2.659   8.805
 2631POPC   D2A36496  26.850   2.787   8.429
 2631POPC   C3A36497  26.898   2.481   8.122
 2631POPC   C4A36498  26.975   2.577   7.700
 2631POPC   C1B36499  26.403   2.710   8.726
 2631POPC   C2B36500  26.393   2.606   8.266
 2631POPC   C3B36501  26.550   2.803   7.900
 2631POPC   C4B36502  26.450   3.042   7.516
 2632POPC   NC336503  15.409  26.730   9.552
 2632POPC   PO436504  14.746  26.592   9.537
 2632POPC   GL136505  14.989  26.689   9.176
 2632POPC   GL236506  15.270  26.467   9.131
 2632POPC   C1A36507  15.092  26.892   8.792
 2632POPC   D2A36508  15.247  26.731   8.446
 2632POPC   C3A36509  15.029  26.887   8.117
 2632POPC   C4A36510  15.184  26.896   7.726
 2632POPC   C1B36511  15.037  26.361   8.752
 2632POPC   C2B36512  14.874  26.441   8.299
 2632POPC   C3B36513  15.232  26.459   7.976
 2632POPC   C4B36514  15.334  26.445   7.540
 2633POPC   NC336515  24.791  19.514   9.593
 2633POPC   PO436516  24.603  18.856   9.639
 2633POPC   GL136517  24.608  18.883   9.198
 2633POPC   GL236518  24.500  19.241   9.235
 2633POPC   C1A36519  24.332  18.859   8.836
 2633POPC   D2A36520  24.298  18.734   8.443
 2633POPC   C3A36521  24.171  19.004   8.100
 2633POPC   C4A36522  24.445  18.873   7.767
 2633POPC   C1B36523  24.695  19.234   8.838
 2633POPC   C2B36524  24.455  19.250   8.480
 2633POPC   C3B36525  24.642  19.168   8.127
 2633POPC   C4B36526  24.852  19.235   7.770
 2634POPC   NC336527  41.163  37.330   9.445
 2634POPC   PO436528  40.458  37.083   9.484
 2634POPC   GL136529  40.799  36.960   9.173
 2634POPC   GL236530  40.955  37.218   8.973
 2634POPC   C1A36531  40.877  36.758   8.768
 2634POPC   D2A36532  40.867  37.007   8.408
 2634POPC   C3A36533  40.785  36.867   8.013
 2634POPC   C4A36534  40.983  37.211   7.874
 2634POPC   C1B36535  40.517  37.167   8.752
 2634POPC   C2B36536  40.306  37.199   8.316
 2634POPC   C3B36537  40.463  37.258   7.868
 2634POPC   C4B36538  40.629  37.302   7.405
 2635POPC   NC336539  29.037  29.339   9.396
 2635POPC   PO436540  29.596  29.707   9.483
 2635POPC   GL136541  29.485  29.343   9.129
 2635POPC   GL236542  29.155  29.414   8.928
 2635POPC   C1A36543  29.400  29.046   8.729
 2635POPC   D2A36544  29.467  29.223   8.323
 2635POPC   C3A36545  29.449  29.035   7.972
 2635POPC   C4A36546  29.355  29.035   7.571
 2635POPC   C1B36547  29.004  29.317   8.552
 2635POPC   C2B36548  29.015  28.976   8.273
 2635POPC   C3B36549  28.982  29.212   7.922
 2635POPC   C4B36550  29.042  29.459   7.598
 2636POPC   NC336551  23.240  14.294   9.524
 2636POPC   PO436552  22.574  14.248   9.653
 2636POPC   GL136553  22.789  14.305   9.233
 2636POPC   GL236554  23.041  14.587   9.161
 2636POPC   C1A36555  22.714  14.469   8.810
 2636POPC   D2A36556  22.738  14.706   8.453
 2636POPC   C3A36557  22.652  14.500   8.058
 2636POPC   C4A36558  22.812  14.258   7.697
 2636POPC   C1B36559  23.222  14.641   8.747
 2636POPC   C2B36560  23.403  14.616   8.324
 2636POPC   C3B36561  23.174  14.552   7.938
 2636POPC   C4B36562  23.106  14.620   7.455
 2637POPC   NC336563  20.003  38.916   9.418
 2637POPC   PO436564  19.692  39.735   9.420
 2637POPC   GL136565  19.806  39.536   9.067
 2637POPC   GL236566  19.803  39.181   9.049
 2637POPC   C1A36567  19.630  39.505   8.671
 2637POPC   D2A36568  19.461  39.383   8.272
 2637POPC   C3A36569  19.725  39.497   7.927
 2637POPC   C4A36570  20.024  39.265   7.685
 2637POPC   C1B36571  19.780  38.995   8.667
 2637POPC   C2B36572  20.142  38.864   8.472
 2637POPC   C3B36573  20.105  38.874   8.004
 2637POPC   C4B36574  19.945  38.739   7.595
 2638POPC   NC336575  19.984  43.695   9.359
 2638POPC   PO436576  19.413  44.268   9.399
 2638POPC   GL136577  19.721  44.094   9.074
 2638POPC   GL236578  20.102  44.028   8.965
 2638POPC   C1A36579  19.724  43.979   8.650
 2638POPC   D2A36580  19.947  44.158   8.326
 2638POPC   C3A36581  19.862  43.944   7.965
 2638POPC   C4A36582  19.721  43.865   7.541
 2638POPC   C1B36583  20.172  43.622   8.734
 2638POPC   C2B36584  20.150  43.423   8.336
 2638POPC   C3B36585  20.252  43.600   7.932
 2638POPC   C4B36586  20.439  43.810   7.576
 2639POPC   NC336587  10.746  30.692   9.701
 2639POPC   PO436588  10.451  30.136   9.471
 2639POPC   GL136589  10.627  30.440   9.134
 2639POPC   GL236590  10.627  30.805   9.166
 2639POPC   C1A36591  10.629  30.534   8.687
 2639POPC   D2A36592  10.416  30.363   8.313
 2639POPC   C3A36593  10.509  30.543   7.895
 2639POPC   C4A36594  10.800  30.706   7.566
 2639POPC   C1B36595  10.272  30.879   8.856
 2639POPC   C2B36596  10.132  30.788   8.422
 2639POPC   C3B36597  10.202  30.942   8.014
 2639POPC   C4B36598  10.401  30.995   7.609
 2640POPC   NC336599  17.081  26.881   9.729
 2640POPC   PO436600  16.483  27.023   9.427
 2640POPC   GL136601  16.699  26.948   9.081
 2640POPC   GL236602  17.054  26.905   9.188
 2640POPC   C1A36603  16.541  26.784   8.685
 2640POPC   D2A36604  16.519  26.958   8.275
 2640POPC   C3A36605  16.604  26.669   7.918
 2640POPC   C4A36606  16.502  26.912   7.529
 2640POPC   C1B36607  17.018  26.637   8.820
 2640POPC   C2B36608  16.991  26.811   8.391
 2640POPC   C3B36609  17.120  26.696   7.977
 2640POPC   C4B36610  17.040  26.383   7.634
 2641POPC   NC336611  29.345   8.505   9.478
 2641POPC   PO436612  28.914   9.039   9.482
 2641POPC   GL136613  28.977   8.731   9.136
 2641POPC   GL236614  29.339   8.746   9.047
 2641POPC   C1A36615  28.978   8.755   8.674
 2641POPC   D2A36616  28.785   8.893   8.283
 2641POPC   C3A36617  29.049   8.899   7.916
 2641POPC   C4A36618  29.334   9.208   7.769
 2641POPC   C1B36619  29.299   9.132   8.788
 2641POPC   C2B36620  29.209   9.188   8.338
 2641POPC   C3B36621  28.871   9.358   8.065
 2641POPC   C4B36622  28.938   9.566   7.686
 2642POPC   NC336623  44.278  32.157   9.580
 2642POPC   PO436624  44.944  32.170   9.540
 2642POPC   GL136625  44.688  32.344   9.201
 2642POPC   GL236626  44.343  32.454   9.177
 2642POPC   C1A36627  44.646  32.293   8.771
 2642POPC   D2A36628  44.616  32.499   8.387
 2642POPC   C3A36629  44.612  32.221   8.057
 2642POPC   C4A36630  44.651  32.485   7.702
 2642POPC   C1B36631  44.171  32.114   8.914
 2642POPC   C2B36632  44.250  32.145   8.474
 2642POPC   C3B36633  44.132  32.046   8.074
 2642POPC   C4B36634  44.260  32.150   7.686
 2643POPC   NC336635  20.038   6.797   9.499
 2643POPC   PO436636  19.351   6.789   9.411
 2643POPC   GL136637  19.694   6.738   9.107
 2643POPC   GL236638  20.011   6.515   9.098
 2643POPC   C1A36639  19.855   6.801   8.708
 2643POPC   D2A36640  19.629   6.709   8.367
 2643POPC   C3A36641  19.834   6.683   7.993
 2643POPC   C4A36642  19.798   6.843   7.616
 2643POPC   C1B36643  20.178   6.391   8.730
 2643POPC   C2B36644  20.015   6.355   8.345
 2643POPC   C3B36645  20.177   6.272   7.963
 2643POPC   C4B36646  19.950   6.312   7.627
 2644POPC   NC336647  43.742  30.039   9.986
 2644POPC   PO436648  44.057  30.205   9.382
 2644POPC   GL136649  43.975  29.900   9.094
 2644POPC   GL236650  44.253  29.805   8.914
 2644POPC   C1A36651  43.752  29.788   8.724
 2644POPC   D2A36652  43.992  29.767   8.354
 2644POPC   C3A36653  43.971  29.763   7.904
 2644POPC   C4A36654  43.956  30.169   7.744
 2644POPC   C1B36655  44.078  30.190   8.696
 2644POPC   C2B36656  44.028  30.315   8.277
 2644POPC   C3B36657  44.350  30.413   7.983
 2644POPC   C4B36658  44.327  30.412   7.499
 2645POPC   NC336659  36.966   0.062   9.350
 2645POPC   PO436660  36.728  44.360   9.455
 2645POPC   GL136661  36.948  44.548   9.134
 2645POPC   GL236662  37.312  44.584   9.209
 2645POPC   C1A36663  36.714  44.629   8.749
 2645POPC   D2A36664  36.479  44.467   8.382
 2645POPC   C3A36665  36.745  44.511   7.995
 2645POPC   C4A36666  36.841  44.638   7.536
 2645POPC   C1B36667  37.237  44.793   8.781
 2645POPC   C2B36668  37.100  44.596   8.388
 2645POPC   C3B36669  37.254  44.507   7.959
 2645POPC   C4B36670  37.343  44.631   7.508
 2646POPC   NC336671  10.010  34.950   9.944
 2646POPC   PO436672   9.538  34.447   9.773
 2646POPC   GL136673   9.674  34.690   9.369
 2646POPC   GL236674   9.815  34.441   9.160
 2646POPC   C1A36675   9.743  34.927   8.949
 2646POPC   D2A36676   9.977  34.707   8.582
 2646POPC   C3A36677   9.940  34.852   8.152
 2646POPC   C4A36678   9.835  34.742   7.729
 2646POPC   C1B36679   9.576  34.458   8.784
 2646POPC   C2B36680   9.482  34.378   8.384
 2646POPC   C3B36681   9.660  34.344   8.004
 2646POPC   C4B36682   9.499  34.122   7.694
 2647POPC   NC336683  22.024  17.964   9.439
 2647POPC   PO436684  22.233  18.629   9.535
 2647POPC   GL136685  22.177  18.400   9.151
 2647POPC   GL236686  22.441  18.149   9.149
 2647POPC   C1A36687  22.149  18.228   8.724
 2647POPC   D2A36688  22.080  18.369   8.332
 2647POPC   C3A36689  21.990  18.158   8.016
 2647POPC   C4A36690  21.994  18.467   7.740
 2647POPC   C1B36691  22.656  18.126   8.750
 2647POPC   C2B36692  22.578  18.394   8.394
 2647POPC   C3B36693  22.475  18.392   7.960
 2647POPC   C4B36694  22.568  18.007   7.756
 2648POPC   NC336695  25.456  11.709   9.535
 2648POPC   PO436696  25.330  12.412   9.498
 2648POPC   GL136697  25.215  12.077   9.285
 2648POPC   GL236698  25.566  12.065   9.150
 2648POPC   C1A36699  25.142  11.902   8.901
 2648POPC   D2A36700  25.331  11.987   8.530
 2648POPC   C3A36701  25.143  12.095   8.154
 2648POPC   C4A36702  24.990  11.958   7.750
 2648POPC   C1B36703  25.539  12.434   8.847
 2648POPC   C2B36704  25.377  12.485   8.429
 2648POPC   C3B36705  25.520  12.496   8.014
 2648POPC   C4B36706  25.507  12.423   7.585
 2649POPC   NC336707   7.680  12.866   9.486
 2649POPC   PO436708   7.048  12.619   9.505
 2649POPC   GL136709   7.270  12.831   9.150
 2649POPC   GL236710   7.453  13.188   9.156
 2649POPC   C1A36711   7.153  13.029   8.759
 2649POPC   D2A36712   7.091  12.852   8.354
 2649POPC   C3A36713   7.252  13.048   8.010
 2649POPC   C4A36714   7.357  13.022   7.619
 2649POPC   C1B36715   7.665  12.939   8.830
 2649POPC   C2B36716   7.571  13.019   8.411
 2649POPC   C3B36717   7.748  12.936   7.979
 2649POPC   C4B36718   7.865  12.607   7.705
 2650POPC   NC336719  36.633  38.640   9.428
 2650POPC   PO436720  37.335  38.659   9.529
 2650POPC   GL136721  37.102  38.349   9.261
 2650POPC   GL236722  36.782  38.125   9.306
 2650POPC   C1A36723  36.975  38.420   8.831
 2650POPC   D2A36724  37.150  38.432   8.424
 2650POPC   C3A36725  36.865  38.512   8.096
 2650POPC   C4A36726  36.985  38.466   7.701
 2650POPC   C1B36727  36.673  38.003   8.864
 2650POPC   C2B36728  36.700  38.146   8.427
 2650POPC   C3B36729  36.745  37.961   7.998
 2650POPC   C4B36730  36.508  37.883   7.597
 2651POPC   NC336731  18.582  36.332   9.315
 2651POPC   PO436732  18.590  35.799   9.740
 2651POPC   GL136733  18.391  35.871   9.261
 2651POPC   GL236734  18.104  36.065   9.228
 2651POPC   C1A36735  18.510  36.009   8.773
 2651POPC   D2A36736  18.560  36.339   8.416
 2651POPC   C3A36737  18.474  36.189   7.991
 2651POPC   C4A36738  18.386  36.234   7.538
 2651POPC   C1B36739  18.060  36.257   8.785
 2651POPC   C2B36740  18.036  36.276   8.301
 2651POPC   C3B36741  17.992  36.087   7.875
 2651POPC   C4B36742  18.297  35.752   7.769
 2652POPC   NC336743   3.785  19.367   9.538
 2652POPC   PO436744   3.128  19.213   9.515
 2652POPC   GL136745   3.363  19.256   9.142
 2652POPC   GL236746   3.709  19.307   9.056
 2652POPC   C1A36747   3.386  19.044   8.759
 2652POPC   D2A36748   3.139  18.921   8.442
 2652POPC   C3A36749   3.478  18.860   8.165
 2652POPC   C4A36750   3.556  18.999   7.768
 2652POPC   C1B36751   3.899  19.452   8.729
 2652POPC   C2B36752   3.690  19.275   8.438
 2652POPC   C3B36753   3.688  19.350   8.076
 2652POPC   C4B36754   3.989  19.235   7.731
 2653POPC   NC336755  33.354  10.022   9.503
 2653POPC   PO436756  33.783   9.579   9.526
 2653POPC   GL136757  33.798   9.742   9.115
 2653POPC   GL236758  33.488   9.837   9.049
 2653POPC   C1A36759  33.785   9.708   8.661
 2653POPC   D2A36760  33.605   9.676   8.269
 2653POPC   C3A36761  33.914   9.628   7.960
 2653POPC   C4A36762  34.293   9.828   7.825
 2653POPC   C1B36763  33.305   9.944   8.628
 2653POPC   C2B36764  33.210  10.013   8.177
 2653POPC   C3B36765  33.444   9.856   7.805
 2653POPC   C4B36766  33.379   9.767   7.357
 2654POPC   NC336767  20.856   3.497   9.877
 2654POPC   PO436768  20.378   3.592   9.617
 2654POPC   GL136769  20.434   3.725   9.173
 2654POPC   GL236770  20.140   3.600   9.034
 2654POPC   C1A36771  20.634   3.678   8.724
 2654POPC   D2A36772  20.704   3.379   8.366
 2654POPC   C3A36773  20.622   3.462   7.930
 2654POPC   C4A36774  20.497   3.473   7.509
 2654POPC   C1B36775  20.147   3.728   8.602
 2654POPC   C2B36776  20.192   3.509   8.219
 2654POPC   C3B36777  20.172   3.702   7.822
 2654POPC   C4B36778  20.447   3.984   7.586
 2655POPC   NC336779  29.156  39.020   9.756
 2655POPC   PO436780  29.417  39.609   9.643
 2655POPC   GL136781  29.390  39.377   9.262
 2655POPC   GL236782  29.471  39.590   8.973
 2655POPC   C1A36783  29.488  39.080   8.940
 2655POPC   D2A36784  29.273  38.901   8.592
 2655POPC   C3A36785  29.383  38.949   8.178
 2655POPC   C4A36786  29.456  39.012   7.774
 2655POPC   C1B36787  29.137  39.397   8.698
 2655POPC   C2B36788  28.964  39.235   8.296
 2655POPC   C3B36789  29.087  39.336   7.876
 2655POPC   C4B36790  29.146  39.702   7.604
 2656POPC   NC336791  16.560  31.942   9.796
 2656POPC   PO436792  16.934  32.512   9.526
 2656POPC   GL136793  16.666  32.279   9.232
 2656POPC   GL236794  16.384  32.487   9.105
 2656POPC   C1A36795  16.558  32.096   8.831
 2656POPC   D2A36796  16.437  32.129   8.410
 2656POPC   C3A36797  16.755  31.947   8.162
 2656POPC   C4A36798  16.760  31.986   7.747
 2656POPC   C1B36799  16.520  32.609   8.723
 2656POPC   C2B36800  16.406  32.683   8.304
 2656POPC   C3B36801  16.492  32.405   7.964
 2656POPC   C4B36802  16.778  32.500   7.630
 2657POPC   NC336803  32.751  28.777   9.438
 2657POPC   PO436804  33.213  29.189   9.350
 2657POPC   GL136805  32.976  29.324   9.010
 2657POPC   GL236806  32.768  29.067   9.013
 2657POPC   C1A36807  32.949  29.351   8.554
 2657POPC   D2A36808  33.138  29.102   8.244
 2657POPC   C3A36809  33.121  29.359   7.922
 2657POPC   C4A36810  33.307  29.423   7.526
 2657POPC   C1B36811  32.584  29.000   8.622
 2657POPC   C2B36812  32.601  29.091   8.190
 2657POPC   C3B36813  32.769  29.036   7.784
 2657POPC   C4B36814  32.699  29.140   7.334
 2658POPC   NC336815   8.192  25.815   9.294
 2658POPC   PO436816   7.818  26.437   9.365
 2658POPC   GL136817   8.045  26.240   9.081
 2658POPC   GL236818   8.344  26.349   9.071
 2658POPC   C1A36819   8.214  26.063   8.694
 2658POPC   D2A36820   8.063  25.904   8.381
 2658POPC   C3A36821   8.177  25.869   8.006
 2658POPC   C4A36822   7.796  26.028   7.899
 2658POPC   C1B36823   8.540  26.479   8.679
 2658POPC   C2B36824   8.448  26.605   8.248
 2658POPC   C3B36825   8.385  26.328   7.880
 2658POPC   C4B36826   8.374  26.036   7.541
 2659POPC   NC336827   3.169   3.975   9.472
 2659POPC   PO436828   2.612   3.619   9.698
 2659POPC   GL136829   2.682   3.440   9.296
 2659POPC   GL236830   2.995   3.588   9.166
 2659POPC   C1A36831   2.559   3.523   8.887
 2659POPC   D2A36832   2.504   3.380   8.484
 2659POPC   C3A36833   2.640   3.600   8.133
 2659POPC   C4A36834   2.876   3.424   7.789
 2659POPC   C1B36835   3.082   3.473   8.723
 2659POPC   C2B36836   3.157   3.601   8.280
 2659POPC   C3B36837   3.345   3.645   7.872
 2659POPC   C4B36838   3.220   3.658   7.437
 2660POPC   NC336839   7.703  36.767   9.707
 2660POPC   PO436840   7.040  36.992   9.475
 2660POPC   GL136841   7.364  37.046   9.181
 2660POPC   GL236842   7.454  36.712   9.185
 2660POPC   C1A36843   7.444  37.017   8.733
 2660POPC   D2A36844   7.510  36.814   8.329
 2660POPC   C3A36845   7.593  37.078   7.969
 2660POPC   C4A36846   7.289  37.052   7.597
 2660POPC   C1B36847   7.674  36.561   8.815
 2660POPC   C2B36848   7.941  36.514   8.447
 2660POPC   C3B36849   7.930  36.667   8.024
 2660POPC   C4B36850   7.546  36.616   7.779
 2661POPC   NC336851  33.103  16.369   9.292
 2661POPC   PO436852  32.773  16.972   9.421
 2661POPC   GL136853  32.891  16.763   9.040
 2661POPC   GL236854  33.196  16.772   8.982
 2661POPC   C1A36855  32.929  16.621   8.581
 2661POPC   D2A36856  32.666  16.832   8.279
 2661POPC   C3A36857  32.724  16.875   7.849
 2661POPC   C4A36858  32.817  16.641   7.496
 2661POPC   C1B36859  33.440  16.536   8.723
 2661POPC   C2B36860  33.414  16.614   8.278
 2661POPC   C3B36861  33.139  16.557   7.928
 2661POPC   C4B36862  33.319  16.412   7.540
 2662POPC   NC336863   0.214  35.104   9.445
 2662POPC   PO436864   0.655  35.616   9.460
 2662POPC   GL136865   0.573  35.416   9.068
 2662POPC   GL236866   0.232  35.319   8.996
 2662POPC   C1A36867   0.710  35.215   8.681
 2662POPC   D2A36868   0.870  35.300   8.250
 2662POPC   C3A36869   0.600  35.178   7.913
 2662POPC   C4A36870   0.359  35.483   7.687
 2662POPC   C1B36871   0.180  35.331   8.564
 2662POPC   C2B36872   0.201  35.030   8.227
 2662POPC   C3B36873   0.123  35.026   7.790
 2662POPC   C4B36874   0.198  34.989   7.369
 2663POPC   NC336875  11.772  32.926   9.604
 2663POPC   PO436876  12.355  32.660   9.728
 2663POPC   GL136877  12.290  32.819   9.278
 2663POPC   GL236878  12.034  33.111   9.196
 2663POPC   C1A36879  12.274  32.851   8.811
 2663POPC   D2A36880  12.362  32.718   8.381
 2663POPC   C3A36881  12.267  32.971   8.008
 2663POPC   C4A36882  12.303  33.353   7.742
 2663POPC   C1B36883  11.876  33.209   8.771
 2663POPC   C2B36884  11.852  33.312   8.330
 2663POPC   C3B36885  11.826  33.208   7.908
 2663POPC   C4B36886  11.914  33.215   7.442
 2664POPC   NC336887  42.648   2.412   9.442
 2664POPC   PO436888  42.186   2.779   9.815
 2664POPC   GL136889  42.253   2.680   9.312
 2664POPC   GL236890  42.440   2.939   9.130
 2664POPC   C1A36891  42.311   2.560   8.849
 2664POPC   D2A36892  42.473   2.554   8.438
 2664POPC   C3A36893  42.240   2.617   8.068
 2664POPC   C4A36894  42.314   2.697   7.656
 2664POPC   C1B36895  42.129   3.055   8.825
 2664POPC   C2B36896  42.234   3.032   8.390
 2664POPC   C3B36897  42.049   3.087   7.974
 2664POPC   C4B36898  42.243   3.179   7.589
 2665POPC   NC336899  43.409  26.230   9.515
 2665POPC   PO436900  42.938  25.718   9.439
 2665POPC   GL136901  43.013  25.885   9.038
 2665POPC   GL236902  43.315  25.871   9.096
 2665POPC   C1A36903  43.010  25.856   8.580
 2665POPC   D2A36904  43.135  25.763   8.155
 2665POPC   C3A36905  42.929  25.911   7.785
 2665POPC   C4A36906  42.799  25.789   7.364
 2665POPC   C1B36907  43.371  25.555   8.784
 2665POPC   C2B36908  43.574  25.587   8.385
 2665POPC   C3B36909  43.516  25.473   7.973
 2665POPC   C4B36910  43.406  25.774   7.655
 2666POPC   NC336911  34.516  11.225   9.853
 2666POPC   PO436912  35.012  11.551   9.583
 2666POPC   GL136913  34.848  11.358   9.173
 2666POPC   GL236914  34.469  11.294   9.145
 2666POPC   C1A36915  34.782  11.085   8.783
 2666POPC   D2A36916  34.583  11.148   8.377
 2666POPC   C3A36917  34.761  11.068   7.988
 2666POPC   C4A36918  34.760  11.279   7.589
 2666POPC   C1B36919  34.224  11.267   8.720
 2666POPC   C2B36920  34.151  11.409   8.280
 2666POPC   C3B36921  34.270  11.212   7.896
 2666POPC   C4B36922  34.237  11.188   7.440
 2667POPC   NC336923  30.700  23.956   9.629
 2667POPC   PO436924  30.294  23.495   9.760
 2667POPC   GL136925  30.465  23.525   9.284
 2667POPC   GL236926  30.284  23.307   9.048
 2667POPC   C1A36927  30.522  23.719   8.787
 2667POPC   D2A36928  30.388  23.957   8.376
 2667POPC   C3A36929  30.459  23.870   7.934
 2667POPC   C4A36930  30.880  23.909   7.774
 2667POPC   C1B36931  30.522  23.241   8.638
 2667POPC   C2B36932  30.603  23.457   8.226
 2667POPC   C3B36933  30.700  23.433   7.770
 2667POPC   C4B36934  30.870  23.513   7.319
 2668POPC   NC336935  44.854  44.338   9.543
 2668POPC   PO436936  44.312  44.769   9.509
 2668POPC   GL136937  44.553  44.752   9.131
 2668POPC   GL236938  44.681  44.400   9.067
 2668POPC   C1A36939  44.580  44.684   8.670
 2668POPC   D2A36940  44.710  44.477   8.309
 2668POPC   C3A36941  44.683  44.702   7.951
 2668POPC   C4A36942  44.420  44.975   7.740
 2668POPC   C1B36943  44.908  44.122   8.748
 2668POPC   C2B36944   0.107  44.170   8.303
 2668POPC   C3B36945  44.974  44.265   7.882
 2668POPC   C4B36946  44.902  44.551   7.506
 2669POPC   NC336947  23.036   8.692   9.518
 2669POPC   PO436948  22.734   9.252   9.584
 2669POPC   GL136949  22.819   9.043   9.194
 2669POPC   GL236950  22.644   8.722   9.178
 2669POPC   C1A36951  23.119   9.061   8.842
 2669POPC   D2A36952  23.273   9.210   8.423
 2669POPC   C3A36953  23.083   8.952   8.107
 2669POPC   C4A36954  23.035   8.593   7.844
 2669POPC   C1B36955  22.574   8.686   8.729
 2669POPC   C2B36956  22.743   8.620   8.302
 2669POPC   C3B36957  22.534   8.664   7.904
 2669POPC   C4B36958  22.484   8.791   7.467
 2670POPC   NC336959  15.009  28.646   9.591
 2670POPC   PO436960  15.370  28.136   9.520
 2670POPC   GL136961  15.180  28.264   9.125
 2670POPC   GL236962  15.153  28.579   9.129
 2670POPC   C1A36963  15.350  28.416   8.710
 2670POPC   D2A36964  15.198  28.350   8.342
 2670POPC   C3A36965  15.377  28.187   8.001
 2670POPC   C4A36966  15.081  28.351   7.725
 2670POPC   C1B36967  14.911  28.731   8.840
 2670POPC   C2B36968  14.997  28.832   8.448
 2670POPC   C3B36969  14.915  28.699   8.052
 2670POPC   C4B36970  14.793  28.796   7.651
 2671POPC   NC336971  27.038  25.599   9.515
 2671POPC   PO436972  26.535  25.315   9.486
 2671POPC   GL136973  26.816  25.325   9.105
 2671POPC   GL236974  26.883  25.663   9.018
 2671POPC   C1A36975  26.988  25.270   8.662
 2671POPC   D2A36976  27.212  25.155   8.265
 2671POPC   C3A36977  26.917  25.012   7.933
 2671POPC   C4A36978  26.892  24.884   7.511
 2671POPC   C1B36979  26.663  25.658   8.610
 2671POPC   C2B36980  26.766  25.465   8.202
 2671POPC   C3B36981  27.075  25.502   7.906
 2671POPC   C4B36982  27.329  25.655   7.552
 2672POPC   NC336983   7.616  13.864   9.491
 2672POPC   PO436984   7.089  13.421   9.451
 2672POPC   GL136985   7.254  13.702   9.111
 2672POPC   GL236986   7.613  13.701   9.024
 2672POPC   C1A36987   7.288  13.675   8.642
 2672POPC   D2A36988   7.167  13.380   8.366
 2672POPC   C3A36989   7.092  13.513   7.930
 2672POPC   C4A36990   7.282  13.505   7.503
 2672POPC   C1B36991   7.716  13.427   8.696
 2672POPC   C2B36992   7.707  13.471   8.250
 2672POPC   C3B36993   7.651  13.405   7.828
 2672POPC   C4B36994   7.785  13.601   7.439
 2673POPC   NC336995  16.407  41.848   9.488
 2673POPC   PO436996  16.537  41.167   9.367
 2673POPC   GL136997  16.745  41.537   9.135
 2673POPC   GL236998  16.670  41.902   9.058
 2673POPC   C1A36999  16.903  41.612   8.689
 2673POPC   D2A37000  16.802  41.721   8.254
 2673POPC   C3A37001  16.964  41.481   7.902
 2673POPC   C4A37002  16.836  41.423   7.486
 2673POPC   C1B37003  16.400  41.805   8.712
 2673POPC   C2B37004  16.304  41.870   8.259
 2673POPC   C3B37005  16.427  41.651   7.904
 2673POPC   C4B37006  16.734  41.873   7.682
 2674POPC   NC337007  17.091  32.026   9.431
 2674POPC   PO437008  17.736  31.934   9.675
 2674POPC   GL137009  17.587  32.135   9.274
 2674POPC   GL237010  17.333  32.431   9.203
 2674POPC   C1A37011  17.674  32.271   8.854
 2674POPC   D2A37012  17.393  32.252   8.503
 2674POPC   C3A37013  17.612  32.369   8.141
 2674POPC   C4A37014  17.574  32.187   7.784
 2674POPC   C1B37015  17.010  32.381   8.850
 2674POPC   C2B37016  16.879  32.390   8.415
 2674POPC   C3B37017  17.088  32.317   8.023
 2674POPC   C4B37018  17.281  32.624   7.781
 2675POPC   NC337019  37.324  14.296   9.373
 2675POPC   PO437020  37.677  14.819   9.503
 2675POPC   GL137021  37.671  14.612   9.109
 2675POPC   GL237022  37.370  14.733   9.045
 2675POPC   C1A37023  37.743  14.428   8.701
 2675POPC   D2A37024  37.875  14.293   8.286
 2675POPC   C3A37025  37.576  14.086   8.030
 2675POPC   C4A37026  37.535  14.108   7.600
 2675POPC   C1B37027  37.540  14.909   8.682
 2675POPC   C2B37028  37.680  14.779   8.308
 2675POPC   C3B37029  37.508  14.591   7.972
 2675POPC   C4B37030  37.483  14.709   7.591
 2676POPC   NC337031   3.266  28.406   9.664
 2676POPC   PO437032   2.617  28.406   9.410
 2676POPC   GL137033   2.771  28.226   9.100
 2676POPC   GL237034   2.868  28.524   8.969
 2676POPC   C1A37035   2.823  28.097   8.700
 2676POPC   D2A37036   2.688  28.312   8.329
 2676POPC   C3A37037   2.680  28.089   7.943
 2676POPC   C4A37038   2.766  28.147   7.492
 2676POPC   C1B37039   2.787  28.746   8.613
 2676POPC   C2B37040   2.927  28.739   8.195
 2676POPC   C3B37041   2.818  28.560   7.842
 2676POPC   C4B37042   2.909  28.629   7.426
 2677POPC   NC337043  12.932  20.700   9.581
 2677POPC   PO437044  12.264  20.737   9.449
 2677POPC   GL137045  12.632  20.772   9.165
 2677POPC   GL237046  12.838  20.504   9.129
 2677POPC   C1A37047  12.849  20.866   8.769
 2677POPC   D2A37048  12.720  20.928   8.346
 2677POPC   C3A37049  12.874  20.745   7.958
 2677POPC   C4A37050  12.576  20.567   7.666
 2677POPC   C1B37051  12.642  20.399   8.760
 2677POPC   C2B37052  12.814  20.397   8.362
 2677POPC   C3B37053  12.857  20.201   7.958
 2677POPC   C4B37054  13.212  20.148   7.676
 2678POPC   NC337055   2.202   0.109   9.468
 2678POPC   PO437056   2.894   0.420   9.408
 2678POPC   GL137057   2.617   0.278   9.153
 2678POPC   GL237058   2.391   0.572   9.135
 2678POPC   C1A37059   2.811   0.200   8.749
 2678POPC   D2A37060   2.955   0.472   8.409
 2678POPC   C3A37061   2.869   0.444   7.978
 2678POPC   C4A37062   3.027   0.720   7.637
 2678POPC   C1B37063   2.685   0.705   8.795
 2678POPC   C2B37064   2.641   0.867   8.380
 2678POPC   C3B37065   2.560   0.887   7.950
 2678POPC   C4B37066   2.418   0.572   7.716
 2679POPC   NC337067  28.714   1.757   9.296
 2679POPC   PO437068  28.547   2.286   9.667
 2679POPC   GL137069  28.351   2.122   9.238
 2679POPC   GL237070  28.128   1.841   9.101
 2679POPC   C1A37071  28.470   2.206   8.770
 2679POPC   D2A37072  28.328   1.971   8.418
 2679POPC   C3A37073  28.578   1.929   8.073
 2679POPC   C4A37074  28.336   1.769   7.748
 2679POPC   C1B37075  27.972   2.146   8.751
 2679POPC   C2B37076  28.146   2.438   8.409
 2679POPC   C3B37077  28.174   2.287   7.980
 2679POPC   C4B37078  28.182   2.205   7.519
 2680POPC   NC337079  32.754  13.541   9.372
 2680POPC   PO437080  32.069  13.675   9.477
 2680POPC   GL137081  32.253  13.651   9.112
 2680POPC   GL237082  32.478  13.928   9.164
 2680POPC   C1A37083  32.100  13.693   8.685
 2680POPC   D2A37084  31.973  13.657   8.230
 2680POPC   C3A37085  32.061  13.419   7.859
 2680POPC   C4A37086  31.941  13.418   7.403
 2680POPC   C1B37087  32.591  13.800   8.750
 2680POPC   C2B37088  32.410  13.947   8.373
 2680POPC   C3B37089  32.371  13.868   7.963
 2680POPC   C4B37090  32.454  13.591   7.595
 2681POPC   NC337091  36.214  17.086   9.497
 2681POPC   PO437092  36.180  17.750   9.569
 2681POPC   GL137093  36.058  17.484   9.192
 2681POPC   GL237094  35.814  17.208   9.183
 2681POPC   C1A37095  36.111  17.590   8.749
 2681POPC   D2A37096  35.906  17.681   8.373
 2681POPC   C3A37097  36.196  17.707   8.095
 2681POPC   C4A37098  36.442  17.436   7.848
 2681POPC   C1B37099  36.033  17.072   8.802
 2681POPC   C2B37100  36.072  17.189   8.382
 2681POPC   C3B37101  35.945  17.282   7.966
 2681POPC   C4B37102  36.042  17.288   7.535
 2682POPC   NC337103  40.071  31.109   9.439
 2682POPC   PO437104  40.094  30.347   9.533
 2682POPC   GL137105  39.975  30.638   9.194
 2682POPC   GL237106  40.243  30.856   9.039
 2682POPC   C1A37107  39.791  30.850   8.822
 2682POPC   D2A37108  39.693  30.763   8.396
 2682POPC   C3A37109  39.943  30.911   8.063
 2682POPC   C4A37110  39.955  30.878   7.617
 2682POPC   C1B37111  40.199  30.513   8.733
 2682POPC   C2B37112  40.091  30.394   8.310
 2682POPC   C3B37113  40.183  30.497   7.876
 2682POPC   C4B37114  40.270  30.554   7.412
 2683POPC   NC337115  11.578  26.375   9.343
 2683POPC   PO437116  10.917  26.126   9.430
 2683POPC   GL137117  11.282  25.968   9.166
 2683POPC   GL237118  11.069  25.949   8.881
 2683POPC   C1A37119  11.584  25.949   8.795
 2683POPC   D2A37120  11.599  26.121   8.372
 2683POPC   C3A37121  11.519  25.914   7.989
 2683POPC   C4A37122  11.470  26.041   7.573
 2683POPC   C1B37123  10.914  26.325   8.665
 2683POPC   C2B37124  11.034  26.399   8.261
 2683POPC   C3B37125  11.080  26.127   7.899
 2683POPC   C4B37126  10.998  26.207   7.455
 2684POPC   NC337127   8.985  21.468   9.695
 2684POPC   PO437128   9.484  21.092   9.622
 2684POPC   GL137129   9.160  21.179   9.271
 2684POPC   GL237130   9.031  21.532   9.203
 2684POPC   C1A37131   8.971  21.141   8.836
 2684POPC   D2A37132   8.667  21.121   8.472
 2684POPC   C3A37133   8.891  21.182   8.062
 2684POPC   C4A37134   9.312  21.108   7.956
 2684POPC   C1B37135   8.904  21.772   8.856
 2684POPC   C2B37136   9.075  21.891   8.463
 2684POPC   C3B37137   9.060  21.686   8.065
 2684POPC   C4B37138   8.845  21.713   7.653
 2685POPC   NC337139  37.263  29.527   9.666
 2685POPC   PO437140  37.741  29.963   9.492
 2685POPC   GL137141  37.705  29.918   9.073
 2685POPC   GL237142  37.392  29.683   9.042
 2685POPC   C1A37143  37.852  30.056   8.666
 2685POPC   D2A37144  37.554  30.241   8.374
 2685POPC   C3A37145  37.449  29.992   8.004
 2685POPC   C4A37146  37.815  29.801   7.815
 2685POPC   C1B37147  37.724  29.550   8.727
 2685POPC   C2B37148  37.778  29.617   8.303
 2685POPC   C3B37149  37.546  29.412   7.987
 2685POPC   C4B37150  37.300  29.522   7.669
 2686POPC   NC337151   5.961  37.691   9.579
 2686POPC   PO437152   6.000  38.339   9.522
 2686POPC   GL137153   5.907  38.036   9.178
 2686POPC   GL237154   5.923  37.643   9.093
 2686POPC   C1A37155   5.795  37.997   8.765
 2686POPC   D2A37156   5.689  37.786   8.406
 2686POPC   C3A37157   5.906  37.786   8.028
 2686POPC   C4A37158   5.816  37.982   7.645
 2686POPC   C1B37159   5.604  37.486   8.808
 2686POPC   C2B37160   5.684  37.282   8.400
 2686POPC   C3B37161   5.550  37.422   7.999
 2686POPC   C4B37162   5.688  37.486   7.587
 2687POPC   NC337163  27.976  13.898   9.459
 2687POPC   PO437164  28.558  13.472   9.465
 2687POPC   GL137165  28.480  13.622   9.050
 2687POPC   GL237166  28.373  13.977   9.109
 2687POPC   C1A37167  28.470  13.420   8.617
 2687POPC   D2A37168  28.727  13.299   8.261
 2687POPC   C3A37169  28.435  13.488   7.938
 2687POPC   C4A37170  28.363  13.904   7.790
 2687POPC   C1B37171  28.122  13.806   8.734
 2687POPC   C2B37172  28.192  13.796   8.273
 2687POPC   C3B37173  27.902  14.003   7.971
 2687POPC   C4B37174  28.003  14.180   7.556
 2688POPC   NC337175  13.190  21.603   9.415
 2688POPC   PO437176  12.711  21.123   9.545
 2688POPC   GL137177  12.923  21.240   9.147
 2688POPC   GL237178  12.764  21.588   9.113
 2688POPC   C1A37179  13.228  21.222   8.764
 2688POPC   D2A37180  13.136  21.272   8.295
 2688POPC   C3A37181  12.731  21.372   8.102
 2688POPC   C4A37182  12.470  21.137   7.782
 2688POPC   C1B37183  12.954  21.657   8.712
 2688POPC   C2B37184  13.004  21.866   8.332
 2688POPC   C3B37185  12.974  21.783   7.933
 2688POPC   C4B37186  12.659  21.635   7.663
 2689POPC   NC337187   0.467   0.122   9.577
 2689POPC   PO437188   0.496   0.770   9.475
 2689POPC   GL137189   0.428   0.471   9.150
 2689POPC   GL237190   0.271   0.166   9.123
 2689POPC   C1A37191   0.479   0.524   8.729
 2689POPC   D2A37192   0.178   0.395   8.438
 2689POPC   C3A37193   0.335   0.457   8.049
 2689POPC   C4A37194   0.126   0.529   7.664
 2689POPC   C1B37195   0.417   0.013   8.713
 2689POPC   C2B37196   0.654   0.161   8.389
 2689POPC   C3B37197   0.614   0.009   8.007
 2689POPC   C4B37198   0.544   0.239   7.645
 2690POPC   NC337199  14.999  43.322   9.468
 2690POPC   PO437200  15.405  42.813   9.752
 2690POPC   GL137201  15.282  42.917   9.299
 2690POPC   GL237202  15.512  43.120   9.108
 2690POPC   C1A37203  15.182  42.782   8.859
 2690POPC   D2A37204  14.809  42.681   8.564
 2690POPC   C3A37205  14.841  42.753   8.135
 2690POPC   C4A37206  15.029  42.978   7.825
 2690POPC   C1B37207  15.330  43.302   8.719
 2690POPC   C2B37208  15.165  43.244   8.268
 2690POPC   C3B37209  15.267  43.420   7.841
 2690POPC   C4B37210  15.516  43.356   7.429
 2691POPC   NC337211  41.440   5.603   9.428
 2691POPC   PO437212  41.238   6.127   9.323
 2691POPC   GL137213  41.429   5.879   8.998
 2691POPC   GL237214  41.760   5.905   9.075
 2691POPC   C1A37215  41.559   5.740   8.578
 2691POPC   D2A37216  41.328   5.858   8.200
 2691POPC   C3A37217  41.523   5.736   7.806
 2691POPC   C4A37218  41.434   5.650   7.375
 2691POPC   C1B37219  41.747   6.200   8.710
 2691POPC   C2B37220  41.702   6.193   8.252
 2691POPC   C3B37221  41.862   6.134   7.822
 2691POPC   C4B37222  42.023   6.373   7.465
 2692POPC   NC337223  19.815   5.919   9.881
 2692POPC   PO437224  20.255   6.384   9.545
 2692POPC   GL137225  19.892   6.104   9.392
 2692POPC   GL237226  19.589   6.278   9.295
 2692POPC   C1A37227  19.766   5.875   8.997
 2692POPC   D2A37228  19.969   5.910   8.577
 2692POPC   C3A37229  19.856   5.880   8.117
 2692POPC   C4A37230  19.758   5.666   7.723
 2692POPC   C1B37231  19.644   6.321   8.804
 2692POPC   C2B37232  19.521   6.170   8.395
 2692POPC   C3B37233  19.545   6.250   7.943
 2692POPC   C4B37234  19.494   6.121   7.492
 2693POPC   NC337235  18.227   1.306   9.524
 2693POPC   PO437236  18.693   0.949   9.751
 2693POPC   GL137237  18.793   1.007   9.274
 2693POPC   GL237238  18.572   1.215   9.102
 2693POPC   C1A37239  18.954   0.940   8.823
 2693POPC   D2A37240  19.191   0.780   8.436
 2693POPC   C3A37241  19.203   0.947   8.030
 2693POPC   C4A37242  19.278   0.856   7.613
 2693POPC   C1B37243  18.457   1.064   8.681
 2693POPC   C2B37244  18.724   1.027   8.338
 2693POPC   C3B37245  18.816   1.272   7.975
 2693POPC   C4B37246  18.689   1.294   7.576
 2694POPC   NC337247  34.233  43.096   9.412
 2694POPC   PO437248  33.637  43.137   9.628
 2694POPC   GL137249  33.781  43.239   9.222
 2694POPC   GL237250  33.728  42.886   9.159
 2694POPC   C1A37251  33.684  43.206   8.765
 2694POPC   D2A37252  33.650  42.878   8.421
 2694POPC   C3A37253  33.555  43.041   7.987
 2694POPC   C4A37254  33.786  43.338   7.726
 2694POPC   C1B37255  34.053  42.874   8.814
 2694POPC   C2B37256  34.119  43.103   8.429
 2694POPC   C3B37257  34.071  42.878   8.041
 2694POPC   C4B37258  33.964  42.857   7.616
 2695POPC   NC337259  39.449   3.521   9.626
 2695POPC   PO437260  39.098   3.870   9.204
 2695POPC   GL137261  39.182   3.427   9.165
 2695POPC   GL237262  39.537   3.369   9.117
 2695POPC   C1A37263  39.062   3.252   8.756
 2695POPC   D2A37264  39.063   3.542   8.394
 2695POPC   C3A37265  39.007   3.447   7.985
 2695POPC   C4A37266  38.794   3.647   7.685
 2695POPC   C1B37267  39.439   3.586   8.736
 2695POPC   C2B37268  39.580   3.635   8.363
 2695POPC   C3B37269  39.411   3.774   8.035
 2695POPC   C4B37270  39.396   3.636   7.665
 2696POPC   NC337271  16.494   0.676   9.567
 2696POPC   PO437272  16.831   1.256   9.716
 2696POPC   GL137273  16.846   1.159   9.221
 2696POPC   GL237274  16.987   0.868   9.000
 2696POPC   C1A37275  16.865   1.316   8.791
 2696POPC   D2A37276  16.889   1.516   8.396
 2696POPC   C3A37277  16.816   1.275   8.035
 2696POPC   C4A37278  16.718   1.365   7.611
 2696POPC   C1B37279  16.739   0.785   8.648
 2696POPC   C2B37280  16.791   0.708   8.199
 2696POPC   C3B37281  16.937   0.722   7.786
 2696POPC   C4B37282  17.077   1.027   7.428
 2697POPC   NC337283  25.302  20.805   9.534
 2697POPC   PO437284  25.071  20.188   9.420
 2697POPC   GL137285  25.142  20.564   9.106
 2697POPC   GL237286  25.473  20.728   9.070
 2697POPC   C1A37287  25.147  20.823   8.706
 2697POPC   D2A37288  25.290  20.673   8.316
 2697POPC   C3A37289  25.114  20.783   7.945
 2697POPC   C4A37290  25.218  20.437   7.707
 2697POPC   C1B37291  25.607  20.554   8.701
 2697POPC   C2B37292  25.811  20.672   8.321
 2697POPC   C3B37293  25.627  20.682   7.890
 2697POPC   C4B37294  25.663  20.498   7.465
 2698POPC   NC337295  36.886  24.081   9.420
 2698POPC   PO437296  37.081  24.714   9.552
 2698POPC   GL137297  36.863  24.627   9.146
 2698POPC   GL237298  36.932  24.322   8.956
 2698POPC   C1A37299  36.829  24.762   8.695
 2698POPC   D2A37300  36.884  24.488   8.324
 2698POPC   C3A37301  36.758  24.625   7.915
 2698POPC   C4A37302  37.142  24.703   7.781
 2698POPC   C1B37303  36.809  24.052   8.617
 2698POPC   C2B37304  36.680  24.020   8.230
 2698POPC   C3B37305  36.784  24.114   7.850
 2698POPC   C4B37306  36.909  24.310   7.518
 2699POPC   NC337307   5.443   3.473   9.511
 2699POPC   PO437308   4.995   3.904   9.488
 2699POPC   GL137309   5.315   3.858   9.156
 2699POPC   GL237310   5.380   3.497   9.021
 2699POPC   C1A37311   5.068   3.840   8.788
 2699POPC   D2A37312   4.869   3.573   8.515
 2699POPC   C3A37313   4.948   3.622   8.096
 2699POPC   C4A37314   4.984   3.352   7.720
 2699POPC   C1B37315   5.385   3.486   8.595
 2699POPC   C2B37316   5.264   3.249   8.255
 2699POPC   C3B37317   5.485   3.235   7.887
 2699POPC   C4B37318   5.429   3.277   7.456
 2700POPC   NC337319  20.425  17.966   9.552
 2700POPC   PO437320  19.787  17.766   9.543
 2700POPC   GL137321  19.936  17.666   9.138
 2700POPC   GL237322  20.229  17.808   9.097
 2700POPC   C1A37323  19.854  17.761   8.698
 2700POPC   D2A37324  19.685  17.792   8.264
 2700POPC   C3A37325  19.652  17.392   8.057
 2700POPC   C4A37326  19.827  17.240   7.651
 2700POPC   C1B37327  20.353  17.853   8.686
 2700POPC   C2B37328  20.223  17.658   8.310
 2700POPC   C3B37329  20.084  17.627   7.892
 2700POPC   C4B37330  20.270  17.510   7.478
 2701POPC   NC337331  34.287  38.090   9.467
 2701POPC   PO437332  34.861  37.845   9.377
 2701POPC   GL137333  34.660  37.832   9.011
 2701POPC   GL237334  34.298  37.926   8.996
 2701POPC   C1A37335  34.798  37.668   8.616
 2701POPC   D2A37336  34.948  37.789   8.209
 2701POPC   C3A37337  34.631  37.778   7.891
 2701POPC   C4A37338  34.650  37.379   7.723
 2701POPC   C1B37339  34.303  37.508   8.856
 2701POPC   C2B37340  34.308  37.558   8.424
 2701POPC   C3B37341  34.247  37.332   8.066
 2701POPC   C4B37342  34.142  37.410   7.662
 2702POPC   NC337343   5.677  24.520   9.519
 2702POPC   PO437344   6.352  24.442   9.571
 2702POPC   GL137345   6.028  24.261   9.226
 2702POPC   GL237346   5.678  24.415   9.044
 2702POPC   C1A37347   5.941  24.091   8.797
 2702POPC   D2A37348   5.994  24.009   8.372
 2702POPC   C3A37349   5.665  24.087   8.062
 2702POPC   C4A37350   5.666  24.441   7.777
 2702POPC   C1B37351   5.546  24.476   8.612
 2702POPC   C2B37352   5.813  24.557   8.255
 2702POPC   C3B37353   5.940  24.852   7.924
 2702POPC   C4B37354   5.940  24.837   7.454
 2703POPC   NC337355  36.106  29.353   9.599
 2703POPC   PO437356  36.065  30.007   9.570
 2703POPC   GL137357  36.085  29.832   9.198
 2703POPC   GL237358  36.427  29.782   9.148
 2703POPC   C1A37359  36.041  29.975   8.796
 2703POPC   D2A37360  36.088  29.866   8.387
 2703POPC   C3A37361  36.203  30.114   8.035
 2703POPC   C4A37362  36.053  30.025   7.632
 2703POPC   C1B37363  36.552  29.922   8.748
 2703POPC   C2B37364  36.587  29.942   8.335
 2703POPC   C3B37365  36.430  29.668   8.023
 2703POPC   C4B37366  36.538  29.903   7.683
 2704POPC   NC337367  21.616  12.473   9.551
 2704POPC   PO437368  21.238  11.931   9.429
 2704POPC   GL137369  21.411  12.186   9.131
 2704POPC   GL237370  21.742  12.184   9.145
 2704POPC   C1A37371  21.420  12.103   8.689
 2704POPC   D2A37372  21.073  12.068   8.373
 2704POPC   C3A37373  21.183  12.021   7.961
 2704POPC   C4A37374  21.199  12.366   7.747
 2704POPC   C1B37375  21.980  12.267   8.814
 2704POPC   C2B37376  21.931  12.102   8.417
 2704POPC   C3B37377  21.666  11.970   8.089
 2704POPC   C4B37378  21.632  11.665   7.778
 2705POPC   NC337379   9.188  44.574   9.606
 2705POPC   PO437380   8.794  44.998   9.532
 2705POPC   GL137381   8.917  44.870   9.163
 2705POPC   GL237382   9.236  44.891   9.221
 2705POPC   C1A37383   8.753  44.673   8.781
 2705POPC   D2A37384   8.657  44.438   8.380
 2705POPC   C3A37385   8.708  44.654   7.994
 2705POPC   C4A37386   8.555  44.433   7.662
 2705POPC   C1B37387   9.265  44.936   8.782
 2705POPC   C2B37388   9.135  44.712   8.431
 2705POPC   C3B37389   9.193  44.835   8.041
 2705POPC   C4B37390   9.117  44.610   7.667
 2706POPC   NC337391  25.874  17.048   9.456
 2706POPC   PO437392  26.262  16.415   9.548
 2706POPC   GL137393  26.109  16.652   9.184
 2706POPC   GL237394  26.313  16.967   9.157
 2706POPC   C1A37395  25.842  16.782   8.805
 2706POPC   D2A37396  25.900  16.894   8.354
 2706POPC   C3A37397  25.787  16.623   8.020
 2706POPC   C4A37398  25.917  16.671   7.626
 2706POPC   C1B37399  26.363  16.790   8.735
 2706POPC   C2B37400  26.357  16.653   8.314
 2706POPC   C3B37401  26.359  16.792   7.857
 2706POPC   C4B37402  26.326  16.793   7.375
 2707POPC   NC337403  23.876  16.458   9.506
 2707POPC   PO437404  23.736  15.803   9.489
 2707POPC   GL137405  23.842  16.005   9.134
 2707POPC   GL237406  23.628  16.296   9.093
 2707POPC   C1A37407  23.657  15.819   8.779
 2707POPC   D2A37408  23.665  15.918   8.348
 2707POPC   C3A37409  23.875  15.573   8.115
 2707POPC   C4A37410  23.783  15.824   7.813
 2707POPC   C1B37411  23.579  16.310   8.686
 2707POPC   C2B37412  23.413  16.423   8.279
 2707POPC   C3B37413  23.341  16.117   7.953
 2707POPC   C4B37414  23.664  16.311   7.727
 2708POPC   NC337415  39.437  37.632   9.668
 2708POPC   PO437416  40.028  37.985   9.533
 2708POPC   GL137417  39.902  37.744   9.173
 2708POPC   GL237418  39.757  37.417   9.252
 2708POPC   C1A37419  39.782  37.778   8.723
 2708POPC   D2A37420  39.802  38.071   8.435
 2708POPC   C3A37421  39.818  37.855   8.088
 2708POPC   C4A37422  39.892  37.939   7.659
 2708POPC   C1B37423  39.808  37.285   8.820
 2708POPC   C2B37424  39.806  37.383   8.361
 2708POPC   C3B37425  39.934  37.354   7.918
 2708POPC   C4B37426  39.762  37.390   7.503
 2709POPC   NC337427  42.269  18.565   9.426
 2709POPC   PO437428  42.099  19.199   9.479
 2709POPC   GL137429  42.401  19.066   9.222
 2709POPC   GL237430  42.671  19.321   9.210
 2709POPC   C1A37431  42.385  18.895   8.811
 2709POPC   D2A37432  42.451  18.782   8.378
 2709POPC   C3A37433  42.176  18.965   8.097
 2709POPC   C4A37434  42.161  18.964   7.653
 2709POPC   C1B37435  42.413  19.435   8.868
 2709POPC   C2B37436  42.421  19.299   8.460
 2709POPC   C3B37437  42.629  19.199   8.097
 2709POPC   C4B37438  42.538  19.316   7.680
 2710POPC   NC337439  16.592  20.847   9.788
 2710POPC   PO437440  16.405  20.441   9.282
 2710POPC   GL137441  16.696  20.685   9.038
 2710POPC   GL237442  16.803  20.998   9.190
 2710POPC   C1A37443  16.690  20.613   8.593
 2710POPC   D2A37444  16.392  20.426   8.276
 2710POPC   C3A37445  16.504  20.375   7.836
 2710POPC   C4A37446  16.757  20.449   7.447
 2710POPC   C1B37447  17.082  20.993   8.821
 2710POPC   C2B37448  17.077  20.860   8.392
 2710POPC   C3B37449  16.826  20.721   8.059
 2710POPC   C4B37450  17.027  20.938   7.734
 2711POPC   NC337451  36.799  29.472   9.320
 2711POPC   PO437452  37.085  29.945   9.544
 2711POPC   GL137453  36.944  29.936   9.115
 2711POPC   GL237454  36.744  30.211   9.129
 2711POPC   C1A37455  37.070  29.847   8.675
 2711POPC   D2A37456  37.179  29.553   8.340
 2711POPC   C3A37457  36.947  29.712   7.997
 2711POPC   C4A37458  37.057  29.951   7.625
 2711POPC   C1B37459  36.853  30.335   8.690
 2711POPC   C2B37460  37.018  30.195   8.289
 2711POPC   C3B37461  36.776  30.266   7.927
 2711POPC   C4B37462  36.791  30.334   7.441
 2712POPC   NC337463  25.907  34.119   9.433
 2712POPC   PO437464  26.205  33.574   9.360
 2712POPC   GL137465  25.964  33.780   9.060
 2712POPC   GL237466  25.685  33.556   9.029
 2712POPC   C1A37467  25.871  33.944   8.665
 2712POPC   D2A37468  25.827  33.696   8.294
 2712POPC   C3A37469  25.799  33.943   7.938
 2712POPC   C4A37470  26.098  34.100   7.733
 2712POPC   C1B37471  25.922  33.374   8.693
 2712POPC   C2B37472  26.103  33.257   8.272
 2712POPC   C3B37473  26.200  33.585   7.960
 2712POPC   C4B37474  26.562  33.659   7.756
 2713POPC   NC337475  38.975   1.687   9.684
 2713POPC   PO437476  39.430   2.171   9.578
 2713POPC   GL137477  39.244   2.077   9.182
 2713POPC   GL237478  39.166   1.703   9.170
 2713POPC   C1A37479  39.138   1.948   8.715
 2713POPC   D2A37480  39.186   1.737   8.322
 2713POPC   C3A37481  39.278   2.019   7.995
 2713POPC   C4A37482  38.902   2.179   7.779
 2713POPC   C1B37483  39.579   1.810   8.929
 2713POPC   C2B37484  39.670   1.943   8.507
 2713POPC   C3B37485  39.825   1.831   8.111
 2713POPC   C4B37486  39.701   1.945   7.703
 2714POPC   NC337487   6.807  40.678   9.433
 2714POPC   PO437488   6.105  40.851   9.275
 2714POPC   GL137489   6.416  40.708   9.113
 2714POPC   GL237490   6.669  40.962   9.047
 2714POPC   C1A37491   6.519  40.544   8.755
 2714POPC   D2A37492   6.429  40.406   8.378
 2714POPC   C3A37493   6.760  40.563   8.124
 2714POPC   C4A37494   6.664  40.608   7.710
 2714POPC   C1B37495   6.907  40.895   8.670
 2714POPC   C2B37496   7.046  40.964   8.256
 2714POPC   C3B37497   7.079  40.876   7.848
 2714POPC   C4B37498   6.703  41.134   7.833
 2715POPC   NC337499   6.822  15.563   9.519
 2715POPC   PO437500   6.612  14.951   9.511
 2715POPC   GL137501   6.456  15.042   9.113
 2715POPC   GL237502   6.547  15.381   9.097
 2715POPC   C1A37503   6.351  15.149   8.681
 2715POPC   D2A37504   6.547  15.399   8.368
 2715POPC   C3A37505   6.378  15.337   7.974
 2715POPC   C4A37506   6.566  15.372   7.558
 2715POPC   C1B37507   6.840  15.108   8.795
 2715POPC   C2B37508   6.808  14.927   8.367
 2715POPC   C3B37509   6.838  15.154   7.963
 2715POPC   C4B37510   7.035  15.178   7.571
 2716POPC   NC337511   3.950  16.438   9.631
 2716POPC   PO437512   4.419  16.896   9.571
 2716POPC   GL137513   4.448  16.844   9.170
 2716POPC   GL237514   4.095  16.764   9.146
 2716POPC   C1A37515   4.336  17.021   8.762
 2716POPC   D2A37516   4.198  16.804   8.380
 2716POPC   C3A37517   4.367  16.923   8.006
 2716POPC   C4A37518   4.096  17.120   7.717
 2716POPC   C1B37519   4.346  16.505   8.825
 2716POPC   C2B37520   4.519  16.265   8.476
 2716POPC   C3B37521   4.438  16.430   8.080
 2716POPC   C4B37522   4.645  16.601   7.690
 2717POPC   NC337523   3.421  24.268   9.489
 2717POPC   PO437524   3.780  24.780   9.495
 2717POPC   GL137525   3.683  24.591   9.139
 2717POPC   GL237526   3.356  24.606   9.126
 2717POPC   C1A37527   3.653  24.671   8.693
 2717POPC   D2A37528   3.824  24.784   8.271
 2717POPC   C3A37529   3.802  24.448   7.962
 2717POPC   C4A37530   3.650  24.501   7.540
 2717POPC   C1B37531   3.247  24.349   8.816
 2717POPC   C2B37532   3.093  24.465   8.423
 2717POPC   C3B37533   3.295  24.507   8.049
 2717POPC   C4B37534   3.104  24.463   7.678
 2718POPC   NC337535  33.414   4.647   9.835
 2718POPC   PO437536  33.010   4.259   9.565
 2718POPC   GL137537  32.905   4.141   9.128
 2718POPC   GL237538  32.919   4.486   9.057
 2718POPC   C1A37539  32.724   4.166   8.707
 2718POPC   D2A37540  32.827   4.231   8.279
 2718POPC   C3A37541  33.000   3.946   8.006
 2718POPC   C4A37542  33.450   3.952   7.821
 2718POPC   C1B37543  32.977   4.610   8.616
 2718POPC   C2B37544  32.667   4.706   8.285
 2718POPC   C3B37545  32.717   4.536   7.862
 2718POPC   C4B37546  32.833   4.619   7.409
 2719POPC   NC337547   3.971  17.179   9.527
 2719POPC   PO437548   4.540  17.692   9.619
 2719POPC   GL137549   4.342  17.465   9.310
 2719POPC   GL237550   4.601  17.320   9.184
 2719POPC   C1A37551   4.094  17.450   8.934
 2719POPC   D2A37552   4.161  17.594   8.517
 2719POPC   C3A37553   4.091  17.341   8.171
 2719POPC   C4A37554   4.049  17.615   7.803
 2719POPC   C1B37555   4.583  17.495   8.780
 2719POPC   C2B37556   4.557  17.275   8.366
 2719POPC   C3B37557   4.532  17.385   7.910
 2719POPC   C4B37558   4.561  17.071   7.520
 2720POPC   NC337559  13.308  18.084   9.539
 2720POPC   PO437560  13.965  18.135   9.448
 2720POPC   GL137561  13.689  18.100   9.108
 2720POPC   GL237562  13.383  18.296   9.115
 2720POPC   C1A37563  13.617  18.230   8.687
 2720POPC   D2A37564  13.398  18.139   8.353
 2720POPC   C3A37565  13.675  18.182   8.028
 2720POPC   C4A37566  13.433  18.161   7.689
 2720POPC   C1B37567  13.200  18.520   8.823
 2720POPC   C2B37568  13.375  18.663   8.485
 2720POPC   C3B37569  13.373  18.589   8.066
 2720POPC   C4B37570  13.083  18.522   7.726
 2721POPC   NC337571   5.037   4.786   9.591
 2721POPC   PO437572   5.232   5.452   9.433
 2721POPC   GL137573   5.246   5.067   9.194
 2721POPC   GL237574   4.894   5.068   9.188
 2721POPC   C1A37575   5.194   4.952   8.728
 2721POPC   D2A37576   5.321   5.249   8.350
 2721POPC   C3A37577   5.287   5.221   7.865
 2721POPC   C4A37578   5.209   5.411   7.408
 2721POPC   C1B37579   4.726   5.109   8.798
 2721POPC   C2B37580   4.820   5.075   8.380
 2721POPC   C3B37581   4.831   5.316   8.058
 2721POPC   C4B37582   4.823   5.204   7.660
 2722POPC   NC337583  13.137  23.333   9.728
 2722POPC   PO437584  12.457  23.221   9.520
 2722POPC   GL137585  12.738  23.083   9.121
 2722POPC   GL237586  13.083  23.132   9.152
 2722POPC   C1A37587  12.779  23.187   8.690
 2722POPC   D2A37588  12.637  22.913   8.433
 2722POPC   C3A37589  12.676  22.815   8.056
 2722POPC   C4A37590  12.723  23.049   7.676
 2722POPC   C1B37591  13.101  22.817   8.764
 2722POPC   C2B37592  13.172  22.841   8.269
 2722POPC   C3B37593  13.071  22.621   7.834
 2722POPC   C4B37594  12.973  22.737   7.371
 2723POPC   NC337595  25.435  35.468   9.467
 2723POPC   PO437596  24.798  35.691   9.450
 2723POPC   GL137597  25.036  35.354   9.154
 2723POPC   GL237598  25.404  35.300   8.995
 2723POPC   C1A37599  24.979  35.164   8.747
 2723POPC   D2A37600  24.981  35.294   8.328
 2723POPC   C3A37601  25.219  35.196   7.936
 2723POPC   C4A37602  25.026  34.968   7.590
 2723POPC   C1B37603  25.280  35.614   8.672
 2723POPC   C2B37604  25.326  35.880   8.292
 2723POPC   C3B37605  25.413  35.898   7.832
 2723POPC   C4B37606  25.606  35.679   7.437
 2724POPC   NC337607  13.398  14.656   9.590
 2724POPC   PO437608  13.833  14.123   9.563
 2724POPC   GL137609  13.564  14.267   9.285
 2724POPC   GL237610  13.690  14.575   9.193
 2724POPC   C1A37611  13.525  14.228   8.843
 2724POPC   D2A37612  13.851  14.140   8.548
 2724POPC   C3A37613  13.677  14.119   8.121
 2724POPC   C4A37614  13.722  14.204   7.676
 2724POPC   C1B37615  13.791  14.664   8.822
 2724POPC   C2B37616  13.601  14.594   8.477
 2724POPC   C3B37617  13.438  14.712   8.142
 2724POPC   C4B37618  13.734  14.682   7.815
 2725POPC   NC337619  44.187  38.203   9.480
 2725POPC   PO437620  44.823  38.489   9.551
 2725POPC   GL137621  44.650  38.337   9.214
 2725POPC   GL237622  44.895  38.118   9.125
 2725POPC   C1A37623  44.412  38.457   8.858
 2725POPC   D2A37624  44.544  38.658   8.473
 2725POPC   C3A37625  44.504  38.443   8.060
 2725POPC   C4A37626  44.499  38.474   7.618
 2725POPC   C1B37627  44.932  38.406   8.766
 2725POPC   C2B37628  44.975  38.451   8.314
 2725POPC   C3B37629   0.191  38.594   7.957
 2725POPC   C4B37630   0.009  38.509   7.589
 2726POPC   NC337631   5.069  19.517   9.495
 2726POPC   PO437632   4.737  20.080   9.398
 2726POPC   GL137633   5.040  19.888   9.137
 2726POPC   GL237634   5.347  20.083   9.000
 2726POPC   C1A37635   4.911  19.679   8.783
 2726POPC   D2A37636   4.772  19.867   8.407
 2726POPC   C3A37637   4.760  19.581   8.056
 2726POPC   C4A37638   4.787  19.850   7.705
 2726POPC   C1B37639   5.416  19.709   8.756
 2726POPC   C2B37640   5.227  19.619   8.371
 2726POPC   C3B37641   5.211  19.827   7.988
 2726POPC   C4B37642   5.233  19.450   7.793
 2727POPC   NC337643   3.305   4.940   9.248
 2727POPC   PO437644   3.665   5.218   9.771
 2727POPC   GL137645   3.637   5.321   9.231
 2727POPC   GL237646   3.809   5.039   9.062
 2727POPC   C1A37647   3.480   5.350   8.773
 2727POPC   D2A37648   3.678   5.372   8.379
 2727POPC   C3A37649   3.558   5.134   7.998
 2727POPC   C4A37650   3.454   5.192   7.557
 2727POPC   C1B37651   3.763   4.936   8.636
 2727POPC   C2B37652   3.443   4.800   8.382
 2727POPC   C3B37653   3.494   4.591   7.998
 2727POPC   C4B37654   3.537   4.674   7.557
 2728POPC   NC337655  10.305   2.485   9.496
 2728POPC   PO437656  10.957   2.364   9.533
 2728POPC   GL137657  10.669   2.471   9.103
 2728POPC   GL237658  10.281   2.557   9.000
 2728POPC   C1A37659  10.625   2.711   8.668
 2728POPC   D2A37660  10.460   2.596   8.219
 2728POPC   C3A37661  10.605   2.792   7.816
 2728POPC   C4A37662  10.873   3.112   7.705
 2728POPC   C1B37663  10.100   2.965   8.801
 2728POPC   C2B37664  10.156   3.152   8.400
 2728POPC   C3B37665  10.144   2.934   7.981
 2728POPC   C4B37666  10.126   2.529   7.717
 2729POPC   NC337667   2.669   3.153   9.743
 2729POPC   PO437668   3.024   2.514   9.677
 2729POPC   GL137669   2.806   2.607   9.259
 2729POPC   GL237670   2.586   2.911   9.274
 2729POPC   C1A37671   2.751   2.517   8.796
 2729POPC   D2A37672   2.871   2.680   8.381
 2729POPC   C3A37673   2.609   2.594   8.029
 2729POPC   C4A37674   2.459   2.612   7.613
 2729POPC   C1B37675   2.473   2.990   8.852
 2729POPC   C2B37676   2.392   2.888   8.405
 2729POPC   C3B37677   2.518   3.102   8.014
 2729POPC   C4B37678   2.472   3.136   7.552
 2730POPC   NC337679   2.250  18.827   9.436
 2730POPC   PO437680   1.746  19.274   9.385
 2730POPC   GL137681   2.013  19.137   9.085
 2730POPC   GL237682   1.859  18.836   9.075
 2730POPC   C1A37683   1.837  19.164   8.671
 2730POPC   D2A37684   1.727  19.409   8.341
 2730POPC   C3A37685   1.918  19.209   7.997
 2730POPC   C4A37686   1.808  19.136   7.596
 2730POPC   C1B37687   2.095  18.732   8.741
 2730POPC   C2B37688   1.902  18.634   8.389
 2730POPC   C3B37689   2.046  18.709   8.041
 2730POPC   C4B37690   2.205  18.807   7.675
 2731POPC   NC337691   7.926  39.268   9.594
 2731POPC   PO437692   7.298  39.477   9.766
 2731POPC   GL137693   7.370  39.340   9.295
 2731POPC   GL237694   7.677  39.531   9.197
 2731POPC   C1A37695   7.286  39.180   8.830
 2731POPC   D2A37696   7.038  39.314   8.479
 2731POPC   C3A37697   7.107  39.185   8.036
 2731POPC   C4A37698   7.450  38.915   7.905
 2731POPC   C1B37699   7.575  39.580   8.759
 2731POPC   C2B37700   7.542  39.296   8.373
 2731POPC   C3B37701   7.555  39.436   7.949
 2731POPC   C4B37702   7.773  39.654   7.628
 2732POPC   NC337703  34.995   1.639   9.560
 2732POPC   PO437704  35.648   1.492   9.382
 2732POPC   GL137705  35.408   1.183   9.125
 2732POPC   GL237706  35.040   1.218   9.174
 2732POPC   C1A37707  35.499   1.005   8.705
 2732POPC   D2A37708  35.320   0.861   8.306
 2732POPC   C3A37709  35.394   1.175   7.980
 2732POPC   C4A37710  35.206   1.052   7.600
 2732POPC   C1B37711  35.109   1.388   8.752
 2732POPC   C2B37712  34.983   1.280   8.329
 2732POPC   C3B37713  34.939   1.387   7.893
 2732POPC   C4B37714  34.993   1.476   7.441
 2733POPC   NC337715  30.283  42.407   9.485
 2733POPC   PO437716  30.892  42.019   9.461
 2733POPC   GL137717  30.634  42.179   9.128
 2733POPC   GL237718  30.673  42.505   9.125
 2733POPC   C1A37719  30.482  42.267   8.704
 2733POPC   D2A37720  30.594  42.111   8.301
 2733POPC   C3A37721  30.593  42.332   7.935
 2733POPC   C4A37722  30.230  42.337   7.746
 2733POPC   C1B37723  30.962  42.486   8.743
 2733POPC   C2B37724  31.121  42.730   8.381
 2733POPC   C3B37725  30.953  42.908   7.990
 2733POPC   C4B37726  30.809  42.712   7.579
 2734POPC   NC337727  20.952  29.321   9.512
 2734POPC   PO437728  20.355  28.974   9.421
 2734POPC   GL137729  20.529  29.308   9.146
 2734POPC   GL237730  20.882  29.226   9.031
 2734POPC   C1A37731  20.525  29.304   8.688
 2734POPC   D2A37732  20.583  28.973   8.408
 2734POPC   C3A37733  20.458  28.989   7.945
 2734POPC   C4A37734  20.513  29.080   7.478
 2734POPC   C1B37735  21.035  29.194   8.609
 2734POPC   C2B37736  20.917  29.261   8.177
 2734POPC   C3B37737  20.935  29.165   7.753
 2734POPC   C4B37738  20.947  29.386   7.361
 2735POPC   NC337739   4.011  38.018   9.540
 2735POPC   PO437740   4.014  37.322   9.629
 2735POPC   GL137741   4.205  37.556   9.289
 2735POPC   GL237742   3.959  37.523   9.080
 2735POPC   C1A37743   4.357  37.753   8.843
 2735POPC   D2A37744   4.172  37.778   8.404
 2735POPC   C3A37745   4.336  37.777   7.954
 2735POPC   C4A37746   4.666  37.612   7.672
 2735POPC   C1B37747   3.827  37.890   8.842
 2735POPC   C2B37748   3.706  38.005   8.409
 2735POPC   C3B37749   3.936  38.129   8.072
 2735POPC   C4B37750   3.886  37.889   7.722
 2736POPC   NC337751  30.670   0.022   9.419
 2736POPC   PO437752  30.634  44.390   9.583
 2736POPC   GL137753  30.739  44.564   9.215
 2736POPC   GL237754  30.435  44.665   9.150
 2736POPC   C1A37755  30.841  44.553   8.808
 2736POPC   D2A37756  30.681  44.376   8.420
 2736POPC   C3A37757  30.905  44.484   8.033
 2736POPC   C4A37758  30.875  44.549   7.589
 2736POPC   C1B37759  30.280  44.647   8.758
 2736POPC   C2B37760  30.380  44.915   8.436
 2736POPC   C3B37761  30.473  44.841   8.022
 2736POPC   C4B37762  30.430  44.425   7.840
 2737POPC   NC337763  39.904  11.987   9.472
 2737POPC   PO437764  40.104  12.413   9.103
 2737POPC   GL137765  40.028  11.953   8.968
 2737POPC   GL237766  39.648  12.100   9.073
 2737POPC   C1A37767  39.958  11.701   8.488
 2737POPC   D2A37768  39.851  11.958   8.094
 2737POPC   C3A37769  40.251  12.149   7.919
 2737POPC   C4A37770  40.645  12.074   7.668
 2737POPC   C1B37771  39.480  12.443   8.823
 2737POPC   C2B37772  39.377  12.312   8.398
 2737POPC   C3B37773  39.473  12.419   8.010
 2737POPC   C4B37774  39.831  12.400   7.759
 2738POPC   NC337775   2.952  18.035   9.840
 2738POPC   PO437776   2.566  18.464   9.483
 2738POPC   GL137777   2.889  18.313   9.195
 2738POPC   GL237778   2.632  18.075   9.110
 2738POPC   C1A37779   2.963  18.073   8.746
 2738POPC   D2A37780   2.633  18.070   8.394
 2738POPC   C3A37781   2.805  18.192   7.992
 2738POPC   C4A37782   3.022  18.227   7.583
 2738POPC   C1B37783   2.630  18.449   8.788
 2738POPC   C2B37784   2.428  18.540   8.406
 2738POPC   C3B37785   2.572  18.677   8.054
 2738POPC   C4B37786   2.615  18.524   7.649
 2739POPC   NC337787  37.969  31.996   9.659
 2739POPC   PO437788  37.497  32.429   9.476
 2739POPC   GL137789  37.531  32.226   9.130
 2739POPC   GL237790  37.886  32.112   9.141
 2739POPC   C1A37791  37.680  32.310   8.731
 2739POPC   D2A37792  37.649  32.076   8.369
 2739POPC   C3A37793  37.756  32.364   8.077
 2739POPC   C4A37794  37.638  32.565   7.713
 2739POPC   C1B37795  38.084  31.937   8.711
 2739POPC   C2B37796  38.055  31.777   8.260
 2739POPC   C3B37797  37.844  31.923   7.827
 2739POPC   C4B37798  37.865  32.170   7.395
 2740POPC   NC337799  11.755  37.988   9.466
 2740POPC   PO437800  11.667  37.394   9.466
 2740POPC   GL137801  11.778  37.622   9.075
 2740POPC   GL237802  12.067  37.847   9.047
 2740POPC   C1A37803  11.859  37.615   8.618
 2740POPC   D2A37804  11.892  37.527   8.173
 2740POPC   C3A37805  11.931  37.843   7.879
 2740POPC   C4A37806  12.263  37.967   7.604
 2740POPC   C1B37807  12.354  37.721   8.685
 2740POPC   C2B37808  12.377  37.433   8.326
 2740POPC   C3B37809  12.301  37.445   7.875
 2740POPC   C4B37810  12.543  37.539   7.500
 2741POPC   NC337811  28.347  29.775   9.616
 2741POPC   PO437812  28.146  29.090   9.507
 2741POPC   GL137813  28.256  29.259   9.105
 2741POPC   GL237814  28.612  29.313   9.119
 2741POPC   C1A37815  28.121  29.175   8.663
 2741POPC   D2A37816  28.125  28.905   8.265
 2741POPC   C3A37817  28.107  29.036   7.812
 2741POPC   C4A37818  28.386  28.866   7.432
 2741POPC   C1B37819  28.618  29.067   8.758
 2741POPC   C2B37820  28.548  29.170   8.330
 2741POPC   C3B37821  28.575  28.934   7.942
 2741POPC   C4B37822  28.537  29.293   7.639
 2742POPC   NC337823  10.906  29.714   9.832
 2742POPC   PO437824  11.374  30.125   9.570
 2742POPC   GL137825  11.390  29.870   9.218
 2742POPC   GL237826  11.079  29.694   9.142
 2742POPC   C1A37827  11.292  30.019   8.800
 2742POPC   D2A37828  11.143  30.184   8.460
 2742POPC   C3A37829  11.406  30.079   8.090
 2742POPC   C4A37830  11.334  30.300   7.729
 2742POPC   C1B37831  10.995  29.642   8.707
 2742POPC   C2B37832  11.228  29.669   8.346
 2742POPC   C3B37833  11.205  29.601   7.899
 2742POPC   C4B37834  10.950  29.564   7.536
 2743POPC   NC337835  37.202   4.199   9.502
 2743POPC   PO437836  36.606   4.415   9.451
 2743POPC   GL137837  36.826   4.188   9.138
 2743POPC   GL237838  37.128   4.387   9.049
 2743POPC   C1A37839  36.789   3.924   8.802
 2743POPC   D2A37840  36.778   3.942   8.362
 2743POPC   C3A37841  36.622   4.132   7.978
 2743POPC   C4A37842  36.616   4.256   7.546
 2743POPC   C1B37843  36.954   4.380   8.642
 2743POPC   C2B37844  37.071   4.336   8.205
 2743POPC   C3B37845  37.037   4.428   7.769
 2743POPC   C4B37846  36.877   4.655   7.379
 2744POPC   NC337847  30.281   5.965   9.513
 2744POPC   PO437848  30.902   6.009   9.516
 2744POPC   GL137849  30.629   5.710   9.212
 2744POPC   GL237850  30.495   6.002   9.055
 2744POPC   C1A37851  30.442   5.577   8.747
 2744POPC   D2A37852  30.418   5.571   8.233
 2744POPC   C3A37853  30.599   5.805   7.846
 2744POPC   C4A37854  30.881   5.750   7.460
 2744POPC   C1B37855  30.663   6.366   8.841
 2744POPC   C2B37856  30.876   6.338   8.449
 2744POPC   C3B37857  30.838   6.267   8.007
 2744POPC   C4B37858  30.795   6.584   7.758
 2745POPC   NC337859  38.198  19.732   9.568
 2745POPC   PO437860  38.829  19.442   9.529
 2745POPC   GL137861  38.561  19.555   9.154
 2745POPC   GL237862  38.428  19.887   9.144
 2745POPC   C1A37863  38.588  19.725   8.718
 2745POPC   D2A37864  38.544  19.989   8.401
 2745POPC   C3A37865  38.562  19.771   7.991
 2745POPC   C4A37866  38.558  19.953   7.628
 2745POPC   C1B37867  38.292  20.182   8.827
 2745POPC   C2B37868  38.053  20.131   8.448
 2745POPC   C3B37869  38.198  20.102   8.034
 2745POPC   C4B37870  38.030  20.067   7.652
 2746POPC   NC337871  14.058  12.941   9.556
 2746POPC   PO437872  14.755  12.738   9.508
 2746POPC   GL137873  14.347  12.593   9.310
 2746POPC   GL237874  14.389  12.891   9.136
 2746POPC   C1A37875  14.063  12.601   8.910
 2746POPC   D2A37876  14.288  12.779   8.550
 2746POPC   C3A37877  14.147  12.740   8.114
 2746POPC   C4A37878  14.396  12.598   7.767
 2746POPC   C1B37879  14.493  13.203   8.844
 2746POPC   C2B37880  14.670  13.158   8.446
 2746POPC   C3B37881  14.624  12.963   8.061
 2746POPC   C4B37882  14.658  13.287   7.773
 2747POPC   NC337883  28.252   6.384   9.661
 2747POPC   PO437884  28.640   6.798   9.395
 2747POPC   GL137885  28.354   6.671   9.129
 2747POPC   GL237886  28.300   6.325   9.158
 2747POPC   C1A37887  28.472   6.703   8.712
 2747POPC   D2A37888  28.442   6.965   8.357
 2747POPC   C3A37889  28.475   6.702   8.033
 2747POPC   C4A37890  28.615   6.771   7.634
 2747POPC   C1B37891  28.064   6.390   8.801
 2747POPC   C2B37892  28.050   6.577   8.408
 2747POPC   C3B37893  28.097   6.372   8.016
 2747POPC   C4B37894  28.262   6.416   7.620
 2748POPC   NC337895  10.771  44.030   9.642
 2748POPC   PO437896  11.437  44.140   9.460
 2748POPC   GL137897  11.240  43.891   9.158
 2748POPC   GL237898  11.155  43.548   9.307
 2748POPC   C1A37899  11.336  43.967   8.705
 2748POPC   D2A37900  11.371  44.102   8.250
 2748POPC   C3A37901  11.106  43.973   7.917
 2748POPC   C4A37902  11.408  43.789   7.702
 2748POPC   C1B37903  11.049  43.546   8.845
 2748POPC   C2B37904  10.965  43.744   8.421
 2748POPC   C3B37905  11.157  43.507   8.078
 2748POPC   C4B37906  11.045  43.444   7.643
 2749POPC   NC337907  28.880   2.589   9.467
 2749POPC   PO437908  29.443   2.943   9.576
 2749POPC   GL137909  29.258   2.828   9.166
 2749POPC   GL237910  29.350   2.472   9.169
 2749POPC   C1A37911  29.149   2.970   8.724
 2749POPC   D2A37912  29.137   2.749   8.309
 2749POPC   C3A37913  28.912   2.934   7.957
 2749POPC   C4A37914  29.157   3.070   7.585
 2749POPC   C1B37915  29.221   2.431   8.735
 2749POPC   C2B37916  28.906   2.299   8.444
 2749POPC   C3B37917  29.037   2.276   8.032
 2749POPC   C4B37918  29.179   2.567   7.732
 2750POPC   NC337919  18.398  24.068   9.444
 2750POPC   PO437920  18.294  24.697   9.589
 2750POPC   GL137921  18.496  24.538   9.226
 2750POPC   GL237922  18.235  24.349   9.054
 2750POPC   C1A37923  18.613  24.606   8.797
 2750POPC   D2A37924  18.474  24.829   8.430
 2750POPC   C3A37925  18.490  24.504   8.132
 2750POPC   C4A37926  18.463  24.354   7.742
 2750POPC   C1B37927  18.087  24.676   8.780
 2750POPC   C2B37928  18.027  24.534   8.375
 2750POPC   C3B37929  17.976  24.323   8.004
 2750POPC   C4B37930  17.999  24.655   7.757
 2751POPC   NC337931  22.357  31.811  10.028
 2751POPC   PO437932  22.354  32.354   9.521
 2751POPC   GL137933  22.349  32.275   9.074
 2751POPC   GL237934  22.036  32.481   9.058
 2751POPC   C1A37935  22.503  32.190   8.610
 2751POPC   D2A37936  22.653  32.211   8.169
 2751POPC   C3A37937  22.321  32.222   7.860
 2751POPC   C4A37938  21.913  32.044   7.809
 2751POPC   C1B37939  22.276  32.636   8.722
 2751POPC   C2B37940  22.251  32.528   8.285
 2751POPC   C3B37941  22.220  32.712   7.860
 2751POPC   C4B37942  22.016  32.533   7.484
 2752POPC   NC337943  32.767  34.477   9.329
 2752POPC   PO437944  33.269  34.852   9.632
 2752POPC   GL137945  33.213  34.718   9.201
 2752POPC   GL237946  33.245  34.347   9.115
 2752POPC   C1A37947  33.106  34.731   8.762
 2752POPC   D2A37948  32.776  34.852   8.510
 2752POPC   C3A37949  32.935  34.847   8.112
 2752POPC   C4A37950  33.070  34.854   7.714
 2752POPC   C1B37951  32.949  34.266   8.760
 2752POPC   C2B37952  32.938  34.369   8.315
 2752POPC   C3B37953  32.843  34.408   7.869
 2752POPC   C4B37954  32.613  34.186   7.556
 2753POPC   NC337955  38.914   6.820   9.620
 2753POPC   PO437956  39.195   6.332   9.658
 2753POPC   GL137957  39.230   6.554   9.227
 2753POPC   GL237958  39.172   6.911   9.181
 2753POPC   C1A37959  39.174   6.574   8.754
 2753POPC   D2A37960  39.369   6.572   8.348
 2753POPC   C3A37961  39.230   6.347   8.001
 2753POPC   C4A37962  39.177   6.446   7.568
 2753POPC   C1B37963  39.351   7.055   8.786
 2753POPC   C2B37964  39.255   7.066   8.340
 2753POPC   C3B37965  39.229   6.871   7.896
 2753POPC   C4B37966  39.426   6.889   7.441
 2754POPC   NC337967  13.899  11.257   9.589
 2754POPC   PO437968  14.340  11.724   9.617
 2754POPC   GL137969  14.279  11.624   9.160
 2754POPC   GL237970  14.263  11.308   9.223
 2754POPC   C1A37971  14.458  11.616   8.706
 2754POPC   D2A37972  14.672  11.328   8.410
 2754POPC   C3A37973  14.482  11.383   7.993
 2754POPC   C4A37974  14.532  11.721   7.683
 2754POPC   C1B37975  14.311  11.154   8.807
 2754POPC   C2B37976  14.190  11.191   8.397
 2754POPC   C3B37977  14.466  10.899   8.171
 2754POPC   C4B37978  14.563  10.897   7.728
 2755POPC   NC337979  12.159  21.164   9.572
 2755POPC   PO437980  11.972  21.759   9.761
 2755POPC   GL137981  12.265  21.574   9.308
 2755POPC   GL237982  12.388  21.222   9.140
 2755POPC   C1A37983  12.296  21.605   8.833
 2755POPC   D2A37984  12.078  21.655   8.437
 2755POPC   C3A37985  12.214  21.467   8.082
 2755POPC   C4A37986  12.162  21.594   7.666
 2755POPC   C1B37987  12.213  21.098   8.739
 2755POPC   C2B37988  11.975  21.074   8.341
 2755POPC   C3B37989  11.808  21.176   7.917
 2755POPC   C4B37990  12.020  21.134   7.514
 2756POPC   NC337991  34.056  41.404   9.484
 2756POPC   PO437992  33.515  41.356   9.897
 2756POPC   GL137993  33.439  41.399   9.377
 2756POPC   GL237994  33.696  41.608   9.171
 2756POPC   C1A37995  33.398  41.331   8.884
 2756POPC   D2A37996  33.537  41.113   8.482
 2756POPC   C3A37997  33.591  41.437   8.144
 2756POPC   C4A37998  33.552  41.625   7.709
 2756POPC   C1B37999  33.903  41.278   8.847
 2756POPC   C2B38000  34.059  41.179   8.410
 2756POPC   C3B38001  34.141  41.411   8.031
 2756POPC   C4B38002  34.036  41.417   7.606
 2757POPC   NC338003  41.609  32.017   9.447
 2757POPC   PO438004  41.758  32.692   9.495
 2757POPC   GL138005  41.909  32.358   9.180
 2757POPC   GL238006  41.891  31.976   9.028
 2757POPC   C1A38007  41.682  32.360   8.785
 2757POPC   D2A38008  41.646  32.611   8.426
 2757POPC   C3A38009  41.706  32.425   8.017
 2757POPC   C4A38010  41.357  32.380   7.786
 2757POPC   C1B38011  41.495  31.864   8.777
 2757POPC   C2B38012  41.235  31.983   8.391
 2757POPC   C3B38013  41.402  31.899   7.966
 2757POPC   C4B38014  41.843  31.874   7.817
 2758POPC   NC338015  26.681   3.778   9.329
 2758POPC   PO438016  27.056   3.279   9.561
 2758POPC   GL138017  27.102   3.465   9.175
 2758POPC   GL238018  27.058   3.137   9.022
 2758POPC   C1A38019  26.986   3.548   8.729
 2758POPC   D2A38020  27.003   3.281   8.335
 2758POPC   C3A38021  27.095   3.541   7.971
 2758POPC   C4A38022  26.759   3.744   7.779
 2758POPC   C1B38023  26.676   3.138   8.774
 2758POPC   C2B38024  26.451   3.123   8.360
 2758POPC   C3B38025  26.599   3.296   7.962
 2758POPC   C4B38026  26.949   3.100   7.757
 2759POPC   NC338027   5.122  43.668   9.506
 2759POPC   PO438028   5.476  44.203   9.537
 2759POPC   GL138029   5.381  43.940   9.147
 2759POPC   GL238030   5.419  43.550   9.107
 2759POPC   C1A38031   5.017  43.924   8.844
 2759POPC   D2A38032   4.975  43.797   8.419
 2759POPC   C3A38033   5.158  44.026   8.094
 2759POPC   C4A38034   5.152  43.909   7.705
 2759POPC   C1B38035   5.459  43.725   8.683
 2759POPC   C2B38036   5.606  43.620   8.284
 2759POPC   C3B38037   5.488  43.561   7.854
 2759POPC   C4B38038   5.354  43.573   7.389
 2760POPC   NC338039  28.066  11.516   9.397
 2760POPC   PO438040  27.416  11.441   9.616
 2760POPC   GL138041  27.639  11.229   9.280
 2760POPC   GL238042  27.655  11.561   9.100
 2760POPC   C1A38043  27.603  11.118   8.830
 2760POPC   D2A38044  27.390  11.395   8.520
 2760POPC   C3A38045  27.360  11.390   8.034
 2760POPC   C4A38046  27.397  11.025   7.733
 2760POPC   C1B38047  27.837  11.698   8.698
 2760POPC   C2B38048  27.742  11.685   8.247
 2760POPC   C3B38049  27.883  11.464   7.855
 2760POPC   C4B38050  28.028  11.524   7.410
 2761POPC   NC338051  27.407  16.413   9.483
 2761POPC   PO438052  27.660  15.740   9.471
 2761POPC   GL138053  27.728  16.041   9.163
 2761POPC   GL238054  27.415  16.128   9.051
 2761POPC   C1A38055  27.814  16.030   8.705
 2761POPC   D2A38056  27.754  15.821   8.284
 2761POPC   C3A38057  27.658  16.053   7.894
 2761POPC   C4A38058  27.482  16.240   7.497
 2761POPC   C1B38059  27.388  15.708   8.842
 2761POPC   C2B38060  27.343  15.515   8.404
 2761POPC   C3B38061  27.315  15.674   7.971
 2761POPC   C4B38062  27.027  15.817   7.632
 2762POPC   NC338063  19.959  40.574   9.569
 2762POPC   PO438064  20.016  41.255   9.469
 2762POPC   GL138065  19.811  41.018   9.132
 2762POPC   GL238066  19.814  40.664   9.064
 2762POPC   C1A38067  19.625  41.058   8.788
 2762POPC   D2A38068  19.729  40.786   8.469
 2762POPC   C3A38069  19.833  40.828   8.092
 2762POPC   C4A38070  20.057  40.513   7.834
 2762POPC   C1B38071  19.437  40.565   8.797
 2762POPC   C2B38072  19.372  40.362   8.386
 2762POPC   C3B38073  19.513  40.457   7.953
 2762POPC   C4B38074  19.427  40.830   7.753
 2763POPC   NC338075  27.387  14.650   9.269
 2763POPC   PO438076  27.532  13.983   9.323
 2763POPC   GL138077  27.631  14.280   9.035
 2763POPC   GL238078  27.258  14.295   8.954
 2763POPC   C1A38079  27.624  14.425   8.613
 2763POPC   D2A38080  27.540  14.056   8.352
 2763POPC   C3A38081  27.427  14.176   7.935
 2763POPC   C4A38082  27.673  14.502   7.743
 2763POPC   C1B38083  27.155  14.599   8.642
 2763POPC   C2B38084  27.262  14.567   8.215
 2763POPC   C3B38085  27.207  14.643   7.786
 2763POPC   C4B38086  27.295  14.354   7.419
 2764POPC   NC338087  25.002  36.925   9.650
 2764POPC   PO438088  25.487  36.760   9.940
 2764POPC   GL138089  25.306  36.751   9.322
 2764POPC   GL238090  25.276  37.038   9.128
 2764POPC   C1A38091  25.242  36.581   8.868
 2764POPC   D2A38092  25.022  36.717   8.457
 2764POPC   C3A38093  25.119  36.638   8.023
 2764POPC   C4A38094  25.181  36.913   7.662
 2764POPC   C1B38095  25.354  37.053   8.652
 2764POPC   C2B38096  25.284  37.084   8.197
 2764POPC   C3B38097  25.311  37.364   7.870
 2764POPC   C4B38098  25.204  37.382   7.435
 2765POPC   NC338099  10.256  43.976   9.307
 2765POPC   PO438100  10.685  43.541   9.592
 2765POPC   GL138101  10.683  43.727   9.198
 2765POPC   GL238102  10.372  43.538   9.077
 2765POPC   C1A38103  10.787  44.007   8.867
 2765POPC   D2A38104  10.499  44.122   8.533
 2765POPC   C3A38105  10.647  44.061   8.116
 2765POPC   C4A38106  10.359  44.017   7.756
 2765POPC   C1B38107  10.550  43.563   8.710
 2765POPC   C2B38108  10.435  43.641   8.308
 2765POPC   C3B38109  10.647  43.574   7.951
 2765POPC   C4B38110  10.407  43.425   7.652
 2766POPC   NC338111   4.490  21.481   9.580
 2766POPC   PO438112   3.857  21.619   9.669
 2766POPC   GL138113   4.119  21.469   9.233
 2766POPC   GL238114   4.058  21.179   9.039
 2766POPC   C1A38115   4.486  21.519   8.926
 2766POPC   D2A38116   4.487  21.577   8.473
 2766POPC   C3A38117   4.291  21.260   8.187
 2766POPC   C4A38118   4.440  21.253   7.766
 2766POPC   C1B38119   4.014  21.583   8.747
 2766POPC   C2B38120   3.998  21.677   8.297
 2766POPC   C3B38121   4.205  21.696   7.899
 2766POPC   C4B38122   4.057  21.528   7.486
 2767POPC   NC338123  30.793  10.271   9.305
 2767POPC   PO438124  30.636  10.917   9.488
 2767POPC   GL138125  30.674  10.725   9.090
 2767POPC   GL238126  30.361  10.585   9.024
 2767POPC   C1A38127  30.959  10.557   8.733
 2767POPC   D2A38128  30.755  10.526   8.353
 2767POPC   C3A38129  30.879  10.336   7.994
 2767POPC   C4A38130  31.034  10.641   7.735
 2767POPC   C1B38131  30.397  10.348   8.694
 2767POPC   C2B38132  30.216  10.389   8.298
 2767POPC   C3B38133  30.421  10.539   7.950
 2767POPC   C4B38134  30.507  10.589   7.541
 2768POPC   NC338135   6.365  17.104   9.873
 2768POPC   PO438136   6.653  16.615   9.371
 2768POPC   GL138137   6.524  16.718   8.994
 2768POPC   GL238138   6.800  16.974   9.047
 2768POPC   C1A38139   6.547  16.862   8.586
 2768POPC   D2A38140   6.631  16.546   8.313
 2768POPC   C3A38141   6.446  16.603   7.913
 2768POPC   C4A38142   6.361  17.014   7.748
 2768POPC   C1B38143   6.966  16.651   8.781
 2768POPC   C2B38144   7.147  16.678   8.406
 2768POPC   C3B38145   7.015  16.605   8.008
 2768POPC   C4B38146   6.866  16.860   7.702
 2769POPC   NC338147   4.532  40.692   9.610
 2769POPC   PO438148   3.978  41.073   9.526
 2769POPC   GL138149   4.204  40.804   9.215
 2769POPC   GL238150   4.570  40.888   9.142
 2769POPC   C1A38151   4.297  40.687   8.769
 2769POPC   D2A38152   4.517  40.781   8.378
 2769POPC   C3A38153   4.398  40.549   8.024
 2769POPC   C4A38154   4.610  40.373   7.702
 2769POPC   C1B38155   4.364  41.196   8.843
 2769POPC   C2B38156   4.161  41.145   8.465
 2769POPC   C3B38157   4.316  41.166   8.048
 2769POPC   C4B38158   4.347  40.944   7.668
 2770POPC   NC338159  18.240  38.012   9.447
 2770POPC   PO438160  18.596  38.551   9.549
 2770POPC   GL138161  18.482  38.403   9.151
 2770POPC   GL238162  18.123  38.403   9.149
 2770POPC   C1A38163  18.386  38.604   8.767
 2770POPC   D2A38164  18.481  38.548   8.345
 2770POPC   C3A38165  18.363  38.526   7.940
 2770POPC   C4A38166  18.462  38.508   7.534
 2770POPC   C1B38167  18.136  38.154   8.755
 2770POPC   C2B38168  18.091  38.209   8.287
 2770POPC   C3B38169  18.021  38.182   7.836
 2770POPC   C4B38170  18.140  38.078   7.414
 2771POPC   NC338171  16.489  24.135   9.738
 2771POPC   PO438172  15.831  24.438   9.655
 2771POPC   GL138173  15.676  24.421   9.187
 2771POPC   GL238174  15.774  24.136   8.976
 2771POPC   C1A38175  15.675  24.619   8.783
 2771POPC   D2A38176  15.806  24.662   8.355
 2771POPC   C3A38177  15.756  24.316   8.075
 2771POPC   C4A38178  16.000  24.236   7.704
 2771POPC   C1B38179  16.111  24.391   8.757
 2771POPC   C2B38180  16.219  24.333   8.345
 2771POPC   C3B38181  16.460  24.354   8.004
 2771POPC   C4B38182  16.513  24.123   7.644
 2772POPC   NC338183  21.928  33.406   9.515
 2772POPC   PO438184  22.395  33.891   9.630
 2772POPC   GL138185  22.188  33.794   9.271
 2772POPC   GL238186  22.302  33.478   9.170
 2772POPC   C1A38187  22.279  33.879   8.848
 2772POPC   D2A38188  22.071  33.909   8.479
 2772POPC   C3A38189  22.341  34.027   8.163
 2772POPC   C4A38190  22.353  33.916   7.720
 2772POPC   C1B38191  21.938  33.499   8.874
 2772POPC   C2B38192  21.944  33.413   8.443
 2772POPC   C3B38193  22.100  33.577   8.046
 2772POPC   C4B38194  21.959  33.607   7.611
 2773POPC   NC338195  16.937   4.467   9.606
 2773POPC   PO438196  16.455   3.900   9.704
 2773POPC   GL138197  16.765   4.041   9.348
 2773POPC   GL238198  16.608   4.361   9.198
 2773POPC   C1A38199  16.968   4.131   8.920
 2773POPC   D2A38200  16.728   4.223   8.539
 2773POPC   C3A38201  16.850   4.128   8.112
 2773POPC   C4A38202  16.563   4.204   7.809
 2773POPC   C1B38203  16.868   4.649   8.921
 2773POPC   C2B38204  17.006   4.656   8.487
 2773POPC   C3B38205  17.118   4.571   8.094
 2773POPC   C4B38206  16.784   4.648   7.820
 2774POPC   NC338207  13.189  32.636   9.311
 2774POPC   PO438208  13.782  32.963   9.328
 2774POPC   GL138209  13.549  32.817   8.992
 2774POPC   GL238210  13.321  33.071   8.998
 2774POPC   C1A38211  13.298  32.722   8.622
 2774POPC   D2A38212  13.268  32.888   8.192
 2774POPC   C3A38213  13.613  33.000   7.907
 2774POPC   C4A38214  13.806  33.197   7.565
 2774POPC   C1B38215  13.497  33.191   8.586
 2774POPC   C2B38216  13.598  33.410   8.192
 2774POPC   C3B38217  13.562  33.606   7.757
 2774POPC   C4B38218  13.444  33.595   7.301
 2775POPC   NC338219  19.567  22.734   9.323
 2775POPC   PO438220  20.128  23.154   9.479
 2775POPC   GL138221  19.924  23.075   9.154
 2775POPC   GL238222  20.051  22.746   9.178
 2775POPC   C1A38223  19.797  22.978   8.760
 2775POPC   D2A38224  19.944  23.079   8.383
 2775POPC   C3A38225  19.621  23.083   8.088
 2775POPC   C4A38226  19.746  22.932   7.727
 2775POPC   C1B38227  20.289  22.828   8.844
 2775POPC   C2B38228  20.321  22.669   8.443
 2775POPC   C3B38229  20.129  22.726   8.058
 2775POPC   C4B38230  20.040  22.520   7.691
 2776POPC   NC338231   5.172  30.826   9.419
 2776POPC   PO438232   4.564  31.084   9.476
 2776POPC   GL138233   4.822  31.001   9.092
 2776POPC   GL238234   4.889  30.652   9.004
 2776POPC   C1A38235   5.139  31.043   8.730
 2776POPC   D2A38236   5.436  30.829   8.378
 2776POPC   C3A38237   5.405  30.446   8.086
 2776POPC   C4A38238   5.477  30.516   7.621
 2776POPC   C1B38239   4.694  30.751   8.616
 2776POPC   C2B38240   4.935  30.924   8.281
 2776POPC   C3B38241   5.097  30.800   7.898
 2776POPC   C4B38242   5.070  30.832   7.453
 2777POPC   NC338243  11.659  42.015   9.700
 2777POPC   PO438244  11.998  42.618   9.531
 2777POPC   GL138245  12.070  42.468   9.119
 2777POPC   GL238246  12.084  42.185   9.268
 2777POPC   C1A38247  12.083  42.333   8.673
 2777POPC   D2A38248  11.890  42.368   8.335
 2777POPC   C3A38249  12.131  42.577   8.046
 2777POPC   C4A38250  12.017  42.325   7.718
 2777POPC   C1B38251  12.333  41.999   8.937
 2777POPC   C2B38252  12.338  41.912   8.496
 2777POPC   C3B38253  12.236  42.052   8.101
 2777POPC   C4B38254  12.309  41.905   7.679
 2778POPC   NC338255  36.104  23.665   9.521
 2778POPC   PO438256  36.506  24.090   9.160
 2778POPC   GL138257  36.238  23.854   8.956
 2778POPC   GL238258  35.912  23.715   9.042
 2778POPC   C1A38259  36.309  23.933   8.557
 2778POPC   D2A38260  36.131  24.001   8.222
 2778POPC   C3A38261  35.919  23.692   8.034
 2778POPC   C4A38262  35.968  23.852   7.643
 2778POPC   C1B38263  35.949  23.597   8.581
 2778POPC   C2B38264  36.322  23.484   8.306
 2778POPC   C3B38265  36.253  23.289   7.900
 2778POPC   C4B38266  35.848  23.361   7.642
 2779POPC   NC338267  38.293  24.007   9.500
 2779POPC   PO438268  38.584  24.552   9.592
 2779POPC   GL138269  38.575  24.486   9.152
 2779POPC   GL238270  38.555  24.122   9.060
 2779POPC   C1A38271  38.697  24.490   8.720
 2779POPC   D2A38272  38.507  24.213   8.436
 2779POPC   C3A38273  38.639  24.174   8.004
 2779POPC   C4A38274  38.638  24.488   7.671
 2779POPC   C1B38275  38.198  24.326   8.841
 2779POPC   C2B38276  38.024  24.473   8.467
 2779POPC   C3B38277  38.158  24.369   8.061
 2779POPC   C4B38278  37.892  24.408   7.752
 2780POPC   NC338279  15.925  24.808   9.402
 2780POPC   PO438280  16.586  25.052   9.424
 2780POPC   GL138281  16.215  25.210   9.217
 2780POPC   GL238282  15.833  25.272   9.170
 2780POPC   C1A38283  16.221  25.248   8.803
 2780POPC   D2A38284  16.196  24.951   8.508
 2780POPC   C3A38285  16.102  25.190   8.158
 2780POPC   C4A38286  15.989  25.166   7.758
 2780POPC   C1B38287  15.709  25.118   8.738
 2780POPC   C2B38288  15.608  25.127   8.288
 2780POPC   C3B38289  15.682  25.479   8.033
 2780POPC   C4B38290  15.754  25.629   7.644
 2781POPC   NC338291  12.520  24.710   9.336
 2781POPC   PO438292  13.173  24.470   9.171
 2781POPC   GL138293  12.909  24.247   8.889
 2781POPC   GL238294  12.575  24.328   8.983
 2781POPC   C1A38295  12.706  24.224   8.462
 2781POPC   D2A38296  12.984  24.492   8.249
 2781POPC   C3A38297  13.244  24.392   7.895
 2781POPC   C4A38298  13.262  24.740   7.627
 2781POPC   C1B38299  12.635  24.703   8.690
 2781POPC   C2B38300  12.555  24.827   8.268
 2781POPC   C3B38301  12.620  24.535   7.894
 2781POPC   C4B38302  12.800  24.144   7.778
 2782POPC   NC338303   7.037  44.102   9.754
 2782POPC   PO438304   7.623  43.950   9.516
 2782POPC   GL138305   7.347  43.793   9.212
 2782POPC   GL238306   7.186  44.137   9.215
 2782POPC   C1A38307   7.530  43.655   8.793
 2782POPC   D2A38308   7.531  43.857   8.406
 2782POPC   C3A38309   7.513  43.641   8.011
 2782POPC   C4A38310   7.602  43.913   7.685
 2782POPC   C1B38311   7.132  43.977   8.782
 2782POPC   C2B38312   7.023  43.865   8.353
 2782POPC   C3B38313   7.148  43.998   7.947
 2782POPC   C4B38314   7.123  44.118   7.517
 2783POPC   NC338315  40.238  17.079   9.535
 2783POPC   PO438316  39.666  17.163   9.216
 2783POPC   GL138317  39.976  16.916   9.077
 2783POPC   GL238318  40.339  16.986   9.027
 2783POPC   C1A38319  39.865  16.675   8.706
 2783POPC   D2A38320  39.745  16.778   8.261
 2783POPC   C3A38321  40.049  16.641   7.954
 2783POPC   C4A38322  40.089  16.317   7.631
 2783POPC   C1B38323  40.159  17.079   8.608
 2783POPC   C2B38324  40.284  17.043   8.176
 2783POPC   C3B38325  40.238  17.057   7.723
 2783POPC   C4B38326  40.128  17.178   7.296
 2784POPC   NC338327   4.839  28.776   9.662
 2784POPC   PO438328   4.839  29.458   9.625
 2784POPC   GL138329   4.986  29.168   9.273
 2784POPC   GL238330   5.299  29.241   9.139
 2784POPC   C1A38331   4.984  29.025   8.808
 2784POPC   D2A38332   5.198  29.230   8.454
 2784POPC   C3A38333   4.956  29.243   8.130
 2784POPC   C4A38334   4.837  28.895   7.856
 2784POPC   C1B38335   5.501  28.990   8.783
 2784POPC   C2B38336   5.401  28.753   8.394
 2784POPC   C3B38337   5.321  28.898   7.988
 2784POPC   C4B38338   5.282  29.275   7.731
 2785POPC   NC338339  17.748   9.950   9.476
 2785POPC   PO438340  17.215   9.553   9.342
 2785POPC   GL138341  17.543   9.640   9.068
 2785POPC   GL238342  17.503   9.987   9.027
 2785POPC   C1A38343  17.424   9.614   8.641
 2785POPC   D2A38344  17.266   9.473   8.273
 2785POPC   C3A38345  17.363   9.595   7.861
 2785POPC   C4A38346  17.486   9.648   7.428
 2785POPC   C1B38347  17.708  10.025   8.647
 2785POPC   C2B38348  17.746   9.890   8.231
 2785POPC   C3B38349  17.744   9.936   7.775
 2785POPC   C4B38350  17.637  10.183   7.423
 2786POPC   NC338351   9.945  44.440   9.815
 2786POPC   PO438352   9.531  44.863   9.715
 2786POPC   GL138353   9.746  44.808   9.282
 2786POPC   GL238354   9.566  44.507   9.250
 2786POPC   C1A38355   9.879  44.599   8.838
 2786POPC   D2A38356  10.166  44.754   8.480
 2786POPC   C3A38357  10.008  44.788   8.034
 2786POPC   C4A38358   9.618  44.738   7.804
 2786POPC   C1B38359   9.397  44.443   8.818
 2786POPC   C2B38360   9.561  44.399   8.378
 2786POPC   C3B38361   9.432  44.292   7.942
 2786POPC   C4B38362   9.491  44.324   7.452
 2787POPC   NC338363  40.522  39.946   9.494
 2787POPC   PO438364  40.995  39.477   9.669
 2787POPC   GL138365  40.916  39.742   9.249
 2787POPC   GL238366  40.583  39.767   9.010
 2787POPC   C1A38367  41.023  39.949   8.854
 2787POPC   D2A38368  40.747  39.897   8.491
 2787POPC   C3A38369  40.828  40.133   8.123
 2787POPC   C4A38370  40.759  40.027   7.700
 2787POPC   C1B38371  40.586  40.232   8.855
 2787POPC   C2B38372  40.546  40.431   8.438
 2787POPC   C3B38373  40.413  40.468   7.995
 2787POPC   C4B38374  40.588  40.484   7.591
 2788POPC   NC338375   8.741   2.849   9.406
 2788POPC   PO438376   9.262   3.231   9.371
 2788POPC   GL138377   9.003   3.029   9.019
 2788POPC   GL238378   8.611   3.099   8.974
 2788POPC   C1A38379   9.149   2.752   8.718
 2788POPC   D2A38380   9.411   2.624   8.394
 2788POPC   C3A38381   9.186   2.634   8.010
 2788POPC   C4A38382   8.984   2.967   7.769
 2788POPC   C1B38383   8.638   2.711   8.748
 2788POPC   C2B38384   8.809   2.579   8.359
 2788POPC   C3B38385   8.689   2.578   7.936
 2788POPC   C4B38386   8.529   2.394   7.581
 2789POPC   NC338387  11.046   0.337   9.488
 2789POPC   PO438388  11.561   0.749   9.620
 2789POPC   GL138389  11.355   0.639   9.190
 2789POPC   GL238390  10.990   0.757   9.172
 2789POPC   C1A38391  11.331   0.433   8.760
 2789POPC   D2A38392  11.508   0.172   8.423
 2789POPC   C3A38393  11.432   0.374   8.031
 2789POPC   C4A38394  11.050   0.322   7.780
 2789POPC   C1B38395  11.163   0.926   8.789
 2789POPC   C2B38396  11.313   0.884   8.379
 2789POPC   C3B38397  11.163   0.797   7.962
 2789POPC   C4B38398  10.813   0.877   7.699
 2790POPC   NC338399   2.216  42.665   9.358
 2790POPC   PO438400   1.876  43.307   9.445
 2790POPC   GL138401   2.020  43.281   9.091
 2790POPC   GL238402   1.888  42.929   9.069
 2790POPC   C1A38403   2.237  43.134   8.767
 2790POPC   D2A38404   2.205  42.949   8.357
 2790POPC   C3A38405   2.013  43.183   8.025
 2790POPC   C4A38406   2.109  43.115   7.621
 2790POPC   C1B38407   1.841  42.736   8.682
 2790POPC   C2B38408   1.700  42.869   8.298
 2790POPC   C3B38409   1.816  42.736   7.897
 2790POPC   C4B38410   1.686  42.829   7.475
 2791POPC   NC338411  12.504  16.233   9.278
 2791POPC   PO438412  12.513  16.857   9.508
 2791POPC   GL138413  12.749  16.847   9.131
 2791POPC   GL238414  12.827  16.509   9.003
 2791POPC   C1A38415  12.857  17.027   8.717
 2791POPC   D2A38416  12.911  16.745   8.382
 2791POPC   C3A38417  13.114  16.804   8.003
 2791POPC   C4A38418  12.968  16.645   7.636
 2791POPC   C1B38419  12.502  16.642   8.700
 2791POPC   C2B38420  12.443  16.956   8.372
 2791POPC   C3B38421  12.551  16.790   7.958
 2791POPC   C4B38422  12.522  16.795   7.479
 2792POPC   NC338423  26.821  36.703   9.498
 2792POPC   PO438424  26.439  37.224   9.461
 2792POPC   GL138425  26.687  37.001   9.098
 2792POPC   GL238426  27.044  36.988   9.146
 2792POPC   C1A38427  26.822  36.744   8.736
 2792POPC   D2A38428  26.995  36.499   8.419
 2792POPC   C3A38429  26.910  36.709   8.020
 2792POPC   C4A38430  27.153  36.711   7.674
 2792POPC   C1B38431  27.085  37.187   8.756
 2792POPC   C2B38432  27.117  37.019   8.362
 2792POPC   C3B38433  27.221  37.128   7.945
 2792POPC   C4B38434  26.969  37.346   7.627
 2793POPC   NC338435   1.695  12.162   9.584
 2793POPC   PO438436   2.283  12.289   9.698
 2793POPC   GL138437   2.066  12.285   9.257
 2793POPC   GL238438   1.738  12.414   9.146
 2793POPC   C1A38439   2.163  12.254   8.817
 2793POPC   D2A38440   2.071  12.022   8.460
 2793POPC   C3A38441   2.182  12.144   8.045
 2793POPC   C4A38442   1.995  11.870   7.749
 2793POPC   C1B38443   1.655  12.166   8.821
 2793POPC   C2B38444   1.666  12.342   8.433
 2793POPC   C3B38445   1.677  12.139   8.067
 2793POPC   C4B38446   1.663  12.274   7.673
 2794POPC   NC338447  17.158   0.972   9.572
 2794POPC   PO438448  17.800   1.099   9.522
 2794POPC   GL138449  17.641   0.936   9.130
 2794POPC   GL238450  17.374   1.174   9.057
 2794POPC   C1A38451  17.546   0.933   8.643
 2794POPC   D2A38452  17.165   1.050   8.371
 2794POPC   C3A38453  17.269   1.085   7.928
 2794POPC   C4A38454  17.480   0.784   7.652
 2794POPC   C1B38455  17.364   1.418   8.661
 2794POPC   C2B38456  17.608   1.358   8.273
 2794POPC   C3B38457  17.754   1.184   7.861
 2794POPC   C4B38458  17.522   1.257   7.454
 2795POPC   NC338459   4.741  38.457   9.945
 2795POPC   PO438460   5.196  38.158   9.511
 2795POPC   GL138461   5.132  38.504   9.203
 2795POPC   GL238462   5.030  38.272   8.994
 2795POPC   C1A38463   5.078  38.735   8.812
 2795POPC   D2A38464   5.087  38.445   8.480
 2795POPC   C3A38465   4.951  38.469   8.066
 2795POPC   C4A38466   5.110  38.608   7.666
 2795POPC   C1B38467   4.792  38.012   8.699
 2795POPC   C2B38468   4.696  37.826   8.324
 2795POPC   C3B38469   4.878  37.981   7.947
 2795POPC   C4B38470   4.801  38.170   7.551
 2796POPC   NC338471  42.103   1.702   5.419
 2796POPC   PO438472  42.700   2.060   5.336
 2796POPC   GL138473  42.402   2.069   5.724
 2796POPC   GL238474  42.082   1.912   5.900
 2796POPC   C1A38475  42.495   1.907   6.157
 2796POPC   D2A38476  42.451   1.620   6.510
 2796POPC   C3A38477  42.257   1.885   6.838
 2796POPC   C4A38478  42.322   1.972   7.272
 2796POPC   C1B38479  42.058   2.140   6.307
 2796POPC   C2B38480  41.829   2.167   6.712
 2796POPC   C3B38481  41.917   2.283   7.179
 2796POPC   C4B38482  42.073   2.258   7.627
 2797POPC   NC338483  42.203  42.789   5.380
 2797POPC   PO438484  42.667  42.237   5.283
 2797POPC   GL138485  42.403  42.311   5.614
 2797POPC   GL238486  42.579  42.493   5.861
 2797POPC   C1A38487  42.206  42.116   5.986
 2797POPC   D2A38488  41.974  41.984   6.381
 2797POPC   C3A38489  41.939  42.169   6.837
 2797POPC   C4A38490  42.021  42.556   7.111
 2797POPC   C1B38491  42.455  42.436   6.316
 2797POPC   C2B38492  42.458  42.472   6.771
 2797POPC   C3B38493  42.680  42.469   7.148
 2797POPC   C4B38494  42.691  42.111   7.432
 2798POPC   NC338495   7.797  23.876   5.332
 2798POPC   PO438496   8.359  23.530   5.379
 2798POPC   GL138497   8.203  23.801   5.693
 2798POPC   GL238498   8.448  24.034   5.825
 2798POPC   C1A38499   8.118  23.769   6.137
 2798POPC   D2A38500   8.029  23.975   6.536
 2798POPC   C3A38501   7.946  23.749   6.904
 2798POPC   C4A38502   8.150  23.789   7.291
 2798POPC   C1B38503   8.647  24.228   6.190
 2798POPC   C2B38504   8.489  24.155   6.602
 2798POPC   C3B38505   8.456  23.827   6.883
 2798POPC   C4B38506   8.682  23.836   7.251
 2799POPC   NC338507  25.253  19.083   4.952
 2799POPC   PO438508  25.381  18.831   5.545
 2799POPC   GL138509  25.178  18.928   5.893
 2799POPC   GL238510  25.488  18.953   6.044
 2799POPC   C1A38511  25.000  19.175   6.180
 2799POPC   D2A38512  25.161  19.315   6.536
 2799POPC   C3A38513  24.989  19.189   6.897
 2799POPC   C4A38514  25.005  19.307   7.295
 2799POPC   C1B38515  25.350  18.842   6.436
 2799POPC   C2B38516  25.473  18.986   6.804
 2799POPC   C3B38517  25.494  19.216   7.102
 2799POPC   C4B38518  25.344  18.882   7.326
 2800POPC   NC338519  41.254  14.753   5.254
 2800POPC   PO438520  40.769  14.564   5.442
 2800POPC   GL138521  40.868  14.424   5.871
 2800POPC   GL238522  40.524  14.372   6.022
 2800POPC   C1A38523  40.902  14.460   6.336
 2800POPC   D2A38524  40.518  14.488   6.624
 2800POPC   C3A38525  40.474  14.175   6.908
 2800POPC   C4A38526  40.737  14.014   6.584
 2800POPC   C1B38527  40.304  14.724   6.223
 2800POPC   C2B38528  40.105  14.776   6.628
 2800POPC   C3B38529  40.184  14.613   7.033
 2800POPC   C4B38530  40.376  14.742   7.416
 2801POPC   NC338531  26.921   9.650   5.374
 2801POPC   PO438532  26.415   9.505   5.722
 2801POPC   GL138533  26.720   9.822   5.827
 2801POPC   GL238534  26.999   9.574   5.876
 2801POPC   C1A38535  26.995   9.991   6.171
 2801POPC   D2A38536  27.113   9.793   6.570
 2801POPC   C3A38537  26.849   9.823   6.914
 2801POPC   C4A38538  26.965   9.921   7.315
 2801POPC   C1B38539  26.760   9.539   6.290
 2801POPC   C2B38540  26.461   9.532   6.637
 2801POPC   C3B38541  26.380   9.478   7.038
 2801POPC   C4B38542  26.723   9.431   7.236
 2802POPC   NC338543   0.293  30.730   5.360
 2802POPC   PO438544   0.270  30.071   5.101
 2802POPC   GL138545   0.337  30.261   5.575
 2802POPC   GL238546   0.113  30.490   5.751
 2802POPC   C1A38547   0.525  30.436   6.030
 2802POPC   D2A38548   0.578  30.785   6.404
 2802POPC   C3A38549   0.587  30.710   6.866
 2802POPC   C4A38550   0.889  30.616   7.196
 2802POPC   C1B38551   0.149  30.773   6.114
 2802POPC   C2B38552   0.060  30.826   6.556
 2802POPC   C3B38553   0.134  30.929   6.979
 2802POPC   C4B38554   0.338  30.742   7.343
 2803POPC   NC338555  27.855  36.985   5.482
 2803POPC   PO438556  27.314  36.532   5.415
 2803POPC   GL138557  27.556  36.703   5.782
 2803POPC   GL238558  27.863  36.525   5.906
 2803POPC   C1A38559  27.716  36.929   6.168
 2803POPC   D2A38560  27.558  36.904   6.596
 2803POPC   C3A38561  27.706  37.017   7.022
 2803POPC   C4A38562  27.382  37.129   7.413
 2803POPC   C1B38563  27.906  36.521   6.377
 2803POPC   C2B38564  27.959  36.523   6.813
 2803POPC   C3B38565  27.841  36.316   7.187
 2803POPC   C4B38566  27.895  36.456   7.639
 2804POPC   NC338567  29.015  35.283   5.321
 2804POPC   PO438568  28.804  35.847   5.484
 2804POPC   GL138569  29.032  35.545   5.823
 2804POPC   GL238570  29.185  35.190   5.790
 2804POPC   C1A38571  29.174  35.392   6.258
 2804POPC   D2A38572  29.019  35.457   6.682
 2804POPC   C3A38573  29.232  35.315   7.055
 2804POPC   C4A38574  29.291  35.496   7.477
 2804POPC   C1B38575  28.929  34.962   6.097
 2804POPC   C2B38576  29.003  34.940   6.534
 2804POPC   C3B38577  28.821  35.032   6.915
 2804POPC   C4B38578  28.693  35.400   7.116
 2805POPC   NC338579  29.236  35.953   5.597
 2805POPC   PO438580  28.949  36.545   5.384
 2805POPC   GL138581  28.890  36.208   5.836
 2805POPC   GL238582  28.973  36.339   6.084
 2805POPC   C1A38583  29.191  35.908   6.216
 2805POPC   D2A38584  29.458  35.705   6.573
 2805POPC   C3A38585  29.256  35.836   6.973
 2805POPC   C4A38586  29.012  36.160   7.200
 2805POPC   C1B38587  29.255  36.413   6.396
 2805POPC   C2B38588  29.250  36.405   6.829
 2805POPC   C3B38589  29.475  36.458   7.206
 2805POPC   C4B38590  29.487  36.789   7.542
 2806POPC   NC338591  10.679  42.232   5.126
 2806POPC   PO438592  10.295  41.999   5.553
 2806POPC   GL138593  10.471  42.227   5.872
 2806POPC   GL238594  10.824  42.272   5.885
 2806POPC   C1A38595  10.339  42.138   6.282
 2806POPC   D2A38596  10.181  41.896   6.615
 2806POPC   C3A38597  10.400  42.027   6.985
 2806POPC   C4A38598  10.325  42.299   7.315
 2806POPC   C1B38599  10.733  42.468   6.288
 2806POPC   C2B38600  10.502  42.434   6.681
 2806POPC   C3B38601  10.274  42.669   6.972
 2806POPC   C4B38602  10.611  42.879   7.157
 2807POPC   NC338603  37.167  29.800   5.465
 2807POPC   PO438604  36.498  29.687   5.400
 2807POPC   GL138605  36.784  29.765   5.824
 2807POPC   GL238606  37.150  29.863   5.957
 2807POPC   C1A38607  36.760  30.056   6.210
 2807POPC   D2A38608  36.479  30.230   6.518
 2807POPC   C3A38609  36.671  30.157   6.902
 2807POPC   C4A38610  36.729  29.875   7.230
 2807POPC   C1B38611  37.173  29.572   6.334
 2807POPC   C2B38612  37.140  29.412   6.778
 2807POPC   C3B38613  37.165  29.646   7.162
 2807POPC   C4B38614  37.156  30.113   7.134
 2808POPC   NC338615  23.700  28.735   5.397
 2808POPC   PO438616  23.755  28.079   5.417
 2808POPC   GL138617  23.750  28.426   5.800
 2808POPC   GL238618  23.467  28.681   5.854
 2808POPC   C1A38619  23.794  28.625   6.241
 2808POPC   D2A38620  23.608  28.489   6.639
 2808POPC   C3A38621  23.751  28.664   7.017
 2808POPC   C4A38622  23.687  28.380   7.355
 2808POPC   C1B38623  23.276  28.637   6.269
 2808POPC   C2B38624  23.120  28.732   6.688
 2808POPC   C3B38625  23.238  28.556   7.122
 2808POPC   C4B38626  23.247  28.539   7.593
 2809POPC   NC338627  40.278  21.053   5.687
 2809POPC   PO438628  39.812  21.447   5.409
 2809POPC   GL138629  40.011  21.468   5.791
 2809POPC   GL238630  40.356  21.565   5.786
 2809POPC   C1A38631  39.966  21.350   6.230
 2809POPC   D2A38632  39.713  21.357   6.608
 2809POPC   C3A38633  39.938  21.357   6.981
 2809POPC   C4A38634  39.798  21.060   7.271
 2809POPC   C1B38635  40.260  21.788   6.175
 2809POPC   C2B38636  40.097  21.705   6.592
 2809POPC   C3B38637  40.109  21.842   7.022
 2809POPC   C4B38638  39.964  21.779   7.450
 2810POPC   NC338639   1.854  28.320   5.303
 2810POPC   PO438640   2.195  28.819   5.322
 2810POPC   GL138641   2.219  28.475   5.638
 2810POPC   GL238642   1.857  28.437   5.796
 2810POPC   C1A38643   2.278  28.221   6.011
 2810POPC   D2A38644   2.366  28.310   6.465
 2810POPC   C3A38645   2.173  28.017   6.804
 2810POPC   C4A38646   1.848  27.966   7.157
 2810POPC   C1B38647   1.910  28.500   6.242
 2810POPC   C2B38648   1.924  28.452   6.683
 2810POPC   C3B38649   2.077  28.429   7.108
 2810POPC   C4B38650   1.938  28.339   7.533
 2811POPC   NC338651  20.205  30.065   5.326
 2811POPC   PO438652  19.498  29.841   5.444
 2811POPC   GL138653  19.684  29.727   5.836
 2811POPC   GL238654  20.044  29.762   5.804
 2811POPC   C1A38655  19.773  29.821   6.262
 2811POPC   D2A38656  19.810  29.732   6.689
 2811POPC   C3A38657  19.643  30.012   7.015
 2811POPC   C4A38658  19.831  29.829   7.384
 2811POPC   C1B38659  20.178  30.090   6.099
 2811POPC   C2B38660  20.030  30.185   6.529
 2811POPC   C3B38661  20.129  30.140   6.966
 2811POPC   C4B38662  19.985  30.302   7.365
 2812POPC   NC338663   4.701  29.881   5.532
 2812POPC   PO438664   4.139  30.110   5.372
 2812POPC   GL138665   4.312  30.124   5.804
 2812POPC   GL238666   4.417  29.783   5.965
 2812POPC   C1A38667   4.218  30.188   6.243
 2812POPC   D2A38668   4.308  29.985   6.638
 2812POPC   C3A38669   4.050  29.967   7.000
 2812POPC   C4A38670   4.280  29.796   7.323
 2812POPC   C1B38671   4.389  29.546   6.378
 2812POPC   C2B38672   4.616  29.572   6.781
 2812POPC   C3B38673   4.632  29.439   7.235
 2812POPC   C4B38674   4.779  29.392   7.688
 2813POPC   NC338675  38.725  15.764   5.685
 2813POPC   PO438676  39.143  16.124   5.231
 2813POPC   GL138677  39.130  16.074   5.660
 2813POPC   GL238678  38.829  16.246   5.650
 2813POPC   C1A38679  39.193  15.899   6.081
 2813POPC   D2A38680  39.050  16.034   6.441
 2813POPC   C3A38681  39.298  15.914   6.788
 2813POPC   C4A38682  39.262  15.893   7.217
 2813POPC   C1B38683  38.797  16.429   6.061
 2813POPC   C2B38684  38.859  16.520   6.492
 2813POPC   C3B38685  38.959  16.316   6.880
 2813POPC   C4B38686  38.794  16.543   7.186
 2814POPC   NC338687  19.024   0.785   5.466
 2814POPC   PO438688  19.500   0.321   5.436
 2814POPC   GL138689  19.228   0.220   5.756
 2814POPC   GL238690  19.230   0.562   5.883
 2814POPC   C1A38691  19.090   0.188   6.178
 2814POPC   D2A38692  19.181   0.421   6.531
 2814POPC   C3A38693  19.077   0.262   6.924
 2814POPC   C4A38694  19.194   0.518   7.228
 2814POPC   C1B38695  18.828   0.624   6.112
 2814POPC   C2B38696  18.752   0.795   6.497
 2814POPC   C3B38697  18.853   0.706   6.892
 2814POPC   C4B38698  18.872   0.911   7.292
 2815POPC   NC338699  28.464  13.930   5.601
 2815POPC   PO438700  28.206  14.521   5.237
 2815POPC   GL138701  28.256  14.406   5.682
 2815POPC   GL238702  28.529  14.341   5.901
 2815POPC   C1A38703  28.098  14.456   6.125
 2815POPC   D2A38704  27.956  14.437   6.532
 2815POPC   C3A38705  28.308  14.501   6.779
 2815POPC   C4A38706  28.305  14.591   7.206
 2815POPC   C1B38707  28.619  14.661   6.192
 2815POPC   C2B38708  28.700  14.798   6.601
 2815POPC   C3B38709  28.793  14.584   6.981
 2815POPC   C4B38710  28.792  14.529   7.407
 2816POPC   NC338711  18.960  40.996   5.247
 2816POPC   PO438712  19.327  40.471   5.513
 2816POPC   GL138713  19.128  40.657   5.832
 2816POPC   GL238714  18.798  40.695   5.716
 2816POPC   C1A38715  18.957  40.647   6.242
 2816POPC   D2A38716  19.032  40.524   6.644
 2816POPC   C3A38717  19.383  40.700   6.872
 2816POPC   C4A38718  19.274  40.817   7.277
 2816POPC   C1B38719  18.762  41.053   6.022
 2816POPC   C2B38720  18.813  41.141   6.468
 2816POPC   C3B38721  18.920  40.986   6.883
 2816POPC   C4B38722  18.920  41.204   7.277
 2817POPC   NC338723  42.291   3.169   5.244
 2817POPC   PO438724  42.460   3.818   5.482
 2817POPC   GL138725  42.507   3.607   5.871
 2817POPC   GL238726  42.448   3.252   5.756
 2817POPC   C1A38727  42.431   3.697   6.335
 2817POPC   D2A38728  42.248   4.029   6.639
 2817POPC   C3A38729  42.136   3.805   6.989
 2817POPC   C4A38730  42.032   3.436   7.205
 2817POPC   C1B38731  42.689   3.227   6.138
 2817POPC   C2B38732  42.630   3.215   6.561
 2817POPC   C3B38733  42.695   3.485   6.876
 2817POPC   C4B38734  42.549   3.353   7.239
 2818POPC   NC338735  13.376  12.260   5.495
 2818POPC   PO438736  14.035  11.997   5.508
 2818POPC   GL138737  13.855  12.132   5.873
 2818POPC   GL238738  13.494  12.049   5.943
 2818POPC   C1A38739  13.928  12.003   6.280
 2818POPC   D2A38740  13.802  11.789   6.610
 2818POPC   C3A38741  13.842  11.960   7.000
 2818POPC   C4A38742  13.791  12.235   7.332
 2818POPC   C1B38743  13.445  12.157   6.377
 2818POPC   C2B38744  13.438  12.246   6.815
 2818POPC   C3B38745  13.301  12.221   7.216
 2818POPC   C4B38746  13.421  12.348   7.657
 2819POPC   NC338747  11.519  12.035   5.332
 2819POPC   PO438748  10.910  12.084   5.243
 2819POPC   GL138749  11.118  12.091   5.730
 2819POPC   GL238750  11.451  12.264   5.789
 2819POPC   C1A38751  11.212  12.153   6.220
 2819POPC   D2A38752  11.314  12.374   6.632
 2819POPC   C3A38753  11.394  12.049   6.950
 2819POPC   C4A38754  11.377  11.769   7.342
 2819POPC   C1B38755  11.534  12.534   6.176
 2819POPC   C2B38756  11.823  12.507   6.556
 2819POPC   C3B38757  11.826  12.389   7.008
 2819POPC   C4B38758  11.584  12.233   7.383
 2820POPC   NC338759   7.332  22.061   5.399
 2820POPC   PO438760   7.046  22.637   5.301
 2820POPC   GL138761   7.243  22.449   5.749
 2820POPC   GL238762   7.489  22.129   5.885
 2820POPC   C1A38763   7.351  22.480   6.216
 2820POPC   D2A38764   7.590  22.263   6.544
 2820POPC   C3A38765   7.404  22.324   6.922
 2820POPC   C4A38766   7.287  22.296   7.341
 2820POPC   C1B38767   7.277  21.949   6.254
 2820POPC   C2B38768   7.144  21.947   6.700
 2820POPC   C3B38769   7.340  21.841   7.103
 2820POPC   C4B38770   7.578  21.877   7.507
 2821POPC   NC338771  28.286  12.336   5.353
 2821POPC   PO438772  28.420  11.699   5.404
 2821POPC   GL138773  28.255  11.900   5.745
 2821POPC   GL238774  28.575  12.030   5.823
 2821POPC   C1A38775  28.166  12.112   6.166
 2821POPC   D2A38776  28.123  12.326   6.605
 2821POPC   C3A38777  28.402  12.194   6.950
 2821POPC   C4A38778  28.292  11.932   7.290
 2821POPC   C1B38779  28.742  11.848   6.211
 2821POPC   C2B38780  28.762  11.933   6.674
 2821POPC   C3B38781  28.735  11.745   7.095
 2821POPC   C4B38782  28.702  11.785   7.560
 2822POPC   NC338783   7.383  34.984   5.184
 2822POPC   PO438784   7.744  34.570   5.542
 2822POPC   GL138785   7.628  34.678   5.887
 2822POPC   GL238786   7.326  34.499   5.928
 2822POPC   C1A38787   7.712  34.509   6.256
 2822POPC   D2A38788   7.486  34.452   6.574
 2822POPC   C3A38789   7.642  34.612   6.929
 2822POPC   C4A38790   7.354  34.723   7.183
 2822POPC   C1B38791   7.171  34.207   6.247
 2822POPC   C2B38792   7.017  34.295   6.688
 2822POPC   C3B38793   7.355  34.187   7.013
 2822POPC   C4B38794   7.390  34.204   7.452
 2823POPC   NC338795  37.029  41.111   5.483
 2823POPC   PO438796  36.520  40.537   5.431
 2823POPC   GL138797  36.760  40.647   5.772
 2823POPC   GL238798  36.661  40.342   5.896
 2823POPC   C1A38799  36.918  40.900   6.112
 2823POPC   D2A38800  37.032  40.853   6.543
 2823POPC   C3A38801  36.725  40.838   6.844
 2823POPC   C4A38802  36.874  40.965   7.253
 2823POPC   C1B38803  36.975  40.341   6.194
 2823POPC   C2B38804  37.192  40.315   6.583
 2823POPC   C3B38805  37.122  40.544   6.955
 2823POPC   C4B38806  36.859  40.449   7.311
 2824POPC   NC338807  38.650  12.289   5.508
 2824POPC   PO438808  37.950  12.282   5.466
 2824POPC   GL138809  38.248  12.164   5.823
 2824POPC   GL238810  38.516  11.877   5.830
 2824POPC   C1A38811  38.357  12.154   6.262
 2824POPC   D2A38812  38.624  12.354   6.598
 2824POPC   C3A38813  38.528  12.234   7.028
 2824POPC   C4A38814  38.115  12.146   7.196
 2824POPC   C1B38815  38.757  11.815   6.232
 2824POPC   C2B38816  38.571  11.854   6.631
 2824POPC   C3B38817  38.392  11.749   6.986
 2824POPC   C4B38818  38.565  11.802   7.371
 2825POPC   NC338819  17.660   7.628   5.433
 2825POPC   PO438820  17.217   7.123   5.433
 2825POPC   GL138821  17.302   7.443   5.764
 2825POPC   GL238822  17.618   7.288   5.839
 2825POPC   C1A38823  17.247   7.583   6.195
 2825POPC   D2A38824  17.267   7.376   6.620
 2825POPC   C3A38825  17.295   7.542   7.056
 2825POPC   C4A38826  17.570   7.539   7.466
 2825POPC   C1B38827  17.479   7.093   6.244
 2825POPC   C2B38828  17.709   7.111   6.648
 2825POPC   C3B38829  17.749   7.273   7.068
 2825POPC   C4B38830  17.872   7.105   7.485
 2826POPC   NC338831   6.976   9.703   5.201
 2826POPC   PO438832   7.575   9.804   5.291
 2826POPC   GL138833   7.619   9.921   5.709
 2826POPC   GL238834   7.736  10.235   5.787
 2826POPC   C1A38835   7.407   9.887   6.118
 2826POPC   D2A38836   7.309   9.628   6.486
 2826POPC   C3A38837   7.175   9.796   6.866
 2826POPC   C4A38838   7.342   9.643   7.246
 2826POPC   C1B38839   7.639  10.322   6.242
 2826POPC   C2B38840   7.487  10.097   6.596
 2826POPC   C3B38841   7.668   9.936   6.927
 2826POPC   C4B38842   7.788   9.922   7.307
 2827POPC   NC338843  28.665  23.072   5.572
 2827POPC   PO438844  28.009  22.797   5.485
 2827POPC   GL138845  28.249  22.991   5.858
 2827POPC   GL238846  28.515  22.742   5.965
 2827POPC   C1A38847  28.478  23.152   6.277
 2827POPC   D2A38848  28.428  22.972   6.707
 2827POPC   C3A38849  28.360  23.222   7.060
 2827POPC   C4A38850  28.692  23.363   7.269
 2827POPC   C1B38851  28.153  22.774   6.301
 2827POPC   C2B38852  27.940  22.727   6.692
 2827POPC   C3B38853  28.129  22.767   7.074
 2827POPC   C4B38854  28.486  22.615   7.265
 2828POPC   NC338855   2.298  32.822   5.395
 2828POPC   PO438856   2.161  33.444   5.285
 2828POPC   GL138857   2.086  33.177   5.702
 2828POPC   GL238858   1.860  32.866   5.737
 2828POPC   C1A38859   1.920  33.253   6.148
 2828POPC   D2A38860   1.819  33.022   6.510
 2828POPC   C3A38861   2.091  33.152   6.829
 2828POPC   C4A38862   1.849  33.185   7.161
 2828POPC   C1B38863   2.098  32.760   6.133
 2828POPC   C2B38864   2.185  32.660   6.572
 2828POPC   C3B38865   1.952  32.696   6.945
 2828POPC   C4B38866   2.137  32.750   7.316
 2829POPC   NC338867  23.890  13.683   5.568
 2829POPC   PO438868  23.296  13.396   5.504
 2829POPC   GL138869  23.570  13.451   5.873
 2829POPC   GL238870  23.614  13.819   5.983
 2829POPC   C1A38871  23.882  13.403   6.215
 2829POPC   D2A38872  24.047  13.237   6.586
 2829POPC   C3A38873  23.700  13.263   6.841
 2829POPC   C4A38874  23.725  13.296   7.246
 2829POPC   C1B38875  23.989  13.911   6.213
 2829POPC   C2B38876  24.077  13.748   6.593
 2829POPC   C3B38877  23.937  13.695   6.985
 2829POPC   C4B38878  24.059  13.703   7.375
 2830POPC   NC338879  24.515  11.902   5.596
 2830POPC   PO438880  24.614  11.205   5.527
 2830POPC   GL138881  24.527  11.399   5.875
 2830POPC   GL238882  24.230  11.155   5.889
 2830POPC   C1A38883  24.752  11.626   6.210
 2830POPC   D2A38884  24.613  11.448   6.582
 2830POPC   C3A38885  24.724  11.435   7.002
 2830POPC   C4A38886  24.472  11.539   7.351
 2830POPC   C1B38887  24.332  11.129   6.310
 2830POPC   C2B38888  24.514  10.965   6.693
 2830POPC   C3B38889  24.377  11.061   7.107
 2830POPC   C4B38890  24.351  11.107   7.566
 2831POPC   NC338891  33.876  14.034   5.542
 2831POPC   PO438892  33.405  14.451   5.244
 2831POPC   GL138893  33.436  14.623   5.755
 2831POPC   GL238894  33.756  14.501   5.833
 2831POPC   C1A38895  33.492  14.668   6.237
 2831POPC   D2A38896  33.528  14.355   6.611
 2831POPC   C3A38897  33.537  14.567   6.993
 2831POPC   C4A38898  33.263  14.926   7.054
 2831POPC   C1B38899  33.846  14.252   6.191
 2831POPC   C2B38900  34.040  14.238   6.569
 2831POPC   C3B38901  33.923  14.193   6.970
 2831POPC   C4B38902  33.940  14.440   7.311
 2832POPC   NC338903  35.121  35.710   5.597
 2832POPC   PO438904  35.576  35.798   5.175
 2832POPC   GL138905  35.558  35.386   5.540
 2832POPC   GL238906  35.264  35.235   5.716
 2832POPC   C1A38907  35.612  35.358   6.053
 2832POPC   D2A38908  35.632  35.742   6.372
 2832POPC   C3A38909  35.869  35.695   6.783
 2832POPC   C4A38910  35.778  35.567   7.239
 2832POPC   C1B38911  35.113  35.346   6.144
 2832POPC   C2B38912  35.349  35.325   6.522
 2832POPC   C3B38913  35.339  35.428   6.937
 2832POPC   C4B38914  34.958  35.361   7.123
 2833POPC   NC338915  40.532   5.641   5.418
 2833POPC   PO438916  39.943   6.025   5.452
 2833POPC   GL138917  39.862   5.805   5.829
 2833POPC   GL238918  39.828   5.437   5.810
 2833POPC   C1A38919  39.917   5.824   6.296
 2833POPC   D2A38920  40.146   5.860   6.696
 2833POPC   C3A38921  39.803   5.877   6.974
 2833POPC   C4A38922  39.667   5.941   7.381
 2833POPC   C1B38923  39.889   5.311   6.237
 2833POPC   C2B38924  39.897   5.420   6.655
 2833POPC   C3B38925  40.102   5.458   7.023
 2833POPC   C4B38926  39.914   5.473   7.399
 2834POPC   NC338927   6.076  27.027   5.123
 2834POPC   PO438928   5.649  26.586   5.340
 2834POPC   GL138929   5.979  26.633   5.668
 2834POPC   GL238930   6.026  26.989   5.747
 2834POPC   C1A38931   6.138  26.585   6.091
 2834POPC   D2A38932   5.918  26.577   6.495
 2834POPC   C3A38933   6.074  26.745   6.873
 2834POPC   C4A38934   6.258  26.638   7.270
 2834POPC   C1B38935   5.803  26.969   6.178
 2834POPC   C2B38936   5.606  26.946   6.637
 2834POPC   C3B38937   5.624  26.715   7.061
 2834POPC   C4B38938   5.904  27.024   7.277
 2835POPC   NC338939  36.759  33.270   5.420
 2835POPC   PO438940  36.865  32.601   5.453
 2835POPC   GL138941  37.047  32.843   5.789
 2835POPC   GL238942  37.039  33.209   5.845
 2835POPC   C1A38943  36.978  32.810   6.225
 2835POPC   D2A38944  36.832  33.043   6.569
 2835POPC   C3A38945  37.001  32.931   6.957
 2835POPC   C4A38946  36.926  32.918   7.387
 2835POPC   C1B38947  36.722  33.364   6.124
 2835POPC   C2B38948  36.681  33.526   6.521
 2835POPC   C3B38949  36.917  33.567   6.886
 2835POPC   C4B38950  36.778  33.382   7.252
 2836POPC   NC338951  36.858  35.751   5.491
 2836POPC   PO438952  37.159  36.366   5.458
 2836POPC   GL138953  36.891  36.178   5.814
 2836POPC   GL238954  37.057  35.884   5.937
 2836POPC   C1A38955  36.705  36.064   6.249
 2836POPC   D2A38956  36.919  35.929   6.655
 2836POPC   C3A38957  36.810  36.088   7.061
 2836POPC   C4A38958  37.025  36.057   7.457
 2836POPC   C1B38959  37.190  35.617   6.248
 2836POPC   C2B38960  37.329  35.553   6.683
 2836POPC   C3B38961  37.130  35.663   7.092
 2836POPC   C4B38962  37.076  35.533   7.545
 2837POPC   NC338963  15.018  11.378   5.210
 2837POPC   PO438964  14.376  11.435   5.409
 2837POPC   GL138965  14.261  11.417   5.824
 2837POPC   GL238966  14.598  11.377   5.875
 2837POPC   C1A38967  14.264  11.161   6.217
 2837POPC   D2A38968  14.468  11.129   6.640
 2837POPC   C3A38969  14.253  11.160   7.040
 2837POPC   C4A38970  14.330  11.295   7.490
 2837POPC   C1B38971  14.776  11.336   6.257
 2837POPC   C2B38972  14.923  11.331   6.660
 2837POPC   C3B38973  14.803  11.116   7.074
 2837POPC   C4B38974  14.837  11.288   7.522
 2838POPC   NC338975   5.395  14.757   5.410
 2838POPC   PO438976   5.038  15.380   5.375
 2838POPC   GL138977   4.967  15.308   5.785
 2838POPC   GL238978   5.254  15.188   5.941
 2838POPC   C1A38979   4.803  15.296   6.191
 2838POPC   D2A38980   4.861  15.045   6.538
 2838POPC   C3A38981   5.034  15.256   6.858
 2838POPC   C4A38982   4.787  15.293   7.233
 2838POPC   C1B38983   5.347  14.951   6.351
 2838POPC   C2B38984   5.172  14.656   6.687
 2838POPC   C3B38985   4.994  14.805   7.062
 2838POPC   C4B38986   5.248  15.119   7.308
 2839POPC   NC338987   7.302  39.747   5.258
 2839POPC   PO438988   7.301  40.371   5.446
 2839POPC   GL138989   7.321  40.076   5.807
 2839POPC   GL238990   7.090  39.784   5.743
 2839POPC   C1A38991   7.505  40.172   6.223
 2839POPC   D2A38992   7.712  40.300   6.599
 2839POPC   C3A38993   7.578  40.054   6.915
 2839POPC   C4A38994   7.239  40.117   7.236
 2839POPC   C1B38995   6.995  39.870   6.183
 2839POPC   C2B38996   7.168  40.020   6.583
 2839POPC   C3B38997   7.017  39.795   6.910
 2839POPC   C4B38998   6.927  39.702   7.318
 2840POPC   NC338999  38.972  30.197   5.488
 2840POPC   PO439000  39.321  30.761   5.441
 2840POPC   GL139001  39.176  30.824   5.858
 2840POPC   GL239002  39.128  30.499   5.863
 2840POPC   C1A39003  39.372  30.844   6.269
 2840POPC   D2A39004  39.550  30.611   6.644
 2840POPC   C3A39005  39.516  30.697   7.069
 2840POPC   C4A39006  39.193  31.003   7.190
 2840POPC   C1B39007  38.945  30.517   6.242
 2840POPC   C2B39008  39.028  30.708   6.623
 2840POPC   C3B39009  39.033  30.565   6.998
 2840POPC   C4B39010  38.850  30.313   7.278
 2841POPC   NC339011  13.555  29.505   5.596
 2841POPC   PO439012  13.535  30.135   5.380
 2841POPC   GL139013  13.639  30.018   5.811
 2841POPC   GL239014  13.941  29.827   5.809
 2841POPC   C1A39015  13.440  29.940   6.231
 2841POPC   D2A39016  13.466  29.836   6.683
 2841POPC   C3A39017  13.346  30.148   6.970
 2841POPC   C4A39018  13.591  30.253   7.288
 2841POPC   C1B39019  13.862  29.673   6.233
 2841POPC   C2B39020  13.991  29.623   6.672
 2841POPC   C3B39021  13.815  29.786   7.081
 2841POPC   C4B39022  13.775  29.748   7.557
 2842POPC   NC339023  42.747  25.186   5.660
 2842POPC   PO439024  42.147  25.204   5.290
 2842POPC   GL139025  42.191  25.284   5.775
 2842POPC   GL239026  42.445  25.520   5.869
 2842POPC   C1A39027  42.359  25.164   6.228
 2842POPC   D2A39028  42.732  25.159   6.515
 2842POPC   C3A39029  42.573  24.949   6.858
 2842POPC   C4A39030  42.108  24.797   6.920
 2842POPC   C1B39031  42.274  25.660   6.233
 2842POPC   C2B39032  42.415  25.572   6.630
 2842POPC   C3B39033  42.265  25.319   6.955
 2842POPC   C4B39034  42.279  25.088   7.310
 2843POPC   NC339035  40.960  42.459   5.456
 2843POPC   PO439036  40.737  41.830   5.295
 2843POPC   GL139037  40.716  42.083   5.728
 2843POPC   GL239038  40.477  42.387   5.723
 2843POPC   C1A39039  40.978  42.276   6.108
 2843POPC   D2A39040  41.164  42.399   6.536
 2843POPC   C3A39041  40.983  42.513   6.951
 2843POPC   C4A39042  40.671  42.243   7.152
 2843POPC   C1B39043  40.547  42.532   6.143
 2843POPC   C2B39044  40.656  42.407   6.567
 2843POPC   C3B39045  40.440  42.629   6.918
 2843POPC   C4B39046  40.480  42.800   7.331
 2844POPC   NC339047   8.005  27.758   5.018
 2844POPC   PO439048   8.463  27.820   5.518
 2844POPC   GL139049   8.227  27.583   5.832
 2844POPC   GL239050   8.084  27.266   5.683
 2844POPC   C1A39051   8.253  27.587   6.299
 2844POPC   D2A39052   8.080  27.770   6.716
 2844POPC   C3A39053   8.331  27.611   7.105
 2844POPC   C4A39054   8.172  27.726   7.514
 2844POPC   C1B39055   7.939  27.218   6.131
 2844POPC   C2B39056   8.007  27.284   6.627
 2844POPC   C3B39057   7.882  27.396   7.071
 2844POPC   C4B39058   8.006  27.251   7.520
 2845POPC   NC339059   7.672  38.343   5.599
 2845POPC   PO439060   7.109  38.054   5.520
 2845POPC   GL139061   7.173  38.454   5.734
 2845POPC   GL239062   7.350  38.793   5.689
 2845POPC   C1A39063   7.209  38.525   6.175
 2845POPC   D2A39064   7.533  38.446   6.469
 2845POPC   C3A39065   7.405  38.476   6.878
 2845POPC   C4A39066   7.401  38.183   7.176
 2845POPC   C1B39067   7.578  38.865   6.112
 2845POPC   C2B39068   7.473  38.957   6.576
 2845POPC   C3B39069   7.563  38.956   7.015
 2845POPC   C4B39070   7.490  38.772   7.403
 2846POPC   NC339071  10.238  28.361   5.480
 2846POPC   PO439072  10.807  28.155   5.476
 2846POPC   GL139073  10.840  28.454   5.789
 2846POPC   GL239074  10.521  28.366   5.932
 2846POPC   C1A39075  10.971  28.366   6.209
 2846POPC   D2A39076  11.126  28.350   6.624
 2846POPC   C3A39077  10.932  28.570   6.943
 2846POPC   C4A39078  10.567  28.571   7.151
 2846POPC   C1B39079  10.496  28.413   6.407
 2846POPC   C2B39080  10.251  28.678   6.684
 2846POPC   C3B39081  10.066  28.580   7.054
 2846POPC   C4B39082  10.214  28.175   7.232
 2847POPC   NC339083  17.970   4.141   5.263
 2847POPC   PO439084  17.529   4.564   5.534
 2847POPC   GL139085  17.678   4.239   5.791
 2847POPC   GL239086  17.405   4.093   5.979
 2847POPC   C1A39087  17.825   4.358   6.209
 2847POPC   D2A39088  17.669   4.221   6.586
 2847POPC   C3A39089  17.767   4.476   6.915
 2847POPC   C4A39090  17.708   4.274   7.257
 2847POPC   C1B39091  17.260   4.384   6.313
 2847POPC   C2B39092  17.246   4.458   6.778
 2847POPC   C3B39093  17.184   4.242   7.180
 2847POPC   C4B39094  17.159   4.385   7.608
 2848POPC   NC339095  35.842  11.228   5.200
 2848POPC   PO439096  36.348  11.671   5.229
 2848POPC   GL139097  36.232  11.494   5.663
 2848POPC   GL239098  36.380  11.181   5.762
 2848POPC   C1A39099  36.047  11.443   6.110
 2848POPC   D2A39100  35.927  11.571   6.545
 2848POPC   C3A39101  36.013  11.375   6.954
 2848POPC   C4A39102  36.322  11.361   7.276
 2848POPC   C1B39103  36.554  11.445   6.106
 2848POPC   C2B39104  36.456  11.411   6.555
 2848POPC   C3B39105  36.466  11.049   6.835
 2848POPC   C4B39106  36.281  10.869   7.195
 2849POPC   NC339107  39.583  37.827   5.530
 2849POPC   PO439108  40.239  37.605   5.466
 2849POPC   GL139109  39.991  37.633   5.815
 2849POPC   GL239110  40.011  37.997   5.914
 2849POPC   C1A39111  40.152  37.581   6.233
 2849POPC   D2A39112  40.222  37.761   6.625
 2849POPC   C3A39113  40.325  37.541   7.020
 2849POPC   C4A39114  40.224  37.605   7.452
 2849POPC   C1B39115  39.689  37.821   6.208
 2849POPC   C2B39116  39.704  37.726   6.652
 2849POPC   C3B39117  39.908  37.965   7.012
 2849POPC   C4B39118  39.713  38.288   7.321
 2850POPC   NC339119  20.112   5.282   5.598
 2850POPC   PO439120  20.719   5.361   5.501
 2850POPC   GL139121  20.519   5.330   5.931
 2850POPC   GL239122  20.196   5.496   6.058
 2850POPC   C1A39123  20.563   5.347   6.383
 2850POPC   D2A39124  20.309   5.425   6.753
 2850POPC   C3A39125  20.455   5.216   7.149
 2850POPC   C4A39126  20.624   5.435   7.523
 2850POPC   C1B39127  20.050   5.163   6.392
 2850POPC   C2B39128  20.076   4.984   6.848
 2850POPC   C3B39129  20.168   4.801   7.286
 2850POPC   C4B39130  20.238   4.506   7.654
 2851POPC   NC339131  26.186   9.240   5.425
 2851POPC   PO439132  26.007   8.613   5.529
 2851POPC   GL139133  26.135   8.897   5.874
 2851POPC   GL239134  26.005   9.248   5.903
 2851POPC   C1A39135  26.125   8.748   6.308
 2851POPC   D2A39136  25.874   8.741   6.703
 2851POPC   C3A39137  26.110   8.729   7.078
 2851POPC   C4A39138  25.781   8.840   7.357
 2851POPC   C1B39139  26.261   9.233   6.280
 2851POPC   C2B39140  26.248   9.080   6.706
 2851POPC   C3B39141  25.958   9.190   7.001
 2851POPC   C4B39142  25.926   9.322   7.391
 2852POPC   NC339143  10.057  22.879   5.249
 2852POPC   PO439144   9.697  23.423   5.481
 2852POPC   GL139145   9.759  23.094   5.867
 2852POPC   GL239146   9.411  22.878   5.911
 2852POPC   C1A39147   9.788  22.686   6.185
 2852POPC   D2A39148   9.513  22.527   6.521
 2852POPC   C3A39149   9.801  22.565   6.892
 2852POPC   C4A39150   9.739  22.751   7.292
 2852POPC   C1B39151   9.480  23.088   6.280
 2852POPC   C2B39152   9.699  22.981   6.610
 2852POPC   C3B39153   9.471  22.959   6.922
 2852POPC   C4B39154   9.497  23.216   7.253
 2853POPC   NC339155  42.878   0.810   5.107
 2853POPC   PO439156  43.288   1.355   5.411
 2853POPC   GL139157  43.146   1.350   5.853
 2853POPC   GL239158  42.786   1.258   5.973
 2853POPC   C1A39159  43.198   1.260   6.302
 2853POPC   D2A39160  42.941   1.388   6.663
 2853POPC   C3A39161  43.200   1.408   7.048
 2853POPC   C4A39162  43.315   0.966   7.152
 2853POPC   C1B39163  42.800   0.897   6.300
 2853POPC   C2B39164  42.916   0.850   6.751
 2853POPC   C3B39165  42.797   1.113   7.099
 2853POPC   C4B39166  42.959   1.157   7.515
 2854POPC   NC339167  19.849  17.999   5.541
 2854POPC   PO439168  19.790  17.376   5.590
 2854POPC   GL139169  19.774  17.655   5.977
 2854POPC   GL239170  19.686  18.014   6.024
 2854POPC   C1A39171  19.902  17.698   6.415
 2854POPC   D2A39172  20.293  17.819   6.635
 2854POPC   C3A39173  20.111  17.837   7.036
 2854POPC   C4A39174  19.840  17.529   7.217
 2854POPC   C1B39175  19.484  18.008   6.437
 2854POPC   C2B39176  19.607  17.875   6.865
 2854POPC   C3B39177  19.397  17.742   7.264
 2854POPC   C4B39178  19.615  17.732   7.682
 2855POPC   NC339179  31.619  33.456   5.419
 2855POPC   PO439180  31.318  34.078   5.279
 2855POPC   GL139181  31.355  33.960   5.735
 2855POPC   GL239182  31.607  33.753   5.818
 2855POPC   C1A39183  31.424  34.027   6.213
 2855POPC   D2A39184  31.719  34.155   6.552
 2855POPC   C3A39185  31.517  34.035   6.987
 2855POPC   C4A39186  31.131  34.160   7.226
 2855POPC   C1B39187  31.596  33.528   6.176
 2855POPC   C2B39188  31.616  33.673   6.591
 2855POPC   C3B39189  31.526  33.502   6.957
 2855POPC   C4B39190  31.661  33.621   7.301
 2856POPC   NC339191  37.922  20.078   5.363
 2856POPC   PO439192  37.859  19.437   5.221
 2856POPC   GL139193  37.795  19.643   5.627
 2856POPC   GL239194  37.537  19.931   5.687
 2856POPC   C1A39195  37.913  19.636   6.076
 2856POPC   D2A39196  37.988  19.553   6.535
 2856POPC   C3A39197  37.723  19.589   6.910
 2856POPC   C4A39198  37.755  19.779   7.315
 2856POPC   C1B39199  37.617  20.065   6.150
 2856POPC   C2B39200  37.534  19.993   6.624
 2856POPC   C3B39201  37.562  20.198   7.072
 2856POPC   C4B39202  37.547  20.197   7.572
 2857POPC   NC339203  33.288  40.176   5.413
 2857POPC   PO439204  32.715  39.819   5.359
 2857POPC   GL139205  32.888  39.919   5.752
 2857POPC   GL239206  32.867  40.269   5.729
 2857POPC   C1A39207  33.107  39.825   6.160
 2857POPC   D2A39208  33.198  40.056   6.560
 2857POPC   C3A39209  32.899  39.937   6.895
 2857POPC   C4A39210  32.959  39.658   7.230
 2857POPC   C1B39211  32.891  40.297   6.184
 2857POPC   C2B39212  32.921  40.496   6.614
 2857POPC   C3B39213  33.102  40.389   7.021
 2857POPC   C4B39214  32.801  40.259   7.328
 2858POPC   NC339215   4.969   1.058   5.450
 2858POPC   PO439216   5.692   0.936   5.403
 2858POPC   GL139217   5.514   1.091   5.809
 2858POPC   GL239218   5.189   1.274   5.857
 2858POPC   C1A39219   5.424   1.067   6.280
 2858POPC   D2A39220   5.106   1.052   6.633
 2858POPC   C3A39221   5.170   1.416   6.939
 2858POPC   C4A39222   5.152   1.107   7.218
 2858POPC   C1B39223   4.926   1.263   6.218
 2858POPC   C2B39224   4.791   1.460   6.608
 2858POPC   C3B39225   4.686   1.263   7.006
 2858POPC   C4B39226   4.693   1.517   7.367
 2859POPC   NC339227  11.955  40.964   5.248
 2859POPC   PO439228  12.600  41.228   5.466
 2859POPC   GL139229  12.310  40.864   5.669
 2859POPC   GL239230  11.964  40.802   5.711
 2859POPC   C1A39231  12.219  40.701   6.144
 2859POPC   D2A39232  12.228  40.943   6.580
 2859POPC   C3A39233  12.228  40.864   7.031
 2859POPC   C4A39234  12.485  41.072   7.366
 2859POPC   C1B39235  11.833  41.029   6.037
 2859POPC   C2B39236  11.789  40.771   6.414
 2859POPC   C3B39237  11.744  40.745   6.869
 2859POPC   C4B39238  11.649  40.497   7.254
 2860POPC   NC339239   2.819  10.066   5.101
 2860POPC   PO439240   2.488   9.647   5.539
 2860POPC   GL139241   2.643   9.744   5.950
 2860POPC   GL239242   2.975   9.846   5.847
 2860POPC   C1A39243   2.694  10.026   6.309
 2860POPC   D2A39244   2.794  10.169   6.740
 2860POPC   C3A39245   2.804   9.848   7.072
 2860POPC   C4A39246   2.745   9.811   7.513
 2860POPC   C1B39247   3.105   9.643   6.194
 2860POPC   C2B39248   3.124   9.792   6.587
 2860POPC   C3B39249   3.246   9.607   6.938
 2860POPC   C4B39250   3.366   9.727   7.330
 2861POPC   NC339251  42.554  31.064   5.231
 2861POPC   PO439252  41.897  31.359   5.327
 2861POPC   GL139253  42.152  31.291   5.724
 2861POPC   GL239254  42.313  30.963   5.695
 2861POPC   C1A39255  42.135  31.505   6.167
 2861POPC   D2A39256  42.146  31.326   6.604
 2861POPC   C3A39257  42.206  31.448   7.027
 2861POPC   C4A39258  42.491  31.765   7.184
 2861POPC   C1B39259  42.450  31.083   6.110
 2861POPC   C2B39260  42.619  31.359   6.419
 2861POPC   C3B39261  42.644  31.292   6.844
 2861POPC   C4B39262  42.474  31.073   7.229
 2862POPC   NC339263   3.938  44.730   5.436
 2862POPC   PO439264   4.636  44.770   5.606
 2862POPC   GL139265   4.223  44.771   5.864
 2862POPC   GL239266   4.001   0.085   5.847
 2862POPC   C1A39267   4.222  44.691   6.321
 2862POPC   D2A39268   4.544  44.804   6.635
 2862POPC   C3A39269   4.458  44.497   6.937
 2862POPC   C4A39270   4.082  44.425   7.146
 2862POPC   C1B39271   4.272   0.175   6.177
 2862POPC   C2B39272   4.106   0.130   6.581
 2862POPC   C3B39273   4.154  44.911   6.973
 2862POPC   C4B39274   4.570  44.924   7.217
 2863POPC   NC339275  12.634   3.335   5.504
 2863POPC   PO439276  12.802   3.978   5.382
 2863POPC   GL139277  12.721   3.799   5.775
 2863POPC   GL239278  13.032   3.600   5.790
 2863POPC   C1A39279  12.665   3.482   6.137
 2863POPC   D2A39280  12.866   3.511   6.537
 2863POPC   C3A39281  12.671   3.479   6.941
 2863POPC   C4A39282  12.646   3.696   7.331
 2863POPC   C1B39283  13.138   3.261   6.122
 2863POPC   C2B39284  13.112   3.063   6.552
 2863POPC   C3B39285  13.133   3.235   6.965
 2863POPC   C4B39286  13.132   3.555   7.261
 2864POPC   NC339287  31.425  17.970   5.422
 2864POPC   PO439288  31.077  17.356   5.380
 2864POPC   GL139289  31.367  17.410   5.770
 2864POPC   GL239290  31.605  17.139   5.862
 2864POPC   C1A39291  31.551  17.644   6.158
 2864POPC   D2A39292  31.744  17.662   6.599
 2864POPC   C3A39293  31.566  17.624   7.042
 2864POPC   C4A39294  31.456  17.442   7.480
 2864POPC   C1B39295  31.451  17.153   6.270
 2864POPC   C2B39296  31.379  17.241   6.717
 2864POPC   C3B39297  31.548  17.086   7.125
 2864POPC   C4B39298  31.594  16.963   7.601
 2865POPC   NC339299  42.593  18.999   5.382
 2865POPC   PO439300  42.133  19.410   5.418
 2865POPC   GL139301  42.159  19.011   5.723
 2865POPC   GL239302  42.508  18.970   5.891
 2865POPC   C1A39303  42.003  18.833   6.142
 2865POPC   D2A39304  41.904  18.727   6.595
 2865POPC   C3A39305  42.171  18.975   6.846
 2865POPC   C4A39306  42.261  19.226   7.208
 2865POPC   C1B39307  42.712  19.344   6.094
 2865POPC   C2B39308  42.854  19.327   6.544
 2865POPC   C3B39309  42.686  19.069   6.908
 2865POPC   C4B39310  42.635  18.926   7.351
 2866POPC   NC339311  41.640  32.614   5.544
 2866POPC   PO439312  41.742  31.955   5.585
 2866POPC   GL139313  41.723  32.245   5.958
 2866POPC   GL239314  41.981  32.501   5.900
 2866POPC   C1A39315  41.363  32.273   6.276
 2866POPC   D2A39316  41.077  32.269   6.659
 2866POPC   C3A39317  41.301  32.170   7.055
 2866POPC   C4A39318  41.534  32.044   7.447
 2866POPC   C1B39319  42.045  32.610   6.314
 2866POPC   C2B39320  41.738  32.519   6.628
 2866POPC   C3B39321  41.493  32.709   6.928
 2866POPC   C4B39322  41.500  32.564   7.339
 2867POPC   NC339323  23.268   6.235   5.073
 2867POPC   PO439324  22.816   6.682   5.275
 2867POPC   GL139325  22.893   6.846   5.770
 2867POPC   GL239326  23.176   7.123   5.805
 2867POPC   C1A39327  22.840   6.671   6.250
 2867POPC   D2A39328  22.874   6.507   6.699
 2867POPC   C3A39329  22.686   6.724   7.033
 2867POPC   C4A39330  22.872   6.663   7.426
 2867POPC   C1B39331  23.294   6.904   6.192
 2867POPC   C2B39332  23.254   6.869   6.649
 2867POPC   C3B39333  23.259   6.667   7.075
 2867POPC   C4B39334  23.426   6.596   7.511
 2868POPC   NC339335  37.192   3.609   5.527
 2868POPC   PO439336  36.666   3.160   5.525
 2868POPC   GL139337  36.916   3.307   5.867
 2868POPC   GL239338  37.231   3.182   5.811
 2868POPC   C1A39339  36.924   3.572   6.237
 2868POPC   D2A39340  36.726   3.715   6.622
 2868POPC   C3A39341  36.791   3.451   6.961
 2868POPC   C4A39342  36.935   3.473   7.364
 2868POPC   C1B39343  37.301   3.195   6.242
 2868POPC   C2B39344  37.188   3.358   6.642
 2868POPC   C3B39345  37.210   3.109   7.030
 2868POPC   C4B39346  37.340   3.154   7.467
 2869POPC   NC339347  36.794  14.744   5.349
 2869POPC   PO439348  36.619  15.416   5.395
 2869POPC   GL139349  36.864  15.139   5.692
 2869POPC   GL239350  36.645  14.860   5.821
 2869POPC   C1A39351  37.027  15.054   6.126
 2869POPC   D2A39352  36.869  15.068   6.558
 2869POPC   C3A39353  36.900  15.386   6.879
 2869POPC   C4A39354  36.972  15.257   7.262
 2869POPC   C1B39355  36.546  14.804   6.254
 2869POPC   C2B39356  36.383  14.933   6.677
 2869POPC   C3B39357  36.632  14.923   7.056
 2869POPC   C4B39358  36.558  14.969   7.518
 2870POPC   NC339359  34.172  15.487   5.379
 2870POPC   PO439360  34.186  14.797   5.367
 2870POPC   GL139361  34.475  14.981   5.688
 2870POPC   GL239362  34.363  15.287   5.804
 2870POPC   C1A39363  34.469  14.929   6.147
 2870POPC   D2A39364  34.390  14.858   6.573
 2870POPC   C3A39365  34.656  15.048   6.893
 2870POPC   C4A39366  34.703  14.894   7.295
 2870POPC   C1B39367  34.626  15.408   6.127
 2870POPC   C2B39368  34.498  15.374   6.536
 2870POPC   C3B39369  34.547  15.557   6.941
 2870POPC   C4B39370  34.776  15.400   7.287
 2871POPC   NC339371  20.749  32.703   5.470
 2871POPC   PO439372  20.524  33.383   5.592
 2871POPC   GL139373  20.537  33.023   5.813
 2871POPC   GL239374  20.203  32.929   5.808
 2871POPC   C1A39375  20.715  33.020   6.213
 2871POPC   D2A39376  20.708  32.885   6.623
 2871POPC   C3A39377  20.618  33.225   6.896
 2871POPC   C4A39378  20.619  33.103   7.305
 2871POPC   C1B39379  20.310  32.716   6.203
 2871POPC   C2B39380  20.208  32.627   6.621
 2871POPC   C3B39381  20.300  32.836   7.005
 2871POPC   C4B39382  20.242  32.775   7.455
 2872POPC   NC339383  39.254  15.306   5.030
 2872POPC   PO439384  38.901  15.362   5.560
 2872POPC   GL139385  39.020  15.082   5.880
 2872POPC   GL239386  38.976  14.751   5.816
 2872POPC   C1A39387  39.186  15.223   6.268
 2872POPC   D2A39388  39.036  15.521   6.574
 2872POPC   C3A39389  39.191  15.417   6.977
 2872POPC   C4A39390  39.234  15.358   7.404
 2872POPC   C1B39391  39.210  14.703   6.230
 2872POPC   C2B39392  39.188  14.569   6.691
 2872POPC   C3B39393  39.215  14.824   7.085
 2872POPC   C4B39394  38.860  15.071   7.222
 2873POPC   NC339395   0.763  24.414   5.043
 2873POPC   PO439396   1.306  24.458   5.470
 2873POPC   GL139397   1.246  24.304   5.858
 2873POPC   GL239398   0.896  24.261   5.805
 2873POPC   C1A39399   1.329  24.445   6.305
 2873POPC   D2A39400   1.394  24.585   6.748
 2873POPC   C3A39401   1.152  24.445   7.118
 2873POPC   C4A39402   1.236  24.588   7.562
 2873POPC   C1B39403   0.877  24.604   6.102
 2873POPC   C2B39404   0.892  24.621   6.552
 2873POPC   C3B39405   0.710  24.742   6.953
 2873POPC   C4B39406   0.751  24.619   7.387
 2874POPC   NC339407  17.767  33.270   5.031
 2874POPC   PO439408  17.334  32.865   5.230
 2874POPC   GL139409  17.479  32.813   5.673
 2874POPC   GL239410  17.202  32.902   5.814
 2874POPC   C1A39411  17.676  32.978   6.082
 2874POPC   D2A39412  17.652  33.206   6.501
 2874POPC   C3A39413  17.805  33.049   6.901
 2874POPC   C4A39414  17.573  32.980   7.265
 2874POPC   C1B39415  17.197  32.693   6.176
 2874POPC   C2B39416  17.172  32.838   6.555
 2874POPC   C3B39417  17.147  32.941   6.940
 2874POPC   C4B39418  17.097  32.768   7.327
 2875POPC   NC339419  42.684  21.540   5.346
 2875POPC   PO439420  42.039  21.354   5.511
 2875POPC   GL139421  42.251  21.480   5.825
 2875POPC   GL239422  42.568  21.330   5.820
 2875POPC   C1A39423  42.349  21.670   6.188
 2875POPC   D2A39424  42.230  21.570   6.577
 2875POPC   C3A39425  42.534  21.597   6.870
 2875POPC   C4A39426  42.312  21.641   7.225
 2875POPC   C1B39427  42.429  21.165   6.246
 2875POPC   C2B39428  42.546  21.097   6.695
 2875POPC   C3B39429  42.417  21.134   7.128
 2875POPC   C4B39430  42.452  21.247   7.582
 2876POPC   NC339431  11.245   1.648   5.644
 2876POPC   PO439432  10.759   1.244   5.352
 2876POPC   GL139433  10.496   1.313   5.667
 2876POPC   GL239434  10.409   0.993   5.692
 2876POPC   C1A39435  10.454   1.370   6.090
 2876POPC   D2A39436  10.565   1.294   6.505
 2876POPC   C3A39437  10.750   1.604   6.792
 2876POPC   C4A39438  10.617   1.587   7.203
 2876POPC   C1B39439  10.223   0.894   6.078
 2876POPC   C2B39440  10.342   0.730   6.445
 2876POPC   C3B39441  10.266   0.821   6.873
 2876POPC   C4B39442  10.056   0.885   7.278
 2877POPC   NC339443  19.409  41.684   5.572
 2877POPC   PO439444  18.763  41.766   5.374
 2877POPC   GL139445  18.931  41.473   5.704
 2877POPC   GL239446  19.132  41.159   5.726
 2877POPC   C1A39447  19.050  41.464   6.138
 2877POPC   D2A39448  18.924  41.663   6.510
 2877POPC   C3A39449  19.014  41.583   6.923
 2877POPC   C4A39450  19.227  41.634   7.322
 2877POPC   C1B39451  19.315  41.042   6.157
 2877POPC   C2B39452  19.314  41.269   6.577
 2877POPC   C3B39453  19.364  41.230   7.017
 2877POPC   C4B39454  19.511  41.259   7.443
 2878POPC   NC339455   8.420  33.534   5.264
 2878POPC   PO439456   7.977  33.736   5.640
 2878POPC   GL139457   8.093  33.819   6.002
 2878POPC   GL239458   8.352  34.015   5.857
 2878POPC   C1A39459   8.090  33.740   6.444
 2878POPC   D2A39460   8.129  33.529   6.827
 2878POPC   C3A39461   8.288  33.750   7.137
 2878POPC   C4A39462   8.255  33.987   7.525
 2878POPC   C1B39463   8.537  33.899   6.242
 2878POPC   C2B39464   8.602  33.703   6.638
 2878POPC   C3B39465   8.762  33.605   7.031
 2878POPC   C4B39466   8.693  33.692   7.479
 2879POPC   NC339467  33.052  34.629   5.403
 2879POPC   PO439468  32.735  34.163   5.605
 2879POPC   GL139469  33.042  34.344   5.859
 2879POPC   GL239470  33.209  34.702   5.861
 2879POPC   C1A39471  32.825  34.417   6.242
 2879POPC   D2A39472  32.645  34.236   6.626
 2879POPC   C3A39473  32.654  34.475   6.994
 2879POPC   C4A39474  32.772  34.641   7.380
 2879POPC   C1B39475  33.351  34.499   6.234
 2879POPC   C2B39476  33.133  34.478   6.640
 2879POPC   C3B39477  33.166  34.586   7.043
 2879POPC   C4B39478  33.410  34.650   7.396
 2880POPC   NC339479  13.116  21.938   5.622
 2880POPC   PO439480  12.482  21.844   5.671
 2880POPC   GL139481  12.560  22.190   5.927
 2880POPC   GL239482  12.854  22.138   6.051
 2880POPC   C1A39483  12.362  22.324   6.304
 2880POPC   D2A39484  12.421  22.585   6.667
 2880POPC   C3A39485  12.767  22.506   6.918
 2880POPC   C4A39486  12.742  22.299   7.267
 2880POPC   C1B39487  12.875  22.338   6.438
 2880POPC   C2B39488  13.141  22.185   6.774
 2880POPC   C3B39489  13.279  22.066   7.165
 2880POPC   C4B39490  13.018  21.900   7.423
 2881POPC   NC339491  33.838  30.283   5.504
 2881POPC   PO439492  34.182  29.765   5.360
 2881POPC   GL139493  34.079  29.934   5.801
 2881POPC   GL239494  33.756  29.773   5.931
 2881POPC   C1A39495  34.040  29.998   6.283
 2881POPC   D2A39496  34.039  29.708   6.649
 2881POPC   C3A39497  33.895  29.896   7.045
 2881POPC   C4A39498  33.919  30.316   7.140
 2881POPC   C1B39499  33.396  29.838   6.249
 2881POPC   C2B39500  33.339  29.833   6.708
 2881POPC   C3B39501  33.442  30.177   7.001
 2881POPC   C4B39502  33.550  30.157   7.445
 2882POPC   NC339503  38.616  22.028   5.256
 2882POPC   PO439504  38.071  22.054   5.168
 2882POPC   GL139505  38.243  22.043   5.638
 2882POPC   GL239506  37.998  22.221   5.830
 2882POPC   C1A39507  38.515  22.023   6.087
 2882POPC   D2A39508  38.736  22.156   6.535
 2882POPC   C3A39509  38.605  22.010   6.981
 2882POPC   C4A39510  38.608  21.711   7.338
 2882POPC   C1B39511  38.146  22.327   6.261
 2882POPC   C2B39512  38.230  22.260   6.712
 2882POPC   C3B39513  38.220  22.310   7.167
 2882POPC   C4B39514  38.278  22.046   7.511
 2883POPC   NC339515  31.305   6.258   5.457
 2883POPC   PO439516  31.478   5.713   5.281
 2883POPC   GL139517  31.352   5.626   5.729
 2883POPC   GL239518  31.108   5.875   5.791
 2883POPC   C1A39519  31.389   5.671   6.216
 2883POPC   D2A39520  31.223   5.752   6.673
 2883POPC   C3A39521  31.470   5.810   7.069
 2883POPC   C4A39522  31.466   5.946   7.496
 2883POPC   C1B39523  31.072   6.067   6.218
 2883POPC   C2B39524  31.036   6.238   6.649
 2883POPC   C3B39525  31.017   6.064   7.072
 2883POPC   C4B39526  31.062   6.258   7.475
 2884POPC   NC339527  40.341  24.647   5.511
 2884POPC   PO439528  39.981  24.104   5.340
 2884POPC   GL139529  39.916  24.392   5.708
 2884POPC   GL239530  40.216  24.256   5.826
 2884POPC   C1A39531  39.847  24.542   6.164
 2884POPC   D2A39532  39.677  24.487   6.622
 2884POPC   C3A39533  39.800  24.727   6.988
 2884POPC   C4A39534  39.975  24.660   7.384
 2884POPC   C1B39535  40.321  24.301   6.225
 2884POPC   C2B39536  40.115  24.261   6.566
 2884POPC   C3B39537  40.163  24.362   6.975
 2884POPC   C4B39538  40.267  24.106   7.317
 2885POPC   NC339539   7.205  20.012   5.563
 2885POPC   PO439540   7.690  19.646   5.262
 2885POPC   GL139541   7.699  19.677   5.703
 2885POPC   GL239542   7.739  20.021   5.826
 2885POPC   C1A39543   7.476  19.650   6.090
 2885POPC   D2A39544   7.501  19.514   6.502
 2885POPC   C3A39545   7.545  19.812   6.824
 2885POPC   C4A39546   7.368  19.829   7.209
 2885POPC   C1B39547   7.612  20.101   6.292
 2885POPC   C2B39548   7.768  20.276   6.690
 2885POPC   C3B39549   7.675  20.245   7.132
 2885POPC   C4B39550   7.512  20.148   7.560
 2886POPC   NC339551  11.410  14.124   5.387
 2886POPC   PO439552  10.997  14.598   5.168
 2886POPC   GL139553  11.081  14.602   5.671
 2886POPC   GL239554  11.108  14.263   5.785
 2886POPC   C1A39555  11.377  14.542   6.101
 2886POPC   D2A39556  11.521  14.392   6.514
 2886POPC   C3A39557  11.359  14.480   6.907
 2886POPC   C4A39558  11.516  14.473   7.335
 2886POPC   C1B39559  11.157  14.054   6.213
 2886POPC   C2B39560  11.016  13.909   6.624
 2886POPC   C3B39561  11.172  14.029   7.030
 2886POPC   C4B39562  11.172  14.119   7.473
 2887POPC   NC339563  26.002  11.598   5.372
 2887POPC   PO439564  26.142  10.908   5.402
 2887POPC   GL139565  25.958  11.007   5.811
 2887POPC   GL239566  25.602  11.108   5.868
 2887POPC   C1A39567  26.104  11.104   6.230
 2887POPC   D2A39568  26.090  11.350   6.604
 2887POPC   C3A39569  26.303  11.194   6.948
 2887POPC   C4A39570  26.072  11.047   7.265
 2887POPC   C1B39571  25.721  11.450   6.190
 2887POPC   C2B39572  25.623  11.542   6.636
 2887POPC   C3B39573  25.739  11.405   7.079
 2887POPC   C4B39574  25.536  11.517   7.481
 2888POPC   NC339575   2.440  15.542   5.501
 2888POPC   PO439576   2.732  16.130   5.485
 2888POPC   GL139577   2.802  16.044   5.926
 2888POPC   GL239578   2.739  15.717   5.886
 2888POPC   C1A39579   2.705  15.954   6.342
 2888POPC   D2A39580   2.607  15.848   6.734
 2888POPC   C3A39581   2.764  16.127   6.989
 2888POPC   C4A39582   3.080  16.201   7.251
 2888POPC   C1B39583   2.888  15.447   6.183
 2888POPC   C2B39584   3.018  15.402   6.605
 2888POPC   C3B39585   2.833  15.464   6.988
 2888POPC   C4B39586   2.952  15.667   7.366
 2889POPC   NC339587  15.803  39.597   5.493
 2889POPC   PO439588  15.860  38.986   5.681
 2889POPC   GL139589  15.939  39.335   5.948
 2889POPC   GL239590  16.182  39.608   5.858
 2889POPC   C1A39591  15.817  39.294   6.373
 2889POPC   D2A39592  15.607  39.344   6.765
 2889POPC   C3A39593  15.858  39.236   7.106
 2889POPC   C4A39594  15.835  39.208   7.539
 2889POPC   C1B39595  16.275  39.502   6.320
 2889POPC   C2B39596  16.224  39.341   6.750
 2889POPC   C3B39597  16.354  39.361   7.204
 2889POPC   C4B39598  16.540  39.496   7.616
 2890POPC   NC339599   5.899  10.320   5.289
 2890POPC   PO439600   5.926   9.760   5.496
 2890POPC   GL139601   5.964   9.814   5.893
 2890POPC   GL239602   6.142  10.115   5.916
 2890POPC   C1A39603   5.810   9.602   6.253
 2890POPC   D2A39604   5.571   9.604   6.636
 2890POPC   C3A39605   5.855   9.569   6.999
 2890POPC   C4A39606   5.705   9.769   7.382
 2890POPC   C1B39607   6.215   9.934   6.309
 2890POPC   C2B39608   6.206   9.905   6.755
 2890POPC   C3B39609   6.045  10.060   7.127
 2890POPC   C4B39610   6.068  10.088   7.570
 2891POPC   NC339611  39.392  22.519   5.354
 2891POPC   PO439612  38.903  23.087   5.374
 2891POPC   GL139613  39.270  23.060   5.668
 2891POPC   GL239614  39.286  22.732   5.804
 2891POPC   C1A39615  39.402  23.110   6.125
 2891POPC   D2A39616  39.485  22.932   6.563
 2891POPC   C3A39617  39.417  23.134   6.980
 2891POPC   C4A39618  39.055  23.221   7.272
 2891POPC   C1B39619  39.106  22.662   6.227
 2891POPC   C2B39620  39.072  22.635   6.680
 2891POPC   C3B39621  39.123  22.730   7.125
 2891POPC   C4B39622  39.050  22.730   7.568
 2892POPC   NC339623  16.170  21.316   5.399
 2892POPC   PO439624  15.659  21.017   5.345
 2892POPC   GL139625  15.791  21.212   5.745
 2892POPC   GL239626  15.993  21.508   5.833
 2892POPC   C1A39627  15.828  21.217   6.208
 2892POPC   D2A39628  15.951  21.436   6.579
 2892POPC   C3A39629  15.867  21.255   6.954
 2892POPC   C4A39630  15.659  21.502   7.189
 2892POPC   C1B39631  16.306  21.500   6.227
 2892POPC   C2B39632  16.442  21.552   6.682
 2892POPC   C3B39633  16.335  21.404   7.120
 2892POPC   C4B39634  16.106  21.161   7.450
 2893POPC   NC339635  32.953   3.085   5.350
 2893POPC   PO439636  33.094   3.676   5.274
 2893POPC   GL139637  33.019   3.740   5.716
 2893POPC   GL239638  32.906   3.429   5.800
 2893POPC   C1A39639  32.934   3.778   6.194
 2893POPC   D2A39640  32.659   3.668   6.571
 2893POPC   C3A39641  32.951   3.732   6.932
 2893POPC   C4A39642  33.222   3.847   7.295
 2893POPC   C1B39643  32.880   3.254   6.241
 2893POPC   C2B39644  32.743   3.172   6.659
 2893POPC   C3B39645  32.833   3.272   7.099
 2893POPC   C4B39646  33.266   3.333   7.272
 2894POPC   NC339647   7.790   5.753   5.432
 2894POPC   PO439648   8.372   5.579   5.212
 2894POPC   GL139649   8.225   5.711   5.705
 2894POPC   GL239650   7.932   5.969   5.867
 2894POPC   C1A39651   8.310   5.578   6.170
 2894POPC   D2A39652   8.641   5.420   6.495
 2894POPC   C3A39653   8.577   5.532   6.937
 2894POPC   C4A39654   8.225   5.495   7.203
 2894POPC   C1B39655   7.694   6.199   6.234
 2894POPC   C2B39656   7.596   6.090   6.695
 2894POPC   C3B39657   7.938   5.863   6.946
 2894POPC   C4B39658   8.199   6.011   7.299
 2895POPC   NC339659  44.371  38.844   5.550
 2895POPC   PO439660  44.729  38.281   5.540
 2895POPC   GL139661  44.777  38.358   5.959
 2895POPC   GL239662   0.013  38.667   5.962
 2895POPC   C1A39663  44.880  38.069   6.297
 2895POPC   D2A39664  44.993  38.126   6.727
 2895POPC   C3A39665  44.648  38.026   6.999
 2895POPC   C4A39666  44.765  38.107   7.393
 2895POPC   C1B39667  44.975  38.550   6.400
 2895POPC   C2B39668  44.598  38.441   6.669
 2895POPC   C3B39669  44.677  38.552   7.103
 2895POPC   C4B39670   0.083  38.755   7.160
 2896POPC   NC339671  23.429  34.393   5.222
 2896POPC   PO439672  22.761  34.149   5.195
 2896POPC   GL139673  23.025  34.572   5.525
 2896POPC   GL239674  22.771  34.684   5.788
 2896POPC   C1A39675  23.193  34.630   6.069
 2896POPC   D2A39676  23.268  34.454   6.524
 2896POPC   C3A39677  23.143  34.615   6.962
 2896POPC   C4A39678  22.864  34.693   7.291
 2896POPC   C1B39679  22.745  34.601   6.278
 2896POPC   C2B39680  22.717  34.721   6.707
 2896POPC   C3B39681  22.481  34.522   7.021
 2896POPC   C4B39682  22.565  34.264   7.378
 2897POPC   NC339683   3.396  42.833   5.413
 2897POPC   PO439684   3.911  43.344   5.357
 2897POPC   GL139685   3.624  43.218   5.691
 2897POPC   GL239686   3.222  43.246   5.684
 2897POPC   C1A39687   3.695  43.354   6.125
 2897POPC   D2A39688   3.928  43.301   6.505
 2897POPC   C3A39689   3.737  43.174   6.887
 2897POPC   C4A39690   3.514  43.434   7.224
 2897POPC   C1B39691   3.275  43.027   6.066
 2897POPC   C2B39692   3.462  43.013   6.467
 2897POPC   C3B39693   3.239  43.215   6.806
 2897POPC   C4B39694   3.203  43.020   7.174
 2898POPC   NC339695   1.538  29.269   5.318
 2898POPC   PO439696   1.208  28.723   5.450
 2898POPC   GL139697   1.262  29.051   5.779
 2898POPC   GL239698   1.531  28.904   5.970
 2898POPC   C1A39699   1.138  29.348   6.146
 2898POPC   D2A39700   1.067  29.596   6.571
 2898POPC   C3A39701   1.153  29.361   6.979
 2898POPC   C4A39702   1.455  29.046   7.118
 2898POPC   C1B39703   1.122  28.795   6.212
 2898POPC   C2B39704   1.098  28.652   6.662
 2898POPC   C3B39705   1.073  28.694   7.137
 2898POPC   C4B39706   1.052  28.783   7.618
 2899POPC   NC339707  13.529   3.108   5.435
 2899POPC   PO439708  13.174   2.535   5.417
 2899POPC   GL139709  13.535   2.576   5.725
 2899POPC   GL239710  13.689   2.872   5.841
 2899POPC   C1A39711  13.622   2.519   6.181
 2899POPC   D2A39712  13.473   2.718   6.537
 2899POPC   C3A39713  13.615   2.607   6.887
 2899POPC   C4A39714  13.610   2.503   7.283
 2899POPC   C1B39715  13.763   3.017   6.234
 2899POPC   C2B39716  13.956   2.881   6.618
 2899POPC   C3B39717  13.730   3.110   6.918
 2899POPC   C4B39718  13.496   2.990   7.227
 2900POPC   NC339719   3.987   5.073   5.461
 2900POPC   PO439720   3.327   4.854   5.692
 2900POPC   GL139721   3.448   5.246   5.842
 2900POPC   GL239722   3.787   5.171   5.924
 2900POPC   C1A39723   3.403   5.245   6.297
 2900POPC   D2A39724   3.393   5.416   6.704
 2900POPC   C3A39725   3.445   5.196   7.039
 2900POPC   C4A39726   3.390   4.770   7.069
 2900POPC   C1B39727   3.858   4.959   6.331
 2900POPC   C2B39728   3.816   4.926   6.798
 2900POPC   C3B39729   3.839   4.978   7.279
 2900POPC   C4B39730   3.956   5.248   7.699
 2901POPC   NC339731  16.103  25.672   5.408
 2901POPC   PO439732  15.936  24.979   5.341
 2901POPC   GL139733  15.947  25.254   5.721
 2901POPC   GL239734  16.208  25.493   5.853
 2901POPC   C1A39735  15.844  25.337   6.175
 2901POPC   D2A39736  16.079  25.510   6.501
 2901POPC   C3A39737  15.998  25.327   6.905
 2901POPC   C4A39738  15.810  25.242   7.298
 2901POPC   C1B39739  16.301  25.139   6.097
 2901POPC   C2B39740  16.275  25.022   6.505
 2901POPC   C3B39741  16.414  25.019   6.921
 2901POPC   C4B39742  16.284  25.092   7.320
 2902POPC   NC339743  31.239  32.789   5.274
 2902POPC   PO439744  31.798  33.030   5.474
 2902POPC   GL139745  31.467  33.087   5.764
 2902POPC   GL239746  31.152  32.887   5.769
 2902POPC   C1A39747  31.607  33.008   6.173
 2902POPC   D2A39748  31.546  33.182   6.552
 2902POPC   C3A39749  31.570  32.989   6.917
 2902POPC   C4A39750  31.598  32.770   7.278
 2902POPC   C1B39751  31.131  33.148   6.166
 2902POPC   C2B39752  31.049  33.086   6.599
 2902POPC   C3B39753  31.065  33.278   6.976
 2902POPC   C4B39754  31.281  33.178   7.355
 2903POPC   NC339755  43.435  28.870   5.557
 2903POPC   PO439756  42.974  28.407   5.202
 2903POPC   GL139757  42.982  28.436   5.663
 2903POPC   GL239758  43.256  28.513   5.889
 2903POPC   C1A39759  42.824  28.340   6.104
 2903POPC   D2A39760  42.780  28.294   6.585
 2903POPC   C3A39761  43.147  28.407   6.853
 2903POPC   C4A39762  43.346  28.179   7.200
 2903POPC   C1B39763  43.366  28.679   6.303
 2903POPC   C2B39764  43.411  28.852   6.771
 2903POPC   C3B39765  43.474  28.682   7.219
 2903POPC   C4B39766  43.436  28.487   7.663
 2904POPC   NC339767  33.255  15.316   5.020
 2904POPC   PO439768  32.898  14.801   5.158
 2904POPC   GL139769  33.057  14.921   5.630
 2904POPC   GL239770  32.940  14.679   5.905
 2904POPC   C1A39771  33.197  15.099   6.076
 2904POPC   D2A39772  33.331  15.412   6.457
 2904POPC   C3A39773  33.168  15.430   6.916
 2904POPC   C4A39774  33.162  15.376   7.374
 2904POPC   C1B39775  32.764  14.846   6.304
 2904POPC   C2B39776  32.827  15.010   6.756
 2904POPC   C3B39777  32.770  15.002   7.240
 2904POPC   C4B39778  32.697  14.805   7.716
 2905POPC   NC339779   9.907  32.241   5.521
 2905POPC   PO439780   9.423  32.610   5.502
 2905POPC   GL139781   9.677  32.582   5.836
 2905POPC   GL239782   9.994  32.716   5.762
 2905POPC   C1A39783   9.629  32.400   6.226
 2905POPC   D2A39784   9.474  32.482   6.629
 2905POPC   C3A39785   9.722  32.268   6.934
 2905POPC   C4A39786   9.825  32.028   7.291
 2905POPC   C1B39787  10.141  32.453   6.107
 2905POPC   C2B39788  10.048  32.287   6.523
 2905POPC   C3B39789  10.196  32.451   6.901
 2905POPC   C4B39790  10.064  32.480   7.303
 2906POPC   NC339791  27.442  28.441   5.400
 2906POPC   PO439792  28.018  28.706   5.488
 2906POPC   GL139793  27.834  28.459   5.804
 2906POPC   GL239794  27.565  28.216   5.866
 2906POPC   C1A39795  27.684  28.707   6.160
 2906POPC   D2A39796  27.467  28.713   6.566
 2906POPC   C3A39797  27.645  28.650   6.972
 2906POPC   C4A39798  27.455  28.561   7.381
 2906POPC   C1B39799  27.744  28.206   6.285
 2906POPC   C2B39800  27.687  28.166   6.760
 2906POPC   C3B39801  27.401  28.092   7.158
 2906POPC   C4B39802  27.124  27.905   7.492
 2907POPC   NC339803  10.572  36.876   5.486
 2907POPC   PO439804  11.021  37.405   5.539
 2907POPC   GL139805  10.756  37.164   5.855
 2907POPC   GL239806  10.362  37.061   5.907
 2907POPC   C1A39807  10.657  37.275   6.266
 2907POPC   D2A39808  10.321  37.229   6.499
 2907POPC   C3A39809  10.495  37.125   6.874
 2907POPC   C4A39810  10.374  37.165   7.255
 2907POPC   C1B39811  10.461  36.780   6.262
 2907POPC   C2B39812  10.661  36.669   6.666
 2907POPC   C3B39813  10.481  36.616   7.082
 2907POPC   C4B39814  10.372  36.736   7.508
 2908POPC   NC339815   3.506  39.422   5.100
 2908POPC   PO439816   3.844  39.777   5.568
 2908POPC   GL139817   3.682  40.077   5.831
 2908POPC   GL239818   3.376  39.985   5.922
 2908POPC   C1A39819   3.690  40.212   6.269
 2908POPC   D2A39820   3.756  40.003   6.676
 2908POPC   C3A39821   3.643  40.219   7.028
 2908POPC   C4A39822   3.290  40.415   7.162
 2908POPC   C1B39823   3.503  39.748   6.311
 2908POPC   C2B39824   3.285  39.764   6.721
 2908POPC   C3B39825   3.349  39.814   7.176
 2908POPC   C4B39826   3.462  39.675   7.613
 2909POPC   NC339827   1.642  35.555   5.472
 2909POPC   PO439828   1.034  35.297   5.379
 2909POPC   GL139829   1.146  35.421   5.810
 2909POPC   GL239830   1.147  35.077   5.941
 2909POPC   C1A39831   1.316  35.573   6.242
 2909POPC   D2A39832   1.298  35.476   6.703
 2909POPC   C3A39833   1.293  35.763   7.072
 2909POPC   C4A39834   1.332  35.610   7.479
 2909POPC   C1B39835   1.069  35.114   6.386
 2909POPC   C2B39836   0.794  34.915   6.702
 2909POPC   C3B39837   0.994  34.900   7.124
 2909POPC   C4B39838   1.352  35.190   7.155
 2910POPC   NC339839  22.898  40.690   5.427
 2910POPC   PO439840  22.436  41.183   5.468
 2910POPC   GL139841  22.774  41.040   5.826
 2910POPC   GL239842  22.840  40.677   5.939
 2910POPC   C1A39843  22.811  41.024   6.315
 2910POPC   D2A39844  22.942  40.945   6.762
 2910POPC   C3A39845  22.845  40.565   7.047
 2910POPC   C4A39846  22.794  40.228   7.383
 2910POPC   C1B39847  23.015  40.557   6.383
 2910POPC   C2B39848  23.292  40.584   6.783
 2910POPC   C3B39849  23.276  40.903   7.145
 2910POPC   C4B39850  23.121  41.036   7.563
 2911POPC   NC339851   1.486  24.911   5.489
 2911POPC   PO439852   0.799  25.200   5.396
 2911POPC   GL139853   1.002  25.471   5.755
 2911POPC   GL239854   1.389  25.551   5.768
 2911POPC   C1A39855   1.084  25.384   6.213
 2911POPC   D2A39856   1.325  25.527   6.586
 2911POPC   C3A39857   1.096  25.427   6.986
 2911POPC   C4A39858   0.969  25.077   7.255
 2911POPC   C1B39859   1.565  25.292   6.095
 2911POPC   C2B39860   1.482  25.012   6.449
 2911POPC   C3B39861   1.485  25.106   6.901
 2911POPC   C4B39862   1.582  25.508   7.157
 2912POPC   NC339863   6.162  30.265   5.577
 2912POPC   PO439864   6.675  30.597   5.347
 2912POPC   GL139865   6.844  30.726   5.768
 2912POPC   GL239866   7.014  30.406   5.871
 2912POPC   C1A39867   6.984  30.806   6.197
 2912POPC   D2A39868   6.943  30.479   6.528
 2912POPC   C3A39869   6.892  30.612   6.949
 2912POPC   C4A39870   7.073  30.570   7.353
 2912POPC   C1B39871   6.595  30.489   6.126
 2912POPC   C2B39872   6.391  30.454   6.515
 2912POPC   C3B39873   6.478  30.303   6.923
 2912POPC   C4B39874   6.479  30.585   7.273
 2913POPC   NC339875  15.255  13.339   4.892
 2913POPC   PO439876  15.069  13.396   5.563
 2913POPC   GL139877  15.082  13.612   5.908
 2913POPC   GL239878  14.748  13.655   5.994
 2913POPC   C1A39879  15.355  13.592   6.261
 2913POPC   D2A39880  15.257  13.722   6.682
 2913POPC   C3A39881  15.277  13.442   7.040
 2913POPC   C4A39882  15.449  13.620   7.408
 2913POPC   C1B39883  14.877  13.454   6.376
 2913POPC   C2B39884  14.829  13.468   6.793
 2913POPC   C3B39885  14.873  13.856   7.035
 2913POPC   C4B39886  15.070  14.019   7.406
 2914POPC   NC339887  33.113  43.655   5.556
 2914POPC   PO439888  33.050  44.328   5.565
 2914POPC   GL139889  32.751  44.032   5.816
 2914POPC   GL239890  32.809  43.657   5.957
 2914POPC   C1A39891  32.726  44.043   6.279
 2914POPC   D2A39892  32.967  43.811   6.596
 2914POPC   C3A39893  32.831  43.766   7.051
 2914POPC   C4A39894  32.836  43.594   7.516
 2914POPC   C1B39895  33.203  43.516   6.192
 2914POPC   C2B39896  33.419  43.507   6.588
 2914POPC   C3B39897  33.356  43.797   6.924
 2914POPC   C4B39898  33.240  43.823   7.334
 2915POPC   NC339899   5.575  19.249   5.149
 2915POPC   PO439900   5.014  19.248   5.588
 2915POPC   GL139901   5.078  19.187   5.985
 2915POPC   GL239902   5.029  18.899   6.013
 2915POPC   C1A39903   5.312  19.234   6.331
 2915POPC   D2A39904   5.495  19.407   6.652
 2915POPC   C3A39905   5.225  19.325   6.969
 2915POPC   C4A39906   5.272  19.222   7.353
 2915POPC   C1B39907   4.652  18.730   6.198
 2915POPC   C2B39908   4.559  18.725   6.603
 2915POPC   C3B39909   4.527  18.866   7.030
 2915POPC   C4B39910   4.884  18.889   7.284
 2916POPC   NC339911  43.802  32.392   5.404
 2916POPC   PO439912  44.496  32.294   5.469
 2916POPC   GL139913  44.678  32.322   5.864
 2916POPC   GL239914  44.332  32.244   5.941
 2916POPC   C1A39915  44.671  32.262   6.312
 2916POPC   D2A39916  44.821  32.424   6.673
 2916POPC   C3A39917  44.537  32.335   6.962
 2916POPC   C4A39918  44.658  32.149   7.322
 2916POPC   C1B39919  44.190  32.522   6.223
 2916POPC   C2B39920  44.115  32.386   6.611
 2916POPC   C3B39921  44.103  32.606   6.954
 2916POPC   C4B39922  44.252  32.510   7.344
 2917POPC   NC339923  26.417   6.901   5.207
 2917POPC   PO439924  27.008   6.608   5.358
 2917POPC   GL139925  26.796   6.570   5.758
 2917POPC   GL239926  27.065   6.303   5.794
 2917POPC   C1A39927  26.688   6.730   6.206
 2917POPC   D2A39928  26.589   6.944   6.626
 2917POPC   C3A39929  26.642   6.710   7.038
 2917POPC   C4A39930  26.967   6.730   7.371
 2917POPC   C1B39931  26.897   6.263   6.205
 2917POPC   C2B39932  26.826   6.449   6.628
 2917POPC   C3B39933  26.931   6.239   7.047
 2917POPC   C4B39934  26.947   6.225   7.518
 2918POPC   NC339935  25.995  37.133   5.459
 2918POPC   PO439936  25.433  37.310   5.538
 2918POPC   GL139937  25.734  37.091   5.901
 2918POPC   GL239938  25.985  36.780   5.883
 2918POPC   C1A39939  25.839  36.981   6.356
 2918POPC   D2A39940  25.785  36.904   6.821
 2918POPC   C3A39941  26.159  37.006   7.058
 2918POPC   C4A39942  26.481  37.266   7.317
 2918POPC   C1B39943  25.760  36.512   6.201
 2918POPC   C2B39944  25.694  36.389   6.659
 2918POPC   C3B39945  25.702  36.496   7.132
 2918POPC   C4B39946  25.592  36.913   7.329
 2919POPC   NC339947  35.335   0.844   5.747
 2919POPC   PO439948  35.435   0.453   5.236
 2919POPC   GL139949  35.462   0.280   5.683
 2919POPC   GL239950  35.152   0.040   5.731
 2919POPC   C1A39951  35.458   0.256   6.155
 2919POPC   D2A39952  35.481   0.348   6.609
 2919POPC   C3A39953  35.213   0.623   6.858
 2919POPC   C4A39954  35.258   0.645   7.319
 2919POPC   C1B39955  35.085  44.914   6.195
 2919POPC   C2B39956  35.171  44.949   6.679
 2919POPC   C3B39957  35.282   0.189   7.095
 2919POPC   C4B39958  35.114   0.189   7.557
 2920POPC   NC339959   7.221  32.493   5.483
 2920POPC   PO439960   7.753  32.011   5.487
 2920POPC   GL139961   7.473  32.112   5.818
 2920POPC   GL239962   7.468  32.464   5.958
 2920POPC   C1A39963   7.253  32.057   6.206
 2920POPC   D2A39964   7.208  32.420   6.509
 2920POPC   C3A39965   7.409  32.409   6.918
 2920POPC   C4A39966   7.207  32.281   7.279
 2920POPC   C1B39967   7.576  32.786   6.286
 2920POPC   C2B39968   7.591  32.874   6.729
 2920POPC   C3B39969   7.497  32.861   7.157
 2920POPC   C4B39970   7.564  32.581   7.452
 2921POPC   NC339971  19.349   6.844   5.526
 2921POPC   PO439972  18.860   6.475   5.271
 2921POPC   GL139973  18.839   6.523   5.751
 2921POPC   GL239974  18.931   6.841   5.795
 2921POPC   C1A39975  19.020   6.499   6.217
 2921POPC   D2A39976  19.377   6.461   6.528
 2921POPC   C3A39977  19.300   6.450   7.009
 2921POPC   C4A39978  18.997   6.302   7.321
 2921POPC   C1B39979  18.841   6.995   6.189
 2921POPC   C2B39980  18.707   6.775   6.557
 2921POPC   C3B39981  18.823   6.623   6.933
 2921POPC   C4B39982  18.981   6.798   7.275
 2922POPC   NC339983  14.432  14.584   5.189
 2922POPC   PO439984  14.421  14.030   5.401
 2922POPC   GL139985  14.292  14.067   5.814
 2922POPC   GL239986  14.090  14.355   5.792
 2922POPC   C1A39987  14.507  14.229   6.184
 2922POPC   D2A39988  14.681  14.515   6.490
 2922POPC   C3A39989  14.674  14.324   6.881
 2922POPC   C4A39990  14.627  14.268   7.319
 2922POPC   C1B39991  14.174  14.609   6.187
 2922POPC   C2B39992  14.186  14.384   6.601
 2922POPC   C3B39993  14.197  14.422   7.051
 2922POPC   C4B39994  14.045  14.614   7.415
 2923POPC   NC339995  20.582  29.138   5.342
 2923POPC   PO439996  20.975  29.767   5.294
 2923POPC   GL139997  20.969  29.353   5.638
 2923POPC   GL239998  20.645  29.192   5.821
 2923POPC   C1A39999  20.961  29.354   6.148
 2923POPC   D2A40000  20.638  29.345   6.473
 2923POPC   C3A40001  20.707  29.276   6.902
 2923POPC   C4A40002  20.844  28.921   7.119
 2923POPC   C1B40003  20.478  28.969   6.168
 2923POPC   C2B40004  20.558  28.849   6.615
 2923POPC   C3B40005  20.339  28.894   7.007
 2923POPC   C4B40006  19.914  28.941   7.174
 2924POPC   NC340007  41.504  29.286   5.457
 2924POPC   PO440008  42.089  29.635   5.485
 2924POPC   GL140009  41.864  29.378   5.794
 2924POPC   GL240010  42.097  29.426   5.973
 2924POPC   C1A40011  41.563  29.283   6.161
 2924POPC   D2A40012  41.324  29.387   6.547
 2924POPC   C3A40013  41.389  29.066   6.864
 2924POPC   C4A40014  41.612  29.192   7.201
 2924POPC   C1B40015  41.998  29.438   6.374
 2924POPC   C2B40016  41.892  29.331   6.782
 2924POPC   C3B40017  42.013  29.504   7.177
 2924POPC   C4B40018  41.939  29.546   7.630
 2925POPC   NC340019  12.948  20.206   5.630
 2925POPC   PO440020  12.501  20.704   5.486
 2925POPC   GL140021  12.631  20.572   5.867
 2925POPC   GL240022  12.369  20.336   5.844
 2925POPC   C1A40023  12.742  20.777   6.267
 2925POPC   D2A40024  12.608  20.825   6.690
 2925POPC   C3A40025  12.994  20.731   6.994
 2925POPC   C4A40026  13.042  20.544   7.426
 2925POPC   C1B40027  12.444  20.349   6.314
 2925POPC   C2B40028  12.802  20.372   6.627
 2925POPC   C3B40029  12.680  20.346   7.070
 2925POPC   C4B40030  12.749  20.116   7.449
 2926POPC   NC340031   2.147  27.692   5.416
 2926POPC   PO440032   1.925  27.136   5.039
 2926POPC   GL140033   1.755  27.362   5.563
 2926POPC   GL240034   1.912  27.624   5.851
 2926POPC   C1A40035   1.718  27.251   6.101
 2926POPC   D2A40036   1.881  27.248   6.572
 2926POPC   C3A40037   2.177  27.484   6.886
 2926POPC   C4A40038   2.095  27.516   7.346
 2926POPC   C1B40039   1.750  27.926   6.221
 2926POPC   C2B40040   1.682  27.808   6.685
 2926POPC   C3B40041   1.676  27.487   7.026
 2926POPC   C4B40042   1.577  27.625   7.457
 2927POPC   NC340043  29.152  17.060   5.592
 2927POPC   PO440044  29.320  17.674   5.447
 2927POPC   GL140045  29.206  17.592   5.886
 2927POPC   GL240046  28.849  17.458   5.870
 2927POPC   C1A40047  29.146  17.732   6.329
 2927POPC   D2A40048  29.289  17.902   6.739
 2927POPC   C3A40049  29.248  17.649   7.139
 2927POPC   C4A40050  29.218  17.789   7.565
 2927POPC   C1B40051  28.940  17.255   6.276
 2927POPC   C2B40052  29.021  17.393   6.714
 2927POPC   C3B40053  28.909  17.220   7.110
 2927POPC   C4B40054  28.964  17.350   7.517
 2928POPC   NC340055  16.548   0.430   5.337
 2928POPC   PO440056  17.229   0.354   5.360
 2928POPC   GL140057  16.878   0.459   5.708
 2928POPC   GL240058  16.561   0.712   5.758
 2928POPC   C1A40059  16.729   0.339   6.093
 2928POPC   D2A40060  16.905   0.311   6.497
 2928POPC   C3A40061  16.631   0.326   6.809
 2928POPC   C4A40062  16.647   0.354   7.226
 2928POPC   C1B40063  16.736   0.840   6.147
 2928POPC   C2B40064  16.623   0.798   6.582
 2928POPC   C3B40065  16.836   0.795   6.985
 2928POPC   C4B40066  16.631   0.827   7.381
 2929POPC   NC340067   9.422  26.944   5.228
 2929POPC   PO440068   8.911  26.620   5.460
 2929POPC   GL140069   9.147  26.782   5.814
 2929POPC   GL240070   8.843  26.953   5.932
 2929POPC   C1A40071   9.185  26.915   6.279
 2929POPC   D2A40072   8.787  27.074   6.477
 2929POPC   C3A40073   8.877  27.034   6.897
 2929POPC   C4A40074   9.256  26.822   6.978
 2929POPC   C1B40075   8.753  26.602   6.250
 2929POPC   C2B40076   8.841  26.564   6.685
 2929POPC   C3B40077   8.584  26.644   7.025
 2929POPC   C4B40078   8.513  26.494   7.410
 2930POPC   NC340079  23.891   6.832   5.500
 2930POPC   PO440080  23.399   7.289   5.318
 2930POPC   GL140081  23.588   7.439   5.747
 2930POPC   GL240082  23.680   7.147   5.916
 2930POPC   C1A40083  23.930   7.613   6.039
 2930POPC   D2A40084  23.976   7.827   6.460
 2930POPC   C3A40085  23.839   7.616   6.858
 2930POPC   C4A40086  23.715   7.653   7.299
 2930POPC   C1B40087  23.478   7.383   6.272
 2930POPC   C2B40088  23.353   7.399   6.732
 2930POPC   C3B40089  23.527   7.205   7.106
 2930POPC   C4B40090  23.668   7.205   7.535
 2931POPC   NC340091  20.782  30.094   5.559
 2931POPC   PO440092  20.303  29.612   5.385
 2931POPC   GL140093  20.559  29.690   5.774
 2931POPC   GL240094  20.922  29.772   5.889
 2931POPC   C1A40095  20.541  29.756   6.211
 2931POPC   D2A40096  20.277  29.737   6.531
 2931POPC   C3A40097  20.393  29.695   6.941
 2931POPC   C4A40098  20.372  29.895   7.349
 2931POPC   C1B40099  21.032  29.850   6.300
 2931POPC   C2B40100  20.860  29.744   6.694
 2931POPC   C3B40101  20.845  29.827   7.128
 2931POPC   C4B40102  20.822  30.080   7.515
 2932POPC   NC340103   0.587  35.358   5.416
 2932POPC   PO440104  44.969  35.622   5.352
 2932POPC   GL140105   0.246  35.568   5.747
 2932POPC   GL240106   0.596  35.703   5.780
 2932POPC   C1A40107   0.217  35.368   6.160
 2932POPC   D2A40108   0.303  35.042   6.485
 2932POPC   C3A40109   0.398  35.168   6.900
 2932POPC   C4A40110   0.260  35.452   7.177
 2932POPC   C1B40111   0.729  35.413   6.125
 2932POPC   C2B40112   0.777  35.477   6.578
 2932POPC   C3B40113   0.879  35.387   7.004
 2932POPC   C4B40114   0.674  35.212   7.382
 2933POPC   NC340115  40.704   2.554   5.376
 2933POPC   PO440116  40.205   2.340   5.802
 2933POPC   GL140117  40.597   2.625   5.873
 2933POPC   GL240118  40.640   2.966   5.657
 2933POPC   C1A40119  41.017   2.648   6.101
 2933POPC   D2A40120  41.170   2.649   6.538
 2933POPC   C3A40121  40.784   2.740   6.848
 2933POPC   C4A40122  40.394   2.640   7.077
 2933POPC   C1B40123  40.733   3.083   6.071
 2933POPC   C2B40124  40.583   3.029   6.479
 2933POPC   C3B40125  40.399   3.134   6.861
 2933POPC   C4B40126  40.575   3.102   7.237
 2934POPC   NC340127   4.255   4.112   5.359
 2934POPC   PO440128   4.155   4.686   5.661
 2934POPC   GL140129   4.411   4.344   5.793
 2934POPC   GL240130   4.188   4.089   5.885
 2934POPC   C1A40131   4.400   4.466   6.219
 2934POPC   D2A40132   4.228   4.646   6.580
 2934POPC   C3A40133   4.312   4.425   6.943
 2934POPC   C4A40134   4.204   4.558   7.341
 2934POPC   C1B40135   4.475   3.954   6.230
 2934POPC   C2B40136   4.557   3.805   6.656
 2934POPC   C3B40137   4.423   3.925   7.070
 2934POPC   C4B40138   4.009   4.025   7.172
 2935POPC   NC340139  26.346   2.696   5.246
 2935POPC   PO440140  25.798   2.786   5.288
 2935POPC   GL140141  25.939   2.818   5.722
 2935POPC   GL240142  26.277   2.981   5.813
 2935POPC   C1A40143  25.832   2.706   6.154
 2935POPC   D2A40144  26.045   2.660   6.532
 2935POPC   C3A40145  25.857   2.602   6.909
 2935POPC   C4A40146  26.151   2.489   7.171
 2935POPC   C1B40147  26.140   3.103   6.269
 2935POPC   C2B40148  26.030   3.130   6.737
 2935POPC   C3B40149  26.062   3.006   7.169
 2935POPC   C4B40150  25.960   3.184   7.573
 2936POPC   NC340151  39.684  43.510   5.443
 2936POPC   PO440152  40.367  43.778   5.403
 2936POPC   GL140153  40.249  43.611   5.765
 2936POPC   GL240154  39.956  43.807   5.791
 2936POPC   C1A40155  40.121  43.479   6.164
 2936POPC   D2A40156  39.861  43.480   6.518
 2936POPC   C3A40157  40.077  43.617   6.858
 2936POPC   C4A40158  39.741  43.684   7.159
 2936POPC   C1B40159  40.129  44.034   6.150
 2936POPC   C2B40160  39.986  44.042   6.578
 2936POPC   C3B40161  40.011  44.152   7.024
 2936POPC   C4B40162  40.351  44.400   7.180
 2937POPC   NC340163  29.472  28.966   5.267
 2937POPC   PO440164  29.035  29.479   5.426
 2937POPC   GL140165  29.129  29.163   5.727
 2937POPC   GL240166  29.010  28.819   5.667
 2937POPC   C1A40167  28.976  29.270   6.148
 2937POPC   D2A40168  29.101  29.256   6.570
 2937POPC   C3A40169  28.964  29.544   6.883
 2937POPC   C4A40170  29.181  29.275   7.159
 2937POPC   C1B40171  29.097  28.777   6.089
 2937POPC   C2B40172  29.315  28.787   6.447
 2937POPC   C3B40173  29.222  28.835   6.875
 2937POPC   C4B40174  29.567  28.822   7.113
 2938POPC   NC340175  10.838  35.273   5.449
 2938POPC   PO440176  10.279  35.672   5.524
 2938POPC   GL140177  10.452  35.369   5.829
 2938POPC   GL240178  10.164  35.174   5.977
 2938POPC   C1A40179  10.590  35.186   6.258
 2938POPC   D2A40180  10.517  35.221   6.738
 2938POPC   C3A40181  10.751  35.481   7.084
 2938POPC   C4A40182  10.768  35.369   7.554
 2938POPC   C1B40183  10.215  35.572   6.229
 2938POPC   C2B40184  10.342  35.712   6.641
 2938POPC   C3B40185  10.247  35.554   7.034
 2938POPC   C4B40186  10.359  35.213   7.251
 2939POPC   NC340187   5.849  25.115   5.332
 2939POPC   PO440188   6.242  25.640   5.136
 2939POPC   GL140189   6.186  25.456   5.619
 2939POPC   GL240190   6.092  25.094   5.769
 2939POPC   C1A40191   5.967  25.500   6.061
 2939POPC   D2A40192   5.768  25.418   6.492
 2939POPC   C3A40193   5.917  25.369   6.895
 2939POPC   C4A40194   5.823  25.574   7.279
 2939POPC   C1B40195   5.690  25.043   5.989
 2939POPC   C2B40196   5.464  25.030   6.363
 2939POPC   C3B40197   5.449  25.074   6.797
 2939POPC   C4B40198   5.570  25.126   7.204
 2940POPC   NC340199  31.229  34.421   5.581
 2940POPC   PO440200  31.684  34.826   5.333
 2940POPC   GL140201  31.558  34.753   5.771
 2940POPC   GL240202  31.200  34.795   5.941
 2940POPC   C1A40203  31.599  34.523   6.155
 2940POPC   D2A40204  31.444  34.633   6.527
 2940POPC   C3A40205  31.657  34.504   6.893
 2940POPC   C4A40206  31.548  34.485   7.303
 2940POPC   C1B40207  31.053  34.423   6.211
 2940POPC   C2B40208  31.130  34.237   6.613
 2940POPC   C3B40209  31.133  34.540   6.918
 2940POPC   C4B40210  31.066  34.674   7.306
 2941POPC   NC340211  41.817  24.971   5.509
 2941POPC   PO440212  41.481  25.578   5.477
 2941POPC   GL140213  41.566  25.336   5.768
 2941POPC   GL240214  41.310  25.090   5.651
 2941POPC   C1A40215  41.817  25.346   6.133
 2941POPC   D2A40216  41.968  25.341   6.542
 2941POPC   C3A40217  41.756  25.202   6.916
 2941POPC   C4A40218  41.851  25.446   7.276
 2941POPC   C1B40219  41.255  25.128   6.107
 2941POPC   C2B40220  41.177  25.075   6.542
 2941POPC   C3B40221  41.119  25.140   6.963
 2941POPC   C4B40222  41.377  25.252   7.279
 2942POPC   NC340223  39.388  38.495   5.344
 2942POPC   PO440224  38.773  38.640   5.349
 2942POPC   GL140225  39.062  38.447   5.736
 2942POPC   GL240226  39.404  38.619   5.831
 2942POPC   C1A40227  39.265  38.152   6.090
 2942POPC   D2A40228  39.249  37.952   6.519
 2942POPC   C3A40229  39.423  38.108   6.890
 2942POPC   C4A40230  39.210  38.212   7.237
 2942POPC   C1B40231  39.559  38.542   6.243
 2942POPC   C2B40232  39.275  38.464   6.557
 2942POPC   C3B40233  39.152  38.624   6.946
 2942POPC   C4B40234  39.499  38.755   7.123
 2943POPC   NC340235   9.832  13.226   5.344
 2943POPC   PO440236   9.423  12.742   5.435
 2943POPC   GL140237   9.583  12.779   5.834
 2943POPC   GL240238   9.924  12.948   5.805
 2943POPC   C1A40239   9.510  12.632   6.246
 2943POPC   D2A40240   9.544  12.948   6.548
 2943POPC   C3A40241   9.653  12.910   6.972
 2943POPC   C4A40242   9.462  13.026   7.376
 2943POPC   C1B40243  10.000  12.849   6.258
 2943POPC   C2B40244  10.063  13.110   6.631
 2943POPC   C3B40245  10.098  13.171   7.073
 2943POPC   C4B40246  10.138  12.767   7.245
 2944POPC   NC340247   8.605  23.910   5.341
 2944POPC   PO440248   9.016  23.384   5.356
 2944POPC   GL140249   8.783  23.589   5.690
 2944POPC   GL240250   8.949  23.943   5.737
 2944POPC   C1A40251   8.600  23.602   6.100
 2944POPC   D2A40252   8.760  23.706   6.503
 2944POPC   C3A40253   8.781  23.423   6.877
 2944POPC   C4A40254   9.056  23.462   7.234
 2944POPC   C1B40255   9.122  24.035   6.168
 2944POPC   C2B40256   8.994  24.155   6.597
 2944POPC   C3B40257   9.073  23.910   6.934
 2944POPC   C4B40258   9.177  23.943   7.361
 2945POPC   NC340259   5.286  18.234   5.259
 2945POPC   PO440260   5.551  18.817   5.393
 2945POPC   GL140261   5.198  18.564   5.684
 2945POPC   GL240262   5.188  18.213   5.756
 2945POPC   C1A40263   5.067  18.433   6.178
 2945POPC   D2A40264   5.077  18.794   6.517
 2945POPC   C3A40265   5.286  18.785   6.931
 2945POPC   C4A40266   5.160  18.451   7.206
 2945POPC   C1B40267   5.446  18.036   6.100
 2945POPC   C2B40268   5.417  17.794   6.479
 2945POPC   C3B40269   5.282  17.913   6.889
 2945POPC   C4B40270   5.480  18.021   7.266
 2946POPC   NC340271  13.100  30.210   5.175
 2946POPC   PO440272  12.514  29.910   5.446
 2946POPC   GL140273  12.871  30.129   5.644
 2946POPC   GL240274  13.157  29.879   5.673
 2946POPC   C1A40275  12.988  30.212   6.085
 2946POPC   D2A40276  13.057  30.111   6.539
 2946POPC   C3A40277  12.741  30.169   6.871
 2946POPC   C4A40278  12.499  29.833   7.100
 2946POPC   C1B40279  13.026  29.665   6.083
 2946POPC   C2B40280  13.041  29.556   6.547
 2946POPC   C3B40281  13.027  29.751   6.970
 2946POPC   C4B40282  13.321  29.745   7.322
 2947POPC   NC340283  43.957   5.818   5.194
 2947POPC   PO440284  43.612   5.547   5.395
 2947POPC   GL140285  43.837   5.690   5.754
 2947POPC   GL240286  43.912   6.044   5.779
 2947POPC   C1A40287  43.761   5.682   6.226
 2947POPC   D2A40288  43.765   5.927   6.623
 2947POPC   C3A40289  43.732   5.756   7.056
 2947POPC   C4A40290  43.687   5.880   7.506
 2947POPC   C1B40291  44.131   6.037   6.203
 2947POPC   C2B40292  44.280   5.995   6.655
 2947POPC   C3B40293  44.199   5.988   7.122
 2947POPC   C4B40294  44.390   6.038   7.554
 2948POPC   NC340295  11.297  17.150   5.570
 2948POPC   PO440296  11.543  17.745   5.412
 2948POPC   GL140297  11.454  17.563   5.850
 2948POPC   GL240298  11.347  17.276   6.044
 2948POPC   C1A40299  11.510  17.651   6.327
 2948POPC   D2A40300  11.285  17.532   6.713
 2948POPC   C3A40301  11.531  17.539   7.097
 2948POPC   C4A40302  11.773  17.887   7.289
 2948POPC   C1B40303  11.022  17.240   6.331
 2948POPC   C2B40304  10.948  17.088   6.734
 2948POPC   C3B40305  11.085  17.246   7.108
 2948POPC   C4B40306  11.022  17.666   7.230
 2949POPC   NC340307   0.230  42.850   5.136
 2949POPC   PO440308   0.533  43.442   5.413
 2949POPC   GL140309   0.422  43.384   5.864
 2949POPC   GL240310   0.198  43.138   5.886
 2949POPC   C1A40311   0.538  43.196   6.284
 2949POPC   D2A40312   0.624  43.337   6.709
 2949POPC   C3A40313   0.617  43.036   7.024
 2949POPC   C4A40314   0.616  43.338   7.336
 2949POPC   C1B40315   0.022  43.227   6.238
 2949POPC   C2B40316   0.124  43.297   6.639
 2949POPC   C3B40317   0.165  43.292   7.063
 2949POPC   C4B40318  44.983  42.957   7.244
 2950POPC   NC340319  15.324   8.578   5.563
 2950POPC   PO440320  14.910   8.063   5.183
 2950POPC   GL140321  15.148   8.063   5.601
 2950POPC   GL240322  15.518   8.046   5.652
 2950POPC   C1A40323  15.191   8.154   6.066
 2950POPC   D2A40324  15.113   8.201   6.539
 2950POPC   C3A40325  15.138   8.280   6.991
 2950POPC   C4A40326  14.917   8.201   7.384
 2950POPC   C1B40327  15.646   7.893   6.093
 2950POPC   C2B40328  15.555   7.942   6.533
 2950POPC   C3B40329  15.515   7.823   6.963
 2950POPC   C4B40330  15.576   8.157   7.232
 2951POPC   NC340331   3.665  26.195   5.467
 2951POPC   PO440332   3.341  25.559   5.397
 2951POPC   GL140333   3.372  25.847   5.753
 2951POPC   GL240334   3.726  25.819   5.818
 2951POPC   C1A40335   3.393  26.121   6.151
 2951POPC   D2A40336   3.486  26.424   6.495
 2951POPC   C3A40337   3.301  26.406   6.928
 2951POPC   C4A40338   3.286  26.173   7.313
 2951POPC   C1B40339   3.910  25.543   6.133
 2951POPC   C2B40340   3.785  25.705   6.586
 2951POPC   C3B40341   3.627  25.978   6.970
 2951POPC   C4B40342   3.774  26.021   7.459
 2952POPC   NC340343  18.557  42.193   5.475
 2952POPC   PO440344  17.922  42.472   5.456
 2952POPC   GL140345  18.217  42.538   5.783
 2952POPC   GL240346  18.527  42.354   5.946
 2952POPC   C1A40347  18.172  42.620   6.203
 2952POPC   D2A40348  18.332  42.404   6.550
 2952POPC   C3A40349  18.113  42.500   6.905
 2952POPC   C4A40350  18.284  42.481   7.280
 2952POPC   C1B40351  18.679  42.073   6.275
 2952POPC   C2B40352  18.648  42.026   6.737
 2952POPC   C3B40353  18.382  42.030   7.087
 2952POPC   C4B40354  18.487  42.032   7.543
 2953POPC   NC340355  34.013   2.527   5.429
 2953POPC   PO440356  33.414   2.736   5.143
 2953POPC   GL140357  33.417   2.644   5.635
 2953POPC   GL240358  33.660   2.430   5.761
 2953POPC   C1A40359  33.429   2.669   6.125
 2953POPC   D2A40360  33.715   2.661   6.515
 2953POPC   C3A40361  33.497   2.729   6.932
 2953POPC   C4A40362  33.605   2.921   7.353
 2953POPC   C1B40363  34.027   2.466   6.072
 2953POPC   C2B40364  34.243   2.698   6.393
 2953POPC   C3B40365  34.164   2.784   6.808
 2953POPC   C4B40366  33.956   2.575   7.114
 2954POPC   NC340367   1.838  31.086   5.342
 2954POPC   PO440368   2.223  31.590   5.281
 2954POPC   GL140369   2.011  31.520   5.644
 2954POPC   GL240370   1.742  31.758   5.627
 2954POPC   C1A40371   1.965  31.433   6.071
 2954POPC   D2A40372   1.826  31.330   6.480
 2954POPC   C3A40373   2.053  31.415   6.865
 2954POPC   C4A40374   1.746  31.470   7.157
 2954POPC   C1B40375   1.817  31.921   6.042
 2954POPC   C2B40376   1.944  31.839   6.456
 2954POPC   C3B40377   1.792  31.916   6.869
 2954POPC   C4B40378   2.030  31.877   7.225
 2955POPC   NC340379   4.948  19.829   5.411
 2955POPC   PO440380   4.288  19.917   5.430
 2955POPC   GL140381   4.426  19.664   5.774
 2955POPC   GL240382   4.608  19.944   5.945
 2955POPC   C1A40383   4.424  19.551   6.222
 2955POPC   D2A40384   4.580  19.764   6.536
 2955POPC   C3A40385   4.412  19.661   6.903
 2955POPC   C4A40386   4.517  19.835   7.275
 2955POPC   C1B40387   4.153  19.970   6.089
 2955POPC   C2B40388   3.917  20.048   6.445
 2955POPC   C3B40389   4.102  20.074   6.809
 2955POPC   C4B40390   4.086  20.117   7.205
 2956POPC   NC340391  43.271   2.783   5.269
 2956POPC   PO440392  42.732   3.059   5.358
 2956POPC   GL140393  43.026   3.065   5.767
 2956POPC   GL240394  43.232   2.762   5.816
 2956POPC   C1A40395  43.098   2.955   6.261
 2956POPC   D2A40396  42.847   2.746   6.593
 2956POPC   C3A40397  42.854   2.939   6.999
 2956POPC   C4A40398  43.238   2.924   7.263
 2956POPC   C1B40399  43.011   2.469   6.138
 2956POPC   C2B40400  43.137   2.311   6.551
 2956POPC   C3B40401  43.195   2.461   6.953
 2956POPC   C4B40402  42.927   2.516   7.304
 2957POPC   NC340403  20.461  36.546   5.573
 2957POPC   PO440404  21.043  36.652   5.177
 2957POPC   GL140405  20.815  36.892   5.665
 2957POPC   GL240406  20.778  36.670   5.992
 2957POPC   C1A40407  20.812  37.139   6.125
 2957POPC   D2A40408  20.604  37.095   6.551
 2957POPC   C3A40409  20.755  37.013   6.983
 2957POPC   C4A40410  20.662  36.833   7.411
 2957POPC   C1B40411  20.360  36.808   6.201
 2957POPC   C2B40412  20.171  36.818   6.637
 2957POPC   C3B40413  20.320  36.710   7.059
 2957POPC   C4B40414  20.232  36.598   7.549
 2958POPC   NC340415  25.333   5.746   5.447
 2958POPC   PO440416  25.100   6.387   5.346
 2958POPC   GL140417  25.277   6.186   5.752
 2958POPC   GL240418  25.646   6.158   5.737
 2958POPC   C1A40419  25.163   5.910   6.139
 2958POPC   D2A40420  25.235   5.641   6.511
 2958POPC   C3A40421  25.134   5.841   6.930
 2958POPC   C4A40422  25.109   6.204   7.238
 2958POPC   C1B40423  25.651   6.006   6.156
 2958POPC   C2B40424  25.500   6.070   6.551
 2958POPC   C3B40425  25.556   6.111   6.977
 2958POPC   C4B40426  25.466   5.847   7.337
 2959POPC   NC340427   3.500   6.864   5.315
 2959POPC   PO440428   3.152   6.268   5.313
 2959POPC   GL140429   3.464   6.469   5.638
 2959POPC   GL240430   3.356   6.819   5.808
 2959POPC   C1A40431   3.679   6.490   6.075
 2959POPC   D2A40432   3.874   6.646   6.490
 2959POPC   C3A40433   3.773   6.486   6.910
 2959POPC   C4A40434   3.444   6.359   7.209
 2959POPC   C1B40435   3.251   6.830   6.262
 2959POPC   C2B40436   3.409   6.998   6.655
 2959POPC   C3B40437   3.389   6.894   7.102
 2959POPC   C4B40438   3.081   6.873   7.423
 2960POPC   NC340439  31.878  42.678   5.445
 2960POPC   PO440440  32.376  42.281   5.294
 2960POPC   GL140441  32.418  42.203   5.728
 2960POPC   GL240442  32.058  42.240   5.774
 2960POPC   C1A40443  32.393  42.209   6.195
 2960POPC   D2A40444  32.504  42.436   6.573
 2960POPC   C3A40445  32.240  42.328   6.893
 2960POPC   C4A40446  32.193  41.896   6.913
 2960POPC   C1B40447  32.037  42.558   6.068
 2960POPC   C2B40448  32.057  42.694   6.456
 2960POPC   C3B40449  31.988  42.857   6.817
 2960POPC   C4B40450  31.978  42.672   7.180
 2961POPC   NC340451   5.271  26.296   5.370
 2961POPC   PO440452   4.884  25.720   5.137
 2961POPC   GL140453   4.991  25.858   5.624
 2961POPC   GL240454   4.946  26.208   5.754
 2961POPC   C1A40455   4.993  25.872   6.132
 2961POPC   D2A40456   5.141  25.991   6.548
 2961POPC   C3A40457   4.974  25.870   6.942
 2961POPC   C4A40458   5.123  25.948   7.344
 2961POPC   C1B40459   5.261  26.297   6.111
 2961POPC   C2B40460   5.445  26.412   6.518
 2961POPC   C3B40461   5.345  26.286   6.939
 2961POPC   C4B40462   4.955  26.365   7.112
 2962POPC   NC340463  15.821  42.052   5.058
 2962POPC   PO440464  16.107  42.375   5.490
 2962POPC   GL140465  15.972  42.301   5.872
 2962POPC   GL240466  16.183  42.064   5.995
 2962POPC   C1A40467  15.762  42.487   6.199
 2962POPC   D2A40468  15.681  42.337   6.636
 2962POPC   C3A40469  15.879  42.532   7.006
 2962POPC   C4A40470  15.833  42.457   7.467
 2962POPC   C1B40471  16.017  42.071   6.359
 2962POPC   C2B40472  16.134  42.125   6.759
 2962POPC   C3B40473  16.026  42.080   7.181
 2962POPC   C4B40474  16.251  41.901   7.505
 2963POPC   NC340475  23.217  11.177   5.281
 2963POPC   PO440476  22.590  11.546   5.556
 2963POPC   GL140477  22.804  11.384   5.884
 2963POPC   GL240478  23.020  11.147   5.764
 2963POPC   C1A40479  22.958  11.488   6.282
 2963POPC   D2A40480  22.671  11.429   6.629
 2963POPC   C3A40481  22.842  11.461   7.012
 2963POPC   C4A40482  23.213  11.462   7.220
 2963POPC   C1B40483  22.954  10.987   6.175
 2963POPC   C2B40484  23.106  11.102   6.590
 2963POPC   C3B40485  23.141  10.995   7.003
 2963POPC   C4B40486  23.352  10.678   7.208
 2964POPC   NC340487  25.296  21.742   5.419
 2964POPC   PO440488  25.293  21.006   5.479
 2964POPC   GL140489  25.065  21.355   5.719
 2964POPC   GL240490  25.356  21.472   5.859
 2964POPC   C1A40491  24.923  21.396   6.181
 2964POPC   D2A40492  24.937  21.232   6.647
 2964POPC   C3A40493  25.183  21.467   6.985
 2964POPC   C4A40494  25.129  21.724   7.399
 2964POPC   C1B40495  25.476  21.214   6.211
 2964POPC   C2B40496  25.701  21.273   6.607
 2964POPC   C3B40497  25.615  21.157   7.028
 2964POPC   C4B40498  25.505  21.392   7.393
 2965POPC   NC340499  39.964  37.211   5.435
 2965POPC   PO440500  40.241  36.745   4.957
 2965POPC   GL140501  40.013  36.715   5.499
 2965POPC   GL240502  39.706  36.904   5.752
 2965POPC   C1A40503  40.032  36.622   6.005
 2965POPC   D2A40504  39.871  36.809   6.385
 2965POPC   C3A40505  40.090  36.792   6.789
 2965POPC   C4A40506  40.022  36.703   7.225
 2965POPC   C1B40507  39.749  37.246   6.138
 2965POPC   C2B40508  39.943  37.278   6.602
 2965POPC   C3B40509  39.950  37.198   7.068
 2965POPC   C4B40510  40.172  37.107   7.479
 2966POPC   NC340511  44.036  37.321   5.235
 2966POPC   PO440512  43.643  37.876   5.291
 2966POPC   GL140513  43.687  37.576   5.677
 2966POPC   GL240514  43.478  37.787   5.913
 2966POPC   C1A40515  43.865  37.507   6.144
 2966POPC   D2A40516  44.131  37.763   6.462
 2966POPC   C3A40517  44.131  37.819   6.924
 2966POPC   C4A40518  43.937  37.520   7.195
 2966POPC   C1B40519  43.622  37.906   6.358
 2966POPC   C2B40520  43.628  37.736   6.814
 2966POPC   C3B40521  43.668  37.945   7.243
 2966POPC   C4B40522  43.693  38.117   7.684
 2967POPC   NC340523  39.503  25.947   5.491
 2967POPC   PO440524  38.806  26.191   5.460
 2967POPC   GL140525  39.123  26.176   5.769
 2967POPC   GL240526  39.156  25.817   5.875
 2967POPC   C1A40527  39.161  26.172   6.211
 2967POPC   D2A40528  39.088  26.347   6.544
 2967POPC   C3A40529  39.132  26.134   6.921
 2967POPC   C4A40530  39.175  26.325   7.328
 2967POPC   C1B40531  39.515  25.807   6.176
 2967POPC   C2B40532  39.531  25.937   6.618
 2967POPC   C3B40533  39.438  25.689   7.004
 2967POPC   C4B40534  39.191  25.807   7.362
 2968POPC   NC340535  22.355  33.184   5.568
 2968POPC   PO440536  21.913  32.731   5.403
 2968POPC   GL140537  21.953  32.958   5.800
 2968POPC   GL240538  21.697  33.170   5.897
 2968POPC   C1A40539  22.128  32.858   6.220
 2968POPC   D2A40540  22.350  32.750   6.621
 2968POPC   C3A40541  22.436  32.967   7.018
 2968POPC   C4A40542  22.265  32.987   7.426
 2968POPC   C1B40543  21.997  33.357   6.182
 2968POPC   C2B40544  22.192  33.250   6.556
 2968POPC   C3B40545  21.966  33.105   6.902
 2968POPC   C4B40546  21.855  33.235   7.290
 2969POPC   NC340547  24.794  43.774   5.559
 2969POPC   PO440548  24.165  43.732   5.553
 2969POPC   GL140549  24.363  43.810   5.899
 2969POPC   GL240550  24.281  44.136   5.872
 2969POPC   C1A40551  24.527  43.677   6.288
 2969POPC   D2A40552  24.536  43.871   6.677
 2969POPC   C3A40553  24.395  43.603   7.001
 2969POPC   C4A40554  24.676  43.383   7.264
 2969POPC   C1B40555  24.519  44.233   6.233
 2969POPC   C2B40556  24.351  44.349   6.633
 2969POPC   C3B40557  24.344  44.185   7.051
 2969POPC   C4B40558  24.230  44.101   7.503
 2970POPC   NC340559  24.732   8.926   5.626
 2970POPC   PO440560  24.223   8.558   5.525
 2970POPC   GL140561  24.364   8.712   5.931
 2970POPC   GL240562  24.431   9.097   6.002
 2970POPC   C1A40563  24.438   8.722   6.362
 2970POPC   D2A40564  24.483   9.006   6.702
 2970POPC   C3A40565  24.291   8.899   7.111
 2970POPC   C4A40566  24.180   9.143   7.477
 2970POPC   C1B40567  24.817   9.086   6.272
 2970POPC   C2B40568  25.008   9.060   6.672
 2970POPC   C3B40569  24.859   8.950   7.054
 2970POPC   C4B40570  24.983   9.248   7.318
 2971POPC   NC340571  28.124  32.424   5.229
 2971POPC   PO440572  28.672  31.992   5.357
 2971POPC   GL140573  28.446  32.138   5.723
 2971POPC   GL240574  28.108  32.221   5.688
 2971POPC   C1A40575  28.475  32.370   6.097
 2971POPC   D2A40576  28.586  32.283   6.516
 2971POPC   C3A40577  28.428  32.430   6.882
 2971POPC   C4A40578  28.479  32.284   7.273
 2971POPC   C1B40579  27.988  32.247   6.126
 2971POPC   C2B40580  28.075  32.102   6.557
 2971POPC   C3B40581  28.101  32.052   7.003
 2971POPC   C4B40582  28.066  32.065   7.478
 2972POPC   NC340583  14.472   8.120   5.311
 2972POPC   PO440584  14.868   8.550   5.510
 2972POPC   GL140585  14.709   8.251   5.807
 2972POPC   GL240586  14.349   8.171   5.810
 2972POPC   C1A40587  14.715   8.074   6.238
 2972POPC   D2A40588  14.631   7.989   6.685
 2972POPC   C3A40589  14.606   8.299   6.996
 2972POPC   C4A40590  14.474   8.462   7.398
 2972POPC   C1B40591  14.216   8.190   6.259
 2972POPC   C2B40592  14.196   8.336   6.695
 2972POPC   C3B40593  14.082   8.273   7.130
 2972POPC   C4B40594  14.003   8.368   7.573
 2973POPC   NC340595  35.838  33.136   5.594
 2973POPC   PO440596  36.347  33.456   5.480
 2973POPC   GL140597  36.287  33.250   5.856
 2973POPC   GL240598  36.547  33.000   5.790
 2973POPC   C1A40599  36.074  33.262   6.273
 2973POPC   D2A40600  36.180  33.414   6.700
 2973POPC   C3A40601  35.986  33.167   7.052
 2973POPC   C4A40602  35.931  32.880   7.418
 2973POPC   C1B40603  36.477  32.906   6.203
 2973POPC   C2B40604  36.317  32.937   6.601
 2973POPC   C3B40605  36.486  33.073   6.966
 2973POPC   C4B40606  36.421  32.906   7.346
 2974POPC   NC340607  41.056  24.724   5.343
 2974POPC   PO440608  40.653  24.250   5.552
 2974POPC   GL140609  40.741  24.325   5.931
 2974POPC   GL240610  40.608  24.645   5.939
 2974POPC   C1A40611  40.810  24.373   6.354
 2974POPC   D2A40612  40.567  24.520   6.673
 2974POPC   C3A40613  40.726  24.297   7.024
 2974POPC   C4A40614  41.088  24.291   7.271
 2974POPC   C1B40615  40.796  24.875   6.258
 2974POPC   C2B40616  40.701  25.022   6.667
 2974POPC   C3B40617  40.720  24.827   7.064
 2974POPC   C4B40618  40.466  24.594   7.317
 2975POPC   NC340619   9.491  20.507   5.368
 2975POPC   PO440620  10.013  20.886   5.556
 2975POPC   GL140621   9.926  20.629   5.873
 2975POPC   GL240622   9.613  20.664   5.847
 2975POPC   C1A40623   9.892  20.705   6.293
 2975POPC   D2A40624   9.694  20.512   6.649
 2975POPC   C3A40625   9.881  20.528   7.081
 2975POPC   C4A40626   9.887  20.363   7.527
 2975POPC   C1B40627   9.368  20.654   6.191
 2975POPC   C2B40628   9.284  20.834   6.544
 2975POPC   C3B40629   9.389  20.793   6.964
 2975POPC   C4B40630   9.435  20.543   7.324
 2976POPC   NC340631  30.095   8.088   5.466
 2976POPC   PO440632  30.134   8.749   5.512
 2976POPC   GL140633  29.994   8.436   5.877
 2976POPC   GL240634  29.787   8.102   5.914
 2976POPC   C1A40635  30.057   8.216   6.306
 2976POPC   D2A40636  30.063   8.011   6.714
 2976POPC   C3A40637  30.139   8.308   7.061
 2976POPC   C4A40638  30.117   8.295   7.525
 2976POPC   C1B40639  29.565   8.391   6.187
 2976POPC   C2B40640  29.646   8.321   6.615
 2976POPC   C3B40641  29.639   8.172   7.008
 2976POPC   C4B40642  29.661   8.470   7.327
 2977POPC   NC340643   9.799  42.737   5.409
 2977POPC   PO440644  10.209  43.349   5.531
 2977POPC   GL140645   9.871  43.071   5.796
 2977POPC   GL240646   9.503  43.200   5.872
 2977POPC   C1A40647   9.712  42.856   6.175
 2977POPC   D2A40648   9.584  42.732   6.580
 2977POPC   C3A40649   9.765  43.010   6.910
 2977POPC   C4A40650   9.670  43.013   7.340
 2977POPC   C1B40651   9.357  43.408   6.267
 2977POPC   C2B40652   9.328  43.571   6.714
 2977POPC   C3B40653   9.345  43.342   7.103
 2977POPC   C4B40654   9.423  43.425   7.530
 2978POPC   NC340655  19.139  41.976   5.151
 2978POPC   PO440656  18.922  42.481   5.472
 2978POPC   GL140657  19.153  42.309   5.803
 2978POPC   GL240658  18.984  41.993   5.786
 2978POPC   C1A40659  19.128  42.415   6.257
 2978POPC   D2A40660  18.824  42.529   6.569
 2978POPC   C3A40661  18.907  42.433   6.993
 2978POPC   C4A40662  19.199  42.561   7.313
 2978POPC   C1B40663  19.223  41.930   6.164
 2978POPC   C2B40664  19.384  41.921   6.579
 2978POPC   C3B40665  19.260  42.040   7.006
 2978POPC   C4B40666  18.881  41.995   7.234
 2979POPC   NC340667  43.140  18.472   5.417
 2979POPC   PO440668  43.078  17.958   5.022
 2979POPC   GL140669  43.007  18.033   5.624
 2979POPC   GL240670  42.999  18.369   5.872
 2979POPC   C1A40671  43.063  18.016   6.182
 2979POPC   D2A40672  43.032  18.291   6.613
 2979POPC   C3A40673  43.032  18.098   7.073
 2979POPC   C4A40674  42.938  18.085   7.559
 2979POPC   C1B40675  42.791  18.572   6.226
 2979POPC   C2B40676  42.589  18.589   6.628
 2979POPC   C3B40677  42.779  18.540   7.055
 2979POPC   C4B40678  42.987  18.598   7.510
 2980POPC   NC340679  30.355  12.524   5.532
 2980POPC   PO440680  30.640  13.086   5.212
 2980POPC   GL140681  30.726  13.074   5.702
 2980POPC   GL240682  30.663  12.724   5.870
 2980POPC   C1A40683  30.701  13.085   6.196
 2980POPC   D2A40684  30.798  12.844   6.551
 2980POPC   C3A40685  30.613  12.988   6.937
 2980POPC   C4A40686  30.604  13.129   7.363
 2980POPC   C1B40687  30.683  12.416   6.222
 2980POPC   C2B40688  30.529  12.311   6.612
 2980POPC   C3B40689  30.357  12.355   7.011
 2980POPC   C4B40690  30.641  12.573   7.277
 2981POPC   NC340691  14.764   0.904   5.411
 2981POPC   PO440692  14.094   1.098   5.435
 2981POPC   GL140693  14.300   1.290   5.809
 2981POPC   GL240694  14.661   1.215   5.798
 2981POPC   C1A40695  14.455   1.298   6.252
 2981POPC   D2A40696  14.200   1.235   6.613
 2981POPC   C3A40697  14.328   1.529   6.903
 2981POPC   C4A40698  14.413   1.653   7.270
 2981POPC   C1B40699  14.579   0.843   6.052
 2981POPC   C2B40700  14.626   0.861   6.501
 2981POPC   C3B40701  14.670   1.169   6.818
 2981POPC   C4B40702  14.517   1.155   7.261
 2982POPC   NC340703  19.083  27.880   5.412
 2982POPC   PO440704  19.494  27.358   5.441
 2982POPC   GL140705  19.144  27.443   5.753
 2982POPC   GL240706  19.103  27.746   5.889
 2982POPC   C1A40707  18.982  27.335   6.175
 2982POPC   D2A40708  19.169  27.316   6.580
 2982POPC   C3A40709  19.041  27.489   6.979
 2982POPC   C4A40710  18.909  27.294   7.371
 2982POPC   C1B40711  18.852  27.835   6.213
 2982POPC   C2B40712  19.012  27.864   6.609
 2982POPC   C3B40713  19.022  28.042   6.986
 2982POPC   C4B40714  18.745  27.863   7.200
 2983POPC   NC340715  28.452  31.638   5.537
 2983POPC   PO440716  27.773  31.580   5.505
 2983POPC   GL140717  28.054  31.506   5.841
 2983POPC   GL240718  28.106  31.774   5.921
 2983POPC   C1A40719  28.360  31.383   6.221
 2983POPC   D2A40720  28.623  31.178   6.530
 2983POPC   C3A40721  28.533  31.339   6.928
 2983POPC   C4A40722  28.576  31.253   7.363
 2983POPC   C1B40723  28.380  31.888   6.188
 2983POPC   C2B40724  28.528  31.763   6.547
 2983POPC   C3B40725  28.625  31.933   6.912
 2983POPC   C4B40726  28.423  31.748   7.259
 2984POPC   NC340727   0.448  36.592   5.253
 2984POPC   PO440728   0.852  37.061   5.359
 2984POPC   GL140729   0.476  37.044   5.669
 2984POPC   GL240730   0.248  37.376   5.678
 2984POPC   C1A40731   0.343  36.829   6.076
 2984POPC   D2A40732   0.131  36.704   6.485
 2984POPC   C3A40733   0.425  36.788   6.832
 2984POPC   C4A40734   0.843  36.624   6.967
 2984POPC   C1B40735   0.430  37.346   6.090
 2984POPC   C2B40736   0.362  37.182   6.482
 2984POPC   C3B40737   0.373  37.301   6.904
 2984POPC   C4B40738   0.524  37.148   7.252
 2985POPC   NC340739  43.488  29.637   5.397
 2985POPC   PO440740  44.033  30.015   5.522
 2985POPC   GL140741  43.887  29.992   5.905
 2985POPC   GL240742  43.746  29.710   5.859
 2985POPC   C1A40743  44.061  30.096   6.298
 2985POPC   D2A40744  43.951  30.176   6.706
 2985POPC   C3A40745  44.072  30.179   7.108
 2985POPC   C4A40746  43.748  29.961   7.334
 2985POPC   C1B40747  43.847  29.613   6.271
 2985POPC   C2B40748  43.966  29.666   6.686
 2985POPC   C3B40749  43.899  29.539   7.104
 2985POPC   C4B40750  43.686  29.481   7.502
 2986POPC   NC340751  41.925  38.862   5.368
 2986POPC   PO440752  41.704  38.152   5.356
 2986POPC   GL140753  41.640  38.119   5.788
 2986POPC   GL240754  41.664  38.515   5.831
 2986POPC   C1A40755  41.491  38.209   6.208
 2986POPC   D2A40756  41.331  38.495   6.496
 2986POPC   C3A40757  41.375  38.363   6.877
 2986POPC   C4A40758  41.541  38.169   7.215
 2986POPC   C1B40759  41.522  38.811   6.132
 2986POPC   C2B40760  41.600  38.958   6.555
 2986POPC   C3B40761  41.659  38.787   6.957
 2986POPC   C4B40762  41.416  38.666   7.311
 2987POPC   NC340763  31.515  13.811   5.277
 2987POPC   PO440764  31.530  13.145   5.466
 2987POPC   GL140765  31.393  13.485   5.780
 2987POPC   GL240766  31.488  13.890   5.775
 2987POPC   C1A40767  31.120  13.383   6.166
 2987POPC   D2A40768  30.907  13.354   6.602
 2987POPC   C3A40769  31.203  13.216   6.935
 2987POPC   C4A40770  31.409  13.431   7.312
 2987POPC   C1B40771  31.351  13.834   6.179
 2987POPC   C2B40772  31.320  13.656   6.593
 2987POPC   C3B40773  31.329  13.832   7.003
 2987POPC   C4B40774  31.657  13.881   7.290
 2988POPC   NC340775   0.153  43.696   5.535
 2988POPC   PO440776   0.689  44.141   5.700
 2988POPC   GL140777   0.390  43.889   5.955
 2988POPC   GL240778   0.010  43.992   5.933
 2988POPC   C1A40779   0.536  43.715   6.346
 2988POPC   D2A40780   0.522  44.094   6.574
 2988POPC   C3A40781   0.586  44.131   7.004
 2988POPC   C4A40782   0.807  43.754   7.077
 2988POPC   C1B40783   0.049  43.841   6.392
 2988POPC   C2B40784   0.241  43.756   6.822
 2988POPC   C3B40785   0.334  43.760   7.266
 2988POPC   C4B40786   0.145  43.854   7.626
 2989POPC   NC340787  13.678  18.775   5.235
 2989POPC   PO440788  13.431  19.384   5.233
 2989POPC   GL140789  13.475  19.330   5.676
 2989POPC   GL240790  13.542  18.970   5.709
 2989POPC   C1A40791  13.461  19.326   6.135
 2989POPC   D2A40792  13.460  19.057   6.498
 2989POPC   C3A40793  13.683  19.187   6.867
 2989POPC   C4A40794  13.462  19.032   7.234
 2989POPC   C1B40795  13.728  18.848   6.100
 2989POPC   C2B40796  13.715  18.581   6.449
 2989POPC   C3B40797  13.611  18.684   6.863
 2989POPC   C4B40798  13.850  18.706   7.234
 2990POPC   NC340799  11.316   4.649   5.577
 2990POPC   PO440800  11.101   4.099   5.398
 2990POPC   GL140801  11.190   4.013   5.836
 2990POPC   GL240802  11.427   4.272   5.891
 2990POPC   C1A40803  11.360   4.040   6.317
 2990POPC   D2A40804  11.340   4.360   6.634
 2990POPC   C3A40805  11.255   4.213   7.035
 2990POPC   C4A40806  11.447   4.219   7.450
 2990POPC   C1B40807  11.685   4.495   6.239
 2990POPC   C2B40808  11.814   4.543   6.706
 2990POPC   C3B40809  11.554   4.625   7.123
 2990POPC   C4B40810  11.375   4.692   7.592
 2991POPC   NC340811  36.267   0.047   5.218
 2991POPC   PO440812  35.975   0.541   5.626
 2991POPC   GL140813  35.899   0.489   6.017
 2991POPC   GL240814  36.231   0.424   6.063
 2991POPC   C1A40815  35.938   0.512   6.457
 2991POPC   D2A40816  36.020   0.274   6.795
 2991POPC   C3A40817  35.724   0.460   7.059
 2991POPC   C4A40818  35.730   0.860   7.245
 2991POPC   C1B40819  36.423   0.238   6.396
 2991POPC   C2B40820  36.514  44.985   6.741
 2991POPC   C3B40821  36.241  44.932   7.099
 2991POPC   C4B40822  36.148   0.328   7.328
 2992POPC   NC340823  11.044  40.932   5.346
 2992POPC   PO440824  11.611  41.279   5.327
 2992POPC   GL140825  11.465  40.957   5.649
 2992POPC   GL240826  11.112  41.043   5.832
 2992POPC   C1A40827  11.429  40.723   6.055
 2992POPC   D2A40828  11.325  40.917   6.485
 2992POPC   C3A40829  11.215  40.662   6.866
 2992POPC   C4A40830  11.184  40.735   7.313
 2992POPC   C1B40831  10.887  40.990   6.237
 2992POPC   C2B40832  10.927  41.135   6.724
 2992POPC   C3B40833  10.941  41.164   7.221
 2992POPC   C4B40834  10.798  41.035   7.699
 2993POPC   NC340835  26.710  16.178   5.380
 2993POPC   PO440836  27.257  15.808   5.425
 2993POPC   GL140837  26.990  15.805   5.781
 2993POPC   GL240838  26.920  16.164   5.852
 2993POPC   C1A40839  27.075  15.835   6.241
 2993POPC   D2A40840  27.062  15.937   6.671
 2993POPC   C3A40841  27.031  15.797   7.067
 2993POPC   C4A40842  27.009  16.181   7.274
 2993POPC   C1B40843  26.571  15.935   6.094
 2993POPC   C2B40844  26.589  15.792   6.541
 2993POPC   C3B40845  26.622  16.091   6.895
 2993POPC   C4B40846  26.293  16.302   7.122
 2994POPC   NC340847  13.114  11.348   5.526
 2994POPC   PO440848  12.538  11.450   5.420
 2994POPC   GL140849  12.708  11.326   5.832
 2994POPC   GL240850  12.834  11.635   5.867
 2994POPC   C1A40851  12.938  11.333   6.261
 2994POPC   D2A40852  12.920  11.440   6.719
 2994POPC   C3A40853  12.940  11.093   7.043
 2994POPC   C4A40854  12.781  10.810   7.386
 2994POPC   C1B40855  13.036  11.840   6.217
 2994POPC   C2B40856  13.317  11.691   6.522
 2994POPC   C3B40857  13.335  11.721   6.964
 2994POPC   C4B40858  12.961  11.597   7.203
 2995POPC   NC340859  19.196  44.105   5.269
 2995POPC   PO440860  19.203  43.439   5.546
 2995POPC   GL140861  19.013  43.818   5.820
 2995POPC   GL240862  18.923  44.185   5.707
 2995POPC   C1A40863  18.906  43.866   6.287
 2995POPC   D2A40864  18.946  43.659   6.698
 2995POPC   C3A40865  18.958  43.896   7.055
 2995POPC   C4A40866  18.920  43.863   7.499
 2995POPC   C1B40867  19.073  44.321   6.126
 2995POPC   C2B40868  18.992  44.370   6.578
 2995POPC   C3B40869  19.203  44.338   6.983
 2995POPC   C4B40870  19.219  44.242   7.420
 2996POPC   NC340871  41.874  35.397   5.260
 2996POPC   PO440872  41.273  35.319   5.334
 2996POPC   GL140873  41.430  35.268   5.772
 2996POPC   GL240874  41.781  35.256   5.792
 2996POPC   C1A40875  41.470  35.151   6.216
 2996POPC   D2A40876  41.226  35.189   6.566
 2996POPC   C3A40877  41.348  35.001   6.944
 2996POPC   C4A40878  41.552  35.327   7.126
 2996POPC   C1B40879  41.928  35.408   6.219
 2996POPC   C2B40880  41.609  35.556   6.514
 2996POPC   C3B40881  41.625  35.794   6.854
 2996POPC   C4B40882  41.676  35.800   7.278
 2997POPC   NC340883  38.367  34.797   5.533
 2997POPC   PO440884  38.483  34.169   5.465
 2997POPC   GL140885  38.537  34.406   5.832
 2997POPC   GL240886  38.780  34.689   5.817
 2997POPC   C1A40887  38.657  34.344   6.244
 2997POPC   D2A40888  38.506  34.506   6.616
 2997POPC   C3A40889  38.706  34.432   7.007
 2997POPC   C4A40890  38.457  34.517   7.329
 2997POPC   C1B40891  38.475  34.828   6.154
 2997POPC   C2B40892  38.441  35.030   6.541
 2997POPC   C3B40893  38.403  34.885   6.943
 2997POPC   C4B40894  38.327  35.025   7.321
 2998POPC   NC340895  22.354   6.533   5.350
 2998POPC   PO440896  22.207   5.956   5.594
 2998POPC   GL140897  22.044   5.807   5.978
 2998POPC   GL240898  22.274   6.012   6.113
 2998POPC   C1A40899  21.858   5.581   6.311
 2998POPC   D2A40900  21.852   5.635   6.761
 2998POPC   C3A40901  21.859   5.840   7.144
 2998POPC   C4A40902  21.966   5.673   7.530
 2998POPC   C1B40903  22.099   6.015   6.523
 2998POPC   C2B40904  22.316   6.003   6.931
 2998POPC   C3B40905  22.676   6.217   7.162
 2998POPC   C4B40906  22.843   6.193   7.620
 2999POPC   NC340907  28.582  14.740   5.421
 2999POPC   PO440908  28.353  15.323   5.072
 2999POPC   GL140909  28.409  15.293   5.565
 2999POPC   GL240910  28.748  15.410   5.726
 2999POPC   C1A40911  28.376  15.071   5.985
 2999POPC   D2A40912  28.182  14.901   6.380
 2999POPC   C3A40913  28.271  15.012   6.810
 2999POPC   C4A40914  28.239  15.144   7.203
 2999POPC   C1B40915  28.568  15.503   6.167
 2999POPC   C2B40916  28.334  15.441   6.553
 2999POPC   C3B40917  28.522  15.507   6.991
 2999POPC   C4B40918  28.710  15.292   7.353
 3000POPC   NC340919  34.913  43.760   5.365
 3000POPC   PO440920  34.337  44.002   5.251
 3000POPC   GL140921  34.548  43.932   5.725
 3000POPC   GL240922  34.919  43.990   5.826
 3000POPC   C1A40923  34.569  44.010   6.215
 3000POPC   D2A40924  34.638  44.164   6.659
 3000POPC   C3A40925  34.647  43.884   6.997
 3000POPC   C4A40926  34.525  43.972   7.408
 3000POPC   C1B40927  34.887  43.610   6.108
 3000POPC   C2B40928  34.713  43.586   6.539
 3000POPC   C3B40929  34.837  43.395   6.917
 3000POPC   C4B40930  35.048  43.398   7.280
 3001POPC   NC340931  24.645  36.747   5.073
 3001POPC   PO440932  24.761  37.095   5.638
 3001POPC   GL140933  24.467  37.000   5.953
 3001POPC   GL240934  24.340  36.667   5.894
 3001POPC   C1A40935  24.449  37.019   6.388
 3001POPC   D2A40936  24.638  37.189   6.733
 3001POPC   C3A40937  24.491  36.922   7.008
 3001POPC   C4A40938  24.295  36.967   7.351
 3001POPC   C1B40939  24.754  36.644   6.160
 3001POPC   C2B40940  24.869  36.743   6.605
 3001POPC   C3B40941  24.809  36.532   7.007
 3001POPC   C4B40942  24.742  36.695   7.483
 3002POPC   NC340943  41.932  36.794   5.599
 3002POPC   PO440944  41.326  36.918   5.281
 3002POPC   GL140945  41.385  36.964   5.766
 3002POPC   GL240946  41.690  36.980   5.990
 3002POPC   C1A40947  41.288  36.823   6.232
 3002POPC   D2A40948  41.487  36.766   6.642
 3002POPC   C3A40949  41.555  37.146   6.833
 3002POPC   C4A40950  41.534  37.174   7.241
 3002POPC   C1B40951  41.829  36.653   6.274
 3002POPC   C2B40952  42.043  36.810   6.650
 3002POPC   C3B40953  41.967  36.906   7.065
 3002POPC   C4B40954  41.601  36.674   7.220
 3003POPC   NC340955   4.891  25.377   5.452
 3003POPC   PO440956   4.225  25.267   5.221
 3003POPC   GL140957   4.182  25.221   5.685
 3003POPC   GL240958   4.482  25.394   5.770
 3003POPC   C1A40959   4.251  25.143   6.147
 3003POPC   D2A40960   4.225  25.426   6.512
 3003POPC   C3A40961   4.025  25.310   6.865
 3003POPC   C4A40962   4.207  25.164   7.230
 3003POPC   C1B40963   4.552  25.616   6.168
 3003POPC   C2B40964   4.703  25.596   6.604
 3003POPC   C3B40965   4.543  25.570   7.051
 3003POPC   C4B40966   4.729  25.645   7.488
 3004POPC   NC340967  28.584  11.295   5.212
 3004POPC   PO440968  27.949  11.122   5.373
 3004POPC   GL140969  28.214  11.306   5.746
 3004POPC   GL240970  28.557  11.342   5.725
 3004POPC   C1A40971  28.294  11.567   6.131
 3004POPC   D2A40972  28.384  11.315   6.511
 3004POPC   C3A40973  28.295  11.479   6.921
 3004POPC   C4A40974  28.349  11.191   7.231
 3004POPC   C1B40975  28.738  11.348   6.105
 3004POPC   C2B40976  28.873  11.439   6.532
 3004POPC   C3B40977  28.772  11.223   6.932
 3004POPC   C4B40978  28.871  11.329   7.368
 3005POPC   NC340979   8.615   2.316   5.530
 3005POPC   PO440980   9.065   1.862   5.392
 3005POPC   GL140981   8.945   2.025   5.774
 3005POPC   GL240982   9.126   2.351   5.693
 3005POPC   C1A40983   8.886   1.896   6.220
 3005POPC   D2A40984   8.680   1.668   6.576
 3005POPC   C3A40985   8.875   1.770   6.983
 3005POPC   C4A40986   8.785   2.167   7.211
 3005POPC   C1B40987   9.363   2.129   6.039
 3005POPC   C2B40988   9.397   2.031   6.488
 3005POPC   C3B40989   9.198   2.183   6.874
 3005POPC   C4B40990   9.272   2.121   7.292
 3006POPC   NC340991  12.231  19.614   5.101
 3006POPC   PO440992  11.847  19.074   5.423
 3006POPC   GL140993  11.868  19.188   5.796
 3006POPC   GL240994  12.190  19.027   5.798
 3006POPC   C1A40995  11.765  19.035   6.181
 3006POPC   D2A40996  11.908  18.844   6.535
 3006POPC   C3A40997  11.769  19.026   6.890
 3006POPC   C4A40998  11.905  18.868   7.280
 3006POPC   C1B40999  12.300  19.082   6.187
 3006POPC   C2B41000  12.440  18.956   6.571
 3006POPC   C3B41001  12.271  19.068   6.942
 3006POPC   C4B41002  12.445  19.086   7.341
 3007POPC   NC341003  41.488  43.445   5.137
 3007POPC   PO441004  41.329  44.050   5.383
 3007POPC   GL141005  41.205  43.968   5.800
 3007POPC   GL241006  41.516  43.998   6.000
 3007POPC   C1A41007  41.087  43.809   6.230
 3007POPC   D2A41008  41.353  44.028   6.514
 3007POPC   C3A41009  41.404  43.915   6.945
 3007POPC   C4A41010  41.702  44.003   7.240
 3007POPC   C1B41011  41.568  43.641   6.238
 3007POPC   C2B41012  41.493  43.523   6.614
 3007POPC   C3B41013  41.703  43.503   6.979
 3007POPC   C4B41014  41.597  43.505   7.379
 3008POPC   NC341015  35.210  20.825   5.385
 3008POPC   PO441016  35.733  20.601   5.342
 3008POPC   GL141017  35.653  20.617   5.812
 3008POPC   GL241018  35.382  20.412   5.950
 3008POPC   C1A41019  35.603  20.771   6.281
 3008POPC   D2A41020  35.473  20.632   6.723
 3008POPC   C3A41021  35.609  20.763   7.169
 3008POPC   C4A41022  35.845  20.627   7.546
 3008POPC   C1B41023  35.728  20.282   6.233
 3008POPC   C2B41024  35.876  20.280   6.670
 3008POPC   C3B41025  35.613  20.256   7.048
 3008POPC   C4B41026  35.308  20.264   7.394
 3009POPC   NC341027  11.608  27.602   5.374
 3009POPC   PO441028  11.135  27.344   5.802
 3009POPC   GL141029  11.467  27.575   5.912
 3009POPC   GL241030  11.690  27.310   5.814
 3009POPC   C1A41031  11.374  27.666   6.358
 3009POPC   D2A41032  11.018  27.833   6.631
 3009POPC   C3A41033  11.147  27.721   7.048
 3009POPC   C4A41034  11.203  27.308   7.214
 3009POPC   C1B41035  11.772  27.330   6.272
 3009POPC   C2B41036  11.787  27.582   6.682
 3009POPC   C3B41037  11.656  27.567   7.147
 3009POPC   C4B41038  11.604  27.320   7.562
 3010POPC   NC341039  26.213  36.486   5.474
 3010POPC   PO441040  25.773  35.868   5.489
 3010POPC   GL141041  25.882  36.179   5.819
 3010POPC   GL241042  26.235  36.206   5.881
 3010POPC   C1A41043  25.940  36.039   6.270
 3010POPC   D2A41044  25.976  35.805   6.678
 3010POPC   C3A41045  25.807  36.002   7.073
 3010POPC   C4A41046  25.807  36.122   7.554
 3010POPC   C1B41047  26.274  36.475   6.205
 3010POPC   C2B41048  26.151  36.605   6.608
 3010POPC   C3B41049  26.212  36.474   7.033
 3010POPC   C4B41050  26.271  36.259   7.435
 3011POPC   NC341051  38.957  26.631   5.470
 3011POPC   PO441052  39.405  27.120   5.330
 3011POPC   GL141053  39.356  26.900   5.709
 3011POPC   GL241054  39.064  27.057   5.787
 3011POPC   C1A41055  39.278  26.668   6.115
 3011POPC   D2A41056  39.182  26.870   6.519
 3011POPC   C3A41057  39.219  26.675   6.922
 3011POPC   C4A41058  39.486  26.736   7.270
 3011POPC   C1B41059  38.808  27.085   6.146
 3011POPC   C2B41060  38.779  27.226   6.551
 3011POPC   C3B41061  38.793  27.014   6.920
 3011POPC   C4B41062  39.089  27.080   7.209
 3012POPC   NC341063   0.623   5.135   5.489
 3012POPC   PO441064   0.537   5.747   5.468
 3012POPC   GL141065   0.439   5.405   5.867
 3012POPC   GL241066   0.279   5.004   5.840
 3012POPC   C1A41067   0.625   5.082   6.187
 3012POPC   D2A41068   0.610   4.863   6.571
 3012POPC   C3A41069   0.573   5.133   6.935
 3012POPC   C4A41070   0.492   5.284   7.361
 3012POPC   C1B41071   0.230   4.735   6.245
 3012POPC   C2B41072   0.105   4.886   6.686
 3012POPC   C3B41073   0.113   5.026   7.158
 3012POPC   C4B41074   0.202   4.778   7.604
 3013POPC   NC341075  30.405  25.900   5.420
 3013POPC   PO441076  30.799  26.433   5.353
 3013POPC   GL141077  30.748  26.132   5.703
 3013POPC   GL241078  30.428  26.263   5.783
 3013POPC   C1A41079  30.713  26.095   6.158
 3013POPC   D2A41080  30.538  25.934   6.576
 3013POPC   C3A41081  30.804  26.033   6.906
 3013POPC   C4A41082  30.728  26.326   7.237
 3013POPC   C1B41083  30.212  26.243   6.175
 3013POPC   C2B41084  30.097  26.215   6.589
 3013POPC   C3B41085  30.306  26.301   6.945
 3013POPC   C4B41086  30.200  26.367   7.356
 3014POPC   NC341087   1.441  33.208   5.413
 3014POPC   PO441088   1.111  32.663   5.362
 3014POPC   GL141089   1.194  32.909   5.774
 3014POPC   GL241090   1.056  33.255   5.785
 3014POPC   C1A41091   1.334  32.886   6.247
 3014POPC   D2A41092   1.150  33.034   6.657
 3014POPC   C3A41093   1.372  32.881   7.059
 3014POPC   C4A41094   1.637  32.772   7.414
 3014POPC   C1B41095   1.283  33.382   6.159
 3014POPC   C2B41096   1.508  33.446   6.554
 3014POPC   C3B41097   1.358  33.384   6.988
 3014POPC   C4B41098   0.937  33.228   7.120
 3015POPC   NC341099  20.186  44.180   5.402
 3015POPC   PO441100  19.720  43.802   5.126
 3015POPC   GL141101  19.714  43.985   5.569
 3015POPC   GL241102  19.461  44.240   5.721
 3015POPC   C1A41103  19.908  43.985   5.993
 3015POPC   D2A41104  19.822  43.883   6.428
 3015POPC   C3A41105  19.892  44.079   6.802
 3015POPC   C4A41106  20.081  43.963   7.189
 3015POPC   C1B41107  19.418  43.965   6.124
 3015POPC   C2B41108  19.350  43.984   6.608
 3015POPC   C3B41109  19.484  43.926   7.061
 3015POPC   C4B41110  19.327  43.604   7.318
 3016POPC   NC341111  15.237  28.766   5.645
 3016POPC   PO441112  15.256  29.251   5.124
 3016POPC   GL141113  15.085  29.283   5.595
 3016POPC   GL241114  15.355  29.207   5.850
 3016POPC   C1A41115  14.897  29.307   6.059
 3016POPC   D2A41116  15.000  29.397   6.519
 3016POPC   C3A41117  15.169  29.153   6.879
 3016POPC   C4A41118  14.968  29.107   7.281
 3016POPC   C1B41119  15.272  29.017   6.279
 3016POPC   C2B41120  15.387  28.713   6.604
 3016POPC   C3B41121  15.584  28.667   7.010
 3016POPC   C4B41122  15.486  29.008   7.270
 3017POPC   NC341123  21.563  32.423   5.359
 3017POPC   PO441124  20.914  32.134   5.486
 3017POPC   GL141125  21.172  32.307   5.796
 3017POPC   GL241126  21.530  32.229   5.828
 3017POPC   C1A41127  21.266  32.396   6.233
 3017POPC   D2A41128  21.506  32.494   6.624
 3017POPC   C3A41129  21.316  32.410   7.073
 3017POPC   C4A41130  21.098  32.539   7.482
 3017POPC   C1B41131  21.774  32.232   6.204
 3017POPC   C2B41132  21.982  32.178   6.577
 3017POPC   C3B41133  21.907  32.309   6.992
 3017POPC   C4B41134  21.719  32.145   7.340
 3018POPC   NC341135  40.495   3.874   5.373
 3018POPC   PO441136  41.054   3.686   5.362
 3018POPC   GL141137  40.781   3.539   5.723
 3018POPC   GL241138  40.541   3.806   5.876
 3018POPC   C1A41139  40.896   3.547   6.173
 3018POPC   D2A41140  40.684   3.505   6.569
 3018POPC   C3A41141  40.880   3.419   6.923
 3018POPC   C4A41142  40.715   3.586   7.270
 3018POPC   C1B41143  40.629   3.946   6.318
 3018POPC   C2B41144  41.047   3.862   6.569
 3018POPC   C3B41145  41.127   3.956   6.994
 3018POPC   C4B41146  41.123   3.817   7.423
 3019POPC   NC341147  21.159   7.896   5.571
 3019POPC   PO441148  21.118   8.508   5.318
 3019POPC   GL141149  21.382   8.332   5.693
 3019POPC   GL241150  21.599   8.034   5.746
 3019POPC   C1A41151  21.432   8.478   6.107
 3019POPC   D2A41152  21.286   8.348   6.513
 3019POPC   C3A41153  21.500   8.377   6.870
 3019POPC   C4A41154  21.360   8.488   7.258
 3019POPC   C1B41155  21.422   7.983   6.170
 3019POPC   C2B41156  21.647   7.947   6.546
 3019POPC   C3B41157  21.775   7.897   6.935
 3019POPC   C4B41158  21.516   8.000   7.240
 3020POPC   NC341159   7.741  14.133   5.529
 3020POPC   PO441160   8.297  14.346   5.177
 3020POPC   GL141161   8.244  14.383   5.677
 3020POPC   GL241162   7.939  14.419   5.892
 3020POPC   C1A41163   8.402  14.405   6.145
 3020POPC   D2A41164   8.446  14.592   6.579
 3020POPC   C3A41165   8.389  14.435   7.010
 3020POPC   C4A41166   8.031  14.467   7.221
 3020POPC   C1B41167   7.976  14.142   6.283
 3020POPC   C2B41168   8.004  14.228   6.726
 3020POPC   C3B41169   7.749  14.101   7.063
 3020POPC   C4B41170   7.833  14.101   7.530
 3021POPC   NC341171  38.128  25.401   5.048
 3021POPC   PO441172  38.420  25.026   5.547
 3021POPC   GL141173  38.484  25.242   5.866
 3021POPC   GL241174  38.358  25.558   5.840
 3021POPC   C1A41175  38.301  25.312   6.295
 3021POPC   D2A41176  38.236  25.345   6.744
 3021POPC   C3A41177  38.342  25.212   7.134
 3021POPC   C4A41178  38.223  24.904   7.489
 3021POPC   C1B41179  38.751  25.558   6.133
 3021POPC   C2B41180  38.735  25.568   6.560
 3021POPC   C3B41181  38.918  25.654   6.924
 3021POPC   C4B41182  38.769  25.529   7.285
 3022POPC   NC341183   8.360   0.800   5.449
 3022POPC   PO441184   7.974   0.295   5.411
 3022POPC   GL141185   8.146   0.394   5.815
 3022POPC   GL241186   8.004   0.716   5.832
 3022POPC   C1A41187   8.027   0.419   6.268
 3022POPC   D2A41188   7.847   0.719   6.568
 3022POPC   C3A41189   7.836   0.554   6.979
 3022POPC   C4A41190   8.233   0.458   7.110
 3022POPC   C1B41191   8.317   0.840   6.164
 3022POPC   C2B41192   8.373   0.708   6.606
 3022POPC   C3B41193   8.378   0.929   6.992
 3022POPC   C4B41194   8.591   0.822   7.368
 3023POPC   NC341195  37.566   6.916   5.239
 3023POPC   PO441196  37.601   6.343   5.506
 3023POPC   GL141197  37.325   6.468   5.865
 3023POPC   GL241198  37.035   6.701   5.830
 3023POPC   C1A41199  37.297   6.699   6.278
 3023POPC   D2A41200  37.282   7.041   6.594
 3023POPC   C3A41201  37.107   6.930   6.999
 3023POPC   C4A41202  37.164   6.634   7.306
 3023POPC   C1B41203  36.840   6.921   6.216
 3023POPC   C2B41204  36.726   7.041   6.657
 3023POPC   C3B41205  36.558   6.871   7.052
 3023POPC   C4B41206  36.624   6.587   7.404
 3024POPC   NC341207  19.255  18.711   5.424
 3024POPC   PO441208  18.899  19.229   5.489
 3024POPC   GL141209  19.184  19.138   5.785
 3024POPC   GL241210  19.095  18.829   5.891
 3024POPC   C1A41211  19.039  19.276   6.211
 3024POPC   D2A41212  18.754  19.347   6.620
 3024POPC   C3A41213  18.861  19.154   7.038
 3024POPC   C4A41214  19.245  19.056   7.236
 3024POPC   C1B41215  19.230  18.817   6.299
 3024POPC   C2B41216  19.180  18.892   6.727
 3024POPC   C3B41217  19.080  18.603   7.058
 3024POPC   C4B41218  19.225  18.598   7.482
 3025POPC   NC341219   2.141  34.714   5.339
 3025POPC   PO441220   1.868  34.142   5.150
 3025POPC   GL141221   1.823  34.354   5.610
 3025POPC   GL241222   2.080  34.561   5.809
 3025POPC   C1A41223   1.773  34.306   6.097
 3025POPC   D2A41224   1.652  34.499   6.470
 3025POPC   C3A41225   1.925  34.409   6.814
 3025POPC   C4A41226   1.922  34.549   7.228
 3025POPC   C1B41227   2.147  34.713   6.200
 3025POPC   C2B41228   2.359  34.592   6.549
 3025POPC   C3B41229   2.291  34.754   6.923
 3025POPC   C4B41230   2.409  34.679   7.308
 3026POPC   NC341231  26.955   5.326   5.577
 3026POPC   PO441232  26.453   4.931   5.557
 3026POPC   GL141233  26.764   4.939   5.864
 3026POPC   GL241234  27.145   4.896   5.794
 3026POPC   C1A41235  26.687   5.176   6.218
 3026POPC   D2A41236  26.581   5.045   6.586
 3026POPC   C3A41237  26.627   5.264   6.887
 3026POPC   C4A41238  26.671   5.138   7.232
 3026POPC   C1B41239  27.138   4.971   6.261
 3026POPC   C2B41240  27.062   5.311   6.617
 3026POPC   C3B41241  27.106   5.366   7.080
 3026POPC   C4B41242  27.156   5.022   7.364
 3027POPC   NC341243  15.878  32.486   5.444
 3027POPC   PO441244  16.318  31.959   5.475
 3027POPC   GL141245  16.147  32.246   5.823
 3027POPC   GL241246  15.783  32.305   5.893
 3027POPC   C1A41247  16.087  32.219   6.268
 3027POPC   D2A41248  16.324  32.318   6.597
 3027POPC   C3A41249  16.203  32.093   6.937
 3027POPC   C4A41250  16.163  32.389   7.252
 3027POPC   C1B41251  15.765  32.655   6.152
 3027POPC   C2B41252  15.857  32.576   6.567
 3027POPC   C3B41253  15.734  32.333   6.919
 3027POPC   C4B41254  15.667  32.498   7.325
 3028POPC   NC341255  37.962  44.352   5.424
 3028POPC   PO441256  37.766  43.672   5.119
 3028POPC   GL141257  37.690  43.878   5.553
 3028POPC   GL241258  38.011  43.917   5.740
 3028POPC   C1A41259  37.581  43.832   6.020
 3028POPC   D2A41260  37.667  43.641   6.433
 3028POPC   C3A41261  37.784  43.867   6.832
 3028POPC   C4A41262  37.512  43.951   7.241
 3028POPC   C1B41263  38.059  43.967   6.209
 3028POPC   C2B41264  38.016  44.305   6.525
 3028POPC   C3B41265  38.142  44.332   6.954
 3028POPC   C4B41266  38.020  44.043   7.272
 3029POPC   NC341267   8.646  16.539   5.427
 3029POPC   PO441268   9.188  16.966   5.339
 3029POPC   GL141269   9.039  16.739   5.725
 3029POPC   GL241270   8.699  16.871   5.823
 3029POPC   C1A41271   9.000  16.389   6.070
 3029POPC   D2A41272   8.899  16.466   6.532
 3029POPC   C3A41273   9.015  16.357   6.978
 3029POPC   C4A41274   8.841  16.527   7.380
 3029POPC   C1B41275   8.876  16.873   6.209
 3029POPC   C2B41276   8.919  17.068   6.572
 3029POPC   C3B41277   8.849  16.884   6.995
 3029POPC   C4B41278   8.631  17.056   7.350
 3030POPC   NC341279  26.848  12.833   5.462
 3030POPC   PO441280  27.259  13.358   5.488
 3030POPC   GL141281  27.047  13.121   5.850
 3030POPC   GL241282  26.662  13.087   5.868
 3030POPC   C1A41283  26.907  13.207   6.283
 3030POPC   D2A41284  26.832  12.960   6.640
 3030POPC   C3A41285  27.199  12.851   6.883
 3030POPC   C4A41286  27.340  13.130   7.203
 3030POPC   C1B41287  26.689  12.739   6.187
 3030POPC   C2B41288  26.908  12.471   6.530
 3030POPC   C3B41289  26.806  12.526   6.956
 3030POPC   C4B41290  26.756  12.952   7.164
 3031POPC   NC341291  30.208  27.383   5.421
 3031POPC   PO441292  29.653  27.723   5.565
 3031POPC   GL141293  29.843  27.406   5.786
 3031POPC   GL241294  30.085  27.625   5.869
 3031POPC   C1A41295  29.724  27.378   6.202
 3031POPC   D2A41296  29.832  27.532   6.588
 3031POPC   C3A41297  29.820  27.265   6.904
 3031POPC   C4A41298  29.757  27.449   7.280
 3031POPC   C1B41299  30.222  27.479   6.247
 3031POPC   C2B41300  30.371  27.612   6.633
 3031POPC   C3B41301  30.205  27.618   7.031
 3031POPC   C4B41302  30.414  27.820   7.348
 3032POPC   NC341303  17.563   6.635   5.352
 3032POPC   PO441304  17.478   5.883   5.296
 3032POPC   GL141305  17.448   5.824   5.775
 3032POPC   GL241306  17.244   6.072   5.839
 3032POPC   C1A41307  17.511   5.938   6.268
 3032POPC   D2A41308  17.504   6.011   6.737
 3032POPC   C3A41309  17.456   5.671   7.054
 3032POPC   C4A41310  17.601   5.691   7.483
 3032POPC   C1B41311  17.015   6.044   6.241
 3032POPC   C2B41312  17.035   5.839   6.607
 3032POPC   C3B41313  17.059   5.971   6.999
 3032POPC   C4B41314  17.300   6.129   7.316
 3033POPC   NC341315  18.839   4.541   5.387
 3033POPC   PO441316  19.254   4.035   5.549
 3033POPC   GL141317  19.050   4.092   5.917
 3033POPC   GL241318  19.302   3.895   6.106
 3033POPC   C1A41319  18.842   4.346   6.240
 3033POPC   D2A41320  18.665   4.397   6.662
 3033POPC   C3A41321  18.809   4.308   7.084
 3033POPC   C4A41322  19.079   4.464   7.397
 3033POPC   C1B41323  19.364   4.315   6.248
 3033POPC   C2B41324  19.209   4.545   6.578
 3033POPC   C3B41325  19.360   4.508   6.986
 3033POPC   C4B41326  19.589   4.195   7.214
 3034POPC   NC341327   5.871  34.850   5.304
 3034POPC   PO441328   6.204  34.303   5.409
 3034POPC   GL141329   5.937  34.462   5.763
 3034POPC   GL241330   5.771  34.792   5.820
 3034POPC   C1A41331   5.832  34.333   6.187
 3034POPC   D2A41332   5.602  34.221   6.563
 3034POPC   C3A41333   5.667  34.409   6.979
 3034POPC   C4A41334   5.592  34.584   7.389
 3034POPC   C1B41335   5.767  34.839   6.261
 3034POPC   C2B41336   5.935  34.721   6.666
 3034POPC   C3B41337   5.781  34.912   7.048
 3034POPC   C4B41338   5.867  35.009   7.512
 3035POPC   NC341339  35.606  30.522   5.427
 3035POPC   PO441340  36.219  30.662   5.127
 3035POPC   GL141341  36.121  30.534   5.630
 3035POPC   GL241342  35.825  30.390   5.848
 3035POPC   C1A41343  36.241  30.455   6.107
 3035POPC   D2A41344  36.218  30.718   6.490
 3035POPC   C3A41345  36.306  30.551   6.878
 3035POPC   C4A41346  36.245  30.706   7.252
 3035POPC   C1B41347  35.754  30.581   6.260
 3035POPC   C2B41348  35.724  30.758   6.669
 3035POPC   C3B41349  35.771  30.573   7.064
 3035POPC   C4B41350  35.870  30.475   7.494
 3036POPC   NC341351  30.985  10.542   5.411
 3036POPC   PO441352  30.351  10.508   5.573
 3036POPC   GL141353  30.677  10.618   5.861
 3036POPC   GL241354  30.855  10.348   5.900
 3036POPC   C1A41355  30.704  10.687   6.316
 3036POPC   D2A41356  30.431  10.676   6.696
 3036POPC   C3A41357  30.615  10.472   7.044
 3036POPC   C4A41358  30.889  10.725   7.250
 3036POPC   C1B41359  30.885  10.193   6.271
 3036POPC   C2B41360  30.956  10.374   6.664
 3036POPC   C3B41361  31.064  10.214   7.068
 3036POPC   C4B41362  30.867  10.249   7.468
 3037POPC   NC341363   1.031  38.889   5.527
 3037POPC   PO441364   1.585  39.339   5.416
 3037POPC   GL141365   1.250  39.284   5.756
 3037POPC   GL241366   1.361  38.968   5.904
 3037POPC   C1A41367   1.078  39.279   6.206
 3037POPC   D2A41368   1.062  39.470   6.647
 3037POPC   C3A41369   1.217  39.198   6.993
 3037POPC   C4A41370   1.585  39.262   7.213
 3037POPC   C1B41371   1.407  38.799   6.293
 3037POPC   C2B41372   1.548  38.971   6.665
 3037POPC   C3B41373   1.567  38.779   7.043
 3037POPC   C4B41374   1.328  38.861   7.412
 3038POPC   NC341375  37.514  36.670   5.382
 3038POPC   PO441376  36.884  36.946   5.486
 3038POPC   GL141377  36.896  37.024   5.890
 3038POPC   GL241378  37.128  36.727   5.895
 3038POPC   C1A41379  36.945  37.265   6.278
 3038POPC   D2A41380  37.057  37.447   6.682
 3038POPC   C3A41381  36.861  37.139   6.919
 3038POPC   C4A41382  37.018  36.928   7.241
 3038POPC   C1B41383  36.730  36.568   6.115
 3038POPC   C2B41384  36.633  36.482   6.559
 3038POPC   C3B41385  36.879  36.572   6.909
 3038POPC   C4B41386  36.723  36.537   7.314
 3039POPC   NC341387  29.003  43.358   5.503
 3039POPC   PO441388  29.377  42.762   5.442
 3039POPC   GL141389  29.469  43.056   5.751
 3039POPC   GL241390  29.510  42.749   5.954
 3039POPC   C1A41391  29.610  43.225   6.159
 3039POPC   D2A41392  29.424  43.343   6.534
 3039POPC   C3A41393  29.450  43.228   6.964
 3039POPC   C4A41394  29.099  43.413   7.156
 3039POPC   C1B41395  29.195  42.944   6.239
 3039POPC   C2B41396  29.082  42.987   6.698
 3039POPC   C3B41397  29.101  42.829   7.128
 3039POPC   C4B41398  28.995  42.657   7.565
 3040POPC   NC341399  22.807  21.536   5.058
 3040POPC   PO441400  23.075  20.976   5.368
 3040POPC   GL141401  22.856  21.239   5.709
 3040POPC   GL241402  22.982  21.533   5.825
 3040POPC   C1A41403  22.718  21.308   6.187
 3040POPC   D2A41404  22.719  21.079   6.596
 3040POPC   C3A41405  22.865  21.325   6.972
 3040POPC   C4A41406  22.759  21.709   7.162
 3040POPC   C1B41407  23.204  21.510   6.169
 3040POPC   C2B41408  23.162  21.338   6.557
 3040POPC   C3B41409  23.349  21.498   6.937
 3040POPC   C4B41410  23.376  21.490   7.363
 3041POPC   NC341411  30.987  22.734   5.594
 3041POPC   PO441412  30.443  23.089   5.421
 3041POPC   GL141413  30.453  23.265   5.839
 3041POPC   GL241414  30.595  22.930   5.916
 3041POPC   C1A41415  30.503  23.236   6.301
 3041POPC   D2A41416  30.427  22.980   6.608
 3041POPC   C3A41417  30.554  23.182   6.982
 3041POPC   C4A41418  30.493  23.159   7.410
 3041POPC   C1B41419  30.833  22.833   6.304
 3041POPC   C2B41420  30.829  22.703   6.757
 3041POPC   C3B41421  30.785  22.780   7.207
 3041POPC   C4B41422  30.985  23.048   7.536
 3042POPC   NC341423  18.963  39.305   5.423
 3042POPC   PO441424  19.450  38.816   5.397
 3042POPC   GL141425  19.296  39.133   5.762
 3042POPC   GL241426  18.931  39.115   5.887
 3042POPC   C1A41427  19.196  39.440   6.126
 3042POPC   D2A41428  19.251  39.357   6.534
 3042POPC   C3A41429  19.027  39.504   6.879
 3042POPC   C4A41430  19.243  39.351   7.232
 3042POPC   C1B41431  18.808  38.912   6.280
 3042POPC   C2B41432  18.999  38.946   6.667
 3042POPC   C3B41433  18.868  39.048   7.066
 3042POPC   C4B41434  18.600  39.049   7.394
 3043POPC   NC341435  13.972   4.198   5.454
 3043POPC   PO441436  13.368   4.171   5.085
 3043POPC   GL141437  13.465   4.115   5.598
 3043POPC   GL241438  13.493   4.462   5.722
 3043POPC   C1A41439  13.704   4.122   6.083
 3043POPC   D2A41440  13.809   4.294   6.528
 3043POPC   C3A41441  13.676   4.130   6.948
 3043POPC   C4A41442  13.505   3.964   7.349
 3043POPC   C1B41443  13.579   4.601   6.159
 3043POPC   C2B41444  13.379   4.570   6.544
 3043POPC   C3B41445  13.449   4.597   6.961
 3043POPC   C4B41446  13.644   4.779   7.287
 3044POPC   NC341447   4.517   4.741   5.361
 3044POPC   PO441448   4.368   5.418   5.369
 3044POPC   GL141449   4.430   5.101   5.756
 3044POPC   GL241450   4.635   4.786   5.872
 3044POPC   C1A41451   4.379   5.002   6.228
 3044POPC   D2A41452   4.238   5.175   6.608
 3044POPC   C3A41453   4.293   4.964   6.993
 3044POPC   C4A41454   4.309   5.047   7.407
 3044POPC   C1B41455   4.856   4.817   6.297
 3044POPC   C2B41456   4.717   4.832   6.730
 3044POPC   C3B41457   4.725   4.627   7.165
 3044POPC   C4B41458   4.636   4.734   7.604
 3045POPC   NC341459  44.849  20.053   5.288
 3045POPC   PO441460  44.316  19.657   5.344
 3045POPC   GL141461  44.424  19.769   5.808
 3045POPC   GL241462  44.574  20.077   5.835
 3045POPC   C1A41463  44.602  19.666   6.247
 3045POPC   D2A41464  44.827  19.531   6.652
 3045POPC   C3A41465  44.738  19.763   7.034
 3045POPC   C4A41466  44.617  19.669   7.500
 3045POPC   C1B41467  44.524  20.165   6.295
 3045POPC   C2B41468  44.545  20.159   6.748
 3045POPC   C3B41469  44.505  20.211   7.178
 3045POPC   C4B41470  44.785  20.131   7.500
 3046POPC   NC341471  31.323  30.272   5.389
 3046POPC   PO441472  31.200  30.908   5.315
 3046POPC   GL141473  31.260  30.992   5.717
 3046POPC   GL241474  31.462  30.705   5.788
 3046POPC   C1A41475  31.146  30.974   6.115
 3046POPC   D2A41476  31.210  31.126   6.526
 3046POPC   C3A41477  31.484  30.839   6.775
 3046POPC   C4A41478  31.406  30.782   7.233
 3046POPC   C1B41479  31.573  30.544   6.200
 3046POPC   C2B41480  31.676  30.338   6.584
 3046POPC   C3B41481  31.578  30.367   7.008
 3046POPC   C4B41482  31.379  30.324   7.425
 3047POPC   NC341483  23.030  19.601   5.313
 3047POPC   PO441484  22.842  18.982   5.240
 3047POPC   GL141485  23.045  19.075   5.662
 3047POPC   GL241486  22.833  18.827   5.803
 3047POPC   C1A41487  23.126  19.135   6.151
 3047POPC   D2A41488  23.194  18.942   6.622
 3047POPC   C3A41489  23.154  19.170   7.055
 3047POPC   C4A41490  23.130  19.095   7.547
 3047POPC   C1B41491  22.915  18.694   6.230
 3047POPC   C2B41492  22.712  19.031   6.473
 3047POPC   C3B41493  22.589  19.170   6.872
 3047POPC   C4B41494  22.701  19.033   7.290
 3048POPC   NC341495   7.022  22.976   5.607
 3048POPC   PO441496   6.356  22.731   5.456
 3048POPC   GL141497   6.545  22.858   5.823
 3048POPC   GL241498   6.575  23.212   5.807
 3048POPC   C1A41499   6.482  22.713   6.238
 3048POPC   D2A41500   6.453  22.940   6.607
 3048POPC   C3A41501   6.767  22.800   6.874
 3048POPC   C4A41502   6.559  22.710   7.229
 3048POPC   C1B41503   6.789  23.166   6.197
 3048POPC   C2B41504   6.875  23.228   6.590
 3048POPC   C3B41505   6.739  23.292   6.992
 3048POPC   C4B41506   6.943  23.062   7.298
 3049POPC   NC341507  37.099  42.694   5.633
 3049POPC   PO441508  36.634  42.228   5.314
 3049POPC   GL141509  36.828  42.250   5.716
 3049POPC   GL241510  36.590  42.542   5.748
 3049POPC   C1A41511  37.018  42.149   6.147
 3049POPC   D2A41512  36.941  41.976   6.583
 3049POPC   C3A41513  37.073  42.269   6.956
 3049POPC   C4A41514  37.226  42.663   7.220
 3049POPC   C1B41515  36.488  42.240   6.083
 3049POPC   C2B41516  36.581  42.333   6.505
 3049POPC   C3B41517  36.559  42.121   6.899
 3049POPC   C4B41518  36.781  42.012   7.295
 3050POPC   NC341519   7.332  10.198   5.428
 3050POPC   PO441520   7.733  10.685   5.497
 3050POPC   GL141521   7.580  10.724   5.891
 3050POPC   GL241522   7.309  10.483   5.907
 3050POPC   C1A41523   7.502  10.844   6.316
 3050POPC   D2A41524   7.445  10.578   6.656
 3050POPC   C3A41525   7.711  10.458   6.972
 3050POPC   C4A41526   7.814  10.800   7.197
 3050POPC   C1B41527   7.106  10.285   6.309
 3050POPC   C2B41528   7.030  10.324   6.779
 3050POPC   C3B41529   7.290  10.209   7.146
 3050POPC   C4B41530   7.272  10.404   7.541
 3051POPC   NC341531   5.603  36.486   5.489
 3051POPC   PO441532   5.877  35.965   5.249
 3051POPC   GL141533   5.911  36.093   5.704
 3051POPC   GL241534   6.215  36.283   5.817
 3051POPC   C1A41535   5.743  36.232   6.137
 3051POPC   D2A41536   5.560  36.422   6.541
 3051POPC   C3A41537   5.723  36.302   6.927
 3051POPC   C4A41538   5.593  35.964   7.207
 3051POPC   C1B41539   6.231  36.471   6.254
 3051POPC   C2B41540   6.198  36.508   6.734
 3051POPC   C3B41541   6.182  36.337   7.184
 3051POPC   C4B41542   6.392  36.216   7.597
 3052POPC   NC341543  28.774   4.946   5.337
 3052POPC   PO441544  29.204   5.426   5.382
 3052POPC   GL141545  29.162   5.218   5.765
 3052POPC   GL241546  29.451   5.148   5.788
 3052POPC   C1A41547  28.892   5.044   6.138
 3052POPC   D2A41548  28.786   5.000   6.623
 3052POPC   C3A41549  28.940   5.283   6.998
 3052POPC   C4A41550  29.021   5.066   7.391
 3052POPC   C1B41551  29.304   5.333   6.211
 3052POPC   C2B41552  29.254   5.189   6.608
 3052POPC   C3B41553  29.241   4.848   6.954
 3052POPC   C4B41554  29.433   4.771   7.406
 3053POPC   NC341555   3.210   9.301   5.386
 3053POPC   PO441556   3.864   9.118   5.184
 3053POPC   GL141557   3.742   8.968   5.650
 3053POPC   GL241558   3.402   9.072   5.799
 3053POPC   C1A41559   3.755   8.855   6.117
 3053POPC   D2A41560   3.799   9.031   6.538
 3053POPC   C3A41561   3.774   8.816   6.925
 3053POPC   C4A41562   3.813   8.955   7.321
 3053POPC   C1B41563   3.241   9.124   6.232
 3053POPC   C2B41564   3.304   9.009   6.690
 3053POPC   C3B41565   3.393   9.148   7.108
 3053POPC   C4B41566   3.409   9.204   7.535
 3054POPC   NC341567   3.816  14.589   5.409
 3054POPC   PO441568   3.202  14.267   5.409
 3054POPC   GL141569   3.347  14.502   5.729
 3054POPC   GL241570   3.623  14.282   5.788
 3054POPC   C1A41571   3.470  14.628   6.143
 3054POPC   D2A41572   3.652  14.416   6.495
 3054POPC   C3A41573   3.488  14.514   6.899
 3054POPC   C4A41574   3.629  14.563   7.300
 3054POPC   C1B41575   3.340  14.102   6.113
 3054POPC   C2B41576   3.414  13.977   6.541
 3054POPC   C3B41577   3.283  14.053   6.955
 3054POPC   C4B41578   3.333  14.124   7.400
 3055POPC   NC341579   5.764   0.607   5.724
 3055POPC   PO441580   5.767  44.951   5.556
 3055POPC   GL141581   5.690   0.133   5.906
 3055POPC   GL241582   5.363   0.210   5.926
 3055POPC   C1A41583   5.750   0.318   6.313
 3055POPC   D2A41584   5.973   0.377   6.681
 3055POPC   C3A41585   5.800   0.500   7.041
 3055POPC   C4A41586   6.014   0.302   7.337
 3055POPC   C1B41587   5.499  44.881   6.299
 3055POPC   C2B41588   5.568   0.054   6.740
 3055POPC   C3B41589   5.568   0.077   7.201
 3055POPC   C4B41590   5.560   0.294   7.610
 3056POPC   NC341591  29.661   5.470   5.443
 3056POPC   PO441592  30.051   4.909   5.503
 3056POPC   GL141593  30.088   5.143   5.833
 3056POPC   GL241594  29.838   5.386   5.989
 3056POPC   C1A41595  30.166   5.090   6.246
 3056POPC   D2A41596  29.962   5.261   6.555
 3056POPC   C3A41597  30.086   5.010   6.914
 3056POPC   C4A41598  29.947   4.910   7.288
 3056POPC   C1B41599  29.671   4.993   6.206
 3056POPC   C2B41600  29.653   4.874   6.623
 3056POPC   C3B41601  29.622   5.190   6.951
 3056POPC   C4B41602  29.549   5.242   7.347
 3057POPC   NC341603  10.152  23.557   5.522
 3057POPC   PO441604  10.818  23.983   5.551
 3057POPC   GL141605  10.681  23.673   5.796
 3057POPC   GL241606  10.386  23.843   5.873
 3057POPC   C1A41607  10.660  23.591   6.255
 3057POPC   D2A41608  10.692  23.698   6.684
 3057POPC   C3A41609  10.394  23.543   7.024
 3057POPC   C4A41610  10.438  23.637   7.506
 3057POPC   C1B41611  10.212  23.925   6.259
 3057POPC   C2B41612  10.333  24.083   6.658
 3057POPC   C3B41613  10.288  24.068   7.103
 3057POPC   C4B41614  10.009  23.807   7.262
 3058POPC   NC341615   4.195  12.900   5.099
 3058POPC   PO441616   4.568  12.608   5.556
 3058POPC   GL141617   4.231  12.831   5.706
 3058POPC   GL241618   4.397  13.126   5.597
 3058POPC   C1A41619   4.021  12.832   6.118
 3058POPC   D2A41620   4.237  12.764   6.511
 3058POPC   C3A41621   4.081  12.750   6.910
 3058POPC   C4A41622   4.115  12.519   7.277
 3058POPC   C1B41623   4.386  13.173   6.089
 3058POPC   C2B41624   4.575  13.161   6.527
 3058POPC   C3B41625   4.394  13.166   6.924
 3058POPC   C4B41626   4.251  13.041   7.310
 3059POPC   NC341627  21.405  12.347   5.511
 3059POPC   PO441628  21.058  11.779   5.376
 3059POPC   GL141629  21.267  11.909   5.778
 3059POPC   GL241630  21.617  11.783   5.839
 3059POPC   C1A41631  21.162  12.021   6.206
 3059POPC   D2A41632  21.390  11.899   6.584
 3059POPC   C3A41633  21.201  11.978   6.978
 3059POPC   C4A41634  21.264  11.946   7.410
 3059POPC   C1B41635  21.675  12.100   6.186
 3059POPC   C2B41636  21.829  12.203   6.638
 3059POPC   C3B41637  21.666  12.171   7.094
 3059POPC   C4B41638  21.671  12.152   7.583
 3060POPC   NC341639  19.243  38.413   5.270
 3060POPC   PO441640  18.626  38.390   5.024
 3060POPC   GL141641  18.749  38.469   5.549
 3060POPC   GL241642  19.028  38.670   5.675
 3060POPC   C1A41643  18.827  38.429   6.082
 3060POPC   D2A41644  18.728  38.435   6.558
 3060POPC   C3A41645  18.993  38.523   6.923
 3060POPC   C4A41646  18.915  38.626   7.361
 3060POPC   C1B41647  19.266  38.743   6.091
 3060POPC   C2B41648  19.445  38.616   6.508
 3060POPC   C3B41649  19.461  38.267   6.808
 3060POPC   C4B41650  19.311  38.270   7.231
 3061POPC   NC341651  23.774   8.502   5.375
 3061POPC   PO441652  23.350   9.045   5.535
 3061POPC   GL141653  23.668   8.809   5.773
 3061POPC   GL241654  23.556   8.476   5.838
 3061POPC   C1A41655  23.893   8.721   6.177
 3061POPC   D2A41656  23.980   8.720   6.637
 3061POPC   C3A41657  23.817   9.035   6.936
 3061POPC   C4A41658  23.755   8.871   7.344
 3061POPC   C1B41659  23.346   8.682   6.162
 3061POPC   C2B41660  23.424   8.936   6.531
 3061POPC   C3B41661  23.341   8.854   6.959
 3061POPC   C4B41662  23.302   9.123   7.297
 3062POPC   NC341663  26.683  30.260   5.433
 3062POPC   PO441664  26.592  29.643   5.428
 3062POPC   GL141665  26.924  29.884   5.707
 3062POPC   GL241666  26.656  29.973   5.898
 3062POPC   C1A41667  27.079  30.078   6.145
 3062POPC   D2A41668  27.047  29.932   6.584
 3062POPC   C3A41669  26.964  30.138   7.000
 3062POPC   C4A41670  26.929  29.828   7.377
 3062POPC   C1B41671  26.613  30.201   6.277
 3062POPC   C2B41672  26.547  30.032   6.674
 3062POPC   C3B41673  26.530  29.877   7.073
 3062POPC   C4B41674  26.620  30.240   7.372
 3063POPC   NC341675   0.649  19.619   5.319
 3063POPC   PO441676   0.530  20.279   5.235
 3063POPC   GL141677   0.373  19.986   5.595
 3063POPC   GL241678   0.089  20.126   5.767
 3063POPC   C1A41679   0.335  19.771   6.048
 3063POPC   D2A41680   0.489  19.861   6.475
 3063POPC   C3A41681   0.443  19.679   6.880
 3063POPC   C4A41682   0.655  19.333   7.102
 3063POPC   C1B41683   0.019  20.185   6.185
 3063POPC   C2B41684   0.022  20.051   6.604
 3063POPC   C3B41685   0.200  20.115   7.005
 3063POPC   C4B41686   0.148  19.795   7.312
 3064POPC   NC341687  31.399  40.594   5.393
 3064POPC   PO441688  31.037  41.098   5.695
 3064POPC   GL141689  31.414  40.924   5.826
 3064POPC   GL241690  31.420  40.555   5.906
 3064POPC   C1A41691  31.499  40.938   6.256
 3064POPC   D2A41692  31.294  40.861   6.651
 3064POPC   C3A41693  31.262  41.082   7.044
 3064POPC   C4A41694  31.234  40.991   7.493
 3064POPC   C1B41695  31.568  40.294   6.227
 3064POPC   C2B41696  31.407  40.162   6.597
 3064POPC   C3B41697  31.440  40.452   6.908
 3064POPC   C4B41698  31.635  40.756   7.194
 3065POPC   NC341699  11.436  18.908   5.595
 3065POPC   PO441700  10.836  19.050   5.456
 3065POPC   GL141701  11.064  19.242   5.815
 3065POPC   GL241702  11.377  19.416   5.680
 3065POPC   C1A41703  11.222  19.057   6.235
 3065POPC   D2A41704  11.324  18.868   6.648
 3065POPC   C3A41705  11.102  19.011   7.031
 3065POPC   C4A41706  11.044  19.015   7.495
 3065POPC   C1B41707  11.438  19.494   6.100
 3065POPC   C2B41708  11.544  19.345   6.522
 3065POPC   C3B41709  11.424  19.416   6.929
 3065POPC   C4B41710  11.490  19.201   7.293
 3066POPC   NC341711  25.438   6.708   5.266
 3066POPC   PO441712  24.964   7.093   5.277
 3066POPC   GL141713  25.110   6.823   5.669
 3066POPC   GL241714  25.456   6.678   5.778
 3066POPC   C1A41715  25.122   6.899   6.113
 3066POPC   D2A41716  25.100   7.008   6.548
 3066POPC   C3A41717  25.155   6.674   6.864
 3066POPC   C4A41718  25.258   6.787   7.284
 3066POPC   C1B41719  25.507   6.517   6.214
 3066POPC   C2B41720  25.752   6.506   6.614
 3066POPC   C3B41721  25.680   6.620   7.036
 3066POPC   C4B41722  25.553   6.360   7.411
 3067POPC   NC341723  40.896  26.500   5.488
 3067POPC   PO441724  40.636  25.845   5.489
 3067POPC   GL141725  40.760  26.109   5.832
 3067POPC   GL241726  40.545  26.404   5.856
 3067POPC   C1A41727  40.982  26.052   6.238
 3067POPC   D2A41728  41.287  25.948   6.583
 3067POPC   C3A41729  41.113  26.059   6.995
 3067POPC   C4A41730  40.702  25.956   7.242
 3067POPC   C1B41731  40.454  26.185   6.247
 3067POPC   C2B41732  40.470  26.039   6.676
 3067POPC   C3B41733  40.501  26.344   6.987
 3067POPC   C4B41734  40.891  26.484   7.189
 3068POPC   NC341735  29.642   8.641   5.514
 3068POPC   PO441736  29.711   9.274   5.293
 3068POPC   GL141737  29.792   9.102   5.716
 3068POPC   GL241738  29.603   9.320   5.916
 3068POPC   C1A41739  29.899   8.896   6.137
 3068POPC   D2A41740  30.048   8.688   6.519
 3068POPC   C3A41741  29.835   8.722   6.915
 3068POPC   C4A41742  30.065   8.757   7.286
 3068POPC   C1B41743  30.043   9.392   6.081
 3068POPC   C2B41744  30.236   9.205   6.459
 3068POPC   C3B41745  30.105   9.175   6.889
 3068POPC   C4B41746  29.793   9.188   7.213
 3069POPC   NC341747  37.801  39.598   5.512
 3069POPC   PO441748  37.443  39.035   5.412
 3069POPC   GL141749  37.628  39.177   5.771
 3069POPC   GL241750  37.962  39.086   5.755
 3069POPC   C1A41751  37.480  39.373   6.126
 3069POPC   D2A41752  37.338  39.171   6.496
 3069POPC   C3A41753  37.465  39.327   6.898
 3069POPC   C4A41754  37.570  38.963   7.158
 3069POPC   C1B41755  37.881  39.072   6.234
 3069POPC   C2B41756  37.838  39.006   6.697
 3069POPC   C3B41757  38.075  38.990   7.095
 3069POPC   C4B41758  38.009  38.882   7.532
 3070POPC   NC341759   2.136  38.088   5.468
 3070POPC   PO441760   1.742  37.636   5.530
 3070POPC   GL141761   1.850  37.595   5.905
 3070POPC   GL241762   2.179  37.682   5.792
 3070POPC   C1A41763   1.778  37.791   6.301
 3070POPC   D2A41764   1.550  37.825   6.690
 3070POPC   C3A41765   1.740  37.674   7.087
 3070POPC   C4A41766   1.860  37.565   7.501
 3070POPC   C1B41767   2.276  37.525   6.196
 3070POPC   C2B41768   2.495  37.585   6.552
 3070POPC   C3B41769   2.369  37.709   6.942
 3070POPC   C4B41770   2.356  37.535   7.335
 3071POPC   NC341771   3.208  33.387   5.498
 3071POPC   PO441772   2.757  32.947   5.324
 3071POPC   GL141773   2.743  32.839   5.791
 3071POPC   GL241774   2.624  32.461   5.827
 3071POPC   C1A41775   2.952  33.054   6.202
 3071POPC   D2A41776   3.059  33.318   6.612
 3071POPC   C3A41777   2.893  33.183   7.060
 3071POPC   C4A41778   2.810  33.253   7.537
 3071POPC   C1B41779   2.599  32.644   6.253
 3071POPC   C2B41780   2.568  33.000   6.554
 3071POPC   C3B41781   2.483  32.882   6.960
 3071POPC   C4B41782   2.676  32.721   7.283
 3072POPC   NC341783  22.664  42.773   5.488
 3072POPC   PO441784  22.387  42.108   5.533
 3072POPC   GL141785  22.618  42.381   5.849
 3072POPC   GL241786  22.800  42.117   5.975
 3072POPC   C1A41787  22.773  42.540   6.273
 3072POPC   D2A41788  22.943  42.549   6.681
 3072POPC   C3A41789  22.782  42.518   7.092
 3072POPC   C4A41790  23.088  42.361   7.395
 3072POPC   C1B41791  22.464  42.123   6.296
 3072POPC   C2B41792  22.531  42.116   6.771
 3072POPC   C3B41793  22.839  41.997   7.092
 3072POPC   C4B41794  22.911  41.892   7.530
 3073POPC   NC341795  25.336  33.368   4.993
 3073POPC   PO441796  25.045  32.906   5.287
 3073POPC   GL141797  25.045  32.814   5.734
 3073POPC   GL241798  24.736  32.665   5.763
 3073POPC   C1A41799  25.302  32.680   6.107
 3073POPC   D2A41800  25.344  32.913   6.501
 3073POPC   C3A41801  25.554  32.874   6.902
 3073POPC   C4A41802  25.359  33.122   7.235
 3073POPC   C1B41803  24.794  32.730   6.197
 3073POPC   C2B41804  24.981  32.557   6.559
 3073POPC   C3B41805  25.021  32.797   6.911
 3073POPC   C4B41806  24.820  32.755   7.288
 3074POPC   NC341807   4.754  18.861   5.568
 3074POPC   PO441808   4.106  18.934   5.446
 3074POPC   GL141809   4.320  18.937   5.849
 3074POPC   GL241810   4.580  19.183   5.919
 3074POPC   C1A41811   4.236  19.043   6.270
 3074POPC   D2A41812   4.296  19.161   6.663
 3074POPC   C3A41813   3.985  19.097   6.953
 3074POPC   C4A41814   4.213  19.280   7.272
 3074POPC   C1B41815   4.749  19.191   6.366
 3074POPC   C2B41816   4.766  19.301   6.773
 3074POPC   C3B41817   4.719  19.366   7.198
 3074POPC   C4B41818   4.786  19.277   7.610
 3075POPC   NC341819  29.764  17.615   5.333
 3075POPC   PO441820  30.261  17.118   5.278
 3075POPC   GL141821  30.007  17.130   5.726
 3075POPC   GL241822  29.945  17.446   5.775
 3075POPC   C1A41823  29.681  17.184   6.132
 3075POPC   D2A41824  29.514  17.430   6.544
 3075POPC   C3A41825  29.706  17.546   6.972
 3075POPC   C4A41826  29.694  17.627   7.454
 3075POPC   C1B41827  30.158  17.352   6.157
 3075POPC   C2B41828  30.064  17.446   6.553
 3075POPC   C3B41829  30.117  17.255   6.927
 3075POPC   C4B41830  30.140  17.466   7.261
 3076POPC   NC341831  24.311  29.517   5.524
 3076POPC   PO441832  24.099  28.947   5.459
 3076POPC   GL141833  23.724  29.133   5.741
 3076POPC   GL241834  23.758  29.499   5.646
 3076POPC   C1A41835  23.509  29.089   6.188
 3076POPC   D2A41836  23.578  28.984   6.621
 3076POPC   C3A41837  23.373  29.025   7.008
 3076POPC   C4A41838  23.513  28.951   7.397
 3076POPC   C1B41839  23.674  29.556   6.096
 3076POPC   C2B41840  23.795  29.441   6.529
 3076POPC   C3B41841  23.671  29.419   6.985
 3076POPC   C4B41842  23.761  29.476   7.456
 3077POPC   NC341843  39.701   5.602   5.347
 3077POPC   PO441844  39.231   6.107   5.394
 3077POPC   GL141845  39.318   5.767   5.678
 3077POPC   GL241846  39.010   5.573   5.758
 3077POPC   C1A41847  39.441   5.825   6.095
 3077POPC   D2A41848  39.430   6.035   6.491
 3077POPC   C3A41849  39.310   5.874   6.873
 3077POPC   C4A41850  39.215   6.106   7.196
 3077POPC   C1B41851  38.941   5.852   6.130
 3077POPC   C2B41852  38.951   5.723   6.538
 3077POPC   C3B41853  38.800   5.817   6.929
 3077POPC   C4B41854  38.936   5.699   7.315
 3078POPC   NC341855  31.186  36.258   5.340
 3078POPC   PO441856  31.347  35.643   5.368
 3078POPC   GL141857  31.386  36.000   5.725
 3078POPC   GL241858  31.294  36.387   5.800
 3078POPC   C1A41859  31.650  36.041   6.100
 3078POPC   D2A41860  31.840  35.933   6.508
 3078POPC   C3A41861  31.592  35.889   6.903
 3078POPC   C4A41862  31.462  35.971   7.367
 3078POPC   C1B41863  31.183  36.260   6.177
 3078POPC   C2B41864  31.376  36.241   6.550
 3078POPC   C3B41865  31.269  36.263   6.960
 3078POPC   C4B41866  31.504  36.471   7.243
 3079POPC   NC341867   0.609  25.945   5.580
 3079POPC   PO441868   0.257  26.464   5.428
 3079POPC   GL141869   0.389  26.337   5.847
 3079POPC   GL241870   0.710  26.187   5.995
 3079POPC   C1A41871   0.295  26.271   6.273
 3079POPC   D2A41872   0.551  26.076   6.571
 3079POPC   C3A41873   0.366  26.162   6.961
 3079POPC   C4A41874   0.361  26.172   7.414
 3079POPC   C1B41875   0.784  25.794   6.186
 3079POPC   C2B41876   0.803  25.622   6.586
 3079POPC   C3B41877   0.764  25.814   6.982
 3079POPC   C4B41878   0.721  25.555   7.339
 3080POPC   NC341879  20.157  26.039   5.737
 3080POPC   PO441880  20.762  25.948   5.409
 3080POPC   GL141881  20.640  26.181   5.818
 3080POPC   GL241882  20.543  25.887   6.039
 3080POPC   C1A41883  20.699  26.309   6.287
 3080POPC   D2A41884  20.502  26.237   6.718
 3080POPC   C3A41885  20.571  25.984   7.101
 3080POPC   C4A41886  20.977  25.801   7.313
 3080POPC   C1B41887  20.223  26.007   6.367
 3080POPC   C2B41888  19.949  25.934   6.724
 3080POPC   C3B41889  20.073  25.852   7.153
 3080POPC   C4B41890  20.257  26.094   7.494
 3081POPC   NC341891  36.690  34.167   4.983
 3081POPC   PO441892  36.933  33.721   5.385
 3081POPC   GL141893  36.854  33.764   5.814
 3081POPC   GL241894  36.765  34.132   5.848
 3081POPC   C1A41895  36.992  33.837   6.233
 3081POPC   D2A41896  36.941  34.086   6.603
 3081POPC   C3A41897  37.180  34.008   6.962
 3081POPC   C4A41898  37.081  33.814   7.365
 3081POPC   C1B41899  36.638  34.316   6.253
 3081POPC   C2B41900  36.566  34.415   6.710
 3081POPC   C3B41901  36.698  34.143   7.092
 3081POPC   C4B41902  36.750  34.160   7.571
 3082POPC   NC341903  24.577  18.710   5.319
 3082POPC   PO441904  24.241  18.151   5.390
 3082POPC   GL141905  24.490  18.253   5.721
 3082POPC   GL241906  24.367  18.560   5.809
 3082POPC   C1A41907  24.432  18.167   6.169
 3082POPC   D2A41908  24.643  18.347   6.536
 3082POPC   C3A41909  24.530  18.277   6.939
 3082POPC   C4A41910  24.494  18.156   7.345
 3082POPC   C1B41911  24.739  18.584   6.098
 3082POPC   C2B41912  24.856  18.804   6.512
 3082POPC   C3B41913  25.021  18.686   6.932
 3082POPC   C4B41914  24.963  18.365   7.234
 3083POPC   NC341915  27.386  20.010   5.414
 3083POPC   PO441916  27.866  19.587   5.502
 3083POPC   GL141917  27.605  19.800   5.825
 3083POPC   GL241918  27.920  19.900   5.953
 3083POPC   C1A41919  27.525  19.838   6.259
 3083POPC   D2A41920  27.854  19.854   6.561
 3083POPC   C3A41921  27.685  20.041   6.934
 3083POPC   C4A41922  27.620  20.043   7.382
 3083POPC   C1B41923  27.864  19.474   6.150
 3083POPC   C2B41924  28.005  19.247   6.505
 3083POPC   C3B41925  27.989  19.459   6.898
 3083POPC   C4B41926  27.638  19.567   7.167
 3084POPC   NC341927  42.872  36.496   5.431
 3084POPC   PO441928  43.206  37.141   5.384
 3084POPC   GL141929  43.078  36.877   5.754
 3084POPC   GL241930  43.311  36.682   5.957
 3084POPC   C1A41931  42.984  37.047   6.177
 3084POPC   D2A41932  43.154  36.886   6.541
 3084POPC   C3A41933  42.951  36.962   6.896
 3084POPC   C4A41934  43.157  36.928   7.272
 3084POPC   C1B41935  42.953  36.537   6.208
 3084POPC   C2B41936  42.861  36.434   6.643
 3084POPC   C3B41937  42.959  36.472   7.080
 3084POPC   C4B41938  42.936  36.490   7.542
 3085POPC   NC341939   5.998  43.226   5.389
 3085POPC   PO441940   6.206  42.578   5.460
 3085POPC   GL141941   6.148  42.894   5.819
 3085POPC   GL241942   5.805  43.051   5.841
 3085POPC   C1A41943   6.080  43.031   6.276
 3085POPC   D2A41944   5.908  43.332   6.591
 3085POPC   C3A41945   5.899  43.206   7.019
 3085POPC   C4A41946   6.173  43.251   7.358
 3085POPC   C1B41947   5.587  42.903   6.220
 3085POPC   C2B41948   5.629  42.920   6.662
 3085POPC   C3B41949   5.786  42.682   7.014
 3085POPC   C4B41950   5.939  42.788   7.410
 3086POPC   NC341951  39.047   3.056   5.471
 3086POPC   PO441952  39.598   2.732   5.309
 3086POPC   GL141953  39.343   2.656   5.725
 3086POPC   GL241954  39.241   2.941   5.914
 3086POPC   C1A41955  39.307   2.546   6.214
 3086POPC   D2A41956  39.218   2.379   6.650
 3086POPC   C3A41957  39.392   2.555   7.077
 3086POPC   C4A41958  39.400   2.823   7.480
 3086POPC   C1B41959  39.400   3.077   6.329
 3086POPC   C2B41960  39.383   3.025   6.796
 3086POPC   C3B41961  39.072   3.018   7.140
 3086POPC   C4B41962  39.121   3.245   7.529
 3087POPC   NC341963  31.235  28.659   5.609
 3087POPC   PO441964  31.650  28.286   5.274
 3087POPC   GL141965  31.635  28.354   5.735
 3087POPC   GL241966  31.728  28.696   5.790
 3087POPC   C1A41967  31.462  28.213   6.169
 3087POPC   D2A41968  31.172  28.359   6.494
 3087POPC   C3A41969  31.444  28.296   6.859
 3087POPC   C4A41970  31.610  28.136   7.244
 3087POPC   C1B41971  31.530  28.705   6.197
 3087POPC   C2B41972  31.378  28.790   6.612
 3087POPC   C3B41973  31.175  28.701   6.994
 3087POPC   C4B41974  31.460  28.631   7.334
 3088POPC   NC341975  44.120  26.725   5.432
 3088POPC   PO441976  43.596  26.925   5.247
 3088POPC   GL141977  43.820  27.023   5.693
 3088POPC   GL241978  43.842  26.758   5.932
 3088POPC   C1A41979  43.894  27.225   6.120
 3088POPC   D2A41980  43.853  27.022   6.540
 3088POPC   C3A41981  44.156  27.072   6.866
 3088POPC   C4A41982  44.257  26.872   7.261
 3088POPC   C1B41983  43.507  26.705   6.267
 3088POPC   C2B41984  43.459  26.609   6.718
 3088POPC   C3B41985  43.716  26.805   7.028
 3088POPC   C4B41986  43.812  26.645   7.424
 3089POPC   NC341987   7.052  41.225   5.415
 3089POPC   PO441988   6.504  40.734   5.568
 3089POPC   GL141989   6.645  40.730   5.905
 3089POPC   GL241990   6.557  41.079   5.962
 3089POPC   C1A41991   6.509  40.530   6.242
 3089POPC   D2A41992   6.317  40.784   6.514
 3089POPC   C3A41993   6.537  40.819   6.886
 3089POPC   C4A41994   6.427  40.555   7.249
 3089POPC   C1B41995   6.822  40.957   6.321
 3089POPC   C2B41996   7.077  41.035   6.668
 3089POPC   C3B41997   6.955  41.155   7.028
 3089POPC   C4B41998   6.694  40.985   7.351
 3090POPC   NC341999  17.212  29.823   5.367
 3090POPC   PO442000  17.836  30.148   5.244
 3090POPC   GL142001  17.711  30.021   5.684
 3090POPC   GL242002  17.541  29.691   5.756
 3090POPC   C1A42003  17.750  29.993   6.155
 3090POPC   D2A42004  17.638  30.177   6.556
 3090POPC   C3A42005  17.830  30.091   6.956
 3090POPC   C4A42006  17.605  30.089   7.335
 3090POPC   C1B42007  17.272  29.548   6.105
 3090POPC   C2B42008  17.214  29.746   6.492
 3090POPC   C3B42009  17.435  29.781   6.878
 3090POPC   C4B42010  17.376  29.631   7.302
 3091POPC   NC342011  16.830  21.262   5.512
 3091POPC   PO442012  16.344  21.738   5.356
 3091POPC   GL142013  16.510  21.576   5.766
 3091POPC   GL242014  16.419  21.213   5.825
 3091POPC   C1A42015  16.866  21.677   6.098
 3091POPC   D2A42016  16.954  21.507   6.529
 3091POPC   C3A42017  16.861  21.691   6.945
 3091POPC   C4A42018  17.010  21.799   7.361
 3091POPC   C1B42019  16.740  21.192   6.155
 3091POPC   C2B42020  16.772  21.013   6.533
 3091POPC   C3B42021  16.744  21.159   6.914
 3091POPC   C4B42022  16.828  21.320   7.289
 3092POPC   NC342023   1.596  25.902   5.424
 3092POPC   PO442024   0.967  26.080   5.312
 3092POPC   GL142025   1.131  25.987   5.731
 3092POPC   GL242026   1.427  26.192   5.788
 3092POPC   C1A42027   1.279  25.874   6.162
 3092POPC   D2A42028   1.102  26.047   6.539
 3092POPC   C3A42029   1.285  25.931   6.927
 3092POPC   C4A42030   1.133  25.835   7.333
 3092POPC   C1B42031   1.638  26.249   6.170
 3092POPC   C2B42032   1.629  26.151   6.586
 3092POPC   C3B42033   1.777  26.137   7.000
 3092POPC   C4B42034   1.498  26.193   7.325
 3093POPC   NC342035  29.692  18.918   5.421
 3093POPC   PO442036  30.348  18.717   5.466
 3093POPC   GL142037  29.983  18.742   5.824
 3093POPC   GL242038  29.758  19.053   5.915
 3093POPC   C1A42039  29.854  18.736   6.296
 3093POPC   D2A42040  29.976  18.792   6.742
 3093POPC   C3A42041  29.781  18.814   7.157
 3093POPC   C4A42042  29.816  18.917   7.617
 3093POPC   C1B42043  29.646  19.225   6.359
 3093POPC   C2B42044  29.705  19.235   6.850
 3093POPC   C3B42045  29.579  19.267   7.308
 3093POPC   C4B42046  29.523  19.299   7.798
 3094POPC   NC342047  14.587  25.081   5.340
 3094POPC   PO442048  14.039  25.500   5.496
 3094POPC   GL142049  14.354  25.340   5.781
 3094POPC   GL242050  14.293  24.961   5.748
 3094POPC   C1A42051  14.281  25.398   6.247
 3094POPC   D2A42052  14.112  25.212   6.652
 3094POPC   C3A42053  14.300  25.455   6.994
 3094POPC   C4A42054  14.235  25.529   7.459
 3094POPC   C1B42055  14.328  24.897   6.179
 3094POPC   C2B42056  14.585  25.038   6.532
 3094POPC   C3B42057  14.492  24.969   6.970
 3094POPC   C4B42058  14.557  25.167   7.336
 3095POPC   NC342059  44.356  42.141   5.406
 3095POPC   PO442060  44.891  42.623   5.367
 3095POPC   GL142061  44.765  42.347   5.657
 3095POPC   GL242062   0.047  42.125   5.715
 3095POPC   C1A42063  44.511  42.365   6.049
 3095POPC   D2A42064  44.436  42.531   6.478
 3095POPC   C3A42065  44.544  42.227   6.768
 3095POPC   C4A42066  44.712  42.209   7.168
 3095POPC   C1B42067   0.028  42.281   6.099
 3095POPC   C2B42068  44.946  42.361   6.495
 3095POPC   C3B42069   0.076  42.191   6.823
 3095POPC   C4B42070   0.206  42.072   7.185
 3096POPC   NC342071  31.419   3.199   5.131
 3096POPC   PO442072  31.827   2.750   5.454
 3096POPC   GL142073  31.655   2.776   5.845
 3096POPC   GL242074  31.343   2.669   5.876
 3096POPC   C1A42075  31.766   2.888   6.244
 3096POPC   D2A42076  31.649   2.759   6.645
 3096POPC   C3A42077  31.883   2.877   7.008
 3096POPC   C4A42078  31.820   2.677   7.397
 3096POPC   C1B42079  31.249   2.887   6.279
 3096POPC   C2B42080  31.153   2.665   6.684
 3096POPC   C3B42081  31.373   2.758   7.085
 3096POPC   C4B42082  31.316   2.756   7.535
 3097POPC   NC342083  33.430  44.603   5.596
 3097POPC   PO442084  32.804  44.921   5.446
 3097POPC   GL142085  32.999  44.801   5.816
 3097POPC   GL242086  32.802  44.530   5.974
 3097POPC   C1A42087  32.986  44.950   6.234
 3097POPC   D2A42088  32.796  44.966   6.627
 3097POPC   C3A42089  33.005  44.688   6.910
 3097POPC   C4A42090  33.075  44.752   7.353
 3097POPC   C1B42091  33.187  44.462   6.233
 3097POPC   C2B42092  33.473  44.480   6.606
 3097POPC   C3B42093  33.388  44.322   7.021
 3097POPC   C4B42094  33.259  44.303   7.444
 3098POPC   NC342095  38.698  25.655   5.454
 3098POPC   PO442096  38.170  25.919   5.172
 3098POPC   GL142097  38.352  26.035   5.653
 3098POPC   GL242098  38.653  25.989   5.885
 3098POPC   C1A42099  38.289  26.300   6.048
 3098POPC   D2A42100  38.294  26.441   6.477
 3098POPC   C3A42101  38.272  26.254   6.850
 3098POPC   C4A42102  38.325  26.327   7.233
 3098POPC   C1B42103  38.614  26.033   6.337
 3098POPC   C2B42104  38.300  25.825   6.601
 3098POPC   C3B42105  38.383  25.779   7.044
 3098POPC   C4B42106  38.739  26.041   7.234
 3099POPC   NC342107  40.362  27.873   5.579
 3099POPC   PO442108  40.869  27.594   5.179
 3099POPC   GL142109  40.779  27.521   5.637
 3099POPC   GL242110  40.942  27.773   5.806
 3099POPC   C1A42111  40.725  27.387   6.096
 3099POPC   D2A42112  40.639  27.182   6.516
 3099POPC   C3A42113  40.662  27.392   6.912
 3099POPC   C4A42114  40.731  27.460   7.347
 3099POPC   C1B42115  40.990  27.886   6.230
 3099POPC   C2B42116  40.836  27.778   6.627
 3099POPC   C3B42117  40.839  27.889   7.067
 3099POPC   C4B42118  40.544  27.900   7.451
 3100POPC   NC342119  13.373  43.968   5.494
 3100POPC   PO442120  14.015  44.152   5.366
 3100POPC   GL142121  13.765  44.179   5.750
 3100POPC   GL242122  13.547  43.907   5.957
 3100POPC   C1A42123  13.804  44.286   6.178
 3100POPC   D2A42124  13.696  43.980   6.473
 3100POPC   C3A42125  13.550  44.045   6.882
 3100POPC   C4A42126  13.752  44.034   7.247
 3100POPC   C1B42127  13.348  43.645   6.292
 3100POPC   C2B42128  13.531  43.539   6.698
 3100POPC   C3B42129  13.694  43.457   7.095
 3100POPC   C4B42130  13.719  43.599   7.553
 3101POPC   NC342131  20.364  39.915   5.445
 3101POPC   PO442132  21.003  40.009   5.351
 3101POPC   GL142133  20.876  39.890   5.791
 3101POPC   GL242134  20.648  40.156   5.809
 3101POPC   C1A42135  20.714  39.835   6.227
 3101POPC   D2A42136  20.474  39.975   6.597
 3101POPC   C3A42137  20.653  39.849   6.972
 3101POPC   C4A42138  20.850  39.902   7.335
 3101POPC   C1B42139  20.382  40.266   6.182
 3101POPC   C2B42140  20.542  40.499   6.550
 3101POPC   C3B42141  20.436  40.357   6.960
 3101POPC   C4B42142  20.583  40.367   7.347
 3102POPC   NC342143  41.286   0.306   5.594
 3102POPC   PO442144  40.621   0.410   5.404
 3102POPC   GL142145  40.743   0.581   5.791
 3102POPC   GL242146  40.841   0.238   5.869
 3102POPC   C1A42147  40.865   0.573   6.245
 3102POPC   D2A42148  40.715   0.266   6.553
 3102POPC   C3A42149  40.609   0.464   6.928
 3102POPC   C4A42150  40.842   0.751   7.144
 3102POPC   C1B42151  41.131   0.121   6.210
 3102POPC   C2B42152  41.347   0.235   6.536
 3102POPC   C3B42153  41.124   0.408   6.848
 3102POPC   C4B42154  41.006   0.246   7.204
 3103POPC   NC342155   4.200   9.205   5.491
 3103POPC   PO442156   4.745   9.468   5.729
 3103POPC   GL142157   4.455   9.308   5.936
 3103POPC   GL242158   4.461   8.999   5.863
 3103POPC   C1A42159   4.166   9.212   6.231
 3103POPC   D2A42160   4.172   9.392   6.617
 3103POPC   C3A42161   4.147   9.172   6.991
 3103POPC   C4A42162   4.297   9.171   7.419
 3103POPC   C1B42163   4.574   8.885   6.259
 3103POPC   C2B42164   4.796   8.878   6.628
 3103POPC   C3B42165   4.594   8.912   7.009
 3103POPC   C4B42166   4.262   8.710   7.211
 3104POPC   NC342167  22.427  11.102   5.614
 3104POPC   PO442168  21.965  11.391   5.208
 3104POPC   GL142169  21.971  11.369   5.714
 3104POPC   GL242170  22.040  11.046   5.940
 3104POPC   C1A42171  21.974  11.470   6.190
 3104POPC   D2A42172  21.694  11.493   6.578
 3104POPC   C3A42173  21.836  11.327   6.990
 3104POPC   C4A42174  22.273  11.438   7.141
 3104POPC   C1B42175  22.420  11.170   6.238
 3104POPC   C2B42176  22.616  10.923   6.562
 3104POPC   C3B42177  22.609  11.020   7.011
 3104POPC   C4B42178  22.300  10.960   7.328
 3105POPC   NC342179   1.372  41.393   5.369
 3105POPC   PO442180   1.314  42.027   5.444
 3105POPC   GL142181   1.331  41.743   5.853
 3105POPC   GL242182   1.372  41.350   5.875
 3105POPC   C1A42183   1.288  41.883   6.321
 3105POPC   D2A42184   1.039  41.916   6.728
 3105POPC   C3A42185   1.247  41.658   7.068
 3105POPC   C4A42186   1.165  41.259   7.253
 3105POPC   C1B42187   1.607  41.490   6.219
 3105POPC   C2B42188   1.567  41.577   6.649
 3105POPC   C3B42189   1.648  41.349   7.023
 3105POPC   C4B42190   1.625  41.409   7.466
 3106POPC   NC342191  28.750   6.926   5.403
 3106POPC   PO442192  29.468   6.915   5.477
 3106POPC   GL142193  29.336   6.655   5.845
 3106POPC   GL242194  28.979   6.694   5.861
 3106POPC   C1A42195  29.253   6.466   6.261
 3106POPC   D2A42196  29.324   6.568   6.692
 3106POPC   C3A42197  29.036   6.393   7.014
 3106POPC   C4A42198  29.022   6.574   7.427
 3106POPC   C1B42199  29.173   6.974   6.196
 3106POPC   C2B42200  29.050   7.090   6.600
 3106POPC   C3B42201  28.939   6.896   6.952
 3106POPC   C4B42202  29.333   6.861   7.114
 3107POPC   NC342203  19.311  28.613   5.366
 3107POPC   PO442204  18.681  28.754   5.391
 3107POPC   GL142205  18.957  28.612   5.746
 3107POPC   GL242206  19.090  28.268   5.802
 3107POPC   C1A42207  19.095  28.621   6.191
 3107POPC   D2A42208  19.008  28.376   6.584
 3107POPC   C3A42209  19.037  28.552   7.033
 3107POPC   C4A42210  19.216  28.708   7.425
 3107POPC   C1B42211  19.295  28.108   6.206
 3107POPC   C2B42212  19.492  27.789   6.521
 3107POPC   C3B42213  19.479  27.826   6.993
 3107POPC   C4B42214  19.489  28.147   7.381
 3108POPC   NC342215  38.230  11.545   4.988
 3108POPC   PO442216  38.565  11.207   5.498
 3108POPC   GL142217  38.315  11.396   5.845
 3108POPC   GL242218  38.616  11.357   5.990
 3108POPC   C1A42219  38.297  11.565   6.303
 3108POPC   D2A42220  38.483  11.340   6.696
 3108POPC   C3A42221  38.360  11.279   7.161
 3108POPC   C4A42222  38.078  11.210   7.579
 3108POPC   C1B42223  38.840  10.962   6.044
 3108POPC   C2B42224  38.927  10.877   6.464
 3108POPC   C3B42225  38.847  11.026   6.859
 3108POPC   C4B42226  38.867  10.985   7.298
 3109POPC   NC342227  34.682  16.084   5.384
 3109POPC   PO442228  34.634  15.373   5.387
 3109POPC   GL142229  34.734  15.683   5.704
 3109POPC   GL242230  34.402  15.803   5.794
 3109POPC   C1A42231  34.806  15.879   6.120
 3109POPC   D2A42232  34.651  15.864   6.520
 3109POPC   C3A42233  34.893  15.936   6.879
 3109POPC   C4A42234  34.722  15.941   7.233
 3109POPC   C1B42235  34.256  16.034   6.175
 3109POPC   C2B42236  34.318  16.226   6.598
 3109POPC   C3B42237  34.268  16.018   6.992
 3109POPC   C4B42238  34.275  16.129   7.429
 3110POPC   NC342239   2.987   5.046   5.448
 3110POPC   PO442240   2.379   4.767   5.557
 3110POPC   GL142241   2.601   5.121   5.815
 3110POPC   GL242242   2.956   5.080   5.951
 3110POPC   C1A42243   2.617   5.232   6.277
 3110POPC   D2A42244   2.967   5.019   6.496
 3110POPC   C3A42245   2.846   4.835   6.876
 3110POPC   C4A42246   2.534   5.041   7.111
 3110POPC   C1B42247   3.011   5.503   6.107
 3110POPC   C2B42248   2.913   5.587   6.545
 3110POPC   C3B42249   2.943   5.344   6.921
 3110POPC   C4B42250   3.023   5.092   7.303
 3111POPC   NC342251  19.253  22.705   5.390
 3111POPC   PO442252  18.648  22.667   5.643
 3111POPC   GL142253  19.058  22.683   5.859
 3111POPC   GL242254  19.245  22.998   5.822
 3111POPC   C1A42255  19.323  22.560   6.197
 3111POPC   D2A42256  19.079  22.540   6.560
 3111POPC   C3A42257  19.120  22.762   6.910
 3111POPC   C4A42258  18.764  22.945   7.084
 3111POPC   C1B42259  19.100  23.033   6.262
 3111POPC   C2B42260  19.194  23.216   6.666
 3111POPC   C3B42261  19.205  23.240   7.128
 3111POPC   C4B42262  19.405  23.256   7.546
 3112POPC   NC342263  31.031   5.610   5.324
 3112POPC   PO442264  30.394   5.553   5.229
 3112POPC   GL142265  30.637   5.685   5.652
 3112POPC   GL242266  30.467   5.976   5.771
 3112POPC   C1A42267  30.838   5.610   6.128
 3112POPC   D2A42268  30.876   5.403   6.593
 3112POPC   C3A42269  30.714   5.674   6.953
 3112POPC   C4A42270  30.358   5.873   7.194
 3112POPC   C1B42271  30.560   6.079   6.186
 3112POPC   C2B42272  30.551   6.051   6.630
 3112POPC   C3B42273  30.576   6.285   7.019
 3112POPC   C4B42274  30.557   6.226   7.494
 3113POPC   NC342275  37.960  12.762   5.464
 3113POPC   PO442276  38.628  12.739   5.395
 3113POPC   GL142277  38.379  12.676   5.767
 3113POPC   GL242278  38.259  13.013   5.851
 3113POPC   C1A42279  38.386  12.676   6.218
 3113POPC   D2A42280  38.389  12.873   6.627
 3113POPC   C3A42281  38.636  12.734   6.952
 3113POPC   C4A42282  38.251  12.659   7.132
 3113POPC   C1B42283  38.372  13.232   6.266
 3113POPC   C2B42284  38.420  13.374   6.721
 3113POPC   C3B42285  38.477  13.175   7.153
 3113POPC   C4B42286  38.656  13.329   7.598
 3114POPC   NC342287  39.624  23.341   5.418
 3114POPC   PO442288  40.326  23.346   5.421
 3114POPC   GL142289  40.039  23.580   5.734
 3114POPC   GL242290  39.817  23.889   5.779
 3114POPC   C1A42291  40.187  23.815   6.106
 3114POPC   D2A42292  40.069  23.746   6.496
 3114POPC   C3A42293  40.157  23.846   6.882
 3114POPC   C4A42294  40.287  23.591   7.162
 3114POPC   C1B42295  39.719  24.038   6.228
 3114POPC   C2B42296  39.654  23.967   6.699
 3114POPC   C3B42297  39.763  24.061   7.137
 3114POPC   C4B42298  39.852  24.213   7.582
 3115POPC   NC342299  30.193  11.153   5.404
 3115POPC   PO442300  29.560  11.505   5.515
 3115POPC   GL142301  29.857  11.374   5.773
 3115POPC   GL242302  30.159  11.594   5.766
 3115POPC   C1A42303  29.822  11.527   6.186
 3115POPC   D2A42304  29.771  11.722   6.578
 3115POPC   C3A42305  29.798  11.430   6.921
 3115POPC   C4A42306  30.120  11.433   7.195
 3115POPC   C1B42307  30.247  11.264   6.093
 3115POPC   C2B42308  30.063  11.221   6.526
 3115POPC   C3B42309  30.043  10.981   6.903
 3115POPC   C4B42310  30.146  10.639   7.161
 3116POPC   NC342311  28.968  28.125   5.314
 3116POPC   PO442312  29.472  28.588   5.542
 3116POPC   GL142313  29.193  28.358   5.776
 3116POPC   GL242314  29.276  28.045   5.724
 3116POPC   C1A42315  29.226  28.285   6.228
 3116POPC   D2A42316  29.039  28.395   6.632
 3116POPC   C3A42317  29.380  28.342   6.899
 3116POPC   C4A42318  29.595  28.283   7.242
 3116POPC   C1B42319  28.894  27.975   5.970
 3116POPC   C2B42320  28.862  27.966   6.437
 3116POPC   C3B42321  29.044  27.949   6.886
 3116POPC   C4B42322  28.983  28.121   7.306
 3117POPC   NC342323  20.392  20.528   5.430
 3117POPC   PO442324  21.135  20.404   5.391
 3117POPC   GL142325  20.838  20.590   5.745
 3117POPC   GL242326  20.507  20.655   5.936
 3117POPC   C1A42327  20.905  20.583   6.219
 3117POPC   D2A42328  20.650  20.711   6.576
 3117POPC   C3A42329  20.686  20.426   6.921
 3117POPC   C4A42330  20.728  20.171   7.284
 3117POPC   C1B42331  20.224  20.882   6.265
 3117POPC   C2B42332  20.279  21.085   6.686
 3117POPC   C3B42333  20.542  20.937   7.031
 3117POPC   C4B42334  20.451  20.632   7.340
 3118POPC   NC342335  31.178  26.076   5.424
 3118POPC   PO442336  31.791  25.734   5.374
 3118POPC   GL142337  31.559  25.973   5.745
 3118POPC   GL242338  31.744  26.248   5.875
 3118POPC   C1A42339  31.256  26.180   6.066
 3118POPC   D2A42340  31.079  26.221   6.488
 3118POPC   C3A42341  31.350  26.355   6.803
 3118POPC   C4A42342  31.219  26.215   7.190
 3118POPC   C1B42343  31.764  26.027   6.244
 3118POPC   C2B42344  31.434  25.846   6.447
 3118POPC   C3B42345  31.295  25.836   6.853
 3118POPC   C4B42346  31.642  25.960   7.115
 3119POPC   NC342347  31.752  11.184   5.414
 3119POPC   PO442348  31.473  11.814   5.405
 3119POPC   GL142349  31.540  11.537   5.789
 3119POPC   GL242350  31.405  11.193   5.800
 3119POPC   C1A42351  31.425  11.478   6.244
 3119POPC   D2A42352  31.564  11.204   6.570
 3119POPC   C3A42353  31.429  11.237   7.001
 3119POPC   C4A42354  31.552  11.424   7.397
 3119POPC   C1B42355  31.596  10.928   6.110
 3119POPC   C2B42356  31.764  10.743   6.479
 3119POPC   C3B42357  31.749  10.814   6.876
 3119POPC   C4B42358  31.715  10.902   7.275
 3120POPC   NC342359   9.684  22.030   5.413
 3120POPC   PO442360   9.744  22.725   5.541
 3120POPC   GL142361   9.662  22.370   5.793
 3120POPC   GL242362   9.993  22.192   5.831
 3120POPC   C1A42363   9.605  22.150   6.171
 3120POPC   D2A42364   9.780  22.089   6.570
 3120POPC   C3A42365   9.489  22.179   6.911
 3120POPC   C4A42366   9.623  22.262   7.302
 3120POPC   C1B42367  10.135  21.931   6.203
 3120POPC   C2B42368  10.294  22.018   6.638
 3120POPC   C3B42369  10.049  22.132   7.008
 3120POPC   C4B42370  10.041  22.026   7.430
 3121POPC   NC342371  38.679  10.770   5.432
 3121POPC   PO442372  38.316  10.250   5.545
 3121POPC   GL142373  38.448  10.527   5.840
 3121POPC   GL242374  38.356  10.880   5.863
 3121POPC   C1A42375  38.599  10.566   6.220
 3121POPC   D2A42376  38.377  10.563   6.597
 3121POPC   C3A42377  38.603  10.586   6.983
 3121POPC   C4A42378  38.794  10.454   7.365
 3121POPC   C1B42379  38.379  11.019   6.314
 3121POPC   C2B42380  38.125  10.979   6.732
 3121POPC   C3B42381  38.152  10.828   7.165
 3121POPC   C4B42382  38.432  10.864   7.511
 3122POPC   NC342383   2.098   4.646   5.223
 3122POPC   PO442384   1.679   4.079   5.366
 3122POPC   GL142385   1.676   4.089   5.828
 3122POPC   GL242386   1.918   4.388   5.861
 3122POPC   C1A42387   1.767   4.135   6.295
 3122POPC   D2A42388   2.174   4.101   6.572
 3122POPC   C3A42389   2.069   4.138   7.022
 3122POPC   C4A42390   1.661   3.993   7.183
 3122POPC   C1B42391   2.119   4.515   6.274
 3122POPC   C2B42392   1.890   4.489   6.689
 3122POPC   C3B42393   1.741   4.517   7.150
 3122POPC   C4B42394   1.782   4.765   7.570
 3123POPC   NC342395  41.540  33.325   5.558
 3123POPC   PO442396  41.243  32.784   5.378
 3123POPC   GL142397  41.323  32.850   5.879
 3123POPC   GL242398  41.682  32.947   5.979
 3123POPC   C1A42399  41.408  32.787   6.352
 3123POPC   D2A42400  41.787  33.024   6.512
 3123POPC   C3A42401  41.776  33.170   6.915
 3123POPC   C4A42402  41.633  33.097   7.324
 3123POPC   C1B42403  41.468  33.290   6.201
 3123POPC   C2B42404  41.306  33.220   6.594
 3123POPC   C3B42405  41.246  33.168   6.986
 3123POPC   C4B42406  41.159  33.271   7.388
 3124POPC   NC342407  31.743  16.404   5.533
 3124POPC   PO442408  32.198  15.917   5.409
 3124POPC   GL142409  32.195  16.095   5.781
 3124POPC   GL242410  31.872  15.955   5.832
 3124POPC   C1A42411  32.290  15.966   6.185
 3124POPC   D2A42412  32.188  16.123   6.579
 3124POPC   C3A42413  32.376  15.928   6.928
 3124POPC   C4A42414  32.426  16.032   7.340
 3124POPC   C1B42415  31.833  16.220   6.183
 3124POPC   C2B42416  31.676  16.246   6.592
 3124POPC   C3B42417  31.866  16.066   6.970
 3124POPC   C4B42418  31.943  16.210   7.353
 3125POPC   NC342419   3.741  17.812   5.401
 3125POPC   PO442420   3.418  17.217   5.550
 3125POPC   GL142421   3.591  17.532   5.815
 3125POPC   GL242422   3.485  17.908   5.864
 3125POPC   C1A42423   3.699  17.520   6.229
 3125POPC   D2A42424   3.555  17.737   6.561
 3125POPC   C3A42425   3.676  17.680   6.961
 3125POPC   C4A42426   3.423  17.395   7.165
 3125POPC   C1B42427   3.217  17.653   6.161
 3125POPC   C2B42428   3.059  17.486   6.541
 3125POPC   C3B42429   3.126  17.724   6.898
 3125POPC   C4B42430   3.333  17.901   7.274
 3126POPC   NC342431  27.792   9.232   5.258
 3126POPC   PO442432  27.500   8.627   5.437
 3126POPC   GL142433  27.704   8.913   5.686
 3126POPC   GL242434  27.747   8.677   5.934
 3126POPC   C1A42435  27.644   9.172   6.078
 3126POPC   D2A42436  27.378   9.202   6.479
 3126POPC   C3A42437  27.580   9.123   6.878
 3126POPC   C4A42438  27.652   8.990   7.327
 3126POPC   C1B42439  27.435   8.709   6.258
 3126POPC   C2B42440  27.645   8.664   6.642
 3126POPC   C3B42441  27.470   8.632   7.016
 3126POPC   C4B42442  27.100   8.686   7.268
 3127POPC   NC342443  35.293   1.248   5.082
 3127POPC   PO442444  35.640   1.164   5.591
 3127POPC   GL142445  35.563   1.229   5.987
 3127POPC   GL242446  35.703   1.525   6.006
 3127POPC   C1A42447  35.389   1.045   6.377
 3127POPC   D2A42448  35.599   0.957   6.765
 3127POPC   C3A42449  35.287   1.109   7.086
 3127POPC   C4A42450  34.866   0.933   7.083
 3127POPC   C1B42451  35.750   1.392   6.419
 3127POPC   C2B42452  35.484   1.460   6.736
 3127POPC   C3B42453  35.724   1.369   7.060
 3127POPC   C4B42454  35.626   1.293   7.507
 3128POPC   NC342455  43.298  23.851   5.329
 3128POPC   PO442456  42.881  23.373   5.254
 3128POPC   GL142457  42.969  23.598   5.665
 3128POPC   GL242458  43.339  23.584   5.776
 3128POPC   C1A42459  42.999  23.774   6.091
 3128POPC   D2A42460  43.205  23.633   6.456
 3128POPC   C3A42461  43.315  23.964   6.740
 3128POPC   C4A42462  43.207  23.827   7.150
 3128POPC   C1B42463  43.517  23.276   6.067
 3128POPC   C2B42464  43.424  23.113   6.490
 3128POPC   C3B42465  43.315  23.290   6.885
 3128POPC   C4B42466  43.503  23.394   7.281
 3129POPC   NC342467   3.671  37.914   5.415
 3129POPC   PO442468   3.771  37.323   5.545
 3129POPC   GL142469   3.638  37.608   5.859
 3129POPC   GL242470   3.776  37.956   5.912
 3129POPC   C1A42471   3.563  37.592   6.303
 3129POPC   D2A42472   3.411  37.578   6.701
 3129POPC   C3A42473   3.764  37.523   6.904
 3129POPC   C4A42474   3.849  37.649   7.291
 3129POPC   C1B42475   3.319  37.961   6.075
 3129POPC   C2B42476   3.258  38.069   6.536
 3129POPC   C3B42477   3.265  37.994   6.994
 3129POPC   C4B42478   3.430  37.910   7.402
 3130POPC   NC342479  43.367  33.078   5.371
 3130POPC   PO442480  42.669  33.239   5.400
 3130POPC   GL142481  42.959  33.066   5.707
 3130POPC   GL242482  43.039  32.701   5.801
 3130POPC   C1A42483  43.251  33.119   6.053
 3130POPC   D2A42484  43.440  33.016   6.441
 3130POPC   C3A42485  43.255  33.207   6.797
 3130POPC   C4A42486  43.225  33.015   7.196
 3130POPC   C1B42487  43.091  32.664   6.286
 3130POPC   C2B42488  43.143  32.709   6.752
 3130POPC   C3B42489  42.880  32.641   7.152
 3130POPC   C4B42490  42.952  32.679   7.600
 3131POPC   NC342491  19.627  43.426   5.370
 3131POPC   PO442492  20.084  42.863   5.482
 3131POPC   GL142493  19.889  43.162   5.738
 3131POPC   GL242494  20.006  43.526   5.722
 3131POPC   C1A42495  19.798  43.076   6.167
 3131POPC   D2A42496  19.900  42.861   6.555
 3131POPC   C3A42497  20.056  43.050   6.946
 3131POPC   C4A42498  19.771  43.056   7.249
 3131POPC   C1B42499  20.061  43.507   6.177
 3131POPC   C2B42500  19.855  43.399   6.593
 3131POPC   C3B42501  19.839  43.537   7.034
 3131POPC   C4B42502  20.067  43.493   7.428
 3132POPC   NC342503  34.228  42.601   5.576
 3132POPC   PO442504  34.892  42.390   5.584
 3132POPC   GL142505  34.620  42.537   5.899
 3132POPC   GL242506  34.439  42.245   5.885
 3132POPC   C1A42507  34.441  42.483   6.329
 3132POPC   D2A42508  34.652  42.527   6.719
 3132POPC   C3A42509  34.688  42.191   7.033
 3132POPC   C4A42510  34.436  42.457   7.224
 3132POPC   C1B42511  34.130  42.088   6.185
 3132POPC   C2B42512  33.979  42.258   6.542
 3132POPC   C3B42513  34.034  42.204   6.968
 3132POPC   C4B42514  33.990  42.294   7.401
 3133POPC   NC342515   8.113  28.243   5.398
 3133POPC   PO442516   8.431  28.819   5.526
 3133POPC   GL142517   8.324  28.505   5.843
 3133POPC   GL242518   8.298  28.133   5.902
 3133POPC   C1A42519   8.203  28.534   6.280
 3133POPC   D2A42520   8.402  28.468   6.686
 3133POPC   C3A42521   8.171  28.540   7.065
 3133POPC   C4A42522   8.370  28.562   7.457
 3133POPC   C1B42523   8.415  28.062   6.349
 3133POPC   C2B42524   8.521  27.971   6.794
 3133POPC   C3B42525   8.410  28.108   7.214
 3133POPC   C4B42526   8.433  28.126   7.717
 3134POPC   NC342527  19.940  21.126   5.401
 3134POPC   PO442528  19.613  21.656   5.524
 3134POPC   GL142529  19.701  21.324   5.835
 3134POPC   GL242530  20.054  21.239   5.903
 3134POPC   C1A42531  19.718  21.253   6.281
 3134POPC   D2A42532  19.751  21.039   6.642
 3134POPC   C3A42533  19.855  21.361   6.901
 3134POPC   C4A42534  19.652  21.291   7.238
 3134POPC   C1B42535  20.208  21.449   6.295
 3134POPC   C2B42536  20.356  21.633   6.694
 3134POPC   C3B42537  20.330  21.423   7.102
 3134POPC   C4B42538  20.092  21.022   7.225
 3135POPC   NC342539  16.922   6.809   5.629
 3135POPC   PO442540  16.719   6.195   5.388
 3135POPC   GL142541  16.560   6.422   5.754
 3135POPC   GL242542  16.855   6.391   5.915
 3135POPC   C1A42543  16.510   6.663   6.180
 3135POPC   D2A42544  16.727   6.868   6.540
 3135POPC   C3A42545  16.616   6.726   6.917
 3135POPC   C4A42546  16.579   6.612   7.336
 3135POPC   C1B42547  17.058   6.553   6.299
 3135POPC   C2B42548  17.153   6.361   6.673
 3135POPC   C3B42549  17.052   6.494   7.065
 3135POPC   C4B42550  16.993   6.888   7.248
 3136POPC   NC342551  27.303   8.179   5.380
 3136POPC   PO442552  27.942   7.882   5.563
 3136POPC   GL142553  27.578   8.075   5.871
 3136POPC   GL242554  27.338   8.367   5.846
 3136POPC   C1A42555  27.687   8.266   6.268
 3136POPC   D2A42556  27.755   8.095   6.662
 3136POPC   C3A42557  27.833   8.272   7.060
 3136POPC   C4A42558  27.893   8.127   7.504
 3136POPC   C1B42559  27.192   8.199   6.224
 3136POPC   C2B42560  27.287   8.304   6.640
 3136POPC   C3B42561  27.344   8.126   7.036
 3136POPC   C4B42562  27.047   8.175   7.347
 3137POPC   NC342563  37.243  10.941   5.526
 3137POPC   PO442564  36.696  10.496   5.277
 3137POPC   GL142565  36.882  10.395   5.788
 3137POPC   GL242566  37.137  10.580   5.890
 3137POPC   C1A42567  36.754  10.509   6.247
 3137POPC   D2A42568  36.886  10.413   6.668
 3137POPC   C3A42569  36.710  10.591   7.050
 3137POPC   C4A42570  36.628  10.223   7.298
 3137POPC   C1B42571  37.211  10.741   6.287
 3137POPC   C2B42572  37.170  10.829   6.694
 3137POPC   C3B42573  37.226  10.557   7.036
 3137POPC   C4B42574  37.168  10.121   7.171
 3138POPC   NC342575  25.986  29.405   5.402
 3138POPC   PO442576  25.664  28.859   5.725
 3138POPC   GL142577  25.993  29.105   5.869
 3138POPC   GL242578  26.023  29.476   5.901
 3138POPC   C1A42579  26.132  29.173   6.309
 3138POPC   D2A42580  26.056  29.399   6.696
 3138POPC   C3A42581  26.100  29.087   7.037
 3138POPC   C4A42582  26.257  28.971   7.452
 3138POPC   C1B42583  25.683  29.388   6.192
 3138POPC   C2B42584  25.556  29.501   6.605
 3138POPC   C3B42585  25.653  29.379   7.020
 3138POPC   C4B42586  26.033  29.573   7.189
 3139POPC   NC342587  42.862   3.493   5.493
 3139POPC   PO442588  43.449   3.700   5.399
 3139POPC   GL142589  43.266   3.784   5.786
 3139POPC   GL242590  42.922   3.897   5.779
 3139POPC   C1A42591  43.347   3.686   6.208
 3139POPC   D2A42592  43.091   3.429   6.454
 3139POPC   C3A42593  43.191   3.312   6.861
 3139POPC   C4A42594  43.051   3.392   7.263
 3139POPC   C1B42595  42.893   3.909   6.250
 3139POPC   C2B42596  43.174   3.903   6.653
 3139POPC   C3B42597  43.340   3.778   7.072
 3139POPC   C4B42598  43.056   3.869   7.428
 3140POPC   NC342599  26.497  34.124   5.479
 3140POPC   PO442600  26.921  33.590   5.360
 3140POPC   GL142601  26.806  33.792   5.715
 3140POPC   GL242602  26.501  33.619   5.745
 3140POPC   C1A42603  26.788  34.069   6.080
 3140POPC   D2A42604  27.026  34.117   6.448
 3140POPC   C3A42605  26.900  34.001   6.861
 3140POPC   C4A42606  27.121  34.100   7.226
 3140POPC   C1B42607  26.709  33.556   6.159
 3140POPC   C2B42608  26.925  33.586   6.542
 3140POPC   C3B42609  26.761  33.506   6.947
 3140POPC   C4B42610  26.680  33.802   7.292
 3141POPC   NC342611  32.798  29.907   5.405
 3141POPC   PO442612  33.452  30.031   5.593
 3141POPC   GL142613  33.092  29.821   5.828
 3141POPC   GL242614  32.750  29.616   5.830
 3141POPC   C1A42615  32.908  30.084   6.131
 3141POPC   D2A42616  33.072  30.233   6.534
 3141POPC   C3A42617  32.942  30.082   6.941
 3141POPC   C4A42618  33.155  29.840   7.253
 3141POPC   C1B42619  32.818  29.610   6.287
 3141POPC   C2B42620  32.847  29.643   6.732
 3141POPC   C3B42621  32.700  29.627   7.170
 3141POPC   C4B42622  32.834  29.588   7.588
 3142POPC   NC342623  31.042  38.421   5.510
 3142POPC   PO442624  31.730  38.421   5.421
 3142POPC   GL142625  31.603  38.506   5.798
 3142POPC   GL242626  31.385  38.730   5.707
 3142POPC   C1A42627  31.763  38.550   6.201
 3142POPC   D2A42628  31.579  38.436   6.595
 3142POPC   C3A42629  31.743  38.335   6.990
 3142POPC   C4A42630  31.516  38.453   7.328
 3142POPC   C1B42631  31.263  38.731   6.140
 3142POPC   C2B42632  31.260  38.864   6.563
 3142POPC   C3B42633  31.142  38.795   6.984
 3142POPC   C4B42634  31.325  38.914   7.348
 3143POPC   NC342635   2.806  13.104   5.535
 3143POPC   PO442636   2.437  13.630   5.502
 3143POPC   GL142637   2.753  13.540   5.833
 3143POPC   GL242638   3.010  13.240   5.963
 3143POPC   C1A42639   2.903  13.678   6.216
 3143POPC   D2A42640   2.915  13.974   6.523
 3143POPC   C3A42641   2.794  13.887   6.891
 3143POPC   C4A42642   2.811  14.075   7.255
 3143POPC   C1B42643   2.602  13.230   6.208
 3143POPC   C2B42644   2.601  13.474   6.597
 3143POPC   C3B42645   2.887  13.395   6.920
 3143POPC   C4B42646   2.868  13.231   7.328
 3144POPC   NC342647  23.983  15.289   5.455
 3144POPC   PO442648  23.376  15.007   5.467
 3144POPC   GL142649  23.671  15.143   5.801
 3144POPC   GL242650  23.742  15.517   5.857
 3144POPC   C1A42651  23.934  15.159   6.172
 3144POPC   D2A42652  23.665  15.166   6.524
 3144POPC   C3A42653  23.822  15.104   6.893
 3144POPC   C4A42654  23.722  15.007   7.285
 3144POPC   C1B42655  23.720  15.629   6.308
 3144POPC   C2B42656  23.722  15.620   6.771
 3144POPC   C3B42657  23.558  15.491   7.160
 3144POPC   C4B42658  23.611  15.397   7.601
 3145POPC   NC342659  29.405  30.607   5.398
 3145POPC   PO442660  28.772  31.011   5.189
 3145POPC   GL142661  28.884  31.005   5.671
 3145POPC   GL242662  29.239  30.930   5.782
 3145POPC   C1A42663  28.889  30.915   6.159
 3145POPC   D2A42664  28.937  30.534   6.472
 3145POPC   C3A42665  29.013  30.608   6.919
 3145POPC   C4A42666  28.972  31.006   7.136
 3145POPC   C1B42667  29.327  30.614   6.122
 3145POPC   C2B42668  29.451  30.612   6.579
 3145POPC   C3B42669  29.538  30.515   7.022
 3145POPC   C4B42670  29.440  30.281   7.418
 3146POPC   NC342671   4.894  34.733   5.484
 3146POPC   PO442672   5.543  34.551   5.432
 3146POPC   GL142673   5.378  34.347   5.823
 3146POPC   GL242674   5.009  34.221   5.758
 3146POPC   C1A42675   5.323  34.517   6.253
 3146POPC   D2A42676   5.407  34.785   6.640
 3146POPC   C3A42677   5.208  34.654   7.024
 3146POPC   C4A42678   5.099  34.696   7.452
 3146POPC   C1B42679   4.823  34.352   6.183
 3146POPC   C2B42680   4.939  34.437   6.621
 3146POPC   C3B42681   4.789  34.285   7.042
 3146POPC   C4B42682   4.843  34.277   7.517
 3147POPC   NC342683   0.797  21.481   5.492
 3147POPC   PO442684   0.114  21.749   5.569
 3147POPC   GL142685   0.370  21.424   5.875
 3147POPC   GL242686   0.735  21.282   5.953
 3147POPC   C1A42687   0.242  21.140   6.144
 3147POPC   D2A42688   0.031  21.156   6.529
 3147POPC   C3A42689   0.273  21.454   6.782
 3147POPC   C4A42690   0.252  21.394   7.220
 3147POPC   C1B42691   0.604  21.507   6.321
 3147POPC   C2B42692   0.646  21.857   6.594
 3147POPC   C3B42693   0.889  21.763   6.952
 3147POPC   C4B42694   0.791  21.428   7.280
 3148POPC   NC342695   0.921   6.015   5.408
 3148POPC   PO442696   1.524   5.696   5.320
 3148POPC   GL142697   1.290   5.695   5.731
 3148POPC   GL242698   1.279   6.031   5.850
 3148POPC   C1A42699   1.230   5.652   6.202
 3148POPC   D2A42700   1.412   5.879   6.585
 3148POPC   C3A42701   1.278   5.871   6.990
 3148POPC   C4A42702   1.191   5.944   7.407
 3148POPC   C1B42703   1.048   6.105   6.255
 3148POPC   C2B42704   0.903   5.915   6.629
 3148POPC   C3B42705   0.801   6.102   7.016
 3148POPC   C4B42706   0.812   6.280   7.439
 3149POPC   NC342707  25.490  12.074   5.456
 3149POPC   PO442708  24.885  11.868   5.303
 3149POPC   GL142709  25.038  12.009   5.715
 3149POPC   GL242710  25.123  12.387   5.699
 3149POPC   C1A42711  25.260  11.881   6.110
 3149POPC   D2A42712  25.266  12.033   6.523
 3149POPC   C3A42713  25.411  11.895   6.934
 3149POPC   C4A42714  25.302  12.009   7.340
 3149POPC   C1B42715  25.412  12.364   6.047
 3149POPC   C2B42716  25.602  12.389   6.406
 3149POPC   C3B42717  25.494  12.400   6.804
 3149POPC   C4B42718  25.706  12.295   7.143
 3150POPC   NC342719  42.963  42.589   5.500
 3150POPC   PO442720  43.290  41.966   5.615
 3150POPC   GL142721  43.011  42.186   5.878
 3150POPC   GL242722  43.088  42.527   5.971
 3150POPC   C1A42723  42.947  42.210   6.329
 3150POPC   D2A42724  42.990  42.442   6.694
 3150POPC   C3A42725  43.068  42.176   7.028
 3150POPC   C4A42726  43.184  42.253   7.432
 3150POPC   C1B42727  43.222  42.734   6.322
 3150POPC   C2B42728  43.446  42.700   6.691
 3150POPC   C3B42729  43.305  42.629   7.101
 3150POPC   C4B42730  43.297  42.766   7.518
 3151POPC   NC342731  30.408  34.546   5.347
 3151POPC   PO442732  31.022  34.812   5.450
 3151POPC   GL142733  30.712  34.700   5.743
 3151POPC   GL242734  30.736  34.349   5.763
 3151POPC   C1A42735  30.707  34.834   6.174
 3151POPC   D2A42736  30.932  34.836   6.560
 3151POPC   C3A42737  30.657  34.751   6.925
 3151POPC   C4A42738  30.565  34.846   7.318
 3151POPC   C1B42739  30.530  34.351   6.148
 3151POPC   C2B42740  30.627  34.413   6.552
 3151POPC   C3B42741  30.705  34.242   6.951
 3151POPC   C4B42742  30.696  34.351   7.397
 3152POPC   NC342743  20.950   9.095   5.452
 3152POPC   PO442744  20.325   8.840   5.364
 3152POPC   GL142745  20.498   9.056   5.702
 3152POPC   GL242746  20.700   8.775   5.755
 3152POPC   C1A42747  20.674   9.174   6.114
 3152POPC   D2A42748  20.577   9.035   6.541
 3152POPC   C3A42749  20.780   9.182   6.915
 3152POPC   C4A42750  20.572   9.085   7.306
 3152POPC   C1B42751  20.614   8.621   6.153
 3152POPC   C2B42752  20.832   8.590   6.535
 3152POPC   C3B42753  20.673   8.666   6.946
 3152POPC   C4B42754  20.344   8.616   7.239
 3153POPC   NC342755  14.331  42.556   5.048
 3153POPC   PO442756  14.017  42.076   5.523
 3153POPC   GL142757  14.257  42.421   5.873
 3153POPC   GL242758  14.631  42.483   5.829
 3153POPC   C1A42759  14.346  42.492   6.304
 3153POPC   D2A42760  14.271  42.214   6.668
 3153POPC   C3A42761  14.142  42.388   7.068
 3153POPC   C4A42762  14.438  42.247   7.375
 3153POPC   C1B42763  14.847  42.313   6.244
 3153POPC   C2B42764  14.759  42.380   6.712
 3153POPC   C3B42765  14.947  42.269   7.151
 3153POPC   C4B42766  14.987  42.545   7.531
 3154POPC   NC342767   6.482  28.302   5.455
 3154POPC   PO442768   6.105  28.906   5.566
 3154POPC   GL142769   6.341  28.589   5.860
 3154POPC   GL242770   6.387  28.179   5.921
 3154POPC   C1A42771   6.505  28.531   6.263
 3154POPC   D2A42772   6.413  28.667   6.637
 3154POPC   C3A42773   6.677  28.647   6.934
 3154POPC   C4A42774   6.704  28.406   7.270
 3154POPC   C1B42775   6.730  28.078   6.182
 3154POPC   C2B42776   6.712  28.213   6.620
 3154POPC   C3B42777   6.557  28.030   6.982
 3154POPC   C4B42778   6.841  27.896   7.306
 3155POPC   NC342779  18.731   6.082   5.479
 3155POPC   PO442780  19.316   6.391   5.640
 3155POPC   GL142781  19.106   6.061   5.867
 3155POPC   GL242782  19.282   5.742   5.851
 3155POPC   C1A42783  19.032   5.976   6.299
 3155POPC   D2A42784  18.980   6.189   6.684
 3155POPC   C3A42785  19.123   5.932   7.015
 3155POPC   C4A42786  18.834   5.642   7.168
 3155POPC   C1B42787  19.253   5.520   6.267
 3155POPC   C2B42788  19.103   5.565   6.667
 3155POPC   C3B42789  19.238   5.376   7.032
 3155POPC   C4B42790  19.448   5.648   7.301
 3156POPC   NC342791   0.261   0.343   5.372
 3156POPC   PO442792   0.854   0.072   5.615
 3156POPC   GL142793   0.578   0.406   5.820
 3156POPC   GL242794   0.256   0.623   5.808
 3156POPC   C1A42795   0.526   0.581   6.253
 3156POPC   D2A42796   0.766   0.704   6.629
 3156POPC   C3A42797   0.597   0.476   6.956
 3156POPC   C4A42798   0.462   0.610   7.309
 3156POPC   C1B42799   0.163   0.259   6.089
 3156POPC   C2B42800   0.069   0.278   6.538
 3156POPC   C3B42801   0.088   0.490   6.932
 3156POPC   C4B42802   0.221   0.175   7.229
 3157POPC   NC342803  24.158  42.605   5.567
 3157POPC   PO442804  24.784  42.517   5.664
 3157POPC   GL142805  24.544  42.474   5.996
 3157POPC   GL242806  24.479  42.124   5.952
 3157POPC   C1A42807  24.496  42.554   6.430
 3157POPC   D2A42808  24.383  42.337   6.805
 3157POPC   C3A42809  24.403  42.615   7.158
 3157POPC   C4A42810  24.732  42.667   7.458
 3157POPC   C1B42811  24.719  42.106   6.344
 3157POPC   C2B42812  24.899  42.294   6.717
 3157POPC   C3B42813  24.776  42.245   7.145
 3157POPC   C4B42814  24.362  42.100   7.283
 3158POPC   NC342815   9.667  17.984   5.303
 3158POPC   PO442816   9.636  18.601   5.393
 3158POPC   GL142817   9.671  18.318   5.782
 3158POPC   GL242818   9.770  17.944   5.799
 3158POPC   C1A42819   9.692  18.231   6.235
 3158POPC   D2A42820   9.901  18.344   6.615
 3158POPC   C3A42821   9.871  18.147   7.020
 3158POPC   C4A42822   9.811  18.373   7.433
 3158POPC   C1B42823   9.373  17.902   6.013
 3158POPC   C2B42824   9.215  17.999   6.457
 3158POPC   C3B42825   9.347  18.103   6.884
 3158POPC   C4B42826   9.462  18.027   7.318
 3159POPC   NC342827   3.812  35.748   5.337
 3159POPC   PO442828   4.452  35.786   5.412
 3159POPC   GL142829   4.296  36.120   5.769
 3159POPC   GL242830   4.042  36.428   5.827
 3159POPC   C1A42831   4.371  35.999   6.186
 3159POPC   D2A42832   4.432  35.696   6.509
 3159POPC   C3A42833   4.595  35.898   6.904
 3159POPC   C4A42834   4.432  36.092   7.294
 3159POPC   C1B42835   3.874  36.226   6.193
 3159POPC   C2B42836   3.961  35.965   6.533
 3159POPC   C3B42837   4.046  36.041   6.963
 3159POPC   C4B42838   3.987  36.420   7.178
 3160POPC   NC342839  17.176  42.810   5.602
 3160POPC   PO442840  17.589  43.275   5.396
 3160POPC   GL142841  17.725  43.131   5.846
 3160POPC   GL242842  17.757  42.763   5.906
 3160POPC   C1A42843  17.740  43.183   6.293
 3160POPC   D2A42844  17.534  43.024   6.693
 3160POPC   C3A42845  17.637  42.998   7.156
 3160POPC   C4A42846  17.673  43.025   7.623
 3160POPC   C1B42847  17.392  42.832   6.208
 3160POPC   C2B42848  17.096  42.736   6.554
 3160POPC   C3B42849  17.164  42.794   6.986
 3160POPC   C4B42850  17.226  42.830   7.437
 3161POPC   NC342851  13.693  20.731   5.218
 3161POPC   PO442852  13.309  20.136   5.325
 3161POPC   GL142853  13.419  20.466   5.664
 3161POPC   GL242854  13.731  20.683   5.730
 3161POPC   C1A42855  13.417  20.540   6.132
 3161POPC   D2A42856  13.662  20.454   6.548
 3161POPC   C3A42857  13.579  20.688   6.931
 3161POPC   C4A42858  13.485  20.786   7.362
 3161POPC   C1B42859  13.896  20.708   6.162
 3161POPC   C2B42860  13.974  20.894   6.548
 3161POPC   C3B42861  14.085  20.796   6.934
 3161POPC   C4B42862  14.003  20.862   7.350
 3162POPC   NC342863  24.770  17.114   5.449
 3162POPC   PO442864  25.083  17.761   5.303
 3162POPC   GL142865  25.194  17.667   5.731
 3162POPC   GL242866  25.540  17.774   5.738
 3162POPC   C1A42867  25.088  17.578   6.139
 3162POPC   D2A42868  25.036  17.435   6.551
 3162POPC   C3A42869  25.181  17.507   6.981
 3162POPC   C4A42870  25.032  17.502   7.425
 3162POPC   C1B42871  25.554  17.960   6.136
 3162POPC   C2B42872  25.347  17.866   6.490
 3162POPC   C3B42873  25.369  17.982   6.907
 3162POPC   C4B42874  25.323  17.900   7.329
 3163POPC   NC342875  36.469  30.111   5.579
 3163POPC   PO442876  35.754  29.974   5.522
 3163POPC   GL142877  35.987  29.903   5.869
 3163POPC   GL242878  36.273  29.718   5.855
 3163POPC   C1A42879  35.895  30.079   6.258
 3163POPC   D2A42880  35.934  30.293   6.629
 3163POPC   C3A42881  36.006  30.129   7.004
 3163POPC   C4A42882  36.333  30.197   7.271
 3163POPC   C1B42883  36.321  29.800   6.260
 3163POPC   C2B42884  36.152  29.818   6.629
 3163POPC   C3B42885  36.321  29.741   6.989
 3163POPC   C4B42886  36.318  29.573   7.383
 3164POPC   NC342887  42.561  44.731   5.061
 3164POPC   PO442888  41.939  44.788   5.421
 3164POPC   GL142889  42.206  44.547   5.721
 3164POPC   GL242890  42.566  44.663   5.705
 3164POPC   C1A42891  42.220  44.647   6.187
 3164POPC   D2A42892  42.392   0.007   6.458
 3164POPC   C3A42893  42.244   0.093   6.897
 3164POPC   C4A42894  42.228  44.773   7.237
 3164POPC   C1B42895  42.725  44.649   6.141
 3164POPC   C2B42896  42.601  44.492   6.568
 3164POPC   C3B42897  42.419  44.337   6.970
 3164POPC   C4B42898  42.543  44.395   7.387
 3165POPC   NC342899  13.348  14.868   5.547
 3165POPC   PO442900  13.669  15.450   5.402
 3165POPC   GL142901  13.437  15.382   5.791
 3165POPC   GL242902  13.652  15.109   5.892
 3165POPC   C1A42903  13.360  15.343   6.254
 3165POPC   D2A42904  13.576  15.268   6.641
 3165POPC   C3A42905  13.413  14.908   6.822
 3165POPC   C4A42906  13.243  14.940   7.204
 3165POPC   C1B42907  13.595  14.869   6.276
 3165POPC   C2B42908  13.878  14.808   6.600
 3165POPC   C3B42909  13.895  14.994   6.988
 3165POPC   C4B42910  13.730  15.023   7.412
 3166POPC   NC342911  22.824  10.277   5.472
 3166POPC   PO442912  22.792  10.952   5.355
 3166POPC   GL142913  22.746  10.709   5.764
 3166POPC   GL242914  23.095  10.580   5.802
 3166POPC   C1A42915  22.799  10.510   6.194
 3166POPC   D2A42916  23.064  10.575   6.517
 3166POPC   C3A42917  22.854  10.600   6.858
 3166POPC   C4A42918  22.838  10.600   7.279
 3166POPC   C1B42919  23.235  10.244   6.130
 3166POPC   C2B42920  23.324  10.095   6.574
 3166POPC   C3B42921  23.159  10.233   6.984
 3166POPC   C4B42922  23.189  10.201   7.431
 3167POPC   NC342923   6.432  16.394   5.447
 3167POPC   PO442924   6.742  16.930   5.262
 3167POPC   GL142925   6.603  16.813   5.704
 3167POPC   GL242926   6.754  16.492   5.823
 3167POPC   C1A42927   6.461  16.769   6.159
 3167POPC   D2A42928   6.707  16.872   6.542
 3167POPC   C3A42929   6.565  16.776   6.965
 3167POPC   C4A42930   6.516  16.672   7.390
 3167POPC   C1B42931   6.754  16.357   6.252
 3167POPC   C2B42932   6.671  16.363   6.695
 3167POPC   C3B42933   6.759  16.290   7.152
 3167POPC   C4B42934   6.865  16.349   7.596
 3168POPC   NC342935  15.789  17.926   5.413
 3168POPC   PO442936  15.675  17.322   5.632
 3168POPC   GL142937  15.646  17.738   5.858
 3168POPC   GL242938  15.990  17.744   5.991
 3168POPC   C1A42939  15.605  17.937   6.261
 3168POPC   D2A42940  15.828  17.843   6.643
 3168POPC   C3A42941  15.678  17.762   7.073
 3168POPC   C4A42942  15.726  17.582   7.506
 3168POPC   C1B42943  15.791  17.450   6.315
 3168POPC   C2B42944  15.701  17.332   6.762
 3168POPC   C3B42945  15.942  17.293   7.159
 3168POPC   C4B42946  16.230  17.528   7.464
 3169POPC   NC342947  17.050  31.339   5.493
 3169POPC   PO442948  17.655  31.114   5.397
 3169POPC   GL142949  17.555  31.352   5.791
 3169POPC   GL242950  17.278  31.548   5.900
 3169POPC   C1A42951  17.745  31.481   6.187
 3169POPC   D2A42952  17.868  31.725   6.549
 3169POPC   C3A42953  17.761  31.581   6.994
 3169POPC   C4A42954  17.578  31.458   7.394
 3169POPC   C1B42955  17.252  31.345   6.250
 3169POPC   C2B42956  17.409  31.478   6.640
 3169POPC   C3B42957  17.211  31.443   7.046
 3169POPC   C4B42958  17.073  31.319   7.497
 3170POPC   NC342959  38.698  24.656   5.395
 3170POPC   PO442960  38.015  24.410   5.520
 3170POPC   GL142961  38.375  24.598   5.818
 3170POPC   GL242962  38.713  24.473   5.903
 3170POPC   C1A42963  38.585  24.872   6.183
 3170POPC   D2A42964  38.668  25.069   6.576
 3170POPC   C3A42965  38.576  24.802   6.925
 3170POPC   C4A42966  38.805  24.560   7.175
 3170POPC   C1B42967  38.401  24.416   6.301
 3170POPC   C2B42968  38.145  24.194   6.609
 3170POPC   C3B42969  38.004  24.257   7.001
 3170POPC   C4B42970  38.295  24.413   7.308
 3171POPC   NC342971  32.831  38.487   5.319
 3171POPC   PO442972  33.461  38.353   5.237
 3171POPC   GL142973  33.211  38.453   5.664
 3171POPC   GL242974  32.841  38.419   5.818
 3171POPC   C1A42975  33.229  38.463   6.132
 3171POPC   D2A42976  33.050  38.291   6.511
 3171POPC   C3A42977  33.277  38.420   6.899
 3171POPC   C4A42978  33.172  38.698   7.223
 3171POPC   C1B42979  32.591  38.213   6.157
 3171POPC   C2B42980  32.600  38.026   6.591
 3171POPC   C3B42981  32.743  38.256   6.972
 3171POPC   C4B42982  32.565  38.319   7.399
 3172POPC   NC342983  42.433  25.549   5.351
 3172POPC   PO442984  42.134  26.200   5.375
 3172POPC   GL142985  42.298  25.986   5.712
 3172POPC   GL242986  42.018  25.746   5.704
 3172POPC   C1A42987  42.387  26.150   6.140
 3172POPC   D2A42988  42.252  26.062   6.562
 3172POPC   C3A42989  42.545  25.994   6.899
 3172POPC   C4A42990  42.459  26.177   7.285
 3172POPC   C1B42991  41.895  25.953   6.077
 3172POPC   C2B42992  41.801  25.841   6.506
 3172POPC   C3B42993  42.011  25.754   6.904
 3172POPC   C4B42994  42.302  25.689   7.283
 3173POPC   NC342995  27.357  35.407   5.323
 3173POPC   PO442996  27.903  34.974   5.211
 3173POPC   GL142997  27.836  35.117   5.700
 3173POPC   GL242998  27.695  35.426   5.738
 3173POPC   C1A42999  27.818  35.181   6.186
 3173POPC   D2A43000  27.570  35.208   6.600
 3173POPC   C3A43001  27.812  35.293   6.993
 3173POPC   C4A43002  27.671  35.568   7.291
 3173POPC   C1B43003  27.404  35.472   6.070
 3173POPC   C2B43004  27.401  35.701   6.482
 3173POPC   C3B43005  27.335  35.575   6.914
 3173POPC   C4B43006  27.129  35.602   7.302
 3174POPC   NC343007  28.983  33.237   5.286
 3174POPC   PO443008  29.283  32.684   5.517
 3174POPC   GL143009  29.094  32.912   5.829
 3174POPC   GL243010  28.767  32.987   5.732
 3174POPC   C1A43011  29.224  32.986   6.254
 3174POPC   D2A43012  29.102  33.147   6.649
 3174POPC   C3A43013  29.233  32.898   6.993
 3174POPC   C4A43014  29.507  33.119   7.258
 3174POPC   C1B43015  28.812  33.260   6.126
 3174POPC   C2B43016  28.818  33.530   6.487
 3174POPC   C3B43017  28.813  33.509   6.926
 3174POPC   C4B43018  28.999  33.287   7.292
 3175POPC   NC343019  39.521  10.313   5.560
 3175POPC   PO443020  39.097  10.772   5.203
 3175POPC   GL143021  39.159  10.712   5.677
 3175POPC   GL243022  38.938  10.421   5.716
 3175POPC   C1A43023  39.329  10.807   6.139
 3175POPC   D2A43024  39.370  10.630   6.595
 3175POPC   C3A43025  39.295  10.833   7.012
 3175POPC   C4A43026  39.291  10.786   7.478
 3175POPC   C1B43027  39.074  10.357   6.145
 3175POPC   C2B43028  38.919  10.370   6.563
 3175POPC   C3B43029  38.961  10.187   6.957
 3175POPC   C4B43030  39.276  10.287   7.229
 3176POPC   NC343031  26.309   8.287   5.394
 3176POPC   PO443032  25.741   8.081   5.202
 3176POPC   GL143033  25.921   8.111   5.675
 3176POPC   GL243034  26.191   7.914   5.737
 3176POPC   C1A43035  25.795   8.057   6.135
 3176POPC   D2A43036  25.859   8.315   6.442
 3176POPC   C3A43037  25.773   8.183   6.834
 3176POPC   C4A43038  25.800   8.356   7.218
 3176POPC   C1B43039  26.245   8.273   6.075
 3176POPC   C2B43040  26.422   8.379   6.517
 3176POPC   C3B43041  26.284   8.276   6.963
 3176POPC   C4B43042  26.209   8.081   7.408
 3177POPC   NC343043  37.308   1.291   5.265
 3177POPC   PO443044  37.925   1.307   5.554
 3177POPC   GL143045  37.557   1.377   5.701
 3177POPC   GL243046  37.417   1.066   5.738
 3177POPC   C1A43047  37.558   1.505   6.090
 3177POPC   D2A43048  37.952   1.453   6.315
 3177POPC   C3A43049  37.927   1.622   6.727
 3177POPC   C4A43050  37.814   1.511   7.142
 3177POPC   C1B43051  37.644   0.997   6.147
 3177POPC   C2B43052  37.627   1.181   6.587
 3177POPC   C3B43053  37.763   1.021   7.000
 3177POPC   C4B43054  37.465   1.126   7.349
 3178POPC   NC343055  35.178  25.517   5.252
 3178POPC   PO443056  35.512  25.013   5.356
 3178POPC   GL143057  35.350  25.284   5.733
 3178POPC   GL243058  35.121  25.597   5.760
 3178POPC   C1A43059  35.446  25.344   6.187
 3178POPC   D2A43060  35.674  25.352   6.584
 3178POPC   C3A43061  35.535  25.462   6.978
 3178POPC   C4A43062  35.263  25.318   7.257
 3178POPC   C1B43063  34.999  25.559   6.195
 3178POPC   C2B43064  35.166  25.574   6.626
 3178POPC   C3B43065  34.954  25.660   7.002
 3178POPC   C4B43066  34.851  25.555   7.415
 3179POPC   NC343067  25.105  30.943   5.461
 3179POPC   PO443068  24.884  30.374   5.185
 3179POPC   GL143069  25.050  30.506   5.692
 3179POPC   GL243070  25.419  30.727   5.782
 3179POPC   C1A43071  25.128  30.657   6.171
 3179POPC   D2A43072  25.287  30.517   6.578
 3179POPC   C3A43073  25.240  30.641   7.044
 3179POPC   C4A43074  25.107  31.047   7.167
 3179POPC   C1B43075  25.322  31.099   6.037
 3179POPC   C2B43076  25.274  31.076   6.463
 3179POPC   C3B43077  25.571  30.935   6.759
 3179POPC   C4B43078  25.642  31.107   7.141
 3180POPC   NC343079   9.415  35.946   5.328
 3180POPC   PO443080   9.900  36.415   5.162
 3180POPC   GL143081   9.774  36.343   5.623
 3180POPC   GL243082   9.681  36.022   5.762
 3180POPC   C1A43083   9.702  36.400   6.098
 3180POPC   D2A43084   9.745  36.458   6.557
 3180POPC   C3A43085   9.518  36.215   6.853
 3180POPC   C4A43086   9.614  36.085   7.258
 3180POPC   C1B43087   9.843  35.925   6.198
 3180POPC   C2B43088   9.924  35.983   6.606
 3180POPC   C3B43089   9.814  35.766   6.937
 3180POPC   C4B43090   9.752  35.402   7.200
 3181POPC   NC343091   5.682  34.118   5.452
 3181POPC   PO443092   5.958  33.559   5.411
 3181POPC   GL143093   5.807  33.689   5.768
 3181POPC   GL243094   6.020  33.952   5.830
 3181POPC   C1A43095   5.669  33.836   6.184
 3181POPC   D2A43096   5.877  33.775   6.552
 3181POPC   C3A43097   5.735  33.907   6.953
 3181POPC   C4A43098   5.450  33.716   7.158
 3181POPC   C1B43099   6.183  33.607   6.125
 3181POPC   C2B43100   6.308  33.517   6.577
 3181POPC   C3B43101   6.238  33.821   6.918
 3181POPC   C4B43102   6.127  34.205   7.165
 3182POPC   NC343103  42.224  36.170   5.399
 3182POPC   PO443104  42.780  36.021   5.437
 3182POPC   GL143105  42.556  36.297   5.777
 3182POPC   GL243106  42.447  36.013   5.857
 3182POPC   C1A43107  42.453  36.366   6.251
 3182POPC   D2A43108  42.500  36.074   6.623
 3182POPC   C3A43109  42.508  36.211   7.072
 3182POPC   C4A43110  42.317  36.109   7.474
 3182POPC   C1B43111  42.111  35.973   6.131
 3182POPC   C2B43112  42.083  35.780   6.541
 3182POPC   C3B43113  42.106  35.901   6.960
 3182POPC   C4B43114  42.144  35.663   7.298
 3183POPC   NC343115  12.378  44.945   5.375
 3183POPC   PO443116  11.752  44.593   5.507
 3183POPC   GL143117  12.117  44.700   5.797
 3183POPC   GL243118  12.139  44.382   5.993
 3183POPC   C1A43119  12.270  44.829   6.223
 3183POPC   D2A43120  12.290  44.986   6.659
 3183POPC   C3A43121  12.288  44.657   6.972
 3183POPC   C4A43122  12.235  44.731   7.404
 3183POPC   C1B43123  11.792  44.608   6.210
 3183POPC   C2B43124  11.800  44.831   6.614
 3183POPC   C3B43125  11.799  44.792   7.077
 3183POPC   C4B43126  11.803  44.495   7.454
 3184POPC   NC343127  26.972  11.683   5.691
 3184POPC   PO443128  26.985  11.049   5.506
 3184POPC   GL143129  27.172  11.181   5.892
 3184POPC   GL243130  27.251  11.521   6.086
 3184POPC   C1A43131  26.989  11.097   6.287
 3184POPC   D2A43132  26.736  11.139   6.655
 3184POPC   C3A43133  26.814  11.384   7.024
 3184POPC   C4A43134  26.563  11.253   7.393
 3184POPC   C1B43135  26.937  11.618   6.440
 3184POPC   C2B43136  26.518  11.629   6.676
 3184POPC   C3B43137  26.408  11.691   7.121
 3184POPC   C4B43138  26.725  11.724   7.465
 3185POPC   NC343139  41.101  34.821   5.392
 3185POPC   PO443140  41.703  34.430   5.491
 3185POPC   GL143141  41.363  34.538   5.751
 3185POPC   GL243142  41.518  34.772   5.901
 3185POPC   C1A43143  41.171  34.456   6.139
 3185POPC   D2A43144  41.276  34.687   6.482
 3185POPC   C3A43145  41.199  34.513   6.878
 3185POPC   C4A43146  41.476  34.485   7.205
 3185POPC   C1B43147  41.685  34.468   6.236
 3185POPC   C2B43148  41.715  34.548   6.697
 3185POPC   C3B43149  41.927  34.700   7.058
 3185POPC   C4B43150  41.980  34.541   7.487
 3186POPC   NC343151   6.681  10.851   5.616
 3186POPC   PO443152   6.850  10.131   5.418
 3186POPC   GL143153   6.552  10.348   5.708
 3186POPC   GL243154   6.813  10.443   5.915
 3186POPC   C1A43155   6.390  10.519   6.143
 3186POPC   D2A43156   6.583  10.645   6.553
 3186POPC   C3A43157   6.447  10.408   6.931
 3186POPC   C4A43158   6.231  10.507   7.299
 3186POPC   C1B43159   6.989  10.773   6.216
 3186POPC   C2B43160   7.050  10.880   6.659
 3186POPC   C3B43161   6.790  10.781   7.041
 3186POPC   C4B43162   6.833  10.426   7.279
 3187POPC   NC343163  13.860  24.781   5.512
 3187POPC   PO443164  13.889  24.116   5.504
 3187POPC   GL143165  13.582  24.310   5.788
 3187POPC   GL243166  13.398  24.636   5.753
 3187POPC   C1A43167  13.681  24.425   6.210
 3187POPC   D2A43168  13.557  24.181   6.572
 3187POPC   C3A43169  13.745  24.287   6.970
 3187POPC   C4A43170  13.552  24.325   7.418
 3187POPC   C1B43171  13.319  24.811   6.172
 3187POPC   C2B43172  13.392  24.662   6.583
 3187POPC   C3B43173  13.481  24.707   7.003
 3187POPC   C4B43174  13.158  24.876   7.155
 3188POPC   NC343175  32.892  13.232   5.508
 3188POPC   PO443176  32.850  13.807   5.256
 3188POPC   GL143177  33.100  13.726   5.666
 3188POPC   GL243178  33.351  13.463   5.637
 3188POPC   C1A43179  33.033  13.768   6.147
 3188POPC   D2A43180  33.120  13.925   6.595
 3188POPC   C3A43181  32.993  13.729   6.988
 3188POPC   C4A43182  32.978  13.992   7.366
 3188POPC   C1B43183  33.399  13.365   6.098
 3188POPC   C2B43184  33.374  13.478   6.567
 3188POPC   C3B43185  33.452  13.414   7.021
 3188POPC   C4B43186  33.331  13.646   7.408
 3189POPC   NC343187   6.160   0.992   5.497
 3189POPC   PO443188   6.840   1.033   5.404
 3189POPC   GL143189   6.682   0.887   5.788
 3189POPC   GL243190   6.500   1.210   5.817
 3189POPC   C1A43191   6.693   0.957   6.240
 3189POPC   D2A43192   6.882   1.287   6.504
 3189POPC   C3A43193   6.928   1.136   6.926
 3189POPC   C4A43194   6.907   1.276   7.407
 3189POPC   C1B43195   6.392   1.352   6.236
 3189POPC   C2B43196   6.416   1.177   6.673
 3189POPC   C3B43197   6.514   1.416   7.060
 3189POPC   C4B43198   6.434   1.401   7.517
 3190POPC   NC343199  44.341  29.121   5.350
 3190POPC   PO443200  43.602  29.185   5.241
 3190POPC   GL143201  43.713  29.238   5.719
 3190POPC   GL243202  44.029  29.214   5.832
 3190POPC   C1A43203  43.650  29.149   6.178
 3190POPC   D2A43204  43.818  28.878   6.469
 3190POPC   C3A43205  43.889  29.092   6.840
 3190POPC   C4A43206  43.875  29.035   7.277
 3190POPC   C1B43207  44.165  29.203   6.282
 3190POPC   C2B43208  44.330  29.324   6.717
 3190POPC   C3B43209  44.324  29.299   7.198
 3190POPC   C4B43210  44.153  29.337   7.628
 3191POPC   NC343211  39.566  44.462   5.365
 3191POPC   PO443212  38.999  44.804   5.440
 3191POPC   GL143213  39.257  44.679   5.733
 3191POPC   GL243214  39.244  44.303   5.726
 3191POPC   C1A43215  39.201  44.898   6.114
 3191POPC   D2A43216  39.048  44.770   6.500
 3191POPC   C3A43217  39.051  44.957   6.867
 3191POPC   C4A43218  39.115  44.875   7.292
 3191POPC   C1B43219  39.061  44.381   6.132
 3191POPC   C2B43220  39.026  44.266   6.567
 3191POPC   C3B43221  39.114  44.440   6.980
 3191POPC   C4B43222  39.117  44.391   7.433
 3192POPC   NC343223   0.719  17.643   5.525
 3192POPC   PO443224   0.079  17.705   5.386
 3192POPC   GL143225   0.274  17.617   5.791
 3192POPC   GL243226   0.121  17.301   5.790
 3192POPC   C1A43227   0.568  17.735   6.180
 3192POPC   D2A43228   0.719  17.770   6.634
 3192POPC   C3A43229   0.463  17.582   6.949
 3192POPC   C4A43230   0.420  17.443   7.389
 3192POPC   C1B43231   0.333  17.290   6.202
 3192POPC   C2B43232   0.152  17.386   6.600
 3192POPC   C3B43233   0.170  17.182   6.994
 3192POPC   C4B43234   0.517  16.962   7.151
 3193POPC   NC343235   4.311   7.257   5.467
 3193POPC   PO443236   4.079   7.901   5.424
 3193POPC   GL143237   4.267   7.704   5.761
 3193POPC   GL243238   4.607   7.607   5.725
 3193POPC   C1A43239   4.212   7.636   6.198
 3193POPC   D2A43240   4.397   7.652   6.614
 3193POPC   C3A43241   4.186   7.435   6.947
 3193POPC   C4A43242   4.133   7.512   7.383
 3193POPC   C1B43243   4.625   7.319   6.090
 3193POPC   C2B43244   4.695   7.133   6.497
 3193POPC   C3B43245   4.649   7.062   6.929
 3193POPC   C4B43246   4.584   7.308   7.269
 3194POPC   NC343247  13.944  44.642   5.442
 3194POPC   PO443248  13.267  44.423   5.491
 3194POPC   GL143249  13.538  44.621   5.827
 3194POPC   GL243250  13.475  44.941   5.848
 3194POPC   C1A43251  13.653  44.757   6.292
 3194POPC   D2A43252  13.555  44.495   6.653
 3194POPC   C3A43253  13.800  44.505   7.068
 3194POPC   C4A43254  13.915  44.850   7.375
 3194POPC   C1B43255  13.154  44.725   6.145
 3194POPC   C2B43256  13.090  44.729   6.575
 3194POPC   C3B43257  13.249  44.738   6.993
 3194POPC   C4B43258  13.347  44.436   7.312
 3195POPC   NC343259  37.700  33.312   5.259
 3195POPC   PO443260  37.641  32.615   5.362
 3195POPC   GL143261  37.810  32.918   5.691
 3195POPC   GL243262  37.542  33.142   5.720
 3195POPC   C1A43263  37.887  33.171   6.111
 3195POPC   D2A43264  37.898  33.012   6.551
 3195POPC   C3A43265  37.846  33.297   6.884
 3195POPC   C4A43266  37.753  33.177   7.295
 3195POPC   C1B43267  37.461  32.900   6.095
 3195POPC   C2B43268  37.371  33.019   6.521
 3195POPC   C3B43269  37.520  32.910   6.928
 3195POPC   C4B43270  37.399  32.768   7.311
 3196POPC   NC343271   7.375  19.320   5.332
 3196POPC   PO443272   7.307  18.667   5.500
 3196POPC   GL143273   7.318  18.896   5.854
 3196POPC   GL243274   7.446  19.213   5.827
 3196POPC   C1A43275   7.555  18.905   6.251
 3196POPC   D2A43276   7.551  19.032   6.678
 3196POPC   C3A43277   7.800  18.875   7.033
 3196POPC   C4A43278   7.632  19.106   7.366
 3196POPC   C1B43279   7.157  19.233   6.198
 3196POPC   C2B43280   7.067  19.238   6.621
 3196POPC   C3B43281   7.276  19.370   6.981
 3196POPC   C4B43282   7.227  19.379   7.409
 3197POPC   NC343283   9.904  25.502   5.557
 3197POPC   PO443284   9.389  25.107   5.344
 3197POPC   GL143285   9.401  25.044   5.763
 3197POPC   GL243286   9.661  25.212   5.900
 3197POPC   C1A43287   9.320  24.990   6.197
 3197POPC   D2A43288   9.597  25.089   6.521
 3197POPC   C3A43289   9.458  25.049   6.933
 3197POPC   C4A43290   9.716  25.320   7.170
 3197POPC   C1B43291   9.936  25.368   6.234
 3197POPC   C2B43292  10.188  25.610   6.516
 3197POPC   C3B43293  10.137  25.596   6.935
 3197POPC   C4B43294  10.212  25.386   7.267
 3198POPC   NC343295  32.726  39.385   5.550
 3198POPC   PO443296  33.375  39.087   5.528
 3198POPC   GL143297  33.116  38.927   5.875
 3198POPC   GL243298  32.751  38.926   5.834
 3198POPC   C1A43299  33.020  39.183   6.251
 3198POPC   D2A43300  32.774  39.444   6.535
 3198POPC   C3A43301  32.806  39.244   6.952
 3198POPC   C4A43302  33.194  39.201   7.193
 3198POPC   C1B43303  32.799  38.721   6.273
 3198POPC   C2B43304  32.881  38.735   6.747
 3198POPC   C3B43305  32.670  38.771   7.143
 3198POPC   C4B43306  32.798  39.055   7.467
 3199POPC   NC343307  31.649  27.044   5.502
 3199POPC   PO443308  31.329  26.497   5.256
 3199POPC   GL143309  31.392  26.575   5.743
 3199POPC   GL243310  31.338  26.908   5.891
 3199POPC   C1A43311  31.542  26.586   6.225
 3199POPC   D2A43312  31.550  26.877   6.615
 3199POPC   C3A43313  31.560  26.741   7.084
 3199POPC   C4A43314  31.610  26.435   7.440
 3199POPC   C1B43315  31.283  27.200   6.222
 3199POPC   C2B43316  31.438  27.393   6.593
 3199POPC   C3B43317  31.425  27.251   6.967
 3199POPC   C4B43318  31.370  27.127   7.371
 3200POPC   NC343319  44.313  19.246   5.536
 3200POPC   PO443320  43.731  18.905   5.433
 3200POPC   GL143321  43.705  19.121   5.792
 3200POPC   GL243322  44.021  18.985   5.875
 3200POPC   C1A43323  43.587  19.013   6.204
 3200POPC   D2A43324  43.842  19.059   6.555
 3200POPC   C3A43325  43.682  18.932   6.937
 3200POPC   C4A43326  43.818  18.628   7.230
 3200POPC   C1B43327  44.271  19.049   6.221
 3200POPC   C2B43328  44.304  19.306   6.581
 3200POPC   C3B43329  44.130  19.216   6.989
 3200POPC   C4B43330  44.287  19.271   7.436
 3201POPC   NC343331   8.625  23.127   5.378
 3201POPC   PO443332   8.043  22.841   5.182
 3201POPC   GL143333   8.089  22.974   5.627
 3201POPC   GL243334   8.013  23.307   5.720
 3201POPC   C1A43335   8.037  22.762   6.039
 3201POPC   D2A43336   8.051  22.818   6.485
 3201POPC   C3A43337   8.026  22.484   6.780
 3201POPC   C4A43338   8.179  22.603   7.160
 3201POPC   C1B43339   8.168  23.253   6.162
 3201POPC   C2B43340   8.234  23.468   6.562
 3201POPC   C3B43341   8.256  23.359   7.008
 3201POPC   C4B43342   8.537  23.374   7.343
 3202POPC   NC343343  18.377  32.596   5.412
 3202POPC   PO443344  17.929  32.076   5.377
 3202POPC   GL143345  18.237  32.182   5.698
 3202POPC   GL243346  17.970  32.177   5.902
 3202POPC   C1A43347  18.484  32.217   6.102
 3202POPC   D2A43348  18.530  32.519   6.445
 3202POPC   C3A43349  18.512  32.323   6.843
 3202POPC   C4A43350  18.400  32.360   7.242
 3202POPC   C1B43351  18.025  32.188   6.324
 3202POPC   C2B43352  18.054  32.419   6.647
 3202POPC   C3B43353  17.937  32.412   7.062
 3202POPC   C4B43354  17.968  32.280   7.494
 3203POPC   NC343355  10.025  37.714   5.492
 3203POPC   PO443356   9.356  37.820   5.469
 3203POPC   GL143357   9.506  37.542   5.785
 3203POPC   GL243358   9.752  37.278   5.667
 3203POPC   C1A43359   9.691  37.754   6.145
 3203POPC   D2A43360   9.800  37.967   6.514
 3203POPC   C3A43361   9.729  37.761   6.919
 3203POPC   C4A43362   9.903  37.816   7.314
 3203POPC   C1B43363   9.966  37.332   6.078
 3203POPC   C2B43364   9.847  37.421   6.511
 3203POPC   C3B43365   9.997  37.301   6.903
 3203POPC   C4B43366   9.844  37.300   7.305
 3204POPC   NC343367  36.755  11.541   5.461
 3204POPC   PO443368  36.804  10.908   5.688
 3204POPC   GL143369  36.987  11.090   5.974
 3204POPC   GL243370  37.126  11.376   5.805
 3204POPC   C1A43371  36.828  11.076   6.377
 3204POPC   D2A43372  36.981  11.315   6.678
 3204POPC   C3A43373  36.744  11.436   7.001
 3204POPC   C4A43374  36.724  11.078   7.299
 3204POPC   C1B43375  37.042  11.561   6.210
 3204POPC   C2B43376  37.137  11.782   6.583
 3204POPC   C3B43377  37.223  11.645   7.006
 3204POPC   C4B43378  37.058  11.463   7.391
 3205POPC   NC343379   8.168  30.811   5.315
 3205POPC   PO443380   8.116  30.347   5.737
 3205POPC   GL143381   8.212  30.762   5.872
 3205POPC   GL243382   8.449  31.031   5.708
 3205POPC   C1A43383   8.186  30.669   6.312
 3205POPC   D2A43384   8.199  30.421   6.698
 3205POPC   C3A43385   7.933  30.517   7.042
 3205POPC   C4A43386   7.877  30.394   7.464
 3205POPC   C1B43387   8.553  31.019   6.181
 3205POPC   C2B43388   8.552  30.829   6.637
 3205POPC   C3B43389   8.331  30.870   7.053
 3205POPC   C4B43390   8.199  30.766   7.506
 3206POPC   NC343391  42.014  29.968   5.106
 3206POPC   PO443392  42.684  29.980   5.316
 3206POPC   GL143393  42.497  29.990   5.805
 3206POPC   GL243394  42.527  29.641   5.801
 3206POPC   C1A43395  42.129  30.054   6.192
 3206POPC   D2A43396  42.074  30.264   6.601
 3206POPC   C3A43397  42.046  29.998   6.955
 3206POPC   C4A43398  42.187  29.949   7.359
 3206POPC   C1B43399  42.458  29.681   6.234
 3206POPC   C2B43400  42.441  29.877   6.620
 3206POPC   C3B43401  42.476  29.697   7.005
 3206POPC   C4B43402  42.708  29.765   7.335
 3207POPC   NC343403  27.920  11.597   5.462
 3207POPC   PO443404  27.823  12.250   5.288
 3207POPC   GL143405  27.876  12.390   5.694
 3207POPC   GL243406  27.762  12.056   5.816
 3207POPC   C1A43407  27.772  12.481   6.133
 3207POPC   D2A43408  27.690  12.124   6.410
 3207POPC   C3A43409  27.737  12.093   6.861
 3207POPC   C4A43410  27.953  12.318   7.200
 3207POPC   C1B43411  27.805  11.714   6.128
 3207POPC   C2B43412  27.571  11.629   6.490
 3207POPC   C3B43413  27.580  11.611   6.936
 3207POPC   C4B43414  27.195  11.715   7.122
 3208POPC   NC343415  35.817  44.181   5.438
 3208POPC   PO443416  35.154  44.169   5.324
 3208POPC   GL143417  35.422  43.990   5.708
 3208POPC   GL243418  35.590  43.623   5.691
 3208POPC   C1A43419  35.367  44.144   6.151
 3208POPC   D2A43420  35.058  43.981   6.437
 3208POPC   C3A43421  35.138  44.078   6.886
 3208POPC   C4A43422  35.074  43.902   7.317
 3208POPC   C1B43423  35.422  43.633   6.141
 3208POPC   C2B43424  35.521  43.824   6.565
 3208POPC   C3B43425  35.442  43.659   6.991
 3208POPC   C4B43426  35.496  43.645   7.435
 3209POPC   NC343427  29.302  38.642   5.439
 3209POPC   PO443428  28.888  38.148   5.373
 3209POPC   GL143429  29.082  38.203   5.810
 3209POPC   GL243430  29.420  38.302   5.937
 3209POPC   C1A43431  28.996  38.306   6.252
 3209POPC   D2A43432  29.241  38.250   6.628
 3209POPC   C3A43433  28.989  38.391   6.980
 3209POPC   C4A43434  28.846  38.458   7.421
 3209POPC   C1B43435  29.395  38.637   6.282
 3209POPC   C2B43436  29.284  38.754   6.747
 3209POPC   C3B43437  29.259  38.736   7.254
 3209POPC   C4B43438  29.287  38.544   7.683
 3210POPC   NC343439  35.609   4.185   5.596
 3210POPC   PO443440  36.287   3.924   5.516
 3210POPC   GL143441  36.119   4.198   5.825
 3210POPC   GL243442  36.068   4.529   5.734
 3210POPC   C1A43443  36.154   4.165   6.251
 3210POPC   D2A43444  36.259   3.927   6.592
 3210POPC   C3A43445  36.082   4.158   6.885
 3210POPC   C4A43446  36.192   4.192   7.291
 3210POPC   C1B43447  35.935   4.610   6.156
 3210POPC   C2B43448  36.133   4.588   6.569
 3210POPC   C3B43449  36.184   4.650   7.023
 3210POPC   C4B43450  35.892   4.845   7.340
 3211POPC   NC343451  26.287  21.648   5.520
 3211POPC   PO443452  26.076  20.952   5.342
 3211POPC   GL143453  26.206  21.208   5.729
 3211POPC   GL243454  25.870  21.327   5.787
 3211POPC   C1A43455  26.241  21.436   6.149
 3211POPC   D2A43456  26.392  21.640   6.537
 3211POPC   C3A43457  26.188  21.390   6.838
 3211POPC   C4A43458  26.088  21.307   7.243
 3211POPC   C1B43459  25.780  21.638   6.117
 3211POPC   C2B43460  25.888  21.746   6.557
 3211POPC   C3B43461  25.763  21.648   6.981
 3211POPC   C4B43462  25.902  21.769   7.372
 3212POPC   NC343463  43.418  39.128   5.441
 3212POPC   PO443464  42.849  39.551   5.474
 3212POPC   GL143465  43.180  39.518   5.806
 3212POPC   GL243466  43.170  39.167   5.925
 3212POPC   C1A43467  43.413  39.505   6.238
 3212POPC   D2A43468  43.388  39.171   6.611
 3212POPC   C3A43469  43.269  39.320   7.053
 3212POPC   C4A43470  43.213  39.476   7.500
 3212POPC   C1B43471  42.799  38.911   6.126
 3212POPC   C2B43472  42.623  38.877   6.545
 3212POPC   C3B43473  42.884  38.952   6.913
 3212POPC   C4B43474  42.915  38.757   7.293
 3213POPC   NC343475   9.207  14.842   5.512
 3213POPC   PO443476   9.698  15.336   5.399
 3213POPC   GL143477   9.875  15.252   5.783
 3213POPC   GL243478   9.579  15.047   5.834
 3213POPC   C1A43479  10.091  15.336   6.178
 3213POPC   D2A43480   9.886  15.375   6.552
 3213POPC   C3A43481  10.010  15.545   6.917
 3213POPC   C4A43482   9.891  15.285   7.279
 3213POPC   C1B43483   9.693  15.000   6.241
 3213POPC   C2B43484   9.597  14.956   6.681
 3213POPC   C3B43485   9.482  15.014   7.122
 3213POPC   C4B43486   9.587  15.038   7.600
 3214POPC   NC343487  12.223  21.507   5.493
 3214POPC   PO443488  11.605  21.148   5.486
 3214POPC   GL143489  11.779  21.319   5.811
 3214POPC   GL243490  11.786  21.616   5.798
 3214POPC   C1A43491  11.987  21.253   6.186
 3214POPC   D2A43492  12.307  21.215   6.489
 3214POPC   C3A43493  12.390  21.497   6.833
 3214POPC   C4A43494  12.421  21.355   7.291
 3214POPC   C1B43495  11.584  21.577   6.206
 3214POPC   C2B43496  11.735  21.643   6.614
 3214POPC   C3B43497  11.902  21.449   6.984
 3214POPC   C4B43498  12.093  21.753   7.187
 3215POPC   NC343499  12.407  25.469   5.434
 3215POPC   PO443500  11.835  25.185   5.366
 3215POPC   GL143501  12.007  25.063   5.784
 3215POPC   GL243502  12.357  25.195   5.860
 3215POPC   C1A43503  12.106  25.007   6.242
 3215POPC   D2A43504  12.266  24.942   6.640
 3215POPC   C3A43505  12.123  25.237   6.931
 3215POPC   C4A43506  11.862  25.331   7.265
 3215POPC   C1B43507  12.452  25.481   6.202
 3215POPC   C2B43508  12.546  25.395   6.624
 3215POPC   C3B43509  12.547  25.579   7.003
 3215POPC   C4B43510  12.222  25.675   7.260
 3216POPC   NC343511  27.396   6.353   5.357
 3216POPC   PO443512  27.629   6.947   5.524
 3216POPC   GL143513  27.571   6.648   5.798
 3216POPC   GL243514  27.252   6.771   5.923
 3216POPC   C1A43515  27.763   6.747   6.195
 3216POPC   D2A43516  27.576   6.816   6.583
 3216POPC   C3A43517  27.770   6.683   6.968
 3216POPC   C4A43518  28.086   6.731   7.272
 3216POPC   C1B43519  27.350   6.460   6.229
 3216POPC   C2B43520  27.304   6.305   6.626
 3216POPC   C3B43521  27.255   6.612   6.945
 3216POPC   C4B43522  27.393   6.433   7.305
 3217POPC   NC343523  18.503   7.597   5.501
 3217POPC   PO443524  18.106   7.089   5.503
 3217POPC   GL143525  18.159   7.394   5.836
 3217POPC   GL243526  17.941   7.685   5.899
 3217POPC   C1A43527  18.312   7.547   6.231
 3217POPC   D2A43528  18.155   7.369   6.620
 3217POPC   C3A43529  18.318   7.466   6.998
 3217POPC   C4A43530  18.623   7.436   7.268
 3217POPC   C1B43531  17.780   7.516   6.284
 3217POPC   C2B43532  17.707   7.663   6.705
 3217POPC   C3B43533  17.910   7.744   7.082
 3217POPC   C4B43534  18.114   7.663   7.428
 3218POPC   NC343535  44.116  24.153   5.512
 3218POPC   PO443536  43.708  23.645   5.402
 3218POPC   GL143537  43.737  23.895   5.764
 3218POPC   GL243538  43.890  23.602   5.924
 3218POPC   C1A43539  43.562  23.901   6.184
 3218POPC   D2A43540  43.696  23.566   6.462
 3218POPC   C3A43541  43.692  23.660   6.894
 3218POPC   C4A43542  43.672  23.894   7.304
 3218POPC   C1B43543  44.183  23.589   6.262
 3218POPC   C2B43544  44.437  23.645   6.596
 3218POPC   C3B43545  44.198  23.748   6.917
 3218POPC   C4B43546  44.031  23.542   7.267
 3219POPC   NC343547  33.604  33.932   5.446
 3219POPC   PO443548  34.036  33.528   5.201
 3219POPC   GL143549  33.987  33.622   5.678
 3219POPC   GL243550  33.910  33.933   5.852
 3219POPC   C1A43551  33.994  33.524   6.135
 3219POPC   D2A43552  34.037  33.797   6.489
 3219POPC   C3A43553  33.756  33.748   6.839
 3219POPC   C4A43554  33.873  33.837   7.246
 3219POPC   C1B43555  33.632  33.971   6.228
 3219POPC   C2B43556  33.568  34.209   6.635
 3219POPC   C3B43557  33.518  34.188   7.109
 3219POPC   C4B43558  33.578  34.131   7.575
 3220POPC   NC343559  32.532  23.998   5.365
 3220POPC   PO443560  32.648  23.467   5.490
 3220POPC   GL143561  32.379  23.770   5.826
 3220POPC   GL243562  32.376  24.165   5.859
 3220POPC   C1A43563  32.055  23.880   6.198
 3220POPC   D2A43564  31.991  24.119   6.624
 3220POPC   C3A43565  31.972  23.898   7.024
 3220POPC   C4A43566  32.175  23.489   7.107
 3220POPC   C1B43567  32.489  24.082   6.334
 3220POPC   C2B43568  32.381  23.804   6.717
 3220POPC   C3B43569  32.460  23.913   7.180
 3220POPC   C4B43570  32.499  24.039   7.625
 3221POPC   NC343571  13.221  43.191   5.300
 3221POPC   PO443572  13.881  43.030   5.451
 3221POPC   GL143573  13.696  43.143   5.844
 3221POPC   GL243574  13.651  42.799   5.947
 3221POPC   C1A43575  13.792  43.359   6.260
 3221POPC   D2A43576  13.997  43.285   6.677
 3221POPC   C3A43577  13.905  42.997   7.012
 3221POPC   C4A43578  13.923  43.163   7.447
 3221POPC   C1B43579  13.355  43.072   6.221
 3221POPC   C2B43580  13.128  43.233   6.594
 3221POPC   C3B43581  13.192  43.305   7.032
 3221POPC   C4B43582  13.454  43.034   7.280
 3222POPC   NC343583  30.614  37.709   5.283
 3222POPC   PO443584  31.140  37.972   5.574
 3222POPC   GL143585  30.700  37.905   5.773
 3222POPC   GL243586  30.566  37.551   5.769
 3222POPC   C1A43587  30.534  37.866   6.200
 3222POPC   D2A43588  30.721  37.668   6.583
 3222POPC   C3A43589  30.448  37.749   6.914
 3222POPC   C4A43590  30.599  37.968   7.275
 3222POPC   C1B43591  30.648  37.356   6.176
 3222POPC   C2B43592  30.440  37.248   6.587
 3222POPC   C3B43593  30.585  37.238   7.014
 3222POPC   C4B43594  30.844  37.534   7.217
 3223POPC   NC343595  33.673  33.249   5.270
 3223POPC   PO443596  34.040  32.689   5.451
 3223POPC   GL143597  33.922  32.729   5.877
 3223POPC   GL243598  33.600  32.534   5.932
 3223POPC   C1A43599  34.087  33.007   6.226
 3223POPC   D2A43600  34.029  33.269   6.603
 3223POPC   C3A43601  33.897  33.032   6.972
 3223POPC   C4A43602  33.808  33.319   7.293
 3223POPC   C1B43603  33.688  32.681   6.381
 3223POPC   C2B43604  33.459  32.723   6.791
 3223POPC   C3B43605  33.414  32.724   7.240
 3223POPC   C4B43606  33.496  32.622   7.693
 3224POPC   NC343607  19.913  35.732   5.379
 3224POPC   PO443608  19.345  36.172   5.429
 3224POPC   GL143609  19.656  36.015   5.742
 3224POPC   GL243610  20.020  35.946   5.882
 3224POPC   C1A43611  19.583  36.021   6.185
 3224POPC   D2A43612  19.372  35.762   6.517
 3224POPC   C3A43613  19.606  35.862   6.916
 3224POPC   C4A43614  19.541  36.250   7.142
 3224POPC   C1B43615  20.154  35.978   6.321
 3224POPC   C2B43616  20.193  36.299   6.664
 3224POPC   C3B43617  20.093  36.258   7.095
 3224POPC   C4B43618  20.088  35.839   7.143
 3225POPC   NC343619   2.688  39.452   5.143
 3225POPC   PO443620   3.217  39.076   5.274
 3225POPC   GL143621   3.008  39.248   5.711
 3225POPC   GL243622   2.641  39.360   5.764
 3225POPC   C1A43623   2.886  39.130   6.187
 3225POPC   D2A43624   2.604  39.003   6.553
 3225POPC   C3A43625   2.789  39.016   6.966
 3225POPC   C4A43626   3.082  39.346   7.096
 3225POPC   C1B43627   2.542  39.526   6.206
 3225POPC   C2B43628   2.352  39.466   6.648
 3225POPC   C3B43629   2.445  39.385   7.055
 3225POPC   C4B43630   2.488  39.663   7.369
 3226POPC   NC343631   1.531  20.125   5.501
 3226POPC   PO443632   1.102  19.616   5.447
 3226POPC   GL143633   1.246  19.814   5.786
 3226POPC   GL243634   1.000  20.110   5.694
 3226POPC   C1A43635   1.485  19.742   6.169
 3226POPC   D2A43636   1.452  19.460   6.539
 3226POPC   C3A43637   1.435  19.706   6.876
 3226POPC   C4A43638   1.545  19.903   7.232
 3226POPC   C1B43639   0.838  19.879   6.070
 3226POPC   C2B43640   1.010  19.860   6.508
 3226POPC   C3B43641   0.935  19.761   6.949
 3226POPC   C4B43642   1.097  19.634   7.329
 3227POPC   NC343643   2.194  19.498   5.321
 3227POPC   PO443644   1.809  18.911   5.382
 3227POPC   GL143645   1.860  19.190   5.764
 3227POPC   GL243646   2.225  19.240   5.911
 3227POPC   C1A43647   1.833  19.367   6.197
 3227POPC   D2A43648   2.092  19.361   6.582
 3227POPC   C3A43649   1.905  19.178   6.983
 3227POPC   C4A43650   1.942  18.814   7.231
 3227POPC   C1B43651   2.496  19.476   6.261
 3227POPC   C2B43652   2.528  19.640   6.693
 3227POPC   C3B43653   2.437  19.549   7.128
 3227POPC   C4B43654   2.315  19.242   7.436
 3228POPC   NC343655  31.889   4.683   5.662
 3228POPC   PO443656  32.387   4.223   5.543
 3228POPC   GL143657  32.321   4.440   5.914
 3228POPC   GL243658  32.040   4.279   5.943
 3228POPC   C1A43659  32.221   4.640   6.317
 3228POPC   D2A43660  31.856   4.654   6.615
 3228POPC   C3A43661  31.957   4.621   7.054
 3228POPC   C4A43662  32.379   4.653   7.202
 3228POPC   C1B43663  31.955   4.214   6.326
 3228POPC   C2B43664  32.184   4.259   6.682
 3228POPC   C3B43665  32.283   4.179   7.068
 3228POPC   C4B43666  31.973   4.163   7.309
 3229POPC   NC343667  23.524  30.941   5.521
 3229POPC   PO443668  23.902  30.465   5.346
 3229POPC   GL143669  23.800  30.545   5.804
 3229POPC   GL243670  23.464  30.666   5.927
 3229POPC   C1A43671  23.752  30.452   6.265
 3229POPC   D2A43672  23.917  30.711   6.590
 3229POPC   C3A43673  23.783  30.700   6.994
 3229POPC   C4A43674  23.836  30.372   7.243
 3229POPC   C1B43675  23.735  30.976   6.196
 3229POPC   C2B43676  23.551  31.074   6.640
 3229POPC   C3B43677  23.317  30.724   6.797
 3229POPC   C4B43678  23.323  30.600   7.207
 3230POPC   NC343679  34.299  31.646   5.532
 3230POPC   PO443680  33.610  31.787   5.425
 3230POPC   GL143681  33.717  31.430   5.763
 3230POPC   GL243682  34.058  31.248   5.750
 3230POPC   C1A43683  33.605  31.471   6.221
 3230POPC   D2A43684  33.649  31.766   6.562
 3230POPC   C3A43685  33.553  31.661   6.962
 3230POPC   C4A43686  33.668  31.251   7.048
 3230POPC   C1B43687  34.030  31.173   6.192
 3230POPC   C2B43688  34.034  31.408   6.601
 3230POPC   C3B43689  34.075  31.532   7.040
 3230POPC   C4B43690  34.204  31.135   7.231
 3231POPC   NC343691  33.453   0.814   5.630
 3231POPC   PO443692  33.921   1.144   5.215
 3231POPC   GL143693  33.935   1.114   5.702
 3231POPC   GL243694  33.958   1.475   5.686
 3231POPC   C1A43695  33.756   1.029   6.165
 3231POPC   D2A43696  33.601   1.282   6.536
 3231POPC   C3A43697  33.810   1.234   6.923
 3231POPC   C4A43698  33.769   1.038   7.303
 3231POPC   C1B43699  33.819   1.518   6.102
 3231POPC   C2B43700  33.742   1.778   6.440
 3231POPC   C3B43701  33.747   1.747   6.844
 3231POPC   C4B43702  33.869   1.704   7.264
 3232POPC   NC343703   7.074  14.298   5.401
 3232POPC   PO443704   7.752  14.596   5.426
 3232POPC   GL143705   7.423  14.450   5.742
 3232POPC   GL243706   7.108  14.496   5.905
 3232POPC   C1A43707   7.522  14.354   6.176
 3232POPC   D2A43708   7.471  14.263   6.602
 3232POPC   C3A43709   7.598  14.561   6.910
 3232POPC   C4A43710   7.547  14.485   7.348
 3232POPC   C1B43711   7.074  14.108   6.181
 3232POPC   C2B43712   6.979  14.093   6.641
 3232POPC   C3B43713   7.151  14.314   7.037
 3232POPC   C4B43714   7.098  14.364   7.520
 3233POPC   NC343715  12.976  12.857   5.346
 3233POPC   PO443716  12.564  12.395   5.390
 3233POPC   GL143717  12.750  12.600   5.773
 3233POPC   GL243718  13.122  12.597   5.778
 3233POPC   C1A43719  12.904  12.892   6.120
 3233POPC   D2A43720  12.755  13.147   6.458
 3233POPC   C3A43721  12.827  12.956   6.840
 3233POPC   C4A43722  12.719  12.838   7.240
 3233POPC   C1B43723  13.320  12.605   6.183
 3233POPC   C2B43724  13.180  12.659   6.612
 3233POPC   C3B43725  13.200  12.688   7.076
 3233POPC   C4B43726  12.986  12.518   7.486
 3234POPC   NC343727   5.863  44.217   5.396
 3234POPC   PO443728   5.757  43.579   5.226
 3234POPC   GL143729   5.757  43.575   5.689
 3234POPC   GL243730   5.936  43.891   5.795
 3234POPC   C1A43731   5.765  43.513   6.141
 3234POPC   D2A43732   5.744  43.835   6.490
 3234POPC   C3A43733   5.758  43.752   6.897
 3234POPC   C4A43734   5.865  43.661   7.290
 3234POPC   C1B43735   6.130  43.888   6.190
 3234POPC   C2B43736   6.137  44.162   6.541
 3234POPC   C3B43737   5.946  44.264   6.929
 3234POPC   C4B43738   6.074  44.187   7.363
 3235POPC   NC343739  41.572  30.931   5.364
 3235POPC   PO443740  41.731  30.283   5.299
 3235POPC   GL143741  41.852  30.602   5.659
 3235POPC   GL243742  41.534  30.669   5.837
 3235POPC   C1A43743  41.922  30.912   6.045
 3235POPC   D2A43744  41.860  30.896   6.532
 3235POPC   C3A43745  41.538  30.852   6.856
 3235POPC   C4A43746  41.358  31.110   7.196
 3235POPC   C1B43747  41.735  30.440   6.212
 3235POPC   C2B43748  41.575  30.349   6.652
 3235POPC   C3B43749  41.732  30.393   7.088
 3235POPC   C4B43750  41.675  30.515   7.537
 3236POPC   NC343751  33.242  16.797   5.530
 3236POPC   PO443752  33.177  16.093   5.518
 3236POPC   GL143753  33.180  16.425   5.872
 3236POPC   GL243754  32.887  16.687   5.879
 3236POPC   C1A43755  33.090  16.490   6.321
 3236POPC   D2A43756  32.977  16.441   6.739
 3236POPC   C3A43757  33.176  16.622   7.098
 3236POPC   C4A43758  33.225  16.916   7.415
 3236POPC   C1B43759  32.725  16.861   6.277
 3236POPC   C2B43760  32.594  16.802   6.703
 3236POPC   C3B43761  32.811  16.949   7.067
 3236POPC   C4B43762  32.783  17.183   7.439
 3237POPC   NC343763  28.794  37.799   5.665
 3237POPC   PO443764  29.271  37.388   5.471
 3237POPC   GL143765  29.300  37.708   5.791
 3237POPC   GL243766  29.046  37.488   5.957
 3237POPC   C1A43767  29.237  37.871   6.224
 3237POPC   D2A43768  29.116  37.658   6.594
 3237POPC   C3A43769  29.205  37.900   7.002
 3237POPC   C4A43770  29.334  38.204   7.302
 3237POPC   C1B43771  29.408  37.388   6.193
 3237POPC   C2B43772  29.535  37.358   6.613
 3237POPC   C3B43773  29.267  37.383   6.985
 3237POPC   C4B43774  28.884  37.555   7.180
 3238POPC   NC343775  11.699  35.599   5.058
 3238POPC   PO443776  11.315  35.216   5.427
 3238POPC   GL143777  11.201  35.256   5.841
 3238POPC   GL243778  11.024  34.978   5.905
 3238POPC   C1A43779  11.080  35.330   6.277
 3238POPC   D2A43780  11.009  35.065   6.630
 3238POPC   C3A43781  11.196  35.240   7.007
 3238POPC   C4A43782  11.200  35.129   7.427
 3238POPC   C1B43783  11.430  34.964   6.212
 3238POPC   C2B43784  11.559  35.047   6.683
 3238POPC   C3B43785  11.621  34.958   7.158
 3238POPC   C4B43786  11.681  35.125   7.600
 3239POPC   NC343787   4.164  12.381   5.469
 3239POPC   PO443788   4.512  11.794   5.329
 3239POPC   GL143789   4.456  12.039   5.725
 3239POPC   GL243790   4.109  12.005   5.840
 3239POPC   C1A43791   4.395  12.299   6.132
 3239POPC   D2A43792   4.165  12.236   6.488
 3239POPC   C3A43793   4.327  12.285   6.874
 3239POPC   C4A43794   4.253  12.012   7.220
 3239POPC   C1B43795   3.883  11.845   6.211
 3239POPC   C2B43796   3.816  11.867   6.649
 3239POPC   C3B43797   3.861  11.757   7.053
 3239POPC   C4B43798   3.819  11.753   7.547
 3240POPC   NC343799  44.280  20.995   5.521
 3240POPC   PO443800  44.771  20.537   5.287
 3240POPC   GL143801  44.770  20.550   5.743
 3240POPC   GL243802  44.427  20.572   5.770
 3240POPC   C1A43803  44.708  20.642   6.203
 3240POPC   D2A43804  44.841  20.570   6.641
 3240POPC   C3A43805  44.830  20.912   6.951
 3240POPC   C4A43806  44.997  20.983   7.401
 3240POPC   C1B43807  44.152  20.456   6.089
 3240POPC   C2B43808  44.149  20.429   6.533
 3240POPC   C3B43809  44.379  20.630   6.881
 3240POPC   C4B43810  44.507  20.756   7.305
 3241POPC   NC343811   1.118   4.580   5.414
 3241POPC   PO443812   0.866   4.013   5.424
 3241POPC   GL143813   1.148   4.190   5.793
 3241POPC   GL243814   1.377   4.517   5.850
 3241POPC   C1A43815   1.186   4.294   6.264
 3241POPC   D2A43816   0.960   4.246   6.667
 3241POPC   C3A43817   1.170   4.314   7.070
 3241POPC   C4A43818   0.925   4.306   7.460
 3241POPC   C1B43819   1.575   4.681   6.265
 3241POPC   C2B43820   1.620   4.907   6.689
 3241POPC   C3B43821   1.398   4.865   7.068
 3241POPC   C4B43822   1.299   4.667   7.444
 3242POPC   NC343823  16.046  12.412   5.661
 3242POPC   PO443824  16.267  11.978   5.165
 3242POPC   GL143825  15.963  11.878   5.651
 3242POPC   GL243826  16.074  12.022   5.990
 3242POPC   C1A43827  15.671  11.789   6.088
 3242POPC   D2A43828  15.772  11.731   6.575
 3242POPC   C3A43829  15.666  11.901   6.989
 3242POPC   C4A43830  15.658  12.270   7.309
 3242POPC   C1B43831  16.037  12.131   6.416
 3242POPC   C2B43832  15.911  12.313   6.818
 3242POPC   C3B43833  16.143  12.308   7.182
 3242POPC   C4B43834  16.243  12.268   7.591
 3243POPC   NC343835   3.991  29.309   5.433
 3243POPC   PO443836   4.273  28.679   5.532
 3243POPC   GL143837   4.105  28.960   5.831
 3243POPC   GL243838   4.347  29.252   5.811
 3243POPC   C1A43839   3.999  29.197   6.217
 3243POPC   D2A43840   4.117  29.107   6.632
 3243POPC   C3A43841   4.179  29.380   6.962
 3243POPC   C4A43842   4.046  29.144   7.294
 3243POPC   C1B43843   4.474  29.071   6.195
 3243POPC   C2B43844   4.630  29.047   6.618
 3243POPC   C3B43845   4.464  28.944   7.020
 3243POPC   C4B43846   4.546  28.974   7.453
 3244POPC   NC343847   6.748   0.581   5.362
 3244POPC   PO443848   6.134   0.527   5.461
 3244POPC   GL143849   6.464   0.401   5.793
 3244POPC   GL243850   6.831   0.326   5.821
 3244POPC   C1A43851   6.542   0.461   6.244
 3244POPC   D2A43852   6.420   0.641   6.642
 3244POPC   C3A43853   6.494   0.485   7.055
 3244POPC   C4A43854   6.642   0.884   7.263
 3244POPC   C1B43855   7.000   0.195   6.266
 3244POPC   C2B43856   6.920   0.139   6.743
 3244POPC   C3B43857   7.002   0.068   7.223
 3244POPC   C4B43858   6.901   0.019   7.698
 3245POPC   NC343859  35.658  37.073   5.463
 3245POPC   PO443860  35.347  36.480   5.523
 3245POPC   GL143861  35.549  36.736   5.847
 3245POPC   GL243862  35.355  37.018   5.911
 3245POPC   C1A43863  35.793  37.020   6.170
 3245POPC   D2A43864  35.676  37.176   6.582
 3245POPC   C3A43865  35.452  36.881   6.830
 3245POPC   C4A43866  35.481  36.873   7.241
 3245POPC   C1B43867  35.303  36.852   6.333
 3245POPC   C2B43868  35.015  36.629   6.641
 3245POPC   C3B43869  35.152  36.435   7.036
 3245POPC   C4B43870  35.142  36.569   7.468
 3246POPC   NC343871  34.229  10.897   5.554
 3246POPC   PO443872  33.812  11.391   5.290
 3246POPC   GL143873  33.818  11.281   5.745
 3246POPC   GL243874  34.153  11.371   5.708
 3246POPC   C1A43875  33.752  11.116   6.198
 3246POPC   D2A43876  33.871  11.032   6.644
 3246POPC   C3A43877  33.795  10.974   7.071
 3246POPC   C4A43878  33.728  11.325   7.272
 3246POPC   C1B43879  34.210  11.410   6.107
 3246POPC   C2B43880  34.128  11.552   6.495
 3246POPC   C3B43881  34.002  11.500   6.872
 3246POPC   C4B43882  34.097  11.642   7.261
 3247POPC   NC343883   2.033  14.688   5.399
 3247POPC   PO443884   1.652  14.127   5.495
 3247POPC   GL143885   1.937  14.285   5.755
 3247POPC   GL243886   1.755  14.609   5.837
 3247POPC   C1A43887   2.097  14.154   6.154
 3247POPC   D2A43888   2.075  14.367   6.534
 3247POPC   C3A43889   1.970  14.224   6.940
 3247POPC   C4A43890   2.202  14.305   7.337
 3247POPC   C1B43891   2.164  14.678   6.093
 3247POPC   C2B43892   2.337  14.798   6.517
 3247POPC   C3B43893   2.177  14.682   6.926
 3247POPC   C4B43894   1.747  14.676   7.079
 3248POPC   NC343895  32.430  17.127   5.470
 3248POPC   PO443896  31.862  16.854   5.511
 3248POPC   GL143897  32.082  16.635   5.859
 3248POPC   GL243898  32.355  16.880   5.924
 3248POPC   C1A43899  32.209  16.562   6.301
 3248POPC   D2A43900  32.053  16.668   6.710
 3248POPC   C3A43901  32.230  16.438   7.000
 3248POPC   C4A43902  32.620  16.437   7.082
 3248POPC   C1B43903  31.979  17.018   6.204
 3248POPC   C2B43904  31.909  17.172   6.621
 3248POPC   C3B43905  32.240  17.133   6.923
 3248POPC   C4B43906  32.366  16.888   7.249
 3249POPC   NC343907  29.499   0.470   5.420
 3249POPC   PO443908  28.915   0.259   5.479
 3249POPC   GL143909  29.041   0.432   5.832
 3249POPC   GL243910  29.357   0.289   5.867
 3249POPC   C1A43911  28.998   0.284   6.251
 3249POPC   D2A43912  28.848   0.465   6.601
 3249POPC   C3A43913  28.920   0.266   6.952
 3249POPC   C4A43914  29.045   0.129   7.320
 3249POPC   C1B43915  29.527   0.275   6.247
 3249POPC   C2B43916  29.365   0.378   6.644
 3249POPC   C3B43917  29.467   0.357   7.062
 3249POPC   C4B43918  29.536   0.157   7.435
 3250POPC   NC343919   9.526   1.919   5.420
 3250POPC   PO443920  10.189   2.184   5.380
 3250POPC   GL143921   9.890   2.074   5.747
 3250POPC   GL243922   9.907   1.778   5.839
 3250POPC   C1A43923   9.841   2.145   6.214
 3250POPC   D2A43924   9.976   2.112   6.640
 3250POPC   C3A43925   9.690   2.046   6.944
 3250POPC   C4A43926   9.758   2.172   7.336
 3250POPC   C1B43927   9.624   1.675   6.150
 3250POPC   C2B43928   9.748   1.648   6.571
 3250POPC   C3B43929   9.749   1.524   6.978
 3250POPC   C4B43930   9.577   1.694   7.334
 3251POPC   NC343931  16.383  43.472   5.206
 3251POPC   PO443932  16.757  42.956   5.510
 3251POPC   GL143933  16.693  43.278   5.804
 3251POPC   GL243934  16.392  43.478   5.719
 3251POPC   C1A43935  16.723  43.217   6.267
 3251POPC   D2A43936  16.629  43.207   6.703
 3251POPC   C3A43937  16.655  42.922   7.039
 3251POPC   C4A43938  16.960  43.203   7.221
 3251POPC   C1B43939  16.254  43.225   6.064
 3251POPC   C2B43940  16.208  43.027   6.468
 3251POPC   C3B43941  16.169  43.129   6.924
 3251POPC   C4B43942  16.488  43.396   7.156
 3252POPC   NC343943  27.900  15.263   5.165
 3252POPC   PO443944  27.398  14.905   5.514
 3252POPC   GL143945  27.711  15.205   5.686
 3252POPC   GL243946  27.536  15.505   5.745
 3252POPC   C1A43947  27.930  15.323   6.109
 3252POPC   D2A43948  27.820  15.236   6.559
 3252POPC   C3A43949  27.762  15.061   6.992
 3252POPC   C4A43950  27.797  15.288   7.391
 3252POPC   C1B43951  27.425  15.248   6.165
 3252POPC   C2B43952  27.330  15.063   6.605
 3252POPC   C3B43953  27.257  15.223   7.053
 3252POPC   C4B43954  27.326  15.440   7.468
 3253POPC   NC343955  18.359  38.144   5.313
 3253POPC   PO443956  18.561  37.483   5.442
 3253POPC   GL143957  18.421  37.394   5.886
 3253POPC   GL243958  18.095  37.549   5.865
 3253POPC   C1A43959  18.451  37.594   6.313
 3253POPC   D2A43960  18.479  37.960   6.646
 3253POPC   C3A43961  18.432  37.796   7.046
 3253POPC   C4A43962  18.380  37.367   7.029
 3253POPC   C1B43963  17.996  37.811   6.258
 3253POPC   C2B43964  18.056  37.684   6.695
 3253POPC   C3B43965  17.927  37.666   7.120
 3253POPC   C4B43966  17.597  37.468   7.310
 3254POPC   NC343967  23.056  39.137   5.552
 3254POPC   PO443968  22.493  39.419   5.507
 3254POPC   GL143969  22.613  39.195   5.871
 3254POPC   GL243970  22.701  38.871   5.817
 3254POPC   C1A43971  22.748  39.213   6.331
 3254POPC   D2A43972  22.501  39.338   6.709
 3254POPC   C3A43973  22.620  39.525   7.107
 3254POPC   C4A43974  22.957  39.739   7.363
 3254POPC   C1B43975  23.027  38.810   6.159
 3254POPC   C2B43976  22.999  38.810   6.606
 3254POPC   C3B43977  22.982  39.063   7.007
 3254POPC   C4B43978  22.856  39.216   7.442
 3255POPC   NC343979   7.131  11.744   5.600
 3255POPC   PO443980   7.511  12.121   5.202
 3255POPC   GL143981   7.548  12.272   5.780
 3255POPC   GL243982   7.230  12.291   5.857
 3255POPC   C1A43983   7.562  12.162   6.228
 3255POPC   D2A43984   7.420  11.894   6.535
 3255POPC   C3A43985   7.547  12.197   6.821
 3255POPC   C4A43986   7.664  12.179   7.210
 3255POPC   C1B43987   7.054  12.100   6.223
 3255POPC   C2B43988   7.029  12.201   6.656
 3255POPC   C3B43989   7.122  12.115   7.093
 3255POPC   C4B43990   7.006  11.824   7.412
 3256POPC   NC343991  38.171  23.944   5.537
 3256POPC   PO443992  38.800  24.124   5.345
 3256POPC   GL143993  38.742  23.980   5.824
 3256POPC   GL243994  38.393  24.058   5.962
 3256POPC   C1A43995  38.736  23.876   6.284
 3256POPC   D2A43996  38.894  23.910   6.706
 3256POPC   C3A43997  38.649  24.102   7.024
 3256POPC   C4A43998  38.313  23.875   7.137
 3256POPC   C1B43999  38.197  23.800   6.304
 3256POPC   C2B44000  38.016  23.674   6.732
 3256POPC   C3B44001  38.228  23.385   7.022
 3256POPC   C4B44002  38.581  23.423   7.347
 3257POPC   NC344003  33.724  39.413   5.503
 3257POPC   PO444004  34.121  38.892   5.241
 3257POPC   GL144005  34.014  38.992   5.717
 3257POPC   GL244006  33.817  39.252   5.956
 3257POPC   C1A44007  34.041  38.869   6.173
 3257POPC   D2A44008  33.846  39.123   6.525
 3257POPC   C3A44009  34.052  39.120   6.929
 3257POPC   C4A44010  34.177  38.897   7.315
 3257POPC   C1B44011  33.502  39.421   6.263
 3257POPC   C2B44012  33.387  39.355   6.709
 3257POPC   C3B44013  33.646  39.390   7.117
 3257POPC   C4B44014  33.501  39.621   7.479
 3258POPC   NC344015   8.422  35.817   5.615
 3258POPC   PO444016   8.341  36.459   5.324
 3258POPC   GL144017   8.418  36.378   5.773
 3258POPC   GL244018   8.108  36.159   5.866
 3258POPC   C1A44019   8.375  36.379   6.239
 3258POPC   D2A44020   8.243  36.275   6.664
 3258POPC   C3A44021   8.480  35.977   6.931
 3258POPC   C4A44022   8.496  36.185   7.305
 3258POPC   C1B44023   8.067  35.942   6.282
 3258POPC   C2B44024   8.012  35.817   6.732
 3258POPC   C3B44025   8.012  35.963   7.180
 3258POPC   C4B44026   7.865  35.753   7.605
 3259POPC   NC344027  24.979  20.868   5.788
 3259POPC   PO444028  25.292  20.361   5.440
 3259POPC   GL144029  25.301  20.478   5.869
 3259POPC   GL244030  25.485  20.791   5.911
 3259POPC   C1A44031  25.259  20.593   6.330
 3259POPC   D2A44032  25.362  20.899   6.634
 3259POPC   C3A44033  25.156  20.922   7.033
 3259POPC   C4A44034  25.279  20.906   7.468
 3259POPC   C1B44035  25.726  20.465   6.149
 3259POPC   C2B44036  25.763  20.509   6.583
 3259POPC   C3B44037  25.540  20.537   6.965
 3259POPC   C4B44038  25.315  20.245   7.202
 3260POPC   NC344039  12.488  26.957   5.570
 3260POPC   PO444040  13.017  26.605   5.311
 3260POPC   GL144041  12.961  26.766   5.739
 3260POPC   GL244042  12.683  26.552   5.839
 3260POPC   C1A44043  13.068  26.999   6.136
 3260POPC   D2A44044  13.243  26.817   6.529
 3260POPC   C3A44045  13.087  26.990   6.896
 3260POPC   C4A44046  12.925  26.793   7.230
 3260POPC   C1B44047  12.593  26.827   6.183
 3260POPC   C2B44048  12.721  27.086   6.510
 3260POPC   C3B44049  12.555  27.084   6.878
 3260POPC   C4B44050  12.489  27.046   7.273
 3261POPC   NC344051   3.394  12.436   5.437
 3261POPC   PO444052   3.788  11.861   5.393
 3261POPC   GL144053   3.605  11.826   5.775
 3261POPC   GL244054   3.617  12.175   5.805
 3261POPC   C1A44055   3.337  11.922   6.147
 3261POPC   D2A44056   3.454  12.174   6.492
 3261POPC   C3A44057   3.376  12.011   6.914
 3261POPC   C4A44058   3.250  12.061   7.339
 3261POPC   C1B44059   3.849  12.358   6.102
 3261POPC   C2B44060   3.780  12.557   6.477
 3261POPC   C3B44061   3.799  12.330   6.880
 3261POPC   C4B44062   3.733  12.184   7.288
 3262POPC   NC344063   4.913  42.811   5.483
 3262POPC   PO444064   5.563  43.032   5.385
 3262POPC   GL144065   5.296  43.098   5.745
 3262POPC   GL244066   5.322  42.758   5.804
 3262POPC   C1A44067   5.178  43.245   6.183
 3262POPC   D2A44068   4.903  43.357   6.564
 3262POPC   C3A44069   5.044  43.235   7.001
 3262POPC   C4A44070   4.947  42.931   7.338
 3262POPC   C1B44071   5.099  42.724   6.202
 3262POPC   C2B44072   5.103  42.881   6.608
 3262POPC   C3B44073   5.270  42.736   6.997
 3262POPC   C4B44074   5.425  42.745   7.420
 3263POPC   NC344075  32.327   3.176   5.355
 3263POPC   PO444076  32.440   3.804   5.151
 3263POPC   GL144077  32.499   3.716   5.610
 3263POPC   GL244078  32.191   3.569   5.664
 3263POPC   C1A44079  32.493   3.577   6.073
 3263POPC   D2A44080  32.245   3.288   6.338
 3263POPC   C3A44081  32.271   3.302   6.792
 3263POPC   C4A44082  32.119   3.304   7.222
 3263POPC   C1B44083  32.041   3.787   6.040
 3263POPC   C2B44084  32.132   3.766   6.479
 3263POPC   C3B44085  32.092   3.754   6.903
 3263POPC   C4B44086  32.479   3.676   7.132
 3264POPC   NC344087  43.499  24.743   5.477
 3264POPC   PO444088  44.223  24.636   5.446
 3264POPC   GL144089  43.922  24.738   5.774
 3264POPC   GL244090  43.751  24.408   5.786
 3264POPC   C1A44091  43.639  24.733   6.150
 3264POPC   D2A44092  43.589  24.422   6.465
 3264POPC   C3A44093  43.629  24.687   6.811
 3264POPC   C4A44094  43.879  24.593   7.125
 3264POPC   C1B44095  43.999  24.225   6.144
 3264POPC   C2B44096  43.962  24.002   6.511
 3264POPC   C3B44097  43.834  24.149   6.876
 3264POPC   C4B44098  44.110  24.147   7.207
 3265POPC   NC344099   8.463   2.680   5.041
 3265POPC   PO444100   7.874   2.589   5.380
 3265POPC   GL144101   8.174   2.697   5.762
 3265POPC   GL244102   8.206   3.067   5.848
 3265POPC   C1A44103   8.089   2.765   6.229
 3265POPC   D2A44104   8.202   2.460   6.510
 3265POPC   C3A44105   8.153   2.560   6.927
 3265POPC   C4A44106   8.047   2.601   7.371
 3265POPC   C1B44107   8.405   3.178   6.276
 3265POPC   C2B44108   8.217   3.059   6.690
 3265POPC   C3B44109   8.274   3.026   7.151
 3265POPC   C4B44110   8.082   3.066   7.578
 3266POPC   NC344111  19.713  22.098   5.526
 3266POPC   PO444112  20.331  22.363   5.523
 3266POPC   GL144113  20.052  22.204   5.881
 3266POPC   GL244114  20.068  21.814   5.813
 3266POPC   C1A44115  19.767  22.255   6.268
 3266POPC   D2A44116  19.549  22.403   6.675
 3266POPC   C3A44117  19.799  22.451   7.037
 3266POPC   C4A44118  19.809  22.149   7.362
 3266POPC   C1B44119  19.792  21.753   6.143
 3266POPC   C2B44120  19.845  21.736   6.549
 3266POPC   C3B44121  19.693  21.932   6.889
 3266POPC   C4B44122  19.512  21.773   7.208
 3267POPC   NC344123  19.843  29.458   5.418
 3267POPC   PO444124  20.186  28.858   5.453
 3267POPC   GL144125  20.117  29.206   5.764
 3267POPC   GL244126  19.757  29.213   5.896
 3267POPC   C1A44127  20.153  29.394   6.185
 3267POPC   D2A44128  20.168  29.250   6.650
 3267POPC   C3A44129  19.974  29.428   7.048
 3267POPC   C4A44130  20.153  29.441   7.439
 3267POPC   C1B44131  19.657  29.336   6.338
 3267POPC   C2B44132  19.674  29.149   6.740
 3267POPC   C3B44133  19.419  29.047   7.088
 3267POPC   C4B44134  19.486  29.141   7.507
 3268POPC   NC344135  25.854  31.084   5.379
 3268POPC   PO444136  26.286  30.562   5.426
 3268POPC   GL144137  26.031  30.740   5.736
 3268POPC   GL244138  25.864  30.486   5.824
 3268POPC   C1A44139  25.852  30.891   6.151
 3268POPC   D2A44140  26.075  30.949   6.558
 3268POPC   C3A44141  26.047  30.706   6.952
 3268POPC   C4A44142  25.974  30.820   7.364
 3268POPC   C1B44143  25.622  30.423   6.165
 3268POPC   C2B44144  25.793  30.507   6.541
 3268POPC   C3B44145  25.663  30.379   6.941
 3268POPC   C4B44146  25.668  30.426   7.396
 3269POPC   NC344147   5.378  14.085   5.554
 3269POPC   PO444148   4.959  14.542   5.439
 3269POPC   GL144149   5.066  14.388   5.812
 3269POPC   GL244150   5.198  14.679   5.921
 3269POPC   C1A44151   4.962  14.137   6.161
 3269POPC   D2A44152   4.879  14.255   6.564
 3269POPC   C3A44153   4.916  14.053   6.942
 3269POPC   C4A44154   4.997  14.335   7.264
 3269POPC   C1B44155   5.394  14.431   6.244
 3269POPC   C2B44156   5.380  14.107   6.534
 3269POPC   C3B44157   5.425  14.186   6.944
 3269POPC   C4B44158   5.452  14.566   7.173
 3270POPC   NC344159  38.527  41.396   5.430
 3270POPC   PO444160  38.175  41.981   5.391
 3270POPC   GL144161  38.274  41.717   5.755
 3270POPC   GL244162  38.098  41.409   5.813
 3270POPC   C1A44163  38.519  41.534   6.123
 3270POPC   D2A44164  38.793  41.670   6.474
 3270POPC   C3A44165  38.695  41.529   6.874
 3270POPC   C4A44166  38.707  41.588   7.324
 3270POPC   C1B44167  38.020  41.692   6.181
 3270POPC   C2B44168  37.799  41.678   6.554
 3270POPC   C3B44169  37.956  41.748   6.959
 3270POPC   C4B44170  38.254  41.439   7.114
 3271POPC   NC344171   9.309  40.082   5.466
 3271POPC   PO444172   8.671  39.842   5.348
 3271POPC   GL144173   8.901  39.832   5.726
 3271POPC   GL244174   8.664  39.651   5.922
 3271POPC   C1A44175   9.150  39.885   6.127
 3271POPC   D2A44176   8.956  39.819   6.541
 3271POPC   C3A44177   9.129  39.764   6.933
 3271POPC   C4A44178   9.103  39.958   7.287
 3271POPC   C1B44179   8.671  40.072   6.161
 3271POPC   C2B44180   8.768  40.313   6.572
 3271POPC   C3B44181   8.742  40.145   6.968
 3271POPC   C4B44182   8.624  39.725   7.116
 3272POPC   NC344183  17.191  44.866   5.408
 3272POPC   PO444184  16.514  44.741   5.391
 3272POPC   GL144185  16.704  44.924   5.784
 3272POPC   GL244186  16.896  44.669   5.823
 3272POPC   C1A44187  16.744  44.866   6.291
 3272POPC   D2A44188  16.908  44.869   6.762
 3272POPC   C3A44189  16.624  44.866   7.136
 3272POPC   C4A44190  16.367  44.988   7.514
 3272POPC   C1B44191  16.999  44.440   6.164
 3272POPC   C2B44192  16.800  44.404   6.544
 3272POPC   C3B44193  17.069  44.354   6.864
 3272POPC   C4B44194  17.037  44.597   7.211
 3273POPC   NC344195  36.627  31.742   5.379
 3273POPC   PO444196  36.999  31.230   5.389
 3273POPC   GL144197  36.804  31.262   5.777
 3273POPC   GL244198  36.854  31.616   5.865
 3273POPC   C1A44199  36.904  31.192   6.213
 3273POPC   D2A44200  37.246  31.097   6.467
 3273POPC   C3A44201  37.121  31.092   6.897
 3273POPC   C4A44202  36.927  31.282   7.224
 3273POPC   C1B44203  37.196  31.605   6.230
 3273POPC   C2B44204  37.101  31.573   6.687
 3273POPC   C3B44205  36.722  31.668   6.939
 3273POPC   C4B44206  36.615  32.068   7.157
 3274POPC   NC344207  41.483  40.473   5.474
 3274POPC   PO444208  41.200  39.810   5.375
 3274POPC   GL144209  41.329  39.762   5.801
 3274POPC   GL244210  41.508  40.022   5.781
 3274POPC   C1A44211  41.582  39.712   6.174
 3274POPC   D2A44212  41.701  39.936   6.528
 3274POPC   C3A44213  41.587  39.735   6.908
 3274POPC   C4A44214  41.412  39.592   7.304
 3274POPC   C1B44215  41.420  40.230   6.150
 3274POPC   C2B44216  41.430  40.353   6.598
 3274POPC   C3B44217  41.722  40.275   6.948
 3274POPC   C4B44218  41.716  40.013   7.321
 3275POPC   NC344219  17.535  24.863   5.613
 3275POPC   PO444220  17.517  25.437   5.511
 3275POPC   GL144221  17.611  25.288   5.902
 3275POPC   GL244222  17.238  25.264   5.919
 3275POPC   C1A44223  17.627  25.369   6.335
 3275POPC   D2A44224  17.335  25.503   6.654
 3275POPC   C3A44225  17.376  25.323   7.040
 3275POPC   C4A44226  17.658  25.427   7.327
 3275POPC   C1B44227  17.310  24.930   6.215
 3275POPC   C2B44228  17.426  24.981   6.631
 3275POPC   C3B44229  17.334  24.795   6.998
 3275POPC   C4B44230  17.183  24.942   7.347
 3276POPC   NC344231  38.950  42.929   5.345
 3276POPC   PO444232  38.367  43.126   5.093
 3276POPC   GL144233  38.540  43.130   5.572
 3276POPC   GL244234  38.635  42.771   5.728
 3276POPC   C1A44235  38.461  43.146   6.054
 3276POPC   D2A44236  38.352  42.990   6.479
 3276POPC   C3A44237  38.394  43.212   6.887
 3276POPC   C4A44238  38.124  43.105   7.238
 3276POPC   C1B44239  38.794  42.768   6.175
 3276POPC   C2B44240  38.754  42.702   6.606
 3276POPC   C3B44241  38.911  42.814   6.998
 3276POPC   C4B44242  38.716  43.065   7.316
 3277POPC   NC344243   2.531   9.191   5.490
 3277POPC   PO444244   3.077   8.858   5.474
 3277POPC   GL144245   2.862   8.976   5.846
 3277POPC   GL244246   2.923   9.329   5.816
 3277POPC   C1A44247   2.585   8.814   6.202
 3277POPC   D2A44248   2.663   8.877   6.649
 3277POPC   C3A44249   2.418   8.918   7.046
 3277POPC   C4A44250   2.503   8.680   7.459
 3277POPC   C1B44251   2.706   9.312   6.220
 3277POPC   C2B44252   2.899   9.329   6.614
 3277POPC   C3B44253   2.890   9.155   7.019
 3277POPC   C4B44254   2.983   9.399   7.344
 3278POPC   NC344255   6.810   3.287   5.549
 3278POPC   PO444256   6.563   3.935   5.439
 3278POPC   GL144257   6.441   3.671   5.798
 3278POPC   GL244258   6.478   3.286   5.925
 3278POPC   C1A44259   6.672   3.702   6.180
 3278POPC   D2A44260   6.588   3.788   6.594
 3278POPC   C3A44261   6.716   3.523   6.925
 3278POPC   C4A44262   6.653   3.685   7.339
 3278POPC   C1B44263   6.821   3.193   6.261
 3278POPC   C2B44264   6.926   3.027   6.703
 3278POPC   C3B44265   7.031   3.168   7.141
 3278POPC   C4B44266   6.765   3.203   7.537
 3279POPC   NC344267  32.004  35.054   5.595
 3279POPC   PO444268  32.340  35.578   5.276
 3279POPC   GL144269  32.407  35.521   5.758
 3279POPC   GL244270  32.733  35.684   5.841
 3279POPC   C1A44271  32.220  35.320   6.186
 3279POPC   D2A44272  32.328  35.137   6.608
 3279POPC   C3A44273  32.145  35.319   6.985
 3279POPC   C4A44274  31.942  35.254   7.384
 3279POPC   C1B44275  32.712  35.426   6.211
 3279POPC   C2B44276  32.806  35.415   6.645
 3279POPC   C3B44277  32.632  35.446   7.060
 3279POPC   C4B44278  32.364  35.547   7.416
 3280POPC   NC344279  41.453  23.512   5.415
 3280POPC   PO444280  41.638  24.187   5.546
 3280POPC   GL144281  41.448  23.855   5.818
 3280POPC   GL244282  41.630  23.551   5.896
 3280POPC   C1A44283  41.231  23.779   6.207
 3280POPC   D2A44284  41.445  23.851   6.618
 3280POPC   C3A44285  41.307  23.865   7.058
 3280POPC   C4A44286  41.481  24.037   7.455
 3280POPC   C1B44287  41.580  23.275   6.240
 3280POPC   C2B44288  41.818  23.160   6.600
 3280POPC   C3B44289  41.792  23.342   7.014
 3280POPC   C4B44290  41.566  23.531   7.374
 3281POPC   NC344291  42.782  41.828   5.520
 3281POPC   PO444292  43.063  41.165   5.309
 3281POPC   GL144293  43.020  41.395   5.720
 3281POPC   GL244294  43.350  41.516   5.868
 3281POPC   C1A44295  43.044  41.288   6.186
 3281POPC   D2A44296  43.290  41.327   6.571
 3281POPC   C3A44297  43.101  41.285   6.992
 3281POPC   C4A44298  42.833  41.027   7.248
 3281POPC   C1B44299  43.297  41.775   6.245
 3281POPC   C2B44300  43.143  41.825   6.637
 3281POPC   C3B44301  43.324  41.757   7.002
 3281POPC   C4B44302  43.065  41.684   7.361
 3282POPC   NC344303  13.119  19.714   5.315
 3282POPC   PO444304  12.462  19.862   5.436
 3282POPC   GL144305  12.616  19.860   5.852
 3282POPC   GL244306  12.710  19.515   5.843
 3282POPC   C1A44307  12.775  19.939   6.299
 3282POPC   D2A44308  12.613  19.925   6.726
 3282POPC   C3A44309  12.930  19.887   7.018
 3282POPC   C4A44310  13.203  19.792   7.327
 3282POPC   C1B44311  12.453  19.559   6.233
 3282POPC   C2B44312  12.521  19.441   6.647
 3282POPC   C3B44313  12.438  19.547   7.051
 3282POPC   C4B44314  12.663  19.611   7.382
 3283POPC   NC344315  34.277  36.425   5.303
 3283POPC   PO444316  34.777  35.973   5.358
 3283POPC   GL144317  34.489  36.056   5.680
 3283POPC   GL244318  34.544  36.432   5.737
 3283POPC   C1A44319  34.534  36.078   6.139
 3283POPC   D2A44320  34.655  35.930   6.557
 3283POPC   C3A44321  34.719  36.167   6.912
 3283POPC   C4A44322  34.521  36.122   7.302
 3283POPC   C1B44323  34.424  36.607   6.132
 3283POPC   C2B44324  34.502  36.434   6.536
 3283POPC   C3B44325  34.250  36.371   6.901
 3283POPC   C4B44326  34.214  36.540   7.317
 3284POPC   NC344327  27.809   0.727   5.551
 3284POPC   PO444328  27.628   1.350   5.271
 3284POPC   GL144329  27.799   1.258   5.702
 3284POPC   GL244330  27.708   1.543   5.913
 3284POPC   C1A44331  27.700   1.101   6.158
 3284POPC   D2A44332  27.383   1.155   6.512
 3284POPC   C3A44333  27.503   1.137   6.976
 3284POPC   C4A44334  27.807   1.123   7.306
 3284POPC   C1B44335  27.520   1.634   6.312
 3284POPC   C2B44336  27.651   1.563   6.732
 3284POPC   C3B44337  27.623   1.606   7.191
 3284POPC   C4B44338  27.773   1.557   7.634
 3285POPC   NC344339  10.854  16.675   5.368
 3285POPC   PO444340  11.566  16.777   5.429
 3285POPC   GL144341  11.403  16.478   5.720
 3285POPC   GL244342  11.132  16.685   5.806
 3285POPC   C1A44343  11.359  16.323   6.171
 3285POPC   D2A44344  11.336  16.553   6.581
 3285POPC   C3A44345  11.432  16.332   6.976
 3285POPC   C4A44346  11.767  16.481   7.220
 3285POPC   C1B44347  10.985  16.697   6.216
 3285POPC   C2B44348  10.804  16.605   6.619
 3285POPC   C3B44349  11.037  16.658   6.993
 3285POPC   C4B44350  11.426  16.854   7.093
 3286POPC   NC344351   2.730  43.538   5.443
 3286POPC   PO444352   2.938  42.838   5.396
 3286POPC   GL144353   2.716  43.059   5.729
 3286POPC   GL244354   2.737  42.755   5.873
 3286POPC   C1A44355   2.706  43.163   6.203
 3286POPC   D2A44356   2.519  43.243   6.626
 3286POPC   C3A44357   2.699  43.165   7.055
 3286POPC   C4A44358   2.636  43.240   7.524
 3286POPC   C1B44359   2.931  42.709   6.260
 3286POPC   C2B44360   2.874  42.873   6.655
 3286POPC   C3B44361   2.844  42.663   7.043
 3286POPC   C4B44362   2.842  42.781   7.455
 3287POPC   NC344363  37.998   7.675   5.427
 3287POPC   PO444364  38.680   7.507   5.570
 3287POPC   GL144365  38.627   7.418   5.974
 3287POPC   GL244366  38.857   7.200   6.075
 3287POPC   C1A44367  38.648   7.591   6.392
 3287POPC   D2A44368  38.381   7.676   6.750
 3287POPC   C3A44369  38.534   7.682   7.170
 3287POPC   C4A44370  38.554   7.956   7.525
 3287POPC   C1B44371  38.511   7.107   6.366
 3287POPC   C2B44372  38.459   7.171   6.793
 3287POPC   C3B44373  38.163   7.305   7.097
 3287POPC   C4B44374  37.933   7.184   7.460
 3288POPC   NC344375  43.672  23.184   5.399
 3288POPC   PO444376  44.311  22.962   5.507
 3288POPC   GL144377  44.021  23.075   5.838
 3288POPC   GL244378  43.720  22.873   5.824
 3288POPC   C1A44379  43.949  23.126   6.288
 3288POPC   D2A44380  44.058  23.312   6.691
 3288POPC   C3A44381  43.829  23.164   6.982
 3288POPC   C4A44382  43.912  23.069   7.408
 3288POPC   C1B44383  43.627  22.716   6.232
 3288POPC   C2B44384  43.815  22.756   6.639
 3288POPC   C3B44385  43.621  22.710   7.023
 3288POPC   C4B44386  43.578  22.684   7.438
 3289POPC   NC344387  43.480  41.397   5.401
 3289POPC   PO444388  44.101  41.766   5.579
 3289POPC   GL144389  43.881  41.443   5.806
 3289POPC   GL244390  44.182  41.294   5.949
 3289POPC   C1A44391  43.693  41.415   6.226
 3289POPC   D2A44392  43.693  41.669   6.610
 3289POPC   C3A44393  43.645  41.373   6.936
 3289POPC   C4A44394  43.513  41.405   7.318
 3289POPC   C1B44395  44.152  41.617   6.300
 3289POPC   C2B44396  44.449  41.731   6.645
 3289POPC   C3B44397  44.343  41.865   7.068
 3289POPC   C4B44398  43.904  41.757   7.136
 3290POPC   NC344399  11.125  23.654   5.313
 3290POPC   PO444400  11.562  24.230   5.483
 3290POPC   GL144401  11.524  23.923   5.817
 3290POPC   GL244402  11.376  23.572   5.766
 3290POPC   C1A44403  11.561  23.753   6.237
 3290POPC   D2A44404  11.200  23.743   6.522
 3290POPC   C3A44405  11.343  23.583   6.891
 3290POPC   C4A44406  11.397  23.695   7.322
 3290POPC   C1B44407  11.154  23.403   6.140
 3290POPC   C2B44408  11.060  23.252   6.582
 3290POPC   C3B44409  10.906  23.367   7.017
 3290POPC   C4B44410  10.945  23.510   7.481
 3291POPC   NC344411  38.311   4.498   5.491
 3291POPC   PO444412  38.510   3.822   5.345
 3291POPC   GL144413  38.426   4.041   5.717
 3291POPC   GL244414  38.610   4.330   5.859
 3291POPC   C1A44415  38.330   4.040   6.157
 3291POPC   D2A44416  38.421   4.337   6.475
 3291POPC   C3A44417  38.416   4.192   6.903
 3291POPC   C4A44418  38.202   4.122   7.296
 3291POPC   C1B44419  38.849   4.458   6.240
 3291POPC   C2B44420  38.818   4.528   6.726
 3291POPC   C3B44421  38.685   4.529   7.168
 3291POPC   C4B44422  38.869   4.475   7.599
 3292POPC   NC344423  18.454  34.861   5.489
 3292POPC   PO444424  17.841  35.046   5.427
 3292POPC   GL144425  18.079  35.315   5.717
 3292POPC   GL244426  18.463  35.324   5.780
 3292POPC   C1A44427  18.130  35.502   6.110
 3292POPC   D2A44428  18.406  35.443   6.440
 3292POPC   C3A44429  18.317  35.381   6.889
 3292POPC   C4A44430  18.428  35.492   7.337
 3292POPC   C1B44431  18.273  35.036   6.110
 3292POPC   C2B44432  18.208  34.969   6.550
 3292POPC   C3B44433  18.110  34.738   6.911
 3292POPC   C4B44434  18.168  35.033   7.242
 3293POPC   NC344435  18.069   1.984   5.052
 3293POPC   PO444436  18.501   2.080   5.511
 3293POPC   GL144437  18.115   2.151   5.713
 3293POPC   GL244438  17.997   1.823   5.733
 3293POPC   C1A44439  18.092   2.165   6.167
 3293POPC   D2A44440  18.390   2.064   6.513
 3293POPC   C3A44441  18.324   2.143   6.971
 3293POPC   C4A44442  18.716   2.123   7.249
 3293POPC   C1B44443  18.122   1.664   6.135
 3293POPC   C2B44444  17.959   1.803   6.534
 3293POPC   C3B44445  17.849   1.866   6.947
 3293POPC   C4B44446  17.950   2.043   7.343
 3294POPC   NC344447  17.861  25.743   5.446
 3294POPC   PO444448  17.176  25.838   5.313
 3294POPC   GL144449  17.364  26.050   5.671
 3294POPC   GL244450  17.466  25.789   5.867
 3294POPC   C1A44451  17.193  26.192   6.080
 3294POPC   D2A44452  17.328  26.065   6.506
 3294POPC   C3A44453  17.611  26.307   6.794
 3294POPC   C4A44454  17.343  26.322   7.184
 3294POPC   C1B44455  17.725  25.908   6.199
 3294POPC   C2B44456  17.736  25.794   6.637
 3294POPC   C3B44457  17.583  25.849   7.040
 3294POPC   C4B44458  17.818  26.158   7.255
 3295POPC   NC344459   3.667  18.811   5.515
 3295POPC   PO444460   3.447  18.199   5.363
 3295POPC   GL144461   3.330  18.468   5.728
 3295POPC   GL244462   3.658  18.417   5.927
 3295POPC   C1A44463   3.241  18.526   6.191
 3295POPC   D2A44464   3.330  18.160   6.409
 3295POPC   C3A44465   3.420  18.150   6.824
 3295POPC   C4A44466   3.258  18.381   7.153
 3295POPC   C1B44467   3.825  18.099   6.260
 3295POPC   C2B44468   3.922  18.077   6.725
 3295POPC   C3B44469   3.780  18.292   7.148
 3295POPC   C4B44470   3.649  18.154   7.588
 3296POPC   NC344471   7.184  16.012   5.423
 3296POPC   PO444472   7.625  15.582   5.547
 3296POPC   GL144473   7.593  16.058   5.765
 3296POPC   GL244474   7.271  16.321   5.803
 3296POPC   C1A44475   7.590  16.283   6.187
 3296POPC   D2A44476   7.560  16.297   6.635
 3296POPC   C3A44477   7.667  15.924   6.806
 3296POPC   C4A44478   7.712  15.945   7.214
 3296POPC   C1B44479   7.129  16.037   6.119
 3296POPC   C2B44480   7.078  16.069   6.559
 3296POPC   C3B44481   7.179  15.929   6.961
 3296POPC   C4B44482   7.221  16.134   7.301
 3297POPC   NC344483  34.961  31.748   5.501
 3297POPC   PO444484  34.451  31.251   5.352
 3297POPC   GL144485  34.592  31.297   5.808
 3297POPC   GL244486  34.672  31.655   5.904
 3297POPC   C1A44487  34.472  31.401   6.271
 3297POPC   D2A44488  34.603  31.599   6.614
 3297POPC   C3A44489  34.547  31.417   6.946
 3297POPC   C4A44490  34.643  31.396   7.366
 3297POPC   C1B44491  34.988  31.697   6.296
 3297POPC   C2B44492  35.116  31.747   6.713
 3297POPC   C3B44493  34.909  31.759   7.086
 3297POPC   C4B44494  35.099  31.590   7.484
 3298POPC   NC344495  36.688  36.504   5.461
 3298POPC   PO444496  36.127  37.004   5.492
 3298POPC   GL144497  36.376  36.807   5.785
 3298POPC   GL244498  36.069  36.632   5.891
 3298POPC   C1A44499  36.370  36.917   6.213
 3298POPC   D2A44500  36.179  37.099   6.553
 3298POPC   C3A44501  36.330  36.867   6.895
 3298POPC   C4A44502  36.431  36.983   7.309
 3298POPC   C1B44503  35.784  36.519   6.235
 3298POPC   C2B44504  35.869  36.692   6.620
 3298POPC   C3B44505  35.768  36.520   7.014
 3298POPC   C4B44506  36.006  36.713   7.264
 3299POPC   NC344507  36.490  33.887   5.483
 3299POPC   PO444508  35.974  33.702   5.042
 3299POPC   GL144509  35.970  33.806   5.548
 3299POPC   GL244510  36.168  34.078   5.798
 3299POPC   C1A44511  35.933  33.703   6.014
 3299POPC   D2A44512  35.740  33.926   6.391
 3299POPC   C3A44513  35.946  33.879   6.796
 3299POPC   C4A44514  35.902  33.679   7.184
 3299POPC   C1B44515  36.421  33.851   6.152
 3299POPC   C2B44516  36.422  33.938   6.612
 3299POPC   C3B44517  36.424  33.722   7.015
 3299POPC   C4B44518  36.329  33.914   7.387
 3300POPC   NC344519  19.341   8.373   5.577
 3300POPC   PO444520  18.859   7.909   5.518
 3300POPC   GL144521  18.861   8.183   5.878
 3300POPC   GL244522  19.139   8.432   6.040
 3300POPC   C1A44523  18.912   8.050   6.282
 3300POPC   D2A44524  18.972   8.264   6.633
 3300POPC   C3A44525  18.761   8.069   6.896
 3300POPC   C4A44526  18.951   7.810   7.181
 3300POPC   C1B44527  18.748   8.547   6.254
 3300POPC   C2B44528  18.565   8.616   6.659
 3300POPC   C3B44529  18.764   8.587   7.039
 3300POPC   C4B44530  19.128   8.353   7.137
 3301POPC   NC344531  25.155  29.954   5.319
 3301POPC   PO444532  25.477  30.602   5.302
 3301POPC   GL144533  25.458  30.217   5.670
 3301POPC   GL244534  25.390  29.837   5.768
 3301POPC   C1A44535  25.183  30.166   6.085
 3301POPC   D2A44536  24.996  30.009   6.479
 3301POPC   C3A44537  25.129  30.139   6.856
 3301POPC   C4A44538  25.312  30.113   7.224
 3301POPC   C1B44539  25.249  29.665   6.192
 3301POPC   C2B44540  25.057  29.534   6.607
 3301POPC   C3B44541  25.194  29.646   7.025
 3301POPC   C4B44542  24.929  29.670   7.398
 3302POPC   NC344543   1.459  19.312   5.445
 3302POPC   PO444544   1.019  18.759   5.410
 3302POPC   GL144545   1.270  18.915   5.754
 3302POPC   GL244546   1.136  19.251   5.827
 3302POPC   C1A44547   1.405  19.011   6.186
 3302POPC   D2A44548   1.179  18.958   6.584
 3302POPC   C3A44549   1.438  18.885   6.986
 3302POPC   C4A44550   1.430  18.819   7.453
 3302POPC   C1B44551   1.053  19.433   6.210
 3302POPC   C2B44552   0.869  19.382   6.613
 3302POPC   C3B44553   1.141  19.297   6.955
 3302POPC   C4B44554   1.492  19.333   7.246
 3303POPC   NC344555  37.339  20.824   5.041
 3303POPC   PO444556  36.731  20.538   5.342
 3303POPC   GL144557  36.866  20.707   5.746
 3303POPC   GL244558  37.201  20.846   5.727
 3303POPC   C1A44559  36.793  20.627   6.160
 3303POPC   D2A44560  36.571  20.413   6.430
 3303POPC   C3A44561  36.662  20.479   6.860
 3303POPC   C4A44562  36.708  20.390   7.278
 3303POPC   C1B44563  37.282  20.724   6.172
 3303POPC   C2B44564  37.097  20.675   6.610
 3303POPC   C3B44565  37.160  20.563   7.079
 3303POPC   C4B44566  37.167  20.545   7.556
 3304POPC   NC344567  10.750  12.831   5.361
 3304POPC   PO444568  10.251  13.266   5.515
 3304POPC   GL144569  10.471  12.969   5.785
 3304POPC   GL244570  10.839  13.005   5.820
 3304POPC   C1A44571  10.529  12.868   6.216
 3304POPC   D2A44572  10.568  12.971   6.646
 3304POPC   C3A44573  10.437  12.589   6.864
 3304POPC   C4A44574  10.568  12.467   7.266
 3304POPC   C1B44575  10.923  13.181   6.221
 3304POPC   C2B44576  10.953  13.367   6.631
 3304POPC   C3B44577  10.909  13.180   7.024
 3304POPC   C4B44578  10.573  12.991   7.165
 3305POPC   NC344579  41.644  40.867   4.987
 3305POPC   PO444580  41.712  40.858   5.603
 3305POPC   GL144581  41.679  40.662   5.945
 3305POPC   GL244582  41.872  40.362   5.849
 3305POPC   C1A44583  41.371  40.733   6.260
 3305POPC   D2A44584  41.124  40.765   6.643
 3305POPC   C3A44585  41.442  40.715   6.976
 3305POPC   C4A44586  41.558  40.774   7.409
 3305POPC   C1B44587  41.894  40.376   6.301
 3305POPC   C2B44588  41.817  40.700   6.555
 3305POPC   C3B44589  41.996  40.740   6.930
 3305POPC   C4B44590  42.020  40.567   7.329
 3306POPC   NC344591   2.834   7.265   5.457
 3306POPC   PO444592   3.131   7.872   5.632
 3306POPC   GL144593   2.823   7.612   5.857
 3306POPC   GL244594   2.856   7.232   5.956
 3306POPC   C1A44595   2.830   7.620   6.278
 3306POPC   D2A44596   2.744   7.359   6.579
 3306POPC   C3A44597   2.593   7.476   6.910
 3306POPC   C4A44598   2.753   7.665   7.216
 3306POPC   C1B44599   2.750   6.966   6.283
 3306POPC   C2B44600   2.873   6.882   6.723
 3306POPC   C3B44601   2.662   6.987   7.135
 3306POPC   C4B44602   2.395   7.318   7.371
 3307POPC   NC344603  18.689  44.516   5.349
 3307POPC   PO444604  18.091  44.843   5.313
 3307POPC   GL144605  18.176  44.696   5.745
 3307POPC   GL244606  18.508  44.817   5.766
 3307POPC   C1A44607  18.328  44.561   6.178
 3307POPC   D2A44608  18.546  44.651   6.579
 3307POPC   C3A44609  18.387  44.623   6.973
 3307POPC   C4A44610  18.291  44.534   7.402
 3307POPC   C1B44611  18.584   0.181   6.043
 3307POPC   C2B44612  18.639   0.287   6.489
 3307POPC   C3B44613  18.573   0.088   6.880
 3307POPC   C4B44614  18.541  44.954   7.335
 3308POPC   NC344615  15.471  28.845   5.135
 3308POPC   PO444616  15.151  28.331   5.501
 3308POPC   GL144617  15.215  28.130   5.906
 3308POPC   GL244618  15.223  28.461   6.059
 3308POPC   C1A44619  15.269  28.071   6.361
 3308POPC   D2A44620  15.038  28.349   6.564
 3308POPC   C3A44621  15.224  28.314   6.924
 3308POPC   C4A44622  15.173  28.126   7.290
 3308POPC   C1B44623  14.877  28.691   6.193
 3308POPC   C2B44624  14.856  28.884   6.581
 3308POPC   C3B44625  14.885  28.699   6.978
 3308POPC   C4B44626  15.158  28.635   7.322
 3309POPC   NC344627  15.427   1.055   5.356
 3309POPC   PO444628  14.863   1.419   5.362
 3309POPC   GL144629  15.184   1.428   5.676
 3309POPC   GL244630  15.163   1.102   5.779
 3309POPC   C1A44631  15.297   1.429   6.136
 3309POPC   D2A44632  15.024   1.365   6.496
 3309POPC   C3A44633  15.186   1.337   6.900
 3309POPC   C4A44634  14.911   1.451   7.194
 3309POPC   C1B44635  15.060   0.962   6.199
 3309POPC   C2B44636  15.129   0.868   6.665
 3309POPC   C3B44637  14.961   0.908   7.120
 3309POPC   C4B44638  15.041   1.092   7.518
 3310POPC   NC344639  44.864  18.151   5.419
 3310POPC   PO444640  44.475  18.805   5.447
 3310POPC   GL144641  44.469  18.569   5.820
 3310POPC   GL244642  44.707  18.297   5.879
 3310POPC   C1A44643  44.434  18.542   6.250
 3310POPC   D2A44644  44.496  18.346   6.635
 3310POPC   C3A44645  44.577  18.557   7.008
 3310POPC   C4A44646  44.479  18.391   7.408
 3310POPC   C1B44647  44.869  18.235   6.299
 3310POPC   C2B44648  44.995  18.322   6.737
 3310POPC   C3B44649  44.999  18.345   7.199
 3310POPC   C4B44650  44.945  18.514   7.622
 3311POPC   NC344651  22.020  42.361   5.366
 3311POPC   PO444652  22.312  42.856   5.174
 3311POPC   GL144653  22.212  42.650   5.702
 3311POPC   GL244654  22.103  42.348   5.857
 3311POPC   C1A44655  22.282  42.632   6.210
 3311POPC   D2A44656  22.158  42.407   6.583
 3311POPC   C3A44657  22.266  42.493   7.021
 3311POPC   C4A44658  22.425  42.201   7.321
 3311POPC   C1B44659  21.930  42.185   6.180
 3311POPC   C2B44660  21.792  42.020   6.561
 3311POPC   C3B44661  22.003  42.034   6.949
 3311POPC   C4B44662  21.971  41.800   7.302
 3312POPC   NC344663  32.277  34.218   5.549
 3312POPC   PO444664  32.070  33.629   5.328
 3312POPC   GL144665  32.115  33.700   5.762
 3312POPC   GL244666  32.445  33.796   5.810
 3312POPC   C1A44667  32.008  33.893   6.169
 3312POPC   D2A44668  32.206  33.958   6.573
 3312POPC   C3A44669  31.991  33.821   6.936
 3312POPC   C4A44670  32.182  33.680   7.333
 3312POPC   C1B44671  32.586  33.907   6.217
 3312POPC   C2B44672  32.581  33.566   6.478
 3312POPC   C3B44673  32.451  33.593   6.890
 3312POPC   C4B44674  32.502  33.993   7.092
 3313POPC   NC344675   1.780   8.599   5.338
 3313POPC   PO444676   2.136   9.177   5.270
 3313POPC   GL144677   2.070   9.146   5.731
 3313POPC   GL244678   1.821   8.864   5.790
 3313POPC   C1A44679   2.174   9.134   6.192
 3313POPC   D2A44680   2.156   8.870   6.592
 3313POPC   C3A44681   1.903   9.044   6.930
 3313POPC   C4A44682   1.674   9.237   7.267
 3313POPC   C1B44683   1.849   8.716   6.212
 3313POPC   C2B44684   1.665   8.672   6.629
 3313POPC   C3B44685   1.779   8.555   7.044
 3313POPC   C4B44686   1.972   8.483   7.434
 3314POPC   NC344687   8.055  14.729   5.099
 3314POPC   PO444688   8.164  15.328   5.315
 3314POPC   GL144689   8.307  15.137   5.685
 3314POPC   GL244690   8.095  14.882   5.652
 3314POPC   C1A44691   8.394  15.263   6.103
 3314POPC   D2A44692   8.301  15.084   6.492
 3314POPC   C3A44693   8.523  15.033   6.850
 3314POPC   C4A44694   8.266  15.189   7.157
 3314POPC   C1B44695   8.102  14.840   6.088
 3314POPC   C2B44696   7.921  14.660   6.456
 3314POPC   C3B44697   8.019  14.841   6.868
 3314POPC   C4B44698   7.840  14.926   7.301
 3315POPC   NC344699  11.875   3.155   5.718
 3315POPC   PO444700  11.992   3.736   5.474
 3315POPC   GL144701  11.969   3.697   5.899
 3315POPC   GL244702  11.636   3.782   5.936
 3315POPC   C1A44703  12.145   3.456   6.236
 3315POPC   D2A44704  12.391   3.254   6.521
 3315POPC   C3A44705  12.172   3.320   6.857
 3315POPC   C4A44706  12.298   3.285   7.248
 3315POPC   C1B44707  11.659   3.605   6.333
 3315POPC   C2B44708  11.864   3.725   6.734
 3315POPC   C3B44709  11.880   3.603   7.188
 3315POPC   C4B44710  11.764   3.731   7.598
 3316POPC   NC344711  44.815  37.862   5.377
 3316POPC   PO444712  44.477  37.329   5.363
 3316POPC   GL144713  44.712  37.467   5.771
 3316POPC   GL244714  44.945  37.780   5.858
 3316POPC   C1A44715  44.528  37.688   6.143
 3316POPC   D2A44716  44.637  37.702   6.597
 3316POPC   C3A44717  44.469  37.426   6.939
 3316POPC   C4A44718  44.423  37.651   7.347
 3316POPC   C1B44719   0.017  37.581   6.247
 3316POPC   C2B44720   0.161  37.666   6.651
 3316POPC   C3B44721  44.946  37.602   7.070
 3316POPC   C4B44722  44.910  37.651   7.540
 3317POPC   NC344723  41.968   4.772   5.434
 3317POPC   PO444724  41.882   5.402   5.317
 3317POPC   GL144725  41.662   5.152   5.716
 3317POPC   GL244726  41.763   4.802   5.893
 3317POPC   C1A44727  41.409   5.057   6.132
 3317POPC   D2A44728  41.551   4.834   6.537
 3317POPC   C3A44729  41.488   5.064   6.908
 3317POPC   C4A44730  41.454   5.146   7.344
 3317POPC   C1B44731  41.910   5.072   6.241
 3317POPC   C2B44732  41.965   5.098   6.703
 3317POPC   C3B44733  41.939   5.106   7.157
 3317POPC   C4B44734  41.897   5.410   7.482
 3318POPC   NC344735  31.685  44.326   5.354
 3318POPC   PO444736  31.195  43.850   5.359
 3318POPC   GL144737  31.456  43.864   5.741
 3318POPC   GL244738  31.716  44.113   5.815
 3318POPC   C1A44739  31.393  43.777   6.158
 3318POPC   D2A44740  31.540  43.571   6.526
 3318POPC   C3A44741  31.376  43.778   6.891
 3318POPC   C4A44742  31.582  43.708   7.270
 3318POPC   C1B44743  31.631  44.278   6.241
 3318POPC   C2B44744  31.595  44.252   6.718
 3318POPC   C3B44745  31.836  44.190   7.097
 3318POPC   C4B44746  31.886  44.353   7.536
 3319POPC   NC344747  35.909  17.015   5.556
 3319POPC   PO444748  36.411  16.518   5.648
 3319POPC   GL144749  36.149  16.624   5.966
 3319POPC   GL244750  35.831  16.488   5.868
 3319POPC   C1A44751  36.231  16.778   6.386
 3319POPC   D2A44752  36.524  16.975   6.667
 3319POPC   C3A44753  36.413  16.822   7.047
 3319POPC   C4A44754  36.009  16.875   7.206
 3319POPC   C1B44755  35.738  16.646   6.298
 3319POPC   C2B44756  35.767  16.775   6.746
 3319POPC   C3B44757  35.622  16.532   7.121
 3319POPC   C4B44758  35.641  16.419   7.563
 3320POPC   NC344759  18.319  28.501   5.297
 3320POPC   PO444760  18.150  27.906   5.382
 3320POPC   GL144761  18.238  28.228   5.701
 3320POPC   GL244762  18.590  28.245   5.678
 3320POPC   C1A44763  18.092  28.404   6.075
 3320POPC   D2A44764  18.057  28.247   6.484
 3320POPC   C3A44765  17.972  28.392   6.891
 3320POPC   C4A44766  18.118  28.380   7.311
 3320POPC   C1B44767  18.655  28.317   6.130
 3320POPC   C2B44768  18.552  28.108   6.539
 3320POPC   C3B44769  18.512  28.259   6.970
 3320POPC   C4B44770  18.598  28.553   7.308
 3321POPC   NC344771  14.280  23.923   5.362
 3321POPC   PO444772  14.392  24.651   5.351
 3321POPC   GL144773  14.355  24.384   5.705
 3321POPC   GL244774  14.620  24.534   5.895
 3321POPC   C1A44775  14.166  24.241   6.087
 3321POPC   D2A44776  14.051  24.182   6.511
 3321POPC   C3A44777  14.350  24.236   6.814
 3321POPC   C4A44778  14.503  24.469   7.169
 3321POPC   C1B44779  14.550  24.473   6.355
 3321POPC   C2B44780  14.738  24.591   6.736
 3321POPC   C3B44781  14.961  24.681   7.125
 3321POPC   C4B44782  14.787  24.642   7.566
 3322POPC   NC344783  17.669  42.075   5.427
 3322POPC   PO444784  17.104  42.401   5.414
 3322POPC   GL144785  17.440  42.371   5.773
 3322POPC   GL244786  17.810  42.218   5.888
 3322POPC   C1A44787  17.456  42.333   6.223
 3322POPC   D2A44788  17.787  42.429   6.504
 3322POPC   C3A44789  17.597  42.519   6.904
 3322POPC   C4A44790  17.336  42.373   7.244
 3322POPC   C1B44791  18.117  42.086   6.204
 3322POPC   C2B44792  18.054  41.994   6.650
 3322POPC   C3B44793  17.860  42.082   7.060
 3322POPC   C4B44794  18.009  42.110   7.476
 3323POPC   NC344795  19.650  42.651   5.483
 3323POPC   PO444796  19.597  42.009   5.298
 3323POPC   GL144797  19.700  42.127   5.718
 3323POPC   GL244798  20.001  42.382   5.772
 3323POPC   C1A44799  19.739  42.020   6.153
 3323POPC   D2A44800  19.789  42.306   6.488
 3323POPC   C3A44801  19.744  42.144   6.898
 3323POPC   C4A44802  19.658  42.356   7.284
 3323POPC   C1B44803  20.148  42.629   6.148
 3323POPC   C2B44804  20.253  42.507   6.587
 3323POPC   C3B44805  20.045  42.540   6.977
 3323POPC   C4B44806  20.034  42.665   7.415
 3324POPC   NC344807   3.246  20.873   5.426
 3324POPC   PO444808   3.880  20.767   5.412
 3324POPC   GL144809   3.580  20.675   5.755
 3324POPC   GL244810   3.368  20.947   5.894
 3324POPC   C1A44811   3.346  20.382   6.002
 3324POPC   D2A44812   3.425  20.225   6.413
 3324POPC   C3A44813   3.374  20.440   6.780
 3324POPC   C4A44814   3.691  20.434   7.093
 3324POPC   C1B44815   3.479  20.827   6.281
 3324POPC   C2B44816   3.298  20.928   6.639
 3324POPC   C3B44817   3.439  20.906   7.035
 3324POPC   C4B44818   3.255  20.956   7.390
 3325POPC   NC344819  10.814  44.696   5.429
 3325POPC   PO444820  10.251  44.901   5.619
 3325POPC   GL144821  10.478  44.645   5.910
 3325POPC   GL244822  10.810  44.444   5.910
 3325POPC   C1A44823  10.662  44.819   6.258
 3325POPC   D2A44824  10.627   0.079   6.573
 3325POPC   C3A44825  10.736  44.909   6.939
 3325POPC   C4A44826  10.606  44.807   7.340
 3325POPC   C1B44827  10.653  44.317   6.329
 3325POPC   C2B44828  10.647  44.405   6.794
 3325POPC   C3B44829  10.593  44.280   7.252
 3325POPC   C4B44830  10.792  44.303   7.663
 3326POPC   NC344831  11.605  42.526   5.363
 3326POPC   PO444832  11.055  42.108   5.370
 3326POPC   GL144833  11.261  42.054   5.739
 3326POPC   GL244834  11.328  42.396   5.776
 3326POPC   C1A44835  11.241  42.116   6.206
 3326POPC   D2A44836  11.645  42.294   6.351
 3326POPC   C3A44837  11.703  42.284   6.808
 3326POPC   C4A44838  11.385  42.322   7.131
 3326POPC   C1B44839  11.205  42.616   6.161
 3326POPC   C2B44840  11.260  42.510   6.606
 3326POPC   C3B44841  11.056  42.689   6.956
 3326POPC   C4B44842  10.804  42.397   7.172
 3327POPC   NC344843  14.905  16.253   5.293
 3327POPC   PO444844  15.338  16.686   5.183
 3327POPC   GL144845  15.045  16.660   5.599
 3327POPC   GL244846  14.980  16.998   5.764
 3327POPC   C1A44847  14.917  16.554   6.075
 3327POPC   D2A44848  14.867  16.732   6.518
 3327POPC   C3A44849  14.940  16.536   6.945
 3327POPC   C4A44850  15.038  16.686   7.361
 3327POPC   C1B44851  15.022  17.120   6.220
 3327POPC   C2B44852  15.233  17.135   6.605
 3327POPC   C3B44853  15.329  16.933   6.994
 3327POPC   C4B44854  15.488  17.094   7.369
 3328POPC   NC344855  18.804  24.741   5.452
 3328POPC   PO444856  19.182  24.108   5.402
 3328POPC   GL144857  19.089  24.413   5.742
 3328POPC   GL244858  19.274  24.735   5.702
 3328POPC   C1A44859  18.924  24.534   6.167
 3328POPC   D2A44860  18.876  24.257   6.537
 3328POPC   C3A44861  18.979  24.415   6.952
 3328POPC   C4A44862  18.840  24.495   7.397
 3328POPC   C1B44863  19.390  24.778   6.133
 3328POPC   C2B44864  19.174  24.901   6.503
 3328POPC   C3B44865  18.975  24.911   6.895
 3328POPC   C4B44866  19.255  24.810   7.214
 3329POPC   NC344867  11.989  32.859   4.859
 3329POPC   PO444868  12.020  33.357   5.306
 3329POPC   GL144869  11.837  33.180   5.701
 3329POPC   GL244870  12.027  32.880   5.850
 3329POPC   C1A44871  11.772  33.247   6.157
 3329POPC   D2A44872  11.896  32.968   6.508
 3329POPC   C3A44873  11.998  33.056   6.949
 3329POPC   C4A44874  11.946  32.720   7.259
 3329POPC   C1B44875  12.356  32.968   6.207
 3329POPC   C2B44876  12.572  32.956   6.635
 3329POPC   C3B44877  12.417  32.771   7.041
 3329POPC   C4B44878  12.376  32.802   7.511
 3330POPC   NC344879  18.102  38.845   5.586
 3330POPC   PO444880  17.988  38.359   5.130
 3330POPC   GL144881  17.774  38.456   5.632
 3330POPC   GL244882  17.494  38.376   5.856
 3330POPC   C1A44883  17.866  38.550   6.150
 3330POPC   D2A44884  17.622  38.626   6.525
 3330POPC   C3A44885  17.705  38.522   6.936
 3330POPC   C4A44886  17.506  38.657   7.329
 3330POPC   C1B44887  17.531  38.174   6.286
 3330POPC   C2B44888  17.273  38.256   6.669
 3330POPC   C3B44889  17.209  38.175   7.117
 3330POPC   C4B44890  17.283  37.850   7.441
 3331POPC   NC344891   1.553  33.938   5.437
 3331POPC   PO444892   0.952  33.546   5.373
 3331POPC   GL144893   1.056  33.768   5.819
 3331POPC   GL244894   1.384  33.812   5.893
 3331POPC   C1A44895   1.020  33.797   6.282
 3331POPC   D2A44896   1.004  33.544   6.640
 3331POPC   C3A44897   1.018  33.773   7.033
 3331POPC   C4A44898   0.984  33.723   7.507
 3331POPC   C1B44899   1.709  33.796   6.196
 3331POPC   C2B44900   1.764  34.006   6.554
 3331POPC   C3B44901   1.635  33.798   6.920
 3331POPC   C4B44902   1.448  33.807   7.341
 3332POPC   NC344903  40.668   7.726   5.358
 3332POPC   PO444904  40.877   7.220   5.328
 3332POPC   GL144905  40.756   7.401   5.790
 3332POPC   GL244906  40.432   7.645   5.809
 3332POPC   C1A44907  40.935   7.364   6.263
 3332POPC   D2A44908  41.046   7.219   6.717
 3332POPC   C3A44909  40.778   7.297   7.131
 3332POPC   C4A44910  40.646   7.007   7.482
 3332POPC   C1B44911  40.465   7.541   6.237
 3332POPC   C2B44912  40.573   7.504   6.673
 3332POPC   C3B44913  40.281   7.339   6.958
 3332POPC   C4B44914  40.264   7.319   7.379
 3333POPC   NC344915  41.979  41.233   5.503
 3333POPC   PO444916  41.504  41.720   5.315
 3333POPC   GL144917  41.356  41.623   5.771
 3333POPC   GL244918  41.467  41.269   5.805
 3333POPC   C1A44919  41.409  41.615   6.254
 3333POPC   D2A44920  41.756  41.565   6.566
 3333POPC   C3A44921  41.646  41.690   6.957
 3333POPC   C4A44922  41.361  41.514   7.208
 3333POPC   C1B44923  41.652  41.164   6.215
 3333POPC   C2B44924  41.516  41.116   6.635
 3333POPC   C3B44925  41.734  41.173   7.002
 3333POPC   C4B44926  41.747  41.249   7.417
 3334POPC   NC344927  16.881  32.814   5.279
 3334POPC   PO444928  16.916  33.452   5.294
 3334POPC   GL144929  16.829  33.198   5.641
 3334POPC   GL244930  16.514  33.100   5.668
 3334POPC   C1A44931  16.738  33.299   6.096
 3334POPC   D2A44932  16.717  33.039   6.469
 3334POPC   C3A44933  16.694  33.157   6.917
 3334POPC   C4A44934  16.509  33.217   7.325
 3334POPC   C1B44935  16.714  32.803   5.985
 3334POPC   C2B44936  16.745  32.527   6.370
 3334POPC   C3B44937  16.756  32.610   6.821
 3334POPC   C4B44938  16.572  32.719   7.204
 3335POPC   NC344939  30.237   4.187   5.607
 3335POPC   PO444940  30.759   4.320   5.209
 3335POPC   GL144941  30.734   4.411   5.702
 3335POPC   GL244942  30.447   4.663   5.764
 3335POPC   C1A44943  30.737   4.233   6.167
 3335POPC   D2A44944  30.962   4.002   6.530
 3335POPC   C3A44945  30.861   4.159   6.954
 3335POPC   C4A44946  31.091   4.480   7.161
 3335POPC   C1B44947  30.459   4.667   6.220
 3335POPC   C2B44948  30.608   4.500   6.614
 3335POPC   C3B44949  30.534   4.644   7.025
 3335POPC   C4B44950  30.321   4.502   7.374
 3336POPC   NC344951  24.711  35.954   5.308
 3336POPC   PO444952  24.321  36.551   5.342
 3336POPC   GL144953  24.552  36.260   5.678
 3336POPC   GL244954  24.443  35.885   5.748
 3336POPC   C1A44955  24.493  36.184   6.140
 3336POPC   D2A44956  24.662  36.287   6.522
 3336POPC   C3A44957  24.557  36.112   6.873
 3336POPC   C4A44958  24.887  36.009   7.182
 3336POPC   C1B44959  24.182  35.753   6.126
 3336POPC   C2B44960  24.059  35.866   6.571
 3336POPC   C3B44961  24.142  35.850   7.033
 3336POPC   C4B44962  24.154  35.975   7.490
 3337POPC   NC344963   6.246   1.696   5.365
 3337POPC   PO444964   6.630   2.225   5.331
 3337POPC   GL144965   6.664   2.062   5.734
 3337POPC   GL244966   6.503   1.736   5.848
 3337POPC   C1A44967   6.867   2.040   6.140
 3337POPC   D2A44968   6.676   1.772   6.466
 3337POPC   C3A44969   6.710   1.943   6.885
 3337POPC   C4A44970   6.559   1.885   7.322
 3337POPC   C1B44971   6.363   2.095   6.121
 3337POPC   C2B44972   6.324   2.151   6.551
 3337POPC   C3B44973   6.198   2.036   6.953
 3337POPC   C4B44974   6.070   2.112   7.344
 3338POPC   NC344975  11.471  21.574   5.407
 3338POPC   PO444976  10.894  21.352   5.506
 3338POPC   GL144977  11.240  21.333   5.827
 3338POPC   GL244978  11.390  21.007   5.922
 3338POPC   C1A44979  11.155  21.278   6.257
 3338POPC   D2A44980  11.256  21.426   6.636
 3338POPC   C3A44981  11.038  21.376   6.994
 3338POPC   C4A44982  11.195  21.401   7.395
 3338POPC   C1B44983  11.605  20.899   6.254
 3338POPC   C2B44984  11.676  21.149   6.597
 3338POPC   C3B44985  11.502  21.141   7.008
 3338POPC   C4B44986  11.849  20.887   7.097
 3339POPC   NC344987  31.551   1.726   5.649
 3339POPC   PO444988  31.511   1.032   5.456
 3339POPC   GL144989  31.402   1.029   5.877
 3339POPC   GL244990  31.752   1.064   5.987
 3339POPC   C1A44991  31.363   1.006   6.332
 3339POPC   D2A44992  31.525   1.306   6.660
 3339POPC   C3A44993  31.442   1.282   7.092
 3339POPC   C4A44994  31.510   0.871   7.283
 3339POPC   C1B44995  31.764   1.473   6.232
 3339POPC   C2B44996  32.015   1.514   6.610
 3339POPC   C3B44997  31.941   1.362   7.001
 3339POPC   C4B44998  31.808   1.574   7.334
 3340POPC   NC344999  31.131  13.076   5.228
 3340POPC   PO445000  31.590  12.542   5.288
 3340POPC   GL145001  31.468  12.710   5.717
 3340POPC   GL245002  31.147  12.779   5.663
 3340POPC   C1A45003  31.549  12.945   6.099
 3340POPC   D2A45004  31.309  12.995   6.483
 3340POPC   C3A45005  31.529  12.795   6.825
 3340POPC   C4A45006  31.606  12.967   7.229
 3340POPC   C1B45007  31.102  12.695   6.120
 3340POPC   C2B45008  31.157  12.489   6.545
 3340POPC   C3B45009  31.053  12.670   6.965
 3340POPC   C4B45010  31.118  12.491   7.364
 3341POPC   NC345011  43.155  35.770   5.359
 3341POPC   PO445012  43.320  36.397   5.508
 3341POPC   GL145013  43.050  36.214   5.819
 3341POPC   GL245014  43.163  35.877   5.854
 3341POPC   C1A45015  42.851  36.035   6.212
 3341POPC   D2A45016  43.108  35.956   6.565
 3341POPC   C3A45017  42.951  35.969   6.957
 3341POPC   C4A45018  43.136  36.017   7.360
 3341POPC   C1B45019  43.388  36.170   6.171
 3341POPC   C2B45020  43.374  36.399   6.544
 3341POPC   C3B45021  43.398  36.248   6.947
 3341POPC   C4B45022  43.398  36.466   7.352
 3342POPC   NC345023  27.091  36.032   5.320
 3342POPC   PO445024  26.427  36.071   5.422
 3342POPC   GL145025  26.787  36.197   5.738
 3342POPC   GL245026  26.907  35.883   5.783
 3342POPC   C1A45027  27.036  36.106   6.198
 3342POPC   D2A45028  26.914  35.922   6.598
 3342POPC   C3A45029  27.009  36.224   6.890
 3342POPC   C4A45030  27.059  36.453   7.248
 3342POPC   C1B45031  26.578  35.932   6.112
 3342POPC   C2B45032  26.394  36.052   6.496
 3342POPC   C3B45033  26.385  35.988   6.940
 3342POPC   C4B45034  26.683  36.061   7.236
 3343POPC   NC345035  22.505  15.495   5.581
 3343POPC   PO445036  22.412  14.929   5.213
 3343POPC   GL145037  22.128  15.130   5.636
 3343POPC   GL245038  22.049  15.468   5.793
 3343POPC   C1A45039  22.090  15.032   6.090
 3343POPC   D2A45040  22.356  15.048   6.475
 3343POPC   C3A45041  22.197  15.103   6.889
 3343POPC   C4A45042  22.376  15.315   7.201
 3343POPC   C1B45043  22.263  15.513   6.216
 3343POPC   C2B45044  22.127  15.553   6.656
 3343POPC   C3B45045  21.898  15.499   7.056
 3343POPC   C4B45046  21.712  15.685   7.418
 3344POPC   NC345047   6.656  14.835   5.222
 3344POPC   PO445048   6.170  15.242   5.452
 3344POPC   GL145049   6.449  15.089   5.780
 3344POPC   GL245050   6.620  14.750   5.740
 3344POPC   C1A45051   6.486  15.281   6.185
 3344POPC   D2A45052   6.298  15.176   6.571
 3344POPC   C3A45053   6.468  15.423   6.908
 3344POPC   C4A45054   6.867  15.436   7.134
 3344POPC   C1B45055   6.826  14.900   6.117
 3344POPC   C2B45056   6.810  15.086   6.544
 3344POPC   C3B45057   6.671  14.964   6.957
 3344POPC   C4B45058   6.858  14.758   7.318
 3345POPC   NC345059  23.896  18.563   5.462
 3345POPC   PO445060  23.565  17.983   5.574
 3345POPC   GL145061  23.878  18.234   5.837
 3345POPC   GL245062  23.622  18.518   5.885
 3345POPC   C1A45063  24.033  18.516   6.195
 3345POPC   D2A45064  24.134  18.330   6.563
 3345POPC   C3A45065  24.072  18.503   6.937
 3345POPC   C4A45066  23.984  18.174   7.220
 3345POPC   C1B45067  23.584  18.282   6.259
 3345POPC   C2B45068  23.635  18.326   6.686
 3345POPC   C3B45069  23.535  18.043   6.983
 3345POPC   C4B45070  23.415  18.284   7.294
 3346POPC   NC345071  16.275  10.777   5.445
 3346POPC   PO445072  15.811  10.284   5.480
 3346POPC   GL145073  15.914  10.577   5.811
 3346POPC   GL245074  15.670  10.798   5.916
 3346POPC   C1A45075  16.204  10.672   6.136
 3346POPC   D2A45076  16.289  10.754   6.583
 3346POPC   C3A45077  16.067  10.566   6.942
 3346POPC   C4A45078  15.953  10.406   7.344
 3346POPC   C1B45079  15.752  10.810   6.359
 3346POPC   C2B45080  15.634  10.790   6.780
 3346POPC   C3B45081  15.678  10.819   7.212
 3346POPC   C4B45082  15.601  10.871   7.674
 3347POPC   NC345083  21.345  13.365   5.581
 3347POPC   PO445084  21.376  12.742   5.243
 3347POPC   GL145085  21.612  12.858   5.669
 3347POPC   GL245086  21.661  12.570   5.906
 3347POPC   C1A45087  21.581  13.063   6.114
 3347POPC   D2A45088  21.676  13.045   6.583
 3347POPC   C3A45089  21.447  12.972   6.979
 3347POPC   C4A45090  21.644  13.000   7.380
 3347POPC   C1B45091  21.616  12.583   6.350
 3347POPC   C2B45092  21.352  12.402   6.649
 3347POPC   C3B45093  21.203  12.484   7.026
 3347POPC   C4B45094  21.434  12.540   7.350
 3348POPC   NC345095  28.081  33.841   5.440
 3348POPC   PO445096  28.304  34.390   5.343
 3348POPC   GL145097  28.473  34.082   5.713
 3348POPC   GL245098  28.347  33.729   5.875
 3348POPC   C1A45099  28.447  34.107   6.190
 3348POPC   D2A45100  28.438  33.853   6.555
 3348POPC   C3A45101  28.453  33.965   6.989
 3348POPC   C4A45102  28.724  33.841   7.308
 3348POPC   C1B45103  28.284  33.450   6.280
 3348POPC   C2B45104  28.220  33.428   6.754
 3348POPC   C3B45105  28.353  33.491   7.193
 3348POPC   C4B45106  28.017  33.454   7.519
 3349POPC   NC345107  30.267  15.220   5.527
 3349POPC   PO445108  29.708  15.361   5.408
 3349POPC   GL145109  29.740  15.332   5.834
 3349POPC   GL245110  29.679  15.671   5.849
 3349POPC   C1A45111  30.018  15.145   6.160
 3349POPC   D2A45112  30.210  15.229   6.551
 3349POPC   C3A45113  29.993  15.090   6.913
 3349POPC   C4A45114  30.072  15.113   7.334
 3349POPC   C1B45115  29.586  15.597   6.272
 3349POPC   C2B45116  29.791  15.516   6.656
 3349POPC   C3B45117  29.594  15.464   7.047
 3349POPC   C4B45118  29.659  15.671   7.460
 3350POPC   NC345119  10.145  26.875   5.534
 3350POPC   PO445120   9.623  26.516   5.215
 3350POPC   GL145121   9.650  26.699   5.657
 3350POPC   GL245122   9.589  26.438   5.841
 3350POPC   C1A45123   9.696  26.858   6.138
 3350POPC   D2A45124   9.612  26.961   6.624
 3350POPC   C3A45125   9.868  26.918   7.060
 3350POPC   C4A45126  10.036  26.716   7.475
 3350POPC   C1B45127   9.710  26.358   6.232
 3350POPC   C2B45128   9.913  26.527   6.564
 3350POPC   C3B45129   9.727  26.466   6.940
 3350POPC   C4B45130   9.549  26.630   7.338
 3351POPC   NC345131   5.415  23.292   5.398
 3351POPC   PO445132   5.969  23.642   5.314
 3351POPC   GL145133   5.756  23.645   5.694
 3351POPC   GL245134   6.067  23.482   5.852
 3351POPC   C1A45135   5.732  23.717   6.147
 3351POPC   D2A45136   5.848  23.451   6.502
 3351POPC   C3A45137   5.688  23.663   6.843
 3351POPC   C4A45138   5.721  23.738   7.251
 3351POPC   C1B45139   6.308  23.375   6.247
 3351POPC   C2B45140   6.349  23.455   6.702
 3351POPC   C3B45141   6.161  23.355   7.097
 3351POPC   C4B45142   6.132  23.576   7.495
 3352POPC   NC345143   0.314   6.095   5.659
 3352POPC   PO445144   0.800   6.446   5.497
 3352POPC   GL145145   0.756   6.177   5.876
 3352POPC   GL245146   0.807   5.813   5.889
 3352POPC   C1A45147   0.523   6.015   6.282
 3352POPC   D2A45148   0.437   5.707   6.655
 3352POPC   C3A45149   0.273   5.941   7.020
 3352POPC   C4A45150   0.339   6.346   7.229
 3352POPC   C1B45151   0.741   5.565   6.251
 3352POPC   C2B45152   0.909   5.394   6.619
 3352POPC   C3B45153   0.860   5.557   7.048
 3352POPC   C4B45154   0.621   5.780   7.351
 3353POPC   NC345155  19.484   9.895   5.393
 3353POPC   PO445156  18.893   9.541   5.419
 3353POPC   GL145157  19.061   9.752   5.800
 3353POPC   GL245158  19.345   9.513   5.844
 3353POPC   C1A45159  19.141   9.932   6.262
 3353POPC   D2A45160  19.206   9.744   6.722
 3353POPC   C3A45161  18.981   9.785   7.148
 3353POPC   C4A45162  19.012   9.957   7.589
 3353POPC   C1B45163  19.102   9.423   6.253
 3353POPC   C2B45164  19.200   9.249   6.678
 3353POPC   C3B45165  19.368   9.418   7.099
 3353POPC   C4B45166  19.232   9.448   7.559
 3354POPC   NC345167  25.035  16.369   5.434
 3354POPC   PO445168  25.275  17.037   5.398
 3354POPC   GL145169  25.330  16.722   5.700
 3354POPC   GL245170  24.990  16.761   5.776
 3354POPC   C1A45171  25.298  16.568   6.138
 3354POPC   D2A45172  25.170  16.434   6.531
 3354POPC   C3A45173  25.349  16.616   6.875
 3354POPC   C4A45174  25.296  16.519   7.267
 3354POPC   C1B45175  25.201  17.064   6.060
 3354POPC   C2B45176  25.233  16.971   6.481
 3354POPC   C3B45177  25.037  17.023   6.867
 3354POPC   C4B45178  25.215  17.047   7.267
 3355POPC   NC345179  18.699  23.938   5.364
 3355POPC   PO445180  19.082  23.359   5.402
 3355POPC   GL145181  19.090  23.496   5.812
 3355POPC   GL245182  18.956  23.815   5.775
 3355POPC   C1A45183  18.929  23.524   6.214
 3355POPC   D2A45184  18.814  23.746   6.533
 3355POPC   C3A45185  18.959  23.627   6.904
 3355POPC   C4A45186  18.722  23.467   7.219
 3355POPC   C1B45187  19.067  24.025   6.113
 3355POPC   C2B45188  19.285  23.927   6.446
 3355POPC   C3B45189  19.299  24.003   6.867
 3355POPC   C4B45190  19.056  24.017   7.255
 3356POPC   NC345191   8.239  42.593   5.339
 3356POPC   PO445192   7.831  42.028   5.416
 3356POPC   GL145193   7.913  42.353   5.704
 3356POPC   GL245194   8.256  42.401   5.807
 3356POPC   C1A45195   7.850  42.533   6.102
 3356POPC   D2A45196   8.038  42.391   6.459
 3356POPC   C3A45197   7.978  42.485   6.881
 3356POPC   C4A45198   8.017  42.158   7.191
 3356POPC   C1B45199   8.471  42.216   6.142
 3356POPC   C2B45200   8.618  42.236   6.560
 3356POPC   C3B45201   8.490  42.167   6.968
 3356POPC   C4B45202   8.392  42.494   7.218
 3357POPC   NC345203   3.747  31.258   5.583
 3357POPC   PO445204   3.672  31.889   5.323
 3357POPC   GL145205   3.554  31.866   5.793
 3357POPC   GL245206   3.485  31.540   5.920
 3357POPC   C1A45207   3.772  31.823   6.227
 3357POPC   D2A45208   3.625  31.545   6.544
 3357POPC   C3A45209   3.377  31.641   6.904
 3357POPC   C4A45210   3.616  31.586   7.282
 3357POPC   C1B45211   3.272  31.344   6.247
 3357POPC   C2B45212   3.311  31.138   6.651
 3357POPC   C3B45213   3.487  31.156   7.033
 3357POPC   C4B45214   3.236  31.216   7.413
 3358POPC   NC345215  15.799  26.296   5.374
 3358POPC   PO445216  15.717  25.714   5.676
 3358POPC   GL145217  15.988  26.000   5.774
 3358POPC   GL245218  15.806  26.251   5.904
 3358POPC   C1A45219  16.145  25.908   6.156
 3358POPC   D2A45220  15.906  26.018   6.505
 3358POPC   C3A45221  16.030  25.844   6.889
 3358POPC   C4A45222  15.743  25.725   7.158
 3358POPC   C1B45223  16.168  26.410   6.074
 3358POPC   C2B45224  16.233  26.417   6.506
 3358POPC   C3B45225  16.001  26.350   6.892
 3358POPC   C4B45226  16.145  26.163   7.278
 3359POPC   NC345227  16.531  22.964   5.114
 3359POPC   PO445228  16.808  23.174   5.649
 3359POPC   GL145229  16.601  22.880   5.897
 3359POPC   GL245230  16.705  22.558   5.878
 3359POPC   C1A45231  16.781  22.888   6.309
 3359POPC   D2A45232  17.015  23.200   6.538
 3359POPC   C3A45233  16.813  23.279   6.945
 3359POPC   C4A45234  16.573  23.018   7.255
 3359POPC   C1B45235  16.496  22.471   6.226
 3359POPC   C2B45236  16.670  22.465   6.607
 3359POPC   C3B45237  16.752  22.640   6.978
 3359POPC   C4B45238  16.369  22.558   7.198
 3360POPC   NC345239  38.959  34.044   5.467
 3360POPC   PO445240  39.451  33.646   5.418
 3360POPC   GL145241  39.408  33.963   5.747
 3360POPC   GL245242  39.155  33.711   5.849
 3360POPC   C1A45243  39.304  34.026   6.210
 3360POPC   D2A45244  39.349  33.605   6.466
 3360POPC   C3A45245  39.311  33.623   6.932
 3360POPC   C4A45246  39.225  34.042   7.162
 3360POPC   C1B45247  38.903  33.513   6.174
 3360POPC   C2B45248  38.684  33.508   6.575
 3360POPC   C3B45249  38.746  33.346   7.020
 3360POPC   C4B45250  38.970  33.629   7.320
 3361POPC   NC345251   2.958  11.017   5.128
 3361POPC   PO445252   2.649  11.480   5.487
 3361POPC   GL145253   2.727  11.234   5.789
 3361POPC   GL245254   3.046  11.063   5.714
 3361POPC   C1A45255   2.545  11.248   6.201
 3361POPC   D2A45256   2.399  10.936   6.469
 3361POPC   C3A45257   2.448  11.167   6.840
 3361POPC   C4A45258   2.513  11.350   7.219
 3361POPC   C1B45259   3.074  11.227   6.149
 3361POPC   C2B45260   2.907  11.091   6.546
 3361POPC   C3B45261   2.977  11.176   6.997
 3361POPC   C4B45262   3.096  11.147   7.449
 3362POPC   NC345263  41.724  25.955   5.359
 3362POPC   PO445264  41.325  26.557   5.345
 3362POPC   GL145265  41.403  26.261   5.716
 3362POPC   GL245266  41.256  25.946   5.791
 3362POPC   C1A45267  41.483  26.219   6.186
 3362POPC   D2A45268  41.695  26.339   6.578
 3362POPC   C3A45269  41.647  26.115   6.949
 3362POPC   C4A45270  41.942  26.096   7.284
 3362POPC   C1B45271  41.435  25.699   6.133
 3362POPC   C2B45272  41.462  25.475   6.522
 3362POPC   C3B45273  41.484  25.632   6.944
 3362POPC   C4B45274  41.484  25.832   7.371
 3363POPC   NC345275  26.007  28.636   5.530
 3363POPC   PO445276  26.004  28.049   5.278
 3363POPC   GL145277  25.974  28.123   5.760
 3363POPC   GL245278  25.691  28.332   5.850
 3363POPC   C1A45279  26.118  28.357   6.174
 3363POPC   D2A45280  26.128  28.685   6.546
 3363POPC   C3A45281  26.265  28.595   6.994
 3363POPC   C4A45282  26.239  28.376   7.386
 3363POPC   C1B45283  25.667  28.152   6.291
 3363POPC   C2B45284  25.967  28.194   6.673
 3363POPC   C3B45285  25.830  28.307   7.099
 3363POPC   C4B45286  25.679  28.196   7.526
 3364POPC   NC345287  16.821  20.876   4.781
 3364POPC   PO445288  16.638  20.833   5.416
 3364POPC   GL145289  16.660  20.487   5.740
 3364POPC   GL245290  16.571  20.749   5.961
 3364POPC   C1A45291  16.756  20.357   6.188
 3364POPC   D2A45292  16.552  20.564   6.539
 3364POPC   C3A45293  16.727  20.524   6.930
 3364POPC   C4A45294  17.104  20.326   7.051
 3364POPC   C1B45295  16.299  20.954   6.279
 3364POPC   C2B45296  16.278  21.042   6.720
 3364POPC   C3B45297  16.388  20.857   7.125
 3364POPC   C4B45298  16.573  20.938   7.516
 3365POPC   NC345299   3.660   3.584   5.352
 3365POPC   PO445300   3.048   3.822   5.480
 3365POPC   GL145301   3.379   3.727   5.800
 3365POPC   GL245302   3.451   3.370   5.782
 3365POPC   C1A45303   3.433   3.693   6.271
 3365POPC   D2A45304   3.343   3.914   6.689
 3365POPC   C3A45305   3.560   3.763   7.077
 3365POPC   C4A45306   3.702   3.800   7.532
 3365POPC   C1B45307   3.385   3.161   6.186
 3365POPC   C2B45308   3.409   3.237   6.641
 3365POPC   C3B45309   3.377   3.247   7.073
 3365POPC   C4B45310   3.707   3.330   7.341
 3366POPC   NC345311  35.200  14.046   5.386
 3366POPC   PO445312  35.091  14.687   5.352
 3366POPC   GL145313  35.186  14.562   5.775
 3366POPC   GL245314  35.141  14.213   5.866
 3366POPC   C1A45315  35.322  14.645   6.214
 3366POPC   D2A45316  35.311  14.470   6.651
 3366POPC   C3A45317  35.542  14.568   7.059
 3366POPC   C4A45318  35.411  14.478   7.503
 3366POPC   C1B45319  34.989  14.070   6.264
 3366POPC   C2B45320  35.200  13.964   6.642
 3366POPC   C3B45321  35.287  14.110   7.067
 3366POPC   C4B45322  35.135  14.002   7.472
 3367POPC   NC345323   0.121  29.746   5.384
 3367POPC   PO445324   0.729  29.508   5.529
 3367POPC   GL145325   0.418  29.803   5.794
 3367POPC   GL245326   0.020  29.973   5.818
 3367POPC   C1A45327   0.375  29.873   6.219
 3367POPC   D2A45328   0.595  29.844   6.598
 3367POPC   C3A45329   0.409  29.998   6.939
 3367POPC   C4A45330   0.478  29.901   7.356
 3367POPC   C1B45331   0.046  30.256   6.173
 3367POPC   C2B45332   0.311  30.364   6.510
 3367POPC   C3B45333   0.130  30.430   6.897
 3367POPC   C4B45334   0.123  30.280   7.270
 3368POPC   NC345335   5.703  20.087   5.695
 3368POPC   PO445336   5.369  19.665   5.253
 3368POPC   GL145337   5.251  19.663   5.762
 3368POPC   GL245338   5.137  19.984   5.890
 3368POPC   C1A45339   4.947  19.621   6.161
 3368POPC   D2A45340   5.081  19.669   6.571
 3368POPC   C3A45341   4.933  19.786   6.952
 3368POPC   C4A45342   5.081  19.703   7.347
 3368POPC   C1B45343   4.957  20.113   6.305
 3368POPC   C2B45344   5.113  20.226   6.719
 3368POPC   C3B45345   5.265  20.183   7.163
 3368POPC   C4B45346   5.184  20.240   7.624
 3369POPC   NC345347  17.454   2.544   5.226
 3369POPC   PO445348  16.999   3.058   5.394
 3369POPC   GL145349  17.344   2.993   5.700
 3369POPC   GL245350  17.144   2.861   5.928
 3369POPC   C1A45351  17.554   3.034   6.153
 3369POPC   D2A45352  17.647   2.836   6.569
 3369POPC   C3A45353  17.422   2.951   6.902
 3369POPC   C4A45354  17.671   2.786   7.222
 3369POPC   C1B45355  17.264   2.615   6.315
 3369POPC   C2B45356  17.297   2.459   6.766
 3369POPC   C3B45357  17.092   2.639   7.138
 3369POPC   C4B45358  16.976   3.067   7.131
 3370POPC   NC345359  44.060  18.560   5.494
 3370POPC   PO445360  43.498  18.253   5.673
 3370POPC   GL145361  43.677  18.595   5.869
 3370POPC   GL245362  43.365  18.748   5.809
 3370POPC   C1A45363  43.934  18.643   6.272
 3370POPC   D2A45364  44.136  18.690   6.727
 3370POPC   C3A45365  44.133  18.294   7.021
 3370POPC   C4A45366  43.861  18.141   7.389
 3370POPC   C1B45367  43.315  18.556   6.226
 3370POPC   C2B45368  43.511  18.620   6.586
 3370POPC   C3B45369  43.415  18.445   6.971
 3370POPC   C4B45370  43.379  18.318   7.387
 3371POPC   NC345371   5.314  43.473   5.306
 3371POPC   PO445372   5.207  44.139   5.396
 3371POPC   GL145373   5.083  43.965   5.810
 3371POPC   GL245374   4.720  43.833   5.714
 3371POPC   C1A45375   5.314  43.767   6.186
 3371POPC   D2A45376   5.389  43.496   6.581
 3371POPC   C3A45377   5.233  43.744   6.926
 3371POPC   C4A45378   5.287  44.169   7.130
 3371POPC   C1B45379   4.796  43.677   6.142
 3371POPC   C2B45380   4.944  43.898   6.518
 3371POPC   C3B45381   4.818  44.048   6.903
 3371POPC   C4B45382   4.879  43.902   7.297
 3372POPC   NC345383  19.244  33.469   5.402
 3372POPC   PO445384  18.723  33.065   5.426
 3372POPC   GL145385  18.882  33.003   5.848
 3372POPC   GL245386  19.234  33.092   5.795
 3372POPC   C1A45387  18.956  32.852   6.251
 3372POPC   D2A45388  18.954  32.690   6.686
 3372POPC   C3A45389  18.815  32.985   6.986
 3372POPC   C4A45390  18.628  32.815   7.333
 3372POPC   C1B45391  19.353  33.179   6.192
 3372POPC   C2B45392  19.203  33.152   6.603
 3372POPC   C3B45393  19.326  32.970   6.979
 3372POPC   C4B45394  19.153  32.677   7.270
 3373POPC   NC345395  16.312  23.853   5.249
 3373POPC   PO445396  15.851  23.349   5.418
 3373POPC   GL145397  15.889  23.607   5.787
 3373POPC   GL245398  16.226  23.641   5.779
 3373POPC   C1A45399  15.959  23.855   6.178
 3373POPC   D2A45400  16.205  23.853   6.549
 3373POPC   C3A45401  15.997  23.746   6.921
 3373POPC   C4A45402  15.820  23.929   7.318
 3373POPC   C1B45403  16.197  23.413   6.177
 3373POPC   C2B45404  16.071  23.323   6.598
 3373POPC   C3B45405  16.279  23.322   6.970
 3373POPC   C4B45406  16.468  23.506   7.306
 3374POPC   NC345407  43.998  39.925   5.271
 3374POPC   PO445408  43.559  40.318   5.496
 3374POPC   GL145409  43.769  40.097   5.856
 3374POPC   GL245410  43.975  39.790   5.776
 3374POPC   C1A45411  43.724  39.998   6.320
 3374POPC   D2A45412  43.691  39.929   6.788
 3374POPC   C3A45413  43.973  40.089   7.133
 3374POPC   C4A45414  43.780  40.134   7.534
 3374POPC   C1B45415  43.973  39.542   6.176
 3374POPC   C2B45416  44.092  39.657   6.607
 3374POPC   C3B45417  44.018  39.589   7.069
 3374POPC   C4B45418  44.077  39.706   7.523
 3375POPC   NC345419  32.316  30.801   5.437
 3375POPC   PO445420  31.770  30.390   5.493
 3375POPC   GL145421  31.985  30.621   5.808
 3375POPC   GL245422  32.283  30.435   5.793
 3375POPC   C1A45423  32.144  30.785   6.228
 3375POPC   D2A45424  32.337  30.945   6.630
 3375POPC   C3A45425  32.108  30.887   7.025
 3375POPC   C4A45426  32.070  30.715   7.459
 3375POPC   C1B45427  32.532  30.441   6.182
 3375POPC   C2B45428  32.683  30.550   6.569
 3375POPC   C3B45429  32.592  30.439   6.959
 3375POPC   C4B45430  32.527  30.580   7.333
 3376POPC   NC345431  43.457  19.350   5.384
 3376POPC   PO445432  42.982  18.943   5.165
 3376POPC   GL145433  43.001  19.064   5.671
 3376POPC   GL245434  43.217  19.326   5.825
 3376POPC   C1A45435  43.063  18.987   6.158
 3376POPC   D2A45436  43.040  18.819   6.603
 3376POPC   C3A45437  43.171  18.886   7.029
 3376POPC   C4A45438  43.397  18.853   7.419
 3376POPC   C1B45439  43.290  19.425   6.250
 3376POPC   C2B45440  43.364  19.232   6.643
 3376POPC   C3B45441  43.381  19.371   7.061
 3376POPC   C4B45442  42.987  19.300   7.254
 3377POPC   NC345443  27.147  32.568   5.382
 3377POPC   PO445444  26.430  32.725   5.463
 3377POPC   GL145445  26.739  32.515   5.842
 3377POPC   GL245446  27.097  32.577   5.880
 3377POPC   C1A45447  26.956  32.149   6.141
 3377POPC   D2A45448  27.050  31.902   6.573
 3377POPC   C3A45449  26.742  31.997   6.929
 3377POPC   C4A45450  26.740  32.334   7.219
 3377POPC   C1B45451  26.978  32.655   6.297
 3377POPC   C2B45452  26.889  32.400   6.617
 3377POPC   C3B45453  27.155  32.309   6.919
 3377POPC   C4B45454  27.111  32.677   7.149
 3378POPC   NC345455  11.549  33.295   5.271
 3378POPC   PO445456  11.255  32.712   5.287
 3378POPC   GL145457  11.274  32.798   5.733
 3378POPC   GL245458  11.293  33.161   5.699
 3378POPC   C1A45459  11.519  32.770   6.151
 3378POPC   D2A45460  11.578  32.555   6.564
 3378POPC   C3A45461  11.546  32.827   6.941
 3378POPC   C4A45462  11.499  33.255   7.117
 3378POPC   C1B45463  11.237  33.185   6.139
 3378POPC   C2B45464  11.416  33.276   6.546
 3378POPC   C3B45465  11.090  33.371   6.800
 3378POPC   C4B45466  10.789  33.381   7.058
 3379POPC   NC345467  42.805  30.342   5.589
 3379POPC   PO445468  43.344  30.695   5.609
 3379POPC   GL145469  43.070  30.700   5.881
 3379POPC   GL245470  42.861  30.985   5.760
 3379POPC   C1A45471  43.029  30.483   6.290
 3379POPC   D2A45472  43.064  30.398   6.731
 3379POPC   C3A45473  43.262  30.716   6.910
 3379POPC   C4A45474  43.363  30.726   7.289
 3379POPC   C1B45475  42.975  31.046   6.228
 3379POPC   C2B45476  42.843  30.853   6.633
 3379POPC   C3B45477  42.787  30.698   7.085
 3379POPC   C4B45478  42.963  30.954   7.430
 3380POPC   NC345479  15.598  43.536   5.309
 3380POPC   PO445480  15.887  44.136   5.383
 3380POPC   GL145481  15.742  44.016   5.751
 3380POPC   GL245482  16.036  43.943   5.898
 3380POPC   C1A45483  15.616  44.067   6.182
 3380POPC   D2A45484  15.808  43.895   6.542
 3380POPC   C3A45485  15.841  44.116   6.899
 3380POPC   C4A45486  15.801  43.890   7.251
 3380POPC   C1B45487  16.314  43.750   6.134
 3380POPC   C2B45488  16.306  43.541   6.497
 3380POPC   C3B45489  16.168  43.688   6.857
 3380POPC   C4B45490  16.303  43.865   7.211
 3381POPC   NC345491   5.853  20.986   5.283
 3381POPC   PO445492   6.071  20.376   5.216
 3381POPC   GL145493   5.968  20.550   5.644
 3381POPC   GL245494   6.124  20.865   5.724
 3381POPC   C1A45495   5.925  20.480   6.130
 3381POPC   D2A45496   5.996  20.217   6.515
 3381POPC   C3A45497   5.690  20.391   6.816
 3381POPC   C4A45498   5.610  20.572   7.205
 3381POPC   C1B45499   6.291  20.816   6.153
 3381POPC   C2B45500   6.049  20.738   6.555
 3381POPC   C3B45501   6.060  20.762   6.991
 3381POPC   C4B45502   6.102  21.091   7.280
 3382POPC   NC345503  19.283  36.042   4.974
 3382POPC   PO445504  18.796  35.705   5.347
 3382POPC   GL145505  18.908  36.059   5.688
 3382POPC   GL245506  18.792  36.427   5.749
 3382POPC   C1A45507  19.033  36.066   6.118
 3382POPC   D2A45508  18.850  36.069   6.519
 3382POPC   C3A45509  19.117  36.034   6.872
 3382POPC   C4A45510  19.220  35.871   7.270
 3382POPC   C1B45511  18.913  36.578   6.202
 3382POPC   C2B45512  19.136  36.508   6.614
 3382POPC   C3B45513  19.078  36.508   7.074
 3382POPC   C4B45514  18.875  36.257   7.414
 3383POPC   NC345515  16.760  41.734   5.187
 3383POPC   PO445516  16.330  41.402   5.548
 3383POPC   GL145517  16.613  41.579   5.867
 3383POPC   GL245518  16.937  41.702   5.773
 3383POPC   C1A45519  16.797  41.348   6.242
 3383POPC   D2A45520  16.927  41.216   6.668
 3383POPC   C3A45521  16.639  41.357   6.988
 3383POPC   C4A45522  16.657  41.809   7.167
 3383POPC   C1B45523  17.104  41.760   6.235
 3383POPC   C2B45524  16.948  41.773   6.699
 3383POPC   C3B45525  17.096  41.521   7.061
 3383POPC   C4B45526  17.085  41.110   7.161
 3384POPC   NC345527  21.925  43.087   5.271
 3384POPC   PO445528  22.406  43.091   5.717
 3384POPC   GL145529  22.096  43.052   5.973
 3384POPC   GL245530  22.192  43.317   6.144
 3384POPC   C1A45531  21.800  42.702   6.067
 3384POPC   D2A45532  21.664  42.519   6.452
 3384POPC   C3A45533  21.876  42.746   6.805
 3384POPC   C4A45534  22.132  43.031   7.071
 3384POPC   C1B45535  22.191  43.055   6.493
 3384POPC   C2B45536  22.501  42.825   6.700
 3384POPC   C3B45537  22.649  43.023   7.072
 3384POPC   C4B45538  22.459  43.416   7.249
 3385POPC   NC345539  28.036  26.434   5.526
 3385POPC   PO445540  28.612  26.108   5.440
 3385POPC   GL145541  28.445  26.009   5.819
 3385POPC   GL245542  28.319  26.292   5.950
 3385POPC   C1A45543  28.677  25.996   6.218
 3385POPC   D2A45544  28.883  25.942   6.603
 3385POPC   C3A45545  28.588  25.870   6.922
 3385POPC   C4A45546  28.410  26.058   7.275
 3385POPC   C1B45547  28.227  26.192   6.406
 3385POPC   C2B45548  28.168  26.262   6.880
 3385POPC   C3B45549  28.140  26.475   7.309
 3385POPC   C4B45550  27.904  26.593   7.687
 3386POPC   NC345551  17.367  18.576   5.377
 3386POPC   PO445552  17.756  18.021   5.415
 3386POPC   GL145553  17.553  18.181   5.825
 3386POPC   GL245554  17.391  18.507   5.866
 3386POPC   C1A45555  17.264  18.122   6.183
 3386POPC   D2A45556  17.302  18.003   6.601
 3386POPC   C3A45557  17.561  18.278   6.823
 3386POPC   C4A45558  17.586  18.377   7.214
 3386POPC   C1B45559  17.181  18.671   6.197
 3386POPC   C2B45560  17.186  18.527   6.602
 3386POPC   C3B45561  17.280  18.713   6.986
 3386POPC   C4B45562  17.218  18.672   7.447
 3387POPC   NC345563  31.276  37.245   5.474
 3387POPC   PO445564  31.512  36.586   5.268
 3387POPC   GL145565  31.679  36.698   5.686
 3387POPC   GL245566  31.446  36.929   5.848
 3387POPC   C1A45567  31.658  36.566   6.134
 3387POPC   D2A45568  31.335  36.752   6.369
 3387POPC   C3A45569  31.345  36.752   6.817
 3387POPC   C4A45570  31.500  36.981   7.176
 3387POPC   C1B45571  31.114  37.139   6.100
 3387POPC   C2B45572  30.920  37.058   6.503
 3387POPC   C3B45573  31.075  37.181   6.902
 3387POPC   C4B45574  31.017  37.075   7.302
 3388POPC   NC345575   6.413  20.682   5.318
 3388POPC   PO445576   6.935  20.300   5.300
 3388POPC   GL145577   6.801  20.527   5.686
 3388POPC   GL245578   6.465  20.460   5.781
 3388POPC   C1A45579   6.829  20.639   6.153
 3388POPC   D2A45580   7.043  20.680   6.583
 3388POPC   C3A45581   6.813  20.519   6.937
 3388POPC   C4A45582   6.531  20.749   7.190
 3388POPC   C1B45583   6.433  20.318   6.193
 3388POPC   C2B45584   6.490  20.488   6.556
 3388POPC   C3B45585   6.327  20.327   6.923
 3388POPC   C4B45586   6.072  20.342   7.289
 3389POPC   NC345587  24.401   6.101   5.469
 3389POPC   PO445588  24.873   5.681   5.483
 3389POPC   GL145589  24.789   6.011   5.799
 3389POPC   GL245590  24.785   6.369   5.749
 3389POPC   C1A45591  24.664   6.017   6.237
 3389POPC   D2A45592  24.749   5.753   6.604
 3389POPC   C3A45593  24.613   5.811   7.034
 3389POPC   C4A45594  24.206   5.970   7.189
 3389POPC   C1B45595  25.011   6.397   6.149
 3389POPC   C2B45596  25.007   6.216   6.576
 3389POPC   C3B45597  24.730   6.296   6.921
 3389POPC   C4B45598  24.792   6.596   7.250
 3390POPC   NC345599   8.860  29.006   5.441
 3390POPC   PO445600   8.912  29.670   5.737
 3390POPC   GL145601   8.912  29.270   5.897
 3390POPC   GL245602   9.178  29.003   5.872
 3390POPC   C1A45603   8.928  29.153   6.331
 3390POPC   D2A45604   9.297  29.098   6.582
 3390POPC   C3A45605   9.217  29.086   6.982
 3390POPC   C4A45606   8.922  29.176   7.277
 3390POPC   C1B45607   9.172  28.704   6.259
 3390POPC   C2B45608   8.884  28.721   6.643
 3390POPC   C3B45609   8.654  28.776   7.048
 3390POPC   C4B45610   9.022  28.695   7.247
 3391POPC   NC345611  36.173  15.241   5.343
 3391POPC   PO445612  35.534  15.111   5.506
 3391POPC   GL145613  35.945  15.057   5.790
 3391POPC   GL245614  36.294  15.224   5.812
 3391POPC   C1A45615  36.107  15.103   6.249
 3391POPC   D2A45616  35.936  15.294   6.611
 3391POPC   C3A45617  35.843  15.009   6.927
 3391POPC   C4A45618  36.157  14.989   7.202
 3391POPC   C1B45619  36.601  15.330   6.105
 3391POPC   C2B45620  36.598  15.514   6.492
 3391POPC   C3B45621  36.367  15.418   6.854
 3391POPC   C4B45622  36.469  15.384   7.251
 3392POPC   NC345623  10.462  41.259   5.249
 3392POPC   PO445624  10.665  40.658   5.314
 3392POPC   GL145625  10.475  40.658   5.700
 3392POPC   GL245626  10.532  41.003   5.715
 3392POPC   C1A45627  10.417  40.604   6.160
 3392POPC   D2A45628  10.248  40.509   6.584
 3392POPC   C3A45629  10.540  40.597   6.902
 3392POPC   C4A45630  10.632  40.762   7.305
 3392POPC   C1B45631  10.332  41.106   6.123
 3392POPC   C2B45632  10.473  40.968   6.547
 3392POPC   C3B45633  10.477  41.138   6.974
 3392POPC   C4B45634  10.478  41.277   7.419
 3393POPC   NC345635  18.819  26.499   5.548
 3393POPC   PO445636  19.045  25.862   5.407
 3393POPC   GL145637  19.116  26.150   5.784
 3393POPC   GL245638  18.908  25.886   5.912
 3393POPC   C1A45639  19.225  26.358   6.215
 3393POPC   D2A45640  19.047  26.192   6.628
 3393POPC   C3A45641  19.198  26.190   7.066
 3393POPC   C4A45642  19.282  26.054   7.509
 3393POPC   C1B45643  18.746  26.148   6.206
 3393POPC   C2B45644  18.562  26.019   6.594
 3393POPC   C3B45645  18.762  25.894   6.965
 3393POPC   C4B45646  18.808  26.073   7.368
 3394POPC   NC345647  16.151  33.445   5.544
 3394POPC   PO445648  15.674  33.965   5.525
 3394POPC   GL145649  15.981  33.824   5.849
 3394POPC   GL245650  16.256  34.018   5.871
 3394POPC   C1A45651  16.044  33.559   6.261
 3394POPC   D2A45652  15.770  33.483   6.671
 3394POPC   C3A45653  15.723  33.781   7.041
 3394POPC   C4A45654  15.796  33.738   7.503
 3394POPC   C1B45655  16.095  34.045   6.315
 3394POPC   C2B45656  16.157  33.844   6.730
 3394POPC   C3B45657  16.151  34.044   7.143
 3394POPC   C4B45658  16.299  34.265   7.537
 3395POPC   NC345659  30.414  42.024   5.430
 3395POPC   PO445660  30.900  42.422   5.551
 3395POPC   GL145661  30.633  42.265   5.857
 3395POPC   GL245662  30.816  41.966   5.826
 3395POPC   C1A45663  30.535  42.034   6.258
 3395POPC   D2A45664  30.390  42.100   6.697
 3395POPC   C3A45665  30.511  42.505   6.887
 3395POPC   C4A45666  30.502  42.421   7.332
 3395POPC   C1B45667  31.043  41.860   6.202
 3395POPC   C2B45668  30.897  41.960   6.626
 3395POPC   C3B45669  30.772  42.081   7.066
 3395POPC   C4B45670  30.999  42.233   7.462
 3396POPC   NC345671   0.914  16.066   5.375
 3396POPC   PO445672   0.282  16.181   5.376
 3396POPC   GL145673   0.537  15.998   5.741
 3396POPC   GL245674   0.835  16.187   5.869
 3396POPC   C1A45675   0.499  16.003   6.223
 3396POPC   D2A45676   0.455  16.163   6.669
 3396POPC   C3A45677   0.427  15.842   7.005
 3396POPC   C4A45678   0.659  15.686   7.369
 3396POPC   C1B45679   1.009  15.981   6.264
 3396POPC   C2B45680   0.932  15.980   6.738
 3396POPC   C3B45681   0.762  16.200   7.129
 3396POPC   C4B45682   0.816  16.138   7.608
 3397POPC   NC345683   6.922   6.386   5.436
 3397POPC   PO445684   6.402   6.852   5.423
 3397POPC   GL145685   6.558   6.823   5.840
 3397POPC   GL245686   6.884   6.665   5.870
 3397POPC   C1A45687   6.572   6.920   6.293
 3397POPC   D2A45688   6.795   6.754   6.663
 3397POPC   C3A45689   6.555   6.794   7.035
 3397POPC   C4A45690   6.435   6.477   7.329
 3397POPC   C1B45691   7.070   6.891   6.216
 3397POPC   C2B45692   7.093   7.156   6.618
 3397POPC   C3B45693   7.095   6.982   7.047
 3397POPC   C4B45694   6.967   6.589   7.247
 3398POPC   NC345695  29.217  44.871   5.552
 3398POPC   PO445696  29.601  44.254   5.531
 3398POPC   GL145697  29.453  44.543   5.868
 3398POPC   GL245698  29.071  44.462   5.962
 3398POPC   C1A45699  29.308  44.822   6.205
 3398POPC   D2A45700  29.113  44.692   6.570
 3398POPC   C3A45701  29.277  44.915   6.887
 3398POPC   C4A45702  29.322  44.722   7.270
 3398POPC   C1B45703  28.796  44.818   6.163
 3398POPC   C2B45704  28.666  44.966   6.606
 3398POPC   C3B45705  28.815  44.754   7.023
 3398POPC   C4B45706  28.859  44.689   7.512
 3399POPC   NC345707  21.522  19.251   5.395
 3399POPC   PO445708  21.154  18.627   5.620
 3399POPC   GL145709  21.378  18.944   5.813
 3399POPC   GL245710  21.755  19.005   5.856
 3399POPC   C1A45711  21.303  19.086   6.228
 3399POPC   D2A45712  21.046  19.178   6.591
 3399POPC   C3A45713  20.972  18.833   6.892
 3399POPC   C4A45714  21.220  18.720   7.246
 3399POPC   C1B45715  21.744  19.348   6.192
 3399POPC   C2B45716  21.547  19.356   6.607
 3399POPC   C3B45717  21.397  19.135   6.972
 3399POPC   C4B45718  21.651  19.010   7.321
 3400POPC   NC345719  28.574   2.911   5.047
 3400POPC   PO445720  29.218   2.806   5.300
 3400POPC   GL145721  29.310   2.699   5.749
 3400POPC   GL245722  28.971   2.629   5.866
 3400POPC   C1A45723  29.338   2.789   6.191
 3400POPC   D2A45724  29.543   2.894   6.542
 3400POPC   C3A45725  29.242   2.834   6.850
 3400POPC   C4A45726  29.232   2.704   7.242
 3400POPC   C1B45727  28.842   2.942   6.194
 3400POPC   C2B45728  28.743   2.955   6.649
 3400POPC   C3B45729  28.772   2.978   7.112
 3400POPC   C4B45730  28.771   2.740   7.492
 3401POPC   NC345731   8.021   9.727   5.223
 3401POPC   PO445732   8.377  10.249   5.261
 3401POPC   GL145733   8.153   9.979   5.646
 3401POPC   GL245734   8.326   9.675   5.774
 3401POPC   C1A45735   7.924   9.771   6.045
 3401POPC   D2A45736   7.822   9.739   6.471
 3401POPC   C3A45737   8.116   9.722   6.812
 3401POPC   C4A45738   8.123   9.559   7.250
 3401POPC   C1B45739   8.374   9.789   6.275
 3401POPC   C2B45740   8.493  10.024   6.681
 3401POPC   C3B45741   8.543   9.812   7.108
 3401POPC   C4B45742   8.642   9.370   7.205
 3402POPC   NC345743   3.913   8.663   5.267
 3402POPC   PO445744   3.411   8.227   5.232
 3402POPC   GL145745   3.522   8.224   5.704
 3402POPC   GL245746   3.731   7.931   5.842
 3402POPC   C1A45747   3.484   8.341   6.152
 3402POPC   D2A45748   3.709   8.484   6.525
 3402POPC   C3A45749   3.675   8.308   6.948
 3402POPC   C4A45750   3.864   8.439   7.327
 3402POPC   C1B45751   3.459   7.834   6.201
 3402POPC   C2B45752   3.451   7.958   6.633
 3402POPC   C3B45753   3.356   7.814   7.060
 3402POPC   C4B45754   3.480   8.122   7.389
 3403POPC   NC345755   7.324  34.222   5.511
 3403POPC   PO445756   7.589  33.606   5.326
 3403POPC   GL145757   7.492  33.820   5.785
 3403POPC   GL245758   7.693  34.135   5.866
 3403POPC   C1A45759   7.252  33.694   6.201
 3403POPC   D2A45760   7.233  33.843   6.650
 3403POPC   C3A45761   7.252  33.677   7.104
 3403POPC   C4A45762   7.273  33.673   7.579
 3403POPC   C1B45763   7.662  33.998   6.283
 3403POPC   C2B45764   7.783  34.063   6.701
 3403POPC   C3B45765   7.766  33.840   7.083
 3403POPC   C4B45766   7.761  33.865   7.525
 3404POPC   NC345767   3.568  31.249   5.089
 3404POPC   PO445768   3.741  30.756   5.550
 3404POPC   GL145769   3.547  30.622   5.873
 3404POPC   GL245770   3.546  30.996   5.974
 3404POPC   C1A45771   3.715  30.588   6.267
 3404POPC   D2A45772   3.757  30.919   6.573
 3404POPC   C3A45773   3.724  30.697   6.950
 3404POPC   C4A45774   3.590  30.441   7.267
 3404POPC   C1B45775   3.271  30.817   6.262
 3404POPC   C2B45776   3.332  30.607   6.630
 3404POPC   C3B45777   3.223  30.715   7.040
 3404POPC   C4B45778   3.126  30.720   7.467
 3405POPC   NC345779   4.002  42.140   5.350
 3405POPC   PO445780   4.680  42.394   5.418
 3405POPC   GL145781   4.361  42.349   5.751
 3405POPC   GL245782   4.424  42.706   5.853
 3405POPC   C1A45783   4.148  42.381   6.185
 3405POPC   D2A45784   4.311  42.354   6.630
 3405POPC   C3A45785   4.065  42.308   6.999
 3405POPC   C4A45786   4.172  42.421   7.448
 3405POPC   C1B45787   4.572  42.665   6.303
 3405POPC   C2B45788   4.609  42.769   6.778
 3405POPC   C3B45789   4.562  42.625   7.193
 3405POPC   C4B45790   4.585  42.701   7.629
 3406POPC   NC345791  40.540  40.805   5.440
 3406POPC   PO445792  41.241  40.794   5.200
 3406POPC   GL145793  41.106  40.784   5.710
 3406POPC   GL245794  40.819  40.521   5.831
 3406POPC   C1A45795  40.901  40.897   6.156
 3406POPC   D2A45796  40.614  40.929   6.526
 3406POPC   C3A45797  40.772  40.981   6.961
 3406POPC   C4A45798  41.148  41.051   7.227
 3406POPC   C1B45799  40.951  40.394   6.291
 3406POPC   C2B45800  40.921  40.284   6.745
 3406POPC   C3B45801  40.771  40.502   7.111
 3406POPC   C4B45802  40.370  40.721   7.203
 3407POPC   NC345803  23.275  35.916   5.482
 3407POPC   PO445804  22.577  35.932   5.361
 3407POPC   GL145805  22.831  35.849   5.768
 3407POPC   GL245806  23.000  36.176   5.840
 3407POPC   C1A45807  22.994  35.850   6.241
 3407POPC   D2A45808  23.049  35.915   6.708
 3407POPC   C3A45809  22.764  36.187   6.951
 3407POPC   C4A45810  22.420  36.267   7.239
 3407POPC   C1B45811  23.285  36.280   6.194
 3407POPC   C2B45812  23.196  36.416   6.610
 3407POPC   C3B45813  23.238  36.355   7.043
 3407POPC   C4B45814  23.265  36.334   7.513
 3408POPC   NC345815  24.693  34.020   5.293
 3408POPC   PO445816  24.282  33.448   5.454
 3408POPC   GL145817  24.461  33.772   5.720
 3408POPC   GL245818  24.157  33.875   5.793
 3408POPC   C1A45819  24.519  33.909   6.184
 3408POPC   D2A45820  24.572  33.636   6.557
 3408POPC   C3A45821  24.632  33.766   6.998
 3408POPC   C4A45822  24.520  33.579   7.417
 3408POPC   C1B45823  24.167  33.544   6.136
 3408POPC   C2B45824  24.054  33.615   6.573
 3408POPC   C3B45825  24.132  33.638   7.038
 3408POPC   C4B45826  24.280  33.997   7.304
 3409POPC   NC345827  44.504   1.838   5.336
 3409POPC   PO445828  44.923   2.265   5.389
 3409POPC   GL145829  44.667   2.129   5.746
 3409POPC   GL245830  44.635   1.777   5.810
 3409POPC   C1A45831  44.516   2.194   6.168
 3409POPC   D2A45832  44.656   2.411   6.540
 3409POPC   C3A45833  44.597   2.182   6.889
 3409POPC   C4A45834  44.809   2.128   7.248
 3409POPC   C1B45835  44.857   1.792   6.156
 3409POPC   C2B45836  44.739   1.726   6.562
 3409POPC   C3B45837  44.722   1.695   7.003
 3409POPC   C4B45838  44.619   1.701   7.446
 3410POPC   NC345839  33.481   1.721   5.525
 3410POPC   PO445840  32.843   1.999   5.422
 3410POPC   GL145841  32.944   1.886   5.796
 3410POPC   GL245842  33.248   2.102   5.815
 3410POPC   C1A45843  32.644   1.827   6.117
 3410POPC   D2A45844  32.783   1.704   6.493
 3410POPC   C3A45845  32.676   1.849   6.875
 3410POPC   C4A45846  32.986   1.886   7.168
 3410POPC   C1B45847  33.257   1.812   6.225
 3410POPC   C2B45848  33.265   1.773   6.707
 3410POPC   C3B45849  33.383   1.542   7.126
 3410POPC   C4B45850  33.237   1.628   7.545
 3411POPC   NC345851  32.989  32.834   5.461
 3411POPC   PO445852  33.040  33.439   5.176
 3411POPC   GL145853  32.958  33.327   5.665
 3411POPC   GL245854  33.222  33.118   5.807
 3411POPC   C1A45855  32.832  33.188   6.140
 3411POPC   D2A45856  32.884  32.853   6.518
 3411POPC   C3A45857  32.978  32.941   6.954
 3411POPC   C4A45858  32.908  32.763   7.363
 3411POPC   C1B45859  33.292  32.958   6.209
 3411POPC   C2B45860  33.528  33.166   6.523
 3411POPC   C3B45861  33.446  33.306   6.929
 3411POPC   C4B45862  33.257  33.196   7.309
 3412POPC   NC345863  41.882  21.966   4.929
 3412POPC   PO445864  41.563  22.234   5.495
 3412POPC   GL145865  41.538  22.110   5.848
 3412POPC   GL245866  41.786  22.290   5.990
 3412POPC   C1A45867  41.293  21.927   6.153
 3412POPC   D2A45868  41.140  21.777   6.542
 3412POPC   C3A45869  41.361  21.948   6.877
 3412POPC   C4A45870  41.309  21.990   7.296
 3412POPC   C1B45871  41.819  21.837   6.147
 3412POPC   C2B45872  41.686  21.693   6.528
 3412POPC   C3B45873  41.867  21.740   6.913
 3412POPC   C4B45874  41.840  21.907   7.298
 3413POPC   NC345875   6.564  36.335   5.262
 3413POPC   PO445876   6.591  35.785   5.613
 3413POPC   GL145877   6.668  36.059   5.877
 3413POPC   GL245878   6.798  36.360   5.715
 3413POPC   C1A45879   6.528  36.045   6.259
 3413POPC   D2A45880   6.706  35.882   6.584
 3413POPC   C3A45881   6.477  36.041   6.881
 3413POPC   C4A45882   6.691  35.957   7.222
 3413POPC   C1B45883   6.863  36.452   6.151
 3413POPC   C2B45884   6.690  36.434   6.548
 3413POPC   C3B45885   6.854  36.375   6.905
 3413POPC   C4B45886   6.705  36.457   7.277
 3414POPC   NC345887   9.912  26.125   5.138
 3414POPC   PO445888   9.474  25.839   5.507
 3414POPC   GL145889   9.839  25.984   5.760
 3414POPC   GL245890  10.023  26.290   5.609
 3414POPC   C1A45891   9.823  25.876   6.225
 3414POPC   D2A45892   9.487  25.966   6.536
 3414POPC   C3A45893   9.573  25.840   6.961
 3414POPC   C4A45894   9.592  26.126   7.284
 3414POPC   C1B45895  10.164  26.294   6.044
 3414POPC   C2B45896  10.260  26.125   6.446
 3414POPC   C3B45897  10.064  26.084   6.849
 3414POPC   C4B45898  10.077  26.265   7.257
 3415POPC   NC345899   5.695  10.944   5.187
 3415POPC   PO445900   6.083  11.431   5.322
 3415POPC   GL145901   5.842  11.415   5.693
 3415POPC   GL245902   6.079  11.660   5.826
 3415POPC   C1A45903   5.744  11.394   6.145
 3415POPC   D2A45904   5.739  11.549   6.568
 3415POPC   C3A45905   5.793  11.231   6.880
 3415POPC   C4A45906   5.567  11.194   7.229
 3415POPC   C1B45907   6.246  11.477   6.171
 3415POPC   C2B45908   6.196  11.330   6.553
 3415POPC   C3B45909   6.239  11.478   6.957
 3415POPC   C4B45910   6.001  11.493   7.312
 3416POPC   NC345911  44.878  26.701   5.573
 3416POPC   PO445912  44.381  27.105   5.432
 3416POPC   GL145913  44.308  27.035   5.856
 3416POPC   GL245914  44.380  26.687   5.906
 3416POPC   C1A45915  44.334  27.033   6.311
 3416POPC   D2A45916  44.374  26.711   6.605
 3416POPC   C3A45917  44.639  26.881   6.903
 3416POPC   C4A45918  44.695  27.185   7.211
 3416POPC   C1B45919  44.714  26.632   6.230
 3416POPC   C2B45920  44.790  26.439   6.656
 3416POPC   C3B45921  44.576  26.403   7.063
 3416POPC   C4B45922  44.954  26.447   7.300
 3417POPC   NC345923  41.671  11.599   5.376
 3417POPC   PO445924  41.785  11.014   5.450
 3417POPC   GL145925  41.535  11.217   5.819
 3417POPC   GL245926  41.401  11.559   5.869
 3417POPC   C1A45927  41.495  11.210   6.267
 3417POPC   D2A45928  41.770  11.319   6.576
 3417POPC   C3A45929  41.643  11.201   6.972
 3417POPC   C4A45930  41.246  11.097   7.164
 3417POPC   C1B45931  41.367  11.689   6.330
 3417POPC   C2B45932  41.526  11.723   6.757
 3417POPC   C3B45933  41.430  11.615   7.160
 3417POPC   C4B45934  41.465  11.859   7.514
 3418POPC   NC345935  17.384   5.034   5.446
 3418POPC   PO445936  18.035   5.061   5.415
 3418POPC   GL145937  17.704   4.985   5.833
 3418POPC   GL245938  17.531   5.309   5.852
 3418POPC   C1A45939  17.521   5.012   6.316
 3418POPC   D2A45940  17.810   5.195   6.692
 3418POPC   C3A45941  17.753   4.981   7.084
 3418POPC   C4A45942  17.402   4.721   7.229
 3418POPC   C1B45943  17.718   5.469   6.220
 3418POPC   C2B45944  17.420   5.498   6.554
 3418POPC   C3B45945  17.344   5.204   6.887
 3418POPC   C4B45946  17.384   5.235   7.362
 3419POPC   NC345947  39.848  32.056   5.575
 3419POPC   PO445948  40.342  31.592   5.438
 3419POPC   GL145949  40.286  31.532   5.851
 3419POPC   GL245950  40.225  31.177   5.834
 3419POPC   C1A45951  40.167  31.746   6.235
 3419POPC   D2A45952  39.865  31.617   6.559
 3419POPC   C3A45953  40.063  31.402   6.917
 3419POPC   C4A45954  40.166  31.607   7.307
 3419POPC   C1B45955  39.881  31.288   6.148
 3419POPC   C2B45956  39.716  31.115   6.550
 3419POPC   C3B45957  39.603  31.183   6.956
 3419POPC   C4B45958  39.762  31.264   7.351
 3420POPC   NC345959   6.178   5.719   5.401
 3420POPC   PO445960   6.793   5.933   5.479
 3420POPC   GL145961   6.485   5.975   5.790
 3420POPC   GL245962   6.531   6.299   5.850
 3420POPC   C1A45963   6.375   5.783   6.203
 3420POPC   D2A45964   6.465   5.474   6.584
 3420POPC   C3A45965   6.476   5.625   7.027
 3420POPC   C4A45966   6.661   5.716   7.470
 3420POPC   C1B45967   6.692   6.399   6.289
 3420POPC   C2B45968   6.570   6.304   6.736
 3420POPC   C3B45969   6.682   6.098   7.107
 3420POPC   C4B45970   6.814   6.189   7.520
 3421POPC   NC345971  34.794   3.041   5.366
 3421POPC   PO445972  34.664   3.608   5.250
 3421POPC   GL145973  34.732   3.622   5.710
 3421POPC   GL245974  34.546   3.320   5.742
 3421POPC   C1A45975  34.747   3.745   6.199
 3421POPC   D2A45976  34.708   3.562   6.656
 3421POPC   C3A45977  34.693   3.872   7.025
 3421POPC   C4A45978  34.669   3.947   7.504
 3421POPC   C1B45979  34.588   3.249   6.203
 3421POPC   C2B45980  34.559   3.063   6.626
 3421POPC   C3B45981  34.603   3.235   7.058
 3421POPC   C4B45982  34.868   3.498   7.319
 3422POPC   NC345983   7.019   8.698   5.262
 3422POPC   PO445984   7.391   8.108   5.283
 3422POPC   GL145985   7.340   8.244   5.724
 3422POPC   GL245986   7.163   7.992   5.922
 3422POPC   C1A45987   7.430   8.356   6.170
 3422POPC   D2A45988   7.601   8.265   6.595
 3422POPC   C3A45989   7.390   8.346   6.999
 3422POPC   C4A45990   7.507   8.359   7.439
 3422POPC   C1B45991   7.301   7.907   6.381
 3422POPC   C2B45992   7.382   7.857   6.846
 3422POPC   C3B45993   7.449   7.841   7.292
 3422POPC   C4B45994   7.586   7.522   7.598
 3423POPC   NC345995  44.107  28.171   5.557
 3423POPC   PO445996  44.461  28.681   5.148
 3423POPC   GL145997  44.653  28.475   5.682
 3423POPC   GL245998  44.405  28.397   5.923
 3423POPC   C1A45999  44.807  28.419   6.204
 3423POPC   D2A46000  44.656  28.421   6.657
 3423POPC   C3A46001  44.872  28.155   6.959
 3423POPC   C4A46002  44.776  28.171   7.407
 3423POPC   C1B46003  44.455  28.766   6.238
 3423POPC   C2B46004  44.310  28.826   6.626
 3423POPC   C3B46005  44.547  28.909   6.958
 3423POPC   C4B46006  44.753  28.612   7.163
 3424POPC   NC346007  38.743  44.426   5.534
 3424POPC   PO446008  38.191  44.778   5.403
 3424POPC   GL146009  38.408  44.768   5.798
 3424POPC   GL246010  38.721  44.919   5.885
 3424POPC   C1A46011  38.190  44.833   6.215
 3424POPC   D2A46012  38.104  44.802   6.641
 3424POPC   C3A46013  38.306   0.130   6.875
 3424POPC   C4A46014  38.628  44.969   7.166
 3424POPC   C1B46015  38.633  44.619   6.267
 3424POPC   C2B46016  38.609  44.653   6.743
 3424POPC   C3B46017  38.612  44.462   7.162
 3424POPC   C4B46018  38.294  44.426   7.498
 3425POPC   NC346019  29.726  37.363   5.444
 3425POPC   PO446020  30.171  37.813   5.379
 3425POPC   GL146021  30.076  37.735   5.802
 3425POPC   GL246022  29.806  37.974   5.807
 3425POPC   C1A46023  30.146  37.485   6.196
 3425POPC   D2A46024  30.014  37.577   6.620
 3425POPC   C3A46025  30.081  37.336   6.984
 3425POPC   C4A46026  30.278  37.519   7.339
 3425POPC   C1B46027  29.742  37.810   6.226
 3425POPC   C2B46028  29.582  37.862   6.645
 3425POPC   C3B46029  29.696  37.705   7.055
 3425POPC   C4B46030  29.756  37.940   7.443
 3426POPC   NC346031   5.318  24.668   5.370
 3426POPC   PO446032   5.456  24.064   5.560
 3426POPC   GL146033   5.226  24.355   5.818
 3426POPC   GL246034   4.937  24.486   5.699
 3426POPC   C1A46035   5.194  24.619   6.184
 3426POPC   D2A46036   5.412  24.574   6.591
 3426POPC   C3A46037   5.237  24.635   6.995
 3426POPC   C4A46038   5.451  24.657   7.386
 3426POPC   C1B46039   4.811  24.270   6.113
 3426POPC   C2B46040   4.919  24.361   6.555
 3426POPC   C3B46041   4.800  24.341   6.998
 3426POPC   C4B46042   4.941  24.119   7.363
 3427POPC   NC346043  20.917  19.995   5.371
 3427POPC   PO446044  20.295  20.069   5.502
 3427POPC   GL146045  20.570  20.152   5.835
 3427POPC   GL246046  20.761  19.844   5.875
 3427POPC   C1A46047  20.641  20.137   6.298
 3427POPC   D2A46048  20.693  19.736   6.531
 3427POPC   C3A46049  20.822  19.772   6.969
 3427POPC   C4A46050  21.057  19.748   7.349
 3427POPC   C1B46051  20.367  19.755   6.111
 3427POPC   C2B46052  20.145  19.872   6.479
 3427POPC   C3B46053  20.304  19.742   6.895
 3427POPC   C4B46054  20.457  19.744   7.350
 3428POPC   NC346055  15.595  32.981   5.095
 3428POPC   PO446056  15.047  32.766   5.288
 3428POPC   GL146057  15.012  32.720   5.739
 3428POPC   GL246058  14.896  33.064   5.845
 3428POPC   C1A46059  15.156  32.765   6.195
 3428POPC   D2A46060  15.019  33.091   6.508
 3428POPC   C3A46061  15.234  33.171   6.914
 3428POPC   C4A46062  15.375  32.903   7.235
 3428POPC   C1B46063  14.654  32.770   6.086
 3428POPC   C2B46064  14.717  32.672   6.519
 3428POPC   C3B46065  14.889  32.791   6.919
 3428POPC   C4B46066  14.925  32.700   7.367
 3429POPC   NC346067  40.729  17.781   5.256
 3429POPC   PO446068  40.439  17.918   5.802
 3429POPC   GL146069  40.780  17.713   5.943
 3429POPC   GL246070  40.800  17.491   5.674
 3429POPC   C1A46071  40.808  17.635   6.398
 3429POPC   D2A46072  40.759  17.814   6.820
 3429POPC   C3A46073  40.564  17.545   7.105
 3429POPC   C4A46074  40.630  17.111   7.250
 3429POPC   C1B46075  41.071  17.281   5.975
 3429POPC   C2B46076  41.202  17.262   6.395
 3429POPC   C3B46077  41.083  17.165   6.816
 3429POPC   C4B46078  41.051  17.415   7.160
 3430POPC   NC346079  34.960  16.718   5.457
 3430POPC   PO446080  35.620  16.661   5.405
 3430POPC   GL146081  35.389  16.767   5.794
 3430POPC   GL246082  35.338  17.111   5.759
 3430POPC   C1A46083  35.214  16.603   6.220
 3430POPC   D2A46084  35.368  16.474   6.646
 3430POPC   C3A46085  35.129  16.420   7.027
 3430POPC   C4A46086  35.153  16.654   7.395
 3430POPC   C1B46087  35.478  17.078   6.202
 3430POPC   C2B46088  35.252  16.974   6.588
 3430POPC   C3B46089  35.330  16.956   7.015
 3430POPC   C4B46090  35.142  17.211   7.355
 3431POPC   NC346091  44.136  28.347   5.071
 3431POPC   PO446092  43.539  28.424   5.446
 3431POPC   GL146093  43.753  28.414   5.824
 3431POPC   GL246094  43.803  28.734   5.944
 3431POPC   C1A46095  43.616  28.241   6.209
 3431POPC   D2A46096  43.644  28.405   6.635
 3431POPC   C3A46097  43.788  28.145   6.956
 3431POPC   C4A46098  43.824  28.299   7.363
 3431POPC   C1B46099  44.049  28.473   6.263
 3431POPC   C2B46100  44.160  28.329   6.666
 3431POPC   C3B46101  44.205  28.521   7.074
 3431POPC   C4B46102  44.310  28.358   7.500
 3432POPC   NC346103  40.551  31.999   5.402
 3432POPC   PO446104  40.399  32.608   5.142
 3432POPC   GL146105  40.709  32.537   5.600
 3432POPC   GL246106  40.884  32.200   5.727
 3432POPC   C1A46107  40.751  32.530   6.097
 3432POPC   D2A46108  40.473  32.370   6.449
 3432POPC   C3A46109  40.502  32.225   6.892
 3432POPC   C4A46110  40.810  32.321   7.182
 3432POPC   C1B46111  40.634  32.014   6.092
 3432POPC   C2B46112  40.709  31.893   6.533
 3432POPC   C3B46113  40.872  31.869   6.954
 3432POPC   C4B46114  40.619  31.850   7.342
 3433POPC   NC346115  20.783   7.255   4.902
 3433POPC   PO446116  20.472   7.338   5.473
 3433POPC   GL146117  20.585   7.438   5.889
 3433POPC   GL246118  20.686   7.792   5.847
 3433POPC   C1A46119  20.492   7.219   6.294
 3433POPC   D2A46120  20.284   7.324   6.717
 3433POPC   C3A46121  20.481   7.216   7.127
 3433POPC   C4A46122  20.281   7.205   7.556
 3433POPC   C1B46123  20.800   7.688   6.271
 3433POPC   C2B46124  20.758   7.503   6.646
 3433POPC   C3B46125  20.767   7.693   7.029
 3433POPC   C4B46126  21.047   7.835   7.329
 3434POPC   NC346127  37.435  37.670   5.133
 3434POPC   PO446128  36.984  37.503   5.488
 3434POPC   GL146129  36.869  37.573   5.898
 3434POPC   GL246130  37.234  37.587   5.966
 3434POPC   C1A46131  36.826  37.779   6.330
 3434POPC   D2A46132  36.708  37.930   6.756
 3434POPC   C3A46133  36.699  37.644   7.100
 3434POPC   C4A46134  36.772  37.344   7.370
 3434POPC   C1B46135  37.316  37.932   6.269
 3434POPC   C2B46136  37.243  37.946   6.689
 3434POPC   C3B46137  37.140  37.865   7.091
 3434POPC   C4B46138  36.991  37.790   7.511
 3435POPC   NC346139  28.338   3.947   5.358
 3435POPC   PO446140  28.457   3.288   5.292
 3435POPC   GL146141  28.449   3.560   5.673
 3435POPC   GL246142  28.121   3.593   5.717
 3435POPC   C1A46143  28.356   3.806   6.113
 3435POPC   D2A46144  28.091   3.751   6.470
 3435POPC   C3A46145  28.312   3.759   6.858
 3435POPC   C4A46146  28.457   3.539   7.218
 3435POPC   C1B46147  28.251   3.302   6.073
 3435POPC   C2B46148  28.122   3.233   6.502
 3435POPC   C3B46149  28.321   3.176   6.879
 3435POPC   C4B46150  28.225   3.060   7.293
 3436POPC   NC346151  35.190   4.853   5.415
 3436POPC   PO446152  35.764   4.531   5.321
 3436POPC   GL146153  35.565   4.660   5.787
 3436POPC   GL246154  35.427   4.994   5.845
 3436POPC   C1A46155  35.474   4.748   6.275
 3436POPC   D2A46156  35.662   4.906   6.683
 3436POPC   C3A46157  35.419   4.916   7.077
 3436POPC   C4A46158  35.070   4.864   7.382
 3436POPC   C1B46159  35.221   5.184   6.223
 3436POPC   C2B46160  35.120   5.152   6.672
 3436POPC   C3B46161  35.176   5.366   7.063
 3436POPC   C4B46162  35.019   5.357   7.482
 3437POPC   NC346163  29.180   4.065   5.554
 3437POPC   PO446164  29.176   4.796   5.515
 3437POPC   GL146165  29.234   4.681   5.935
 3437POPC   GL246166  28.984   4.395   5.938
 3437POPC   C1A46167  29.178   4.714   6.394
 3437POPC   D2A46168  28.913   4.505   6.687
 3437POPC   C3A46169  29.116   4.336   7.018
 3437POPC   C4A46170  29.084   3.941   7.183
 3437POPC   C1B46171  28.981   4.142   6.330
 3437POPC   C2B46172  28.839   3.943   6.726
 3437POPC   C3B46173  28.624   4.115   7.084
 3437POPC   C4B46174  28.821   4.344   7.450
 3438POPC   NC346175  38.199  28.263   5.334
 3438POPC   PO446176  37.984  28.791   5.536
 3438POPC   GL146177  38.292  28.589   5.820
 3438POPC   GL246178  38.363  28.214   5.833
 3438POPC   C1A46179  38.277  28.480   6.248
 3438POPC   D2A46180  38.061  28.490   6.600
 3438POPC   C3A46181  38.297  28.513   6.963
 3438POPC   C4A46182  38.531  28.285   7.253
 3438POPC   C1B46183  38.675  28.171   6.238
 3438POPC   C2B46184  38.737  28.232   6.742
 3438POPC   C3B46185  38.984  28.059   7.135
 3438POPC   C4B46186  38.773  27.870   7.492
 3439POPC   NC346187   6.645  24.641   5.472
 3439POPC   PO446188   6.516  23.959   5.491
 3439POPC   GL146189   6.771  24.179   5.848
 3439POPC   GL246190   6.879  24.544   5.911
 3439POPC   C1A46191   6.689  24.178   6.263
 3439POPC   D2A46192   6.319  24.352   6.449
 3439POPC   C3A46193   6.293  24.401   6.877
 3439POPC   C4A46194   6.430  24.207   7.236
 3439POPC   C1B46195   6.710  24.682   6.304
 3439POPC   C2B46196   6.784  24.482   6.707
 3439POPC   C3B46197   6.807  24.508   7.141
 3439POPC   C4B46198   6.415  24.701   7.287
 3440POPC   NC346199   6.054   7.589   5.456
 3440POPC   PO446200   5.507   7.193   5.378
 3440POPC   GL146201   5.593   7.458   5.736
 3440POPC   GL246202   5.527   7.188   5.937
 3440POPC   C1A46203   5.880   7.588   6.074
 3440POPC   D2A46204   5.999   7.596   6.492
 3440POPC   C3A46205   5.881   7.533   6.906
 3440POPC   C4A46206   6.192   7.412   7.210
 3440POPC   C1B46207   5.638   7.249   6.371
 3440POPC   C2B46208   5.853   7.040   6.722
 3440POPC   C3B46209   5.811   7.070   7.148
 3440POPC   C4B46210   5.558   7.309   7.261
 3441POPC   NC346211  22.823  35.237   5.307
 3441POPC   PO446212  23.394  34.856   5.262
 3441POPC   GL146213  23.177  35.012   5.733
 3441POPC   GL246214  22.790  35.205   5.811
 3441POPC   C1A46215  23.083  35.115   6.201
 3441POPC   D2A46216  23.102  35.390   6.562
 3441POPC   C3A46217  22.991  35.163   6.959
 3441POPC   C4A46218  23.242  35.411   7.298
 3441POPC   C1B46219  22.681  35.435   6.237
 3441POPC   C2B46220  22.608  35.408   6.705
 3441POPC   C3B46221  22.811  35.621   7.061
 3441POPC   C4B46222  23.133  35.904   7.213
 3442POPC   NC346223  23.839  36.433   5.412
 3442POPC   PO446224  23.729  35.797   5.310
 3442POPC   GL146225  23.775  36.008   5.711
 3442POPC   GL246226  24.059  36.222   5.828
 3442POPC   C1A46227  23.723  36.002   6.144
 3442POPC   D2A46228  23.506  35.915   6.502
 3442POPC   C3A46229  23.660  36.078   6.858
 3442POPC   C4A46230  23.682  35.892   7.256
 3442POPC   C1B46231  24.031  36.420   6.250
 3442POPC   C2B46232  24.233  36.566   6.632
 3442POPC   C3B46233  24.102  36.372   7.020
 3442POPC   C4B46234  23.701  36.414   7.233
 3443POPC   NC346235  38.030  37.915   5.557
 3443POPC   PO446236  37.674  37.396   5.411
 3443POPC   GL146237  37.749  37.544   5.835
 3443POPC   GL246238  37.680  37.886   5.927
 3443POPC   C1A46239  37.783  37.574   6.302
 3443POPC   D2A46240  37.928  37.477   6.702
 3443POPC   C3A46241  37.527  37.516   6.904
 3443POPC   C4A46242  37.257  37.395   7.243
 3443POPC   C1B46243  37.918  38.072   6.221
 3443POPC   C2B46244  37.750  38.057   6.611
 3443POPC   C3B46245  37.848  37.909   6.980
 3443POPC   C4B46246  37.591  37.792   7.319
 3444POPC   NC346247  31.582   5.264   5.350
 3444POPC   PO446248  32.003   5.089   5.861
 3444POPC   GL146249  31.537   5.158   5.867
 3444POPC   GL246250  31.390   4.874   5.761
 3444POPC   C1A46251  31.203   5.204   6.206
 3444POPC   D2A46252  31.332   5.200   6.685
 3444POPC   C3A46253  31.580   5.303   7.103
 3444POPC   C4A46254  31.759   5.019   7.454
 3444POPC   C1B46255  31.486   4.783   6.237
 3444POPC   C2B46256  31.366   4.685   6.702
 3444POPC   C3B46257  31.458   4.820   7.083
 3444POPC   C4B46258  31.265   4.885   7.486
 3445POPC   NC346259  35.497  15.931   5.410
 3445POPC   PO446260  34.951  16.320   5.675
 3445POPC   GL146261  35.362  16.264   5.796
 3445POPC   GL246262  35.261  15.965   5.858
 3445POPC   C1A46263  35.519  16.177   6.221
 3445POPC   D2A46264  35.223  16.011   6.509
 3445POPC   C3A46265  35.421  16.004   6.907
 3445POPC   C4A46266  35.652  15.956   7.272
 3445POPC   C1B46267  35.266  15.672   6.143
 3445POPC   C2B46268  35.018  15.501   6.458
 3445POPC   C3B46269  35.041  15.443   6.864
 3445POPC   C4B46270  35.198  15.676   7.241
 3446POPC   NC346271  36.637   2.591   5.074
 3446POPC   PO446272  36.097   2.949   5.400
 3446POPC   GL146273  36.125   2.934   5.855
 3446POPC   GL246274  36.001   2.609   5.834
 3446POPC   C1A46275  36.193   2.755   6.301
 3446POPC   D2A46276  36.328   2.809   6.753
 3446POPC   C3A46277  36.165   2.727   7.167
 3446POPC   C4A46278  36.273   2.957   7.561
 3446POPC   C1B46279  35.911   2.310   6.118
 3446POPC   C2B46280  35.709   2.276   6.503
 3446POPC   C3B46281  35.797   2.558   6.828
 3446POPC   C4B46282  35.716   2.490   7.252
 3447POPC   NC346283  36.605  13.366   5.446
 3447POPC   PO446284  37.038  13.858   5.556
 3447POPC   GL146285  36.911  13.582   5.898
 3447POPC   GL246286  36.548  13.445   5.959
 3447POPC   C1A46287  37.095  13.658   6.305
 3447POPC   D2A46288  37.307  13.775   6.686
 3447POPC   C3A46289  37.108  13.524   6.948
 3447POPC   C4A46290  37.046  13.364   7.325
 3447POPC   C1B46291  36.579  13.780   6.266
 3447POPC   C2B46292  36.772  13.857   6.669
 3447POPC   C3B46293  36.694  13.770   7.084
 3447POPC   C4B46294  36.555  13.495   7.430
 3448POPC   NC346295  10.348  39.285   5.094
 3448POPC   PO446296  10.622  38.873   5.482
 3448POPC   GL146297  10.401  39.132   5.729
 3448POPC   GL246298  10.689  39.195   5.958
 3448POPC   C1A46299  10.207  39.225   6.095
 3448POPC   D2A46300  10.336  39.241   6.493
 3448POPC   C3A46301  10.283  39.131   6.919
 3448POPC   C4A46302  10.226  39.246   7.345
 3448POPC   C1B46303  10.820  39.332   6.352
 3448POPC   C2B46304  10.718  39.453   6.779
 3448POPC   C3B46305  10.721  39.278   7.182
 3448POPC   C4B46306  10.802  39.007   7.508
 3449POPC   NC346307  27.206   3.062   5.602
 3449POPC   PO446308  26.771   2.571   5.372
 3449POPC   GL146309  26.734   2.683   5.807
 3449POPC   GL246310  27.059   2.542   5.886
 3449POPC   C1A46311  26.468   2.675   6.202
 3449POPC   D2A46312  26.495   2.905   6.602
 3449POPC   C3A46313  26.553   2.796   7.001
 3449POPC   C4A46314  26.879   2.935   7.270
 3449POPC   C1B46315  26.969   2.734   6.299
 3449POPC   C2B46316  27.023   2.828   6.740
 3449POPC   C3B46317  27.294   3.120   6.943
 3449POPC   C4B46318  27.262   3.245   7.344
 3450POPC   NC346319  32.298  39.230   5.083
 3450POPC   PO446320  31.682  39.411   5.290
 3450POPC   GL146321  31.874  39.472   5.741
 3450POPC   GL246322  32.149  39.162   5.825
 3450POPC   C1A46323  32.084  39.561   6.142
 3450POPC   D2A46324  32.119  39.384   6.543
 3450POPC   C3A46325  32.371  39.519   6.851
 3450POPC   C4A46326  32.123  39.491   7.192
 3450POPC   C1B46327  32.452  39.165   6.180
 3450POPC   C2B46328  32.471  39.018   6.600
 3450POPC   C3B46329  32.237  39.032   6.981
 3450POPC   C4B46330  32.297  39.045   7.420
 3451POPC   NC346331  44.783  10.905   5.453
 3451POPC   PO446332  44.804  10.291   5.575
 3451POPC   GL146333  44.757  10.646   5.905
 3451POPC   GL246334  44.992  10.933   5.926
 3451POPC   C1A46335  44.552  10.605   6.308
 3451POPC   D2A46336  44.544  10.253   6.602
 3451POPC   C3A46337  44.544  10.395   7.025
 3451POPC   C4A46338  44.555  10.842   7.177
 3451POPC   C1B46339   0.023  10.806   6.354
 3451POPC   C2B46340  44.847  10.673   6.733
 3451POPC   C3B46341   0.016  10.612   7.148
 3451POPC   C4B46342   0.108  10.732   7.580
 3452POPC   NC346343  44.474  41.371   5.508
 3452POPC   PO446344  44.704  41.895   5.229
 3452POPC   GL146345  44.660  41.810   5.688
 3452POPC   GL246346  44.977  41.595   5.752
 3452POPC   C1A46347  44.624  41.684   6.138
 3452POPC   D2A46348  44.517  41.252   6.361
 3452POPC   C3A46349  44.485  41.232   6.816
 3452POPC   C4A46350  44.281  41.381   7.175
 3452POPC   C1B46351   0.007  41.367   6.171
 3452POPC   C2B46352  44.952  41.366   6.636
 3452POPC   C3B46353  44.856  41.707   6.974
 3452POPC   C4B46354  44.865  41.791   7.438
 3453POPC   NC346355  18.242  43.694   5.150
 3453POPC   PO446356  18.370  44.225   5.538
 3453POPC   GL146357  18.328  43.961   5.877
 3453POPC   GL246358  18.390  43.602   5.832
 3453POPC   C1A46359  18.419  44.055   6.302
 3453POPC   D2A46360  18.552  44.149   6.727
 3453POPC   C3A46361  18.234  44.147   7.049
 3453POPC   C4A46362  18.355  44.035   7.445
 3453POPC   C1B46363  18.114  43.638   6.214
 3453POPC   C2B46364  18.175  43.790   6.657
 3453POPC   C3B46365  18.459  43.711   7.007
 3453POPC   C4B46366  18.134  43.595   7.246
 3454POPC   NC346367   8.457  35.976   5.097
 3454POPC   PO446368   8.978  36.124   5.343
 3454POPC   GL146369   8.914  36.174   5.755
 3454POPC   GL246370   9.241  36.285   5.881
 3454POPC   C1A46371   8.788  36.062   6.149
 3454POPC   D2A46372   8.751  36.198   6.553
 3454POPC   C3A46373   9.006  36.084   6.881
 3454POPC   C4A46374   8.906  35.875   7.267
 3454POPC   C1B46375   9.261  36.231   6.339
 3454POPC   C2B46376   9.148  36.533   6.638
 3454POPC   C3B46377   9.180  36.582   7.030
 3454POPC   C4B46378   9.169  36.289   7.335
 3455POPC   NC346379  43.696   4.036   5.591
 3455POPC   PO446380  44.221   4.391   5.576
 3455POPC   GL146381  43.895   4.351   5.937
 3455POPC   GL246382  43.717   4.012   6.067
 3455POPC   C1A46383  43.797   4.393   6.375
 3455POPC   D2A46384  43.665   4.036   6.569
 3455POPC   C3A46385  43.755   4.075   6.970
 3455POPC   C4A46386  43.818   4.472   7.201
 3455POPC   C1B46387  44.121   3.990   6.239
 3455POPC   C2B46388  44.115   3.824   6.631
 3455POPC   C3B46389  44.315   3.821   6.990
 3455POPC   C4B46390  44.191   4.114   7.242
 3456POPC   NC346391  26.130   5.265   5.474
 3456POPC   PO446392  25.973   4.664   5.314
 3456POPC   GL146393  25.994   4.884   5.788
 3456POPC   GL246394  25.890   5.238   5.924
 3456POPC   C1A46395  26.196   4.991   6.228
 3456POPC   D2A46396  26.104   5.269   6.588
 3456POPC   C3A46397  26.156   5.122   7.041
 3456POPC   C4A46398  26.235   5.101   7.502
 3456POPC   C1B46399  25.683   5.476   6.283
 3456POPC   C2B46400  25.710   5.607   6.750
 3456POPC   C3B46401  25.681   5.373   7.170
 3456POPC   C4B46402  25.727   5.062   7.533
 3457POPC   NC346403  18.319  33.403   5.452
 3457POPC   PO446404  18.881  33.741   5.151
 3457POPC   GL146405  18.604  33.814   5.576
 3457POPC   GL246406  18.238  33.843   5.679
 3457POPC   C1A46407  18.593  33.806   6.067
 3457POPC   D2A46408  18.416  33.582   6.443
 3457POPC   C3A46409  18.404  33.785   6.871
 3457POPC   C4A46410  18.453  33.809   7.333
 3457POPC   C1B46411  18.049  33.744   6.094
 3457POPC   C2B46412  17.981  33.839   6.560
 3457POPC   C3B46413  17.902  33.668   6.989
 3457POPC   C4B46414  17.921  33.779   7.441
 3458POPC   NC346415  40.503  38.009   5.473
 3458POPC   PO446416  41.100  37.644   5.400
 3458POPC   GL146417  40.789  37.643   5.717
 3458POPC   GL246418  40.852  37.353   5.907
 3458POPC   C1A46419  40.660  37.730   6.166
 3458POPC   D2A46420  40.714  37.512   6.556
 3458POPC   C3A46421  40.685  37.841   6.836
 3458POPC   C4A46422  40.734  37.865   7.275
 3458POPC   C1B46423  41.165  37.404   6.259
 3458POPC   C2B46424  41.244  37.534   6.669
 3458POPC   C3B46425  40.993  37.435   7.026
 3458POPC   C4B46426  41.122  37.381   7.427
 3459POPC   NC346427   1.418  11.040   5.474
 3459POPC   PO446428   0.994  10.518   5.400
 3459POPC   GL146429   1.176  10.488   5.842
 3459POPC   GL246430   1.466  10.671   5.821
 3459POPC   C1A46431   1.422  10.443   6.266
 3459POPC   D2A46432   1.601  10.416   6.695
 3459POPC   C3A46433   1.247  10.454   6.968
 3459POPC   C4A46434   0.933  10.397   7.309
 3459POPC   C1B46435   1.479  10.957   6.168
 3459POPC   C2B46436   1.422  10.926   6.567
 3459POPC   C3B46437   1.474  10.938   6.965
 3459POPC   C4B46438   1.423  10.745   7.336
 3460POPC   NC346439   4.298  30.514   5.206
 3460POPC   PO446440   3.997  31.090   5.233
 3460POPC   GL146441   4.135  30.983   5.743
 3460POPC   GL246442   4.249  30.639   5.720
 3460POPC   C1A46443   4.109  30.882   6.177
 3460POPC   D2A46444   4.181  30.632   6.542
 3460POPC   C3A46445   4.190  30.862   6.937
 3460POPC   C4A46446   4.074  30.630   7.337
 3460POPC   C1B46447   4.514  30.580   6.106
 3460POPC   C2B46448   4.632  30.376   6.510
 3460POPC   C3B46449   4.429  30.395   6.938
 3460POPC   C4B46450   4.602  30.729   7.210
 3461POPC   NC346451  31.830  35.885   5.399
 3461POPC   PO446452  32.308  36.394   5.417
 3461POPC   GL146453  32.324  36.260   5.846
 3461POPC   GL246454  32.112  35.958   5.828
 3461POPC   C1A46455  32.485  36.353   6.247
 3461POPC   D2A46456  32.292  36.183   6.581
 3461POPC   C3A46457  32.299  36.402   6.937
 3461POPC   C4A46458  31.987  36.291   7.243
 3461POPC   C1B46459  32.341  35.827   6.183
 3461POPC   C2B46460  32.297  35.652   6.590
 3461POPC   C3B46461  32.110  35.837   6.946
 3461POPC   C4B46462  31.885  35.733   7.293
 3462POPC   NC346463  23.015   8.604   5.452
 3462POPC   PO446464  22.926   9.206   5.069
 3462POPC   GL146465  22.844   9.076   5.561
 3462POPC   GL246466  22.944   9.331   5.806
 3462POPC   C1A46467  22.825   8.846   6.007
 3462POPC   D2A46468  22.929   8.785   6.438
 3462POPC   C3A46469  22.779   8.658   6.810
 3462POPC   C4A46470  22.890   8.779   7.195
 3462POPC   C1B46471  23.010   9.258   6.270
 3462POPC   C2B46472  23.015   9.200   6.759
 3462POPC   C3B46473  22.837   9.283   7.181
 3462POPC   C4B46474  22.905   9.070   7.624
 3463POPC   NC346475  18.432  30.839   5.493
 3463POPC   PO446476  18.028  30.437   5.703
 3463POPC   GL146477  18.218  30.702   5.965
 3463POPC   GL246478  18.524  30.588   5.919
 3463POPC   C1A46479  18.283  30.781   6.389
 3463POPC   D2A46480  18.444  31.041   6.689
 3463POPC   C3A46481  18.425  30.882   7.072
 3463POPC   C4A46482  18.129  30.767   7.359
 3463POPC   C1B46483  18.740  30.566   6.279
 3463POPC   C2B46484  18.626  30.509   6.683
 3463POPC   C3B46485  18.732  30.389   7.096
 3463POPC   C4B46486  18.623  30.610   7.463
 3464POPC   NC346487  11.462  20.019   5.272
 3464POPC   PO446488  11.005  19.608   5.354
 3464POPC   GL146489  11.070  19.830   5.730
 3464POPC   GL246490  11.404  19.986   5.779
 3464POPC   C1A46491  11.114  19.896   6.174
 3464POPC   D2A46492  11.157  19.663   6.521
 3464POPC   C3A46493  11.144  19.853   6.894
 3464POPC   C4A46494  10.979  19.753   7.277
 3464POPC   C1B46495  11.636  19.956   6.205
 3464POPC   C2B46496  11.628  19.844   6.660
 3464POPC   C3B46497  11.627  19.847   7.132
 3464POPC   C4B46498  11.678  19.653   7.542
 3465POPC   NC346499  37.847  15.345   5.371
 3465POPC   PO446500  37.287  14.765   5.441
 3465POPC   GL146501  37.431  15.081   5.789
 3465POPC   GL246502  37.312  15.439   5.788
 3465POPC   C1A46503  37.661  15.227   6.197
 3465POPC   D2A46504  37.961  15.167   6.582
 3465POPC   C3A46505  37.731  15.104   6.925
 3465POPC   C4A46506  37.371  14.946   7.121
 3465POPC   C1B46507  37.193  15.518   6.225
 3465POPC   C2B46508  37.336  15.316   6.613
 3465POPC   C3B46509  37.390  15.462   7.044
 3465POPC   C4B46510  37.715  15.421   7.346
 3466POPC   NC346511   3.965   1.101   5.499
 3466POPC   PO446512   4.544   1.148   5.293
 3466POPC   GL146513   4.441   1.055   5.696
 3466POPC   GL246514   4.648   1.316   5.808
 3466POPC   C1A46515   4.250   1.148   6.108
 3466POPC   D2A46516   4.465   1.086   6.506
 3466POPC   C3A46517   4.228   1.055   6.900
 3466POPC   C4A46518   4.374   0.788   7.217
 3466POPC   C1B46519   4.526   1.577   6.189
 3466POPC   C2B46520   4.287   1.565   6.612
 3466POPC   C3B46521   4.256   1.552   7.076
 3466POPC   C4B46522   4.282   1.242   7.395
 3467POPC   NC346523  24.323  30.261   5.370
 3467POPC   PO446524  24.731  29.722   5.449
 3467POPC   GL146525  24.607  30.081   5.752
 3467POPC   GL246526  24.254  30.259   5.867
 3467POPC   C1A46527  24.579  30.024   6.189
 3467POPC   D2A46528  24.546  29.715   6.524
 3467POPC   C3A46529  24.717  29.825   6.919
 3467POPC   C4A46530  24.790  30.131   7.218
 3467POPC   C1B46531  24.243  30.386   6.303
 3467POPC   C2B46532  24.391  30.194   6.660
 3467POPC   C3B46533  24.292  30.103   7.044
 3467POPC   C4B46534  24.327  30.258   7.409
 3468POPC   NC346535  22.710  30.360   5.551
 3468POPC   PO446536  23.098  29.871   5.368
 3468POPC   GL146537  23.015  29.995   5.825
 3468POPC   GL246538  23.032  30.333   5.956
 3468POPC   C1A46539  22.888  29.962   6.283
 3468POPC   D2A46540  22.836  29.649   6.607
 3468POPC   C3A46541  22.736  29.790   7.005
 3468POPC   C4A46542  22.947  29.853   7.369
 3468POPC   C1B46543  23.253  30.448   6.327
 3468POPC   C2B46544  23.317  30.226   6.701
 3468POPC   C3B46545  22.990  30.235   6.983
 3468POPC   C4B46546  22.618  30.256   7.190
 3469POPC   NC346547   6.313  37.189   5.439
 3469POPC   PO446548   5.588  37.017   5.430
 3469POPC   GL146549   5.669  36.862   5.824
 3469POPC   GL246550   6.010  36.869   5.785
 3469POPC   C1A46551   5.784  36.738   6.225
 3469POPC   D2A46552   5.730  36.929   6.606
 3469POPC   C3A46553   5.875  36.812   7.013
 3469POPC   C4A46554   5.693  37.164   7.189
 3469POPC   C1B46555   6.125  37.115   6.191
 3469POPC   C2B46556   6.223  37.061   6.642
 3469POPC   C3B46557   6.167  37.259   7.038
 3469POPC   C4B46558   6.093  37.164   7.513
 3470POPC   NC346559  39.073   7.178   5.604
 3470POPC   PO446560  39.429   7.704   5.408
 3470POPC   GL146561  39.240   7.615   5.829
 3470POPC   GL246562  38.981   7.790   5.991
 3470POPC   C1A46563  39.292   7.402   6.248
 3470POPC   D2A46564  39.484   7.222   6.650
 3470POPC   C3A46565  39.272   7.252   7.067
 3470POPC   C4A46566  38.815   7.242   7.154
 3470POPC   C1B46567  39.092   7.817   6.444
 3470POPC   C2B46568  38.937   7.652   6.836
 3470POPC   C3B46569  39.039   7.686   7.269
 3470POPC   C4B46570  39.452   7.646   7.459
 3471POPC   NC346571  33.472  25.487   5.478
 3471POPC   PO446572  32.743  25.430   5.344
 3471POPC   GL146573  32.974  25.502   5.706
 3471POPC   GL246574  33.126  25.189   5.720
 3471POPC   C1A46575  33.182  25.523   6.112
 3471POPC   D2A46576  33.330  25.353   6.504
 3471POPC   C3A46577  33.094  25.436   6.895
 3471POPC   C4A46578  33.028  25.381   7.366
 3471POPC   C1B46579  32.973  25.053   6.126
 3471POPC   C2B46580  32.956  25.016   6.591
 3471POPC   C3B46581  32.913  24.994   7.059
 3471POPC   C4B46582  32.881  24.922   7.533
 3472POPC   NC346583   4.522  28.303   5.620
 3472POPC   PO446584   5.205  28.477   5.493
 3472POPC   GL146585   5.012  28.572   5.884
 3472POPC   GL246586   4.685  28.751   5.847
 3472POPC   C1A46587   5.056  28.342   6.270
 3472POPC   D2A46588   5.281  28.224   6.623
 3472POPC   C3A46589   5.208  28.435   6.973
 3472POPC   C4A46590   5.131  28.144   7.267
 3472POPC   C1B46591   4.621  28.600   6.294
 3472POPC   C2B46592   4.741  28.464   6.716
 3472POPC   C3B46593   4.700  28.501   7.159
 3472POPC   C4B46594   4.984  28.616   7.455
 3473POPC   NC346595   7.236  20.235   4.955
 3473POPC   PO446596   7.602  20.563   5.457
 3473POPC   GL146597   7.613  20.518   5.932
 3473POPC   GL246598   7.261  20.368   5.949
 3473POPC   C1A46599   7.668  20.829   6.311
 3473POPC   D2A46600   7.463  21.012   6.669
 3473POPC   C3A46601   7.487  20.682   6.964
 3473POPC   C4A46602   7.461  20.641   7.439
 3473POPC   C1B46603   7.081  20.210   6.348
 3473POPC   C2B46604   7.258  20.239   6.768
 3473POPC   C3B46605   7.178  20.314   7.201
 3473POPC   C4B46606   7.004  20.186   7.567
 3474POPC   NC346607   4.484  35.304   5.364
 3474POPC   PO446608   3.849  35.000   5.275
 3474POPC   GL146609   4.071  35.157   5.662
 3474POPC   GL246610   4.107  35.519   5.685
 3474POPC   C1A46611   4.275  35.221   6.113
 3474POPC   D2A46612   4.288  35.119   6.589
 3474POPC   C3A46613   4.534  35.372   6.894
 3474POPC   C4A46614   4.400  35.588   7.267
 3474POPC   C1B46615   3.987  35.654   6.076
 3474POPC   C2B46616   3.899  35.458   6.444
 3474POPC   C3B46617   4.054  35.543   6.827
 3474POPC   C4B46618   3.866  35.594   7.181
 3475POPC   NC346619  34.650  23.239   5.443
 3475POPC   PO446620  34.327  22.784   5.408
 3475POPC   GL146621  34.330  22.910   5.852
 3475POPC   GL246622  34.390  23.248   5.887
 3475POPC   C1A46623  34.427  22.951   6.326
 3475POPC   D2A46624  34.831  23.007   6.556
 3475POPC   C3A46625  34.845  23.066   7.029
 3475POPC   C4A46626  34.590  22.916   7.395
 3475POPC   C1B46627  34.551  23.437   6.243
 3475POPC   C2B46628  34.531  23.404   6.670
 3475POPC   C3B46629  34.392  23.294   7.066
 3475POPC   C4B46630  34.482  23.405   7.472
 3476POPC   NC346631   5.207   2.966   5.500
 3476POPC   PO446632   4.902   2.345   5.537
 3476POPC   GL146633   5.098   2.589   5.863
 3476POPC   GL246634   5.462   2.630   5.820
 3476POPC   C1A46635   5.103   2.926   6.174
 3476POPC   D2A46636   5.138   3.121   6.580
 3476POPC   C3A46637   5.039   2.769   6.857
 3476POPC   C4A46638   4.936   2.715   7.298
 3476POPC   C1B46639   5.608   2.729   6.249
 3476POPC   C2B46640   5.536   2.823   6.692
 3476POPC   C3B46641   5.462   2.862   7.125
 3476POPC   C4B46642   5.421   2.538   7.383
 3477POPC   NC346643   1.298  21.073   5.287
 3477POPC   PO446644   1.171  21.760   5.430
 3477POPC   GL146645   1.229  21.485   5.808
 3477POPC   GL246646   1.258  21.104   5.788
 3477POPC   C1A46647   1.400  21.480   6.234
 3477POPC   D2A46648   1.319  21.652   6.661
 3477POPC   C3A46649   1.541  21.488   7.039
 3477POPC   C4A46650   1.273  21.479   7.445
 3477POPC   C1B46651   1.136  21.017   6.180
 3477POPC   C2B46652   1.260  21.108   6.584
 3477POPC   C3B46653   1.144  21.182   6.995
 3477POPC   C4B46654   1.385  21.011   7.313
 3478POPC   NC346655  29.208   5.826   5.148
 3478POPC   PO446656  28.598   5.633   5.227
 3478POPC   GL146657  28.974   5.831   5.627
 3478POPC   GL246658  29.357   5.715   5.774
 3478POPC   C1A46659  29.030   5.826   6.131
 3478POPC   D2A46660  29.118   6.044   6.550
 3478POPC   C3A46661  29.027   5.811   6.934
 3478POPC   C4A46662  28.724   5.735   7.285
 3478POPC   C1B46663  29.560   5.749   6.218
 3478POPC   C2B46664  29.500   5.660   6.694
 3478POPC   C3B46665  29.462   5.687   7.159
 3478POPC   C4B46666  29.608   5.666   7.608
 3479POPC   NC346667  22.641  43.486   5.704
 3479POPC   PO446668  23.055  43.021   5.413
 3479POPC   GL146669  22.918  43.085   5.858
 3479POPC   GL246670  22.640  42.996   6.132
 3479POPC   C1A46671  23.122  43.122   6.252
 3479POPC   D2A46672  22.975  43.063   6.654
 3479POPC   C3A46673  23.159  42.902   7.006
 3479POPC   C4A46674  23.002  42.869   7.413
 3479POPC   C1B46675  22.661  43.357   6.369
 3479POPC   C2B46676  22.713  43.456   6.796
 3479POPC   C3B46677  23.029  43.394   7.100
 3479POPC   C4B46678  22.921  43.378   7.530
 3480POPC   NC346679   7.007  21.483   5.253
 3480POPC   PO446680   6.301  21.140   5.293
 3480POPC   GL146681   6.356  21.321   5.708
 3480POPC   GL246682   6.569  21.604   5.616
 3480POPC   C1A46683   6.529  21.266   6.165
 3480POPC   D2A46684   6.504  21.015   6.581
 3480POPC   C3A46685   6.464  21.264   6.960
 3480POPC   C4A46686   6.733  21.244   7.316
 3480POPC   C1B46687   6.315  21.737   5.992
 3480POPC   C2B46688   6.316  21.661   6.437
 3480POPC   C3B46689   6.403  21.838   6.847
 3480POPC   C4B46690   6.380  21.707   7.269
 3481POPC   NC346691  37.240  27.237   5.425
 3481POPC   PO446692  36.923  27.877   5.411
 3481POPC   GL146693  36.850  27.807   5.845
 3481POPC   GL246694  36.584  28.053   5.853
 3481POPC   C1A46695  37.033  27.602   6.252
 3481POPC   D2A46696  36.967  27.598   6.720
 3481POPC   C3A46697  37.159  27.324   7.061
 3481POPC   C4A46698  37.118  27.290   7.515
 3481POPC   C1B46699  36.731  28.012   6.302
 3481POPC   C2B46700  36.671  28.031   6.739
 3481POPC   C3B46701  36.853  27.902   7.125
 3481POPC   C4B46702  36.556  27.968   7.419
 3482POPC   NC346703  24.728   6.692   5.340
 3482POPC   PO446704  24.064   6.397   5.438
 3482POPC   GL146705  24.316   6.593   5.780
 3482POPC   GL246706  24.599   6.851   5.809
 3482POPC   C1A46707  24.517   6.522   6.183
 3482POPC   D2A46708  24.730   6.660   6.547
 3482POPC   C3A46709  24.434   6.721   6.877
 3482POPC   C4A46710  24.280   6.482   7.241
 3482POPC   C1B46711  24.639   7.057   6.210
 3482POPC   C2B46712  24.610   7.167   6.633
 3482POPC   C3B46713  24.806   7.057   7.022
 3482POPC   C4B46714  24.450   6.962   7.320
 3483POPC   NC346715  39.531  25.102   5.487
 3483POPC   PO446716  39.161  25.630   5.412
 3483POPC   GL146717  39.135  25.319   5.763
 3483POPC   GL246718  39.474  25.388   5.901
 3483POPC   C1A46719  39.074  25.123   6.185
 3483POPC   D2A46720  39.173  25.298   6.596
 3483POPC   C3A46721  38.980  25.138   6.983
 3483POPC   C4A46722  39.175  25.256   7.354
 3483POPC   C1B46723  39.626  25.051   6.159
 3483POPC   C2B46724  39.590  24.983   6.586
 3483POPC   C3B46725  39.499  25.150   6.979
 3483POPC   C4B46726  39.572  24.972   7.396
 3484POPC   NC346727  35.592  14.653   5.489
 3484POPC   PO446728  36.287  14.783   5.418
 3484POPC   GL146729  36.188  14.592   5.781
 3484POPC   GL246730  35.988  14.302   5.764
 3484POPC   C1A46731  36.080  14.576   6.200
 3484POPC   D2A46732  36.285  14.449   6.545
 3484POPC   C3A46733  36.099  14.544   6.948
 3484POPC   C4A46734  36.325  14.526   7.343
 3484POPC   C1B46735  35.672  14.269   6.102
 3484POPC   C2B46736  35.786  14.294   6.548
 3484POPC   C3B46737  35.796  14.105   6.944
 3484POPC   C4B46738  35.868  14.221   7.361
 3485POPC   NC346739   6.180  35.667   5.450
 3485POPC   PO446740   5.766  35.272   5.190
 3485POPC   GL146741   5.912  35.286   5.666
 3485POPC   GL246742   5.770  35.599   5.807
 3485POPC   C1A46743   6.026  35.291   6.148
 3485POPC   D2A46744   5.858  35.230   6.600
 3485POPC   C3A46745   6.040  35.344   7.009
 3485POPC   C4A46746   5.803  35.492   7.335
 3485POPC   C1B46747   6.070  35.820   6.119
 3485POPC   C2B46748   6.051  36.043   6.532
 3485POPC   C3B46749   6.008  35.861   6.946
 3485POPC   C4B46750   6.216  35.797   7.335
 3486POPC   NC346751  11.029  27.693   5.488
 3486POPC   PO446752  10.421  27.264   5.445
 3486POPC   GL146753  10.575  27.551   5.762
 3486POPC   GL246754  10.419  27.891   5.725
 3486POPC   C1A46755  10.641  27.445   6.214
 3486POPC   D2A46756  10.438  27.469   6.601
 3486POPC   C3A46757  10.662  27.546   6.979
 3486POPC   C4A46758  10.696  27.232   7.294
 3486POPC   C1B46759  10.474  27.926   6.196
 3486POPC   C2B46760  10.391  27.968   6.671
 3486POPC   C3B46761  10.170  27.737   6.995
 3486POPC   C4B46762  10.315  27.681   7.431
 3487POPC   NC346763  11.393  44.323   5.327
 3487POPC   PO446764  11.148  44.987   5.239
 3487POPC   GL146765  11.290  44.834   5.665
 3487POPC   GL246766  11.318  44.496   5.807
 3487POPC   C1A46767  11.372  44.900   6.119
 3487POPC   D2A46768  11.127  44.877   6.519
 3487POPC   C3A46769  11.268  44.918   6.946
 3487POPC   C4A46770  11.031   0.106   7.307
 3487POPC   C1B46771  11.260  44.431   6.261
 3487POPC   C2B46772  11.517  44.414   6.658
 3487POPC   C3B46773  11.434  44.429   7.098
 3487POPC   C4B46774  11.030  44.545   7.255
 3488POPC   NC346775  33.858  38.091   5.338
 3488POPC   PO446776  33.578  37.461   5.447
 3488POPC   GL146777  33.733  37.559   5.828
 3488POPC   GL246778  33.993  37.820   5.792
 3488POPC   C1A46779  33.931  37.551   6.219
 3488POPC   D2A46780  33.877  37.826   6.535
 3488POPC   C3A46781  33.807  37.619   6.866
 3488POPC   C4A46782  33.919  37.551   7.243
 3488POPC   C1B46783  34.211  38.003   6.186
 3488POPC   C2B46784  34.172  38.236   6.596
 3488POPC   C3B46785  34.130  38.030   7.028
 3488POPC   C4B46786  34.026  37.960   7.496
 3489POPC   NC346787   7.677   2.190   5.242
 3489POPC   PO446788   8.342   1.939   5.355
 3489POPC   GL146789   8.346   1.906   5.770
 3489POPC   GL246790   8.083   2.158   5.786
 3489POPC   C1A46791   8.396   2.087   6.187
 3489POPC   D2A46792   8.209   1.940   6.557
 3489POPC   C3A46793   8.407   1.992   6.907
 3489POPC   C4A46794   8.247   2.159   7.241
 3489POPC   C1B46795   7.937   1.843   6.128
 3489POPC   C2B46796   7.739   1.722   6.546
 3489POPC   C3B46797   7.896   1.845   6.985
 3489POPC   C4B46798   8.036   1.744   7.433
 3490POPC   NC346799   4.031  16.153   5.345
 3490POPC   PO446800   4.531  15.738   5.343
 3490POPC   GL146801   4.390  15.643   5.800
 3490POPC   GL246802   4.110  15.842   5.900
 3490POPC   C1A46803   4.552  15.771   6.219
 3490POPC   D2A46804   4.630  16.039   6.576
 3490POPC   C3A46805   4.340  16.037   6.941
 3490POPC   C4A46806   4.288  15.784   7.326
 3490POPC   C1B46807   4.179  16.169   6.182
 3490POPC   C2B46808   4.195  16.387   6.583
 3490POPC   C3B46809   3.985  16.475   6.970
 3490POPC   C4B46810   4.020  16.237   7.333
 3491POPC   NC346811  25.919  33.668   4.935
 3491POPC   PO446812  25.781  34.248   5.428
 3491POPC   GL146813  26.020  34.017   5.793
 3491POPC   GL246814  26.004  33.641   5.814
 3491POPC   C1A46815  26.291  33.901   6.149
 3491POPC   D2A46816  26.537  33.920   6.505
 3491POPC   C3A46817  26.372  33.850   6.887
 3491POPC   C4A46818  26.219  34.040   7.247
 3491POPC   C1B46819  25.853  33.648   6.237
 3491POPC   C2B46820  25.897  33.863   6.633
 3491POPC   C3B46821  25.926  33.641   7.027
 3491POPC   C4B46822  26.162  33.567   7.432
 3492POPC   NC346823  38.933   3.717   5.530
 3492POPC   PO446824  39.480   3.277   5.560
 3492POPC   GL146825  39.364   3.429   5.931
 3492POPC   GL246826  39.342   3.728   5.854
 3492POPC   C1A46827  39.122   3.572   6.295
 3492POPC   D2A46828  38.855   3.391   6.610
 3492POPC   C3A46829  39.098   3.494   6.942
 3492POPC   C4A46830  39.096   3.741   7.281
 3492POPC   C1B46831  39.633   3.748   6.231
 3492POPC   C2B46832  39.455   3.770   6.644
 3492POPC   C3B46833  39.493   4.061   6.955
 3492POPC   C4B46834  39.540   4.036   7.372
 3493POPC   NC346835  11.428  41.733   5.361
 3493POPC   PO446836  10.872  41.367   5.448
 3493POPC   GL146837  11.174  41.537   5.764
 3493POPC   GL246838  11.540  41.447   5.794
 3493POPC   C1A46839  11.242  41.398   6.200
 3493POPC   D2A46840  11.152  41.659   6.529
 3493POPC   C3A46841  11.148  41.547   6.941
 3493POPC   C4A46842  11.106  41.913   7.181
 3493POPC   C1B46843  11.590  41.807   6.044
 3493POPC   C2B46844  11.667  41.802   6.498
 3493POPC   C3B46845  11.589  41.799   6.952
 3493POPC   C4B46846  11.514  41.509   7.309
 3494POPC   NC346847  39.182  28.729   5.409
 3494POPC   PO446848  38.625  28.458   5.438
 3494POPC   GL146849  39.017  28.356   5.732
 3494POPC   GL246850  39.373  28.284   5.644
 3494POPC   C1A46851  39.187  28.270   6.151
 3494POPC   D2A46852  39.222  28.131   6.591
 3494POPC   C3A46853  39.179  28.472   6.900
 3494POPC   C4A46854  39.226  28.497   7.352
 3494POPC   C1B46855  39.637  28.456   5.979
 3494POPC   C2B46856  39.649  28.553   6.427
 3494POPC   C3B46857  39.683  28.558   6.888
 3494POPC   C4B46858  39.640  28.813   7.265
 3495POPC   NC346859  30.094  30.882   5.500
 3495POPC   PO446860  29.797  30.307   5.427
 3495POPC   GL146861  29.813  30.550   5.798
 3495POPC   GL246862  30.176  30.546   5.908
 3495POPC   C1A46863  29.804  30.782   6.193
 3495POPC   D2A46864  29.970  30.690   6.605
 3495POPC   C3A46865  30.076  30.991   6.917
 3495POPC   C4A46866  29.705  31.034   7.144
 3495POPC   C1B46867  30.020  30.314   6.273
 3495POPC   C2B46868  30.191  30.202   6.677
 3495POPC   C3B46869  30.086  30.450   7.034
 3495POPC   C4B46870  30.297  30.523   7.374
 3496POPC   NC346871   3.102  11.621   5.506
 3496POPC   PO446872   2.897  12.289   5.352
 3496POPC   GL146873   2.810  12.087   5.744
 3496POPC   GL246874   2.509  11.876   5.789
 3496POPC   C1A46875   2.803  12.242   6.171
 3496POPC   D2A46876   2.954  12.115   6.582
 3496POPC   C3A46877   2.815  12.282   6.975
 3496POPC   C4A46878   2.765  12.147   7.393
 3496POPC   C1B46879   2.781  11.708   6.121
 3496POPC   C2B46880   2.884  11.602   6.540
 3496POPC   C3B46881   2.710  11.760   6.927
 3496POPC   C4B46882   2.911  11.658   7.274
 3497POPC   NC346883  18.080   0.305   5.279
 3497POPC   PO446884  18.574   0.715   5.391
 3497POPC   GL146885  18.283   0.602   5.740
 3497POPC   GL246886  18.141   0.242   5.791
 3497POPC   C1A46887  18.258   0.571   6.193
 3497POPC   D2A46888  18.113   0.431   6.584
 3497POPC   C3A46889  18.348   0.533   6.936
 3497POPC   C4A46890  18.647   0.432   7.252
 3497POPC   C1B46891  18.124   0.042   6.216
 3497POPC   C2B46892  18.102  44.923   6.657
 3497POPC   C3B46893  18.085   0.053   7.096
 3497POPC   C4B46894  18.134   0.405   7.390
 3498POPC   NC346895   7.875  30.127   5.401
 3498POPC   PO446896   7.157  30.089   5.350
 3498POPC   GL146897   7.324  29.979   5.778
 3498POPC   GL246898   7.680  30.025   5.867
 3498POPC   C1A46899   7.354  29.920   6.245
 3498POPC   D2A46900   7.125  29.960   6.624
 3498POPC   C3A46901   7.363  29.850   6.977
 3498POPC   C4A46902   7.432  30.224   7.242
 3498POPC   C1B46903   7.873  30.041   6.298
 3498POPC   C2B46904   7.733  30.141   6.725
 3498POPC   C3B46905   7.851  29.990   7.130
 3498POPC   C4B46906   7.788  29.589   7.341
 3499POPC   NC346907  19.948   8.557   5.363
 3499POPC   PO446908  19.659   7.918   5.532
 3499POPC   GL146909  19.921   8.129   5.792
 3499POPC   GL246910  19.774   8.452   5.835
 3499POPC   C1A46911  19.904   7.999   6.226
 3499POPC   D2A46912  19.899   7.772   6.626
 3499POPC   C3A46913  19.913   8.049   6.978
 3499POPC   C4A46914  19.538   8.073   7.229
 3499POPC   C1B46915  20.064   8.474   6.174
 3499POPC   C2B46916  19.843   8.391   6.569
 3499POPC   C3B46917  19.599   8.498   6.934
 3499POPC   C4B46918  19.844   8.630   7.253
 3500POPC   NC346919  25.825   4.246   5.348
 3500POPC   PO446920  26.355   4.043   5.286
 3500POPC   GL146921  26.225   4.066   5.722
 3500POPC   GL246922  26.170   4.402   5.785
 3500POPC   C1A46923  26.178   4.101   6.203
 3500POPC   D2A46924  25.951   4.266   6.568
 3500POPC   C3A46925  26.139   4.264   6.976
 3500POPC   C4A46926  26.091   4.024   7.363
 3500POPC   C1B46927  26.436   4.546   6.138
 3500POPC   C2B46928  26.327   4.614   6.585
 3500POPC   C3B46929  26.499   4.684   7.001
 3500POPC   C4B46930  26.495   4.363   7.319
 3501POPC   NC346931  30.648  17.416   5.198
 3501POPC   PO446932  30.181  17.795   5.446
 3501POPC   GL146933  30.460  17.552   5.780
 3501POPC   GL246934  30.820  17.414   5.823
 3501POPC   C1A46935  30.592  17.583   6.255
 3501POPC   D2A46936  30.809  17.418   6.637
 3501POPC   C3A46937  30.559  17.539   6.982
 3501POPC   C4A46938  30.529  17.782   7.347
 3501POPC   C1B46939  31.080  17.482   6.209
 3501POPC   C2B46940  31.215  17.718   6.624
 3501POPC   C3B46941  31.060  17.629   7.084
 3501POPC   C4B46942  30.966  17.611   7.555
 3502POPC   NC346943  37.785   9.387   5.362
 3502POPC   PO446944  37.456   9.972   5.465
 3502POPC   GL146945  37.645   9.673   5.774
 3502POPC   GL246946  37.974   9.742   5.727
 3502POPC   C1A46947  37.586   9.554   6.223
 3502POPC   D2A46948  37.562   9.851   6.600
 3502POPC   C3A46949  37.550   9.677   7.027
 3502POPC   C4A46950  37.464   9.239   7.107
 3502POPC   C1B46951  37.921   9.940   6.180
 3502POPC   C2B46952  38.042   9.987   6.663
 3502POPC   C3B46953  38.017   9.852   7.117
 3502POPC   C4B46954  37.951   9.664   7.532
 3503POPC   NC346955  37.445   8.540   5.348
 3503POPC   PO446956  37.904   8.126   5.449
 3503POPC   GL146957  37.858   8.082   5.876
 3503POPC   GL246958  37.508   8.143   5.839
 3503POPC   C1A46959  37.862   8.222   6.348
 3503POPC   D2A46960  37.722   8.384   6.787
 3503POPC   C3A46961  37.933   8.319   7.205
 3503POPC   C4A46962  38.108   8.208   7.639
 3503POPC   C1B46963  37.508   7.872   6.228
 3503POPC   C2B46964  37.622   7.861   6.693
 3503POPC   C3B46965  37.529   8.013   7.117
 3503POPC   C4B46966  37.721   7.913   7.518
 3504POPC   NC346967   3.543   7.815   5.397
 3504POPC   PO446968   3.231   7.238   5.212
 3504POPC   GL146969   3.534   7.307   5.581
 3504POPC   GL246970   3.292   7.403   5.759
 3504POPC   C1A46971   3.749   7.433   6.013
 3504POPC   D2A46972   3.778   7.564   6.494
 3504POPC   C3A46973   3.633   7.398   6.914
 3504POPC   C4A46974   3.830   7.151   7.214
 3504POPC   C1B46975   3.275   7.347   6.199
 3504POPC   C2B46976   3.246   7.494   6.587
 3504POPC   C3B46977   3.096   7.322   6.947
 3504POPC   C4B46978   3.179   7.372   7.332
 3505POPC   NC346979  36.216  38.536   5.556
 3505POPC   PO446980  35.671  38.295   5.403
 3505POPC   GL146981  35.815  38.353   5.813
 3505POPC   GL246982  36.099  38.145   5.886
 3505POPC   C1A46983  35.984  38.527   6.210
 3505POPC   D2A46984  35.765  38.567   6.606
 3505POPC   C3A46985  36.012  38.491   6.949
 3505POPC   C4A46986  36.124  38.787   7.258
 3505POPC   C1B46987  36.315  38.111   6.290
 3505POPC   C2B46988  36.200  38.079   6.701
 3505POPC   C3B46989  36.297  37.955   7.094
 3505POPC   C4B46990  36.288  38.289   7.357
 3506POPC   NC346991   7.181   1.343   5.402
 3506POPC   PO446992   7.813   1.105   5.313
 3506POPC   GL146993   7.600   1.047   5.724
 3506POPC   GL246994   7.286   1.190   5.897
 3506POPC   C1A46995   7.584   0.846   6.126
 3506POPC   D2A46996   7.284   0.982   6.432
 3506POPC   C3A46997   7.418   0.929   6.816
 3506POPC   C4A46998   7.359   1.163   7.182
 3506POPC   C1B46999   7.347   1.465   6.275
 3506POPC   C2B47000   7.321   1.454   6.742
 3506POPC   C3B47001   7.055   1.618   7.082
 3506POPC   C4B47002   7.018   1.751   7.558
 3507POPC   NC347003  34.656  39.146   5.353
 3507POPC   PO447004  34.169  39.551   5.561
 3507POPC   GL147005  34.322  39.347   5.954
 3507POPC   GL247006  34.500  39.033   5.951
 3507POPC   C1A47007  34.342  39.229   6.408
 3507POPC   D2A47008  34.664  39.319   6.705
 3507POPC   C3A47009  34.575  39.206   7.106
 3507POPC   C4A47010  34.229  39.387   7.335
 3507POPC   C1B47011  34.816  39.022   6.310
 3507POPC   C2B47012  34.992  38.943   6.753
 3507POPC   C3B47013  35.081  39.064   7.203
 3507POPC   C4B47014  35.110  39.165   7.659
 3508POPC   NC347015  20.101   7.739   5.468
 3508POPC   PO447016  19.609   7.247   5.496
 3508POPC   GL147017  19.763   7.483   5.816
 3508POPC   GL247018  20.084   7.366   5.904
 3508POPC   C1A47019  19.730   7.445   6.272
 3508POPC   D2A47020  19.783   7.209   6.689
 3508POPC   C3A47021  19.775   7.505   7.057
 3508POPC   C4A47022  19.425   7.586   7.307
 3508POPC   C1B47023  20.260   7.651   6.240
 3508POPC   C2B47024  20.387   7.832   6.654
 3508POPC   C3B47025  20.265   7.694   7.105
 3508POPC   C4B47026  20.117   7.688   7.541
 3509POPC   NC347027  40.881  35.548   5.240
 3509POPC   PO447028  40.644  34.968   5.339
 3509POPC   GL147029  40.899  35.139   5.734
 3509POPC   GL247030  40.977  35.517   5.748
 3509POPC   C1A47031  40.952  34.957   6.172
 3509POPC   D2A47032  40.831  34.852   6.634
 3509POPC   C3A47033  40.844  35.206   6.890
 3509POPC   C4A47034  40.727  35.366   7.243
 3509POPC   C1B47035  41.142  35.556   6.170
 3509POPC   C2B47036  40.944  35.619   6.568
 3509POPC   C3B47037  41.159  35.615   6.950
 3509POPC   C4B47038  41.207  35.647   7.373
 3510POPC   NC347039  24.249  43.871   5.126
 3510POPC   PO447040  23.649  43.730   5.256
 3510POPC   GL147041  23.580  43.682   5.781
 3510POPC   GL247042  23.788  43.937   6.030
 3510POPC   C1A47043  23.432  43.613   6.195
 3510POPC   D2A47044  23.620  43.816   6.528
 3510POPC   C3A47045  23.553  43.705   6.933
 3510POPC   C4A47046  23.906  43.605   7.181
 3510POPC   C1B47047  24.100  43.940   6.373
 3510POPC   C2B47048  24.034  43.908   6.794
 3510POPC   C3B47049  23.841  44.108   7.148
 3510POPC   C4B47050  23.775  44.319   7.543
 3511POPC   NC347051  10.694  18.644   5.654
 3511POPC   PO447052  10.564  17.950   5.420
 3511POPC   GL147053  10.478  18.186   5.820
 3511POPC   GL247054  10.191  18.441   5.788
 3511POPC   C1A47055  10.474  18.308   6.266
 3511POPC   D2A47056  10.369  18.163   6.708
 3511POPC   C3A47057  10.635  18.311   7.040
 3511POPC   C4A47058  10.827  18.117   7.368
 3511POPC   C1B47059  10.073  18.617   6.197
 3511POPC   C2B47060  10.290  18.680   6.568
 3511POPC   C3B47061  10.190  18.575   6.985
 3511POPC   C4B47062  10.079  18.803   7.307
 3512POPC   NC347063   5.685  27.849   5.536
 3512POPC   PO447064   6.081  27.456   5.254
 3512POPC   GL147065   6.048  27.547   5.727
 3512POPC   GL247066   5.726  27.409   5.873
 3512POPC   C1A47067   5.902  27.821   6.135
 3512POPC   D2A47068   5.753  27.957   6.544
 3512POPC   C3A47069   6.044  27.897   6.883
 3512POPC   C4A47070   6.198  27.818   7.277
 3512POPC   C1B47071   5.601  27.427   6.330
 3512POPC   C2B47072   5.765  27.451   6.764
 3512POPC   C3B47073   5.788  27.544   7.209
 3512POPC   C4B47074   5.660  27.387   7.596
 3513POPC   NC347075  11.980  17.899   5.291
 3513POPC   PO447076  12.305  17.318   5.285
 3513POPC   GL147077  11.936  17.442   5.573
 3513POPC   GL247078  11.788  17.171   5.784
 3513POPC   C1A47079  11.930  17.638   5.990
 3513POPC   D2A47080  12.148  17.653   6.373
 3513POPC   C3A47081  11.928  17.570   6.731
 3513POPC   C4A47082  12.045  17.473   7.147
 3513POPC   C1B47083  11.948  17.152   6.258
 3513POPC   C2B47084  12.259  17.186   6.648
 3513POPC   C3B47085  12.374  17.089   7.088
 3513POPC   C4B47086  12.255  17.204   7.568
 3514POPC   NC347087   0.489  23.264   5.509
 3514POPC   PO447088   0.642  22.598   5.565
 3514POPC   GL147089   0.478  22.885   5.879
 3514POPC   GL247090   0.716  23.141   5.964
 3514POPC   C1A47091   0.415  22.867   6.321
 3514POPC   D2A47092   0.521  22.877   6.732
 3514POPC   C3A47093   0.321  22.822   7.128
 3514POPC   C4A47094   0.550  22.711   7.483
 3514POPC   C1B47095   0.355  23.341   6.136
 3514POPC   C2B47096   0.264  23.430   6.528
 3514POPC   C3B47097   0.207  23.258   6.883
 3514POPC   C4B47098   0.091  23.289   7.259
 3515POPC   NC347099   9.282  26.307   5.474
 3515POPC   PO447100   8.744  25.871   5.347
 3515POPC   GL147101   8.982  25.954   5.705
 3515POPC   GL247102   8.913  26.287   5.842
 3515POPC   C1A47103   9.101  25.910   6.135
 3515POPC   D2A47104   8.983  26.111   6.507
 3515POPC   C3A47105   8.998  25.859   6.850
 3515POPC   C4A47106   9.130  25.954   7.242
 3515POPC   C1B47107   9.209  26.412   6.158
 3515POPC   C2B47108   9.355  26.505   6.559
 3515POPC   C3B47109   9.256  26.306   6.909
 3515POPC   C4B47110   9.003  26.445   7.217
 3516POPC   NC347111  19.005  27.147   5.374
 3516POPC   PO447112  19.291  26.587   5.525
 3516POPC   GL147113  19.264  26.927   5.805
 3516POPC   GL247114  18.917  26.946   5.853
 3516POPC   C1A47115  19.255  26.904   6.262
 3516POPC   D2A47116  19.049  26.703   6.623
 3516POPC   C3A47117  18.983  26.969   6.958
 3516POPC   C4A47118  19.291  26.959   7.226
 3516POPC   C1B47119  18.791  26.666   6.181
 3516POPC   C2B47120  18.539  26.531   6.535
 3516POPC   C3B47121  18.673  26.406   6.952
 3516POPC   C4B47122  18.937  26.564   7.277
 3517POPC   NC347123  25.139   0.209   5.141
 3517POPC   PO447124  25.375   0.642   5.466
 3517POPC   GL147125  25.283   0.305   5.728
 3517POPC   GL247126  25.616   0.190   5.766
 3517POPC   C1A47127  25.130   0.270   6.168
 3517POPC   D2A47128  25.312   0.477   6.546
 3517POPC   C3A47129  25.247   0.329   6.948
 3517POPC   C4A47130  25.360  44.990   7.172
 3517POPC   C1B47131  25.608   0.506   6.119
 3517POPC   C2B47132  25.821   0.630   6.538
 3517POPC   C3B47133  25.716   0.575   6.981
 3517POPC   C4B47134  25.436   0.889   7.175
 3518POPC   NC347135  43.050  43.319   5.340
 3518POPC   PO447136  42.626  42.907   5.535
 3518POPC   GL147137  42.433  43.225   5.820
 3518POPC   GL247138  42.108  43.382   5.631
 3518POPC   C1A47139  42.392  43.197   6.306
 3518POPC   D2A47140  42.219  42.894   6.632
 3518POPC   C3A47141  42.411  42.920   7.077
 3518POPC   C4A47142  42.541  43.334   7.317
 3518POPC   C1B47143  42.017  43.455   6.064
 3518POPC   C2B47144  42.006  43.477   6.518
 3518POPC   C3B47145  42.180  43.332   6.892
 3518POPC   C4B47146  41.935  43.068   7.203
 3519POPC   NC347147   5.244  10.087   5.438
 3519POPC   PO447148   5.083   9.450   5.301
 3519POPC   GL147149   5.222   9.640   5.723
 3519POPC   GL247150   5.002   9.943   5.862
 3519POPC   C1A47151   5.273   9.646   6.187
 3519POPC   D2A47152   5.205   9.985   6.496
 3519POPC   C3A47153   5.095   9.760   6.841
 3519POPC   C4A47154   5.363   9.528   7.105
 3519POPC   C1B47155   4.768  10.130   6.198
 3519POPC   C2B47156   4.691  10.079   6.650
 3519POPC   C3B47157   4.791  10.114   7.092
 3519POPC   C4B47158   5.201   9.997   7.298
 3520POPC   NC347159  30.538   7.643   5.358
 3520POPC   PO447160  30.992   7.182   5.394
 3520POPC   GL147161  30.714   7.257   5.747
 3520POPC   GL247162  30.451   7.009   5.790
 3520POPC   C1A47163  30.504   7.482   6.114
 3520POPC   D2A47164  30.490   7.740   6.519
 3520POPC   C3A47165  30.749   7.608   6.891
 3520POPC   C4A47166  30.658   7.631   7.325
 3520POPC   C1B47167  30.667   6.998   6.182
 3520POPC   C2B47168  30.561   7.181   6.570
 3520POPC   C3B47169  30.664   7.100   6.976
 3520POPC   C4B47170  31.016   7.150   7.234
 3521POPC   NC347171  18.059  11.221   5.390
 3521POPC   PO447172  18.555  11.449   5.387
 3521POPC   GL147173  18.356  11.274   5.803
 3521POPC   GL247174  18.568  11.005   5.895
 3521POPC   C1A47175  18.095  11.387   6.178
 3521POPC   D2A47176  18.216  11.606   6.569
 3521POPC   C3A47177  18.244  11.443   6.986
 3521POPC   C4A47178  18.021  11.437   7.390
 3521POPC   C1B47179  18.558  11.169   6.345
 3521POPC   C2B47180  18.743  11.472   6.634
 3521POPC   C3B47181  18.770  11.625   7.062
 3521POPC   C4B47182  18.530  11.535   7.428
 3522POPC   NC347183  39.862  33.670   5.208
 3522POPC   PO447184  40.259  34.080   5.589
 3522POPC   GL147185  40.133  33.710   5.792
 3522POPC   GL247186  39.839  33.658   5.734
 3522POPC   C1A47187  40.164  33.544   6.174
 3522POPC   D2A47188  40.170  33.677   6.604
 3522POPC   C3A47189  40.312  33.554   7.009
 3522POPC   C4A47190  39.938  33.545   7.290
 3522POPC   C1B47191  39.726  33.775   6.140
 3522POPC   C2B47192  39.752  33.973   6.535
 3522POPC   C3B47193  39.727  33.937   6.988
 3522POPC   C4B47194  39.747  34.306   7.232
 3523POPC   NC347195   2.714   0.177   5.036
 3523POPC   PO447196   2.635   0.506   5.581
 3523POPC   GL147197   2.798   0.372   5.930
 3523POPC   GL247198   2.652   0.033   5.903
 3523POPC   C1A47199   2.718   0.565   6.294
 3523POPC   D2A47200   2.548   0.543   6.678
 3523POPC   C3A47201   2.839   0.601   6.995
 3523POPC   C4A47202   2.741   0.448   7.335
 3523POPC   C1B47203   2.790   0.054   6.340
 3523POPC   C2B47204   2.875   0.127   6.757
 3523POPC   C3B47205   3.129   0.163   7.117
 3523POPC   C4B47206   3.159   0.230   7.565
 3524POPC   NC347207   3.019  34.368   5.504
 3524POPC   PO447208   2.356  34.310   5.470
 3524POPC   GL147209   2.609  34.519   5.787
 3524POPC   GL247210   2.817  34.813   5.697
 3524POPC   C1A47211   2.867  34.457   6.173
 3524POPC   D2A47212   2.741  34.219   6.524
 3524POPC   C3A47213   2.681  34.397   6.927
 3524POPC   C4A47214   2.945  34.566   7.226
 3524POPC   C1B47215   2.635  34.894   6.118
 3524POPC   C2B47216   2.809  34.832   6.518
 3524POPC   C3B47217   2.765  34.929   6.911
 3524POPC   C4B47218   2.770  35.041   7.331
 3525POPC   NC347219   2.157  17.901   5.570
 3525POPC   PO447220   1.741  17.386   5.499
 3525POPC   GL147221   1.996  17.479   5.856
 3525POPC   GL247222   1.783  17.762   5.899
 3525POPC   C1A47223   2.154  17.349   6.283
 3525POPC   D2A47224   2.203  17.157   6.718
 3525POPC   C3A47225   2.341  17.405   7.076
 3525POPC   C4A47226   2.179  17.807   7.266
 3525POPC   C1B47227   1.925  17.825   6.320
 3525POPC   C2B47228   2.035  17.686   6.745
 3525POPC   C3B47229   1.837  17.457   7.104
 3525POPC   C4B47230   1.745  17.516   7.567
 3526POPC   NC347231  17.686  21.945   5.617
 3526POPC   PO447232  17.282  21.399   5.425
 3526POPC   GL147233  17.534  21.483   5.785
 3526POPC   GL247234  17.901  21.438   5.689
 3526POPC   C1A47235  17.349  21.416   6.182
 3526POPC   D2A47236  17.265  21.107   6.475
 3526POPC   C3A47237  17.240  21.293   6.898
 3526POPC   C4A47238  17.334  21.276   7.327
 3526POPC   C1B47239  17.864  21.299   6.150
 3526POPC   C2B47240  17.676  21.405   6.590
 3526POPC   C3B47241  17.767  21.274   7.011
 3526POPC   C4B47242  17.869  21.311   7.453
 3527POPC   NC347243   8.415  37.639   5.414
 3527POPC   PO447244   8.022  38.088   5.468
 3527POPC   GL147245   8.269  37.910   5.813
 3527POPC   GL247246   8.021  37.648   5.846
 3527POPC   C1A47247   8.302  37.704   6.246
 3527POPC   D2A47248   8.425  37.781   6.660
 3527POPC   C3A47249   8.318  37.681   7.080
 3527POPC   C4A47250   8.525  37.824   7.497
 3527POPC   C1B47251   7.902  38.014   6.146
 3527POPC   C2B47252   7.950  38.166   6.576
 3527POPC   C3B47253   7.826  38.015   6.966
 3527POPC   C4B47254   7.867  37.712   7.293
 3528POPC   NC347255  28.122  19.974   5.409
 3528POPC   PO447256  28.798  19.942   5.569
 3528POPC   GL147257  28.466  19.718   5.780
 3528POPC   GL247258  28.396  20.031   5.866
 3528POPC   C1A47259  28.315  19.703   6.233
 3528POPC   D2A47260  28.502  19.953   6.533
 3528POPC   C3A47261  28.264  19.921   6.890
 3528POPC   C4A47262  28.054  19.829   7.248
 3528POPC   C1B47263  28.603  20.299   6.144
 3528POPC   C2B47264  28.517  20.475   6.549
 3528POPC   C3B47265  28.531  20.391   7.007
 3528POPC   C4B47266  28.493  20.088   7.311
 3529POPC   NC347267  35.130  10.945   5.455
 3529POPC   PO447268  35.519  11.522   5.381
 3529POPC   GL147269  35.306  11.359   5.760
 3529POPC   GL247270  35.575  11.262   5.979
 3529POPC   C1A47271  35.137  11.418   6.226
 3529POPC   D2A47272  35.384  11.343   6.639
 3529POPC   C3A47273  35.194  11.199   7.069
 3529POPC   C4A47274  35.173  10.939   7.475
 3529POPC   C1B47275  35.573  11.679   6.162
 3529POPC   C2B47276  35.479  11.840   6.574
 3529POPC   C3B47277  35.349  11.693   7.016
 3529POPC   C4B47278  35.661  11.649   7.340
 3530POPC   NC347279  35.733  43.188   5.355
 3530POPC   PO447280  35.116  43.356   5.463
 3530POPC   GL147281  35.325  43.161   5.815
 3530POPC   GL247282  35.666  43.092   5.850
 3530POPC   C1A47283  35.284  43.113   6.248
 3530POPC   D2A47284  35.235  43.379   6.603
 3530POPC   C3A47285  35.368  43.135   6.985
 3530POPC   C4A47286  35.278  42.910   7.380
 3530POPC   C1B47287  35.787  42.931   6.240
 3530POPC   C2B47288  35.742  42.892   6.694
 3530POPC   C3B47289  35.637  42.669   7.069
 3530POPC   C4B47290  35.746  42.695   7.485
 3531POPC   NC347291  42.205  37.975   5.246
 3531POPC   PO447292  42.410  38.658   5.370
 3531POPC   GL147293  42.380  38.449   5.750
 3531POPC   GL247294  42.091  38.328   5.639
 3531POPC   C1A47295  42.528  38.436   6.177
 3531POPC   D2A47296  42.350  38.429   6.586
 3531POPC   C3A47297  42.609  38.498   6.943
 3531POPC   C4A47298  42.438  38.542   7.366
 3531POPC   C1B47299  42.034  38.238   6.105
 3531POPC   C2B47300  41.848  38.442   6.492
 3531POPC   C3B47301  41.931  38.313   6.905
 3531POPC   C4B47302  41.916  38.476   7.310
 3532POPC   NC347303  15.413  44.374   5.412
 3532POPC   PO447304  14.949  43.804   5.287
 3532POPC   GL147305  15.205  43.690   5.633
 3532POPC   GL247306  15.242  44.010   5.766
 3532POPC   C1A47307  15.402  43.606   6.041
 3532POPC   D2A47308  15.360  43.620   6.496
 3532POPC   C3A47309  15.395  43.821   6.891
 3532POPC   C4A47310  15.154  43.706   7.242
 3532POPC   C1B47311  15.066  43.953   6.182
 3532POPC   C2B47312  15.113  44.118   6.599
 3532POPC   C3B47313  14.866  44.152   6.931
 3532POPC   C4B47314  14.933  44.157   7.334
 3533POPC   NC347315   1.825  12.994   5.372
 3533POPC   PO447316   2.398  12.661   5.277
 3533POPC   GL147317   2.218  12.854   5.690
 3533POPC   GL247318   1.901  12.704   5.779
 3533POPC   C1A47319   2.086  13.021   6.135
 3533POPC   D2A47320   1.836  12.860   6.504
 3533POPC   C3A47321   1.966  12.952   6.939
 3533POPC   C4A47322   2.297  12.695   7.176
 3533POPC   C1B47323   1.760  12.473   6.099
 3533POPC   C2B47324   1.938  12.343   6.450
 3533POPC   C3B47325   2.032  12.465   6.818
 3533POPC   C4B47326   1.873  12.422   7.228
 3534POPC   NC347327  37.948   1.582   5.160
 3534POPC   PO447328  38.449   2.046   5.478
 3534POPC   GL147329  38.444   1.994   5.914
 3534POPC   GL247330  38.126   2.194   5.905
 3534POPC   C1A47331  38.512   1.912   6.371
 3534POPC   D2A47332  38.570   1.744   6.810
 3534POPC   C3A47333  38.233   1.822   7.101
 3534POPC   C4A47334  38.054   1.794   7.516
 3534POPC   C1B47335  38.457   2.429   6.162
 3534POPC   C2B47336  38.688   2.359   6.556
 3534POPC   C3B47337  38.459   2.282   6.938
 3534POPC   C4B47338  38.515   2.181   7.360
 3535POPC   NC347339   7.162  28.849   5.283
 3535POPC   PO447340   7.617  28.253   5.394
 3535POPC   GL147341   7.340  28.414   5.743
 3535POPC   GL247342   6.966  28.486   5.664
 3535POPC   C1A47343   7.495  28.598   6.169
 3535POPC   D2A47344   7.763  28.540   6.553
 3535POPC   C3A47345   7.783  28.224   6.889
 3535POPC   C4A47346   7.620  28.427   7.239
 3535POPC   C1B47347   6.986  28.570   6.118
 3535POPC   C2B47348   7.084  28.605   6.582
 3535POPC   C3B47349   7.132  28.340   6.969
 3535POPC   C4B47350   7.171  28.267   7.419
 3536POPC   NC347351  17.507  39.751   5.356
 3536POPC   PO447352  17.887  39.247   5.438
 3536POPC   GL147353  17.722  39.267   5.812
 3536POPC   GL247354  17.783  39.655   5.821
 3536POPC   C1A47355  17.706  39.039   6.234
 3536POPC   D2A47356  17.918  39.037   6.669
 3536POPC   C3A47357  17.652  39.068   7.051
 3536POPC   C4A47358  17.767  39.116   7.507
 3536POPC   C1B47359  17.480  39.515   6.157
 3536POPC   C2B47360  17.593  39.426   6.585
 3536POPC   C3B47361  17.414  39.540   6.982
 3536POPC   C4B47362  17.321  39.337   7.402
 3537POPC   NC347363  35.626  34.008   5.151
 3537POPC   PO447364  34.991  33.824   5.177
 3537POPC   GL147365  35.173  33.737   5.644
 3537POPC   GL247366  35.499  33.546   5.727
 3537POPC   C1A47367  35.309  33.888   6.080
 3537POPC   D2A47368  35.262  33.747   6.529
 3537POPC   C3A47369  35.445  33.927   6.872
 3537POPC   C4A47370  35.333  34.061   7.251
 3537POPC   C1B47371  35.548  33.453   6.200
 3537POPC   C2B47372  35.684  33.451   6.628
 3537POPC   C3B47373  35.500  33.363   7.019
 3537POPC   C4B47374  35.158  33.584   7.195
 3538POPC   NC347375  42.834  29.489   5.418
 3538POPC   PO447376  43.269  30.083   5.374
 3538POPC   GL147377  43.012  29.885   5.702
 3538POPC   GL247378  43.239  29.715   5.847
 3538POPC   C1A47379  42.920  29.920   6.162
 3538POPC   D2A47380  43.200  29.943   6.532
 3538POPC   C3A47381  42.949  29.936   6.901
 3538POPC   C4A47382  43.051  30.189   7.236
 3538POPC   C1B47383  43.337  29.548   6.226
 3538POPC   C2B47384  43.489  29.427   6.641
 3538POPC   C3B47385  43.428  29.703   6.983
 3538POPC   C4B47386  43.213  29.707   7.346
 3539POPC   NC347387   0.507  33.346   5.366
 3539POPC   PO447388   0.354  32.747   5.499
 3539POPC   GL147389   0.654  32.951   5.730
 3539POPC   GL247390   0.405  33.166   5.868
 3539POPC   C1A47391   0.810  33.006   6.173
 3539POPC   D2A47392   0.627  33.168   6.574
 3539POPC   C3A47393   0.505  32.922   6.946
 3539POPC   C4A47394   0.410  32.559   7.238
 3539POPC   C1B47395   0.285  32.872   6.203
 3539POPC   C2B47396   0.063  32.880   6.593
 3539POPC   C3B47397   0.045  33.125   6.961
 3539POPC   C4B47398   0.167  33.019   7.367
 3540POPC   NC347399  27.039  13.784   5.392
 3540POPC   PO447400  26.360  13.789   5.564
 3540POPC   GL147401  26.566  13.595   5.865
 3540POPC   GL247402  26.933  13.611   5.863
 3540POPC   C1A47403  26.647  13.728   6.257
 3540POPC   D2A47404  26.934  13.636   6.566
 3540POPC   C3A47405  26.832  13.403   6.897
 3540POPC   C4A47406  26.537  13.526   7.199
 3540POPC   C1B47407  27.115  13.937   6.171
 3540POPC   C2B47408  27.253  14.013   6.614
 3540POPC   C3B47409  27.078  13.856   7.030
 3540POPC   C4B47410  27.016  13.518   7.352
 3541POPC   NC347411  28.313  24.747   5.594
 3541POPC   PO447412  28.282  24.148   5.602
 3541POPC   GL147413  28.529  24.345   5.921
 3541POPC   GL247414  28.267  24.521   6.076
 3541POPC   C1A47415  28.710  24.539   6.299
 3541POPC   D2A47416  28.711  24.398   6.718
 3541POPC   C3A47417  28.410  24.473   7.056
 3541POPC   C4A47418  28.309  24.153   7.348
 3541POPC   C1B47419  28.366  24.151   6.377
 3541POPC   C2B47420  28.195  24.101   6.802
 3541POPC   C3B47421  27.854  24.129   7.123
 3541POPC   C4B47422  27.906  24.451   7.450
 3542POPC   NC347423  20.359  24.576   5.298
 3542POPC   PO447424  21.032  24.881   5.450
 3542POPC   GL147425  20.658  24.663   5.703
 3542POPC   GL247426  20.300  24.790   5.777
 3542POPC   C1A47427  20.479  24.347   6.026
 3542POPC   D2A47428  20.246  24.285   6.447
 3542POPC   C3A47429  20.450  24.234   6.856
 3542POPC   C4A47430  20.488  24.516   7.217
 3542POPC   C1B47431  20.468  24.827   6.214
 3542POPC   C2B47432  20.658  24.637   6.603
 3542POPC   C3B47433  20.921  24.447   6.967
 3542POPC   C4B47434  20.951  24.460   7.432
 3543POPC   NC347435  31.250  39.544   5.422
 3543POPC   PO447436  31.527  40.181   5.543
 3543POPC   GL147437  31.650  39.926   5.886
 3543POPC   GL247438  31.393  39.701   5.890
 3543POPC   C1A47439  31.668  39.795   6.324
 3543POPC   D2A47440  31.729  39.665   6.760
 3543POPC   C3A47441  31.584  39.966   7.038
 3543POPC   C4A47442  31.583  40.256   7.349
 3543POPC   C1B47443  31.121  39.740   6.245
 3543POPC   C2B47444  31.206  39.681   6.684
 3543POPC   C3B47445  31.119  39.723   7.124
 3543POPC   C4B47446  31.147  40.042   7.482
 3544POPC   NC347447  10.715  43.753   5.325
 3544POPC   PO447448  10.537  44.326   5.491
 3544POPC   GL147449  10.609  43.966   5.795
 3544POPC   GL247450  10.812  43.606   5.794
 3544POPC   C1A47451  10.521  43.815   6.196
 3544POPC   D2A47452  10.390  43.972   6.595
 3544POPC   C3A47453  10.167  43.741   6.900
 3544POPC   C4A47454  10.241  43.748   7.323
 3544POPC   C1B47455  10.941  43.479   6.211
 3544POPC   C2B47456  10.832  43.707   6.602
 3544POPC   C3B47457  10.676  43.844   7.016
 3544POPC   C4B47458  10.729  43.815   7.491
 3545POPC   NC347459  31.238  32.014   5.378
 3545POPC   PO447460  31.603  32.541   5.154
 3545POPC   GL147461  31.431  32.457   5.618
 3545POPC   GL247462  31.095  32.324   5.774
 3545POPC   C1A47463  31.459  32.505   6.091
 3545POPC   D2A47464  31.581  32.635   6.523
 3545POPC   C3A47465  31.639  32.356   6.861
 3545POPC   C4A47466  31.483  32.254   7.267
 3545POPC   C1B47467  31.220  32.013   6.075
 3545POPC   C2B47468  31.317  32.128   6.504
 3545POPC   C3B47469  31.117  32.121   6.911
 3545POPC   C4B47470  31.140  31.887   7.307
 3546POPC   NC347471   5.458   8.366   5.540
 3546POPC   PO447472   4.907   7.938   5.459
 3546POPC   GL147473   4.809   8.074   5.891
 3546POPC   GL247474   5.112   8.305   5.926
 3546POPC   C1A47475   4.998   7.971   6.303
 3546POPC   D2A47476   5.352   8.255   6.427
 3546POPC   C3A47477   5.320   8.261   6.863
 3546POPC   C4A47478   5.054   8.046   7.194
 3546POPC   C1B47479   4.867   8.460   6.271
 3546POPC   C2B47480   4.833   8.347   6.694
 3546POPC   C3B47481   4.682   8.386   7.104
 3546POPC   C4B47482   4.717   8.644   7.425
 3547POPC   NC347483  29.690  31.574   5.385
 3547POPC   PO447484  30.330  31.308   5.422
 3547POPC   GL147485  30.018  31.369   5.732
 3547POPC   GL247486  29.984  31.718   5.767
 3547POPC   C1A47487  29.858  31.295   6.151
 3547POPC   D2A47488  29.693  31.138   6.566
 3547POPC   C3A47489  29.803  31.461   6.837
 3547POPC   C4A47490  29.933  31.475   7.238
 3547POPC   C1B47491  29.695  31.794   6.121
 3547POPC   C2B47492  29.596  32.031   6.512
 3547POPC   C3B47493  29.705  31.958   6.949
 3547POPC   C4B47494  29.483  31.713   7.212
 3548POPC   NC347495  11.345  22.524   5.692
 3548POPC   PO447496  11.376  23.176   5.370
 3548POPC   GL147497  11.248  23.032   5.794
 3548POPC   GL247498  10.944  22.817   5.789
 3548POPC   C1A47499  11.360  22.926   6.232
 3548POPC   D2A47500  11.661  22.865   6.569
 3548POPC   C3A47501  11.595  23.142   6.883
 3548POPC   C4A47502  11.331  23.195   7.244
 3548POPC   C1B47503  10.811  22.580   6.137
 3548POPC   C2B47504  10.990  22.731   6.527
 3548POPC   C3B47505  11.180  22.845   6.889
 3548POPC   C4B47506  11.120  22.723   7.298
 3549POPC   NC347507  17.312  11.547   5.247
 3549POPC   PO447508  17.641  10.986   5.349
 3549POPC   GL147509  17.589  11.141   5.769
 3549POPC   GL247510  17.772  11.433   5.773
 3549POPC   C1A47511  17.685  11.043   6.214
 3549POPC   D2A47512  17.591  10.947   6.649
 3549POPC   C3A47513  17.238  11.241   6.770
 3549POPC   C4A47514  17.215  11.625   7.019
 3549POPC   C1B47515  17.532  11.522   6.163
 3549POPC   C2B47516  17.704  11.430   6.569
 3549POPC   C3B47517  17.684  11.399   7.005
 3549POPC   C4B47518  17.718  11.813   7.204
 3550POPC   NC347519  15.077   0.149   5.590
 3550POPC   PO447520  14.953  44.486   5.452
 3550POPC   GL147521  15.020  44.451   5.859
 3550POPC   GL247522  15.218  44.714   5.832
 3550POPC   C1A47523  15.246  44.425   6.232
 3550POPC   D2A47524  15.373  44.607   6.609
 3550POPC   C3A47525  15.233  44.509   7.034
 3550POPC   C4A47526  15.422  44.196   7.240
 3550POPC   C1B47527  15.284  44.938   6.182
 3550POPC   C2B47528  15.100   0.050   6.527
 3550POPC   C3B47529  15.270   0.006   6.893
 3550POPC   C4B47530  15.300   0.056   7.306
 3551POPC   NC347531   4.917  42.017   5.583
 3551POPC   PO447532   5.306  41.567   5.330
 3551POPC   GL147533   5.076  41.537   5.755
 3551POPC   GL247534   4.782  41.314   5.694
 3551POPC   C1A47535   5.160  41.662   6.229
 3551POPC   D2A47536   5.125  41.867   6.688
 3551POPC   C3A47537   5.352  41.757   7.080
 3551POPC   C4A47538   5.482  41.523   7.445
 3551POPC   C1B47539   4.861  41.238   6.141
 3551POPC   C2B47540   4.874  41.126   6.599
 3551POPC   C3B47541   4.921  41.431   6.954
 3551POPC   C4B47542   4.584  41.649   7.176
 3552POPC   NC347543  29.535  11.970   5.382
 3552POPC   PO447544  30.142  12.257   5.205
 3552POPC   GL147545  29.959  12.069   5.666
 3552POPC   GL247546  29.617  12.200   5.814
 3552POPC   C1A47547  29.945  12.025   6.157
 3552POPC   D2A47548  30.031  12.189   6.603
 3552POPC   C3A47549  29.999  11.937   6.997
 3552POPC   C4A47550  30.120  11.879   7.444
 3552POPC   C1B47551  29.553  12.347   6.203
 3552POPC   C2B47552  29.520  12.184   6.586
 3552POPC   C3B47553  29.598  12.283   6.960
 3552POPC   C4B47554  29.817  12.469   7.259
 3553POPC   NC347555  36.243  10.486   5.172
 3553POPC   PO447556  36.430  10.143   5.694
 3553POPC   GL147557  36.049  10.033   5.947
 3553POPC   GL247558  35.706   9.915   5.888
 3553POPC   C1A47559  35.940  10.020   6.376
 3553POPC   D2A47560  36.254  10.036   6.700
 3553POPC   C3A47561  36.234   9.928   7.166
 3553POPC   C4A47562  36.352   9.969   7.659
 3553POPC   C1B47563  35.735   9.585   6.241
 3553POPC   C2B47564  35.960   9.580   6.658
 3553POPC   C3B47565  35.888   9.554   7.119
 3553POPC   C4B47566  36.166   9.520   7.478
 3554POPC   NC347567  37.714  17.798   5.455
 3554POPC   PO447568  38.173  17.370   5.324
 3554POPC   GL147569  37.997  17.315   5.765
 3554POPC   GL247570  37.704  17.453   5.873
 3554POPC   C1A47571  37.967  17.107   6.194
 3554POPC   D2A47572  37.705  17.304   6.530
 3554POPC   C3A47573  37.812  17.148   6.937
 3554POPC   C4A47574  37.731  17.295   7.344
 3554POPC   C1B47575  37.438  17.612   6.195
 3554POPC   C2B47576  37.266  17.620   6.600
 3554POPC   C3B47577  37.526  17.565   6.953
 3554POPC   C4B47578  37.699  17.811   7.294
 3555POPC   NC347579  33.306  17.171   4.989
 3555POPC   PO447580  32.866  17.038   5.411
 3555POPC   GL147581  32.804  17.205   5.825
 3555POPC   GL247582  33.143  17.191   5.869
 3555POPC   C1A47583  32.845  17.365   6.267
 3555POPC   D2A47584  32.761  17.310   6.721
 3555POPC   C3A47585  32.854  17.603   7.087
 3555POPC   C4A47586  33.108  17.933   7.345
 3555POPC   C1B47587  33.234  16.972   6.244
 3555POPC   C2B47588  33.143  16.944   6.682
 3555POPC   C3B47589  33.224  17.252   7.041
 3555POPC   C4B47590  33.230  17.441   7.476
 3556POPC   NC347591  34.397  24.195   5.551
 3556POPC   PO447592  34.778  23.676   5.405
 3556POPC   GL147593  34.634  23.704   5.799
 3556POPC   GL247594  34.309  23.775   5.905
 3556POPC   C1A47595  34.757  23.933   6.147
 3556POPC   D2A47596  34.827  23.864   6.567
 3556POPC   C3A47597  34.816  24.102   6.941
 3556POPC   C4A47598  34.573  23.968   7.312
 3556POPC   C1B47599  34.313  23.856   6.389
 3556POPC   C2B47600  34.380  23.843   6.858
 3556POPC   C3B47601  34.123  23.693   7.228
 3556POPC   C4B47602  33.981  23.439   7.623
 3557POPC   NC347603   6.112  18.501   5.520
 3557POPC   PO447604   5.709  18.037   5.194
 3557POPC   GL147605   5.777  18.066   5.672
 3557POPC   GL247606   5.669  18.394   5.741
 3557POPC   C1A47607   5.941  18.197   6.127
 3557POPC   D2A47608   5.862  18.053   6.566
 3557POPC   C3A47609   6.170  18.120   6.888
 3557POPC   C4A47610   6.046  18.310   7.261
 3557POPC   C1B47611   5.560  18.561   6.153
 3557POPC   C2B47612   5.434  18.363   6.556
 3557POPC   C3B47613   5.631  18.384   6.959
 3557POPC   C4B47614   5.628  18.560   7.393
 3558POPC   NC347615  10.560  40.210   5.409
 3558POPC   PO447616  10.360  39.568   5.448
 3558POPC   GL147617  10.554  39.686   5.867
 3558POPC   GL247618  10.602  40.052   5.911
 3558POPC   C1A47619  10.538  39.742   6.319
 3558POPC   D2A47620  10.598  40.108   6.566
 3558POPC   C3A47621  10.730  39.960   6.928
 3558POPC   C4A47622  10.483  39.738   7.220
 3558POPC   C1B47623  10.225  40.129   6.204
 3558POPC   C2B47624  10.003  40.075   6.610
 3558POPC   C3B47625  10.230  40.139   6.975
 3558POPC   C4B47626  10.528  40.256   7.278
 3559POPC   NC347627  28.117   2.467   5.412
 3559POPC   PO447628  28.182   1.801   5.506
 3559POPC   GL147629  28.345   2.064   5.801
 3559POPC   GL247630  28.676   2.192   5.690
 3559POPC   C1A47631  28.271   2.063   6.235
 3559POPC   D2A47632  28.114   1.791   6.534
 3559POPC   C3A47633  28.294   1.925   6.918
 3559POPC   C4A47634  28.121   1.753   7.274
 3559POPC   C1B47635  28.776   1.997   6.107
 3559POPC   C2B47636  28.665   2.018   6.552
 3559POPC   C3B47637  28.831   1.984   6.955
 3559POPC   C4B47638  28.598   1.957   7.343
 3560POPC   NC347639  38.625  14.666   5.098
 3560POPC   PO447640  38.222  14.744   5.594
 3560POPC   GL147641  38.283  14.448   5.862
 3560POPC   GL247642  38.616  14.401   5.902
 3560POPC   C1A47643  38.214  14.496   6.277
 3560POPC   D2A47644  38.139  14.207   6.539
 3560POPC   C3A47645  38.189  14.247   6.962
 3560POPC   C4A47646  38.317  14.593   7.237
 3560POPC   C1B47647  38.721  14.578   6.270
 3560POPC   C2B47648  38.607  14.455   6.669
 3560POPC   C3B47649  38.758  14.619   7.008
 3560POPC   C4B47650  38.789  14.638   7.463
 3561POPC   NC347651   3.812   2.599   5.278
 3561POPC   PO447652   3.276   3.158   5.334
 3561POPC   GL147653   3.502   2.858   5.629
 3561POPC   GL247654   3.258   2.667   5.800
 3561POPC   C1A47655   3.760   2.741   6.017
 3561POPC   D2A47656   3.942   2.634   6.451
 3561POPC   C3A47657   3.780   2.865   6.807
 3561POPC   C4A47658   3.689   2.842   7.235
 3561POPC   C1B47659   3.333   2.492   6.173
 3561POPC   C2B47660   3.346   2.739   6.518
 3561POPC   C3B47661   3.319   2.658   6.931
 3561POPC   C4B47662   3.192   2.810   7.315
 3562POPC   NC347663  39.535  24.209   5.373
 3562POPC   PO447664  39.228  24.743   5.499
 3562POPC   GL147665  39.374  24.466   5.824
 3562POPC   GL247666  39.217  24.135   5.754
 3562POPC   C1A47667  39.333  24.625   6.253
 3562POPC   D2A47668  39.098  24.780   6.617
 3562POPC   C3A47669  39.279  24.688   7.015
 3562POPC   C4A47670  39.503  24.468   7.329
 3562POPC   C1B47671  39.187  24.120   6.200
 3562POPC   C2B47672  39.226  24.275   6.625
 3562POPC   C3B47673  39.227  24.158   7.050
 3562POPC   C4B47674  39.025  24.225   7.469
 3563POPC   NC347675  36.506  27.688   5.459
 3563POPC   PO447676  36.106  27.195   5.448
 3563POPC   GL147677  36.211  27.421   5.823
 3563POPC   GL247678  36.103  27.778   5.811
 3563POPC   C1A47679  36.030  27.406   6.237
 3563POPC   D2A47680  35.981  27.643   6.624
 3563POPC   C3A47681  35.922  27.368   6.968
 3563POPC   C4A47682  36.112  27.319   7.358
 3563POPC   C1B47683  36.238  27.874   6.210
 3563POPC   C2B47684  36.484  27.591   6.482
 3563POPC   C3B47685  36.424  27.568   6.916
 3563POPC   C4B47686  36.141  27.813   7.171
 3564POPC   NC347687  10.496  17.527   5.222
 3564POPC   PO447688  10.969  17.444   5.704
 3564POPC   GL147689  10.671  17.681   5.899
 3564POPC   GL247690  10.570  17.384   6.081
 3564POPC   C1A47691  10.550  17.807   6.339
 3564POPC   D2A47692  10.410  17.549   6.684
 3564POPC   C3A47693  10.585  17.414   7.067
 3564POPC   C4A47694  10.484  17.738   7.378
 3564POPC   C1B47695  10.160  17.282   6.311
 3564POPC   C2B47696   9.935  17.390   6.681
 3564POPC   C3B47697  10.069  17.354   7.068
 3564POPC   C4B47698  10.236  17.018   7.263
 3565POPC   NC347699  36.852  19.289   5.296
 3565POPC   PO447700  37.292  18.765   5.345
 3565POPC   GL147701  37.069  18.873   5.767
 3565POPC   GL247702  36.850  19.181   5.806
 3565POPC   C1A47703  37.056  18.952   6.238
 3565POPC   D2A47704  36.793  19.059   6.613
 3565POPC   C3A47705  36.890  18.912   7.016
 3565POPC   C4A47706  37.033  19.074   7.414
 3565POPC   C1B47707  36.744  19.416   6.209
 3565POPC   C2B47708  36.803  19.592   6.652
 3565POPC   C3B47709  36.763  19.431   7.085
 3565POPC   C4B47710  36.616  19.374   7.544
 3566POPC   NC347711  16.485  33.484   5.054
 3566POPC   PO447712  16.011  33.028   5.323
 3566POPC   GL147713  16.098  32.815   5.770
 3566POPC   GL247714  16.065  33.109   5.959
 3566POPC   C1A47715  16.273  32.698   6.217
 3566POPC   D2A47716  16.316  32.812   6.679
 3566POPC   C3A47717  15.953  32.944   6.911
 3566POPC   C4A47718  16.068  32.888   7.287
 3566POPC   C1B47719  15.993  33.082   6.404
 3566POPC   C2B47720  16.244  33.319   6.719
 3566POPC   C3B47721  16.097  33.438   7.109
 3566POPC   C4B47722  15.704  33.291   7.267
 3567POPC   NC347723  35.086  29.275   5.069
 3567POPC   PO447724  35.610  29.381   5.372
 3567POPC   GL147725  35.459  29.180   5.714
 3567POPC   GL247726  35.128  29.290   5.695
 3567POPC   C1A47727  35.584  29.149   6.143
 3567POPC   D2A47728  35.393  29.149   6.534
 3567POPC   C3A47729  35.458  29.298   6.966
 3567POPC   C4A47730  35.632  29.152   7.371
 3567POPC   C1B47731  35.094  28.994   6.047
 3567POPC   C2B47732  34.916  28.996   6.451
 3567POPC   C3B47733  35.065  28.977   6.884
 3567POPC   C4B47734  35.154  28.997   7.302
 3568POPC   NC347735  32.650  15.997   5.432
 3568POPC   PO447736  33.024  15.461   5.415
 3568POPC   GL147737  32.888  15.716   5.795
 3568POPC   GL247738  32.786  16.091   5.910
 3568POPC   C1A47739  32.738  15.699   6.225
 3568POPC   D2A47740  32.724  16.058   6.505
 3568POPC   C3A47741  32.898  15.932   6.895
 3568POPC   C4A47742  32.765  15.657   7.231
 3568POPC   C1B47743  33.163  16.000   6.172
 3568POPC   C2B47744  33.317  16.074   6.572
 3568POPC   C3B47745  33.340  16.171   7.002
 3568POPC   C4B47746  33.315  15.838   7.240
 3569POPC   NC347747  29.083   2.382   5.432
 3569POPC   PO447748  29.023   1.817   5.070
 3569POPC   GL147749  29.143   1.867   5.583
 3569POPC   GL247750  29.193   2.142   5.856
 3569POPC   C1A47751  29.169   1.675   6.051
 3569POPC   D2A47752  29.159   1.909   6.473
 3569POPC   C3A47753  29.322   1.746   6.869
 3569POPC   C4A47754  29.126   1.681   7.279
 3569POPC   C1B47755  29.413   2.285   6.215
 3569POPC   C2B47756  29.372   2.363   6.658
 3569POPC   C3B47757  29.300   2.215   7.062
 3569POPC   C4B47758  28.996   2.270   7.360
 3570POPC   NC347759  41.924  23.837   5.590
 3570POPC   PO447760  42.378  24.232   5.351
 3570POPC   GL147761  42.429  23.917   5.754
 3570POPC   GL247762  42.296  23.556   5.807
 3570POPC   C1A47763  42.508  23.806   6.222
 3570POPC   D2A47764  42.723  23.612   6.584
 3570POPC   C3A47765  42.685  23.736   7.018
 3570POPC   C4A47766  42.482  24.063   7.250
 3570POPC   C1B47767  42.051  23.517   6.199
 3570POPC   C2B47768  41.946  23.694   6.602
 3570POPC   C3B47769  42.157  23.713   7.004
 3570POPC   C4B47770  42.060  23.504   7.418
 3571POPC   NC347771  18.944  21.151   5.490
 3571POPC   PO447772  18.393  21.706   5.544
 3571POPC   GL147773  18.768  21.652   5.851
 3571POPC   GL247774  19.106  21.612   5.725
 3571POPC   C1A47775  18.857  21.277   6.160
 3571POPC   D2A47776  19.003  21.136   6.598
 3571POPC   C3A47777  18.728  21.156   6.984
 3571POPC   C4A47778  18.733  21.270   7.455
 3571POPC   C1B47779  19.307  21.544   6.160
 3571POPC   C2B47780  19.399  21.486   6.641
 3571POPC   C3B47781  19.169  21.439   7.044
 3571POPC   C4B47782  19.072  21.652   7.441
 3572POPC   NC347783  27.351   4.636   5.361
 3572POPC   PO447784  27.899   4.153   5.362
 3572POPC   GL147785  27.580   4.304   5.694
 3572POPC   GL247786  27.252   4.134   5.798
 3572POPC   C1A47787  27.466   4.558   6.080
 3572POPC   D2A47788  27.572   4.468   6.523
 3572POPC   C3A47789  27.455   4.606   6.952
 3572POPC   C4A47790  27.461   4.630   7.420
 3572POPC   C1B47791  27.218   4.140   6.276
 3572POPC   C2B47792  27.175   4.223   6.731
 3572POPC   C3B47793  27.304   4.164   7.187
 3572POPC   C4B47794  27.389   4.165   7.647
 3573POPC   NC347795  37.035  41.904   5.353
 3573POPC   PO447796  36.643  41.393   5.510
 3573POPC   GL147797  36.759  41.732   5.756
 3573POPC   GL247798  37.138  41.764   5.819
 3573POPC   C1A47799  36.749  41.698   6.184
 3573POPC   D2A47800  36.737  41.415   6.543
 3573POPC   C3A47801  36.775  41.637   6.924
 3573POPC   C4A47802  36.875  41.499   7.309
 3573POPC   C1B47803  37.175  41.401   6.088
 3573POPC   C2B47804  37.283  41.355   6.517
 3573POPC   C3B47805  37.132  41.243   6.921
 3573POPC   C4B47806  37.302  41.213   7.352
 3574POPC   NC347807  38.520   0.826   5.472
 3574POPC   PO447808  38.448   1.480   5.316
 3574POPC   GL147809  38.451   1.296   5.737
 3574POPC   GL247810  38.223   1.018   5.850
 3574POPC   C1A47811  38.454   1.437   6.169
 3574POPC   D2A47812  38.544   1.264   6.586
 3574POPC   C3A47813  38.260   1.252   6.934
 3574POPC   C4A47814  38.247   1.362   7.365
 3574POPC   C1B47815  38.567   0.940   6.151
 3574POPC   C2B47816  38.637   0.750   6.536
 3574POPC   C3B47817  38.692   0.879   6.969
 3574POPC   C4B47818  38.668   1.115   7.360
 3575POPC   NC347819  39.864  12.882   5.408
 3575POPC   PO447820  40.477  13.122   5.562
 3575POPC   GL147821  40.086  13.050   5.840
 3575POPC   GL247822  40.077  12.678   5.842
 3575POPC   C1A47823  39.792  13.278   6.173
 3575POPC   D2A47824  39.881  13.315   6.649
 3575POPC   C3A47825  40.041  12.921   6.841
 3575POPC   C4A47826  40.317  12.853   7.265
 3575POPC   C1B47827  40.002  12.466   6.245
 3575POPC   C2B47828  39.844  12.484   6.681
 3575POPC   C3B47829  40.106  12.464   7.030
 3575POPC   C4B47830  40.231  12.318   7.435
 3576POPC   NC347831   7.480  35.968   5.313
 3576POPC   PO447832   6.874  36.007   5.181
 3576POPC   GL147833   7.110  35.923   5.661
 3576POPC   GL247834   7.470  35.809   5.792
 3576POPC   C1A47835   7.086  35.890   6.138
 3576POPC   D2A47836   7.156  36.163   6.504
 3576POPC   C3A47837   7.122  35.949   6.906
 3576POPC   C4A47838   7.179  36.200   7.273
 3576POPC   C1B47839   7.583  36.123   6.124
 3576POPC   C2B47840   7.723  36.240   6.550
 3576POPC   C3B47841   7.611  36.267   6.983
 3576POPC   C4B47842   7.664  36.227   7.438
 3577POPC   NC347843  27.364  42.820   5.446
 3577POPC   PO447844  27.684  43.266   5.433
 3577POPC   GL147845  27.564  43.333   5.862
 3577POPC   GL247846  27.877  43.415   5.983
 3577POPC   C1A47847  27.463  43.215   6.321
 3577POPC   D2A47848  27.659  43.154   6.744
 3577POPC   C3A47849  27.446  43.183   7.154
 3577POPC   C4A47850  27.273  42.952   7.518
 3577POPC   C1B47851  27.881  43.522   6.412
 3577POPC   C2B47852  27.896  43.604   6.843
 3577POPC   C3B47853  27.914  43.435   7.245
 3577POPC   C4B47854  27.998  43.638   7.639
 3578POPC   NC347855  11.168  29.469   5.738
 3578POPC   PO447856  11.277  29.007   5.272
 3578POPC   GL147857  11.348  28.982   5.715
 3578POPC   GL247858  10.973  28.971   5.742
 3578POPC   C1A47859  11.561  29.141   6.132
 3578POPC   D2A47860  11.453  29.003   6.547
 3578POPC   C3A47861  11.560  29.233   6.904
 3578POPC   C4A47862  11.330  29.344   7.281
 3578POPC   C1B47863  11.140  28.838   6.148
 3578POPC   C2B47864  10.959  28.858   6.541
 3578POPC   C3B47865  11.058  29.058   6.940
 3578POPC   C4B47866  10.803  29.061   7.311
 3579POPC   NC347867  16.045   7.885   5.499
 3579POPC   PO447868  15.771   8.505   5.435
 3579POPC   GL147869  16.134   8.351   5.676
 3579POPC   GL247870  15.902   8.282   5.898
 3579POPC   C1A47871  16.331   8.114   6.077
 3579POPC   D2A47872  16.013   8.152   6.407
 3579POPC   C3A47873  16.076   8.258   6.833
 3579POPC   C4A47874  16.051   8.368   7.260
 3579POPC   C1B47875  15.609   8.406   6.200
 3579POPC   C2B47876  15.619   8.519   6.621
 3579POPC   C3B47877  15.815   8.725   6.970
 3579POPC   C4B47878  15.653   8.647   7.387
 3580POPC   NC347879  42.710  24.578   5.429
 3580POPC   PO447880  43.366  24.292   5.404
 3580POPC   GL147881  43.279  24.169   5.833
 3580POPC   GL247882  43.244  24.526   5.876
 3580POPC   C1A47883  43.127  24.221   6.301
 3580POPC   D2A47884  42.814  24.124   6.654
 3580POPC   C3A47885  42.962  24.258   7.089
 3580POPC   C4A47886  43.410  24.335   7.128
 3580POPC   C1B47887  42.915  24.682   6.125
 3580POPC   C2B47888  42.907  24.642   6.558
 3580POPC   C3B47889  43.072  24.745   6.946
 3580POPC   C4B47890  42.792  24.765   7.273
 3581POPC   NC347891  17.874  34.100   5.421
 3581POPC   PO447892  18.471  34.350   5.495
 3581POPC   GL147893  18.199  34.323   5.834
 3581POPC   GL247894  18.409  34.585   5.951
 3581POPC   C1A47895  18.283  34.189   6.263
 3581POPC   D2A47896  18.467  34.506   6.552
 3581POPC   C3A47897  18.520  34.293   6.930
 3581POPC   C4A47898  18.129  34.155   7.139
 3581POPC   C1B47899  18.711  34.824   6.196
 3581POPC   C2B47900  18.724  35.054   6.592
 3581POPC   C3B47901  18.589  34.864   6.977
 3581POPC   C4B47902  18.415  34.595   7.314
 3582POPC   NC347903  11.330  34.187   5.301
 3582POPC   PO447904  11.125  33.572   5.363
 3582POPC   GL147905  11.404  33.680   5.696
 3582POPC   GL247906  11.363  34.027   5.785
 3582POPC   C1A47907  11.382  33.663   6.147
 3582POPC   D2A47908  11.174  33.782   6.530
 3582POPC   C3A47909  11.397  33.742   6.930
 3582POPC   C4A47910  11.202  33.643   7.297
 3582POPC   C1B47911  11.336  34.165   6.238
 3582POPC   C2B47912  11.504  34.154   6.649
 3582POPC   C3B47913  11.326  34.235   7.032
 3582POPC   C4B47914  11.437  34.179   7.469
 3583POPC   NC347915  25.896  12.512   5.112
 3583POPC   PO447916  26.379  12.884   5.474
 3583POPC   GL147917  25.949  12.916   5.708
 3583POPC   GL247918  26.169  12.947   5.947
 3583POPC   C1A47919  25.742  12.833   6.171
 3583POPC   D2A47920  25.835  12.783   6.627
 3583POPC   C3A47921  25.866  13.153   6.845
 3583POPC   C4A47922  25.731  13.182   7.242
 3583POPC   C1B47923  26.246  12.924   6.361
 3583POPC   C2B47924  26.421  12.657   6.629
 3583POPC   C3B47925  26.324  12.677   7.015
 3583POPC   C4B47926  25.950  12.729   7.152
 3584POPC   NC347927  26.476  16.948   5.435
 3584POPC   PO447928  27.060  16.517   5.339
 3584POPC   GL147929  26.868  16.700   5.699
 3584POPC   GL247930  26.956  17.063   5.732
 3584POPC   C1A47931  26.787  16.592   6.133
 3584POPC   D2A47932  27.110  16.365   6.377
 3584POPC   C3A47933  27.090  16.438   6.832
 3584POPC   C4A47934  26.738  16.589   7.108
 3584POPC   C1B47935  26.878  17.136   6.192
 3584POPC   C2B47936  26.683  17.133   6.660
 3584POPC   C3B47937  26.662  17.100   7.149
 3584POPC   C4B47938  26.510  17.222   7.601
 3585POPC   NC347939  37.401  26.518   5.647
 3585POPC   PO447940  36.866  26.932   5.398
 3585POPC   GL147941  37.073  26.875   5.759
 3585POPC   GL247942  36.911  26.578   5.796
 3585POPC   C1A47943  37.245  26.898   6.185
 3585POPC   D2A47944  37.052  27.085   6.562
 3585POPC   C3A47945  36.990  26.838   6.940
 3585POPC   C4A47946  36.731  26.966   7.289
 3585POPC   C1B47947  36.756  26.671   6.217
 3585POPC   C2B47948  36.726  26.441   6.615
 3585POPC   C3B47949  36.695  26.204   6.999
 3585POPC   C4B47950  36.944  26.426   7.274
 3586POPC   NC347951  30.964  28.592   5.095
 3586POPC   PO447952  31.201  28.169   5.600
 3586POPC   GL147953  30.879  28.355   5.847
 3586POPC   GL247954  30.685  28.050   5.841
 3586POPC   C1A47955  30.625  28.389   6.248
 3586POPC   D2A47956  30.354  28.436   6.622
 3586POPC   C3A47957  30.406  28.201   7.010
 3586POPC   C4A47958  30.585  28.358   7.430
 3586POPC   C1B47959  30.953  28.000   6.207
 3586POPC   C2B47960  30.745  28.012   6.601
 3586POPC   C3B47961  30.904  28.236   6.926
 3586POPC   C4B47962  31.118  28.256   7.273
 3587POPC   NC347963  14.478  11.878   5.472
 3587POPC   PO447964  14.659  12.492   5.446
 3587POPC   GL147965  14.426  12.270   5.807
 3587POPC   GL247966  14.326  11.928   5.939
 3587POPC   C1A47967  14.312  12.339   6.231
 3587POPC   D2A47968  14.316  12.091   6.621
 3587POPC   C3A47969  14.256  12.274   7.024
 3587POPC   C4A47970  14.504  12.527   7.277
 3587POPC   C1B47971  14.329  11.664   6.269
 3587POPC   C2B47972  14.290  11.592   6.673
 3587POPC   C3B47973  14.570  11.574   6.966
 3587POPC   C4B47974  14.305  11.735   7.219
 3588POPC   NC347975   1.202  44.850   5.413
 3588POPC   PO447976   1.111  44.239   5.124
 3588POPC   GL147977   1.183  44.331   5.613
 3588POPC   GL247978   1.486  44.526   5.694
 3588POPC   C1A47979   1.202  44.286   6.109
 3588POPC   D2A47980   1.060  44.101   6.543
 3588POPC   C3A47981   1.044  44.365   6.915
 3588POPC   C4A47982   1.328  44.538   7.233
 3588POPC   C1B47983   1.397  44.781   6.085
 3588POPC   C2B47984   1.357  44.714   6.550
 3588POPC   C3B47985   1.110  44.878   6.903
 3588POPC   C4B47986   1.261   0.058   7.274
 3589POPC   NC347987  13.956  42.545   5.508
 3589POPC   PO447988  13.364  42.250   5.363
 3589POPC   GL147989  13.578  42.302   5.748
 3589POPC   GL247990  13.287  42.416   5.865
 3589POPC   C1A47991  13.829  42.350   6.142
 3589POPC   D2A47992  13.856  42.488   6.570
 3589POPC   C3A47993  13.762  42.136   6.828
 3589POPC   C4A47994  13.737  42.085   7.252
 3589POPC   C1B47995  13.379  42.547   6.293
 3589POPC   C2B47996  13.473  42.812   6.662
 3589POPC   C3B47997  13.580  42.586   7.036
 3589POPC   C4B47998  13.249  42.579   7.310
 3590POPC   NC347999  26.777  34.947   5.533
 3590POPC   PO448000  26.913  35.589   5.368
 3590POPC   GL148001  26.935  35.383   5.782
 3590POPC   GL248002  26.591  35.456   5.887
 3590POPC   C1A48003  26.934  35.571   6.223
 3590POPC   D2A48004  27.000  35.369   6.601
 3590POPC   C3A48005  26.773  35.386   6.991
 3590POPC   C4A48006  26.613  35.574   7.353
 3590POPC   C1B48007  26.599  35.186   6.275
 3590POPC   C2B48008  26.487  35.045   6.685
 3590POPC   C3B48009  26.581  34.882   7.072
 3590POPC   C4B48010  26.379  35.089   7.361
 3591POPC   NC348011  11.829  30.984   5.338
 3591POPC   PO448012  11.924  31.730   5.386
 3591POPC   GL148013  11.984  31.620   5.789
 3591POPC   GL248014  11.913  31.297   5.739
 3591POPC   C1A48015  12.209  31.591   6.191
 3591POPC   D2A48016  12.237  31.363   6.571
 3591POPC   C3A48017  12.288  31.600   6.930
 3591POPC   C4A48018  12.280  31.701   7.361
 3591POPC   C1B48019  11.972  31.140   6.149
 3591POPC   C2B48020  11.769  31.166   6.554
 3591POPC   C3B48021  11.932  31.210   6.978
 3591POPC   C4B48022  12.101  31.190   7.400
 3592POPC   NC348023  25.930  21.377   5.265
 3592POPC   PO448024  26.589  21.299   5.412
 3592POPC   GL148025  26.719  21.374   5.787
 3592POPC   GL248026  26.894  21.057   5.807
 3592POPC   C1A48027  26.737  21.453   6.195
 3592POPC   D2A48028  26.939  21.470   6.574
 3592POPC   C3A48029  26.708  21.470   6.908
 3592POPC   C4A48030  26.601  21.398   7.285
 3592POPC   C1B48031  27.074  21.094   6.227
 3592POPC   C2B48032  27.027  20.978   6.672
 3592POPC   C3B48033  26.958  21.059   7.103
 3592POPC   C4B48034  26.916  21.083   7.562
 3593POPC   NC348035   6.341  29.307   5.725
 3593POPC   PO448036   6.691  28.953   5.266
 3593POPC   GL148037   6.726  28.948   5.726
 3593POPC   GL248038   6.882  29.259   5.823
 3593POPC   C1A48039   6.665  28.999   6.197
 3593POPC   D2A48040   6.819  29.048   6.598
 3593POPC   C3A48041   6.564  29.175   6.950
 3593POPC   C4A48042   6.618  28.943   7.355
 3593POPC   C1B48043   7.067  29.508   6.124
 3593POPC   C2B48044   7.235  29.457   6.550
 3593POPC   C3B48045   7.126  29.264   6.937
 3593POPC   C4B48046   6.904  29.346   7.307
 3594POPC   NC348047  29.870  39.074   5.456
 3594POPC   PO448048  29.838  39.718   5.643
 3594POPC   GL148049  29.840  39.327   5.921
 3594POPC   GL248050  29.672  38.968   5.896
 3594POPC   C1A48051  29.941  39.333   6.369
 3594POPC   D2A48052  29.875  39.113   6.741
 3594POPC   C3A48053  29.847  39.371   7.115
 3594POPC   C4A48054  29.707  39.438   7.574
 3594POPC   C1B48055  29.867  38.842   6.264
 3594POPC   C2B48056  29.770  38.600   6.633
 3594POPC   C3B48057  29.706  38.744   7.034
 3594POPC   C4B48058  29.762  38.956   7.396
 3595POPC   NC348059  22.291  29.905   5.220
 3595POPC   PO448060  22.189  30.359   5.643
 3595POPC   GL148061  22.168  29.934   5.775
 3595POPC   GL248062  22.016  29.632   5.629
 3595POPC   C1A48063  22.364  29.832   6.176
 3595POPC   D2A48064  22.481  30.029   6.596
 3595POPC   C3A48065  22.246  29.917   6.952
 3595POPC   C4A48066  22.156  30.098   7.336
 3595POPC   C1B48067  21.894  29.611   6.083
 3595POPC   C2B48068  21.865  29.691   6.537
 3595POPC   C3B48069  21.935  29.519   6.933
 3595POPC   C4B48070  21.924  29.623   7.360
 3596POPC   NC348071   3.129  27.887   5.376
 3596POPC   PO448072   3.590  27.432   5.385
 3596POPC   GL148073   3.657  27.381   5.830
 3596POPC   GL248074   3.887  27.665   5.977
 3596POPC   C1A48075   3.419  27.432   6.186
 3596POPC   D2A48076   3.603  27.804   6.399
 3596POPC   C3A48077   3.603  27.711   6.824
 3596POPC   C4A48078   3.350  27.377   7.012
 3596POPC   C1B48079   3.887  27.325   6.284
 3596POPC   C2B48080   3.722  27.223   6.686
 3596POPC   C3B48081   3.865  27.324   7.107
 3596POPC   C4B48082   3.968  27.657   7.421
 3597POPC   NC348083  43.775  33.932   5.388
 3597POPC   PO448084  44.315  33.598   5.629
 3597POPC   GL148085  44.015  33.673   5.921
 3597POPC   GL248086  43.726  33.549   5.792
 3597POPC   C1A48087  43.804  33.864   6.290
 3597POPC   D2A48088  43.702  34.011   6.715
 3597POPC   C3A48089  43.910  33.747   7.026
 3597POPC   C4A48090  43.927  33.784   7.468
 3597POPC   C1B48091  43.761  33.353   6.221
 3597POPC   C2B48092  43.718  33.401   6.684
 3597POPC   C3B48093  43.631  33.337   7.157
 3597POPC   C4B48094  43.593  33.419   7.619
 3598POPC   NC348095  22.887  38.196   5.386
 3598POPC   PO448096  23.270  38.735   5.497
 3598POPC   GL148097  22.946  38.436   5.833
 3598POPC   GL248098  22.698  38.115   5.853
 3598POPC   C1A48099  22.643  38.483   6.245
 3598POPC   D2A48100  22.565  38.337   6.702
 3598POPC   C3A48101  22.844  38.556   7.014
 3598POPC   C4A48102  23.307  38.613   6.995
 3598POPC   C1B48103  22.953  38.089   6.236
 3598POPC   C2B48104  23.079  38.275   6.639
 3598POPC   C3B48105  22.941  38.057   7.016
 3598POPC   C4B48106  22.514  37.995   7.120
 3599POPC   NC348107  35.835  12.647   5.489
 3599POPC   PO448108  35.424  13.153   5.450
 3599POPC   GL148109  35.252  12.940   5.812
 3599POPC   GL248110  35.413  12.601   5.822
 3599POPC   C1A48111  35.312  13.079   6.241
 3599POPC   D2A48112  35.656  13.277   6.521
 3599POPC   C3A48113  35.582  13.175   6.974
 3599POPC   C4A48114  35.207  13.007   7.185
 3599POPC   C1B48115  35.688  12.763   6.152
 3599POPC   C2B48116  35.787  12.785   6.594
 3599POPC   C3B48117  35.610  12.665   6.962
 3599POPC   C4B48118  35.667  12.832   7.380
 3600POPC   NC348119  36.382  13.090   5.004
 3600POPC   PO448120  36.305  12.614   5.481
 3600POPC   GL148121  36.148  12.669   5.872
 3600POPC   GL248122  35.917  12.378   5.916
 3600POPC   C1A48123  36.136  13.022   6.155
 3600POPC   D2A48124  36.293  12.971   6.543
 3600POPC   C3A48125  36.100  13.093   6.914
 3600POPC   C4A48126  36.384  13.062   7.266
 3600POPC   C1B48127  36.090  12.494   6.322
 3600POPC   C2B48128  36.397  12.408   6.573
 3600POPC   C3B48129  36.415  12.662   6.921
 3600POPC   C4B48130  36.094  12.669   7.213
 3601POPC   NC348131  17.739   1.615   5.341
 3601POPC   PO448132  17.295   1.195   5.435
 3601POPC   GL148133  17.626   1.241   5.700
 3601POPC   GL248134  17.806   0.931   5.680
 3601POPC   C1A48135  17.523   1.374   6.101
 3601POPC   D2A48136  17.363   1.159   6.492
 3601POPC   C3A48137  17.574   1.202   6.899
 3601POPC   C4A48138  17.472   0.824   7.138
 3601POPC   C1B48139  17.640   0.874   6.136
 3601POPC   C2B48140  17.766   0.807   6.576
 3601POPC   C3B48141  17.973   0.882   6.981
 3601POPC   C4B48142  17.927   0.906   7.434
 3602POPC   NC348143   5.722  42.561   5.345
 3602POPC   PO448144   6.117  42.021   5.272
 3602POPC   GL148145   5.963  42.202   5.704
 3602POPC   GL248146   5.785  42.523   5.828
 3602POPC   C1A48147   6.137  42.336   6.124
 3602POPC   D2A48148   5.997  42.553   6.501
 3602POPC   C3A48149   5.936  42.242   6.806
 3602POPC   C4A48150   5.922  42.201   7.247
 3602POPC   C1B48151   5.614  42.370   6.188
 3602POPC   C2B48152   5.445  42.464   6.574
 3602POPC   C3B48153   5.441  42.244   6.928
 3602POPC   C4B48154   5.419  42.228   7.342
 3603POPC   NC348155  11.820   1.971   5.401
 3603POPC   PO448156  12.488   2.043   5.460
 3603POPC   GL148157  12.181   1.837   5.740
 3603POPC   GL248158  12.056   2.168   5.838
 3603POPC   C1A48159  12.033   1.755   6.162
 3603POPC   D2A48160  11.976   1.976   6.533
 3603POPC   C3A48161  12.106   1.736   6.906
 3603POPC   C4A48162  12.083   1.577   7.351
 3603POPC   C1B48163  12.424   2.116   6.103
 3603POPC   C2B48164  12.519   2.231   6.506
 3603POPC   C3B48165  12.227   2.277   6.847
 3603POPC   C4B48166  12.072   2.103   7.246
 3604POPC   NC348167  11.350  30.352   5.396
 3604POPC   PO448168  11.362  31.051   5.380
 3604POPC   GL148169  11.288  30.719   5.739
 3604POPC   GL248170  11.486  30.413   5.880
 3604POPC   C1A48171  11.196  30.737   6.187
 3604POPC   D2A48172  11.268  30.994   6.542
 3604POPC   C3A48173  11.420  31.096   6.920
 3604POPC   C4A48174  11.580  31.063   7.321
 3604POPC   C1B48175  11.291  30.257   6.264
 3604POPC   C2B48176  10.995  30.460   6.558
 3604POPC   C3B48177  11.079  30.691   6.916
 3604POPC   C4B48178  11.220  30.556   7.311
 3605POPC   NC348179   5.349   4.375   5.188
 3605POPC   PO448180   4.791   4.094   5.421
 3605POPC   GL148181   4.940   4.389   5.727
 3605POPC   GL248182   5.303   4.411   5.768
 3605POPC   C1A48183   4.882   4.321   6.172
 3605POPC   D2A48184   4.698   4.328   6.588
 3605POPC   C3A48185   4.925   4.115   6.849
 3605POPC   C4A48186   4.885   4.105   7.245
 3605POPC   C1B48187   5.332   4.549   6.218
 3605POPC   C2B48188   5.180   4.531   6.661
 3605POPC   C3B48189   5.279   4.426   7.112
 3605POPC   C4B48190   5.436   4.151   7.491
 3606POPC   NC348191  33.573  40.750   5.431
 3606POPC   PO448192  34.095  40.449   5.229
 3606POPC   GL148193  33.945  40.402   5.714
 3606POPC   GL248194  33.610  40.310   5.796
 3606POPC   C1A48195  33.929  40.409   6.218
 3606POPC   D2A48196  34.153  40.472   6.664
 3606POPC   C3A48197  34.043  40.827   6.929
 3606POPC   C4A48198  33.617  40.995   6.895
 3606POPC   C1B48199  33.388  40.422   6.188
 3606POPC   C2B48200  33.442  40.541   6.624
 3606POPC   C3B48201  33.656  40.479   7.003
 3606POPC   C4B48202  33.460  40.514   7.380
 3607POPC   NC348203  27.753  12.823   5.269
 3607POPC   PO448204  27.165  12.509   5.437
 3607POPC   GL148205  27.389  12.732   5.781
 3607POPC   GL248206  27.745  12.888   5.777
 3607POPC   C1A48207  27.215  12.763   6.208
 3607POPC   D2A48208  27.420  12.541   6.518
 3607POPC   C3A48209  27.729  12.603   6.819
 3607POPC   C4A48210  27.580  12.671   7.213
 3607POPC   C1B48211  27.632  13.031   6.186
 3607POPC   C2B48212  27.610  13.046   6.614
 3607POPC   C3B48213  27.815  13.086   7.011
 3607POPC   C4B48214  27.806  13.280   7.382
 3608POPC   NC348215  22.565  16.186   5.048
 3608POPC   PO448216  22.901  15.770   5.442
 3608POPC   GL148217  22.868  15.836   5.848
 3608POPC   GL248218  23.175  16.006   5.820
 3608POPC   C1A48219  22.709  15.930   6.258
 3608POPC   D2A48220  22.988  15.991   6.600
 3608POPC   C3A48221  22.812  15.969   6.979
 3608POPC   C4A48222  22.633  15.761   7.309
 3608POPC   C1B48223  23.242  15.788   6.198
 3608POPC   C2B48224  23.251  15.554   6.599
 3608POPC   C3B48225  23.034  15.509   6.994
 3608POPC   C4B48226  23.110  15.607   7.396
 3609POPC   NC348227  16.271  27.543   5.579
 3609POPC   PO448228  17.007  27.621   5.498
 3609POPC   GL148229  16.826  27.811   5.847
 3609POPC   GL248230  16.955  28.124   5.900
 3609POPC   C1A48231  16.738  27.729   6.273
 3609POPC   D2A48232  16.894  27.517   6.627
 3609POPC   C3A48233  16.660  27.480   7.014
 3609POPC   C4A48234  16.503  27.401   7.415
 3609POPC   C1B48235  17.167  28.027   6.262
 3609POPC   C2B48236  17.084  27.988   6.678
 3609POPC   C3B48237  17.079  27.782   7.053
 3609POPC   C4B48238  16.775  27.869   7.346
 3610POPC   NC348239  18.562  19.522   5.526
 3610POPC   PO448240  18.197  19.999   5.382
 3610POPC   GL148241  18.090  20.087   5.786
 3610POPC   GL248242  18.373  19.877   5.899
 3610POPC   C1A48243  18.089  20.132   6.231
 3610POPC   D2A48244  18.452  20.068   6.518
 3610POPC   C3A48245  18.357  19.881   6.893
 3610POPC   C4A48246  18.225  20.091   7.237
 3610POPC   C1B48247  18.252  19.642   6.289
 3610POPC   C2B48248  18.205  19.412   6.682
 3610POPC   C3B48249  18.410  19.400   7.078
 3610POPC   C4B48250  18.307  19.609   7.449
 3611POPC   NC348251   4.715   0.221   5.446
 3611POPC   PO448252   4.091   0.170   5.359
 3611POPC   GL148253   4.301   0.484   5.712
 3611POPC   GL248254   4.015   0.675   5.821
 3611POPC   C1A48255   4.378   0.662   6.176
 3611POPC   D2A48256   4.234   0.630   6.619
 3611POPC   C3A48257   4.393   0.357   6.954
 3611POPC   C4A48258   4.199   0.288   7.330
 3611POPC   C1B48259   3.842   0.480   6.201
 3611POPC   C2B48260   3.720   0.629   6.620
 3611POPC   C3B48261   3.899   0.641   7.057
 3611POPC   C4B48262   3.926   0.895   7.447
 3612POPC   NC348263  18.252  30.117   5.455
 3612POPC   PO448264  18.634  29.568   5.539
 3612POPC   GL148265  18.434  29.715   5.931
 3612POPC   GL248266  18.221  30.002   5.938
 3612POPC   C1A48267  18.353  29.748   6.394
 3612POPC   D2A48268  18.485  29.996   6.761
 3612POPC   C3A48269  18.301  29.852   7.128
 3612POPC   C4A48270  18.376  29.670   7.525
 3612POPC   C1B48271  18.325  30.259   6.259
 3612POPC   C2B48272  18.136  30.317   6.596
 3612POPC   C3B48273  18.227  30.406   7.004
 3612POPC   C4B48274  18.106  30.253   7.381
 3613POPC   NC348275  37.565  13.674   5.352
 3613POPC   PO448276  38.011  14.086   5.558
 3613POPC   GL148277  37.772  13.851   5.898
 3613POPC   GL248278  37.462  13.627   5.859
 3613POPC   C1A48279  37.673  13.756   6.324
 3613POPC   D2A48280  37.699  13.416   6.625
 3613POPC   C3A48281  37.637  13.588   7.053
 3613POPC   C4A48282  37.852  13.764   7.390
 3613POPC   C1B48283  37.433  13.301   6.186
 3613POPC   C2B48284  37.241  13.202   6.582
 3613POPC   C3B48285  37.433  13.140   6.985
 3613POPC   C4B48286  37.623  13.207   7.398
 3614POPC   NC348287  43.996  36.075   5.529
 3614POPC   PO448288  43.656  35.539   5.427
 3614POPC   GL148289  43.853  35.685   5.850
 3614POPC   GL248290  44.236  35.792   5.879
 3614POPC   C1A48291  43.888  35.970   6.225
 3614POPC   D2A48292  44.148  36.039   6.612
 3614POPC   C3A48293  43.870  35.978   6.947
 3614POPC   C4A48294  43.670  36.041   7.323
 3614POPC   C1B48295  44.346  36.196   6.155
 3614POPC   C2B48296  44.184  36.537   6.476
 3614POPC   C3B48297  44.142  36.461   6.934
 3614POPC   C4B48298  44.171  36.177   7.296
 3615POPC   NC348299  41.113  22.442   5.326
 3615POPC   PO448300  40.651  21.879   5.291
 3615POPC   GL148301  40.732  21.973   5.731
 3615POPC   GL248302  41.031  22.197   5.780
 3615POPC   C1A48303  40.777  21.930   6.184
 3615POPC   D2A48304  40.738  22.163   6.594
 3615POPC   C3A48305  40.618  21.993   7.014
 3615POPC   C4A48306  40.793  21.923   7.443
 3615POPC   C1B48307  40.808  22.426   6.108
 3615POPC   C2B48308  40.947  22.621   6.474
 3615POPC   C3B48309  41.131  22.443   6.831
 3615POPC   C4B48310  40.935  22.385   7.221
 3616POPC   NC348311  15.092  17.944   5.512
 3616POPC   PO448312  14.554  18.313   5.311
 3616POPC   GL148313  14.434  18.333   5.778
 3616POPC   GL248314  14.830  18.351   5.794
 3616POPC   C1A48315  14.145  18.323   6.187
 3616POPC   D2A48316  13.944  18.130   6.579
 3616POPC   C3A48317  14.079  18.360   6.921
 3616POPC   C4A48318  14.267  18.352   7.332
 3616POPC   C1B48319  14.675  18.337   6.215
 3616POPC   C2B48320  14.516  18.551   6.551
 3616POPC   C3B48321  14.597  18.436   6.938
 3616POPC   C4B48322  14.773  18.212   7.242
 3617POPC   NC348323  22.498  22.955   5.582
 3617POPC   PO448324  21.908  23.052   5.567
 3617POPC   GL148325  21.830  23.020   5.961
 3617POPC   GL248326  22.171  22.888   5.977
 3617POPC   C1A48327  21.870  22.897   6.380
 3617POPC   D2A48328  22.064  22.885   6.733
 3617POPC   C3A48329  21.799  22.827   7.047
 3617POPC   C4A48330  21.932  23.037   7.420
 3617POPC   C1B48331  22.205  23.247   6.254
 3617POPC   C2B48332  22.389  23.266   6.651
 3617POPC   C3B48333  22.550  23.357   7.059
 3617POPC   C4B48334  22.347  23.353   7.489
 3618POPC   NC348335   4.516  37.536   5.381
 3618POPC   PO448336   5.182  37.687   5.354
 3618POPC   GL148337   5.115  37.497   5.746
 3618POPC   GL248338   5.327  37.242   5.809
 3618POPC   C1A48339   5.023  37.440   6.199
 3618POPC   D2A48340   4.867  37.663   6.568
 3618POPC   C3A48341   5.102  37.754   6.899
 3618POPC   C4A48342   4.973  37.815   7.275
 3618POPC   C1B48343   5.420  37.108   6.207
 3618POPC   C2B48344   5.361  37.301   6.578
 3618POPC   C3B48345   5.205  37.243   6.943
 3618POPC   C4B48346   5.251  37.391   7.302
 3619POPC   NC348347  22.347  32.405   5.440
 3619POPC   PO448348  21.739  31.974   5.416
 3619POPC   GL148349  22.039  32.095   5.733
 3619POPC   GL248350  22.038  32.454   5.845
 3619POPC   C1A48351  22.229  31.984   6.141
 3619POPC   D2A48352  22.334  31.778   6.535
 3619POPC   C3A48353  22.305  31.967   6.931
 3619POPC   C4A48354  22.243  32.095   7.361
 3619POPC   C1B48355  22.434  32.448   6.120
 3619POPC   C2B48356  22.520  32.282   6.549
 3619POPC   C3B48357  22.547  32.430   7.004
 3619POPC   C4B48358  22.524  32.518   7.453
 3620POPC   NC348359   8.676   1.543   5.329
 3620POPC   PO448360   8.745   0.947   5.638
 3620POPC   GL148361   9.102   1.023   5.887
 3620POPC   GL248362   9.233   0.679   5.968
 3620POPC   C1A48363   8.988   1.260   6.293
 3620POPC   D2A48364   8.631   1.163   6.601
 3620POPC   C3A48365   8.798   1.233   7.034
 3620POPC   C4A48366   9.238   1.374   7.104
 3620POPC   C1B48367   8.910   0.761   6.270
 3620POPC   C2B48368   9.049   0.879   6.660
 3620POPC   C3B48369   9.226   0.848   7.025
 3620POPC   C4B48370   9.086   0.976   7.400
 3621POPC   NC348371  36.015  29.607   5.408
 3621POPC   PO448372  36.288  28.971   5.481
 3621POPC   GL148373  36.083  29.059   5.866
 3621POPC   GL248374  35.923  29.362   5.838
 3621POPC   C1A48375  36.234  29.221   6.250
 3621POPC   D2A48376  36.340  29.343   6.666
 3621POPC   C3A48377  36.128  29.168   7.031
 3621POPC   C4A48378  36.024  28.773   7.248
 3621POPC   C1B48379  35.860  29.564   6.251
 3621POPC   C2B48380  35.844  29.396   6.658
 3621POPC   C3B48381  35.850  29.603   7.078
 3621POPC   C4B48382  35.807  29.601   7.518
 3622POPC   NC348383  25.344   9.982   5.475
 3622POPC   PO448384  25.183  10.678   5.504
 3622POPC   GL148385  25.344  10.442   5.828
 3622POPC   GL248386  25.007  10.293   5.897
 3622POPC   C1A48387  25.521  10.685   6.181
 3622POPC   D2A48388  25.528  11.049   6.489
 3622POPC   C3A48389  25.565  10.910   6.937
 3622POPC   C4A48390  25.615  10.462   7.103
 3622POPC   C1B48391  25.029  10.619   6.237
 3622POPC   C2B48392  25.268  10.598   6.644
 3622POPC   C3B48393  25.115  10.480   7.052
 3622POPC   C4B48394  25.014  10.632   7.452
 3623POPC   NC348395  21.862  27.985   5.435
 3623POPC   PO448396  21.905  28.567   5.394
 3623POPC   GL148397  22.002  28.496   5.847
 3623POPC   GL248398  22.056  28.118   5.876
 3623POPC   C1A48399  22.074  28.714   6.302
 3623POPC   D2A48400  22.261  28.866   6.722
 3623POPC   C3A48401  22.179  28.643   7.124
 3623POPC   C4A48402  21.941  28.376   7.430
 3623POPC   C1B48403  22.189  28.216   6.275
 3623POPC   C2B48404  22.082  28.343   6.691
 3623POPC   C3B48405  22.097  28.089   7.054
 3623POPC   C4B48406  21.789  27.894   7.340
 3624POPC   NC348407  12.345  41.617   5.346
 3624POPC   PO448408  11.775  42.064   5.367
 3624POPC   GL148409  11.967  41.728   5.682
 3624POPC   GL248410  12.062  41.328   5.661
 3624POPC   C1A48411  11.995  41.542   6.128
 3624POPC   D2A48412  11.821  41.286   6.473
 3624POPC   C3A48413  11.875  41.359   6.907
 3624POPC   C4A48414  12.033  41.334   7.316
 3624POPC   C1B48415  12.329  41.188   6.072
 3624POPC   C2B48416  12.349  41.420   6.490
 3624POPC   C3B48417  12.398  41.406   6.942
 3624POPC   C4B48418  12.507  41.579   7.351
 3625POPC   NC348419  35.174  24.826   5.092
 3625POPC   PO448420  35.429  24.279   5.369
 3625POPC   GL148421  35.417  24.426   5.824
 3625POPC   GL248422  35.607  24.744   5.885
 3625POPC   C1A48423  35.498  24.344   6.273
 3625POPC   D2A48424  35.226  24.236   6.651
 3625POPC   C3A48425  35.265  24.393   7.058
 3625POPC   C4A48426  35.613  24.578   7.231
 3625POPC   C1B48427  35.341  24.832   6.246
 3625POPC   C2B48428  35.240  25.069   6.594
 3625POPC   C3B48429  35.351  24.926   6.965
 3625POPC   C4B48430  35.097  24.833   7.299
 3626POPC   NC348431  32.661  11.649   5.336
 3626POPC   PO448432  32.205  11.135   5.356
 3626POPC   GL148433  32.130  11.229   5.787
 3626POPC   GL248434  32.481  11.271   5.779
 3626POPC   C1A48435  31.928  11.361   6.186
 3626POPC   D2A48436  31.877  11.611   6.574
 3626POPC   C3A48437  31.926  11.333   6.922
 3626POPC   C4A48438  32.027  11.307   7.335
 3626POPC   C1B48439  32.501  11.222   6.219
 3626POPC   C2B48440  32.352  11.398   6.604
 3626POPC   C3B48441  32.445  11.356   7.037
 3626POPC   C4B48442  32.489  11.207   7.489
 3627POPC   NC348443   6.035  21.607   5.344
 3627POPC   PO448444   5.465  21.160   5.438
 3627POPC   GL148445   5.803  21.312   5.714
 3627POPC   GL248446   5.698  21.656   5.763
 3627POPC   C1A48447   6.017  21.277   6.129
 3627POPC   D2A48448   6.041  21.254   6.602
 3627POPC   C3A48449   5.692  21.053   6.818
 3627POPC   C4A48450   5.583  21.075   7.244
 3627POPC   C1B48451   5.841  21.757   6.208
 3627POPC   C2B48452   5.872  21.740   6.681
 3627POPC   C3B48453   5.917  21.563   7.127
 3627POPC   C4B48454   5.989  21.662   7.624
 3628POPC   NC348455  13.329  25.444   5.533
 3628POPC   PO448456  12.737  25.146   5.524
 3628POPC   GL148457  12.991  25.164   5.891
 3628POPC   GL248458  12.889  24.823   5.930
 3628POPC   C1A48459  12.959  25.419   6.298
 3628POPC   D2A48460  13.039  25.596   6.731
 3628POPC   C3A48461  13.003  25.342   7.067
 3628POPC   C4A48462  12.946  25.196   7.493
 3628POPC   C1B48463  12.662  24.992   6.274
 3628POPC   C2B48464  12.841  24.980   6.676
 3628POPC   C3B48465  12.608  25.025   7.022
 3628POPC   C4B48466  12.402  25.166   7.338
 3629POPC   NC348467  19.082   3.226   5.411
 3629POPC   PO448468  18.969   2.633   5.364
 3629POPC   GL148469  18.887   2.854   5.781
 3629POPC   GL248470  18.537   2.887   5.879
 3629POPC   C1A48471  18.867   2.905   6.261
 3629POPC   D2A48472  19.112   3.065   6.641
 3629POPC   C3A48473  19.051   2.888   7.074
 3629POPC   C4A48474  19.116   2.473   7.265
 3629POPC   C1B48475  18.488   2.534   6.165
 3629POPC   C2B48476  18.679   2.494   6.569
 3629POPC   C3B48477  18.627   2.569   6.988
 3629POPC   C4B48478  18.620   2.708   7.366
 3630POPC   NC348479  24.285  37.899   5.119
 3630POPC   PO448480  23.647  37.972   5.386
 3630POPC   GL148481  23.844  37.729   5.775
 3630POPC   GL248482  23.896  37.376   5.824
 3630POPC   C1A48483  23.770  37.769   6.220
 3630POPC   D2A48484  23.693  37.574   6.612
 3630POPC   C3A48485  23.798  37.774   6.971
 3630POPC   C4A48486  23.969  37.663   7.332
 3630POPC   C1B48487  23.612  37.268   6.197
 3630POPC   C2B48488  23.458  37.141   6.627
 3630POPC   C3B48489  23.646  37.266   7.077
 3630POPC   C4B48490  23.703  37.328   7.588
 3631POPC   NC348491   5.539  10.912   5.706
 3631POPC   PO448492   6.117  10.729   5.337
 3631POPC   GL148493   5.920  10.557   5.742
 3631POPC   GL248494   5.670  10.253   5.748
 3631POPC   C1A48495   5.877  10.468   6.187
 3631POPC   D2A48496   6.122  10.382   6.550
 3631POPC   C3A48497   5.875  10.463   6.883
 3631POPC   C4A48498   5.791  10.757   7.180
 3631POPC   C1B48499   5.572  10.063   6.127
 3631POPC   C2B48500   5.747  10.050   6.531
 3631POPC   C3B48501   5.579  10.016   6.938
 3631POPC   C4B48502   5.594  10.295   7.307
 3632POPC   NC348503  34.858   0.358   5.214
 3632POPC   PO448504  34.183   0.563   5.424
 3632POPC   GL148505  34.417   0.465   5.803
 3632POPC   GL248506  34.643   0.213   5.683
 3632POPC   C1A48507  34.396   0.292   6.232
 3632POPC   D2A48508  34.294   0.288   6.667
 3632POPC   C3A48509  34.468   0.621   6.880
 3632POPC   C4A48510  34.363   0.874   7.206
 3632POPC   C1B48511  34.880   0.366   6.044
 3632POPC   C2B48512  34.895   0.380   6.498
 3632POPC   C3B48513  34.800   0.232   6.911
 3632POPC   C4B48514  34.775   0.462   7.285
 3633POPC   NC348515  35.033  30.846   5.648
 3633POPC   PO448516  35.713  30.973   5.538
 3633POPC   GL148517  35.543  30.850   5.905
 3633POPC   GL248518  35.349  30.577   5.928
 3633POPC   C1A48519  35.360  30.928   6.319
 3633POPC   D2A48520  35.421  31.177   6.685
 3633POPC   C3A48521  35.323  30.865   7.006
 3633POPC   C4A48522  35.456  30.790   7.411
 3633POPC   C1B48523  35.258  30.428   6.331
 3633POPC   C2B48524  35.422  30.336   6.741
 3633POPC   C3B48525  35.291  30.358   7.168
 3633POPC   C4B48526  35.379  30.361   7.626
 3634POPC   NC348527  10.168  38.703   5.519
 3634POPC   PO448528   9.495  38.610   5.530
 3634POPC   GL148529   9.495  38.375   5.863
 3634POPC   GL248530   9.661  38.653   6.028
 3634POPC   C1A48531   9.477  38.240   6.242
 3634POPC   D2A48532   9.746  38.483   6.529
 3634POPC   C3A48533   9.707  38.286   6.904
 3634POPC   C4A48534   9.447  38.420   7.196
 3634POPC   C1B48535  10.085  38.707   6.201
 3634POPC   C2B48536  10.242  38.688   6.643
 3634POPC   C3B48537  10.226  38.377   6.993
 3634POPC   C4B48538   9.931  38.339   7.353
 3635POPC   NC348539  29.545   7.652   5.471
 3635POPC   PO448540  28.910   7.741   5.390
 3635POPC   GL148541  28.956   7.586   5.817
 3635POPC   GL248542  28.893   7.215   5.800
 3635POPC   C1A48543  29.274   7.483   6.152
 3635POPC   D2A48544  29.520   7.300   6.516
 3635POPC   C3A48545  29.365   7.411   6.942
 3635POPC   C4A48546  29.475   7.733   7.278
 3635POPC   C1B48547  28.782   7.300   6.208
 3635POPC   C2B48548  28.928   7.578   6.531
 3635POPC   C3B48549  28.851   7.435   6.947
 3635POPC   C4B48550  28.975   7.578   7.311
 3636POPC   NC348551  40.226  16.488   5.154
 3636POPC   PO448552  39.584  16.549   5.084
 3636POPC   GL148553  39.908  16.623   5.543
 3636POPC   GL248554  39.707  16.583   5.838
 3636POPC   C1A48555  40.047  16.909   5.968
 3636POPC   D2A48556  40.073  16.792   6.439
 3636POPC   C3A48557  40.107  16.830   6.919
 3636POPC   C4A48558  40.327  16.689   7.329
 3636POPC   C1B48559  39.597  16.816   6.233
 3636POPC   C2B48560  39.630  16.806   6.690
 3636POPC   C3B48561  39.635  16.893   7.127
 3636POPC   C4B48562  39.852  16.777   7.486
 3637POPC   NC348563  28.743   5.398   5.598
 3637POPC   PO448564  28.328   4.980   5.198
 3637POPC   GL148565  28.407   4.888   5.722
 3637POPC   GL248566  28.125   5.040   5.903
 3637POPC   C1A48567  28.420   4.852   6.260
 3637POPC   D2A48568  28.294   5.114   6.668
 3637POPC   C3A48569  28.498   5.067   7.121
 3637POPC   C4A48570  28.611   5.313   7.551
 3637POPC   C1B48571  27.947   5.296   6.286
 3637POPC   C2B48572  27.860   5.423   6.711
 3637POPC   C3B48573  28.008   5.216   7.089
 3637POPC   C4B48574  28.161   5.082   7.510
 3638POPC   NC348575  20.981  22.670   5.326
 3638POPC   PO448576  20.544  23.158   5.258
 3638POPC   GL148577  20.740  23.014   5.711
 3638POPC   GL248578  20.511  22.796   5.909
 3638POPC   C1A48579  20.874  22.953   6.222
 3638POPC   D2A48580  20.943  22.761   6.646
 3638POPC   C3A48581  20.719  22.913   7.044
 3638POPC   C4A48582  20.733  23.073   7.508
 3638POPC   C1B48583  20.392  22.932   6.361
 3638POPC   C2B48584  20.456  22.619   6.664
 3638POPC   C3B48585  20.324  22.475   7.055
 3638POPC   C4B48586  20.457  22.651   7.419
 3639POPC   NC348587  39.731   8.059   5.464
 3639POPC   PO448588  40.369   8.038   5.477
 3639POPC   GL148589  40.080   8.083   5.836
 3639POPC   GL248590  39.875   7.791   5.891
 3639POPC   C1A48591  39.783   8.257   6.173
 3639POPC   D2A48592  39.949   8.327   6.611
 3639POPC   C3A48593  39.779   8.188   7.007
 3639POPC   C4A48594  39.679   8.488   7.345
 3639POPC   C1B48595  40.076   7.865   6.313
 3639POPC   C2B48596  40.204   7.883   6.750
 3639POPC   C3B48597  40.271   8.185   7.103
 3639POPC   C4B48598  40.191   8.298   7.545
 3640POPC   NC348599  18.136  39.643   5.416
 3640POPC   PO448600  18.497  39.050   5.378
 3640POPC   GL148601  18.506  39.352   5.723
 3640POPC   GL248602  18.219  39.317   5.833
 3640POPC   C1A48603  18.549  39.350   6.217
 3640POPC   D2A48604  18.510  39.158   6.661
 3640POPC   C3A48605  18.462  39.420   7.041
 3640POPC   C4A48606  18.232  39.429   7.457
 3640POPC   C1B48607  18.032  39.408   6.213
 3640POPC   C2B48608  18.126  39.517   6.614
 3640POPC   C3B48609  17.948  39.485   7.016
 3640POPC   C4B48610  17.737  39.636   7.363
 3641POPC   NC348611  12.441  11.917   5.410
 3641POPC   PO448612  13.201  11.810   5.534
 3641POPC   GL148613  12.968  12.120   5.791
 3641POPC   GL248614  12.618  12.098   5.854
 3641POPC   C1A48615  12.888  12.340   6.206
 3641POPC   D2A48616  12.978  12.179   6.603
 3641POPC   C3A48617  12.830  12.380   6.957
 3641POPC   C4A48618  12.816  12.072   7.224
 3641POPC   C1B48619  12.533  11.953   6.284
 3641POPC   C2B48620  12.595  11.868   6.742
 3641POPC   C3B48621  12.434  11.743   7.147
 3641POPC   C4B48622  12.575  11.753   7.578
 3642POPC   NC348623   2.059  10.582   5.180
 3642POPC   PO448624   1.855  10.955   5.661
 3642POPC   GL148625   1.982  10.587   5.863
 3642POPC   GL248626   2.292  10.484   5.691
 3642POPC   C1A48627   1.920  10.581   6.313
 3642POPC   D2A48628   1.932  10.839   6.699
 3642POPC   C3A48629   1.878  10.620   7.093
 3642POPC   C4A48630   1.658  10.282   7.256
 3642POPC   C1B48631   2.401  10.452   6.147
 3642POPC   C2B48632   2.316  10.416   6.615
 3642POPC   C3B48633   2.346  10.398   7.088
 3642POPC   C4B48634   2.247  10.629   7.488
 3643POPC   NC348635  30.261  24.310   5.511
 3643POPC   PO448636  29.689  24.752   5.472
 3643POPC   GL148637  29.958  24.714   5.820
 3643POPC   GL248638  29.912  24.366   5.911
 3643POPC   C1A48639  29.843  24.895   6.203
 3643POPC   D2A48640  29.609  24.778   6.578
 3643POPC   C3A48641  29.799  24.633   6.948
 3643POPC   C4A48642  29.953  24.909   7.252
 3643POPC   C1B48643  30.083  24.461   6.324
 3643POPC   C2B48644  30.064  24.245   6.703
 3643POPC   C3B48645  30.286  24.161   7.060
 3643POPC   C4B48646  30.110  24.343   7.358
 3644POPC   NC348647   8.763  36.704   5.342
 3644POPC   PO448648   9.337  37.054   5.413
 3644POPC   GL148649   8.979  37.009   5.719
 3644POPC   GL248650   8.903  36.685   5.819
 3644POPC   C1A48651   8.881  37.095   6.139
 3644POPC   D2A48652   9.155  37.193   6.465
 3644POPC   C3A48653   8.996  37.007   6.815
 3644POPC   C4A48654   8.913  37.060   7.229
 3644POPC   C1B48655   8.863  36.579   6.212
 3644POPC   C2B48656   8.641  36.711   6.569
 3644POPC   C3B48657   8.668  36.522   6.951
 3644POPC   C4B48658   8.791  36.588   7.358
 3645POPC   NC348659  39.720  30.353   5.391
 3645POPC   PO448660  40.317  30.735   5.359
 3645POPC   GL148661  40.039  30.685   5.762
 3645POPC   GL248662  39.660  30.623   5.819
 3645POPC   C1A48663  39.937  30.770   6.224
 3645POPC   D2A48664  40.065  30.637   6.642
 3645POPC   C3A48665  40.005  30.855   7.040
 3645POPC   C4A48666  40.295  31.075   7.285
 3645POPC   C1B48667  39.613  30.373   6.195
 3645POPC   C2B48668  39.817  30.189   6.567
 3645POPC   C3B48669  39.917  30.317   7.027
 3645POPC   C4B48670  39.780  30.407   7.469
 3646POPC   NC348671   7.054  17.623   5.306
 3646POPC   PO448672   6.417  17.456   5.296
 3646POPC   GL148673   6.643  17.517   5.680
 3646POPC   GL248674   6.902  17.270   5.701
 3646POPC   C1A48675   6.569  17.729   6.109
 3646POPC   D2A48676   6.526  17.942   6.531
 3646POPC   C3A48677   6.560  17.723   6.965
 3646POPC   C4A48678   7.003  17.706   7.166
 3646POPC   C1B48679   6.644  17.232   6.104
 3646POPC   C2B48680   6.627  17.414   6.530
 3646POPC   C3B48681   6.791  17.255   6.928
 3646POPC   C4B48682   6.637  17.153   7.330
 3647POPC   NC348683   2.023  40.717   5.407
 3647POPC   PO448684   2.609  40.544   5.491
 3647POPC   GL148685   2.335  40.494   5.852
 3647POPC   GL248686   1.948  40.492   5.850
 3647POPC   C1A48687   2.227  40.784   6.178
 3647POPC   D2A48688   2.279  40.855   6.596
 3647POPC   C3A48689   1.901  40.861   6.842
 3647POPC   C4A48690   1.927  40.995   7.258
 3647POPC   C1B48691   1.952  40.342   6.256
 3647POPC   C2B48692   2.257  40.340   6.573
 3647POPC   C3B48693   2.145  40.440   6.968
 3647POPC   C4B48694   1.724  40.517   7.204
 3648POPC   NC348695   9.277  18.825   5.600
 3648POPC   PO448696   8.799  19.092   5.154
 3648POPC   GL148697   8.835  19.097   5.616
 3648POPC   GL248698   9.035  19.351   5.791
 3648POPC   C1A48699   8.828  19.014   6.096
 3648POPC   D2A48700   8.882  19.284   6.466
 3648POPC   C3A48701   8.813  19.017   6.833
 3648POPC   C4A48702   8.743  19.097   7.245
 3648POPC   C1B48703   9.315  19.207   6.160
 3648POPC   C2B48704   9.305  19.009   6.574
 3648POPC   C3B48705   9.284  19.012   7.006
 3648POPC   C4B48706   9.340  19.276   7.334
 3649POPC   NC348707  37.815  35.972   5.304
 3649POPC   PO448708  38.029  36.585   5.509
 3649POPC   GL148709  37.884  36.203   5.734
 3649POPC   GL248710  38.064  35.890   5.863
 3649POPC   C1A48711  37.579  35.961   6.019
 3649POPC   D2A48712  37.375  36.046   6.433
 3649POPC   C3A48713  37.482  36.010   6.886
 3649POPC   C4A48714  37.373  36.329   7.191
 3649POPC   C1B48715  37.970  36.241   6.216
 3649POPC   C2B48716  38.042  36.451   6.643
 3649POPC   C3B48717  37.942  36.256   7.058
 3649POPC   C4B48718  37.813  36.455   7.427
 3650POPC   NC348719  18.236  20.459   5.349
 3650POPC   PO448720  18.729  20.771   5.659
 3650POPC   GL148721  18.408  20.525   5.846
 3650POPC   GL248722  18.059  20.594   5.829
 3650POPC   C1A48723  18.469  20.504   6.265
 3650POPC   D2A48724  18.613  20.764   6.584
 3650POPC   C3A48725  18.495  20.479   6.869
 3650POPC   C4A48726  18.506  20.536   7.268
 3650POPC   C1B48727  17.969  20.625   6.246
 3650POPC   C2B48728  18.045  20.446   6.639
 3650POPC   C3B48729  18.032  20.538   7.069
 3650POPC   C4B48730  17.796  20.347   7.376
 3651POPC   NC348731   1.662  11.493   5.148
 3651POPC   PO448732   1.090  11.432   5.452
 3651POPC   GL148733   1.184  11.308   5.859
 3651POPC   GL248734   1.031  10.989   5.853
 3651POPC   C1A48735   1.093  11.291   6.294
 3651POPC   D2A48736   1.319  11.453   6.622
 3651POPC   C3A48737   1.132  11.345   6.984
 3651POPC   C4A48738   1.324  11.249   7.349
 3651POPC   C1B48739   0.995  10.789   6.269
 3651POPC   C2B48740   0.930  10.949   6.706
 3651POPC   C3B48741   0.975  10.885   7.154
 3651POPC   C4B48742   1.023  10.942   7.621
 3652POPC   NC348743  33.356  11.021   5.661
 3652POPC   PO448744  33.256  10.502   5.220
 3652POPC   GL148745  33.160  10.559   5.697
 3652POPC   GL248746  32.846  10.755   5.834
 3652POPC   C1A48747  33.210  10.627   6.175
 3652POPC   D2A48748  33.144  10.484   6.604
 3652POPC   C3A48749  33.173  10.727   6.992
 3652POPC   C4A48750  33.006  10.697   7.418
 3652POPC   C1B48751  32.669  10.748   6.264
 3652POPC   C2B48752  32.717  10.764   6.735
 3652POPC   C3B48753  32.789  10.389   7.023
 3652POPC   C4B48754  32.695  10.312   7.473
 3653POPC   NC348755  32.549  10.834   5.402
 3653POPC   PO448756  32.401  10.158   5.273
 3653POPC   GL148757  32.213  10.355   5.658
 3653POPC   GL248758  32.203  10.721   5.741
 3653POPC   C1A48759  32.179  10.360   6.125
 3653POPC   D2A48760  32.397  10.408   6.530
 3653POPC   C3A48761  32.103  10.450   6.830
 3653POPC   C4A48762  31.994  10.473   7.231
 3653POPC   C1B48763  32.131  10.873   6.154
 3653POPC   C2B48764  32.227  10.912   6.591
 3653POPC   C3B48765  32.218  10.911   7.030
 3653POPC   C4B48766  32.526  10.756   7.236
 3654POPC   NC348767   2.900  40.919   5.555
 3654POPC   PO448768   3.315  40.421   5.640
 3654POPC   GL148769   2.940  40.530   5.912
 3654POPC   GL248770   2.909  40.876   6.062
 3654POPC   C1A48771   2.719  40.462   6.312
 3654POPC   D2A48772   2.970  40.742   6.584
 3654POPC   C3A48773   2.723  41.064   6.774
 3654POPC   C4A48774   2.415  40.878   7.079
 3654POPC   C1B48775   3.240  41.127   6.264
 3654POPC   C2B48776   3.254  41.290   6.680
 3654POPC   C3B48777   3.087  41.269   7.117
 3654POPC   C4B48778   2.908  41.061   7.527
 3655POPC   NC348779  37.471  28.920   5.138
 3655POPC   PO448780  37.767  28.388   5.247
 3655POPC   GL148781  37.857  28.344   5.736
 3655POPC   GL248782  37.557  28.508   5.824
 3655POPC   C1A48783  37.812  28.243   6.192
 3655POPC   D2A48784  37.560  28.420   6.542
 3655POPC   C3A48785  37.754  28.340   6.973
 3655POPC   C4A48786  37.992  28.331   7.354
 3655POPC   C1B48787  37.272  28.687   6.144
 3655POPC   C2B48788  37.236  28.874   6.554
 3655POPC   C3B48789  37.380  28.696   6.945
 3655POPC   C4B48790  37.244  28.630   7.364
 3656POPC   NC348791   2.031  44.953   5.598
 3656POPC   PO448792   2.270   0.387   5.138
 3656POPC   GL148793   2.049   0.476   5.608
 3656POPC   GL248794   2.250   0.347   5.857
 3656POPC   C1A48795   1.881   0.577   6.084
 3656POPC   D2A48796   2.015   0.509   6.538
 3656POPC   C3A48797   1.814   0.383   6.921
 3656POPC   C4A48798   1.762   0.559   7.266
 3656POPC   C1B48799   2.324   0.226   6.263
 3656POPC   C2B48800   2.360   0.066   6.682
 3656POPC   C3B48801   2.130  44.993   7.035
 3656POPC   C4B48802   2.227   0.338   7.303
 3657POPC   NC348803  19.603   1.575   5.329
 3657POPC   PO448804  20.042   1.060   5.334
 3657POPC   GL148805  19.827   1.041   5.745
 3657POPC   GL248806  19.725   1.376   5.807
 3657POPC   C1A48807  19.767   0.885   6.192
 3657POPC   D2A48808  19.629   0.994   6.641
 3657POPC   C3A48809  19.890   0.978   7.033
 3657POPC   C4A48810  20.075   0.902   7.476
 3657POPC   C1B48811  19.509   1.345   6.215
 3657POPC   C2B48812  19.411   1.479   6.633
 3657POPC   C3B48813  19.600   1.427   7.032
 3657POPC   C4B48814  20.014   1.434   7.260
 3658POPC   NC348815   4.892  12.953   5.388
 3658POPC   PO448816   5.435  12.895   5.672
 3658POPC   GL148817   5.046  12.665   5.815
 3658POPC   GL248818   4.816  12.975   5.887
 3658POPC   C1A48819   5.051  12.478   6.257
 3658POPC   D2A48820   5.094  12.875   6.528
 3658POPC   C3A48821   5.019  12.934   6.973
 3658POPC   C4A48822   5.110  13.238   7.275
 3658POPC   C1B48823   4.640  12.748   6.219
 3658POPC   C2B48824   4.685  12.605   6.666
 3658POPC   C3B48825   4.580  12.708   7.092
 3658POPC   C4B48826   4.830  12.777   7.490
 3659POPC   NC348827  41.045   4.786   5.494
 3659POPC   PO448828  41.010   5.491   5.432
 3659POPC   GL148829  40.761   5.216   5.755
 3659POPC   GL248830  40.678   4.853   5.849
 3659POPC   C1A48831  40.678   5.199   6.234
 3659POPC   D2A48832  40.413   5.272   6.623
 3659POPC   C3A48833  40.669   5.163   7.010
 3659POPC   C4A48834  40.950   5.326   7.361
 3659POPC   C1B48835  40.977   4.771   6.214
 3659POPC   C2B48836  41.055   4.778   6.677
 3659POPC   C3B48837  41.074   4.874   7.137
 3659POPC   C4B48838  40.793   4.842   7.502
 3660POPC   NC348839  41.273  18.549   5.468
 3660POPC   PO448840  41.827  18.074   5.488
 3660POPC   GL148841  41.639  18.312   5.821
 3660POPC   GL248842  41.328  18.194   5.915
 3660POPC   C1A48843  41.622  18.450   6.240
 3660POPC   D2A48844  41.325  18.279   6.511
 3660POPC   C3A48845  41.533  18.152   6.856
 3660POPC   C4A48846  41.808  18.326   7.115
 3660POPC   C1B48847  41.125  18.585   6.126
 3660POPC   C2B48848  41.077  18.763   6.550
 3660POPC   C3B48849  41.285  18.621   6.913
 3660POPC   C4B48850  41.362  18.452   7.318
 3661POPC   NC348851  14.758  44.085   5.604
 3661POPC   PO448852  14.405  44.642   5.304
 3661POPC   GL148853  14.512  44.569   5.748
 3661POPC   GL248854  14.707  44.857   5.811
 3661POPC   C1A48855  14.348  44.426   6.189
 3661POPC   D2A48856  14.069  44.507   6.573
 3661POPC   C3A48857  14.283  44.683   6.945
 3661POPC   C4A48858  14.642  44.530   7.199
 3661POPC   C1B48859  14.805  44.699   6.255
 3661POPC   C2B48860  14.850  44.649   6.731
 3661POPC   C3B48861  14.823  44.977   7.097
 3661POPC   C4B48862  14.845   0.131   7.585
 3662POPC   NC348863  18.889  36.597   5.245
 3662POPC   PO448864  19.305  37.061   5.553
 3662POPC   GL148865  19.085  36.906   5.861
 3662POPC   GL248866  18.726  36.976   5.776
 3662POPC   C1A48867  19.274  36.956   6.284
 3662POPC   D2A48868  19.378  37.224   6.636
 3662POPC   C3A48869  19.315  36.989   7.038
 3662POPC   C4A48870  19.144  36.853   7.434
 3662POPC   C1B48871  18.779  37.111   6.224
 3662POPC   C2B48872  18.916  36.976   6.665
 3662POPC   C3B48873  18.779  37.008   7.105
 3662POPC   C4B48874  18.598  36.678   7.360
 3663POPC   NC348875   1.757  44.019   5.447
 3663POPC   PO448876   2.327  43.740   5.300
 3663POPC   GL148877   2.135  43.977   5.753
 3663POPC   GL248878   2.375  44.177   5.834
 3663POPC   C1A48879   2.000  43.772   6.224
 3663POPC   D2A48880   2.140  43.626   6.656
 3663POPC   C3A48881   1.964  43.722   7.082
 3663POPC   C4A48882   2.026  43.623   7.556
 3663POPC   C1B48883   2.160  44.239   6.211
 3663POPC   C2B48884   2.296  44.252   6.628
 3663POPC   C3B48885   2.333  44.090   7.031
 3663POPC   C4B48886   2.071  44.114   7.390
 3664POPC   NC348887  37.392   2.959   5.380
 3664POPC   PO448888  37.791   2.391   5.427
 3664POPC   GL148889  37.752   2.732   5.737
 3664POPC   GL248890  37.432   2.705   5.833
 3664POPC   C1A48891  37.798   2.960   6.165
 3664POPC   D2A48892  37.927   2.708   6.538
 3664POPC   C3A48893  38.015   2.872   6.944
 3664POPC   C4A48894  37.849   2.891   7.363
 3664POPC   C1B48895  37.522   2.535   6.243
 3664POPC   C2B48896  37.428   2.730   6.648
 3664POPC   C3B48897  37.521   2.640   7.083
 3664POPC   C4B48898  37.515   2.574   7.557
 3665POPC   NC348899  17.896  10.577   5.364
 3665POPC   PO448900  18.481  10.452   5.432
 3665POPC   GL148901  18.246  10.583   5.798
 3665POPC   GL248902  18.021  10.865   5.778
 3665POPC   C1A48903  18.219  10.370   6.209
 3665POPC   D2A48904  18.334  10.197   6.591
 3665POPC   C3A48905  18.120  10.277   6.986
 3665POPC   C4A48906  18.302  10.540   7.254
 3665POPC   C1B48907  18.165  10.882   6.200
 3665POPC   C2B48908  18.103  11.083   6.592
 3665POPC   C3B48909  18.305  10.937   6.927
 3665POPC   C4B48910  18.353  11.053   7.328
 3666POPC   NC348911  37.537  11.857   5.505
 3666POPC   PO448912  37.088  12.339   5.395
 3666POPC   GL148913  37.501  12.326   5.765
 3666POPC   GL248914  37.752  12.035   5.913
 3666POPC   C1A48915  37.873  12.480   6.110
 3666POPC   D2A48916  38.060  12.468   6.555
 3666POPC   C3A48917  37.781  12.316   6.866
 3666POPC   C4A48918  37.610  12.321   7.288
 3666POPC   C1B48919  37.702  11.704   6.256
 3666POPC   C2B48920  37.633  11.831   6.679
 3666POPC   C3B48921  37.690  11.853   7.093
 3666POPC   C4B48922  37.403  11.873   7.434
 3667POPC   NC348923  30.621  40.974   5.536
 3667POPC   PO448924  30.790  41.684   5.374
 3667POPC   GL148925  30.633  41.492   5.738
 3667POPC   GL248926  30.363  41.723   5.868
 3667POPC   C1A48927  30.681  41.494   6.202
 3667POPC   D2A48928  30.550  41.600   6.626
 3667POPC   C3A48929  30.852  41.565   6.961
 3667POPC   C4A48930  30.975  41.703   7.364
 3667POPC   C1B48931  30.156  41.610   6.286
 3667POPC   C2B48932  30.057  41.605   6.755
 3667POPC   C3B48933  30.347  41.749   7.096
 3667POPC   C4B48934  30.460  41.516   7.439
 3668POPC   NC348935   8.474  18.128   5.580
 3668POPC   PO448936   8.043  18.669   5.352
 3668POPC   GL148937   8.107  18.468   5.779
 3668POPC   GL248938   8.005  18.693   6.056
 3668POPC   C1A48939   8.027  18.188   6.140
 3668POPC   D2A48940   8.252  18.201   6.538
 3668POPC   C3A48941   8.034  18.116   6.919
 3668POPC   C4A48942   8.154  17.863   7.266
 3668POPC   C1B48943   8.428  18.619   6.251
 3668POPC   C2B48944   8.496  18.614   6.702
 3668POPC   C3B48945   8.283  18.574   7.062
 3668POPC   C4B48946   8.650  18.594   7.279
 3669POPC   NC348947  16.385  24.848   5.312
 3669POPC   PO448948  17.084  24.829   5.499
 3669POPC   GL148949  16.672  24.668   5.697
 3669POPC   GL248950  16.672  24.323   5.742
 3669POPC   C1A48951  16.472  24.654   6.129
 3669POPC   D2A48952  16.707  24.744   6.518
 3669POPC   C3A48953  16.556  24.538   6.892
 3669POPC   C4A48954  16.691  24.734   7.273
 3669POPC   C1B48955  16.954  24.506   6.088
 3669POPC   C2B48956  17.116  24.364   6.459
 3669POPC   C3B48957  17.047  24.371   6.892
 3669POPC   C4B48958  16.786  24.213   7.229
 3670POPC   NC348959  15.021   1.870   5.396
 3670POPC   PO448960  15.627   2.291   5.414
 3670POPC   GL148961  15.640   2.139   5.836
 3670POPC   GL248962  15.564   1.780   5.792
 3670POPC   C1A48963  15.365   2.129   6.227
 3670POPC   D2A48964  15.262   2.300   6.647
 3670POPC   C3A48965  15.231   2.021   6.996
 3670POPC   C4A48966  15.338   2.054   7.447
 3670POPC   C1B48967  15.693   1.734   6.211
 3670POPC   C2B48968  15.443   1.708   6.598
 3670POPC   C3B48969  15.583   1.648   7.023
 3670POPC   C4B48970  15.358   1.511   7.397
 3671POPC   NC348971  26.556  33.260   5.339
 3671POPC   PO448972  27.190  33.087   5.365
 3671POPC   GL148973  26.871  32.985   5.657
 3671POPC   GL248974  26.914  33.290   5.773
 3671POPC   C1A48975  26.678  33.022   6.123
 3671POPC   D2A48976  26.822  33.074   6.595
 3671POPC   C3A48977  26.644  32.878   7.010
 3671POPC   C4A48978  26.743  32.790   7.484
 3671POPC   C1B48979  27.162  33.282   6.155
 3671POPC   C2B48980  27.301  33.253   6.583
 3671POPC   C3B48981  27.158  33.168   7.006
 3671POPC   C4B48982  27.049  33.440   7.351
 3672POPC   NC348983  31.147  41.350   5.336
 3672POPC   PO448984  30.950  40.701   5.290
 3672POPC   GL148985  30.927  40.622   5.789
 3672POPC   GL248986  30.651  40.438   5.930
 3672POPC   C1A48987  30.967  40.735   6.253
 3672POPC   D2A48988  30.871  40.598   6.700
 3672POPC   C3A48989  30.747  40.926   6.995
 3672POPC   C4A48990  30.821  41.199   7.327
 3672POPC   C1B48991  30.446  40.596   6.298
 3672POPC   C2B48992  30.380  40.443   6.716
 3672POPC   C3B48993  30.556  40.465   7.118
 3672POPC   C4B48994  30.326  40.564   7.480
 3673POPC   NC348995   7.869  12.077   5.472
 3673POPC   PO448996   8.496  12.058   5.394
 3673POPC   GL148997   8.282  12.193   5.794
 3673POPC   GL248998   7.987  12.011   5.970
 3673POPC   C1A48999   8.208  12.408   6.195
 3673POPC   D2A49000   7.982  12.187   6.531
 3673POPC   C3A49001   8.128  12.124   6.951
 3673POPC   C4A49002   8.492  12.089   7.194
 3673POPC   C1B49003   7.889  11.719   6.321
 3673POPC   C2B49004   7.830  11.737   6.777
 3673POPC   C3B49005   7.904  11.729   7.195
 3673POPC   C4B49006   8.013  11.980   7.544
 3674POPC   NC349007  38.956  37.350   5.472
 3674POPC   PO449008  39.176  38.051   5.399
 3674POPC   GL149009  39.094  37.799   5.757
 3674POPC   GL249010  38.815  37.994   5.876
 3674POPC   C1A49011  39.222  37.596   6.173
 3674POPC   D2A49012  39.173  37.435   6.651
 3674POPC   C3A49013  39.492  37.459   7.021
 3674POPC   C4A49014  39.538  37.802   7.313
 3674POPC   C1B49015  38.771  37.868   6.299
 3674POPC   C2B49016  38.793  37.828   6.743
 3674POPC   C3B49017  39.080  37.752   7.050
 3674POPC   C4B49018  39.072  37.756   7.489
 3675POPC   NC349019  15.060   8.483   5.095
 3675POPC   PO449020  15.251   9.016   5.356
 3675POPC   GL149021  15.260   9.229   5.764
 3675POPC   GL249022  15.240   8.908   5.950
 3675POPC   C1A49023  15.462   9.291   6.187
 3675POPC   D2A49024  15.400   9.018   6.553
 3675POPC   C3A49025  15.124   9.088   6.873
 3675POPC   C4A49026  15.246   8.968   7.276
 3675POPC   C1B49027  15.143   8.646   6.308
 3675POPC   C2B49028  14.886   8.642   6.712
 3675POPC   C3B49029  14.828   8.728   7.171
 3675POPC   C4B49030  14.877   8.652   7.652
 3676POPC   NC349031  32.243  43.501   5.447
 3676POPC   PO449032  32.137  44.175   5.448
 3676POPC   GL149033  32.200  43.878   5.813
 3676POPC   GL249034  31.922  43.613   5.834
 3676POPC   C1A49035  32.356  43.677   6.230
 3676POPC   D2A49036  32.439  43.698   6.702
 3676POPC   C3A49037  32.377  44.031   7.020
 3676POPC   C4A49038  32.566  44.047   7.433
 3676POPC   C1B49039  31.884  43.837   6.223
 3676POPC   C2B49040  31.949  43.879   6.645
 3676POPC   C3B49041  32.000  43.700   7.009
 3676POPC   C4B49042  32.042  43.866   7.441
 3677POPC   NC349043  25.440  17.468   5.334
 3677POPC   PO449044  26.030  17.168   5.329
 3677POPC   GL149045  25.921  17.385   5.727
 3677POPC   GL249046  25.588  17.253   5.782
 3677POPC   C1A49047  26.067  17.279   6.184
 3677POPC   D2A49048  26.217  17.411   6.640
 3677POPC   C3A49049  26.155  17.217   7.047
 3677POPC   C4A49050  26.030  17.327   7.468
 3677POPC   C1B49051  25.572  17.426   6.227
 3677POPC   C2B49052  25.727  17.569   6.657
 3677POPC   C3B49053  25.678  17.472   7.100
 3677POPC   C4B49054  25.508  17.393   7.531
 3678POPC   NC349055  13.421  33.129   5.433
 3678POPC   PO449056  13.478  32.535   5.627
 3678POPC   GL149057  13.479  32.885   5.903
 3678POPC   GL249058  13.791  32.989   5.939
 3678POPC   C1A49059  13.466  33.017   6.351
 3678POPC   D2A49060  13.749  33.058   6.685
 3678POPC   C3A49061  13.582  33.137   7.109
 3678POPC   C4A49062  13.301  33.033   7.483
 3678POPC   C1B49063  13.795  32.599   6.218
 3678POPC   C2B49064  13.620  32.530   6.627
 3678POPC   C3B49065  13.792  32.679   7.025
 3678POPC   C4B49066  13.673  32.709   7.426
 3679POPC   NC349067  18.886  10.695   5.448
 3679POPC   PO449068  19.414  10.364   5.293
 3679POPC   GL149069  19.281  10.485   5.735
 3679POPC   GL249070  18.943  10.310   5.825
 3679POPC   C1A49071  19.206  10.629   6.185
 3679POPC   D2A49072  18.950  10.383   6.500
 3679POPC   C3A49073  19.139  10.229   6.856
 3679POPC   C4A49074  19.060  10.347   7.256
 3679POPC   C1B49075  18.676  10.567   6.112
 3679POPC   C2B49076  18.513  10.675   6.533
 3679POPC   C3B49077  18.713  10.610   6.949
 3679POPC   C4B49078  18.775  10.781   7.377
 3680POPC   NC349079  40.849   0.040   5.193
 3680POPC   PO449080  40.481  44.469   5.393
 3680POPC   GL149081  40.662  44.789   5.638
 3680POPC   GL249082  40.417  44.926   5.890
 3680POPC   C1A49083  40.891  44.735   6.004
 3680POPC   D2A49084  40.779  44.774   6.425
 3680POPC   C3A49085  41.034  44.896   6.798
 3680POPC   C4A49086  41.280  44.827   7.172
 3680POPC   C1B49087  40.432  44.501   6.110
 3680POPC   C2B49088  40.413  44.417   6.568
 3680POPC   C3B49089  40.544  44.757   6.870
 3680POPC   C4B49090  40.539   0.032   7.192
 3681POPC   NC349091   4.256  39.702   5.351
 3681POPC   PO449092   4.197  40.381   5.355
 3681POPC   GL149093   4.177  40.178   5.753
 3681POPC   GL249094   4.255  39.848   5.841
 3681POPC   C1A49095   4.418  40.243   6.124
 3681POPC   D2A49096   4.580  39.969   6.418
 3681POPC   C3A49097   4.528  40.084   6.844
 3681POPC   C4A49098   4.666  40.311   7.199
 3681POPC   C1B49099   4.054  39.846   6.238
 3681POPC   C2B49100   4.167  39.706   6.638
 3681POPC   C3B49101   4.358  39.603   7.006
 3681POPC   C4B49102   4.307  39.931   7.311
 3682POPC   NC349103   4.044  32.160   5.329
 3682POPC   PO449104   3.492  32.590   5.366
 3682POPC   GL149105   3.643  32.359   5.726
 3682POPC   GL249106   3.928  32.463   5.751
 3682POPC   C1A49107   3.589  32.274   6.173
 3682POPC   D2A49108   3.500  32.072   6.599
 3682POPC   C3A49109   3.752  32.000   6.983
 3682POPC   C4A49110   3.764  32.228   7.388
 3682POPC   C1B49111   4.099  32.316   6.161
 3682POPC   C2B49112   3.991  32.246   6.583
 3682POPC   C3B49113   4.092  32.394   6.994
 3682POPC   C4B49114   3.972  32.714   7.259
 3683POPC   NC349115  30.990  33.753   5.181
 3683POPC   PO449116  30.319  34.078   5.243
 3683POPC   GL149117  30.484  33.918   5.631
 3683POPC   GL249118  30.856  33.832   5.652
 3683POPC   C1A49119  30.602  33.852   6.073
 3683POPC   D2A49120  30.736  33.917   6.475
 3683POPC   C3A49121  30.627  33.618   6.779
 3683POPC   C4A49122  30.683  33.795   7.185
 3683POPC   C1B49123  31.087  33.658   6.035
 3683POPC   C2B49124  31.128  33.579   6.473
 3683POPC   C3B49125  31.098  33.783   6.861
 3683POPC   C4B49126  31.167  33.676   7.289
 3684POPC   NC349127   0.803  29.945   5.355
 3684POPC   PO449128   1.394  29.695   5.306
 3684POPC   GL149129   1.157  29.803   5.717
 3684POPC   GL249130   0.982  30.153   5.793
 3684POPC   C1A49131   1.290  29.857   6.161
 3684POPC   D2A49132   1.286  30.071   6.581
 3684POPC   C3A49133   1.304  29.854   6.987
 3684POPC   C4A49134   1.028  29.739   7.330
 3684POPC   C1B49135   0.853  30.112   6.231
 3684POPC   C2B49136   0.826  30.316   6.631
 3684POPC   C3B49137   0.879  30.140   7.055
 3684POPC   C4B49138   0.880  30.189   7.535
 3685POPC   NC349139  44.590   0.950   5.400
 3685POPC   PO449140  44.879   1.523   5.393
 3685POPC   GL149141  44.785   1.285   5.772
 3685POPC   GL249142  44.775   0.921   5.873
 3685POPC   C1A49143  44.538   1.368   6.122
 3685POPC   D2A49144  44.363   1.321   6.523
 3685POPC   C3A49145  44.690   1.223   6.793
 3685POPC   C4A49146  44.636   1.242   7.222
 3685POPC   C1B49147  44.424   0.875   6.184
 3685POPC   C2B49148  44.492   0.687   6.604
 3685POPC   C3B49149  44.592   0.759   7.019
 3685POPC   C4B49150  44.947   0.840   7.298
 3686POPC   NC349151  43.740  42.009   5.742
 3686POPC   PO449152  44.095  42.562   5.474
 3686POPC   GL149153  43.942  42.474   5.874
 3686POPC   GL249154  43.576  42.525   5.822
 3686POPC   C1A49155  44.007  42.267   6.304
 3686POPC   D2A49156  44.025  42.119   6.752
 3686POPC   C3A49157  44.209  42.375   7.127
 3686POPC   C4A49158  44.126  42.597   7.537
 3686POPC   C1B49159  43.466  42.301   6.239
 3686POPC   C2B49160  43.498  42.183   6.661
 3686POPC   C3B49161  43.625  42.211   7.074
 3686POPC   C4B49162  43.657  42.414   7.473
 3687POPC   NC349163  11.492  25.271   5.083
 3687POPC   PO449164  10.953  25.568   5.375
 3687POPC   GL149165  11.082  25.228   5.655
 3687POPC   GL249166  11.449  25.160   5.719
 3687POPC   C1A49167  10.984  25.161   6.094
 3687POPC   D2A49168  11.206  25.128   6.503
 3687POPC   C3A49169  10.951  25.033   6.858
 3687POPC   C4A49170  11.007  25.140   7.256
 3687POPC   C1B49171  11.603  25.120   6.158
 3687POPC   C2B49172  11.728  25.071   6.610
 3687POPC   C3B49173  11.467  25.021   6.989
 3687POPC   C4B49174  11.464  25.088   7.448
 3688POPC   NC349175  26.669  44.867   5.471
 3688POPC   PO449176  27.295  44.808   5.174
 3688POPC   GL149177  27.069  44.590   5.663
 3688POPC   GL249178  26.732  44.437   5.795
 3688POPC   C1A49179  26.861  44.765   6.135
 3688POPC   D2A49180  26.831  44.654   6.578
 3688POPC   C3A49181  26.803   0.010   6.868
 3688POPC   C4A49182  26.900  44.888   7.297
 3688POPC   C1B49183  26.441  44.488   6.211
 3688POPC   C2B49184  26.387  44.444   6.679
 3688POPC   C3B49185  26.637  44.504   7.077
 3688POPC   C4B49186  26.635  44.288   7.497
 3689POPC   NC349187   0.607  27.213   5.441
 3689POPC   PO449188   0.285  27.714   5.198
 3689POPC   GL149189   0.425  27.661   5.682
 3689POPC   GL249190   0.768  27.541   5.798
 3689POPC   C1A49191   0.334  27.451   6.104
 3689POPC   D2A49192   0.051  27.572   6.466
 3689POPC   C3A49193   0.201  27.515   6.889
 3689POPC   C4A49194   0.294  27.754   7.233
 3689POPC   C1B49195   0.661  27.841   6.132
 3689POPC   C2B49196   0.558  27.667   6.539
 3689POPC   C3B49197   0.717  27.624   6.941
 3689POPC   C4B49198   0.738  27.495   7.349
 3690POPC   NC349199   3.263  22.513   5.449
 3690POPC   PO449200   3.708  22.896   5.149
 3690POPC   GL149201   3.649  22.784   5.660
 3690POPC   GL249202   3.340  22.823   5.861
 3690POPC   C1A49203   3.769  22.656   6.112
 3690POPC   D2A49204   3.871  22.799   6.536
 3690POPC   C3A49205   3.679  22.732   6.936
 3690POPC   C4A49206   3.930  22.868   7.272
 3690POPC   C1B49207   3.446  23.045   6.266
 3690POPC   C2B49208   3.493  23.136   6.708
 3690POPC   C3B49209   3.512  23.180   7.148
 3690POPC   C4B49210   3.211  23.288   7.433
 3691POPC   NC349211  36.303   0.846   5.499
 3691POPC   PO449212  36.991   0.970   5.423
 3691POPC   GL149213  36.905   1.011   5.878
 3691POPC   GL249214  36.535   1.041   5.911
 3691POPC   C1A49215  37.159   1.196   6.238
 3691POPC   D2A49216  37.014   1.445   6.598
 3691POPC   C3A49217  37.112   1.310   7.027
 3691POPC   C4A49218  37.023   1.399   7.483
 3691POPC   C1B49219  36.652   1.188   6.314
 3691POPC   C2B49220  36.663   1.090   6.749
 3691POPC   C3B49221  36.616   1.245   7.158
 3691POPC   C4B49222  36.672   1.005   7.549
 3692POPC   NC349223  31.198   4.624   5.303
 3692POPC   PO449224  31.677   4.268   5.602
 3692POPC   GL149225  31.313   4.380   5.858
 3692POPC   GL249226  31.140   4.083   5.900
 3692POPC   C1A49227  31.231   4.365   6.312
 3692POPC   D2A49228  31.541   4.232   6.604
 3692POPC   C3A49229  31.560   4.299   7.027
 3692POPC   C4A49230  31.581   4.473   7.430
 3692POPC   C1B49231  31.543   3.950   6.153
 3692POPC   C2B49232  31.616   3.747   6.558
 3692POPC   C3B49233  31.318   3.865   6.888
 3692POPC   C4B49234  31.242   4.004   7.314
 3693POPC   NC349235   4.430  13.839   5.349
 3693POPC   PO449236   3.866  13.522   5.338
 3693POPC   GL149237   4.116  13.553   5.726
 3693POPC   GL249238   3.939  13.241   5.788
 3693POPC   C1A49239   4.254  13.657   6.171
 3693POPC   D2A49240   4.205  13.533   6.604
 3693POPC   C3A49241   4.327  13.715   7.015
 3693POPC   C4A49242   4.492  14.062   7.266
 3693POPC   C1B49243   3.882  13.313   6.202
 3693POPC   C2B49244   3.898  13.121   6.624
 3693POPC   C3B49245   3.918  13.354   7.014
 3693POPC   C4B49246   4.001  13.461   7.444
 3694POPC   NC349247   1.855  26.781   5.351
 3694POPC   PO449248   2.252  27.235   5.474
 3694POPC   GL149249   1.980  26.957   5.798
 3694POPC   GL249250   1.564  26.923   5.736
 3694POPC   C1A49251   2.082  26.669   6.146
 3694POPC   D2A49252   2.219  26.831   6.557
 3694POPC   C3A49253   2.212  26.656   6.971
 3694POPC   C4A49254   2.142  26.976   7.276
 3694POPC   C1B49255   1.562  26.743   6.127
 3694POPC   C2B49256   1.733  26.670   6.534
 3694POPC   C3B49257   1.755  26.871   6.921
 3694POPC   C4B49258   1.781  26.605   7.260
 3695POPC   NC349259   1.055   6.818   5.460
 3695POPC   PO449260   1.660   6.676   5.460
 3695POPC   GL149261   1.540   6.476   5.877
 3695POPC   GL249262   1.171   6.527   5.949
 3695POPC   C1A49263   1.507   6.306   6.320
 3695POPC   D2A49264   1.187   6.358   6.670
 3695POPC   C3A49265   1.214   6.406   7.104
 3695POPC   C4A49266   1.307   6.459   7.537
 3695POPC   C1B49267   1.303   6.770   6.350
 3695POPC   C2B49268   1.245   6.898   6.818
 3695POPC   C3B49269   1.131   6.913   7.283
 3695POPC   C4B49270   1.024   7.113   7.690
 3696POPC   NC349271  20.071  25.179   5.511
 3696POPC   PO449272  19.789  25.752   5.287
 3696POPC   GL149273  19.618  25.290   5.683
 3696POPC   GL249274  19.746  24.936   5.806
 3696POPC   C1A49275  19.545  25.266   6.157
 3696POPC   D2A49276  19.684  25.517   6.504
 3696POPC   C3A49277  19.886  25.425   6.910
 3696POPC   C4A49278  19.717  25.245   7.294
 3696POPC   C1B49279  20.008  25.044   6.174
 3696POPC   C2B49280  20.063  25.030   6.623
 3696POPC   C3B49281  19.766  24.907   6.936
 3696POPC   C4B49282  19.741  24.706   7.354
 3697POPC   NC349283  39.177  17.203   5.429
 3697POPC   PO449284  39.574  17.681   5.359
 3697POPC   GL149285  39.241  17.626   5.692
 3697POPC   GL249286  39.092  17.923   5.756
 3697POPC   C1A49287  39.103  17.447   6.131
 3697POPC   D2A49288  39.263  17.580   6.556
 3697POPC   C3A49289  39.151  17.398   6.984
 3697POPC   C4A49290  39.223  17.404   7.441
 3697POPC   C1B49291  39.419  17.861   6.110
 3697POPC   C2B49292  39.574  17.968   6.517
 3697POPC   C3B49293  39.719  17.884   6.932
 3697POPC   C4B49294  39.406  17.832   7.248
 3698POPC   NC349295  16.214  28.600   5.504
 3698POPC   PO449296  16.057  27.920   5.402
 3698POPC   GL149297  15.998  28.239   5.791
 3698POPC   GL249298  15.680  28.379   5.841
 3698POPC   C1A49299  16.161  28.528   6.168
 3698POPC   D2A49300  16.161  28.803   6.575
 3698POPC   C3A49301  16.268  28.569   6.985
 3698POPC   C4A49302  16.023  28.504   7.377
 3698POPC   C1B49303  15.679  28.378   6.307
 3698POPC   C2B49304  15.677  28.126   6.708
 3698POPC   C3B49305  15.676  28.156   7.180
 3698POPC   C4B49306  15.561  28.418   7.565
 3699POPC   NC349307  12.172  28.123   5.395
 3699POPC   PO449308  11.720  28.561   5.502
 3699POPC   GL149309  11.989  28.371   5.834
 3699POPC   GL249310  12.313  28.126   5.884
 3699POPC   C1A49311  11.968  28.248   6.249
 3699POPC   D2A49312  11.981  28.064   6.611
 3699POPC   C3A49313  11.870  28.281   6.994
 3699POPC   C4A49314  12.245  28.439   7.134
 3699POPC   C1B49315  12.472  28.064   6.325
 3699POPC   C2B49316  12.524  28.131   6.767
 3699POPC   C3B49317  12.535  28.040   7.190
 3699POPC   C4B49318  12.228  28.114   7.524
 3700POPC   NC349319   5.951  24.067   5.483
 3700POPC   PO449320   6.003  24.690   5.341
 3700POPC   GL149321   6.050  24.569   5.761
 3700POPC   GL249322   5.706  24.529   5.825
 3700POPC   C1A49323   6.098  24.757   6.190
 3700POPC   D2A49324   5.930  24.932   6.599
 3700POPC   C3A49325   5.783  24.698   6.971
 3700POPC   C4A49326   5.915  24.350   7.237
 3700POPC   C1B49327   5.858  24.284   6.198
 3700POPC   C2B49328   5.829  24.294   6.662
 3700POPC   C3B49329   5.514  24.171   6.967
 3700POPC   C4B49330   5.455  24.132   7.410
 3701POPC   NC349331  37.762  18.591   5.381
 3701POPC   PO449332  37.463  18.049   5.172
 3701POPC   GL149333  37.546  18.222   5.644
 3701POPC   GL249334  37.249  18.391   5.720
 3701POPC   C1A49335  37.764  18.042   6.085
 3701POPC   D2A49336  37.790  17.843   6.541
 3701POPC   C3A49337  37.988  18.121   6.878
 3701POPC   C4A49338  38.006  18.594   6.989
 3701POPC   C1B49339  37.265  18.064   6.021
 3701POPC   C2B49340  37.359  18.122   6.444
 3701POPC   C3B49341  37.452  18.060   6.888
 3701POPC   C4B49342  37.621  18.326   7.201
 3702POPC   NC349343  34.504  18.499   5.488
 3702POPC   PO449344  34.923  18.075   5.478
 3702POPC   GL149345  34.568  18.110   5.839
 3702POPC   GL249346  34.386  18.391   5.976
 3702POPC   C1A49347  34.317  17.934   6.196
 3702POPC   D2A49348  34.154  18.057   6.643
 3702POPC   C3A49349  34.455  18.186   6.979
 3702POPC   C4A49350  34.582  18.112   7.427
 3702POPC   C1B49351  34.545  18.346   6.403
 3702POPC   C2B49352  34.887  18.294   6.714
 3702POPC   C3B49353  34.937  18.364   7.175
 3702POPC   C4B49354  34.762  18.614   7.537
 3703POPC   NC349355  20.613  28.286   5.277
 3703POPC   PO449356  20.951  28.855   5.469
 3703POPC   GL149357  20.714  28.521   5.761
 3703POPC   GL249358  20.787  28.115   5.730
 3703POPC   C1A49359  20.396  28.461   6.146
 3703POPC   D2A49360  20.162  28.360   6.550
 3703POPC   C3A49361  20.368  28.250   6.940
 3703POPC   C4A49362  20.652  28.467   7.185
 3703POPC   C1B49363  20.827  28.215   6.168
 3703POPC   C2B49364  20.756  28.371   6.586
 3703POPC   C3B49365  20.851  28.087   6.914
 3703POPC   C4B49366  20.780  27.977   7.311
 3704POPC   NC349367  21.372  29.535   5.357
 3704POPC   PO449368  21.631  28.994   5.096
 3704POPC   GL149369  21.430  29.071   5.583
 3704POPC   GL249370  21.497  29.386   5.814
 3704POPC   C1A49371  21.297  28.976   6.055
 3704POPC   D2A49372  21.080  29.000   6.505
 3704POPC   C3A49373  21.307  28.941   6.912
 3704POPC   C4A49374  21.265  28.974   7.387
 3704POPC   C1B49375  21.445  29.459   6.274
 3704POPC   C2B49376  21.471  29.369   6.713
 3704POPC   C3B49377  21.497  29.370   7.168
 3704POPC   C4B49378  21.742  29.142   7.486
 3705POPC   NC349379   4.053  34.601   5.108
 3705POPC   PO449380   3.444  34.541   5.400
 3705POPC   GL149381   3.594  34.724   5.758
 3705POPC   GL249382   3.262  34.644   5.887
 3705POPC   C1A49383   3.658  34.574   6.189
 3705POPC   D2A49384   3.386  34.482   6.537
 3705POPC   C3A49385   3.486  34.633   6.934
 3705POPC   C4A49386   3.436  34.459   7.331
 3705POPC   C1B49387   3.250  34.895   6.252
 3705POPC   C2B49388   3.250  35.055   6.672
 3705POPC   C3B49389   3.226  35.016   7.121
 3705POPC   C4B49390   3.196  34.853   7.557
 3706POPC   NC349391  26.157  13.360   5.537
 3706POPC   PO449392  25.718  13.819   5.225
 3706POPC   GL149393  25.867  13.740   5.692
 3706POPC   GL249394  25.815  13.389   5.918
 3706POPC   C1A49395  25.933  13.829   6.143
 3706POPC   D2A49396  25.831  13.558   6.492
 3706POPC   C3A49397  26.118  13.616   6.833
 3706POPC   C4A49398  26.041  13.604   7.253
 3706POPC   C1B49399  26.215  13.405   6.177
 3706POPC   C2B49400  26.466  13.354   6.527
 3706POPC   C3B49401  26.386  13.144   6.849
 3706POPC   C4B49402  26.241  13.128   7.235
 3707POPC   NC349403  28.035  35.406   5.355
 3707POPC   PO449404  28.620  35.014   5.184
 3707POPC   GL149405  28.584  35.363   5.603
 3707POPC   GL249406  28.249  35.453   5.796
 3707POPC   C1A49407  28.640  35.399   6.106
 3707POPC   D2A49408  28.524  35.491   6.558
 3707POPC   C3A49409  28.315  35.164   6.828
 3707POPC   C4A49410  28.279  35.152   7.288
 3707POPC   C1B49411  28.139  35.670   6.178
 3707POPC   C2B49412  28.007  35.554   6.594
 3707POPC   C3B49413  28.209  35.637   6.996
 3707POPC   C4B49414  28.152  35.624   7.436
 3708POPC   NC349415   7.004  13.599   5.363
 3708POPC   PO449416   6.364  13.674   5.370
 3708POPC   GL149417   6.500  13.480   5.808
 3708POPC   GL249418   6.842  13.572   5.844
 3708POPC   C1A49419   6.548  13.390   6.286
 3708POPC   D2A49420   6.690  13.623   6.635
 3708POPC   C3A49421   6.467  13.601   7.022
 3708POPC   C4A49422   6.504  13.720   7.443
 3708POPC   C1B49423   7.030  13.579   6.232
 3708POPC   C2B49424   7.203  13.638   6.621
 3708POPC   C3B49425   7.001  13.748   7.028
 3708POPC   C4B49426   6.869  13.421   7.256
 3709POPC   NC349427  40.156  38.700   5.438
 3709POPC   PO449428  39.732  38.268   5.560
 3709POPC   GL149429  39.931  38.529   5.880
 3709POPC   GL249430  40.147  38.796   5.935
 3709POPC   C1A49431  40.061  38.445   6.292
 3709POPC   D2A49432  39.816  38.204   6.539
 3709POPC   C3A49433  39.794  38.468   6.839
 3709POPC   C4A49434  40.078  38.604   7.147
 3709POPC   C1B49435  40.463  38.797   6.260
 3709POPC   C2B49436  40.368  38.740   6.713
 3709POPC   C3B49437  40.374  39.001   7.072
 3709POPC   C4B49438  40.212  38.992   7.481
 3710POPC   NC349439  41.971  24.461   5.327
 3710POPC   PO449440  42.413  24.860   5.647
 3710POPC   GL149441  42.400  24.442   5.822
 3710POPC   GL249442  42.067  24.296   5.810
 3710POPC   C1A49443  42.548  24.317   6.215
 3710POPC   D2A49444  42.397  24.573   6.535
 3710POPC   C3A49445  42.530  24.459   6.924
 3710POPC   C4A49446  42.338  24.560   7.301
 3710POPC   C1B49447  42.079  24.063   6.202
 3710POPC   C2B49448  42.291  24.074   6.623
 3710POPC   C3B49449  42.084  24.227   6.996
 3710POPC   C4B49450  41.976  24.011   7.374
 3711POPC   NC349451  42.553  35.337   5.486
 3711POPC   PO449452  43.178  35.368   5.116
 3711POPC   GL149453  43.111  35.362   5.650
 3711POPC   GL249454  43.409  35.402   5.850
 3711POPC   C1A49455  42.994  35.346   6.133
 3711POPC   D2A49456  43.203  35.397   6.558
 3711POPC   C3A49457  42.940  35.249   6.882
 3711POPC   C4A49458  42.970  35.507   7.216
 3711POPC   C1B49459  43.461  35.661   6.200
 3711POPC   C2B49460  43.574  35.769   6.600
 3711POPC   C3B49461  43.405  35.710   6.999
 3711POPC   C4B49462  43.475  35.594   7.426
 3712POPC   NC349463  38.200  33.782   5.448
 3712POPC   PO449464  38.852  33.526   5.456
 3712POPC   GL149465  38.570  33.591   5.762
 3712POPC   GL249466  38.667  33.903   5.880
 3712POPC   C1A49467  38.370  33.508   6.150
 3712POPC   D2A49468  38.093  33.505   6.495
 3712POPC   C3A49469  38.287  33.564   6.897
 3712POPC   C4A49470  38.471  33.716   7.268
 3712POPC   C1B49471  38.289  34.008   6.097
 3712POPC   C2B49472  38.316  33.981   6.528
 3712POPC   C3B49473  38.355  34.081   6.934
 3712POPC   C4B49474  38.095  34.122   7.247
 3713POPC   NC349475  16.463  22.178   5.299
 3713POPC   PO449476  17.127  22.339   5.199
 3713POPC   GL149477  17.015  22.150   5.654
 3713POPC   GL249478  16.686  22.051   5.735
 3713POPC   C1A49479  16.944  22.208   6.144
 3713POPC   D2A49480  16.819  21.995   6.531
 3713POPC   C3A49481  16.997  22.183   6.943
 3713POPC   C4A49482  16.764  22.256   7.326
 3713POPC   C1B49483  16.465  21.980   6.136
 3713POPC   C2B49484  16.296  22.041   6.530
 3713POPC   C3B49485  16.467  22.092   6.935
 3713POPC   C4B49486  16.446  21.862   7.322
 3714POPC   NC349487   4.790   9.104   5.451
 3714POPC   PO449488   5.373   8.817   5.558
 3714POPC   GL149489   5.138   9.097   5.828
 3714POPC   GL249490   4.930   8.809   5.889
 3714POPC   C1A49491   4.994   9.195   6.253
 3714POPC   D2A49492   5.207   9.267   6.621
 3714POPC   C3A49493   5.024   9.188   7.002
 3714POPC   C4A49494   4.858   9.127   7.414
 3714POPC   C1B49495   5.267   8.757   6.215
 3714POPC   C2B49496   5.290   8.750   6.647
 3714POPC   C3B49497   5.077   8.694   7.025
 3714POPC   C4B49498   5.198   8.501   7.366
 3715POPC   NC349499   2.629  37.114   5.352
 3715POPC   PO449500   3.053  36.665   5.496
 3715POPC   GL149501   2.919  36.920   5.822
 3715POPC   GL249502   2.574  36.853   5.840
 3715POPC   C1A49503   2.892  36.800   6.273
 3715POPC   D2A49504   2.601  36.646   6.605
 3715POPC   C3A49505   2.830  36.781   6.969
 3715POPC   C4A49506   3.052  36.884   7.315
 3715POPC   C1B49507   2.353  36.894   6.219
 3715POPC   C2B49508   2.289  37.070   6.613
 3715POPC   C3B49509   2.324  36.826   7.016
 3715POPC   C4B49510   2.543  36.965   7.414
 3716POPC   NC349511  27.717   1.777   5.471
 3716POPC   PO449512  27.648   2.483   5.317
 3716POPC   GL149513  27.749   2.240   5.694
 3716POPC   GL249514  27.412   2.174   5.779
 3716POPC   C1A49515  27.792   2.028   6.094
 3716POPC   D2A49516  27.817   2.213   6.497
 3716POPC   C3A49517  27.786   2.019   6.896
 3716POPC   C4A49518  27.740   2.105   7.302
 3716POPC   C1B49519  27.298   2.116   6.240
 3716POPC   C2B49520  27.325   1.991   6.673
 3716POPC   C3B49521  27.237   1.965   7.133
 3716POPC   C4B49522  27.354   1.865   7.579
 3717POPC   NC349523  15.410   4.205   5.043
 3717POPC   PO449524  14.995   3.811   5.403
 3717POPC   GL149525  15.217   4.092   5.727
 3717POPC   GL249526  15.110   4.468   5.707
 3717POPC   C1A49527  15.106   4.065   6.182
 3717POPC   D2A49528  15.332   3.987   6.555
 3717POPC   C3A49529  15.123   4.046   6.937
 3717POPC   C4A49530  15.280   4.193   7.308
 3717POPC   C1B49531  15.292   4.538   6.119
 3717POPC   C2B49532  15.256   4.479   6.563
 3717POPC   C3B49533  15.070   4.576   6.935
 3717POPC   C4B49534  14.906   4.966   7.117
 3718POPC   NC349535  35.984  34.741   5.369
 3718POPC   PO449536  36.598  34.374   5.398
 3718POPC   GL149537  36.394  34.553   5.825
 3718POPC   GL249538  36.007  34.558   5.849
 3718POPC   C1A49539  36.242  34.613   6.306
 3718POPC   D2A49540  36.122  34.890   6.646
 3718POPC   C3A49541  36.074  34.686   7.015
 3718POPC   C4A49542  36.187  34.258   7.049
 3718POPC   C1B49543  35.737  34.478   6.216
 3718POPC   C2B49544  35.823  34.385   6.656
 3718POPC   C3B49545  35.661  34.399   7.071
 3718POPC   C4B49546  35.707  34.612   7.500
 3719POPC   NC349547  35.601  41.719   5.099
 3719POPC   PO449548  35.119  41.800   5.467
 3719POPC   GL149549  35.014  41.716   5.858
 3719POPC   GL249550  35.367  41.586   5.874
 3719POPC   C1A49551  35.138  41.880   6.246
 3719POPC   D2A49552  35.398  41.814   6.583
 3719POPC   C3A49553  35.338  41.421   6.764
 3719POPC   C4A49554  35.252  41.439   7.174
 3719POPC   C1B49555  35.690  41.730   6.162
 3719POPC   C2B49556  35.972  41.481   6.449
 3719POPC   C3B49557  35.858  41.374   6.871
 3719POPC   C4B49558  35.703  41.730   7.114
 3720POPC   NC349559   2.041  43.489   5.606
 3720POPC   PO449560   1.944  42.802   5.495
 3720POPC   GL149561   2.082  43.030   5.828
 3720POPC   GL249562   2.253  42.791   5.951
 3720POPC   C1A49563   2.157  43.222   6.246
 3720POPC   D2A49564   2.035  43.102   6.643
 3720POPC   C3A49565   2.181  43.263   7.027
 3720POPC   C4A49566   1.804  43.275   7.261
 3720POPC   C1B49567   2.412  42.768   6.368
 3720POPC   C2B49568   2.369  42.713   6.787
 3720POPC   C3B49569   2.045  42.788   7.082
 3720POPC   C4B49570   2.383  42.851   7.303
 3721POPC   NC349571   7.775  13.837   4.857
 3721POPC   PO449572   8.273  13.599   5.303
 3721POPC   GL149573   8.264  13.578   5.770
 3721POPC   GL249574   8.598  13.706   5.807
 3721POPC   C1A49575   7.995  13.585   6.178
 3721POPC   D2A49576   7.853  13.335   6.547
 3721POPC   C3A49577   7.968  13.507   6.961
 3721POPC   C4A49578   8.201  13.908   7.142
 3721POPC   C1B49579   8.431  13.871   6.200
 3721POPC   C2B49580   8.264  13.765   6.606
 3721POPC   C3B49581   8.470  13.528   6.931
 3721POPC   C4B49582   8.638  13.649   7.303
 3722POPC   NC349583  24.277  16.245   5.449
 3722POPC   PO449584  24.855  15.897   5.398
 3722POPC   GL149585  24.639  15.848   5.793
 3722POPC   GL249586  24.799  15.518   5.862
 3722POPC   C1A49587  24.438  16.118   6.110
 3722POPC   D2A49588  24.295  16.425   6.446
 3722POPC   C3A49589  24.376  16.319   6.889
 3722POPC   C4A49590  24.378  15.947   7.124
 3722POPC   C1B49591  24.750  15.700   6.289
 3722POPC   C2B49592  24.579  15.717   6.722
 3722POPC   C3B49593  24.584  15.467   7.127
 3722POPC   C4B49594  24.826  15.522   7.489
 3723POPC   NC349595  29.280  15.486   5.514
 3723POPC   PO449596  28.987  14.880   5.634
 3723POPC   GL149597  29.315  15.038   5.861
 3723POPC   GL249598  29.219  15.368   5.990
 3723POPC   C1A49599  29.515  15.065   6.263
 3723POPC   D2A49600  29.356  15.246   6.622
 3723POPC   C3A49601  29.157  14.937   6.861
 3723POPC   C4A49602  29.108  14.903   7.292
 3723POPC   C1B49603  28.950  15.137   6.268
 3723POPC   C2B49604  28.831  15.288   6.668
 3723POPC   C3B49605  29.078  15.424   7.038
 3723POPC   C4B49606  29.179  15.450   7.509
 3724POPC   NC349607   8.381  38.406   5.421
 3724POPC   PO449608   7.786  38.774   5.404
 3724POPC   GL149609   8.054  38.648   5.753
 3724POPC   GL249610   8.401  38.776   5.768
 3724POPC   C1A49611   7.972  38.540   6.188
 3724POPC   D2A49612   7.940  38.754   6.564
 3724POPC   C3A49613   7.911  38.553   6.950
 3724POPC   C4A49614   8.000  38.815   7.296
 3724POPC   C1B49615   8.418  38.365   6.051
 3724POPC   C2B49616   8.440  38.265   6.467
 3724POPC   C3B49617   8.412  38.428   6.886
 3724POPC   C4B49618   8.234  38.181   7.213
 3725POPC   NC349619  37.118  18.326   5.243
 3725POPC   PO449620  36.509  18.084   5.470
 3725POPC   GL149621  36.727  18.341   5.761
 3725POPC   GL249622  36.788  18.031   5.902
 3725POPC   C1A49623  36.962  18.448   6.164
 3725POPC   D2A49624  36.869  18.526   6.605
 3725POPC   C3A49625  37.166  18.477   6.970
 3725POPC   C4A49626  37.010  18.540   7.397
 3725POPC   C1B49627  36.875  17.926   6.329
 3725POPC   C2B49628  36.960  18.033   6.744
 3725POPC   C3B49629  36.735  18.244   7.051
 3725POPC   C4B49630  36.754  18.053   7.388
 3726POPC   NC349631  42.734   4.241   5.413
 3726POPC   PO449632  43.352   4.240   5.327
 3726POPC   GL149633  43.262   4.290   5.798
 3726POPC   GL249634  42.899   4.365   5.953
 3726POPC   C1A49635  43.307   4.223   6.253
 3726POPC   D2A49636  43.343   4.419   6.687
 3726POPC   C3A49637  43.123   4.266   7.069
 3726POPC   C4A49638  43.069   4.374   7.528
 3726POPC   C1B49639  42.870   4.399   6.439
 3726POPC   C2B49640  42.863   4.654   6.816
 3726POPC   C3B49641  42.746   4.698   7.255
 3726POPC   C4B49642  42.629   4.560   7.670
 3727POPC   NC349643  12.551  27.737   5.069
 3727POPC   PO449644  12.843  27.247   5.538
 3727POPC   GL149645  12.638  27.571   5.799
 3727POPC   GL249646  12.790  27.910   5.805
 3727POPC   C1A49647  12.673  27.592   6.248
 3727POPC   D2A49648  12.808  27.686   6.659
 3727POPC   C3A49649  12.616  27.558   7.056
 3727POPC   C4A49650  12.871  27.379   7.377
 3727POPC   C1B49651  13.024  27.960   6.205
 3727POPC   C2B49652  13.215  27.984   6.628
 3727POPC   C3B49653  13.013  27.994   7.034
 3727POPC   C4B49654  13.056  27.904   7.480
 3728POPC   NC349655  30.750  29.534   5.746
 3728POPC   PO449656  30.941  28.972   5.435
 3728POPC   GL149657  30.866  29.020   5.871
 3728POPC   GL249658  30.490  29.106   5.898
 3728POPC   C1A49659  30.880  29.184   6.306
 3728POPC   D2A49660  30.689  29.248   6.710
 3728POPC   C3A49661  30.905  29.210   7.111
 3728POPC   C4A49662  30.627  29.430   7.371
 3728POPC   C1B49663  30.463  28.877   6.307
 3728POPC   C2B49664  30.788  28.732   6.618
 3728POPC   C3B49665  30.666  28.693   7.045
 3728POPC   C4B49666  30.517  28.908   7.405
 3729POPC   NC349667   9.059  11.040   5.718
 3729POPC   PO449668   9.124  11.664   5.745
 3729POPC   GL149669   8.827  11.519   5.982
 3729POPC   GL249670   8.728  11.873   6.006
 3729POPC   C1A49671   8.847  11.279   6.339
 3729POPC   D2A49672   9.033  11.376   6.718
 3729POPC   C3A49673   9.040  11.113   7.076
 3729POPC   C4A49674   9.325  11.337   7.299
 3729POPC   C1B49675   8.953  11.793   6.401
 3729POPC   C2B49676   8.771  11.833   6.803
 3729POPC   C3B49677   8.861  11.584   7.150
 3729POPC   C4B49678   8.869  11.405   7.545
 3730POPC   NC349679  15.033  18.467   5.043
 3730POPC   PO449680  15.460  18.229   5.540
 3730POPC   GL149681  15.334  18.248   5.925
 3730POPC   GL249682  15.309  18.613   5.857
 3730POPC   C1A49683  15.112  18.073   6.316
 3730POPC   D2A49684  14.923  17.995   6.756
 3730POPC   C3A49685  15.207  17.974   7.123
 3730POPC   C4A49686  15.443  17.985   7.510
 3730POPC   C1B49687  15.087  18.619   6.230
 3730POPC   C2B49688  15.034  18.486   6.648
 3730POPC   C3B49689  15.176  18.505   7.080
 3730POPC   C4B49690  15.462  18.702   7.396
 3731POPC   NC349691  28.356  17.030   5.369
 3731POPC   PO449692  28.214  17.656   5.294
 3731POPC   GL149693  28.302  17.447   5.693
 3731POPC   GL249694  28.003  17.326   5.799
 3731POPC   C1A49695  28.403  17.485   6.152
 3731POPC   D2A49696  28.570  17.616   6.574
 3731POPC   C3A49697  28.380  17.425   6.981
 3731POPC   C4A49698  28.453  17.579   7.420
 3731POPC   C1B49699  27.959  17.225   6.221
 3731POPC   C2B49700  28.078  17.150   6.660
 3731POPC   C3B49701  28.008  17.068   7.096
 3731POPC   C4B49702  27.972  17.402   7.419
 3732POPC   NC349703   7.765  11.127   5.576
 3732POPC   PO449704   7.591  11.777   5.714
 3732POPC   GL149705   7.570  11.416   5.999
 3732POPC   GL249706   7.306  11.162   5.921
 3732POPC   C1A49707   7.536  11.343   6.453
 3732POPC   D2A49708   7.558  11.056   6.811
 3732POPC   C3A49709   7.619  11.310   7.154
 3732POPC   C4A49710   7.392  11.690   7.048
 3732POPC   C1B49711   7.057  11.282   6.296
 3732POPC   C2B49712   7.083  11.400   6.743
 3732POPC   C3B49713   7.152  11.132   7.107
 3732POPC   C4B49714   7.301  10.722   7.141
 3733POPC   NC349715  13.419  15.854   5.393
 3733POPC   PO449716  13.822  16.312   5.588
 3733POPC   GL149717  13.728  16.062   5.897
 3733POPC   GL249718  13.844  15.747   5.795
 3733POPC   C1A49719  13.643  16.161   6.325
 3733POPC   D2A49720  13.592  16.356   6.740
 3733POPC   C3A49721  13.509  16.012   7.014
 3733POPC   C4A49722  13.334  15.597   7.031
 3733POPC   C1B49723  13.776  15.665   6.242
 3733POPC   C2B49724  13.834  15.710   6.697
 3733POPC   C3B49725  13.832  15.537   7.124
 3733POPC   C4B49726  13.752  15.840   7.455
 3734POPC   NC349727  12.661  23.877   5.456
 3734POPC   PO449728  13.232  23.383   5.462
 3734POPC   GL149729  13.002  23.629   5.763
 3734POPC   GL249730  12.700  23.385   5.717
 3734POPC   C1A49731  12.814  23.915   6.111
 3734POPC   D2A49732  12.560  24.029   6.508
 3734POPC   C3A49733  12.756  24.031   6.936
 3734POPC   C4A49734  12.799  23.865   7.357
 3734POPC   C1B49735  12.827  23.317   6.126
 3734POPC   C2B49736  12.823  23.585   6.491
 3734POPC   C3B49737  12.815  23.521   6.929
 3734POPC   C4B49738  12.629  23.387   7.316
 3735POPC   NC349739   6.509  32.080   5.359
 3735POPC   PO449740   6.865  32.624   5.185
 3735POPC   GL149741   6.743  32.432   5.654
 3735POPC   GL249742   6.378  32.351   5.763
 3735POPC   C1A49743   6.850  32.363   6.119
 3735POPC   D2A49744   6.828  32.056   6.501
 3735POPC   C3A49745   6.864  32.244   6.926
 3735POPC   C4A49746   7.009  32.696   7.098
 3735POPC   C1B49747   6.433  32.066   6.095
 3735POPC   C2B49748   6.342  32.184   6.494
 3735POPC   C3B49749   6.338  32.182   6.907
 3735POPC   C4B49750   6.459  32.059   7.299
 3736POPC   NC349751  32.009  36.826   5.320
 3736POPC   PO449752  32.657  37.139   5.227
 3736POPC   GL149753  32.472  36.993   5.674
 3736POPC   GL249754  32.189  36.762   5.786
 3736POPC   C1A49755  32.482  36.908   6.160
 3736POPC   D2A49756  32.303  36.783   6.557
 3736POPC   C3A49757  32.410  36.969   6.962
 3736POPC   C4A49758  32.297  36.722   7.350
 3736POPC   C1B49759  31.955  37.001   6.117
 3736POPC   C2B49760  31.787  36.929   6.553
 3736POPC   C3B49761  31.914  36.770   6.962
 3736POPC   C4B49762  32.008  37.111   7.232
 3737POPC   NC349763   4.619  40.537   5.492
 3737POPC   PO449764   4.083  41.027   5.435
 3737POPC   GL149765   4.391  40.956   5.710
 3737POPC   GL249766   4.187  40.679   5.796
 3737POPC   C1A49767   4.519  40.862   6.119
 3737POPC   D2A49768   4.304  40.939   6.476
 3737POPC   C3A49769   4.473  40.691   6.798
 3737POPC   C4A49770   4.424  40.758   7.214
 3737POPC   C1B49771   4.036  40.573   6.192
 3737POPC   C2B49772   4.123  40.356   6.590
 3737POPC   C3B49773   4.137  40.349   7.059
 3737POPC   C4B49774   4.143  40.452   7.514
 3738POPC   NC349775  28.643  29.708   5.460
 3738POPC   PO449776  28.255  30.245   5.373
 3738POPC   GL149777  28.167  30.057   5.773
 3738POPC   GL249778  28.218  29.681   5.810
 3738POPC   C1A49779  28.331  29.980   6.197
 3738POPC   D2A49780  28.466  29.780   6.550
 3738POPC   C3A49781  28.463  29.972   6.928
 3738POPC   C4A49782  28.178  29.841   7.239
 3738POPC   C1B49783  28.444  29.440   6.149
 3738POPC   C2B49784  28.599  29.307   6.560
 3738POPC   C3B49785  28.445  29.441   6.991
 3738POPC   C4B49786  28.667  29.680   7.328
 3739POPC   NC349787  15.253  20.490   5.148
 3739POPC   PO449788  15.186  19.785   5.355
 3739POPC   GL149789  15.081  19.875   5.778
 3739POPC   GL249790  15.386  19.964   5.993
 3739POPC   C1A49791  15.013  19.618   6.147
 3739POPC   D2A49792  15.239  19.715   6.551
 3739POPC   C3A49793  14.944  19.631   6.887
 3739POPC   C4A49794  14.861  19.755   7.315
 3739POPC   C1B49795  15.057  20.112   6.248
 3739POPC   C2B49796  15.125  20.230   6.642
 3739POPC   C3B49797  15.211  20.059   7.027
 3739POPC   C4B49798  15.262  20.086   7.462
 3740POPC   NC349799  40.766  23.438   5.349
 3740POPC   PO449800  40.819  22.818   5.305
 3740POPC   GL149801  40.755  23.021   5.695
 3740POPC   GL249802  41.000  22.752   5.786
 3740POPC   C1A49803  40.625  22.915   6.116
 3740POPC   D2A49804  40.561  22.987   6.534
 3740POPC   C3A49805  40.573  22.687   6.861
 3740POPC   C4A49806  40.622  22.797   7.279
 3740POPC   C1B49807  41.164  22.966   6.139
 3740POPC   C2B49808  41.066  23.103   6.556
 3740POPC   C3B49809  41.061  22.955   6.984
 3740POPC   C4B49810  41.142  23.368   7.176
 3741POPC   NC349811  20.367  31.686   5.519
 3741POPC   PO449812  20.806  31.345   5.116
 3741POPC   GL149813  20.740  31.341   5.626
 3741POPC   GL249814  20.866  31.667   5.726
 3741POPC   C1A49815  20.566  31.469   6.112
 3741POPC   D2A49816  20.709  31.281   6.536
 3741POPC   C3A49817  20.566  31.374   6.951
 3741POPC   C4A49818  20.455  31.362   7.370
 3741POPC   C1B49819  20.917  31.877   6.120
 3741POPC   C2B49820  20.752  31.852   6.533
 3741POPC   C3B49821  20.908  31.740   6.913
 3741POPC   C4B49822  20.976  31.598   7.342
 3742POPC   NC349823  14.682  28.415   5.455
 3742POPC   PO449824  14.337  27.963   5.131
 3742POPC   GL149825  14.451  28.022   5.633
 3742POPC   GL249826  14.162  28.216   5.740
 3742POPC   C1A49827  14.510  28.312   6.093
 3742POPC   D2A49828  14.542  28.485   6.558
 3742POPC   C3A49829  14.710  28.211   6.937
 3742POPC   C4A49830  14.706  28.364   7.367
 3742POPC   C1B49831  14.055  28.065   6.176
 3742POPC   C2B49832  14.249  28.082   6.586
 3742POPC   C3B49833  14.239  28.362   6.973
 3742POPC   C4B49834  14.260  28.056   7.324
 3743POPC   NC349835   2.932  35.805   5.423
 3743POPC   PO449836   2.864  35.161   5.329
 3743POPC   GL149837   2.843  35.357   5.769
 3743POPC   GL249838   3.086  35.628   5.899
 3743POPC   C1A49839   2.907  35.304   6.246
 3743POPC   D2A49840   2.738  35.525   6.584
 3743POPC   C3A49841   2.880  35.425   6.998
 3743POPC   C4A49842   2.678  35.523   7.405
 3743POPC   C1B49843   3.050  35.852   6.314
 3743POPC   C2B49844   3.051  35.875   6.776
 3743POPC   C3B49845   3.059  35.878   7.213
 3743POPC   C4B49846   2.911  35.928   7.606
 3744POPC   NC349847   9.351  22.967   5.417
 3744POPC   PO449848   8.689  22.655   5.526
 3744POPC   GL149849   8.881  22.940   5.832
 3744POPC   GL249850   8.571  23.134   5.873
 3744POPC   C1A49851   8.974  23.019   6.315
 3744POPC   D2A49852   8.981  22.761   6.734
 3744POPC   C3A49853   9.032  22.961   7.170
 3744POPC   C4A49854   9.300  22.835   7.547
 3744POPC   C1B49855   8.512  22.850   6.213
 3744POPC   C2B49856   8.519  23.037   6.610
 3744POPC   C3B49857   8.548  22.944   7.015
 3744POPC   C4B49858   8.686  22.572   7.155
 3745POPC   NC349859  43.663  30.341   5.505
 3745POPC   PO449860  43.884  30.928   5.303
 3745POPC   GL149861  43.897  30.747   5.736
 3745POPC   GL249862  44.086  30.445   5.799
 3745POPC   C1A49863  44.143  30.769   6.170
 3745POPC   D2A49864  44.245  30.560   6.532
 3745POPC   C3A49865  43.964  30.669   6.873
 3745POPC   C4A49866  43.857  30.629   7.306
 3745POPC   C1B49867  43.736  30.467   6.150
 3745POPC   C2B49868  43.554  30.458   6.580
 3745POPC   C3B49869  43.537  30.309   7.045
 3745POPC   C4B49870  43.508  30.348   7.567
 3746POPC   NC349871  12.767  24.677   5.467
 3746POPC   PO449872  13.064  24.112   5.445
 3746POPC   GL149873  13.016  24.309   5.801
 3746POPC   GL249874  12.691  24.330   5.855
 3746POPC   C1A49875  13.186  24.303   6.198
 3746POPC   D2A49876  13.026  24.298   6.595
 3746POPC   C3A49877  13.230  24.261   6.992
 3746POPC   C4A49878  13.047  24.343   7.386
 3746POPC   C1B49879  12.688  24.474   6.244
 3746POPC   C2B49880  12.571  24.528   6.647
 3746POPC   C3B49881  12.805  24.559   6.999
 3746POPC   C4B49882  12.749  24.744   7.437
 3747POPC   NC349883  25.716  33.793   5.442
 3747POPC   PO449884  25.125  33.866   5.188
 3747POPC   GL149885  25.203  33.907   5.689
 3747POPC   GL249886  25.475  33.702   5.873
 3747POPC   C1A49887  25.032  34.009   6.153
 3747POPC   D2A49888  24.833  34.187   6.570
 3747POPC   C3A49889  25.016  34.114   7.011
 3747POPC   C4A49890  25.130  33.687   7.183
 3747POPC   C1B49891  25.543  34.043   6.174
 3747POPC   C2B49892  25.362  34.049   6.610
 3747POPC   C3B49893  25.537  34.015   7.045
 3747POPC   C4B49894  25.758  33.883   7.425
 3748POPC   NC349895   5.317   2.179   5.606
 3748POPC   PO449896   5.015   1.591   5.483
 3748POPC   GL149897   4.877   1.775   5.860
 3748POPC   GL249898   4.811   2.114   5.984
 3748POPC   C1A49899   5.047   1.757   6.263
 3748POPC   D2A49900   5.193   1.865   6.645
 3748POPC   C3A49901   4.884   1.846   6.941
 3748POPC   C4A49902   5.106   1.809   7.282
 3748POPC   C1B49903   5.193   2.264   6.238
 3748POPC   C2B49904   5.432   2.323   6.600
 3748POPC   C3B49905   5.213   2.279   6.991
 3748POPC   C4B49906   4.760   2.348   7.012
 3749POPC   NC349907  20.495  44.939   5.385
 3749POPC   PO449908  20.695  44.284   5.318
 3749POPC   GL149909  20.592  44.508   5.734
 3749POPC   GL249910  20.735  44.837   5.854
 3749POPC   C1A49911  20.515  44.562   6.203
 3749POPC   D2A49912  20.431  44.719   6.627
 3749POPC   C3A49913  20.539  44.669   7.066
 3749POPC   C4A49914  20.440  44.602   7.532
 3749POPC   C1B49915  20.501   0.077   6.198
 3749POPC   C2B49916  20.286   0.198   6.599
 3749POPC   C3B49917  20.494   0.184   6.989
 3749POPC   C4B49918  20.359   0.061   7.368
 3750POPC   NC349919  15.601   4.474   5.498
 3750POPC   PO449920  15.900   5.090   5.569
 3750POPC   GL149921  16.146   5.018   5.945
 3750POPC   GL249922  16.239   4.691   5.850
 3750POPC   C1A49923  16.074   5.030   6.402
 3750POPC   D2A49924  15.751   5.274   6.702
 3750POPC   C3A49925  15.825   5.161   7.130
 3750POPC   C4A49926  16.177   4.860   7.184
 3750POPC   C1B49927  15.828   4.645   6.092
 3750POPC   C2B49928  15.623   4.811   6.443
 3750POPC   C3B49929  15.752   4.758   6.840
 3750POPC   C4B49930  15.488   4.738   7.185
 3751POPC   NC349931  43.222  39.882   5.432
 3751POPC   PO449932  42.661  40.113   5.211
 3751POPC   GL149933  42.864  40.167   5.676
 3751POPC   GL249934  43.219  40.111   5.868
 3751POPC   C1A49935  42.822  40.276   6.136
 3751POPC   D2A49936  42.951  40.384   6.574
 3751POPC   C3A49937  42.788  40.225   6.995
 3751POPC   C4A49938  42.905  39.837   7.230
 3751POPC   C1B49939  43.340  40.383   6.199
 3751POPC   C2B49940  43.462  40.428   6.615
 3751POPC   C3B49941  43.334  40.250   7.013
 3751POPC   C4B49942  43.295  40.103   7.439
 3752POPC   NC349943  28.896  25.789   5.619
 3752POPC   PO449944  29.274  26.275   5.521
 3752POPC   GL149945  29.411  26.133   5.894
 3752POPC   GL249946  29.482  25.767   5.862
 3752POPC   C1A49947  29.241  26.142   6.289
 3752POPC   D2A49948  29.167  26.377   6.643
 3752POPC   C3A49949  29.217  26.136   6.981
 3752POPC   C4A49950  28.883  26.199   7.236
 3752POPC   C1B49951  29.352  25.648   6.273
 3752POPC   C2B49952  29.058  25.460   6.561
 3752POPC   C3B49953  29.046  25.638   6.978
 3752POPC   C4B49954  29.158  25.803   7.375
 3753POPC   NC349955   2.110  18.610   5.156
 3753POPC   PO449956   1.757  18.128   5.434
 3753POPC   GL149957   1.946  18.439   5.700
 3753POPC   GL249958   1.714  18.661   5.892
 3753POPC   C1A49959   2.209  18.407   6.092
 3753POPC   D2A49960   2.328  18.113   6.485
 3753POPC   C3A49961   2.159  18.194   6.919
 3753POPC   C4A49962   2.171  18.351   7.362
 3753POPC   C1B49963   1.740  18.345   6.257
 3753POPC   C2B49964   1.618  18.153   6.658
 3753POPC   C3B49965   1.683  17.930   7.038
 3753POPC   C4B49966   1.764  18.029   7.471
 3754POPC   NC349967  31.901   0.950   5.172
 3754POPC   PO449968  32.466   1.289   5.303
 3754POPC   GL149969  32.252   1.191   5.690
 3754POPC   GL249970  32.579   1.165   5.800
 3754POPC   C1A49971  32.222   1.249   6.171
 3754POPC   D2A49972  32.315   1.062   6.602
 3754POPC   C3A49973  32.444   1.366   6.925
 3754POPC   C4A49974  32.350   1.412   7.364
 3754POPC   C1B49975  32.614   0.922   6.172
 3754POPC   C2B49976  32.791   0.822   6.527
 3754POPC   C3B49977  32.768   0.960   6.916
 3754POPC   C4B49978  32.457   0.922   7.234
 3755POPC   NC349979   8.717   7.682   5.384
 3755POPC   PO449980   8.971   7.174   5.393
 3755POPC   GL149981   8.974   7.319   5.852
 3755POPC   GL249982   9.331   7.371   5.955
 3755POPC   C1A49983   8.712   7.509   6.217
 3755POPC   D2A49984   8.579   7.676   6.660
 3755POPC   C3A49985   8.681   7.435   7.056
 3755POPC   C4A49986   9.007   7.205   7.299
 3755POPC   C1B49987   9.190   7.530   6.387
 3755POPC   C2B49988   9.160   7.504   6.867
 3755POPC   C3B49989   9.482   7.312   7.158
 3755POPC   C4B49990   9.467   7.015   7.524
 3756POPC   NC349991  23.514   7.744   5.341
 3756POPC   PO449992  23.963   8.132   5.146
 3756POPC   GL149993  23.958   8.081   5.616
 3756POPC   GL249994  23.621   7.981   5.755
 3756POPC   C1A49995  23.939   8.207   6.064
 3756POPC   D2A49996  23.692   8.309   6.423
 3756POPC   C3A49997  23.818   8.167   6.849
 3756POPC   C4A49998  24.015   8.374   7.223
 3756POPC   C1B49999  23.519   7.883   6.168
 3756POPC   C2B50000  23.457   7.881   6.600
 3756POPC   C3B50001  23.349   7.869   7.031
 3756POPC   C4B50002  23.563   8.135   7.302
 3757POPC   NC350003  15.614  22.957   5.511
 3757POPC   PO450004  14.981  22.684   5.361
 3757POPC   GL150005  15.046  22.906   5.782
 3757POPC   GL250006  15.375  22.928   5.974
 3757POPC   C1A50007  14.946  22.825   6.231
 3757POPC   D2A50008  15.020  22.938   6.656
 3757POPC   C3A50009  14.810  22.705   6.956
 3757POPC   C4A50010  14.907  22.580   7.351
 3757POPC   C1B50011  15.226  23.254   6.304
 3757POPC   C2B50012  15.244  23.386   6.750
 3757POPC   C3B50013  15.275  23.078   7.091
 3757POPC   C4B50014  15.591  22.765   7.144
 3758POPC   NC350015  22.318  19.800   5.138
 3758POPC   PO450016  21.974  20.292   5.489
 3758POPC   GL150017  22.066  20.050   5.838
 3758POPC   GL250018  22.257  19.754   5.725
 3758POPC   C1A50019  22.200  20.182   6.247
 3758POPC   D2A50020  22.394  20.167   6.624
 3758POPC   C3A50021  22.080  20.193   6.934
 3758POPC   C4A50022  22.023  19.997   7.330
 3758POPC   C1B50023  22.294  19.670   6.180
 3758POPC   C2B50024  22.087  19.530   6.584
 3758POPC   C3B50025  22.172  19.600   7.030
 3758POPC   C4B50026  22.570  19.517   7.248
 3759POPC   NC350027  28.654  27.198   5.520
 3759POPC   PO450028  28.408  27.785   5.485
 3759POPC   GL150029  28.418  27.617   5.909
 3759POPC   GL250030  28.320  27.283   5.922
 3759POPC   C1A50031  28.514  27.591   6.390
 3759POPC   D2A50032  28.611  27.712   6.825
 3759POPC   C3A50033  28.312  27.794   7.158
 3759POPC   C4A50034  28.025  27.469   7.410
 3759POPC   C1B50035  28.601  27.116   6.253
 3759POPC   C2B50036  28.528  27.016   6.689
 3759POPC   C3B50037  28.354  27.303   7.006
 3759POPC   C4B50038  28.507  27.391   7.419
 3760POPC   NC350039  31.360  43.420   5.388
 3760POPC   PO450040  31.661  42.967   5.730
 3760POPC   GL150041  31.623  43.248   6.046
 3760POPC   GL250042  31.308  43.358   5.899
 3760POPC   C1A50043  31.664  43.049   6.455
 3760POPC   D2A50044  31.498  42.691   6.725
 3760POPC   C3A50045  31.508  42.911   7.081
 3760POPC   C4A50046  31.712  43.289   6.988
 3760POPC   C1B50047  31.179  43.151   6.290
 3760POPC   C2B50048  31.246  43.198   6.740
 3760POPC   C3B50049  31.219  43.354   7.153
 3760POPC   C4B50050  30.999  43.184   7.521
 3761POPC   NC350051   3.363  10.732   5.417
 3761POPC   PO450052   3.914  10.387   5.358
 3761POPC   GL150053   3.766  10.551   5.769
 3761POPC   GL250054   3.538  10.847   5.896
 3761POPC   C1A50055   3.702  10.462   6.215
 3761POPC   D2A50056   3.699  10.705   6.595
 3761POPC   C3A50057   3.735  10.436   6.932
 3761POPC   C4A50058   3.592  10.380   7.333
 3761POPC   C1B50059   3.264  10.752   6.267
 3761POPC   C2B50060   3.194  10.718   6.722
 3761POPC   C3B50061   3.276  10.728   7.124
 3761POPC   C4B50062   3.490  11.073   7.139
 3762POPC   NC350063  24.406  21.593   5.406
 3762POPC   PO450064  24.607  20.943   5.524
 3762POPC   GL150065  24.365  20.977   5.872
 3762POPC   GL250066  24.371  21.319   5.845
 3762POPC   C1A50067  24.358  21.041   6.337
 3762POPC   D2A50068  24.154  21.086   6.753
 3762POPC   C3A50069  24.546  21.111   7.006
 3762POPC   C4A50070  24.851  21.239   7.294
 3762POPC   C1B50071  24.426  21.536   6.228
 3762POPC   C2B50072  24.472  21.491   6.662
 3762POPC   C3B50073  24.248  21.546   7.052
 3762POPC   C4B50074  24.253  21.720   7.465
 3763POPC   NC350075  35.689   1.635   5.517
 3763POPC   PO450076  35.176   2.024   5.376
 3763POPC   GL150077  35.306   1.875   5.772
 3763POPC   GL250078  35.224   1.530   5.757
 3763POPC   C1A50079  35.485   1.961   6.158
 3763POPC   D2A50080  35.354   1.920   6.576
 3763POPC   C3A50081  35.515   2.102   6.961
 3763POPC   C4A50082  35.328   2.177   7.384
 3763POPC   C1B50083  35.214   1.526   6.224
 3763POPC   C2B50084  34.929   1.604   6.587
 3763POPC   C3B50085  35.091   1.727   6.988
 3763POPC   C4B50086  35.439   1.706   7.273
 3764POPC   NC350087   7.668   6.631   5.364
 3764POPC   PO450088   7.113   6.812   5.387
 3764POPC   GL150089   7.369   6.835   5.767
 3764POPC   GL250090   7.376   6.510   5.811
 3764POPC   C1A50091   7.561   6.745   6.217
 3764POPC   D2A50092   7.336   6.705   6.632
 3764POPC   C3A50093   7.484   6.575   7.033
 3764POPC   C4A50094   7.417   6.753   7.418
 3764POPC   C1B50095   7.207   6.375   6.251
 3764POPC   C2B50096   7.082   6.269   6.681
 3764POPC   C3B50097   7.202   6.155   7.102
 3764POPC   C4B50098   7.327   6.273   7.533
 3765POPC   NC350099  44.019  22.583   5.528
 3765POPC   PO450100  43.839  21.945   5.403
 3765POPC   GL150101  43.776  21.984   5.834
 3765POPC   GL250102  43.836  22.338   5.944
 3765POPC   C1A50103  43.829  21.865   6.251
 3765POPC   D2A50104  43.861  22.107   6.626
 3765POPC   C3A50105  43.964  21.886   7.012
 3765POPC   C4A50106  43.713  21.764   7.427
 3765POPC   C1B50107  44.124  22.606   6.217
 3765POPC   C2B50108  44.245  22.461   6.639
 3765POPC   C3B50109  44.046  22.404   7.013
 3765POPC   C4B50110  43.752  22.253   7.257
 3766POPC   NC350111  39.418   0.161   5.469
 3766POPC   PO450112  38.852   0.527   5.355
 3766POPC   GL150113  39.084   0.535   5.735
 3766POPC   GL250114  38.910   0.843   5.794
 3766POPC   C1A50115  39.386   0.420   6.103
 3766POPC   D2A50116  39.419   0.149   6.499
 3766POPC   C3A50117  39.425   0.288   6.940
 3766POPC   C4A50118  39.089   0.376   7.229
 3766POPC   C1B50119  39.074   0.818   6.195
 3766POPC   C2B50120  39.146   0.587   6.549
 3766POPC   C3B50121  39.212   0.746   6.923
 3766POPC   C4B50122  39.089   0.884   7.300
 3767POPC   NC350123  36.144  31.037   5.388
 3767POPC   PO450124  36.161  31.721   5.428
 3767POPC   GL150125  36.318  31.432   5.702
 3767POPC   GL250126  36.000  31.302   5.804
 3767POPC   C1A50127  36.413  31.353   6.134
 3767POPC   D2A50128  36.487  31.276   6.572
 3767POPC   C3A50129  36.237  31.537   6.842
 3767POPC   C4A50130  36.256  31.709   7.239
 3767POPC   C1B50131  36.006  31.018   6.131
 3767POPC   C2B50132  35.962  31.195   6.524
 3767POPC   C3B50133  36.093  31.050   6.905
 3767POPC   C4B50134  35.855  31.043   7.256
 3768POPC   NC350135  11.456  34.764   5.549
 3768POPC   PO450136  10.942  34.295   5.544
 3768POPC   GL150137  11.179  34.492   5.883
 3768POPC   GL250138  11.557  34.498   5.954
 3768POPC   C1A50139  11.055  34.643   6.284
 3768POPC   D2A50140  11.337  34.613   6.581
 3768POPC   C3A50141  11.218  34.730   6.957
 3768POPC   C4A50142  11.182  34.623   7.355
 3768POPC   C1B50143  11.818  34.372   6.301
 3768POPC   C2B50144  11.837  34.559   6.719
 3768POPC   C3B50145  11.776  34.442   7.150
 3768POPC   C4B50146  11.687  34.609   7.554
 3769POPC   NC350147  21.328  38.696   5.508
 3769POPC   PO450148  21.700  38.140   5.526
 3769POPC   GL150149  21.600  38.313   5.885
 3769POPC   GL250150  21.246  38.311   5.846
 3769POPC   C1A50151  21.582  38.281   6.311
 3769POPC   D2A50152  21.565  38.077   6.679
 3769POPC   C3A50153  21.369  38.347   6.953
 3769POPC   C4A50154  21.697  38.493   7.233
 3769POPC   C1B50155  21.096  38.448   6.262
 3769POPC   C2B50156  20.852  38.471   6.640
 3769POPC   C3B50157  20.912  38.647   7.033
 3769POPC   C4B50158  21.237  38.692   7.312
 3770POPC   NC350159   1.202  39.581   5.308
 3770POPC   PO450160   1.027  40.158   5.287
 3770POPC   GL150161   1.253  40.019   5.654
 3770POPC   GL250162   1.002  39.738   5.753
 3770POPC   C1A50163   1.466  40.245   6.035
 3770POPC   D2A50164   1.469  40.512   6.434
 3770POPC   C3A50165   1.256  40.322   6.805
 3770POPC   C4A50166   1.397  40.119   7.186
 3770POPC   C1B50167   1.338  39.715   6.069
 3770POPC   C2B50168   1.498  39.836   6.491
 3770POPC   C3B50169   1.471  39.685   6.919
 3770POPC   C4B50170   1.138  39.658   7.195
 3771POPC   NC350171  36.048  22.406   5.381
 3771POPC   PO450172  36.288  22.969   5.500
 3771POPC   GL150173  36.454  22.932   5.900
 3771POPC   GL250174  36.395  23.288   5.995
 3771POPC   C1A50175  36.374  22.893   6.329
 3771POPC   D2A50176  36.399  23.139   6.682
 3771POPC   C3A50177  36.304  22.997   7.096
 3771POPC   C4A50178  36.135  22.989   7.497
 3771POPC   C1B50179  36.042  23.299   6.333
 3771POPC   C2B50180  35.902  23.176   6.786
 3771POPC   C3B50181  35.803  22.858   7.129
 3771POPC   C4B50182  35.613  22.898   7.564
 3772POPC   NC350183  17.228  21.876   5.167
 3772POPC   PO450184  17.481  22.364   5.599
 3772POPC   GL150185  17.444  22.287   5.974
 3772POPC   GL250186  17.793  22.268   6.031
 3772POPC   C1A50187  17.352  21.924   6.205
 3772POPC   D2A50188  17.316  21.940   6.623
 3772POPC   C3A50189  17.421  21.750   6.989
 3772POPC   C4A50190  17.506  21.947   7.365
 3772POPC   C1B50191  17.698  22.592   6.328
 3772POPC   C2B50192  17.391  22.502   6.649
 3772POPC   C3B50193  17.547  22.270   6.978
 3772POPC   C4B50194  17.940  22.287   7.196
 3773POPC   NC350195  42.607  32.715   5.489
 3773POPC   PO450196  41.946  32.975   5.565
 3773POPC   GL150197  42.225  32.948   5.914
 3773POPC   GL250198  42.454  33.193   5.854
 3773POPC   C1A50199  42.277  33.137   6.343
 3773POPC   D2A50200  42.312  33.360   6.752
 3773POPC   C3A50201  42.276  33.047   7.072
 3773POPC   C4A50202  41.991  32.723   7.178
 3773POPC   C1B50203  42.701  32.950   6.129
 3773POPC   C2B50204  42.818  33.046   6.535
 3773POPC   C3B50205  42.773  33.169   6.960
 3773POPC   C4B50206  42.716  33.068   7.391
 3774POPC   NC350207  11.569  26.668   5.303
 3774POPC   PO450208  11.244  27.275   5.292
 3774POPC   GL150209  11.369  26.929   5.672
 3774POPC   GL250210  11.092  26.757   5.865
 3774POPC   C1A50211  11.520  26.895   6.121
 3774POPC   D2A50212  11.728  26.841   6.536
 3774POPC   C3A50213  11.646  27.120   6.849
 3774POPC   C4A50214  11.592  26.953   7.207
 3774POPC   C1B50215  11.149  26.493   6.220
 3774POPC   C2B50216  11.311  26.500   6.646
 3774POPC   C3B50217  11.181  26.773   6.978
 3774POPC   C4B50218  10.898  26.693   7.284
 3775POPC   NC350219  27.281   1.237   5.572
 3775POPC   PO450220  26.809   1.445   5.112
 3775POPC   GL150221  26.771   1.311   5.608
 3775POPC   GL250222  26.876   0.958   5.742
 3775POPC   C1A50223  26.830   1.310   6.097
 3775POPC   D2A50224  26.589   1.280   6.480
 3775POPC   C3A50225  26.618   1.266   6.920
 3775POPC   C4A50226  27.004   1.269   7.121
 3775POPC   C1B50227  27.053   0.842   6.181
 3775POPC   C2B50228  26.941   0.919   6.624
 3775POPC   C3B50229  27.142   0.780   6.996
 3775POPC   C4B50230  27.139   0.786   7.455
 3776POPC   NC350231  38.772  40.812   5.487
 3776POPC   PO450232  38.138  41.123   5.388
 3776POPC   GL150233  38.288  40.897   5.738
 3776POPC   GL250234  38.538  41.096   5.862
 3776POPC   C1A50235  38.412  40.640   6.122
 3776POPC   D2A50236  38.668  40.622   6.513
 3776POPC   C3A50237  38.503  40.505   6.942
 3776POPC   C4A50238  38.678  40.581   7.354
 3776POPC   C1B50239  38.199  41.134   6.207
 3776POPC   C2B50240  38.264  41.297   6.613
 3776POPC   C3B50241  38.529  41.036   6.894
 3776POPC   C4B50242  38.590  41.083   7.324
 3777POPC   NC350243  21.284  39.693   5.528
 3777POPC   PO450244  21.095  39.055   5.697
 3777POPC   GL150245  21.463  39.272   5.823
 3777POPC   GL250246  21.264  39.523   6.009
 3777POPC   C1A50247  21.591  39.176   6.245
 3777POPC   D2A50248  21.274  39.273   6.566
 3777POPC   C3A50249  21.271  39.051   6.955
 3777POPC   C4A50250  21.652  39.012   7.212
 3777POPC   C1B50251  21.648  39.678   6.213
 3777POPC   C2B50252  21.664  39.753   6.638
 3777POPC   C3B50253  21.589  39.464   6.964
 3777POPC   C4B50254  21.597  39.519   7.399
 3778POPC   NC350255  20.983  19.038   5.432
 3778POPC   PO450256  20.332  19.092   5.291
 3778POPC   GL150257  20.543  19.010   5.713
 3778POPC   GL250258  20.626  19.347   5.780
 3778POPC   C1A50259  20.786  18.986   6.144
 3778POPC   D2A50260  20.558  19.006   6.572
 3778POPC   C3A50261  20.623  19.318   6.848
 3778POPC   C4A50262  20.865  19.276   7.207
 3778POPC   C1B50263  20.348  19.230   6.123
 3778POPC   C2B50264  20.236  19.381   6.492
 3778POPC   C3B50265  20.093  19.254   6.865
 3778POPC   C4B50266  20.323  19.241   7.251
 3779POPC   NC350267   6.502  20.104   5.386
 3779POPC   PO450268   6.972  19.609   5.470
 3779POPC   GL150269   6.656  19.780   5.764
 3779POPC   GL250270   6.807  20.066   5.903
 3779POPC   C1A50271   6.477  19.799   6.186
 3779POPC   D2A50272   6.601  19.983   6.553
 3779POPC   C3A50273   6.404  19.812   6.893
 3779POPC   C4A50274   6.432  19.975   7.284
 3779POPC   C1B50275   6.974  19.723   6.192
 3779POPC   C2B50276   7.060  19.758   6.630
 3779POPC   C3B50277   6.888  19.965   6.986
 3779POPC   C4B50278   6.892  19.756   7.351
 3780POPC   NC350279  42.166  34.423   5.361
 3780POPC   PO450280  42.240  35.112   5.183
 3780POPC   GL150281  42.333  34.858   5.560
 3780POPC   GL250282  42.006  34.803   5.703
 3780POPC   C1A50283  42.383  34.662   6.024
 3780POPC   D2A50284  42.244  34.373   6.384
 3780POPC   C3A50285  42.323  34.384   6.842
 3780POPC   C4A50286  42.749  34.393   7.026
 3780POPC   C1B50287  41.951  34.902   6.160
 3780POPC   C2B50288  42.132  34.843   6.571
 3780POPC   C3B50289  42.497  34.873   6.837
 3780POPC   C4B50290  42.393  34.791   7.259
 3781POPC   NC350291  41.696   2.515   5.475
 3781POPC   PO450292  41.133   2.866   5.446
 3781POPC   GL150293  41.414   2.815   5.785
 3781POPC   GL250294  41.703   3.001   5.669
 3781POPC   C1A50295  41.553   2.557   6.149
 3781POPC   D2A50296  41.868   2.625   6.469
 3781POPC   C3A50297  41.629   2.618   6.870
 3781POPC   C4A50298  41.495   2.688   7.298
 3781POPC   C1B50299  41.763   3.025   6.125
 3781POPC   C2B50300  41.584   3.050   6.559
 3781POPC   C3B50301  41.692   3.109   7.023
 3781POPC   C4B50302  41.689   3.135   7.502
 3782POPC   NC350303  25.358   2.737   5.398
 3782POPC   PO450304  24.945   3.250   5.527
 3782POPC   GL150305  25.055   2.913   5.866
 3782POPC   GL250306  25.400   2.799   5.898
 3782POPC   C1A50307  25.169   2.967   6.329
 3782POPC   D2A50308  25.556   2.892   6.586
 3782POPC   C3A50309  25.517   2.967   7.036
 3782POPC   C4A50310  25.668   2.784   7.392
 3782POPC   C1B50311  25.211   2.491   6.194
 3782POPC   C2B50312  25.187   2.524   6.672
 3782POPC   C3B50313  25.409   2.431   7.097
 3782POPC   C4B50314  25.315   2.458   7.545
 3783POPC   NC350315  17.671  35.482   5.436
 3783POPC   PO450316  17.166  35.144   5.557
 3783POPC   GL150317  17.560  35.188   5.843
 3783POPC   GL250318  17.656  35.531   5.950
 3783POPC   C1A50319  17.775  35.077   6.223
 3783POPC   D2A50320  17.702  34.853   6.626
 3783POPC   C3A50321  17.767  35.165   6.970
 3783POPC   C4A50322  17.717  35.204   7.447
 3783POPC   C1B50323  17.749  35.577   6.419
 3783POPC   C2B50324  17.875  35.689   6.847
 3783POPC   C3B50325  17.567  35.841   7.171
 3783POPC   C4B50326  17.534  35.962   7.625
 3784POPC   NC350327  25.216  15.571   5.445
 3784POPC   PO450328  25.534  16.305   5.432
 3784POPC   GL150329  25.379  16.199   5.800
 3784POPC   GL250330  25.171  15.908   5.820
 3784POPC   C1A50331  25.457  16.072   6.214
 3784POPC   D2A50332  25.200  15.909   6.545
 3784POPC   C3A50333  25.379  16.094   6.902
 3784POPC   C4A50334  25.334  15.997   7.302
 3784POPC   C1B50335  24.948  16.174   6.115
 3784POPC   C2B50336  24.736  16.167   6.518
 3784POPC   C3B50337  24.861  16.116   6.920
 3784POPC   C4B50338  24.845  16.002   7.334
 3785POPC   NC350339  23.832  10.335   5.436
 3785POPC   PO450340  23.664  10.992   5.298
 3785POPC   GL150341  23.492  10.900   5.718
 3785POPC   GL250342  23.804  10.835   5.848
 3785POPC   C1A50343  23.418  10.739   6.177
 3785POPC   D2A50344  23.520  10.753   6.636
 3785POPC   C3A50345  23.643  10.376   6.894
 3785POPC   C4A50346  23.707  10.352   7.340
 3785POPC   C1B50347  23.830  11.041   6.250
 3785POPC   C2B50348  23.992  10.965   6.654
 3785POPC   C3B50349  23.891  10.805   7.001
 3785POPC   C4B50350  24.009  10.812   7.368
 3786POPC   NC350351   4.445  26.568   5.390
 3786POPC   PO450352   4.023  27.050   5.587
 3786POPC   GL150353   4.288  26.754   5.838
 3786POPC   GL250354   4.623  26.855   5.797
 3786POPC   C1A50355   4.337  26.647   6.268
 3786POPC   D2A50356   3.998  26.842   6.478
 3786POPC   C3A50357   4.115  26.929   6.894
 3786POPC   C4A50358   4.217  26.700   7.219
 3786POPC   C1B50359   4.833  27.105   6.122
 3786POPC   C2B50360   4.701  26.976   6.555
 3786POPC   C3B50361   4.672  26.803   6.970
 3786POPC   C4B50362   4.718  27.005   7.356
 3787POPC   NC350363  13.480  18.132   5.539
 3787POPC   PO450364  14.009  18.613   5.503
 3787POPC   GL150365  13.776  18.408   5.845
 3787POPC   GL250366  13.425  18.498   5.866
 3787POPC   C1A50367  13.614  18.137   6.198
 3787POPC   D2A50368  13.432  17.968   6.602
 3787POPC   C3A50369  13.538  18.203   6.947
 3787POPC   C4A50370  13.781  18.181   7.321
 3787POPC   C1B50371  13.224  18.638   6.197
 3787POPC   C2B50372  13.227  18.439   6.569
 3787POPC   C3B50373  13.092  18.481   6.973
 3787POPC   C4B50374  13.370  18.525   7.321
 3788POPC   NC350375  32.673  28.946   5.653
 3788POPC   PO450376  33.048  29.488   5.415
 3788POPC   GL150377  33.156  29.295   5.855
 3788POPC   GL250378  32.873  29.144   6.070
 3788POPC   C1A50379  33.263  29.346   6.319
 3788POPC   D2A50380  33.013  29.161   6.657
 3788POPC   C3A50381  33.115  29.354   7.054
 3788POPC   C4A50382  33.537  29.524   7.072
 3788POPC   C1B50383  33.211  28.850   6.229
 3788POPC   C2B50384  33.290  28.654   6.633
 3788POPC   C3B50385  33.293  28.895   7.002
 3788POPC   C4B50386  33.172  28.954   7.436
 3789POPC   NC350387  10.693  43.144   5.475
 3789POPC   PO450388  10.441  42.618   4.976
 3789POPC   GL150389  10.552  42.618   5.508
 3789POPC   GL250390  10.867  42.747   5.736
 3789POPC   C1A50391  10.385  42.726   5.978
 3789POPC   D2A50392  10.216  42.805   6.434
 3789POPC   C3A50393  10.306  43.143   6.786
 3789POPC   C4A50394  10.196  43.163   7.238
 3789POPC   C1B50395  10.835  42.964   6.134
 3789POPC   C2B50396  10.728  42.908   6.572
 3789POPC   C3B50397  10.833  43.236   6.839
 3789POPC   C4B50398  10.668  43.390   7.220
 3790POPC   NC350399   6.678  42.706   5.563
 3790POPC   PO450400   6.713  43.439   5.488
 3790POPC   GL150401   6.607  43.170   5.824
 3790POPC   GL250402   6.939  43.082   5.855
 3790POPC   C1A50403   6.580  42.876   6.197
 3790POPC   D2A50404   6.422  42.836   6.627
 3790POPC   C3A50405   6.432  43.211   6.897
 3790POPC   C4A50406   6.655  43.344   7.269
 3790POPC   C1B50407   6.960  43.426   6.165
 3790POPC   C2B50408   7.138  43.376   6.597
 3790POPC   C3B50409   7.060  43.112   6.936
 3790POPC   C4B50410   6.919  42.893   7.271
 3791POPC   NC350411  33.278  14.012   5.254
 3791POPC   PO450412  33.807  13.546   5.381
 3791POPC   GL150413  33.933  13.572   5.794
 3791POPC   GL250414  33.669  13.757   5.903
 3791POPC   C1A50415  33.891  13.473   6.247
 3791POPC   D2A50416  33.863  13.372   6.679
 3791POPC   C3A50417  33.949  13.674   6.989
 3791POPC   C4A50418  33.827  13.663   7.372
 3791POPC   C1B50419  33.518  13.873   6.260
 3791POPC   C2B50420  33.682  13.872   6.613
 3791POPC   C3B50421  33.477  13.920   6.963
 3791POPC   C4B50422  33.520  14.122   7.283
 3792POPC   NC350423   5.448  33.417   5.450
 3792POPC   PO450424   4.768  33.303   5.660
 3792POPC   GL150425   5.181  33.118   5.803
 3792POPC   GL250426   5.318  32.775   5.760
 3792POPC   C1A50427   5.132  32.954   6.232
 3792POPC   D2A50428   4.975  33.202   6.572
 3792POPC   C3A50429   5.077  33.046   6.955
 3792POPC   C4A50430   4.816  32.943   7.274
 3792POPC   C1B50431   5.618  32.828   6.124
 3792POPC   C2B50432   5.523  32.841   6.586
 3792POPC   C3B50433   5.515  32.793   7.033
 3792POPC   C4B50434   5.296  32.879   7.442
 3793POPC   NC350435  41.432  31.646   5.406
 3793POPC   PO450436  41.221  31.053   5.643
 3793POPC   GL150437  41.359  31.376   5.870
 3793POPC   GL250438  41.698  31.493   5.838
 3793POPC   C1A50439  41.307  31.327   6.295
 3793POPC   D2A50440  41.671  31.378   6.467
 3793POPC   C3A50441  41.678  31.368   6.868
 3793POPC   C4A50442  41.502  31.686   7.104
 3793POPC   C1B50443  41.590  31.790   6.185
 3793POPC   C2B50444  41.683  31.992   6.574
 3793POPC   C3B50445  41.939  31.823   6.859
 3793POPC   C4B50446  41.977  31.823   7.313
 3794POPC   NC350447   1.891  39.689   5.356
 3794POPC   PO450448   1.739  40.326   5.379
 3794POPC   GL150449   1.787  40.036   5.698
 3794POPC   GL250450   2.150  40.015   5.705
 3794POPC   C1A50451   1.837  39.864   6.095
 3794POPC   D2A50452   2.035  39.874   6.508
 3794POPC   C3A50453   1.817  40.070   6.838
 3794POPC   C4A50454   1.929  40.061   7.259
 3794POPC   C1B50455   2.359  40.038   6.124
 3794POPC   C2B50456   2.568  39.933   6.523
 3794POPC   C3B50457   2.346  39.943   6.927
 3794POPC   C4B50458   2.409  40.165   7.306
 3795POPC   NC350459  34.243  25.188   5.136
 3795POPC   PO450460  34.921  25.141   5.355
 3795POPC   GL150461  34.836  25.169   5.803
 3795POPC   GL250462  34.612  25.464   5.888
 3795POPC   C1A50463  34.842  25.071   6.239
 3795POPC   D2A50464  34.729  25.328   6.602
 3795POPC   C3A50465  34.864  25.157   6.976
 3795POPC   C4A50466  34.645  25.084   7.361
 3795POPC   C1B50467  34.397  25.601   6.263
 3795POPC   C2B50468  34.252  25.524   6.692
 3795POPC   C3B50469  34.447  25.455   7.079
 3795POPC   C4B50470  34.331  25.462   7.517
 3796POPC   NC350471  39.501  42.670   5.533
 3796POPC   PO450472  39.218  43.296   5.503
 3796POPC   GL150473  38.989  43.166   5.841
 3796POPC   GL250474  39.131  42.835   5.823
 3796POPC   C1A50475  39.018  43.216   6.281
 3796POPC   D2A50476  38.859  43.204   6.672
 3796POPC   C3A50477  39.149  43.273   7.005
 3796POPC   C4A50478  39.137  43.403   7.394
 3796POPC   C1B50479  39.327  42.826   6.221
 3796POPC   C2B50480  39.370  42.986   6.647
 3796POPC   C3B50481  39.417  42.834   7.099
 3796POPC   C4B50482  39.199  42.909   7.490
 3797POPC   NC350483   4.460   2.305   5.429
 3797POPC   PO450484   4.242   2.929   5.369
 3797POPC   GL150485   4.242   2.698   5.778
 3797POPC   GL250486   4.571   2.556   5.870
 3797POPC   C1A50487   4.344   2.847   6.222
 3797POPC   D2A50488   4.661   2.970   6.539
 3797POPC   C3A50489   4.556   2.897   6.975
 3797POPC   C4A50490   4.166   3.004   7.147
 3797POPC   C1B50491   4.743   2.519   6.304
 3797POPC   C2B50492   4.425   2.496   6.648
 3797POPC   C3B50493   4.250   2.478   7.070
 3797POPC   C4B50494   4.465   2.594   7.469
 3798POPC   NC350495  31.571  37.974   5.378
 3798POPC   PO450496  31.727  37.207   5.466
 3798POPC   GL150497  31.551  37.604   5.723
 3798POPC   GL250498  31.701  37.995   5.839
 3798POPC   C1A50499  31.369  37.617   6.121
 3798POPC   D2A50500  31.252  37.456   6.509
 3798POPC   C3A50501  31.549  37.379   6.846
 3798POPC   C4A50502  31.386  37.473   7.265
 3798POPC   C1B50503  31.548  38.088   6.207
 3798POPC   C2B50504  31.656  37.844   6.547
 3798POPC   C3B50505  31.762  37.841   6.954
 3798POPC   C4B50506  31.585  37.953   7.326
 3799POPC   NC350507   2.050  21.739   5.287
 3799POPC   PO450508   1.630  21.307   5.500
 3799POPC   GL150509   1.962  21.430   5.783
 3799POPC   GL250510   1.871  21.695   6.029
 3799POPC   C1A50511   2.153  21.247   6.146
 3799POPC   D2A50512   1.951  21.366   6.534
 3799POPC   C3A50513   2.098  21.213   6.930
 3799POPC   C4A50514   1.862  21.202   7.327
 3799POPC   C1B50515   2.230  21.750   6.317
 3799POPC   C2B50516   2.239  21.768   6.772
 3799POPC   C3B50517   2.100  21.671   7.202
 3799POPC   C4B50518   2.202  21.666   7.671
 3800POPC   NC350519   6.389  23.514   5.431
 3800POPC   PO450520   7.028  23.436   5.630
 3800POPC   GL150521   6.829  23.660   5.962
 3800POPC   GL250522   6.524  23.711   5.919
 3800POPC   C1A50523   6.692  23.691   6.404
 3800POPC   D2A50524   6.605  23.981   6.743
 3800POPC   C3A50525   6.927  24.013   7.063
 3800POPC   C4A50526   6.885  24.067   7.487
 3800POPC   C1B50527   6.237  23.901   6.171
 3800POPC   C2B50528   6.102  23.890   6.575
 3800POPC   C3B50529   6.146  23.869   7.001
 3800POPC   C4B50530   6.519  23.715   7.184
 3801POPC   NC350531  35.296  38.812   5.461
 3801POPC   PO450532  34.943  38.185   5.486
 3801POPC   GL150533  35.184  38.423   5.830
 3801POPC   GL250534  35.430  38.693   5.935
 3801POPC   C1A50535  35.055  38.547   6.286
 3801POPC   D2A50536  35.139  38.443   6.728
 3801POPC   C3A50537  35.393  38.696   6.978
 3801POPC   C4A50538  35.648  38.578   7.291
 3801POPC   C1B50539  35.514  38.333   6.212
 3801POPC   C2B50540  35.692  38.056   6.524
 3801POPC   C3B50541  35.581  38.171   6.926
 3801POPC   C4B50542  35.836  38.100   7.244
 3802POPC   NC350543  22.486  37.369   5.481
 3802POPC   PO450544  21.957  37.660   5.182
 3802POPC   GL150545  22.030  37.681   5.653
 3802POPC   GL250546  21.926  37.354   5.741
 3802POPC   C1A50547  22.250  37.571   6.087
 3802POPC   D2A50548  22.360  37.345   6.504
 3802POPC   C3A50549  22.263  37.554   6.917
 3802POPC   C4A50550  22.440  37.470   7.320
 3802POPC   C1B50551  21.770  37.357   6.177
 3802POPC   C2B50552  21.916  37.615   6.515
 3802POPC   C3B50553  21.784  37.685   6.917
 3802POPC   C4B50554  21.782  37.456   7.278
 3803POPC   NC350555  20.447  30.970   5.351
 3803POPC   PO450556  20.944  30.505   5.441
 3803POPC   GL150557  20.765  30.788   5.714
 3803POPC   GL250558  20.585  30.506   5.849
 3803POPC   C1A50559  20.658  30.916   6.153
 3803POPC   D2A50560  20.748  30.656   6.531
 3803POPC   C3A50561  20.691  30.860   6.944
 3803POPC   C4A50562  20.893  31.091   7.284
 3803POPC   C1B50563  20.673  30.251   6.209
 3803POPC   C2B50564  20.547  30.147   6.621
 3803POPC   C3B50565  20.618  30.297   7.043
 3803POPC   C4B50566  20.365  30.619   7.266
 3804POPC   NC350567  17.151  10.892   5.649
 3804POPC   PO450568  17.484  10.384   5.328
 3804POPC   GL150569  17.490  10.284   5.770
 3804POPC   GL250570  17.853  10.230   5.805
 3804POPC   C1A50571  17.542  10.097   6.191
 3804POPC   D2A50572  17.523  10.373   6.552
 3804POPC   C3A50573  17.569  10.272   6.933
 3804POPC   C4A50574  17.198  10.317   7.169
 3804POPC   C1B50575  17.766  10.552   6.141
 3804POPC   C2B50576  17.967  10.596   6.603
 3804POPC   C3B50577  17.838  10.722   7.057
 3804POPC   C4B50578  17.856  10.637   7.525
 3805POPC   NC350579  12.552   5.062   5.460
 3805POPC   PO450580  13.148   4.916   5.361
 3805POPC   GL150581  13.088   5.071   5.783
 3805POPC   GL250582  12.863   4.825   5.798
 3805POPC   C1A50583  12.901   5.134   6.235
 3805POPC   D2A50584  13.110   5.049   6.647
 3805POPC   C3A50585  12.943   5.214   7.039
 3805POPC   C4A50586  12.761   5.198   7.442
 3805POPC   C1B50587  13.060   4.667   6.145
 3805POPC   C2B50588  12.883   4.579   6.553
 3805POPC   C3B50589  12.933   4.692   6.979
 3805POPC   C4B50590  12.637   4.709   7.302
 3806POPC   NC350591  26.429  12.399   5.573
 3806POPC   PO450592  25.905  12.053   5.229
 3806POPC   GL150593  25.945  12.100   5.691
 3806POPC   GL250594  25.919  12.428   5.854
 3806POPC   C1A50595  25.800  11.988   6.132
 3806POPC   D2A50596  26.055  11.866   6.512
 3806POPC   C3A50597  25.935  11.859   6.960
 3806POPC   C4A50598  25.832  11.917   7.418
 3806POPC   C1B50599  26.094  12.424   6.291
 3806POPC   C2B50600  26.027  12.328   6.750
 3806POPC   C3B50601  26.287  12.202   7.133
 3806POPC   C4B50602  26.571  12.481   7.414
 3807POPC   NC350603  34.479  32.503   5.482
 3807POPC   PO450604  35.036  32.151   5.293
 3807POPC   GL150605  34.843  32.246   5.726
 3807POPC   GL250606  34.935  32.084   5.981
 3807POPC   C1A50607  34.614  32.477   6.139
 3807POPC   D2A50608  34.653  32.589   6.618
 3807POPC   C3A50609  34.303  32.507   6.939
 3807POPC   C4A50610  34.322  32.542   7.412
 3807POPC   C1B50611  34.581  31.996   6.292
 3807POPC   C2B50612  34.580  32.087   6.757
 3807POPC   C3B50613  34.613  32.172   7.186
 3807POPC   C4B50614  34.914  32.054   7.483
 3808POPC   NC350615   8.594  40.772   5.360
 3808POPC   PO450616   9.219  40.572   5.419
 3808POPC   GL150617   8.969  40.913   5.680
 3808POPC   GL250618   9.199  41.073   5.940
 3808POPC   C1A50619   8.717  41.039   6.078
 3808POPC   D2A50620   8.924  41.124   6.492
 3808POPC   C3A50621   8.958  40.828   6.856
 3808POPC   C4A50622   8.965  40.828   7.322
 3808POPC   C1B50623   9.057  40.637   6.111
 3808POPC   C2B50624   9.248  40.328   6.398
 3808POPC   C3B50625   9.241  40.291   6.854
 3808POPC   C4B50626   9.313  40.435   7.272
 3809POPC   NC350627  30.636   8.726   5.443
 3809POPC   PO450628  30.574   8.091   5.422
 3809POPC   GL150629  30.510   8.361   5.789
 3809POPC   GL250630  30.844   8.517   5.858
 3809POPC   C1A50631  30.558   8.248   6.223
 3809POPC   D2A50632  30.443   8.358   6.625
 3809POPC   C3A50633  30.576   8.081   6.913
 3809POPC   C4A50634  30.569   8.135   7.319
 3809POPC   C1B50635  31.063   8.337   6.212
 3809POPC   C2B50636  30.972   8.398   6.638
 3809POPC   C3B50637  31.098   8.179   7.016
 3809POPC   C4B50638  31.127   7.806   7.274
 3810POPC   NC350639  16.697   2.294   5.433
 3810POPC   PO450640  16.534   1.611   5.445
 3810POPC   GL150641  16.702   1.709   5.850
 3810POPC   GL250642  16.645   2.001   5.873
 3810POPC   C1A50643  16.712   1.657   6.278
 3810POPC   D2A50644  16.935   1.804   6.614
 3810POPC   C3A50645  16.717   1.713   6.963
 3810POPC   C4A50646  16.656   1.871   7.375
 3810POPC   C1B50647  16.613   2.153   6.298
 3810POPC   C2B50648  16.803   2.340   6.650
 3810POPC   C3B50649  16.972   2.153   7.030
 3810POPC   C4B50650  17.027   2.232   7.460
 3811POPC   NC350651  44.559  36.709   5.099
 3811POPC   PO450652  44.455  36.125   5.457
 3811POPC   GL150653  44.710  36.116   5.819
 3811POPC   GL250654  44.777  35.785   5.799
 3811POPC   C1A50655  44.906  36.308   6.180
 3811POPC   D2A50656  44.650  36.337   6.562
 3811POPC   C3A50657  44.564  36.126   6.945
 3811POPC   C4A50658  44.330  35.761   7.020
 3811POPC   C1B50659  44.920  35.814   6.239
 3811POPC   C2B50660   0.105  36.079   6.590
 3811POPC   C3B50661   0.036  35.938   7.003
 3811POPC   C4B50662   0.226  35.904   7.381
 3812POPC   NC350663   8.855   4.050   5.320
 3812POPC   PO450664   8.841   4.726   5.440
 3812POPC   GL150665   9.047   4.487   5.808
 3812POPC   GL250666   9.027   4.110   5.803
 3812POPC   C1A50667   9.110   4.357   6.259
 3812POPC   D2A50668   8.887   4.424   6.644
 3812POPC   C3A50669   9.078   4.318   7.004
 3812POPC   C4A50670   8.933   4.543   7.326
 3812POPC   C1B50671   8.683   4.081   6.093
 3812POPC   C2B50672   8.579   4.063   6.543
 3812POPC   C3B50673   8.614   4.070   6.998
 3812POPC   C4B50674   8.879   3.819   7.270
 3813POPC   NC350675  12.817  18.128   5.221
 3813POPC   PO450676  13.257  18.618   5.383
 3813POPC   GL150677  12.933  18.501   5.715
 3813POPC   GL250678  12.990  18.151   5.729
 3813POPC   C1A50679  12.734  18.319   6.134
 3813POPC   D2A50680  12.723  18.468   6.562
 3813POPC   C3A50681  12.653  18.181   6.948
 3813POPC   C4A50682  12.779  18.350   7.364
 3813POPC   C1B50683  13.132  18.010   6.133
 3813POPC   C2B50684  12.933  18.000   6.529
 3813POPC   C3B50685  13.015  17.819   6.914
 3813POPC   C4B50686  13.151  18.000   7.297
 3814POPC   NC350687  19.143  37.540   5.458
 3814POPC   PO450688  19.242  38.181   5.666
 3814POPC   GL150689  19.150  37.809   5.909
 3814POPC   GL250690  18.796  37.745   5.913
 3814POPC   C1A50691  19.112  37.489   6.233
 3814POPC   D2A50692  18.844  37.487   6.605
 3814POPC   C3A50693  19.036  37.434   6.965
 3814POPC   C4A50694  19.220  37.404   7.367
 3814POPC   C1B50695  18.898  37.955   6.343
 3814POPC   C2B50696  18.966  38.024   6.810
 3814POPC   C3B50697  18.943  37.877   7.231
 3814POPC   C4B50698  18.723  37.510   7.363
 3815POPC   NC350699  15.683  42.779   5.417
 3815POPC   PO450700  15.953  43.295   5.130
 3815POPC   GL150701  15.967  43.183   5.624
 3815POPC   GL250702  15.848  43.481   5.765
 3815POPC   C1A50703  15.790  43.029   6.110
 3815POPC   D2A50704  15.752  42.832   6.560
 3815POPC   C3A50705  15.649  42.981   6.960
 3815POPC   C4A50706  15.843  42.965   7.348
 3815POPC   C1B50707  15.867  43.530   6.200
 3815POPC   C2B50708  15.808  43.352   6.582
 3815POPC   C3B50709  15.734  43.465   6.976
 3815POPC   C4B50710  16.007  43.449   7.300
 3816POPC   NC350711   6.248  15.686   5.553
 3816POPC   PO450712   6.745  16.056   5.539
 3816POPC   GL150713   6.470  16.056   5.863
 3816POPC   GL250714   6.138  16.172   5.796
 3816POPC   C1A50715   6.514  15.849   6.241
 3816POPC   D2A50716   6.766  15.635   6.531
 3816POPC   C3A50717   6.686  15.874   6.879
 3816POPC   C4A50718   6.513  15.803   7.265
 3816POPC   C1B50719   6.242  16.295   6.244
 3816POPC   C2B50720   6.259  16.073   6.653
 3816POPC   C3B50721   6.257  16.213   7.086
 3816POPC   C4B50722   6.383  16.222   7.519
 3817POPC   NC350723  43.514  31.121   5.504
 3817POPC   PO450724  42.860  31.479   5.430
 3817POPC   GL150725  42.965  31.479   5.903
 3817POPC   GL250726  43.334  31.376   5.961
 3817POPC   C1A50727  43.069  31.613   6.352
 3817POPC   D2A50728  43.336  31.448   6.695
 3817POPC   C3A50729  43.120  31.196   6.993
 3817POPC   C4A50730  42.847  31.414   7.287
 3817POPC   C1B50731  43.559  31.709   6.242
 3817POPC   C2B50732  43.455  31.950   6.643
 3817POPC   C3B50733  43.484  31.905   7.097
 3817POPC   C4B50734  43.342  31.527   7.301
 3818POPC   NC350735   6.696  30.128   5.276
 3818POPC   PO450736   6.661  29.517   5.465
 3818POPC   GL150737   6.802  29.850   5.764
 3818POPC   GL250738   6.592  30.115   5.782
 3818POPC   C1A50739   6.796  29.920   6.226
 3818POPC   D2A50740   6.736  29.569   6.560
 3818POPC   C3A50741   6.842  29.713   6.973
 3818POPC   C4A50742   6.923  30.119   7.153
 3818POPC   C1B50743   6.312  30.066   6.161
 3818POPC   C2B50744   6.375  29.929   6.569
 3818POPC   C3B50745   6.344  29.804   6.973
 3818POPC   C4B50746   6.358  30.055   7.364
 3819POPC   NC350747  22.644  17.029   5.399
 3819POPC   PO450748  23.109  16.489   5.294
 3819POPC   GL150749  23.178  16.507   5.743
 3819POPC   GL250750  22.946  16.768   5.785
 3819POPC   C1A50751  22.983  16.342   6.163
 3819POPC   D2A50752  22.740  16.426   6.589
 3819POPC   C3A50753  22.950  16.469   6.995
 3819POPC   C4A50754  22.904  16.627   7.422
 3819POPC   C1B50755  22.772  16.798   6.221
 3819POPC   C2B50756  22.998  16.907   6.616
 3819POPC   C3B50757  23.264  16.886   6.998
 3819POPC   C4B50758  23.281  16.982   7.442
 3820POPC   NC350759  11.173   1.360   5.159
 3820POPC   PO450760  11.683   1.481   5.652
 3820POPC   GL150761  11.356   1.229   5.895
 3820POPC   GL250762  10.988   1.180   5.793
 3820POPC   C1A50763  11.068   1.380   6.240
 3820POPC   D2A50764  11.081   1.238   6.622
 3820POPC   C3A50765  11.219   1.439   6.972
 3820POPC   C4A50766  11.456   1.249   7.274
 3820POPC   C1B50767  10.745   0.956   6.149
 3820POPC   C2B50768  10.797   0.830   6.615
 3820POPC   C3B50769  10.712   1.104   6.961
 3820POPC   C4B50770  10.920   1.184   7.319
 3821POPC   NC350771   4.954  22.865   5.509
 3821POPC   PO450772   5.458  22.461   5.646
 3821POPC   GL150773   5.203  22.715   5.946
 3821POPC   GL250774   5.133  23.082   5.916
 3821POPC   C1A50775   5.116  22.867   6.371
 3821POPC   D2A50776   4.896  22.779   6.742
 3821POPC   C3A50777   5.228  22.830   7.011
 3821POPC   C4A50778   5.405  22.900   7.395
 3821POPC   C1B50779   4.904  23.319   6.225
 3821POPC   C2B50780   4.802  23.276   6.636
 3821POPC   C3B50781   4.935  23.244   7.066
 3821POPC   C4B50782   4.958  23.211   7.543
 3822POPC   NC350783   8.262  24.754   5.441
 3822POPC   PO450784   7.763  24.327   5.287
 3822POPC   GL150785   7.998  24.316   5.665
 3822POPC   GL250786   7.859  24.642   5.747
 3822POPC   C1A50787   8.175  24.388   6.085
 3822POPC   D2A50788   8.204  24.689   6.422
 3822POPC   C3A50789   8.246  24.539   6.845
 3822POPC   C4A50790   8.389  24.243   7.154
 3822POPC   C1B50791   7.676  24.484   6.141
 3822POPC   C2B50792   7.655  24.332   6.566
 3822POPC   C3B50793   7.844  24.251   6.985
 3822POPC   C4B50794   7.997  24.501   7.320
 3823POPC   NC350795  13.649  41.881   5.331
 3823POPC   PO450796  13.217  41.280   5.347
 3823POPC   GL150797  13.474  41.514   5.674
 3823POPC   GL250798  13.381  41.831   5.748
 3823POPC   C1A50799  13.756  41.624   6.054
 3823POPC   D2A50800  13.864  41.378   6.444
 3823POPC   C3A50801  13.831  41.559   6.848
 3823POPC   C4A50802  13.820  41.565   7.274
 3823POPC   C1B50803  13.402  42.008   6.157
 3823POPC   C2B50804  13.505  41.807   6.529
 3823POPC   C3B50805  13.376  41.801   6.964
 3823POPC   C4B50806  13.226  42.080   7.274
 3824POPC   NC350807   1.612  21.781   5.594
 3824POPC   PO450808   2.087  22.211   5.249
 3824POPC   GL150809   1.955  22.132   5.733
 3824POPC   GL250810   1.697  22.222   5.905
 3824POPC   C1A50811   2.104  22.221   6.195
 3824POPC   D2A50812   1.988  22.327   6.631
 3824POPC   C3A50813   2.106  22.185   7.032
 3824POPC   C4A50814   1.945  22.075   7.473
 3824POPC   C1B50815   1.649  22.454   6.281
 3824POPC   C2B50816   1.514  22.515   6.675
 3824POPC   C3B50817   1.793  22.669   6.965
 3824POPC   C4B50818   1.636  22.427   7.259
 3825POPC   NC350819  19.247   9.180   5.412
 3825POPC   PO450820  18.946   8.611   5.595
 3825POPC   GL150821  19.148   8.915   5.827
 3825POPC   GL250822  18.931   9.213   5.812
 3825POPC   C1A50823  19.178   8.926   6.248
 3825POPC   D2A50824  19.066   8.749   6.628
 3825POPC   C3A50825  19.216   8.868   7.021
 3825POPC   C4A50826  19.062   8.795   7.409
 3825POPC   C1B50827  18.653   9.003   6.049
 3825POPC   C2B50828  18.686   9.083   6.452
 3825POPC   C3B50829  18.752   9.078   6.862
 3825POPC   C4B50830  18.895   9.282   7.216
 3826POPC   NC350831   6.118  14.051   5.465
 3826POPC   PO450832   5.651  14.447   5.650
 3826POPC   GL150833   5.938  14.397   5.928
 3826POPC   GL250834   6.257  14.400   5.848
 3826POPC   C1A50835   6.067  14.301   6.324
 3826POPC   D2A50836   5.927  14.118   6.690
 3826POPC   C3A50837   5.907  14.312   7.065
 3826POPC   C4A50838   5.723  14.235   7.460
 3826POPC   C1B50839   6.315  14.754   6.183
 3826POPC   C2B50840   6.281  14.667   6.630
 3826POPC   C3B50841   6.024  14.785   6.973
 3826POPC   C4B50842   6.001  14.668   7.465
 3827POPC   NC350843   1.434  32.350   5.274
 3827POPC   PO450844   0.925  31.990   5.455
 3827POPC   GL150845   1.299  32.038   5.667
 3827POPC   GL250846   1.296  32.384   5.758
 3827POPC   C1A50847   1.302  32.014   6.106
 3827POPC   D2A50848   1.299  32.247   6.465
 3827POPC   C3A50849   1.225  32.035   6.868
 3827POPC   C4A50850   1.154  32.267   7.239
 3827POPC   C1B50851   1.034  32.523   6.062
 3827POPC   C2B50852   0.814  32.547   6.432
 3827POPC   C3B50853   1.048  32.545   6.793
 3827POPC   C4B50854   0.897  32.684   7.141
 3828POPC   NC350855   6.064  17.758   5.333
 3828POPC   PO450856   5.792  17.071   5.439
 3828POPC   GL150857   5.824  17.456   5.704
 3828POPC   GL250858   6.148  17.597   5.806
 3828POPC   C1A50859   5.638  17.502   6.108
 3828POPC   D2A50860   5.723  17.375   6.542
 3828POPC   C3A50861   5.767  17.016   6.811
 3828POPC   C4A50862   5.725  17.225   7.195
 3828POPC   C1B50863   6.081  17.720   6.238
 3828POPC   C2B50864   6.152  17.614   6.654
 3828POPC   C3B50865   5.973  17.668   7.050
 3828POPC   C4B50866   6.164  17.853   7.413
 3829POPC   NC350867  36.610  12.084   5.203
 3829POPC   PO450868  37.161  11.690   5.301
 3829POPC   GL150869  37.095  11.907   5.749
 3829POPC   GL250870  36.851  11.982   6.025
 3829POPC   C1A50871  37.314  12.025   6.162
 3829POPC   D2A50872  37.379  12.253   6.537
 3829POPC   C3A50873  37.259  12.148   6.953
 3829POPC   C4A50874  37.109  12.300   7.345
 3829POPC   C1B50875  36.866  12.280   6.342
 3829POPC   C2B50876  36.788  12.123   6.728
 3829POPC   C3B50877  36.688  12.120   7.131
 3829POPC   C4B50878  36.638  11.791   7.371
 3830POPC   NC350879  21.191  34.548   5.405
 3830POPC   PO450880  21.881  34.356   5.389
 3830POPC   GL150881  21.597  34.425   5.730
 3830POPC   GL250882  21.579  34.794   5.793
 3830POPC   C1A50883  21.273  34.426   6.076
 3830POPC   D2A50884  21.063  34.396   6.504
 3830POPC   C3A50885  21.159  34.354   6.948
 3830POPC   C4A50886  21.581  34.343   7.206
 3830POPC   C1B50887  21.379  34.916   6.214
 3830POPC   C2B50888  21.219  34.898   6.624
 3830POPC   C3B50889  21.445  34.761   6.953
 3830POPC   C4B50890  21.533  34.826   7.366
 3831POPC   NC350891  11.742  39.121   5.351
 3831POPC   PO450892  11.828  39.783   5.125
 3831POPC   GL150893  11.852  39.676   5.621
 3831POPC   GL250894  12.028  39.861   5.910
 3831POPC   C1A50895  11.792  39.440   6.072
 3831POPC   D2A50896  11.702  39.436   6.574
 3831POPC   C3A50897  11.845  39.246   6.980
 3831POPC   C4A50898  11.911  39.499   7.347
 3831POPC   C1B50899  12.059  39.805   6.387
 3831POPC   C2B50900  12.069  39.693   6.850
 3831POPC   C3B50901  12.355  39.454   7.136
 3831POPC   C4B50902  12.414  39.497   7.591
 3832POPC   NC350903   7.807  39.208   5.591
 3832POPC   PO450904   7.137  39.270   5.412
 3832POPC   GL150905   7.345  39.321   5.807
 3832POPC   GL250906   7.582  39.613   5.813
 3832POPC   C1A50907   7.222  39.219   6.224
 3832POPC   D2A50908   7.031  39.343   6.630
 3832POPC   C3A50909   7.135  39.264   7.081
 3832POPC   C4A50910   7.291  39.274   7.526
 3832POPC   C1B50911   7.462  39.663   6.267
 3832POPC   C2B50912   7.478  39.580   6.736
 3832POPC   C3B50913   7.455  39.652   7.209
 3832POPC   C4B50914   7.304  39.792   7.638
 3833POPC   NC350915   4.117  37.076   5.387
 3833POPC   PO450916   4.196  37.855   5.339
 3833POPC   GL150917   4.150  37.611   5.749
 3833POPC   GL250918   4.430  37.379   5.855
 3833POPC   C1A50919   4.086  37.672   6.222
 3833POPC   D2A50920   4.384  37.858   6.547
 3833POPC   C3A50921   4.537  37.858   6.985
 3833POPC   C4A50922   4.306  37.857   7.411
 3833POPC   C1B50923   4.516  37.407   6.300
 3833POPC   C2B50924   4.229  37.360   6.659
 3833POPC   C3B50925   4.289  37.437   7.089
 3833POPC   C4B50926   4.733  37.369   7.222
 3834POPC   NC350927   2.572  44.143   5.373
 3834POPC   PO450928   2.447  43.612   5.795
 3834POPC   GL150929   2.823  43.839   5.845
 3834POPC   GL250930   2.889  44.178   5.797
 3834POPC   C1A50931   2.913  43.911   6.256
 3834POPC   D2A50932   2.578  43.857   6.510
 3834POPC   C3A50933   2.631  43.671   6.890
 3834POPC   C4A50934   2.447  43.627   7.273
 3834POPC   C1B50935   3.208  44.299   6.106
 3834POPC   C2B50936   3.193  44.236   6.571
 3834POPC   C3B50937   2.833  44.176   6.851
 3834POPC   C4B50938   2.794  44.001   7.255
 3835POPC   NC350939  42.657  39.059   5.479
 3835POPC   PO450940  42.057  39.331   5.362
 3835POPC   GL150941  42.264  39.310   5.746
 3835POPC   GL250942  42.236  38.948   5.767
 3835POPC   C1A50943  42.352  39.200   6.189
 3835POPC   D2A50944  42.327  39.381   6.578
 3835POPC   C3A50945  42.427  39.207   6.940
 3835POPC   C4A50946  42.302  39.358   7.313
 3835POPC   C1B50947  42.075  38.761   6.137
 3835POPC   C2B50948  42.102  38.906   6.567
 3835POPC   C3B50949  42.172  38.776   6.976
 3835POPC   C4B50950  42.091  38.929   7.391
 3836POPC   NC350951  12.025   4.796   5.214
 3836POPC   PO450952  12.264   5.383   5.339
 3836POPC   GL150953  12.067   5.072   5.689
 3836POPC   GL250954  12.147   4.721   5.730
 3836POPC   C1A50955  11.987   4.926   6.180
 3836POPC   D2A50956  12.011   5.039   6.660
 3836POPC   C3A50957  12.023   4.855   7.094
 3836POPC   C4A50958  11.775   4.977   7.472
 3836POPC   C1B50959  12.442   4.725   6.057
 3836POPC   C2B50960  12.410   4.751   6.490
 3836POPC   C3B50961  12.501   4.944   6.868
 3836POPC   C4B50962  12.359   5.266   7.132
 3837POPC   NC350963   0.569  40.130   5.307
 3837POPC   PO450964   0.155  39.671   5.583
 3837POPC   GL150965   0.492  39.869   5.764
 3837POPC   GL250966   0.321  40.210   5.787
 3837POPC   C1A50967   0.722  39.909   6.150
 3837POPC   D2A50968   0.525  39.834   6.544
 3837POPC   C3A50969   0.714  39.834   6.934
 3837POPC   C4A50970   0.370  39.714   7.204
 3837POPC   C1B50971   0.401  40.318   6.242
 3837POPC   C2B50972   0.622  40.335   6.663
 3837POPC   C3B50973   0.490  40.250   7.116
 3837POPC   C4B50974   0.686  40.223   7.502
 3838POPC   NC350975  31.859  12.171   5.298
 3838POPC   PO450976  32.491  12.091   5.288
 3838POPC   GL150977  32.308  12.014   5.719
 3838POPC   GL250978  32.219  11.710   5.667
 3838POPC   C1A50979  32.189  12.188   6.159
 3838POPC   D2A50980  32.432  12.412   6.503
 3838POPC   C3A50981  32.363  12.274   6.912
 3838POPC   C4A50982  31.926  12.217   7.038
 3838POPC   C1B50983  32.321  11.691   6.132
 3838POPC   C2B50984  32.318  11.895   6.560
 3838POPC   C3B50985  32.181  11.783   6.988
 3838POPC   C4B50986  32.372  11.688   7.405
 3839POPC   NC350987  42.136  31.748   5.479
 3839POPC   PO450988  42.622  32.244   5.474
 3839POPC   GL150989  42.461  32.315   5.869
 3839POPC   GL250990  42.221  32.038   5.889
 3839POPC   C1A50991  42.570  32.448   6.276
 3839POPC   D2A50992  42.644  32.574   6.689
 3839POPC   C3A50993  42.642  32.218   6.957
 3839POPC   C4A50994  42.307  32.235   7.217
 3839POPC   C1B50995  42.143  32.086   6.314
 3839POPC   C2B50996  42.162  32.262   6.723
 3839POPC   C3B50997  41.825  32.262   7.075
 3839POPC   C4B50998  41.938  32.317   7.550
 3840POPC   NC350999  14.451  44.194   5.209
 3840POPC   PO451000  14.555  43.639   5.659
 3840POPC   GL151001  14.525  43.928   6.021
 3840POPC   GL251002  14.280  44.113   5.801
 3840POPC   C1A51003  14.643  43.911   6.475
 3840POPC   D2A51004  14.905  43.664   6.780
 3840POPC   C3A51005  14.650  43.730   7.155
 3840POPC   C4A51006  14.375  44.087   7.158
 3840POPC   C1B51007  14.033  43.833   6.061
 3840POPC   C2B51008  14.151  43.709   6.443
 3840POPC   C3B51009  14.019  43.792   6.853
 3840POPC   C4B51010  14.115  43.670   7.254
 3841POPC   NC351011  31.584  25.277   5.323
 3841POPC   PO451012  30.947  25.623   5.444
 3841POPC   GL151013  31.257  25.454   5.704
 3841POPC   GL251014  31.181  25.673   5.976
 3841POPC   C1A51015  31.387  25.138   6.026
 3841POPC   D2A51016  31.598  24.898   6.353
 3841POPC   C3A51017  31.631  24.979   6.814
 3841POPC   C4A51018  31.579  24.900   7.252
 3841POPC   C1B51019  31.640  25.572   6.047
 3841POPC   C2B51020  31.692  25.395   6.445
 3841POPC   C3B51021  31.676  25.494   6.869
 3841POPC   C4B51022  31.427  25.511   7.261
 3842POPC   NC351023   2.240  31.988   5.499
 3842POPC   PO451024   1.869  32.523   5.337
 3842POPC   GL151025   1.793  32.289   5.678
 3842POPC   GL251026   2.100  32.375   5.803
 3842POPC   C1A51027   1.673  32.412   6.116
 3842POPC   D2A51028   1.804  32.330   6.543
 3842POPC   C3A51029   1.555  32.402   6.915
 3842POPC   C4A51030   1.791  32.314   7.274
 3842POPC   C1B51031   2.211  32.243   6.208
 3842POPC   C2B51032   2.341  32.170   6.624
 3842POPC   C3B51033   2.270  32.314   7.034
 3842POPC   C4B51034   2.261  32.277   7.476
 3843POPC   NC351035  22.774  16.262   5.552
 3843POPC   PO451036  22.292  15.915   5.331
 3843POPC   GL151037  22.113  15.993   5.763
 3843POPC   GL251038  22.416  16.057   5.851
 3843POPC   C1A51039  22.126  16.009   6.268
 3843POPC   D2A51040  22.404  15.996   6.664
 3843POPC   C3A51041  22.204  15.908   7.077
 3843POPC   C4A51042  22.027  16.136   7.439
 3843POPC   C1B51043  22.461  16.378   6.158
 3843POPC   C2B51044  22.238  16.468   6.531
 3843POPC   C3B51045  22.233  16.420   6.950
 3843POPC   C4B51046  22.521  16.285   7.249
 3844POPC   NC351047  31.372   3.149   5.651
 3844POPC   PO451048  31.817   3.450   5.263
 3844POPC   GL151049  31.684   3.597   5.704
 3844POPC   GL251050  31.342   3.631   5.798
 3844POPC   C1A51051  31.693   3.428   6.155
 3844POPC   D2A51052  31.498   3.251   6.532
 3844POPC   C3A51053  31.714   3.367   6.906
 3844POPC   C4A51054  31.702   3.704   7.222
 3844POPC   C1B51055  31.162   3.611   6.223
 3844POPC   C2B51056  30.941   3.309   6.469
 3844POPC   C3B51057  31.098   3.142   6.843
 3844POPC   C4B51058  31.250   3.436   7.122
 3845POPC   NC351059  24.802  35.003   5.437
 3845POPC   PO451060  24.024  34.944   5.482
 3845POPC   GL151061  24.303  35.067   5.791
 3845POPC   GL251062  24.464  35.374   5.701
 3845POPC   C1A51063  24.339  35.245   6.206
 3845POPC   D2A51064  24.492  35.270   6.613
 3845POPC   C3A51065  24.220  35.343   6.933
 3845POPC   C4A51066  24.171  35.127   7.322
 3845POPC   C1B51067  24.687  35.572   6.073
 3845POPC   C2B51068  24.568  35.751   6.491
 3845POPC   C3B51069  24.644  35.625   6.945
 3845POPC   C4B51070  24.427  35.560   7.359
 3846POPC   NC351071   9.668  40.657   5.336
 3846POPC   PO451072   9.664  41.238   5.469
 3846POPC   GL151073   9.704  40.902   5.818
 3846POPC   GL251074   9.958  40.603   5.757
 3846POPC   C1A51075   9.513  40.828   6.243
 3846POPC   D2A51076   9.448  41.076   6.609
 3846POPC   C3A51077   9.468  40.809   6.923
 3846POPC   C4A51078   9.624  40.830   7.283
 3846POPC   C1B51079   9.898  40.512   6.196
 3846POPC   C2B51080   9.699  40.478   6.608
 3846POPC   C3B51081   9.802  40.419   7.042
 3846POPC   C4B51082  10.124  40.571   7.331
 3847POPC   NC351083  20.313   9.864   5.410
 3847POPC   PO451084  19.684   9.451   5.351
 3847POPC   GL151085  19.852   9.550   5.786
 3847POPC   GL251086  20.092   9.371   5.923
 3847POPC   C1A51087  19.847   9.825   6.208
 3847POPC   D2A51088  19.588  10.033   6.551
 3847POPC   C3A51089  19.771   9.996   6.975
 3847POPC   C4A51090  20.154   9.910   7.220
 3847POPC   C1B51091  19.699   9.337   6.223
 3847POPC   C2B51092  19.671   9.481   6.663
 3847POPC   C3B51093  19.895   9.491   7.068
 3847POPC   C4B51094  19.750   9.537   7.472
 3848POPC   NC351095  25.939  27.642   5.447
 3848POPC   PO451096  26.182  27.214   5.737
 3848POPC   GL151097  26.063  27.611   5.933
 3848POPC   GL251098  25.712  27.689   5.935
 3848POPC   C1A51099  26.059  27.841   6.294
 3848POPC   D2A51100  25.798  27.720   6.611
 3848POPC   C3A51101  25.877  27.795   7.043
 3848POPC   C4A51102  26.088  27.895   7.440
 3848POPC   C1B51103  25.630  27.367   6.292
 3848POPC   C2B51104  25.729  27.244   6.766
 3848POPC   C3B51105  25.751  27.314   7.234
 3848POPC   C4B51106  25.567  27.302   7.679
 3849POPC   NC351107  27.926  19.174   5.314
 3849POPC   PO451108  27.348  18.819   5.179
 3849POPC   GL151109  27.479  19.041   5.560
 3849POPC   GL251110  27.416  19.367   5.637
 3849POPC   C1A51111  27.686  19.018   5.971
 3849POPC   D2A51112  27.726  18.740   6.343
 3849POPC   C3A51113  27.618  18.943   6.737
 3849POPC   C4A51114  27.905  18.986   7.058
 3849POPC   C1B51115  27.345  19.393   6.100
 3849POPC   C2B51116  27.387  19.455   6.585
 3849POPC   C3B51117  27.196  19.386   7.029
 3849POPC   C4B51118  27.456  19.066   7.254
 3850POPC   NC351119   6.772   2.584   5.082
 3850POPC   PO451120   6.375   3.040   5.460
 3850POPC   GL151121   6.437   2.754   5.810
 3850POPC   GL251122   6.733   2.609   5.678
 3850POPC   C1A51123   6.348   2.586   6.246
 3850POPC   D2A51124   6.417   2.876   6.575
 3850POPC   C3A51125   6.474   2.842   7.011
 3850POPC   C4A51126   6.436   2.455   7.237
 3850POPC   C1B51127   6.829   2.692   6.125
 3850POPC   C2B51128   6.784   2.427   6.505
 3850POPC   C3B51129   6.866   2.442   6.950
 3850POPC   C4B51130   6.868   2.723   7.303
 3851POPC   NC351131   2.753  21.675   5.436
 3851POPC   PO451132   2.143  21.236   5.348
 3851POPC   GL151133   2.481  21.303   5.709
 3851POPC   GL251134   2.842  21.167   5.763
 3851POPC   C1A51135   2.620  21.480   6.127
 3851POPC   D2A51136   2.467  21.358   6.562
 3851POPC   C3A51137   2.574  21.457   7.011
 3851POPC   C4A51138   2.360  21.264   7.393
 3851POPC   C1B51139   3.067  21.233   6.185
 3851POPC   C2B51140   2.986  21.478   6.557
 3851POPC   C3B51141   3.071  21.292   6.953
 3851POPC   C4B51142   3.079  21.436   7.369
 3852POPC   NC351143  26.110  14.070   5.307
 3852POPC   PO451144  26.072  14.736   5.410
 3852POPC   GL151145  26.161  14.521   5.773
 3852POPC   GL251146  26.091  14.189   5.806
 3852POPC   C1A51147  26.047  14.588   6.172
 3852POPC   D2A51148  26.019  14.279   6.534
 3852POPC   C3A51149  26.026  14.506   6.938
 3852POPC   C4A51150  25.939  14.703   7.336
 3852POPC   C1B51151  26.368  14.156   6.171
 3852POPC   C2B51152  26.467  14.029   6.621
 3852POPC   C3B51153  26.406  14.014   7.058
 3852POPC   C4B51154  26.060  14.125   7.293
 3853POPC   NC351155   5.408  27.024   5.459
 3853POPC   PO451156   4.907  26.615   5.421
 3853POPC   GL151157   5.114  26.693   5.802
 3853POPC   GL251158   5.490  26.664   5.848
 3853POPC   C1A51159   4.861  26.598   6.184
 3853POPC   D2A51160   4.939  26.484   6.592
 3853POPC   C3A51161   5.159  26.769   6.802
 3853POPC   C4A51162   5.159  26.801   7.225
 3853POPC   C1B51163   5.293  26.879   6.241
 3853POPC   C2B51164   5.140  27.235   6.521
 3853POPC   C3B51165   5.026  27.250   6.958
 3853POPC   C4B51166   5.449  27.186   7.106
 3854POPC   NC351167  15.576  25.434   5.341
 3854POPC   PO451168  15.033  25.088   5.301
 3854POPC   GL151169  15.059  25.226   5.765
 3854POPC   GL251170  14.780  25.039   5.904
 3854POPC   C1A51171  15.300  25.224   6.201
 3854POPC   D2A51172  15.545  25.432   6.565
 3854POPC   C3A51173  15.463  25.245   6.940
 3854POPC   C4A51174  15.335  25.453   7.317
 3854POPC   C1B51175  14.963  24.798   6.247
 3854POPC   C2B51176  15.114  24.958   6.654
 3854POPC   C3B51177  14.965  25.188   7.024
 3854POPC   C4B51178  15.045  25.068   7.458
 3855POPC   NC351179  27.076  22.257   5.437
 3855POPC   PO451180  26.441  22.045   5.359
 3855POPC   GL151181  26.627  21.906   5.790
 3855POPC   GL251182  26.971  21.864   5.782
 3855POPC   C1A51183  26.708  21.949   6.247
 3855POPC   D2A51184  27.051  21.964   6.570
 3855POPC   C3A51185  26.906  21.936   6.999
 3855POPC   C4A51186  26.734  21.909   7.402
 3855POPC   C1B51187  27.112  22.190   6.073
 3855POPC   C2B51188  26.926  22.431   6.404
 3855POPC   C3B51189  26.949  22.448   6.850
 3855POPC   C4B51190  26.973  22.380   7.288
 3856POPC   NC351191  31.446  17.036   5.388
 3856POPC   PO451192  31.321  16.389   5.317
 3856POPC   GL151193  31.348  16.662   5.737
 3856POPC   GL251194  31.103  16.962   5.784
 3856POPC   C1A51195  31.603  16.669   6.135
 3856POPC   D2A51196  31.583  16.780   6.574
 3856POPC   C3A51197  31.588  16.584   6.967
 3856POPC   C4A51198  31.887  16.710   7.268
 3856POPC   C1B51199  31.106  16.760   6.191
 3856POPC   C2B51200  31.108  16.644   6.592
 3856POPC   C3B51201  31.108  16.850   6.949
 3856POPC   C4B51202  31.180  16.790   7.355
 3857POPC   NC351203  40.187   4.717   5.312
 3857POPC   PO451204  40.135   5.413   5.345
 3857POPC   GL151205  40.243   5.113   5.700
 3857POPC   GL251206  39.945   4.915   5.761
 3857POPC   C1A51207  40.256   4.932   6.163
 3857POPC   D2A51208  40.049   4.902   6.582
 3857POPC   C3A51209  40.204   4.963   7.003
 3857POPC   C4A51210  40.163   4.927   7.457
 3857POPC   C1B51211  39.730   4.835   6.179
 3857POPC   C2B51212  39.569   5.040   6.584
 3857POPC   C3B51213  39.695   5.099   7.017
 3857POPC   C4B51214  39.674   4.788   7.318
 3858POPC   NC351215   5.503  13.343   5.532
 3858POPC   PO451216   4.854  13.663   5.402
 3858POPC   GL151217   4.926  13.765   5.808
 3858POPC   GL251218   4.634  13.521   5.830
 3858POPC   C1A51219   5.236  13.708   6.188
 3858POPC   D2A51220   5.176  13.465   6.589
 3858POPC   C3A51221   5.264  13.664   7.001
 3858POPC   C4A51222   5.273  13.925   7.354
 3858POPC   C1B51223   4.754  13.539   6.231
 3858POPC   C2B51224   4.700  13.722   6.591
 3858POPC   C3B51225   4.785  13.488   6.930
 3858POPC   C4B51226   4.818  13.673   7.284
 3859POPC   NC351227   0.831  29.050   5.493
 3859POPC   PO451228   0.317  28.640   5.353
 3859POPC   GL151229   0.363  28.891   5.742
 3859POPC   GL251230   0.678  28.749   5.870
 3859POPC   C1A51231   0.267  29.288   6.009
 3859POPC   D2A51232   0.167  29.285   6.460
 3859POPC   C3A51233   0.286  29.487   6.872
 3859POPC   C4A51234   0.635  29.423   7.186
 3859POPC   C1B51235   0.614  28.974   6.235
 3859POPC   C2B51236   0.444  28.875   6.624
 3859POPC   C3B51237   0.594  28.880   7.051
 3859POPC   C4B51238   0.642  28.567   7.396
 3860POPC   NC351239  29.197  18.494   5.180
 3860POPC   PO451240  29.300  19.157   5.313
 3860POPC   GL151241  29.132  18.890   5.643
 3860POPC   GL251242  29.251  19.154   5.844
 3860POPC   C1A51243  28.867  18.906   6.050
 3860POPC   D2A51244  28.973  18.952   6.489
 3860POPC   C3A51245  28.792  18.785   6.847
 3860POPC   C4A51246  28.845  18.958   7.248
 3860POPC   C1B51247  29.359  18.818   6.165
 3860POPC   C2B51248  29.459  18.841   6.624
 3860POPC   C3B51249  29.289  18.943   7.012
 3860POPC   C4B51250  29.331  18.818   7.437
 3861POPC   NC351251  18.626  23.080   5.427
 3861POPC   PO451252  18.278  23.686   5.326
 3861POPC   GL151253  18.417  23.742   5.746
 3861POPC   GL251254  18.361  24.079   5.736
 3861POPC   C1A51255  18.424  23.644   6.185
 3861POPC   D2A51256  18.203  23.434   6.513
 3861POPC   C3A51257  18.274  23.678   6.892
 3861POPC   C4A51258  18.249  23.601   7.320
 3861POPC   C1B51259  18.568  24.133   6.115
 3861POPC   C2B51260  18.416  24.043   6.535
 3861POPC   C3B51261  18.628  24.040   6.940
 3861POPC   C4B51262  18.548  24.005   7.371
 3862POPC   NC351263  41.368  34.079   5.527
 3862POPC   PO451264  41.817  33.647   5.385
 3862POPC   GL151265  41.755  33.681   5.843
 3862POPC   GL251266  41.947  33.384   5.900
 3862POPC   C1A51267  41.497  33.854   6.213
 3862POPC   D2A51268  41.358  34.167   6.545
 3862POPC   C3A51269  41.382  34.008   6.985
 3862POPC   C4A51270  41.495  33.588   7.139
 3862POPC   C1B51271  41.922  33.508   6.315
 3862POPC   C2B51272  41.674  33.598   6.634
 3862POPC   C3B51273  41.936  33.683   6.937
 3862POPC   C4B51274  41.988  33.458   7.284
 3863POPC   NC351275  19.802  27.746   5.448
 3863POPC   PO451276  20.102  27.166   5.613
 3863POPC   GL151277  19.916  27.484   5.886
 3863POPC   GL251278  19.612  27.738   5.911
 3863POPC   C1A51279  20.085  27.662   6.256
 3863POPC   D2A51280  20.051  27.862   6.645
 3863POPC   C3A51281  19.943  27.620   6.957
 3863POPC   C4A51282  19.838  27.750   7.373
 3863POPC   C1B51283  19.496  27.392   6.155
 3863POPC   C2B51284  19.714  27.342   6.530
 3863POPC   C3B51285  19.537  27.304   6.932
 3863POPC   C4B51286  19.508  27.388   7.363
 3864POPC   NC351287  40.401   0.890   5.460
 3864POPC   PO451288  40.921   1.362   5.461
 3864POPC   GL151289  40.769   1.114   5.825
 3864POPC   GL251290  40.401   1.108   5.905
 3864POPC   C1A51291  40.935   1.092   6.254
 3864POPC   D2A51292  40.978   0.874   6.658
 3864POPC   C3A51293  40.935   1.215   6.964
 3864POPC   C4A51294  40.848   1.472   7.324
 3864POPC   C1B51295  40.451   0.912   6.275
 3864POPC   C2B51296  40.535   1.122   6.656
 3864POPC   C3B51297  40.402   1.263   7.076
 3864POPC   C4B51298  40.300   1.246   7.494
 3865POPC   NC351299  35.971  35.685   5.404
 3865POPC   PO451300  36.257  35.105   5.413
 3865POPC   GL151301  36.165  35.045   5.804
 3865POPC   GL251302  36.079  35.403   5.853
 3865POPC   C1A51303  35.920  34.975   6.176
 3865POPC   D2A51304  35.854  35.285   6.479
 3865POPC   C3A51305  35.794  35.192   6.889
 3865POPC   C4A51306  35.855  35.047   7.305
 3865POPC   C1B51307  36.321  35.278   6.228
 3865POPC   C2B51308  36.312  35.400   6.665
 3865POPC   C3B51309  36.264  35.282   7.070
 3865POPC   C4B51310  36.225  35.319   7.503
 3866POPC   NC351311   9.846  39.566   5.486
 3866POPC   PO451312   9.769  40.221   5.402
 3866POPC   GL151313   9.743  39.990   5.786
 3866POPC   GL251314  10.053  39.805   5.872
 3866POPC   C1A51315   9.675  40.043   6.221
 3866POPC   D2A51316   9.492  39.899   6.602
 3866POPC   C3A51317   9.597  39.957   7.053
 3866POPC   C4A51318   9.571  39.802   7.496
 3866POPC   C1B51319  10.039  39.658   6.307
 3866POPC   C2B51320  10.241  39.663   6.758
 3866POPC   C3B51321   9.989  39.645   7.156
 3866POPC   C4B51322  10.069  39.629   7.635
 3867POPC   NC351323  22.190  11.764   5.390
 3867POPC   PO451324  21.874  12.349   5.477
 3867POPC   GL151325  22.065  12.193   5.858
 3867POPC   GL251326  22.142  11.842   5.883
 3867POPC   C1A51327  22.245  12.408   6.233
 3867POPC   D2A51328  22.466  12.396   6.635
 3867POPC   C3A51329  22.208  12.315   6.985
 3867POPC   C4A51330  22.182  12.113   7.356
 3867POPC   C1B51331  22.136  11.927   6.312
 3867POPC   C2B51332  22.205  11.679   6.626
 3867POPC   C3B51333  21.998  11.822   6.948
 3867POPC   C4B51334  21.821  11.733   7.316
 3868POPC   NC351335  13.130  19.060   5.407
 3868POPC   PO451336  12.468  19.227   5.297
 3868POPC   GL151337  12.703  19.008   5.719
 3868POPC   GL251338  13.053  19.089   5.898
 3868POPC   C1A51339  12.738  18.826   6.173
 3868POPC   D2A51340  12.970  18.914   6.585
 3868POPC   C3A51341  12.813  19.116   6.965
 3868POPC   C4A51342  12.942  18.850   7.332
 3868POPC   C1B51343  12.905  19.316   6.269
 3868POPC   C2B51344  13.027  19.562   6.617
 3868POPC   C3B51345  13.228  19.423   6.984
 3868POPC   C4B51346  13.086  19.321   7.411
 3869POPC   NC351347  37.192  12.754   5.228
 3869POPC   PO451348  37.717  13.150   5.362
 3869POPC   GL151349  37.726  13.108   5.806
 3869POPC   GL251350  37.918  13.368   6.005
 3869POPC   C1A51351  37.476  12.807   6.051
 3869POPC   D2A51352  37.245  12.722   6.428
 3869POPC   C3A51353  37.416  12.658   6.863
 3869POPC   C4A51354  37.755  12.777   7.168
 3869POPC   C1B51355  37.915  12.985   6.271
 3869POPC   C2B51356  37.862  12.929   6.699
 3869POPC   C3B51357  37.990  13.218   7.028
 3869POPC   C4B51358  38.114  13.340   7.466
 3870POPC   NC351359  12.327  27.085   5.006
 3870POPC   PO451360  12.133  27.676   5.289
 3870POPC   GL151361  12.096  27.649   5.747
 3870POPC   GL251362  12.196  27.299   5.830
 3870POPC   C1A51363  12.095  27.731   6.210
 3870POPC   D2A51364  12.302  27.666   6.632
 3870POPC   C3A51365  12.113  27.823   7.033
 3870POPC   C4A51366  12.081  27.640   7.433
 3870POPC   C1B51367  12.303  27.263   6.253
 3870POPC   C2B51368  12.120  27.195   6.617
 3870POPC   C3B51369  12.110  27.320   7.019
 3870POPC   C4B51370  12.018  27.135   7.382
 3871POPC   NC351371  44.942  27.624   5.494
 3871POPC   PO451372  44.310  27.789   5.404
 3871POPC   GL151373  44.410  27.559   5.782
 3871POPC   GL251374  44.429  27.888   5.899
 3871POPC   C1A51375  44.563  27.526   6.249
 3871POPC   D2A51376  44.642  27.373   6.709
 3871POPC   C3A51377  44.758  27.670   7.070
 3871POPC   C4A51378  44.890  27.573   7.478
 3871POPC   C1B51379  44.433  28.061   6.301
 3871POPC   C2B51380  44.487  27.906   6.690
 3871POPC   C3B51381  44.388  28.045   7.095
 3871POPC   C4B51382  44.434  27.814   7.493
 3872POPC   NC351383  42.581  40.978   5.270
 3872POPC   PO451384  42.378  41.573   5.496
 3872POPC   GL151385  42.363  41.293   5.842
 3872POPC   GL251386  42.640  41.036   5.864
 3872POPC   C1A51387  42.120  41.468   6.194
 3872POPC   D2A51388  42.285  41.618   6.603
 3872POPC   C3A51389  42.127  41.553   7.027
 3872POPC   C4A51390  42.252  41.855   7.331
 3872POPC   C1B51391  42.550  41.182   6.311
 3872POPC   C2B51392  42.780  41.460   6.594
 3872POPC   C3B51393  42.727  41.679   6.968
 3872POPC   C4B51394  42.573  41.451   7.304
 3873POPC   NC351395   0.938  13.082   5.625
 3873POPC   PO451396   1.482  12.697   5.494
 3873POPC   GL151397   1.355  12.769   5.902
 3873POPC   GL251398   1.013  12.703   5.953
 3873POPC   C1A51399   1.382  12.706   6.341
 3873POPC   D2A51400   1.511  12.481   6.715
 3873POPC   C3A51401   1.510  12.767   7.055
 3873POPC   C4A51402   1.549  12.729   7.502
 3873POPC   C1B51403   0.903  12.871   6.358
 3873POPC   C2B51404   1.078  12.790   6.762
 3873POPC   C3B51405   0.990  12.705   7.175
 3873POPC   C4B51406   0.733  12.926   7.483
 3874POPC   NC351407  29.566  23.497   5.485
 3874POPC   PO451408  30.120  23.851   5.512
 3874POPC   GL151409  30.091  23.870   5.911
 3874POPC   GL251410  29.825  23.621   5.921
 3874POPC   C1A51411  29.923  23.968   6.284
 3874POPC   D2A51412  29.770  23.719   6.595
 3874POPC   C3A51413  29.925  23.816   6.976
 3874POPC   C4A51414  29.953  23.866   7.417
 3874POPC   C1B51415  30.063  23.471   6.272
 3874POPC   C2B51416  30.121  23.377   6.735
 3874POPC   C3B51417  30.101  23.404   7.217
 3874POPC   C4B51418  30.188  23.491   7.673
 3875POPC   NC351419  26.840   7.671   5.361
 3875POPC   PO451420  26.835   8.346   5.390
 3875POPC   GL151421  26.725   8.069   5.720
 3875POPC   GL251422  27.047   7.923   5.808
 3875POPC   C1A51423  26.694   8.062   6.179
 3875POPC   D2A51424  26.844   8.038   6.600
 3875POPC   C3A51425  26.833   8.373   6.905
 3875POPC   C4A51426  26.606   8.503   7.278
 3875POPC   C1B51427  27.153   7.689   6.203
 3875POPC   C2B51428  27.284   7.774   6.637
 3875POPC   C3B51429  27.005   7.743   7.006
 3875POPC   C4B51430  26.632   7.948   7.158
 3876POPC   NC351431  13.463  17.378   5.367
 3876POPC   PO451432  13.840  17.837   5.595
 3876POPC   GL151433  13.516  17.715   5.884
 3876POPC   GL251434  13.440  17.359   5.873
 3876POPC   C1A51435  13.586  17.582   6.325
 3876POPC   D2A51436  13.828  17.630   6.721
 3876POPC   C3A51437  13.578  17.730   7.079
 3876POPC   C4A51438  13.518  17.701   7.514
 3876POPC   C1B51439  13.879  17.301   6.037
 3876POPC   C2B51440  13.963  17.184   6.466
 3876POPC   C3B51441  13.902  17.159   6.922
 3876POPC   C4B51442  13.656  17.272   7.270
 3877POPC   NC351443   6.535  27.439   5.293
 3877POPC   PO451444   6.873  28.011   5.449
 3877POPC   GL151445   6.601  27.751   5.698
 3877POPC   GL251446   6.719  27.392   5.783
 3877POPC   C1A51447   6.388  27.686   6.072
 3877POPC   D2A51448   6.361  27.842   6.479
 3877POPC   C3A51449   6.648  27.592   6.744
 3877POPC   C4A51450   6.549  27.465   7.164
 3877POPC   C1B51451   6.769  27.387   6.250
 3877POPC   C2B51452   6.753  27.094   6.597
 3877POPC   C3B51453   6.901  27.122   7.013
 3877POPC   C4B51454   7.029  27.427   7.349
 3878POPC   NC351455   7.387  20.903   5.684
 3878POPC   PO451456   7.470  21.552   5.404
 3878POPC   GL151457   7.667  21.380   5.780
 3878POPC   GL251458   7.920  21.134   5.682
 3878POPC   C1A51459   7.518  21.339   6.234
 3878POPC   D2A51460   7.180  21.459   6.537
 3878POPC   C3A51461   7.156  21.318   6.969
 3878POPC   C4A51462   7.079  20.899   7.170
 3878POPC   C1B51463   8.017  21.238   6.130
 3878POPC   C2B51464   7.917  21.273   6.563
 3878POPC   C3B51465   7.887  21.080   6.951
 3878POPC   C4B51466   7.548  21.117   7.233
 3879POPC   NC351467  24.645  17.916   5.320
 3879POPC   PO451468  24.335  17.346   5.543
 3879POPC   GL151469  24.669  17.431   5.838
 3879POPC   GL251470  24.686  17.779   5.843
 3879POPC   C1A51471  24.738  17.189   6.211
 3879POPC   D2A51472  24.593  17.145   6.606
 3879POPC   C3A51473  24.657  17.454   6.897
 3879POPC   C4A51474  24.699  17.178   7.228
 3879POPC   C1B51475  24.583  17.675   6.300
 3879POPC   C2B51476  24.367  17.871   6.649
 3879POPC   C3B51477  24.288  17.779   7.081
 3879POPC   C4B51478  24.548  17.635   7.438
 3880POPC   NC351479  18.186   0.944   5.271
 3880POPC   PO451480  18.198   1.606   5.309
 3880POPC   GL151481  18.151   1.327   5.647
 3880POPC   GL251482  18.448   1.126   5.689
 3880POPC   C1A51483  18.027   1.178   6.062
 3880POPC   D2A51484  17.861   1.300   6.464
 3880POPC   C3A51485  18.073   1.387   6.833
 3880POPC   C4A51486  17.925   1.466   7.257
 3880POPC   C1B51487  18.498   1.030   6.122
 3880POPC   C2B51488  18.271   0.977   6.517
 3880POPC   C3B51489  18.463   1.019   6.894
 3880POPC   C4B51490  18.360   1.207   7.207
 3881POPC   NC351491  39.407  41.845   5.586
 3881POPC   PO451492  38.952  41.250   5.496
 3881POPC   GL151493  39.123  41.501   5.864
 3881POPC   GL251494  39.482  41.491   5.951
 3881POPC   C1A51495  39.180  41.835   6.199
 3881POPC   D2A51496  39.310  41.991   6.607
 3881POPC   C3A51497  39.134  41.783   6.947
 3881POPC   C4A51498  39.229  41.593   7.314
 3881POPC   C1B51499  39.510  41.461   6.400
 3881POPC   C2B51500  39.329  41.314   6.786
 3881POPC   C3B51501  39.021  41.187   7.082
 3881POPC   C4B51502  39.041  41.208   7.554
 3882POPC   NC351503  32.666  42.939   5.322
 3882POPC   PO451504  31.967  43.165   5.296
 3882POPC   GL151505  32.176  43.042   5.706
 3882POPC   GL251506  32.349  42.714   5.677
 3882POPC   C1A51507  32.171  43.125   6.177
 3882POPC   D2A51508  32.071  43.346   6.581
 3882POPC   C3A51509  32.250  43.252   6.992
 3882POPC   C4A51510  32.413  43.568   7.259
 3882POPC   C1B51511  32.517  42.732   6.126
 3882POPC   C2B51512  32.495  42.945   6.564
 3882POPC   C3B51513  32.481  42.776   7.004
 3882POPC   C4B51514  32.680  42.648   7.419
 3883POPC   NC351515   8.401  25.531   5.443
 3883POPC   PO451516   7.878  25.047   5.410
 3883POPC   GL151517   8.138  25.178   5.731
 3883POPC   GL251518   8.270  24.904   5.934
 3883POPC   C1A51519   8.187  25.376   6.134
 3883POPC   D2A51520   8.086  25.192   6.538
 3883POPC   C3A51521   8.174  25.415   6.882
 3883POPC   C4A51522   8.313  25.421   7.275
 3883POPC   C1B51523   7.850  24.965   6.143
 3883POPC   C2B51524   7.588  25.063   6.510
 3883POPC   C3B51525   7.767  25.037   6.933
 3883POPC   C4B51526   8.192  24.947   7.149
 3884POPC   NC351527  39.245   6.454   5.092
 3884POPC   PO451528  39.451   6.887   5.579
 3884POPC   GL151529  39.204   6.526   5.726
 3884POPC   GL251530  39.065   6.749   5.899
 3884POPC   C1A51531  39.153   6.333   6.168
 3884POPC   D2A51532  39.162   6.500   6.612
 3884POPC   C3A51533  39.479   6.397   6.891
 3884POPC   C4A51534  39.628   6.455   7.290
 3884POPC   C1B51535  39.222   6.901   6.277
 3884POPC   C2B51536  39.007   6.998   6.673
 3884POPC   C3B51537  39.067   6.765   7.059
 3884POPC   C4B51538  38.928   6.863   7.462
 3885POPC   NC351539  38.292   3.410   5.378
 3885POPC   PO451540  38.847   3.342   5.764
 3885POPC   GL151541  38.648   3.641   5.983
 3885POPC   GL251542  38.866   3.917   5.973
 3885POPC   C1A51543  38.268   3.525   6.207
 3885POPC   D2A51544  38.132   3.218   6.508
 3885POPC   C3A51545  38.215   3.342   6.909
 3885POPC   C4A51546  38.249   3.194   7.331
 3885POPC   C1B51547  38.784   3.961   6.377
 3885POPC   C2B51548  38.492   3.781   6.612
 3885POPC   C3B51549  38.570   3.685   7.016
 3885POPC   C4B51550  38.710   3.375   7.257
 3886POPC   NC351551  32.901  14.437   5.435
 3886POPC   PO451552  33.451  14.139   5.663
 3886POPC   GL151553  33.130  14.207   5.870
 3886POPC   GL251554  32.782  14.119   5.819
 3886POPC   C1A51555  33.161  14.293   6.260
 3886POPC   D2A51556  33.004  14.506   6.609
 3886POPC   C3A51557  33.084  14.305   6.974
 3886POPC   C4A51558  33.182  14.465   7.368
 3886POPC   C1B51559  32.670  14.328   6.209
 3886POPC   C2B51560  32.478  14.449   6.577
 3886POPC   C3B51561  32.580  14.604   6.947
 3886POPC   C4B51562  32.687  14.492   7.335
 3887POPC   NC351563  14.217  16.072   5.549
 3887POPC   PO451564  14.824  15.816   5.408
 3887POPC   GL151565  14.597  15.848   5.804
 3887POPC   GL251566  14.532  16.180   5.931
 3887POPC   C1A51567  14.616  15.792   6.263
 3887POPC   D2A51568  14.361  15.785   6.651
 3887POPC   C3A51569  14.546  16.009   7.028
 3887POPC   C4A51570  14.741  15.889   7.436
 3887POPC   C1B51571  14.164  16.048   6.208
 3887POPC   C2B51572  14.054  16.185   6.630
 3887POPC   C3B51573  14.034  16.035   7.061
 3887POPC   C4B51574  14.200  16.095   7.507
 3888POPC   NC351575   5.423  40.914   5.264
 3888POPC   PO451576   4.835  40.925   5.359
 3888POPC   GL151577   5.068  40.894   5.769
 3888POPC   GL251578   5.387  41.109   5.740
 3888POPC   C1A51579   5.022  40.740   6.231
 3888POPC   D2A51580   4.943  40.489   6.645
 3888POPC   C3A51581   4.939  40.747   7.044
 3888POPC   C4A51582   4.865  40.736   7.489
 3888POPC   C1B51583   5.534  40.903   6.121
 3888POPC   C2B51584   5.386  40.959   6.554
 3888POPC   C3B51585   5.448  40.716   6.921
 3888POPC   C4B51586   5.401  40.627   7.351
 3889POPC   NC351587  24.210  20.242   5.662
 3889POPC   PO451588  23.744  19.786   5.366
 3889POPC   GL151589  23.704  19.956   5.772
 3889POPC   GL251590  23.635  19.598   5.850
 3889POPC   C1A51591  23.494  19.978   6.195
 3889POPC   D2A51592  23.380  19.789   6.593
 3889POPC   C3A51593  23.511  19.963   6.965
 3889POPC   C4A51594  23.746  19.966   7.315
 3889POPC   C1B51595  23.522  19.429   6.241
 3889POPC   C2B51596  23.569  19.289   6.671
 3889POPC   C3B51597  23.599  19.434   7.093
 3889POPC   C4B51598  23.701  19.503   7.525
 3890POPC   NC351599  44.173   3.186   5.404
 3890POPC   PO451600  43.705   2.799   5.170
 3890POPC   GL151601  43.702   2.941   5.668
 3890POPC   GL251602  44.013   3.091   5.871
 3890POPC   C1A51603  43.712   2.735   6.131
 3890POPC   D2A51604  43.563   2.613   6.590
 3890POPC   C3A51605  43.798   2.586   7.007
 3890POPC   C4A51606  43.947   2.556   7.442
 3890POPC   C1B51607  44.039   3.102   6.300
 3890POPC   C2B51608  44.066   2.885   6.675
 3890POPC   C3B51609  44.117   3.028   7.093
 3890POPC   C4B51610  44.049   3.032   7.507
 3891POPC   NC351611  25.105  42.828   5.663
 3891POPC   PO451612  25.124  43.443   5.498
 3891POPC   GL151613  25.110  43.292   5.912
 3891POPC   GL251614  25.452  43.209   5.854
 3891POPC   C1A51615  25.011  43.420   6.339
 3891POPC   D2A51616  24.861  43.465   6.780
 3891POPC   C3A51617  25.139  43.249   7.102
 3891POPC   C4A51618  25.343  43.397   7.485
 3891POPC   C1B51619  25.514  43.256   6.303
 3891POPC   C2B51620  25.499  43.193   6.744
 3891POPC   C3B51621  25.632  43.099   7.170
 3891POPC   C4B51622  25.455  42.918   7.577
 3892POPC   NC351623  22.707  12.690   5.544
 3892POPC   PO451624  22.801  13.260   5.165
 3892POPC   GL151625  22.874  13.187   5.674
 3892POPC   GL251626  23.124  12.897   5.774
 3892POPC   C1A51627  22.958  13.222   6.131
 3892POPC   D2A51628  23.128  13.004   6.514
 3892POPC   C3A51629  22.829  12.880   6.845
 3892POPC   C4A51630  22.899  12.930   7.285
 3892POPC   C1B51631  22.914  12.689   6.162
 3892POPC   C2B51632  22.986  12.466   6.568
 3892POPC   C3B51633  23.035  12.446   7.021
 3892POPC   C4B51634  22.676  12.295   7.238
 3893POPC   NC351635   3.201  32.893   5.152
 3893POPC   PO451636   3.681  33.320   5.419
 3893POPC   GL151637   3.757  33.164   5.815
 3893POPC   GL251638   3.596  32.861   5.808
 3893POPC   C1A51639   3.555  33.187   6.211
 3893POPC   D2A51640   3.602  33.126   6.619
 3893POPC   C3A51641   3.323  32.950   6.869
 3893POPC   C4A51642   3.503  32.981   7.235
 3893POPC   C1B51643   3.369  32.720   6.195
 3893POPC   C2B51644   3.585  32.592   6.580
 3893POPC   C3B51645   3.553  32.493   7.003
 3893POPC   C4B51646   3.170  32.560   7.221
 3894POPC   NC351647  28.064   3.126   5.462
 3894POPC   PO451648  28.613   2.702   5.464
 3894POPC   GL151649  28.326   2.800   5.822
 3894POPC   GL251650  28.127   2.498   5.975
 3894POPC   C1A51651  28.353   2.846   6.293
 3894POPC   D2A51652  28.431   2.512   6.605
 3894POPC   C3A51653  28.103   2.420   6.871
 3894POPC   C4A51654  28.020   2.594   7.232
 3894POPC   C1B51655  28.579   2.450   6.112
 3894POPC   C2B51656  28.926   2.468   6.420
 3894POPC   C3B51657  28.877   2.488   6.885
 3894POPC   C4B51658  28.522   2.433   7.173
 3895POPC   NC351659  17.546   2.518   5.726
 3895POPC   PO451660  17.558   2.043   5.180
 3895POPC   GL151661  17.501   1.992   5.665
 3895POPC   GL251662  17.164   1.986   5.868
 3895POPC   C1A51663  17.642   1.879   6.115
 3895POPC   D2A51664  17.464   1.666   6.523
 3895POPC   C3A51665  17.342   1.804   6.940
 3895POPC   C4A51666  17.512   1.785   7.363
 3895POPC   C1B51667  17.244   2.112   6.321
 3895POPC   C2B51668  17.677   2.252   6.492
 3895POPC   C3B51669  17.789   2.373   6.910
 3895POPC   C4B51670  17.495   2.294   7.247
 3896POPC   NC351671   1.092  22.471   5.597
 3896POPC   PO451672   1.577  22.939   5.464
 3896POPC   GL151673   1.207  22.929   5.808
 3896POPC   GL251674   1.439  22.699   5.908
 3896POPC   C1A51675   0.923  22.742   6.207
 3896POPC   D2A51676   1.022  22.677   6.690
 3896POPC   C3A51677   0.888  22.935   7.062
 3896POPC   C4A51678   0.955  23.008   7.522
 3896POPC   C1B51679   1.379  22.890   6.326
 3896POPC   C2B51680   1.435  23.030   6.749
 3896POPC   C3B51681   1.367  22.870   7.178
 3896POPC   C4B51682   1.355  22.742   7.631
 3897POPC   NC351683  10.613  25.176   5.278
 3897POPC   PO451684  10.099  25.075   5.665
 3897POPC   GL151685  10.548  25.053   5.765
 3897POPC   GL251686  10.604  25.429   5.753
 3897POPC   C1A51687  10.583  24.845   6.161
 3897POPC   D2A51688  10.194  24.939   6.440
 3897POPC   C3A51689  10.291  25.086   6.851
 3897POPC   C4A51690  10.515  24.991   7.231
 3897POPC   C1B51691  10.454  25.323   6.175
 3897POPC   C2B51692  10.653  25.321   6.558
 3897POPC   C3B51693  10.657  25.438   7.000
 3897POPC   C4B51694  10.677  25.451   7.452
 3898POPC   NC351695   7.709   3.652   5.514
 3898POPC   PO451696   7.494   4.300   5.441
 3898POPC   GL151697   7.346   4.301   5.832
 3898POPC   GL251698   7.098   4.539   5.792
 3898POPC   C1A51699   7.542   4.382   6.213
 3898POPC   D2A51700   7.489   4.497   6.643
 3898POPC   C3A51701   7.664   4.276   6.977
 3898POPC   C4A51702   7.333   4.123   7.221
 3898POPC   C1B51703   7.117   4.687   6.203
 3898POPC   C2B51704   6.982   4.603   6.580
 3898POPC   C3B51705   7.070   4.470   6.971
 3898POPC   C4B51706   6.874   4.660   7.301
 3899POPC   NC351707  23.105  36.913   5.406
 3899POPC   PO451708  23.412  36.357   5.552
 3899POPC   GL151709  23.210  36.657   5.842
 3899POPC   GL251710  23.333  36.987   5.879
 3899POPC   C1A51711  22.935  36.666   6.199
 3899POPC   D2A51712  22.681  36.880   6.516
 3899POPC   C3A51713  22.882  36.741   6.896
 3899POPC   C4A51714  22.839  36.565   7.287
 3899POPC   C1B51715  23.086  37.155   6.215
 3899POPC   C2B51716  22.981  37.284   6.604
 3899POPC   C3B51717  23.102  37.186   7.024
 3899POPC   C4B51718  22.792  37.077   7.324
 3900POPC   NC351719  22.354  17.970   5.574
 3900POPC   PO451720  22.039  17.444   5.170
 3900POPC   GL151721  22.080  17.473   5.692
 3900POPC   GL251722  21.885  17.667   5.892
 3900POPC   C1A51723  22.401  17.572   6.085
 3900POPC   D2A51724  22.596  17.767   6.483
 3900POPC   C3A51725  22.405  17.684   6.897
 3900POPC   C4A51726  22.394  17.312   7.152
 3900POPC   C1B51727  22.015  17.755   6.334
 3900POPC   C2B51728  21.911  17.750   6.741
 3900POPC   C3B51729  21.926  17.537   7.098
 3900POPC   C4B51730  21.766  17.519   7.501
 3901POPC   NC351731  12.111  44.293   5.486
 3901POPC   PO451732  12.048  43.612   5.479
 3901POPC   GL151733  11.916  43.828   5.876
 3901POPC   GL251734  11.695  44.135   5.788
 3901POPC   C1A51735  12.138  43.951   6.274
 3901POPC   D2A51736  12.097  44.346   6.538
 3901POPC   C3A51737  11.932  44.280   6.957
 3901POPC   C4A51738  12.157  44.127   7.322
 3901POPC   C1B51739  11.662  44.112   6.246
 3901POPC   C2B51740  11.752  43.825   6.611
 3901POPC   C3B51741  11.871  43.756   7.046
 3901POPC   C4B51742  11.651  44.010   7.320
 3902POPC   NC351743  17.518  32.372   5.392
 3902POPC   PO451744  17.292  31.738   5.436
 3902POPC   GL151745  17.532  31.969   5.740
 3902POPC   GL251746  17.417  32.309   5.871
 3902POPC   C1A51747  17.554  31.959   6.203
 3902POPC   D2A51748  17.607  32.165   6.608
 3902POPC   C3A51749  17.411  31.956   6.937
 3902POPC   C4A51750  17.593  31.959   7.330
 3902POPC   C1B51751  17.653  32.481   6.161
 3902POPC   C2B51752  17.646  32.687   6.529
 3902POPC   C3B51753  17.495  32.589   6.919
 3902POPC   C4B51754  17.523  32.478   7.346
 3903POPC   NC351755  40.323  41.681   5.413
 3903POPC   PO451756  39.623  41.648   5.225
 3903POPC   GL151757  39.869  41.516   5.624
 3903POPC   GL251758  39.897  41.844   5.784
 3903POPC   C1A51759  39.974  41.447   6.123
 3903POPC   D2A51760  40.225  41.342   6.553
 3903POPC   C3A51761  40.132  41.503   6.976
 3903POPC   C4A51762  39.957  41.385   7.411
 3903POPC   C1B51763  39.702  41.942   6.200
 3903POPC   C2B51764  39.799  41.826   6.628
 3903POPC   C3B51765  39.658  41.660   7.015
 3903POPC   C4B51766  39.930  41.890   7.307
 3904POPC   NC351767  18.522   2.555   5.502
 3904POPC   PO451768  17.828   2.746   5.433
 3904POPC   GL151769  18.057   2.668   5.795
 3904POPC   GL251770  18.038   2.992   5.887
 3904POPC   C1A51771  17.944   2.635   6.225
 3904POPC   D2A51772  18.157   2.514   6.565
 3904POPC   C3A51773  18.153   2.754   6.879
 3904POPC   C4A51774  18.132   2.545   7.255
 3904POPC   C1B51775  18.295   2.987   6.301
 3904POPC   C2B51776  18.584   2.993   6.674
 3904POPC   C3B51777  18.608   3.165   7.075
 3904POPC   C4B51778  18.237   3.053   7.276
 3905POPC   NC351779  36.947  20.050   5.145
 3905POPC   PO451780  37.160  19.556   5.535
 3905POPC   GL151781  36.964  19.883   5.823
 3905POPC   GL251782  37.082  20.233   5.726
 3905POPC   C1A51783  36.704  19.942   6.240
 3905POPC   D2A51784  36.449  19.977   6.648
 3905POPC   C3A51785  36.700  19.966   7.007
 3905POPC   C4A51786  36.634  19.877   7.419
 3905POPC   C1B51787  37.122  20.237   6.201
 3905POPC   C2B51788  37.017  20.113   6.630
 3905POPC   C3B51789  37.184  19.853   6.988
 3905POPC   C4B51790  37.107  20.083   7.365
 3906POPC   NC351791  25.523  43.623   5.358
 3906POPC   PO451792  25.413  44.253   5.441
 3906POPC   GL151793  25.149  44.059   5.789
 3906POPC   GL251794  25.310  43.759   5.844
 3906POPC   C1A51795  24.965  43.922   6.221
 3906POPC   D2A51796  25.006  44.073   6.661
 3906POPC   C3A51797  25.276  44.068   7.010
 3906POPC   C4A51798  25.102  43.736   7.202
 3906POPC   C1B51799  25.436  43.757   6.272
 3906POPC   C2B51800  25.319  43.662   6.694
 3906POPC   C3B51801  25.570  43.624   7.073
 3906POPC   C4B51802  25.524  43.879   7.481
 3907POPC   NC351803  16.930  36.503   5.451
 3907POPC   PO451804  16.933  37.043   5.395
 3907POPC   GL151805  16.913  37.135   5.854
 3907POPC   GL251806  17.220  37.323   5.880
 3907POPC   C1A51807  16.794  36.994   6.310
 3907POPC   D2A51808  17.081  36.786   6.628
 3907POPC   C3A51809  17.017  36.777   7.058
 3907POPC   C4A51810  16.661  36.730   7.384
 3907POPC   C1B51811  17.087  37.411   6.320
 3907POPC   C2B51812  16.985  37.274   6.760
 3907POPC   C3B51813  16.677  37.157   7.086
 3907POPC   C4B51814  16.331  37.158   7.387
 3908POPC   NC351815  17.705  30.588   5.411
 3908POPC   PO451816  17.082  30.295   5.354
 3908POPC   GL151817  17.229  30.574   5.733
 3908POPC   GL251818  17.557  30.469   5.897
 3908POPC   C1A51819  17.276  30.800   6.165
 3908POPC   D2A51820  17.387  30.685   6.597
 3908POPC   C3A51821  17.507  31.023   6.882
 3908POPC   C4A51822  17.357  30.978   7.267
 3908POPC   C1B51823  17.798  30.594   6.294
 3908POPC   C2B51824  17.890  30.720   6.746
 3908POPC   C3B51825  17.703  30.579   7.141
 3908POPC   C4B51826  17.716  30.516   7.596
 3909POPC   NC351827  15.706  18.620   5.491
 3909POPC   PO451828  16.183  18.184   5.524
 3909POPC   GL151829  15.883  18.225   5.852
 3909POPC   GL251830  15.818  18.537   5.984
 3909POPC   C1A51831  16.036  18.196   6.281
 3909POPC   D2A51832  15.929  18.360   6.677
 3909POPC   C3A51833  16.096  18.109   6.974
 3909POPC   C4A51834  16.020  18.016   7.370
 3909POPC   C1B51835  15.544  18.430   6.343
 3909POPC   C2B51836  15.446  18.187   6.719
 3909POPC   C3B51837  15.628  18.277   7.112
 3909POPC   C4B51838  15.938  18.570   7.192
 3910POPC   NC351839  37.631  11.022   4.963
 3910POPC   PO451840  37.563  11.363   5.540
 3910POPC   GL151841  37.797  11.142   5.879
 3910POPC   GL251842  37.542  10.917   5.954
 3910POPC   C1A51843  37.913  11.231   6.324
 3910POPC   D2A51844  37.999  11.484   6.709
 3910POPC   C3A51845  37.854  11.292   7.057
 3910POPC   C4A51846  37.583  11.425   7.345
 3910POPC   C1B51847  37.410  11.219   6.250
 3910POPC   C2B51848  37.497  11.327   6.665
 3910POPC   C3B51849  37.330  11.145   7.034
 3910POPC   C4B51850  37.192  10.943   7.383
 3911POPC   NC351851  16.570   2.848   5.580
 3911POPC   PO451852  17.125   2.408   5.569
 3911POPC   GL151853  16.848   2.459   5.933
 3911POPC   GL251854  16.495   2.487   5.903
 3911POPC   C1A51855  16.768   2.766   6.271
 3911POPC   D2A51856  16.960   2.838   6.663
 3911POPC   C3A51857  16.627   2.782   6.920
 3911POPC   C4A51858  16.499   2.952   7.319
 3911POPC   C1B51859  16.298   2.546   6.264
 3911POPC   C2B51860  16.226   2.324   6.627
 3911POPC   C3B51861  16.439   2.174   6.980
 3911POPC   C4B51862  16.597   2.424   7.273
 3912POPC   NC351863  26.749  31.502   5.262
 3912POPC   PO451864  26.936  32.122   5.435
 3912POPC   GL151865  26.930  31.722   5.732
 3912POPC   GL251866  26.810  31.332   5.755
 3912POPC   C1A51867  26.925  31.575   6.189
 3912POPC   D2A51868  26.969  31.320   6.601
 3912POPC   C3A51869  26.956  31.541   7.005
 3912POPC   C4A51870  26.554  31.557   7.190
 3912POPC   C1B51871  26.647  31.120   6.169
 3912POPC   C2B51872  26.613  30.924   6.600
 3912POPC   C3B51873  26.736  31.069   7.013
 3912POPC   C4B51874  26.706  31.130   7.450
 3913POPC   NC351875  11.831  16.312   5.452
 3913POPC   PO451876  12.321  15.758   5.455
 3913POPC   GL151877  12.243  15.751   5.877
 3913POPC   GL251878  12.545  15.559   5.900
 3913POPC   C1A51879  12.075  15.948   6.275
 3913POPC   D2A51880  12.044  16.214   6.662
 3913POPC   C3A51881  12.004  16.009   7.045
 3913POPC   C4A51882  11.667  15.924   7.265
 3913POPC   C1B51883  12.535  15.719   6.324
 3913POPC   C2B51884  12.303  15.695   6.723
 3913POPC   C3B51885  12.492  15.538   7.113
 3913POPC   C4B51886  12.603  15.603   7.550
 3914POPC   NC351887  34.754   2.084   5.187
 3914POPC   PO451888  34.289   1.652   5.321
 3914POPC   GL151889  34.460   1.659   5.751
 3914POPC   GL251890  34.789   1.848   5.752
 3914POPC   C1A51891  34.553   1.664   6.202
 3914POPC   D2A51892  34.409   1.878   6.559
 3914POPC   C3A51893  34.594   1.893   6.935
 3914POPC   C4A51894  34.383   1.829   7.318
 3914POPC   C1B51895  34.959   1.970   6.182
 3914POPC   C2B51896  34.899   2.135   6.587
 3914POPC   C3B51897  34.961   2.235   7.011
 3914POPC   C4B51898  34.863   1.975   7.378
 3915POPC   NC351899   9.897  41.653   5.458
 3915POPC   PO451900   9.315  41.806   5.500
 3915POPC   GL151901   9.555  41.579   5.853
 3915POPC   GL251902   9.885  41.403   5.891
 3915POPC   C1A51903   9.686  41.742   6.258
 3915POPC   D2A51904   9.765  41.570   6.667
 3915POPC   C3A51905   9.708  41.328   7.016
 3915POPC   C4A51906   9.780  41.640   7.353
 3915POPC   C1B51907   9.814  41.242   6.258
 3915POPC   C2B51908   9.954  40.930   6.503
 3915POPC   C3B51909  10.028  40.864   6.908
 3915POPC   C4B51910  10.054  41.077   7.282
 3916POPC   NC351911   6.716  32.925   4.856
 3916POPC   PO451912   6.614  33.391   5.375
 3916POPC   GL151913   6.680  33.159   5.789
 3916POPC   GL251914   6.492  32.856   5.819
 3916POPC   C1A51915   6.737  33.053   6.248
 3916POPC   D2A51916   6.774  33.294   6.638
 3916POPC   C3A51917   6.690  33.088   7.024
 3916POPC   C4A51918   6.702  32.951   7.466
 3916POPC   C1B51919   6.423  32.625   6.222
 3916POPC   C2B51920   6.658  32.588   6.615
 3916POPC   C3B51921   6.513  32.624   7.053
 3916POPC   C4B51922   6.238  32.510   7.358
 3917POPC   NC351923   4.722  17.925   5.561
 3917POPC   PO451924   4.175  17.616   5.328
 3917POPC   GL151925   4.355  17.480   5.737
 3917POPC   GL251926   4.437  17.766   5.965
 3917POPC   C1A51927   4.187  17.345   6.161
 3917POPC   D2A51928   4.079  17.580   6.555
 3917POPC   C3A51929   3.994  17.284   6.873
 3917POPC   C4A51930   3.918  17.365   7.304
 3917POPC   C1B51931   4.638  17.529   6.310
 3917POPC   C2B51932   4.518  17.376   6.717
 3917POPC   C3B51933   4.325  17.632   7.027
 3917POPC   C4B51934   4.383  17.526   7.437
 3918POPC   NC351935  37.059  26.545   5.240
 3918POPC   PO451936  37.180  25.882   5.411
 3918POPC   GL151937  37.130  26.092   5.798
 3918POPC   GL251938  36.781  26.095   5.844
 3918POPC   C1A51939  37.036  26.225   6.241
 3918POPC   D2A51940  36.944  25.977   6.591
 3918POPC   C3A51941  37.143  25.985   7.013
 3918POPC   C4A51942  37.081  26.005   7.494
 3918POPC   C1B51943  36.695  25.792   6.157
 3918POPC   C2B51944  36.661  25.555   6.521
 3918POPC   C3B51945  36.732  25.668   6.934
 3918POPC   C4B51946  36.651  25.790   7.342
 3919POPC   NC351947   1.885   6.262   5.514
 3919POPC   PO451948   2.361   6.581   5.177
 3919POPC   GL151949   2.320   6.582   5.657
 3919POPC   GL251950   2.006   6.707   5.828
 3919POPC   C1A51951   2.376   6.582   6.132
 3919POPC   D2A51952   2.269   6.916   6.431
 3919POPC   C3A51953   2.095   6.860   6.826
 3919POPC   C4A51954   2.078   6.560   7.143
 3919POPC   C1B51955   1.846   6.674   6.278
 3919POPC   C2B51956   1.652   6.612   6.719
 3919POPC   C3B51957   1.603   6.744   7.160
 3919POPC   C4B51958   1.779   6.669   7.582
 3920POPC   NC351959   1.775  22.556   5.290
 3920POPC   PO451960   2.251  22.949   5.549
 3920POPC   GL151961   1.948  22.971   5.853
 3920POPC   GL251962   1.951  22.660   5.933
 3920POPC   C1A51963   1.816  23.123   6.261
 3920POPC   D2A51964   1.990  23.078   6.680
 3920POPC   C3A51965   1.796  23.190   7.092
 3920POPC   C4A51966   1.802  22.914   7.445
 3920POPC   C1B51967   2.226  22.788   6.267
 3920POPC   C2B51968   2.355  22.690   6.664
 3920POPC   C3B51969   2.301  22.809   7.059
 3920POPC   C4B51970   2.122  22.551   7.369
 3921POPC   NC351971   0.672  26.641   5.284
 3921POPC   PO451972   0.171  27.067   5.559
 3921POPC   GL151973   0.365  26.854   5.843
 3921POPC   GL251974   0.648  27.057   5.942
 3921POPC   C1A51975   0.236  26.819   6.299
 3921POPC   D2A51976   0.073  27.071   6.658
 3921POPC   C3A51977   0.117  26.875   7.066
 3921POPC   C4A51978   0.465  26.618   7.165
 3921POPC   C1B51979   0.694  26.656   6.157
 3921POPC   C2B51980   0.689  26.569   6.575
 3921POPC   C3B51981   0.894  26.764   6.900
 3921POPC   C4B51982   0.838  26.936   7.312
 3922POPC   NC351983  42.817  33.669   5.274
 3922POPC   PO451984  43.469  33.557   5.323
 3922POPC   GL151985  43.214  33.512   5.698
 3922POPC   GL251986  42.921  33.729   5.771
 3922POPC   C1A51987  43.316  33.630   6.136
 3922POPC   D2A51988  43.216  33.877   6.508
 3922POPC   C3A51989  43.352  33.698   6.898
 3922POPC   C4A51990  43.444  33.797   7.304
 3922POPC   C1B51991  42.814  33.467   6.124
 3922POPC   C2B51992  42.782  33.559   6.573
 3922POPC   C3B51993  42.858  33.734   6.974
 3922POPC   C4B51994  43.025  33.491   7.296
 3923POPC   NC351995   2.043   6.890   5.318
 3923POPC   PO451996   2.266   7.469   5.334
 3923POPC   GL151997   2.152   7.243   5.735
 3923POPC   GL251998   2.405   7.036   5.874
 3923POPC   C1A51999   1.921   7.166   6.140
 3923POPC   D2A52000   1.678   7.090   6.538
 3923POPC   C3A52001   1.750   7.231   6.954
 3923POPC   C4A52002   1.961   7.084   7.284
 3923POPC   C1B52003   2.391   7.352   6.211
 3923POPC   C2B52004   2.166   7.375   6.636
 3923POPC   C3B52005   2.117   7.604   7.045
 3923POPC   C4B52006   2.218   7.932   7.375
 3924POPC   NC352007  40.944  38.901   5.374
 3924POPC   PO452008  40.581  39.408   5.235
 3924POPC   GL152009  40.717  39.251   5.694
 3924POPC   GL252010  40.597  38.915   5.755
 3924POPC   C1A52011  40.763  39.306   6.186
 3924POPC   D2A52012  40.682  39.131   6.625
 3924POPC   C3A52013  40.761  39.335   7.030
 3924POPC   C4A52014  40.684  39.171   7.479
 3924POPC   C1B52015  40.961  38.854   6.032
 3924POPC   C2B52016  41.112  38.951   6.431
 3924POPC   C3B52017  41.134  38.818   6.855
 3924POPC   C4B52018  40.817  38.780   7.136
 3925POPC   NC352019  17.999   4.619   5.608
 3925POPC   PO452020  18.428   4.150   5.337
 3925POPC   GL152021  18.520   4.257   5.794
 3925POPC   GL252022  18.187   4.202   5.845
 3925POPC   C1A52023  18.346   4.498   6.223
 3925POPC   D2A52024  18.175   4.295   6.616
 3925POPC   C3A52025  18.285   4.503   7.038
 3925POPC   C4A52026  18.035   4.670   7.357
 3925POPC   C1B52027  18.377   3.990   6.211
 3925POPC   C2B52028  18.457   3.868   6.641
 3925POPC   C3B52029  18.282   4.007   7.023
 3925POPC   C4B52030  18.451   4.081   7.395
 3926POPC   NC352031  10.235  30.792   5.263
 3926POPC   PO452032   9.626  30.902   5.411
 3926POPC   GL152033   9.485  30.683   5.803
 3926POPC   GL252034   9.839  30.722   5.932
 3926POPC   C1A52035   9.376  30.602   6.238
 3926POPC   D2A52036   9.766  30.721   6.448
 3926POPC   C3A52037   9.978  30.730   6.820
 3926POPC   C4A52038   9.813  30.721   7.223
 3926POPC   C1B52039  10.101  31.033   6.218
 3926POPC   C2B52040  10.236  31.147   6.698
 3926POPC   C3B52041  10.144  31.099   7.181
 3926POPC   C4B52042   9.898  31.096   7.605
 3927POPC   NC352043  33.888   1.586   5.114
 3927POPC   PO452044  33.587   2.150   5.337
 3927POPC   GL152045  33.944   2.003   5.650
 3927POPC   GL252046  33.720   1.942   5.890
 3927POPC   C1A52047  34.128   1.961   6.136
 3927POPC   D2A52048  34.012   2.218   6.533
 3927POPC   C3A52049  34.103   2.080   6.962
 3927POPC   C4A52050  33.995   2.173   7.407
 3927POPC   C1B52051  33.606   2.198   6.193
 3927POPC   C2B52052  33.476   2.226   6.558
 3927POPC   C3B52053  33.619   2.236   6.932
 3927POPC   C4B52054  33.472   2.010   7.226
 3928POPC   NC352055  30.804  18.754   5.415
 3928POPC   PO452056  31.293  18.393   5.432
 3928POPC   GL152057  31.300  18.171   5.868
 3928POPC   GL252058  31.117  17.853   5.837
 3928POPC   C1A52059  31.457  18.131   6.311
 3928POPC   D2A52060  31.531  18.100   6.771
 3928POPC   C3A52061  31.744  18.104   7.176
 3928POPC   C4A52062  31.836  17.800   7.525
 3928POPC   C1B52063  30.964  17.983   6.244
 3928POPC   C2B52064  31.047  18.222   6.628
 3928POPC   C3B52065  31.136  18.144   7.081
 3928POPC   C4B52066  31.339  17.924   7.423
 3929POPC   NC352067   7.106  29.626   5.421
 3929POPC   PO452068   7.527  29.154   5.264
 3929POPC   GL152069   7.408  29.249   5.716
 3929POPC   GL252070   7.255  28.920   5.796
 3929POPC   C1A52071   7.578  29.425   6.143
 3929POPC   D2A52072   7.722  29.614   6.559
 3929POPC   C3A52073   7.635  29.336   6.925
 3929POPC   C4A52074   7.444  29.173   7.336
 3929POPC   C1B52075   7.203  29.030   6.223
 3929POPC   C2B52076   7.482  28.997   6.555
 3929POPC   C3B52077   7.433  28.813   6.945
 3929POPC   C4B52078   7.081  28.799   7.219
 3930POPC   NC352079   4.862  44.376   5.586
 3930POPC   PO452080   5.053  44.944   5.206
 3930POPC   GL152081   5.163  44.814   5.659
 3930POPC   GL252082   5.294  44.495   5.841
 3930POPC   C1A52083   5.022  44.887   6.121
 3930POPC   D2A52084   5.116   0.151   6.504
 3930POPC   C3A52085   5.001  44.994   6.913
 3930POPC   C4A52086   5.192  44.753   7.249
 3930POPC   C1B52087   5.048  44.380   6.267
 3930POPC   C2B52088   4.974  44.497   6.760
 3930POPC   C3B52089   4.835  44.417   7.250
 3930POPC   C4B52090   4.765  44.244   7.679
 3931POPC   NC352091  40.622  31.206   5.343
 3931POPC   PO452092  40.987  31.819   5.321
 3931POPC   GL152093  40.767  31.669   5.726
 3931POPC   GL252094  40.854  31.373   5.790
 3931POPC   C1A52095  40.642  31.500   6.213
 3931POPC   D2A52096  40.700  31.255   6.630
 3931POPC   C3A52097  40.584  31.439   7.044
 3931POPC   C4A52098  40.608  31.378   7.538
 3931POPC   C1B52099  41.081  31.744   6.098
 3931POPC   C2B52100  41.215  31.760   6.551
 3931POPC   C3B52101  41.134  31.434   6.858
 3931POPC   C4B52102  41.036  31.526   7.291
 3932POPC   NC352103  39.610  20.029   5.574
 3932POPC   PO452104  39.005  19.928   5.286
 3932POPC   GL152105  38.983  19.727   5.811
 3932POPC   GL252106  39.353  19.683   5.860
 3932POPC   C1A52107  39.061  19.822   6.270
 3932POPC   D2A52108  39.312  19.801   6.619
 3932POPC   C3A52109  39.158  19.957   6.981
 3932POPC   C4A52110  38.988  19.869   7.377
 3932POPC   C1B52111  39.602  19.433   6.146
 3932POPC   C2B52112  39.452  19.320   6.563
 3932POPC   C3B52113  39.623  19.548   6.944
 3932POPC   C4B52114  39.473  19.717   7.310
 3933POPC   NC352115  23.715  40.461   5.529
 3933POPC   PO452116  23.320  40.850   5.309
 3933POPC   GL152117  23.298  40.864   5.793
 3933POPC   GL252118  23.341  40.534   5.916
 3933POPC   C1A52119  23.369  40.927   6.300
 3933POPC   D2A52120  23.709  40.839   6.655
 3933POPC   C3A52121  23.787  40.998   7.099
 3933POPC   C4A52122  24.005  41.113   7.503
 3933POPC   C1B52123  23.533  40.436   6.329
 3933POPC   C2B52124  23.848  40.334   6.650
 3933POPC   C3B52125  23.986  40.530   7.006
 3933POPC   C4B52126  23.618  40.528   7.185
 3934POPC   NC352127   4.772  32.090   5.659
 3934POPC   PO452128   4.320  32.556   5.387
 3934POPC   GL152129   4.423  32.418   5.762
 3934POPC   GL252130   4.281  32.060   5.771
 3934POPC   C1A52131   4.583  32.526   6.164
 3934POPC   D2A52132   4.508  32.318   6.549
 3934POPC   C3A52133   4.612  32.525   6.922
 3934POPC   C4A52134   4.468  32.548   7.335
 3934POPC   C1B52135   4.329  31.800   6.165
 3934POPC   C2B52136   4.280  31.798   6.613
 3934POPC   C3B52137   4.435  32.012   6.971
 3934POPC   C4B52138   4.232  32.014   7.379
 3935POPC   NC352139  42.055  18.469   5.570
 3935POPC   PO452140  42.682  18.587   5.567
 3935POPC   GL152141  42.439  18.450   5.902
 3935POPC   GL252142  42.534  18.119   5.887
 3935POPC   C1A52143  42.125  18.332   6.219
 3935POPC   D2A52144  42.029  18.232   6.640
 3935POPC   C3A52145  42.267  18.413   6.962
 3935POPC   C4A52146  42.185  18.680   7.254
 3935POPC   C1B52147  42.581  18.130   6.346
 3935POPC   C2B52148  42.583  18.053   6.785
 3935POPC   C3B52149  42.543  18.083   7.227
 3935POPC   C4B52150  42.538  18.411   7.497
 3936POPC   NC352151  13.920  11.551   5.455
 3936POPC   PO452152  13.458  11.043   5.470
 3936POPC   GL152153  13.586  11.352   5.798
 3936POPC   GL252154  13.344  11.535   5.967
 3936POPC   C1A52155  13.842  11.501   6.162
 3936POPC   D2A52156  13.912  11.276   6.571
 3936POPC   C3A52157  13.818  11.441   6.980
 3936POPC   C4A52158  13.851  11.288   7.364
 3936POPC   C1B52159  13.441  11.229   6.326
 3936POPC   C2B52160  13.399  11.214   6.794
 3936POPC   C3B52161  13.357  11.275   7.268
 3936POPC   C4B52162  13.140  11.066   7.637
 3937POPC   NC352163   6.680  37.874   5.466
 3937POPC   PO452164   6.890  37.193   5.337
 3937POPC   GL152165   6.775  37.374   5.723
 3937POPC   GL252166   7.060  37.588   5.724
 3937POPC   C1A52167   6.602  37.360   6.166
 3937POPC   D2A52168   6.414  37.555   6.551
 3937POPC   C3A52169   6.560  37.605   6.986
 3937POPC   C4A52170   6.546  37.365   7.369
 3937POPC   C1B52171   7.060  37.610   6.182
 3937POPC   C2B52172   6.959  37.573   6.626
 3937POPC   C3B52173   7.013  37.352   7.027
 3937POPC   C4B52174   7.024  37.483   7.481
 3938POPC   NC352175  15.851   5.545   5.517
 3938POPC   PO452176  15.837   6.187   5.638
 3938POPC   GL152177  15.803   5.897   5.933
 3938POPC   GL252178  16.136   5.867   5.937
 3938POPC   C1A52179  15.809   5.824   6.390
 3938POPC   D2A52180  16.063   5.994   6.715
 3938POPC   C3A52181  15.822   6.015   7.051
 3938POPC   C4A52182  15.710   5.665   7.244
 3938POPC   C1B52183  16.137   5.497   6.151
 3938POPC   C2B52184  16.193   5.487   6.577
 3938POPC   C3B52185  16.157   5.555   7.008
 3938POPC   C4B52186  16.269   5.914   7.259
 3939POPC   NC352187   7.934  16.377   5.493
 3939POPC   PO452188   8.303  16.878   5.482
 3939POPC   GL152189   8.279  16.599   5.819
 3939POPC   GL252190   7.974  16.561   5.985
 3939POPC   C1A52191   8.465  16.538   6.227
 3939POPC   D2A52192   8.488  16.768   6.625
 3939POPC   C3A52193   8.489  16.512   7.007
 3939POPC   C4A52194   8.341  16.621   7.445
 3939POPC   C1B52195   8.146  16.942   6.218
 3939POPC   C2B52196   8.023  17.051   6.648
 3939POPC   C3B52197   8.143  16.921   7.051
 3939POPC   C4B52198   7.885  16.851   7.409
 3940POPC   NC352199  14.563   2.613   5.358
 3940POPC   PO452200  13.898   2.811   5.382
 3940POPC   GL152201  14.155   2.626   5.716
 3940POPC   GL252202  14.524   2.778   5.844
 3940POPC   C1A52203  14.137   2.652   6.166
 3940POPC   D2A52204  14.473   2.737   6.453
 3940POPC   C3A52205  14.395   2.607   6.837
 3940POPC   C4A52206  14.080   2.577   7.073
 3940POPC   C1B52207  14.739   3.066   6.169
 3940POPC   C2B52208  14.659   3.224   6.585
 3940POPC   C3B52209  14.725   3.004   6.932
 3940POPC   C4B52210  14.789   3.131   7.319
 3941POPC   NC352211  41.122  20.884   5.405
 3941POPC   PO452212  40.602  20.480   5.252
 3941POPC   GL152213  40.715  20.627   5.685
 3941POPC   GL252214  41.016  20.466   5.706
 3941POPC   C1A52215  40.703  20.548   6.187
 3941POPC   D2A52216  40.329  20.531   6.509
 3941POPC   C3A52217  40.455  20.513   6.936
 3941POPC   C4A52218  40.729  20.737   7.200
 3941POPC   C1B52219  41.196  20.605   6.084
 3941POPC   C2B52220  41.111  20.744   6.541
 3941POPC   C3B52221  41.124  20.524   6.947
 3941POPC   C4B52222  41.219  20.433   7.381
 3942POPC   NC352223  24.147  19.999   5.204
 3942POPC   PO452224  24.717  19.573   5.457
 3942POPC   GL152225  24.515  19.816   5.755
 3942POPC   GL252226  24.172  19.725   5.692
 3942POPC   C1A52227  24.485  19.964   6.201
 3942POPC   D2A52228  24.372  19.718   6.567
 3942POPC   C3A52229  24.442  19.908   6.959
 3942POPC   C4A52230  24.535  20.250   7.215
 3942POPC   C1B52231  24.032  19.744   6.120
 3942POPC   C2B52232  23.867  19.688   6.508
 3942POPC   C3B52233  23.973  19.724   6.920
 3942POPC   C4B52234  24.153  19.581   7.298
 3943POPC   NC352235  14.557   4.646   5.250
 3943POPC   PO452236  14.769   5.354   5.324
 3943POPC   GL152237  14.634   5.157   5.757
 3943POPC   GL252238  14.500   4.802   5.751
 3943POPC   C1A52239  14.576   5.040   6.202
 3943POPC   D2A52240  14.282   5.086   6.550
 3943POPC   C3A52241  14.438   5.109   6.954
 3943POPC   C4A52242  14.466   5.265   7.361
 3943POPC   C1B52243  14.204   4.696   6.100
 3943POPC   C2B52244  14.220   4.581   6.545
 3943POPC   C3B52245  13.999   4.582   6.944
 3943POPC   C4B52246  14.156   4.785   7.304
 3944POPC   NC352247  34.540  40.967   5.295
 3944POPC   PO452248  34.581  40.384   5.637
 3944POPC   GL152249  34.744  40.754   5.753
 3944POPC   GL252250  34.518  41.000   5.799
 3944POPC   C1A52251  34.853  40.885   6.181
 3944POPC   D2A52252  34.904  40.644   6.580
 3944POPC   C3A52253  34.624  40.674   6.932
 3944POPC   C4A52254  34.741  40.729   7.360
 3944POPC   C1B52255  34.273  41.045   6.169
 3944POPC   C2B52256  34.413  40.966   6.567
 3944POPC   C3B52257  34.454  41.146   6.962
 3944POPC   C4B52258  34.337  41.055   7.404
 3945POPC   NC352259  38.857  11.549   5.581
 3945POPC   PO452260  39.514  11.489   5.362
 3945POPC   GL152261  39.556  11.413   5.799
 3945POPC   GL252262  39.218  11.241   5.825
 3945POPC   C1A52263  39.522  11.290   6.230
 3945POPC   D2A52264  39.337  11.170   6.613
 3945POPC   C3A52265  39.345  11.488   6.944
 3945POPC   C4A52266  39.340  11.286   7.310
 3945POPC   C1B52267  39.031  11.371   6.250
 3945POPC   C2B52268  38.943  11.515   6.657
 3945POPC   C3B52269  38.857  11.464   7.122
 3945POPC   C4B52270  39.052  11.663   7.506
 3946POPC   NC352271  41.790  22.614   5.345
 3946POPC   PO452272  41.904  23.359   5.470
 3946POPC   GL152273  41.756  23.012   5.801
 3946POPC   GL252274  41.507  22.694   5.774
 3946POPC   C1A52275  41.746  22.778   6.220
 3946POPC   D2A52276  41.524  22.713   6.611
 3946POPC   C3A52277  41.759  22.817   6.995
 3946POPC   C4A52278  41.491  23.005   7.286
 3946POPC   C1B52279  41.333  22.465   6.153
 3946POPC   C2B52280  41.573  22.215   6.474
 3946POPC   C3B52281  41.738  22.294   6.902
 3946POPC   C4B52282  41.459  22.481   7.237
 3947POPC   NC352283  15.966  41.149   5.463
 3947POPC   PO452284  15.971  40.478   5.416
 3947POPC   GL152285  15.944  40.745   5.812
 3947POPC   GL252286  15.666  41.017   5.854
 3947POPC   C1A52287  16.124  40.779   6.251
 3947POPC   D2A52288  15.965  40.588   6.617
 3947POPC   C3A52289  15.934  40.742   7.039
 3947POPC   C4A52290  16.194  40.893   7.388
 3947POPC   C1B52291  15.893  41.211   6.216
 3947POPC   C2B52292  16.011  41.131   6.674
 3947POPC   C3B52293  15.892  41.234   7.117
 3947POPC   C4B52294  15.707  41.067   7.498
 3948POPC   NC352295  43.774  42.903   5.388
 3948POPC   PO452296  44.282  43.330   5.434
 3948POPC   GL152297  44.145  43.106   5.831
 3948POPC   GL252298  43.814  42.994   5.882
 3948POPC   C1A52299  44.001  43.184   6.312
 3948POPC   D2A52300  43.736  43.346   6.670
 3948POPC   C3A52301  43.924  43.265   7.038
 3948POPC   C4A52302  44.240  42.974   7.179
 3948POPC   C1B52303  43.760  42.733   6.264
 3948POPC   C2B52304  43.969  42.658   6.650
 3948POPC   C3B52305  43.825  42.683   7.037
 3948POPC   C4B52306  43.747  42.908   7.338
 3949POPC   NC352307  38.622   0.101   5.367
 3949POPC   PO452308  38.126   0.548   5.481
 3949POPC   GL152309  38.480   0.417   5.750
 3949POPC   GL252310  38.262   0.235   5.928
 3949POPC   C1A52311  38.729   0.416   6.116
 3949POPC   D2A52312  38.660   0.143   6.475
 3949POPC   C3A52313  38.755   0.373   6.852
 3949POPC   C4A52314  38.561   0.454   7.253
 3949POPC   C1B52315  38.175   0.611   6.160
 3949POPC   C2B52316  37.994   0.794   6.528
 3949POPC   C3B52317  38.212   0.684   6.893
 3949POPC   C4B52318  38.263   0.852   7.278
 3950POPC   NC352319   1.444  17.780   5.505
 3950POPC   PO452320   1.023  17.293   5.493
 3950POPC   GL152321   1.316  17.384   5.818
 3950POPC   GL252322   1.127  17.672   5.913
 3950POPC   C1A52323   1.533  17.426   6.218
 3950POPC   D2A52324   1.523  17.645   6.623
 3950POPC   C3A52325   1.331  17.484   6.997
 3950POPC   C4A52326   1.235  17.490   7.439
 3950POPC   C1B52327   0.942  17.372   6.225
 3950POPC   C2B52328   0.747  17.262   6.656
 3950POPC   C3B52329   0.859  17.334   7.122
 3950POPC   C4B52330   0.933  17.084   7.497
 3951POPC   NC352331  20.178  33.214   5.351
 3951POPC   PO452332  19.480  32.960   5.332
 3951POPC   GL152333  19.705  32.888   5.710
 3951POPC   GL252334  19.742  33.251   5.828
 3951POPC   C1A52335  19.820  32.860   6.155
 3951POPC   D2A52336  19.750  33.104   6.511
 3951POPC   C3A52337  19.801  32.842   6.843
 3951POPC   C4A52338  19.750  32.877   7.260
 3951POPC   C1B52339  20.106  33.304   6.130
 3951POPC   C2B52340  20.256  33.125   6.509
 3951POPC   C3B52341  20.097  33.283   6.873
 3951POPC   C4B52342  20.109  33.239   7.292
 3952POPC   NC352343  18.555   8.394   5.501
 3952POPC   PO452344  18.051   7.897   5.456
 3952POPC   GL152345  18.344   8.010   5.795
 3952POPC   GL252346  18.153   8.305   5.822
 3952POPC   C1A52347  18.396   8.082   6.267
 3952POPC   D2A52348  18.219   7.899   6.683
 3952POPC   C3A52349  18.334   8.027   7.137
 3952POPC   C4A52350  18.714   8.220   7.406
 3952POPC   C1B52351  18.247   8.596   6.137
 3952POPC   C2B52352  18.100   8.451   6.533
 3952POPC   C3B52353  18.125   8.612   6.948
 3952POPC   C4B52354  18.327   8.514   7.289
 3953POPC   NC352355  10.107  42.092   5.135
 3953POPC   PO452356   9.573  42.371   5.258
 3953POPC   GL152357   9.629  42.363   5.739
 3953POPC   GL252358   9.457  42.083   5.908
 3953POPC   C1A52359   9.925  42.401   6.127
 3953POPC   D2A52360   9.994  42.381   6.611
 3953POPC   C3A52361   9.765  42.502   7.011
 3953POPC   C4A52362   9.937  42.601   7.426
 3953POPC   C1B52363   9.473  42.272   6.324
 3953POPC   C2B52364   9.616  42.056   6.674
 3953POPC   C3B52365   9.868  42.000   7.016
 3953POPC   C4B52366   9.510  42.092   7.260
 3954POPC   NC352367  37.523   4.525   5.452
 3954POPC   PO452368  38.096   4.209   5.197
 3954POPC   GL152369  37.940   4.225   5.697
 3954POPC   GL252370  38.119   4.492   5.967
 3954POPC   C1A52371  37.828   4.120   6.144
 3954POPC   D2A52372  37.934   4.342   6.556
 3954POPC   C3A52373  37.890   4.107   6.901
 3954POPC   C4A52374  37.572   4.040   7.210
 3954POPC   C1B52375  37.708   4.610   6.190
 3954POPC   C2B52376  37.448   4.473   6.558
 3954POPC   C3B52377  37.605   4.514   7.010
 3954POPC   C4B52378  37.403   4.605   7.413
 3955POPC   NC352379  38.048  27.265   5.490
 3955POPC   PO452380  37.460  26.838   5.323
 3955POPC   GL152381  37.681  26.904   5.783
 3955POPC   GL252382  38.019  26.809   5.786
 3955POPC   C1A52383  37.770  27.056   6.238
 3955POPC   D2A52384  37.556  27.164   6.652
 3955POPC   C3A52385  37.558  26.917   7.050
 3955POPC   C4A52386  37.617  27.103   7.513
 3955POPC   C1B52387  37.881  26.568   6.190
 3955POPC   C2B52388  37.865  26.676   6.652
 3955POPC   C3B52389  37.863  26.500   7.071
 3955POPC   C4B52390  37.783  26.631   7.524
 3956POPC   NC352391  11.178   0.422   5.047
 3956POPC   PO452392  11.509   0.620   5.570
 3956POPC   GL152393  11.286   0.413   5.868
 3956POPC   GL252394  11.072   0.679   5.861
 3956POPC   C1A52395  11.313   0.357   6.305
 3956POPC   D2A52396  11.556   0.288   6.670
 3956POPC   C3A52397  11.392   0.405   7.071
 3956POPC   C4A52398  11.456   0.326   7.511
 3956POPC   C1B52399  11.237   0.862   6.228
 3956POPC   C2B52400  11.321   0.761   6.627
 3956POPC   C3B52401  11.207   0.899   6.999
 3956POPC   C4B52402  11.213   0.763   7.423
 3957POPC   NC352403  33.685  38.774   5.355
 3957POPC   PO452404  34.022  38.323   5.693
 3957POPC   GL152405  33.661  38.271   5.887
 3957POPC   GL252406  33.638  38.648   5.860
 3957POPC   C1A52407  33.664  38.284   6.339
 3957POPC   D2A52408  33.795  38.620   6.569
 3957POPC   C3A52409  33.963  38.557   6.971
 3957POPC   C4A52410  33.758  38.324   7.276
 3957POPC   C1B52411  33.517  38.898   6.182
 3957POPC   C2B52412  33.328  38.853   6.543
 3957POPC   C3B52413  33.538  38.905   6.914
 3957POPC   C4B52414  33.673  38.842   7.299
 3958POPC   NC352415  13.375   1.368   5.456
 3958POPC   PO452416  13.576   0.758   5.506
 3958POPC   GL152417  13.731   0.998   5.824
 3958POPC   GL252418  13.774   1.333   5.807
 3958POPC   C1A52419  13.692   1.092   6.256
 3958POPC   D2A52420  13.670   1.342   6.604
 3958POPC   C3A52421  13.328   1.270   6.809
 3958POPC   C4A52422  13.352   1.033   7.121
 3958POPC   C1B52423  13.991   1.518   6.223
 3958POPC   C2B52424  13.936   1.766   6.628
 3958POPC   C3B52425  13.894   1.657   7.107
 3958POPC   C4B52426  13.995   1.822   7.533
 3959POPC   NC352427  18.763  21.850   5.337
 3959POPC   PO452428  19.012  22.391   5.161
 3959POPC   GL152429  19.015  22.232   5.608
 3959POPC   GL252430  18.679  22.158   5.746
 3959POPC   C1A52431  19.220  22.059   6.000
 3959POPC   D2A52432  19.378  21.971   6.440
 3959POPC   C3A52433  19.187  22.031   6.853
 3959POPC   C4A52434  19.323  22.293   7.182
 3959POPC   C1B52435  18.802  22.292   6.185
 3959POPC   C2B52436  18.742  22.182   6.633
 3959POPC   C3B52437  18.785  22.403   7.039
 3959POPC   C4B52438  19.007  22.616   7.420
 3960POPC   NC352439   8.802  12.390   5.297
 3960POPC   PO452440   9.134  11.809   5.220
 3960POPC   GL152441   9.067  12.139   5.659
 3960POPC   GL252442   9.089  12.490   5.731
 3960POPC   C1A52443   9.161  12.201   6.162
 3960POPC   D2A52444   9.369  12.187   6.606
 3960POPC   C3A52445   9.194  11.986   7.033
 3960POPC   C4A52446   9.106  11.845   7.486
 3960POPC   C1B52447   8.723  12.375   6.007
 3960POPC   C2B52448   8.663  12.220   6.449
 3960POPC   C3B52449   8.837  12.346   6.873
 3960POPC   C4B52450   8.927  12.314   7.335
 3961POPC   NC352451  25.954  32.706   5.418
 3961POPC   PO452452  25.917  33.395   5.321
 3961POPC   GL152453  26.112  33.135   5.693
 3961POPC   GL252454  25.846  33.178   5.959
 3961POPC   C1A52455  26.192  32.822   6.085
 3961POPC   D2A52456  26.346  32.898   6.535
 3961POPC   C3A52457  26.112  32.806   6.931
 3961POPC   C4A52458  26.246  32.855   7.395
 3961POPC   C1B52459  26.250  33.332   6.157
 3961POPC   C2B52460  26.409  33.418   6.576
 3961POPC   C3B52461  26.288  33.280   7.005
 3961POPC   C4B52462  25.875  33.163   7.240
 3962POPC   NC352463  10.401  30.034   5.435
 3962POPC   PO452464  10.814  29.537   5.446
 3962POPC   GL152465  10.668  29.711   5.831
 3962POPC   GL252466  10.313  29.733   5.852
 3962POPC   C1A52467  10.533  29.619   6.280
 3962POPC   D2A52468  10.559  29.555   6.687
 3962POPC   C3A52469  10.586  29.923   6.918
 3962POPC   C4A52470  10.659  29.918   7.324
 3962POPC   C1B52471  10.150  29.938   6.267
 3962POPC   C2B52472  10.100  29.874   6.746
 3962POPC   C3B52473  10.152  29.881   7.244
 3962POPC   C4B52474  10.312  30.210   7.528
 3963POPC   NC352475  20.959  27.788   5.052
 3963POPC   PO452476  21.041  27.245   5.446
 3963POPC   GL152477  21.201  27.465   5.908
 3963POPC   GL252478  21.202  27.812   5.844
 3963POPC   C1A52479  21.442  27.512   6.341
 3963POPC   D2A52480  21.558  27.782   6.741
 3963POPC   C3A52481  21.497  27.524   7.135
 3963POPC   C4A52482  21.489  27.290   7.532
 3963POPC   C1B52483  21.265  27.973   6.241
 3963POPC   C2B52484  21.064  27.752   6.605
 3963POPC   C3B52485  21.001  27.603   7.036
 3963POPC   C4B52486  21.124  27.660   7.517
 3964POPC   NC352487  28.907  10.377   5.439
 3964POPC   PO452488  29.119   9.696   5.293
 3964POPC   GL152489  29.128   9.960   5.691
 3964POPC   GL252490  29.209   9.686   5.888
 3964POPC   C1A52491  29.212  10.073   6.182
 3964POPC   D2A52492  29.286   9.864   6.568
 3964POPC   C3A52493  29.020  10.023   6.890
 3964POPC   C4A52494  28.981   9.887   7.290
 3964POPC   C1B52495  29.190   9.420   6.222
 3964POPC   C2B52496  28.940   9.435   6.577
 3964POPC   C3B52497  29.124   9.524   6.947
 3964POPC   C4B52498  29.318   9.426   7.310
 3965POPC   NC352499   0.512  42.991   5.540
 3965POPC   PO452500   0.467  42.451   5.123
 3965POPC   GL152501   0.448  42.415   5.564
 3965POPC   GL252502   0.226  42.621   5.751
 3965POPC   C1A52503   0.546  42.286   5.994
 3965POPC   D2A52504   0.421  42.197   6.426
 3965POPC   C3A52505   0.601  42.272   6.812
 3965POPC   C4A52506   0.706  42.004   7.122
 3965POPC   C1B52507   0.322  42.715   6.194
 3965POPC   C2B52508   0.355  42.750   6.650
 3965POPC   C3B52509   0.285  42.593   7.074
 3965POPC   C4B52510   0.485  42.410   7.429
 3966POPC   NC352511   9.290   4.842   5.452
 3966POPC   PO452512   8.928   5.346   5.637
 3966POPC   GL152513   9.045   5.014   5.869
 3966POPC   GL252514   9.425   5.072   5.882
 3966POPC   C1A52515   9.052   5.139   6.280
 3966POPC   D2A52516   9.271   5.272   6.625
 3966POPC   C3A52517   9.010   5.199   6.955
 3966POPC   C4A52518   8.834   5.291   7.324
 3966POPC   C1B52519   9.375   4.764   6.173
 3966POPC   C2B52520   9.242   4.757   6.575
 3966POPC   C3B52521   9.304   4.783   6.989
 3966POPC   C4B52522   9.234   4.946   7.370
 3967POPC   NC352523  43.640   3.971   5.087
 3967POPC   PO452524  44.134   3.666   5.425
 3967POPC   GL152525  43.967   3.624   5.840
 3967POPC   GL252526  43.678   3.473   5.785
 3967POPC   C1A52527  43.831   3.561   6.284
 3967POPC   D2A52528  43.607   3.558   6.673
 3967POPC   C3A52529  43.875   3.548   7.009
 3967POPC   C4A52530  43.838   3.776   7.381
 3967POPC   C1B52531  43.506   3.207   6.074
 3967POPC   C2B52532  43.547   3.100   6.498
 3967POPC   C3B52533  43.634   3.080   6.949
 3967POPC   C4B52534  43.569   3.319   7.347
 3968POPC   NC352535  36.243   3.423   5.464
 3968POPC   PO452536  35.654   3.799   5.361
 3968POPC   GL152537  35.846   3.767   5.810
 3968POPC   GL252538  36.070   3.488   5.925
 3968POPC   C1A52539  35.861   3.751   6.301
 3968POPC   D2A52540  35.945   3.542   6.727
 3968POPC   C3A52541  36.083   3.715   7.147
 3968POPC   C4A52542  35.877   3.836   7.556
 3968POPC   C1B52543  36.377   3.535   6.257
 3968POPC   C2B52544  36.394   3.310   6.652
 3968POPC   C3B52545  36.227   3.225   7.049
 3968POPC   C4B52546  36.434   3.401   7.380
 3969POPC   NC352547  26.985  21.530   5.347
 3969POPC   PO452548  27.573  21.162   5.301
 3969POPC   GL152549  27.561  21.392   5.700
 3969POPC   GL252550  27.243  21.439   5.778
 3969POPC   C1A52551  27.573  21.230   6.122
 3969POPC   D2A52552  27.504  21.072   6.511
 3969POPC   C3A52553  27.790  21.159   6.799
 3969POPC   C4A52554  27.820  21.339   7.169
 3969POPC   C1B52555  27.225  21.631   6.169
 3969POPC   C2B52556  27.437  21.576   6.560
 3969POPC   C3B52557  27.325  21.359   6.928
 3969POPC   C4B52558  27.096  21.519   7.289
 3970POPC   NC352559  35.968  40.415   5.482
 3970POPC   PO452560  35.937  39.752   5.223
 3970POPC   GL152561  36.029  39.808   5.709
 3970POPC   GL252562  36.203  40.116   5.813
 3970POPC   C1A52563  36.077  39.765   6.198
 3970POPC   D2A52564  36.343  39.748   6.605
 3970POPC   C3A52565  36.200  39.863   6.999
 3970POPC   C4A52566  36.157  39.941   7.440
 3970POPC   C1B52567  36.116  40.315   6.189
 3970POPC   C2B52568  36.089  40.195   6.603
 3970POPC   C3B52569  35.876  40.250   6.979
 3970POPC   C4B52570  36.022  40.433   7.375
 3971POPC   NC352571  17.921  36.387   5.380
 3971POPC   PO452572  17.766  37.000   5.429
 3971POPC   GL152573  17.598  36.951   5.810
 3971POPC   GL252574  17.286  36.805   5.718
 3971POPC   C1A52575  17.761  36.809   6.261
 3971POPC   D2A52576  17.581  36.671   6.689
 3971POPC   C3A52577  17.738  36.726   7.112
 3971POPC   C4A52578  17.573  36.976   7.467
 3971POPC   C1B52579  17.271  36.918   6.177
 3971POPC   C2B52580  17.468  37.146   6.526
 3971POPC   C3B52581  17.445  37.120   6.960
 3971POPC   C4B52582  17.157  37.230   7.253
 3972POPC   NC352583   4.522   3.299   5.349
 3972POPC   PO452584   4.088   3.714   5.157
 3972POPC   GL152585   4.224   3.637   5.640
 3972POPC   GL252586   3.916   3.617   5.838
 3972POPC   C1A52587   4.321   3.465   6.128
 3972POPC   D2A52588   4.290   3.324   6.609
 3972POPC   C3A52589   4.557   3.416   7.013
 3972POPC   C4A52590   4.646   3.634   7.435
 3972POPC   C1B52591   3.946   3.814   6.242
 3972POPC   C2B52592   3.828   3.673   6.645
 3972POPC   C3B52593   4.040   3.536   7.010
 3972POPC   C4B52594   4.186   3.442   7.404
 3973POPC   NC352595  21.146  16.695   4.986
 3973POPC   PO452596  21.536  16.978   5.350
 3973POPC   GL152597  21.662  16.751   5.727
 3973POPC   GL252598  21.345  16.587   5.817
 3973POPC   C1A52599  21.550  16.875   6.174
 3973POPC   D2A52600  21.421  16.829   6.627
 3973POPC   C3A52601  21.661  16.619   6.967
 3973POPC   C4A52602  21.547  16.646   7.410
 3973POPC   C1B52603  21.333  16.424   6.268
 3973POPC   C2B52604  21.322  16.309   6.722
 3973POPC   C3B52605  21.249  16.325   7.172
 3973POPC   C4B52606  21.511  16.157   7.532
 3974POPC   NC352607  44.896  40.570   5.676
 3974POPC   PO452608  44.344  40.226   5.400
 3974POPC   GL152609  44.300  40.178   5.825
 3974POPC   GL252610  44.595  40.285   5.981
 3974POPC   C1A52611  44.237  40.013   6.229
 3974POPC   D2A52612  44.454  40.258   6.537
 3974POPC   C3A52613  44.650  40.040   6.849
 3974POPC   C4A52614  44.464  39.927   7.218
 3974POPC   C1B52615  44.907  40.129   6.279
 3974POPC   C2B52616   0.134  40.181   6.667
 3974POPC   C3B52617   0.007  40.373   7.024
 3974POPC   C4B52618  44.989  40.041   7.279
 3975POPC   NC352619  14.228  31.903   5.406
 3975POPC   PO452620  14.461  32.531   5.452
 3975POPC   GL152621  14.315  32.415   5.841
 3975POPC   GL252622  14.462  32.103   5.824
 3975POPC   C1A52623  14.330  32.413   6.290
 3975POPC   D2A52624  14.504  32.234   6.661
 3975POPC   C3A52625  14.558  32.412   7.065
 3975POPC   C4A52626  14.519  32.455   7.526
 3975POPC   C1B52627  14.578  31.924   6.229
 3975POPC   C2B52628  14.534  31.731   6.629
 3975POPC   C3B52629  14.337  31.870   6.981
 3975POPC   C4B52630  14.442  31.976   7.387
 3976POPC   NC352631   1.972   0.760   5.204
 3976POPC   PO452632   2.332   1.342   5.427
 3976POPC   GL152633   2.080   1.265   5.798
 3976POPC   GL252634   2.338   1.220   5.977
 3976POPC   C1A52635   1.872   1.347   6.206
 3976POPC   D2A52636   1.749   1.682   6.526
 3976POPC   C3A52637   1.859   1.507   6.966
 3976POPC   C4A52638   1.746   1.083   7.153
 3976POPC   C1B52639   2.301   0.849   6.202
 3976POPC   C2B52640   2.265   0.961   6.612
 3976POPC   C3B52641   2.163   0.753   6.994
 3976POPC   C4B52642   2.138   0.875   7.422
 3977POPC   NC352643  31.253  16.187   4.896
 3977POPC   PO452644  31.214  15.775   5.427
 3977POPC   GL152645  31.391  15.760   5.796
 3977POPC   GL252646  31.385  16.137   5.809
 3977POPC   C1A52647  31.516  15.818   6.209
 3977POPC   D2A52648  31.675  15.725   6.589
 3977POPC   C3A52649  31.409  15.877   6.907
 3977POPC   C4A52650  31.523  15.838   7.308
 3977POPC   C1B52651  31.281  16.266   6.233
 3977POPC   C2B52652  31.073  16.144   6.636
 3977POPC   C3B52653  31.135  16.327   7.063
 3977POPC   C4B52654  31.455  16.356   7.413
 3978POPC   NC352655  19.609  40.853   5.557
 3978POPC   PO452656  20.116  40.434   5.535
 3978POPC   GL152657  19.962  40.661   5.885
 3978POPC   GL252658  20.034  41.021   5.866
 3978POPC   C1A52659  19.850  40.599   6.312
 3978POPC   D2A52660  20.061  40.356   6.612
 3978POPC   C3A52661  19.938  40.509   6.998
 3978POPC   C4A52662  19.698  40.523   7.429
 3978POPC   C1B52663  19.845  41.113   6.299
 3978POPC   C2B52664  19.802  41.165   6.765
 3978POPC   C3B52665  19.769  40.943   7.158
 3978POPC   C4B52666  19.882  40.988   7.619
 3979POPC   NC352667  29.212  16.325   5.557
 3979POPC   PO452668  28.769  16.839   5.452
 3979POPC   GL152669  28.959  16.674   5.847
 3979POPC   GL252670  28.955  16.341   5.983
 3979POPC   C1A52671  29.205  16.742   6.257
 3979POPC   D2A52672  29.301  16.966   6.645
 3979POPC   C3A52673  29.211  16.800   7.057
 3979POPC   C4A52674  29.168  16.867   7.511
 3979POPC   C1B52675  28.728  16.584   6.274
 3979POPC   C2B52676  28.862  16.671   6.664
 3979POPC   C3B52677  28.787  16.467   7.017
 3979POPC   C4B52678  28.733  16.649   7.387
 3980POPC   NC352679  24.943  31.809   5.338
 3980POPC   PO452680  25.445  31.310   5.417
 3980POPC   GL152681  25.092  31.430   5.668
 3980POPC   GL252682  25.352  31.605   5.818
 3980POPC   C1A52683  24.962  31.466   6.117
 3980POPC   D2A52684  25.019  31.543   6.545
 3980POPC   C3A52685  25.295  31.413   6.869
 3980POPC   C4A52686  25.085  31.581   7.228
 3980POPC   C1B52687  25.357  31.787   6.183
 3980POPC   C2B52688  25.522  31.754   6.568
 3980POPC   C3B52689  25.492  31.888   6.947
 3980POPC   C4B52690  25.292  32.065   7.290
 3981POPC   NC352691   1.043  34.848   5.467
 3981POPC   PO452692   1.182  34.228   5.539
 3981POPC   GL152693   1.085  34.513   5.856
 3981POPC   GL252694   1.407  34.606   5.939
 3981POPC   C1A52695   1.029  34.626   6.290
 3981POPC   D2A52696   1.204  34.615   6.697
 3981POPC   C3A52697   0.953  34.412   6.988
 3981POPC   C4A52698   1.020  34.192   7.321
 3981POPC   C1B52699   1.299  34.208   6.216
 3981POPC   C2B52700   1.257  34.081   6.652
 3981POPC   C3B52701   1.458  34.263   7.002
 3981POPC   C4B52702   1.499  34.335   7.415
 3982POPC   NC352703  15.588  19.957   5.532
 3982POPC   PO452704  16.276  19.978   5.504
 3982POPC   GL152705  16.088  19.960   5.891
 3982POPC   GL252706  15.864  20.228   5.862
 3982POPC   C1A52707  16.072  19.713   6.278
 3982POPC   D2A52708  16.234  19.643   6.692
 3982POPC   C3A52709  15.878  19.531   6.944
 3982POPC   C4A52710  15.789  19.584   7.374
 3982POPC   C1B52711  15.794  20.172   6.298
 3982POPC   C2B52712  15.778  19.983   6.707
 3982POPC   C3B52713  15.900  20.007   7.141
 3982POPC   C4B52714  15.782  20.090   7.586
 3983POPC   NC352715  15.499  21.451   5.278
 3983POPC   PO452716  14.955  21.118   5.427
 3983POPC   GL152717  15.023  21.317   5.820
 3983POPC   GL252718  15.358  21.477   5.839
 3983POPC   C1A52719  15.129  21.228   6.255
 3983POPC   D2A52720  15.422  21.387   6.594
 3983POPC   C3A52721  15.342  21.146   6.950
 3983POPC   C4A52722  14.944  21.024   7.105
 3983POPC   C1B52723  15.223  21.725   6.232
 3983POPC   C2B52724  15.250  21.892   6.665
 3983POPC   C3B52725  15.190  21.666   7.056
 3983POPC   C4B52726  14.946  21.711   7.449
 3984POPC   NC352727  12.149  12.620   5.306
 3984POPC   PO452728  11.968  11.986   5.328
 3984POPC   GL152729  11.951  12.209   5.709
 3984POPC   GL252730  12.221  12.405   5.778
 3984POPC   C1A52731  11.850  12.131   6.174
 3984POPC   D2A52732  12.069  12.058   6.608
 3984POPC   C3A52733  11.896  11.874   7.015
 3984POPC   C4A52734  12.009  11.653   7.421
 3984POPC   C1B52735  12.267  12.421   6.218
 3984POPC   C2B52736  12.482  12.361   6.591
 3984POPC   C3B52737  12.340  12.225   7.024
 3984POPC   C4B52738  12.077  12.159   7.400
 3985POPC   NC352739   9.210  41.359   5.527
 3985POPC   PO452740   8.501  41.243   5.461
 3985POPC   GL152741   8.713  41.523   5.831
 3985POPC   GL252742   8.894  41.874   5.800
 3985POPC   C1A52743   8.656  41.740   6.270
 3985POPC   D2A52744   8.672  41.733   6.741
 3985POPC   C3A52745   8.912  41.410   6.934
 3985POPC   C4A52746   9.233  41.213   7.147
 3985POPC   C1B52747   9.153  41.669   6.147
 3985POPC   C2B52748   9.258  41.559   6.567
 3985POPC   C3B52749   9.357  41.699   6.982
 3985POPC   C4B52750   9.287  41.666   7.432
 3986POPC   NC352751  31.886  12.849   5.470
 3986POPC   PO452752  32.512  13.091   5.286
 3986POPC   GL152753  32.450  12.808   5.666
 3986POPC   GL252754  32.124  12.852   5.908
 3986POPC   C1A52755  32.556  12.732   6.129
 3986POPC   D2A52756  32.498  12.976   6.531
 3986POPC   C3A52757  32.585  12.828   6.943
 3986POPC   C4A52758  32.449  12.609   7.298
 3986POPC   C1B52759  32.002  12.654   6.307
 3986POPC   C2B52760  32.061  12.675   6.770
 3986POPC   C3B52761  32.096  12.940   7.137
 3986POPC   C4B52762  32.008  12.959   7.606
 3987POPC   NC352763  30.166  29.081   5.448
 3987POPC   PO452764  29.749  29.528   5.339
 3987POPC   GL152765  29.636  29.297   5.741
 3987POPC   GL252766  29.641  28.943   5.862
 3987POPC   C1A52767  29.500  29.309   6.212
 3987POPC   D2A52768  29.599  29.160   6.661
 3987POPC   C3A52769  29.903  29.320   6.950
 3987POPC   C4A52770  29.679  29.291   7.302
 3987POPC   C1B52771  29.879  28.936   6.282
 3987POPC   C2B52772  30.074  28.882   6.721
 3987POPC   C3B52773  30.053  28.873   7.209
 3987POPC   C4B52774  30.113  28.821   7.706
 3988POPC   NC352775  31.962  40.027   5.487
 3988POPC   PO452776  32.283  39.471   5.464
 3988POPC   GL152777  32.390  39.743   5.782
 3988POPC   GL252778  32.382  40.102   5.778
 3988POPC   C1A52779  32.569  39.821   6.188
 3988POPC   D2A52780  32.563  40.111   6.533
 3988POPC   C3A52781  32.332  40.026   6.908
 3988POPC   C4A52782  32.486  39.851   7.267
 3988POPC   C1B52783  32.112  40.119   6.169
 3988POPC   C2B52784  31.926  40.138   6.595
 3988POPC   C3B52785  31.942  40.359   6.974
 3988POPC   C4B52786  32.042  40.455   7.373
 3989POPC   NC352787  36.055  23.377   5.570
 3989POPC   PO452788  36.406  23.927   5.473
 3989POPC   GL152789  36.275  23.786   5.864
 3989POPC   GL252790  35.971  23.681   5.967
 3989POPC   C1A52791  36.355  23.698   6.306
 3989POPC   D2A52792  36.107  23.709   6.679
 3989POPC   C3A52793  36.340  23.536   7.010
 3989POPC   C4A52794  36.309  23.500   7.436
 3989POPC   C1B52795  35.798  23.880   6.273
 3989POPC   C2B52796  35.846  24.157   6.590
 3989POPC   C3B52797  35.721  24.120   6.981
 3989POPC   C4B52798  35.861  23.722   7.175
 3990POPC   NC352799  36.889  20.980   5.316
 3990POPC   PO452800  36.641  21.529   5.509
 3990POPC   GL152801  36.893  21.271   5.763
 3990POPC   GL252802  37.162  21.506   5.840
 3990POPC   C1A52803  36.961  21.127   6.193
 3990POPC   D2A52804  36.997  21.214   6.633
 3990POPC   C3A52805  36.877  20.998   6.985
 3990POPC   C4A52806  36.616  21.281   7.260
 3990POPC   C1B52807  37.109  21.690   6.275
 3990POPC   C2B52808  37.079  21.717   6.757
 3990POPC   C3B52809  37.103  21.427   7.140
 3990POPC   C4B52810  37.181  21.489   7.636
 3991POPC   NC352811  18.190  24.797   5.304
 3991POPC   PO452812  18.223  25.429   5.370
 3991POPC   GL152813  18.285  25.183   5.723
 3991POPC   GL252814  18.014  24.988   5.748
 3991POPC   C1A52815  18.552  25.027   6.036
 3991POPC   D2A52816  18.672  25.000   6.464
 3991POPC   C3A52817  18.370  25.156   6.760
 3991POPC   C4A52818  18.393  25.235   7.189
 3991POPC   C1B52819  18.038  24.989   6.196
 3991POPC   C2B52820  17.947  24.873   6.631
 3991POPC   C3B52821  17.886  25.069   7.049
 3991POPC   C4B52822  18.006  25.110   7.513
 3992POPC   NC352823  30.514  17.036   5.642
 3992POPC   PO452824  30.385  16.364   5.430
 3992POPC   GL152825  30.635  16.384   5.805
 3992POPC   GL252826  30.669  16.697   5.962
 3992POPC   C1A52827  30.771  16.297   6.232
 3992POPC   D2A52828  30.620  16.614   6.475
 3992POPC   C3A52829  30.683  16.513   6.866
 3992POPC   C4A52830  30.689  16.667   7.256
 3992POPC   C1B52831  30.689  17.070   6.241
 3992POPC   C2B52832  30.429  17.087   6.570
 3992POPC   C3B52833  30.627  17.042   6.931
 3992POPC   C4B52834  30.852  17.185   7.275
 3993POPC   NC352835  35.947  26.139   5.345
 3993POPC   PO452836  36.630  26.345   5.398
 3993POPC   GL152837  36.298  26.093   5.715
 3993POPC   GL252838  35.974  26.259   5.837
 3993POPC   C1A52839  36.208  25.921   6.149
 3993POPC   D2A52840  36.410  26.021   6.577
 3993POPC   C3A52841  36.249  25.893   6.991
 3993POPC   C4A52842  36.226  26.089   7.417
 3993POPC   C1B52843  35.813  26.229   6.260
 3993POPC   C2B52844  35.900  26.174   6.700
 3993POPC   C3B52845  35.809  26.187   7.151
 3993POPC   C4B52846  35.753  26.277   7.609
 3994POPC   NC352847  42.066   3.836   5.771
 3994POPC   PO452848  42.308   4.436   5.417
 3994POPC   GL152849  42.372   4.239   5.784
 3994POPC   GL252850  42.028   4.336   5.880
 3994POPC   C1A52851  42.433   4.246   6.216
 3994POPC   D2A52852  42.377   4.567   6.556
 3994POPC   C3A52853  42.417   4.422   6.963
 3994POPC   C4A52854  42.636   4.185   7.274
 3994POPC   C1B52855  41.925   4.467   6.313
 3994POPC   C2B52856  41.893   4.459   6.773
 3994POPC   C3B52857  41.988   4.270   7.178
 3994POPC   C4B52858  41.896   3.939   7.418
 3995POPC   NC352859   9.039   0.628   5.507
 3995POPC   PO452860   8.709   0.037   5.494
 3995POPC   GL152861   8.888   0.244   5.845
 3995POPC   GL252862   8.655   0.510   5.854
 3995POPC   C1A52863   9.102   0.281   6.237
 3995POPC   D2A52864   9.380   0.468   6.562
 3995POPC   C3A52865   9.251   0.323   6.968
 3995POPC   C4A52866   9.127   0.468   7.373
 3995POPC   C1B52867   8.574   0.386   6.251
 3995POPC   C2B52868   8.810   0.418   6.627
 3995POPC   C3B52869   8.776   0.556   6.991
 3995POPC   C4B52870   8.665   0.286   7.307
 3996POPC   NC352871  15.050  26.264   5.363
 3996POPC   PO452872  15.602  25.901   5.180
 3996POPC   GL152873  15.411  26.091   5.634
 3996POPC   GL252874  15.154  25.843   5.734
 3996POPC   C1A52875  15.305  26.177   6.101
 3996POPC   D2A52876  15.375  25.942   6.523
 3996POPC   C3A52877  15.497  26.122   6.952
 3996POPC   C4A52878  15.331  25.962   7.377
 3996POPC   C1B52879  15.067  25.694   6.169
 3996POPC   C2B52880  15.041  25.516   6.603
 3996POPC   C3B52881  15.001  25.710   7.016
 3996POPC   C4B52882  14.605  25.798   7.204
 3997POPC   NC352883   9.816  29.241   5.263
 3997POPC   PO452884   9.233  29.392   5.358
 3997POPC   GL152885   9.567  29.347   5.727
 3997POPC   GL252886   9.951  29.240   5.769
 3997POPC   C1A52887   9.566  29.272   6.177
 3997POPC   D2A52888   9.801  28.989   6.457
 3997POPC   C3A52889   9.780  29.005   6.916
 3997POPC   C4A52890   9.596  29.226   7.285
 3997POPC   C1B52891  10.067  29.414   6.172
 3997POPC   C2B52892  10.068  29.389   6.614
 3997POPC   C3B52893   9.991  29.453   7.038
 3997POPC   C4B52894  10.061  29.378   7.465
 3998POPC   NC352895  33.486  42.385   5.465
 3998POPC   PO452896  34.155  42.062   5.513
 3998POPC   GL152897  33.838  42.266   5.817
 3998POPC   GL252898  33.480  42.101   5.890
 3998POPC   C1A52899  33.682  42.513   6.190
 3998POPC   D2A52900  33.601  42.714   6.610
 3998POPC   C3A52901  33.725  42.615   7.039
 3998POPC   C4A52902  33.570  42.578   7.491
 3998POPC   C1B52903  33.591  42.002   6.322
 3998POPC   C2B52904  33.512  42.214   6.734
 3998POPC   C3B52905  33.529  42.168   7.175
 3998POPC   C4B52906  33.552  42.110   7.618
 3999POPC   NC352907  14.667   0.026   5.280
 3999POPC   PO452908  15.196   0.584   5.391
 3999POPC   GL152909  15.038   0.613   5.820
 3999POPC   GL252910  15.351   0.629   5.887
 3999POPC   C1A52911  14.936   0.469   6.260
 3999POPC   D2A52912  14.839   0.439   6.722
 3999POPC   C3A52913  15.218   0.491   7.027
 3999POPC   C4A52914  15.166   0.573   7.501
 3999POPC   C1B52915  15.564   0.810   6.205
 3999POPC   C2B52916  15.630   0.606   6.580
 3999POPC   C3B52917  15.725   0.765   6.966
 3999POPC   C4B52918  15.462   0.993   7.215
 4000POPC   NC352919  19.824  12.078   5.051
 4000POPC   PO452920  19.442  11.665   5.433
 4000POPC   GL152921  19.575  11.953   5.746
 4000POPC   GL252922  19.782  11.718   5.832
 4000POPC   C1A52923  19.742  12.019   6.216
 4000POPC   D2A52924  19.846  11.751   6.585
 4000POPC   C3A52925  19.723  11.883   7.005
 4000POPC   C4A52926  19.896  12.099   7.381
 4000POPC   C1B52927  20.219  11.785   6.059
 4000POPC   C2B52928  20.371  11.712   6.497
 4000POPC   C3B52929  20.244  11.831   6.932
 4000POPC   C4B52930  20.314  11.720   7.357
 4001POPC   NC352931   5.819  15.423   5.207
 4001POPC   PO452932   5.817  14.776   5.207
 4001POPC   GL152933   5.725  15.093   5.639
 4001POPC   GL252934   5.665  14.878   5.895
 4001POPC   C1A52935   5.986  15.191   6.088
 4001POPC   D2A52936   5.773  15.223   6.512
 4001POPC   C3A52937   5.965  15.325   6.929
 4001POPC   C4A52938   6.270  15.103   7.250
 4001POPC   C1B52939   5.818  14.740   6.287
 4001POPC   C2B52940   5.671  14.601   6.662
 4001POPC   C3B52941   5.534  14.976   6.899
 4001POPC   C4B52942   5.743  15.062   7.287
 4002POPC   NC352943  26.362   1.358   5.080
 4002POPC   PO452944  26.060   0.984   5.408
 4002POPC   GL152945  26.226   1.115   5.832
 4002POPC   GL252946  26.076   1.439   5.893
 4002POPC   C1A52947  26.127   1.150   6.310
 4002POPC   D2A52948  26.129   1.231   6.757
 4002POPC   C3A52949  26.184   0.900   7.063
 4002POPC   C4A52950  26.311   0.925   7.506
 4002POPC   C1B52951  26.316   1.631   6.243
 4002POPC   C2B52952  26.379   1.696   6.698
 4002POPC   C3B52953  26.129   1.644   7.089
 4002POPC   C4B52954  25.932   1.773   7.511
 4003POPC   NC352955  25.492  18.370   5.535
 4003POPC   PO452956  25.003  18.761   5.176
 4003POPC   GL152957  24.975  18.529   5.640
 4003POPC   GL252958  25.019  18.162   5.717
 4003POPC   C1A52959  25.225  18.465   6.101
 4003POPC   D2A52960  25.169  18.359   6.543
 4003POPC   C3A52961  25.478  18.476   6.830
 4003POPC   C4A52962  25.487  18.368   7.257
 4003POPC   C1B52963  24.936  18.059   6.195
 4003POPC   C2B52964  24.878  17.915   6.662
 4003POPC   C3B52965  24.855  17.883   7.113
 4003POPC   C4B52966  24.904  17.972   7.599
 4004POPC   NC352967  42.429  23.358   5.349
 4004POPC   PO452968  42.604  22.674   5.317
 4004POPC   GL152969  42.399  22.940   5.634
 4004POPC   GL252970  42.657  23.171   5.770
 4004POPC   C1A52971  42.221  22.929   6.051
 4004POPC   D2A52972  42.434  22.843   6.452
 4004POPC   C3A52973  42.192  22.625   6.771
 4004POPC   C4A52974  42.294  22.749   7.170
 4004POPC   C1B52975  42.525  23.301   6.208
 4004POPC   C2B52976  42.312  23.318   6.631
 4004POPC   C3B52977  42.325  23.243   7.082
 4004POPC   C4B52978  42.542  23.424   7.467
 4005POPC   NC352979   0.720  32.431   5.460
 4005POPC   PO452980   0.181  32.134   5.362
 4005POPC   GL152981   0.247  32.284   5.808
 4005POPC   GL252982   0.538  32.490   5.929
 4005POPC   C1A52983   0.238  32.303   6.284
 4005POPC   D2A52984   0.339  32.434   6.713
 4005POPC   C3A52985   0.108  32.203   7.053
 4005POPC   C4A52986   0.104  32.212   7.546
 4005POPC   C1B52987   0.755  32.116   6.112
 4005POPC   C2B52988   0.829  32.043   6.551
 4005POPC   C3B52989   0.718  32.204   6.967
 4005POPC   C4B52990   0.519  32.043   7.316
 4006POPC   NC352991  37.945  41.563   5.355
 4006POPC   PO452992  37.301  41.487   5.384
 4006POPC   GL152993  37.552  41.387   5.707
 4006POPC   GL252994  37.653  41.671   5.779
 4006POPC   C1A52995  37.683  41.333   6.153
 4006POPC   D2A52996  37.774  41.142   6.543
 4006POPC   C3A52997  37.635  41.339   6.906
 4006POPC   C4A52998  37.767  41.425   7.281
 4006POPC   C1B52999  37.517  41.879   6.156
 4006POPC   C2B53000  37.436  42.046   6.565
 4006POPC   C3B53001  37.308  41.772   6.913
 4006POPC   C4B53002  37.342  41.714   7.355
 4007POPC   NC353003   8.902  19.547   5.323
 4007POPC   PO453004   9.150  20.196   5.386
 4007POPC   GL153005   9.061  19.869   5.707
 4007POPC   GL253006   8.735  19.774   5.784
 4007POPC   C1A53007   9.146  19.704   6.150
 4007POPC   D2A53008   9.068  19.785   6.603
 4007POPC   C3A53009   8.973  19.497   6.964
 4007POPC   C4A53010   9.080  19.718   7.360
 4007POPC   C1B53011   8.628  19.962   6.196
 4007POPC   C2B53012   8.552  19.788   6.605
 4007POPC   C3B53013   8.699  19.925   7.005
 4007POPC   C4B53014   8.578  20.082   7.402
 4008POPC   NC353015  34.330  11.622   5.303
 4008POPC   PO453016  34.677  10.988   5.454
 4008POPC   GL153017  34.681  11.341   5.768
 4008POPC   GL253018  34.897  11.649   5.805
 4008POPC   C1A53019  34.669  11.183   6.190
 4008POPC   D2A53020  34.338  11.074   6.481
 4008POPC   C3A53021  34.362  11.150   6.930
 4008POPC   C4A53022  34.705  10.994   7.186
 4008POPC   C1B53023  34.653  11.684   6.222
 4008POPC   C2B53024  34.651  11.461   6.635
 4008POPC   C3B53025  34.778  11.512   7.094
 4008POPC   C4B53026  34.916  11.744   7.478
 4009POPC   NC353027  33.366  35.509   5.503
 4009POPC   PO453028  34.001  35.227   5.421
 4009POPC   GL153029  33.790  35.388   5.761
 4009POPC   GL253030  33.531  35.130   5.811
 4009POPC   C1A53031  33.709  35.402   6.195
 4009POPC   D2A53032  33.527  35.316   6.582
 4009POPC   C3A53033  33.857  35.161   6.816
 4009POPC   C4A53034  34.092  35.397   7.095
 4009POPC   C1B53035  33.297  35.048   6.202
 4009POPC   C2B53036  33.133  35.010   6.600
 4009POPC   C3B53037  33.370  35.042   6.984
 4009POPC   C4B53038  33.579  35.361   7.203
 4010POPC   NC353039  14.633  10.894   5.560
 4010POPC   PO453040  14.147  10.471   5.542
 4010POPC   GL153041  14.421  10.292   5.861
 4010POPC   GL253042  14.681  10.530   5.900
 4010POPC   C1A53043  14.433  10.395   6.315
 4010POPC   D2A53044  14.220  10.723   6.512
 4010POPC   C3A53045  14.151  10.648   6.941
 4010POPC   C4A53046  14.210  10.254   7.174
 4010POPC   C1B53047  14.675  10.841   6.231
 4010POPC   C2B53048  14.763  10.700   6.634
 4010POPC   C3B53049  14.676  10.432   6.957
 4010POPC   C4B53050  14.517  10.702   7.269
 4011POPC   NC353051   5.993   3.324   5.436
 4011POPC   PO453052   5.705   3.980   5.355
 4011POPC   GL153053   5.876   3.763   5.763
 4011POPC   GL253054   5.820   3.407   5.906
 4011POPC   C1A53055   5.733   3.832   6.201
 4011POPC   D2A53056   5.652   3.578   6.565
 4011POPC   C3A53057   5.821   3.702   6.950
 4011POPC   C4A53058   5.669   3.717   7.371
 4011POPC   C1B53059   6.139   3.540   6.190
 4011POPC   C2B53060   6.374   3.361   6.462
 4011POPC   C3B53061   6.225   3.412   6.842
 4011POPC   C4B53062   6.335   3.315   7.230
 4012POPC   NC353063  18.593  25.711   5.338
 4012POPC   PO453064  18.100  26.180   5.481
 4012POPC   GL153065  18.420  26.033   5.748
 4012POPC   GL253066  18.316  25.709   5.772
 4012POPC   C1A53067  18.266  26.009   6.175
 4012POPC   D2A53068  18.047  26.169   6.504
 4012POPC   C3A53069  18.136  26.070   6.875
 4012POPC   C4A53070  18.333  26.003   7.230
 4012POPC   C1B53071  18.088  25.523   6.109
 4012POPC   C2B53072  18.194  25.620   6.545
 4012POPC   C3B53073  18.052  25.571   6.987
 4012POPC   C4B53074  18.113  25.607   7.434
 4013POPC   NC353075  20.540  32.205   5.224
 4013POPC   PO453076  20.280  32.758   5.331
 4013POPC   GL153077  20.437  32.482   5.767
 4013POPC   GL253078  20.454  32.137   5.734
 4013POPC   C1A53079  20.768  32.488   6.121
 4013POPC   D2A53080  20.893  32.360   6.563
 4013POPC   C3A53081  20.624  32.446   6.890
 4013POPC   C4A53082  20.633  32.548   7.298
 4013POPC   C1B53083  20.456  32.096   6.174
 4013POPC   C2B53084  20.310  32.128   6.602
 4013POPC   C3B53085  20.450  31.983   7.028
 4013POPC   C4B53086  20.859  32.111   7.240
 4014POPC   NC353087  23.969  17.748   5.536
 4014POPC   PO453088  23.436  17.310   5.306
 4014POPC   GL153089  23.519  17.474   5.749
 4014POPC   GL253090  23.843  17.328   5.831
 4014POPC   C1A53091  23.555  17.715   6.182
 4014POPC   D2A53092  23.847  17.868   6.540
 4014POPC   C3A53093  23.801  17.613   6.925
 4014POPC   C4A53094  23.378  17.465   7.036
 4014POPC   C1B53095  24.084  17.498   6.194
 4014POPC   C2B53096  24.164  17.403   6.631
 4014POPC   C3B53097  24.203  17.279   7.068
 4014POPC   C4B53098  24.098  17.420   7.504
 4015POPC   NC353099   3.367  35.017   5.346
 4015POPC   PO453100   3.384  35.721   5.502
 4015POPC   GL153101   3.588  35.386   5.729
 4015POPC   GL253102   3.316  35.166   5.831
 4015POPC   C1A53103   3.769  35.106   6.070
 4015POPC   D2A53104   3.784  34.945   6.506
 4015POPC   C3A53105   3.704  35.164   6.891
 4015POPC   C4A53106   3.652  35.147   7.360
 4015POPC   C1B53107   3.402  35.393   6.237
 4015POPC   C2B53108   3.420  35.553   6.641
 4015POPC   C3B53109   3.378  35.509   7.087
 4015POPC   C4B53110   3.160  35.400   7.456
 4016POPC   NC353111   9.128  31.950   5.515
 4016POPC   PO453112   8.914  31.237   5.460
 4016POPC   GL153113   8.869  31.343   5.886
 4016POPC   GL253114   9.074  31.622   5.900
 4016POPC   C1A53115   8.757  31.549   6.282
 4016POPC   D2A53116   8.962  31.775   6.574
 4016POPC   C3A53117   8.855  31.526   6.891
 4016POPC   C4A53118   8.774  31.601   7.265
 4016POPC   C1B53119   9.293  31.501   6.285
 4016POPC   C2B53120   9.342  31.474   6.728
 4016POPC   C3B53121   9.296  31.545   7.164
 4016POPC   C4B53122   9.159  31.397   7.552
 4017POPC   NC353123   3.516  13.220   5.458
 4017POPC   PO453124   3.825  12.661   5.310
 4017POPC   GL153125   3.660  12.723   5.769
 4017POPC   GL253126   3.492  13.018   5.917
 4017POPC   C1A53127   3.366  12.543   6.129
 4017POPC   D2A53128   3.208  12.617   6.580
 4017POPC   C3A53129   3.530  12.770   6.837
 4017POPC   C4A53130   3.665  12.759   7.216
 4017POPC   C1B53131   3.498  12.993   6.335
 4017POPC   C2B53132   3.288  13.179   6.652
 4017POPC   C3B53133   3.279  13.106   7.093
 4017POPC   C4B53134   3.537  13.289   7.353
 4018POPC   NC353135   6.484  42.007   5.668
 4018POPC   PO453136   6.984  41.703   5.317
 4018POPC   GL153137   6.750  41.566   5.742
 4018POPC   GL253138   6.904  41.462   5.989
 4018POPC   C1A53139   6.467  41.547   6.195
 4018POPC   D2A53140   6.462  41.259   6.561
 4018POPC   C3A53141   6.508  41.387   6.984
 4018POPC   C4A53142   6.450  41.765   7.142
 4018POPC   C1B53143   6.922  41.462   6.425
 4018POPC   C2B53144   6.798  41.728   6.711
 4018POPC   C3B53145   6.962  41.671   7.084
 4018POPC   C4B53146   6.868  41.453   7.442
 4019POPC   NC353147  30.965   0.927   5.513
 4019POPC   PO453148  30.543   1.424   5.364
 4019POPC   GL153149  30.507   1.392   5.803
 4019POPC   GL253150  30.560   1.035   5.852
 4019POPC   C1A53151  30.616   1.631   6.188
 4019POPC   D2A53152  30.690   1.663   6.631
 4019POPC   C3A53153  30.524   1.336   6.894
 4019POPC   C4A53154  30.652   1.434   7.294
 4019POPC   C1B53155  30.823   1.145   6.197
 4019POPC   C2B53156  30.977   1.194   6.620
 4019POPC   C3B53157  31.078   0.935   6.968
 4019POPC   C4B53158  31.044   1.105   7.354
 4020POPC   NC353159  11.734  29.012   5.393
 4020POPC   PO453160  12.245  29.345   5.289
 4020POPC   GL153161  12.020  29.286   5.721
 4020POPC   GL253162  11.918  28.913   5.848
 4020POPC   C1A53163  12.078  29.268   6.177
 4020POPC   D2A53164  11.970  29.072   6.568
 4020POPC   C3A53165  12.087  29.299   6.957
 4020POPC   C4A53166  11.835  29.442   7.282
 4020POPC   C1B53167  12.148  28.730   6.205
 4020POPC   C2B53168  12.110  28.578   6.637
 4020POPC   C3B53169  11.962  28.814   7.007
 4020POPC   C4B53170  12.415  28.938   7.121
 4021POPC   NC353171  28.817  29.009   5.253
 4021POPC   PO453172  28.284  29.407   5.394
 4021POPC   GL153173  28.247  29.140   5.769
 4021POPC   GL253174  28.610  29.149   5.753
 4021POPC   C1A53175  28.099  29.033   6.223
 4021POPC   D2A53176  28.294  28.925   6.656
 4021POPC   C3A53177  28.074  29.032   7.045
 4021POPC   C4A53178  28.077  29.342   7.407
 4021POPC   C1B53179  28.594  28.926   6.167
 4021POPC   C2B53180  28.790  28.832   6.568
 4021POPC   C3B53181  28.750  29.025   7.005
 4021POPC   C4B53182  28.875  28.962   7.471
 4022POPC   NC353183  24.394   8.218   5.278
 4022POPC   PO453184  24.810   7.762   5.377
 4022POPC   GL153185  24.558   7.987   5.710
 4022POPC   GL253186  24.673   8.349   5.711
 4022POPC   C1A53187  24.438   8.137   6.125
 4022POPC   D2A53188  24.220   8.281   6.494
 4022POPC   C3A53189  24.332   8.112   6.880
 4022POPC   C4A53190  24.178   7.867   7.240
 4022POPC   C1B53191  24.842   8.479   6.125
 4022POPC   C2B53192  24.891   8.566   6.572
 4022POPC   C3B53193  24.908   8.434   7.000
 4022POPC   C4B53194  24.538   8.460   7.234
 4023POPC   NC353195  11.773   2.946   5.183
 4023POPC   PO453196  12.303   3.001   5.571
 4023POPC   GL153197  12.273   2.961   6.015
 4023POPC   GL253198  12.420   2.621   6.021
 4023POPC   C1A53199  11.991   2.953   6.387
 4023POPC   D2A53200  11.701   2.960   6.737
 4023POPC   C3A53201  11.884   2.998   7.142
 4023POPC   C4A53202  11.834   2.764   7.533
 4023POPC   C1B53203  12.078   2.444   6.299
 4023POPC   C2B53204  11.761   2.445   6.628
 4023POPC   C3B53205  11.822   2.506   7.051
 4023POPC   C4B53206  12.236   2.639   7.211
 4024POPC   NC353207   9.484  11.841   5.515
 4024POPC   PO453208  10.093  11.741   5.510
 4024POPC   GL153209   9.891  12.045   5.854
 4024POPC   GL253210   9.562  12.232   5.855
 4024POPC   C1A53211   9.860  12.257   6.305
 4024POPC   D2A53212   9.920  12.528   6.701
 4024POPC   C3A53213  10.057  12.276   7.087
 4024POPC   C4A53214  10.090  11.791   7.251
 4024POPC   C1B53215   9.548  11.879   6.191
 4024POPC   C2B53216   9.724  11.763   6.581
 4024POPC   C3B53217   9.690  11.931   6.984
 4024POPC   C4B53218   9.605  11.766   7.404
 4025POPC   NC353219   0.084  23.970   5.421
 4025POPC   PO453220   0.680  23.679   5.431
 4025POPC   GL153221   0.366  23.700   5.769
 4025POPC   GL253222   0.650  23.823   5.927
 4025POPC   C1A53223   0.236  23.838   6.205
 4025POPC   D2A53224   0.461  23.891   6.631
 4025POPC   C3A53225   0.386  23.722   7.059
 4025POPC   C4A53226   0.721  23.761   7.367
 4025POPC   C1B53227   0.761  23.599   6.258
 4025POPC   C2B53228   0.788  23.234   6.474
 4025POPC   C3B53229   0.703  23.364   6.870
 4025POPC   C4B53230   0.580  23.269   7.296
 4026POPC   NC353231  18.899  40.183   5.505
 4026POPC   PO453232  19.317  39.595   5.490
 4026POPC   GL153233  19.187  39.870   5.820
 4026POPC   GL253234  18.856  39.726   5.783
 4026POPC   C1A53235  19.164  40.160   6.195
 4026POPC   D2A53236  19.037  40.015   6.626
 4026POPC   C3A53237  19.171  40.162   7.007
 4026POPC   C4A53238  19.267  39.846   7.280
 4026POPC   C1B53239  18.825  39.773   6.225
 4026POPC   C2B53240  18.618  39.733   6.640
 4026POPC   C3B53241  18.722  39.861   7.103
 4026POPC   C4B53242  18.817  39.535   7.416
 4027POPC   NC353243  43.242  20.075   5.497
 4027POPC   PO453244  42.956  19.539   5.431
 4027POPC   GL153245  42.932  19.772   5.808
 4027POPC   GL253246  43.284  19.837   5.921
 4027POPC   C1A53247  42.919  19.789   6.262
 4027POPC   D2A53248  42.697  19.834   6.614
 4027POPC   C3A53249  42.935  19.690   6.923
 4027POPC   C4A53250  42.961  19.937   7.257
 4027POPC   C1B53251  43.542  19.855   6.236
 4027POPC   C2B53252  43.334  19.795   6.616
 4027POPC   C3B53253  43.403  19.931   7.019
 4027POPC   C4B53254  43.409  19.810   7.476
 4028POPC   NC353255  21.520  20.232   5.587
 4028POPC   PO453256  21.179  19.608   5.424
 4028POPC   GL153257  21.268  19.805   5.797
 4028POPC   GL253258  21.365  19.464   5.885
 4028POPC   C1A53259  21.138  20.088   6.161
 4028POPC   D2A53260  21.274  20.279   6.570
 4028POPC   C3A53261  21.188  20.148   7.054
 4028POPC   C4A53262  21.164  20.191   7.562
 4028POPC   C1B53263  21.142  19.580   6.270
 4028POPC   C2B53264  21.240  19.774   6.668
 4028POPC   C3B53265  21.555  19.774   7.006
 4028POPC   C4B53266  21.487  19.479   7.322
 4029POPC   NC353267  14.480  41.634   5.445
 4029POPC   PO453268  14.488  42.182   5.228
 4029POPC   GL153269  14.461  41.999   5.761
 4029POPC   GL253270  14.465  41.611   5.934
 4029POPC   C1A53271  14.451  42.005   6.225
 4029POPC   D2A53272  14.766  41.883   6.549
 4029POPC   C3A53273  14.608  41.932   6.962
 4029POPC   C4A53274  14.177  41.882   7.078
 4029POPC   C1B53275  14.393  41.510   6.367
 4029POPC   C2B53276  14.547  41.457   6.772
 4029POPC   C3B53277  14.277  41.381   7.105
 4029POPC   C4B53278  13.889  41.095   7.120
 4030POPC   NC353279   6.122   2.567   5.453
 4030POPC   PO453280   5.661   2.991   5.460
 4030POPC   GL153281   5.935   2.899   5.786
 4030POPC   GL253282   5.958   2.541   5.914
 4030POPC   C1A53283   6.106   3.014   6.149
 4030POPC   D2A53284   5.914   3.127   6.500
 4030POPC   C3A53285   5.990   2.941   6.882
 4030POPC   C4A53286   5.823   3.216   7.136
 4030POPC   C1B53287   5.902   2.296   6.239
 4030POPC   C2B53288   5.937   2.485   6.610
 4030POPC   C3B53289   5.766   2.396   6.981
 4030POPC   C4B53290   5.938   2.597   7.275
 4031POPC   NC353291  13.067  44.853   5.534
 4031POPC   PO453292  12.519  44.485   5.352
 4031POPC   GL153293  12.731  44.520   5.748
 4031POPC   GL253294  12.651  44.854   5.871
 4031POPC   C1A53295  12.756  44.401   6.195
 4031POPC   D2A53296  12.597  44.581   6.558
 4031POPC   C3A53297  12.792  44.478   6.937
 4031POPC   C4A53298  12.631  44.441   7.344
 4031POPC   C1B53299  12.755   0.031   6.294
 4031POPC   C2B53300  12.772   0.129   6.736
 4031POPC   C3B53301  12.687  44.934   7.137
 4031POPC   C4B53302  13.007  44.824   7.431
 4032POPC   NC353303  39.289   4.629   5.327
 4032POPC   PO453304  39.264   5.335   5.316
 4032POPC   GL153305  39.111   5.037   5.628
 4032POPC   GL253306  39.426   4.930   5.747
 4032POPC   C1A53307  39.009   4.965   6.081
 4032POPC   D2A53308  39.029   5.142   6.504
 4032POPC   C3A53309  38.835   5.015   6.902
 4032POPC   C4A53310  38.957   5.197   7.289
 4032POPC   C1B53311  39.393   5.298   6.054
 4032POPC   C2B53312  39.408   5.501   6.480
 4032POPC   C3B53313  39.260   5.370   6.899
 4032POPC   C4B53314  39.410   5.469   7.309
 4033POPC   NC353315  43.232  28.006   5.330
 4033POPC   PO453316  43.580  27.433   5.566
 4033POPC   GL153317  43.215  27.561   5.774
 4033POPC   GL253318  43.148  27.941   5.832
 4033POPC   C1A53319  42.992  27.547   6.137
 4033POPC   D2A53320  43.120  27.541   6.531
 4033POPC   C3A53321  42.929  27.296   6.846
 4033POPC   C4A53322  43.030  27.333   7.288
 4033POPC   C1B53323  43.161  28.026   6.296
 4033POPC   C2B53324  43.381  27.963   6.665
 4033POPC   C3B53325  43.256  27.716   6.992
 4033POPC   C4B53326  43.497  27.607   7.300
 4034POPC   NC353327  27.232  15.326   5.335
 4034POPC   PO453328  26.608  15.065   5.444
 4034POPC   GL153329  26.701  15.358   5.737
 4034POPC   GL253330  27.057  15.279   5.804
 4034POPC   C1A53331  26.749  15.452   6.173
 4034POPC   D2A53332  26.899  15.345   6.579
 4034POPC   C3A53333  26.651  15.442   6.938
 4034POPC   C4A53334  26.830  15.398   7.323
 4034POPC   C1B53335  26.988  14.983   6.143
 4034POPC   C2B53336  26.877  14.815   6.508
 4034POPC   C3B53337  26.886  14.907   6.912
 4034POPC   C4B53338  26.965  14.735   7.299
 4035POPC   NC353339  38.734  20.125   5.602
 4035POPC   PO453340  38.404  20.705   5.475
 4035POPC   GL153341  38.522  20.755   5.867
 4035POPC   GL253342  38.386  20.414   5.912
 4035POPC   C1A53343  38.388  20.798   6.289
 4035POPC   D2A53344  38.361  20.471   6.599
 4035POPC   C3A53345  38.463  20.619   6.984
 4035POPC   C4A53346  38.261  20.827   7.322
 4035POPC   C1B53347  38.712  20.402   6.198
 4035POPC   C2B53348  38.748  20.156   6.525
 4035POPC   C3B53349  38.686  20.168   6.948
 4035POPC   C4B53350  38.936  20.401   7.179
 4036POPC   NC353351   0.357   4.140   5.456
 4036POPC   PO453352   0.688   4.698   5.533
 4036POPC   GL153353   0.520   4.465   5.867
 4036POPC   GL253354   0.601   4.090   5.907
 4036POPC   C1A53355   0.652   4.427   6.292
 4036POPC   D2A53356   0.407   4.365   6.656
 4036POPC   C3A53357   0.598   4.363   7.047
 4036POPC   C4A53358   0.564   4.729   7.282
 4036POPC   C1B53359   0.215   4.164   6.184
 4036POPC   C2B53360   0.096   3.961   6.601
 4036POPC   C3B53361   0.182   4.050   7.087
 4036POPC   C4B53362   0.528   3.865   7.357
 4037POPC   NC353363   6.994   4.148   5.451
 4037POPC   PO453364   6.501   4.573   5.301
 4037POPC   GL153365   6.599   4.465   5.732
 4037POPC   GL253366   6.695   4.146   5.878
 4037POPC   C1A53367   6.596   4.537   6.184
 4037POPC   D2A53368   6.579   4.281   6.534
 4037POPC   C3A53369   6.563   4.464   6.913
 4037POPC   C4A53370   6.398   4.387   7.312
 4037POPC   C1B53371   6.993   4.189   6.197
 4037POPC   C2B53372   7.064   4.087   6.606
 4037POPC   C3B53373   6.842   4.020   6.973
 4037POPC   C4B53374   6.843   4.154   7.374
 4038POPC   NC353375  19.700  39.282   5.458
 4038POPC   PO453376  20.036  38.678   5.620
 4038POPC   GL153377  19.790  38.973   5.854
 4038POPC   GL253378  19.961  39.354   5.898
 4038POPC   C1A53379  19.600  39.139   6.201
 4038POPC   D2A53380  19.771  39.442   6.491
 4038POPC   C3A53381  19.999  39.369   6.872
 4038POPC   C4A53382  19.956  39.035   7.178
 4038POPC   C1B53383  19.648  39.652   6.049
 4038POPC   C2B53384  19.448  39.805   6.425
 4038POPC   C3B53385  19.516  39.666   6.872
 4038POPC   C4B53386  19.719  39.539   7.273
 4039POPC   NC353387  33.645  34.936   5.338
 4039POPC   PO453388  33.420  34.346   5.359
 4039POPC   GL153389  33.579  34.333   5.796
 4039POPC   GL253390  33.729  34.655   5.769
 4039POPC   C1A53391  33.934  34.361   6.137
 4039POPC   D2A53392  34.021  34.509   6.548
 4039POPC   C3A53393  34.022  34.215   6.891
 4039POPC   C4A53394  33.986  34.348   7.298
 4039POPC   C1B53395  33.765  34.851   6.181
 4039POPC   C2B53396  33.581  34.778   6.579
 4039POPC   C3B53397  33.697  34.639   6.955
 4039POPC   C4B53398  33.832  34.900   7.265
 4040POPC   NC353399   2.209  38.809   5.151
 4040POPC   PO453400   1.819  38.406   5.369
 4040POPC   GL153401   1.927  38.423   5.788
 4040POPC   GL253402   1.831  38.101   5.888
 4040POPC   C1A53403   1.966  38.486   6.229
 4040POPC   D2A53404   1.799  38.532   6.626
 4040POPC   C3A53405   2.073  38.572   6.958
 4040POPC   C4A53406   1.837  38.387   7.237
 4040POPC   C1B53407   2.192  38.038   6.124
 4040POPC   C2B53408   2.220  38.021   6.533
 4040POPC   C3B53409   1.990  38.061   6.886
 4040POPC   C4B53410   2.138  37.995   7.330
 4041POPC   NC353411  44.745  33.721   5.460
 4041POPC   PO453412  44.199  34.150   5.305
 4041POPC   GL153413  44.378  34.035   5.834
 4041POPC   GL253414  44.735  33.883   5.935
 4041POPC   C1A53415  44.364  33.836   6.264
 4041POPC   D2A53416  44.707  33.741   6.524
 4041POPC   C3A53417  44.580  33.894   6.917
 4041POPC   C4A53418  44.382  33.691   7.263
 4041POPC   C1B53419   0.120  33.679   6.128
 4041POPC   C2B53420   0.158  33.438   6.525
 4041POPC   C3B53421   0.070  33.665   6.915
 4041POPC   C4B53422  44.883  33.717   7.314
 4042POPC   NC353423  20.604  38.007   5.520
 4042POPC   PO453424  20.883  38.613   5.402
 4042POPC   GL153425  20.821  38.599   5.859
 4042POPC   GL253426  20.479  38.481   5.846
 4042POPC   C1A53427  20.635  38.743   6.259
 4042POPC   D2A53428  20.350  38.505   6.495
 4042POPC   C3A53429  20.413  38.477   6.939
 4042POPC   C4A53430  20.560  38.505   7.362
 4042POPC   C1B53431  20.647  38.199   6.187
 4042POPC   C2B53432  20.555  38.019   6.604
 4042POPC   C3B53433  20.750  38.109   7.004
 4042POPC   C4B53434  21.007  38.201   7.324
 4043POPC   NC353435  41.058  28.670   5.594
 4043POPC   PO453436  41.046  29.362   5.445
 4043POPC   GL153437  40.852  29.197   5.829
 4043POPC   GL253438  40.492  29.266   5.793
 4043POPC   C1A53439  40.908  29.025   6.265
 4043POPC   D2A53440  40.649  28.951   6.656
 4043POPC   C3A53441  40.886  29.147   6.982
 4043POPC   C4A53442  41.119  29.117   7.342
 4043POPC   C1B53443  40.414  29.146   6.238
 4043POPC   C2B53444  40.307  29.340   6.652
 4043POPC   C3B53445  40.406  29.251   7.072
 4043POPC   C4B53446  40.556  29.306   7.511
 4044POPC   NC353447   5.246  30.512   5.523
 4044POPC   PO453448   4.711  30.773   5.153
 4044POPC   GL153449   4.767  30.740   5.628
 4044POPC   GL253450   4.774  30.375   5.726
 4044POPC   C1A53451   4.946  30.833   6.072
 4044POPC   D2A53452   4.785  30.932   6.508
 4044POPC   C3A53453   5.026  30.908   6.928
 4044POPC   C4A53454   5.368  30.598   7.112
 4044POPC   C1B53455   5.029  30.333   6.129
 4044POPC   C2B53456   5.129  30.547   6.544
 4044POPC   C3B53457   4.932  30.412   6.948
 4044POPC   C4B53458   4.960  30.325   7.407
 4045POPC   NC353459   7.809  35.066   5.594
 4045POPC   PO453460   7.369  35.453   5.260
 4045POPC   GL153461   7.326  35.321   5.702
 4045POPC   GL253462   7.210  34.993   5.784
 4045POPC   C1A53463   7.415  35.437   6.165
 4045POPC   D2A53464   7.510  35.770   6.520
 4045POPC   C3A53465   7.566  35.733   7.003
 4045POPC   C4A53466   7.487  35.512   7.406
 4045POPC   C1B53467   7.323  34.888   6.247
 4045POPC   C2B53468   7.298  34.942   6.703
 4045POPC   C3B53469   7.292  35.272   7.011
 4045POPC   C4B53470   6.979  35.523   7.282
 4046POPC   NC353471  32.944  33.818   5.400
 4046POPC   PO453472  33.495  33.513   5.605
 4046POPC   GL153473  33.291  33.877   5.849
 4046POPC   GL253474  32.963  33.782   5.904
 4046POPC   C1A53475  33.135  34.030   6.296
 4046POPC   D2A53476  32.972  33.841   6.667
 4046POPC   C3A53477  33.014  34.096   7.017
 4046POPC   C4A53478  33.104  34.247   7.441
 4046POPC   C1B53479  33.195  33.525   6.228
 4046POPC   C2B53480  33.039  33.332   6.607
 4046POPC   C3B53481  32.918  33.447   7.028
 4046POPC   C4B53482  32.752  33.292   7.453
 4047POPC   NC353483  14.251  17.978   5.429
 4047POPC   PO453484  14.690  17.388   5.478
 4047POPC   GL153485  14.424  17.560   5.746
 4047POPC   GL253486  14.628  17.870   5.742
 4047POPC   C1A53487  14.366  17.399   6.168
 4047POPC   D2A53488  14.339  17.553   6.589
 4047POPC   C3A53489  14.352  17.385   7.002
 4047POPC   C4A53490  14.062  17.601   7.291
 4047POPC   C1B53491  14.425  17.898   6.147
 4047POPC   C2B53492  14.441  18.050   6.575
 4047POPC   C3B53493  14.427  17.915   6.988
 4047POPC   C4B53494  14.782  17.684   7.157
 4048POPC   NC353495  35.416  32.559   5.423
 4048POPC   PO453496  35.351  31.888   5.715
 4048POPC   GL153497  35.375  32.337   5.867
 4048POPC   GL253498  35.116  32.657   5.811
 4048POPC   C1A53499  35.592  32.431   6.245
 4048POPC   D2A53500  35.526  32.147   6.564
 4048POPC   C3A53501  35.566  32.212   6.965
 4048POPC   C4A53502  35.387  31.921   7.227
 4048POPC   C1B53503  35.099  32.554   6.231
 4048POPC   C2B53504  35.011  32.215   6.489
 4048POPC   C3B53505  35.053  32.234   6.931
 4048POPC   C4B53506  35.177  32.476   7.290
 4049POPC   NC353507  23.628  34.738   5.629
 4049POPC   PO453508  23.858  34.171   5.279
 4049POPC   GL153509  23.872  34.294   5.758
 4049POPC   GL253510  24.051  34.592   5.854
 4049POPC   C1A53511  23.680  34.425   6.180
 4049POPC   D2A53512  23.772  34.615   6.540
 4049POPC   C3A53513  23.631  34.522   6.907
 4049POPC   C4A53514  23.516  34.378   7.285
 4049POPC   C1B53515  24.032  34.846   6.168
 4049POPC   C2B53516  24.168  34.904   6.558
 4049POPC   C3B53517  23.932  34.934   6.919
 4049POPC   C4B53518  23.790  34.792   7.326
 4050POPC   NC353519  42.739  20.732   5.557
 4050POPC   PO453520  42.156  20.691   5.117
 4050POPC   GL153521  42.163  20.798   5.610
 4050POPC   GL253522  42.335  20.558   5.853
 4050POPC   C1A53523  42.035  20.854   6.097
 4050POPC   D2A53524  42.093  20.601   6.490
 4050POPC   C3A53525  42.036  20.736   6.936
 4050POPC   C4A53526  42.312  20.622   7.261
 4050POPC   C1B53527  42.567  20.420   6.223
 4050POPC   C2B53528  42.629  20.522   6.667
 4050POPC   C3B53529  42.620  20.248   7.014
 4050POPC   C4B53530  42.675  20.316   7.439
 4051POPC   NC353531  32.478  37.557   5.417
 4051POPC   PO453532  31.977  37.871   5.212
 4051POPC   GL153533  32.041  37.675   5.644
 4051POPC   GL253534  32.320  37.807   5.857
 4051POPC   C1A53535  31.896  37.644   6.123
 4051POPC   D2A53536  32.163  37.699   6.524
 4051POPC   C3A53537  32.069  37.459   6.884
 4051POPC   C4A53538  31.952  37.596   7.358
 4051POPC   C1B53539  32.319  37.395   6.148
 4051POPC   C2B53540  32.550  37.291   6.524
 4051POPC   C3B53541  32.572  37.567   6.856
 4051POPC   C4B53542  32.431  37.427   7.235
 4052POPC   NC353543  36.088  17.817   5.526
 4052POPC   PO453544  36.423  17.255   5.457
 4052POPC   GL153545  36.246  17.401   5.853
 4052POPC   GL253546  36.431  17.672   5.951
 4052POPC   C1A53547  36.205  17.292   6.309
 4052POPC   D2A53548  36.078  17.192   6.744
 4052POPC   C3A53549  36.310  17.325   7.104
 4052POPC   C4A53550  36.346  17.661   7.403
 4052POPC   C1B53551  36.199  17.800   6.315
 4052POPC   C2B53552  35.966  17.722   6.740
 4052POPC   C3B53553  35.866  17.782   7.224
 4052POPC   C4B53554  35.912  17.801   7.692
 4053POPC   NC353555   4.237  36.550   5.390
 4053POPC   PO453556   4.592  37.099   5.394
 4053POPC   GL153557   4.378  36.877   5.776
 4053POPC   GL253558   4.526  36.613   5.945
 4053POPC   C1A53559   4.277  36.980   6.211
 4053POPC   D2A53560   4.437  36.811   6.622
 4053POPC   C3A53561   4.266  36.927   7.009
 4053POPC   C4A53562   4.372  37.086   7.454
 4053POPC   C1B53563   4.297  36.481   6.271
 4053POPC   C2B53564   4.368  36.283   6.639
 4053POPC   C3B53565   4.596  36.441   6.970
 4053POPC   C4B53566   4.425  36.590   7.340
 4054POPC   NC353567  20.047  37.456   5.559
 4054POPC   PO453568  19.482  37.826   5.258
 4054POPC   GL153569  19.592  37.665   5.693
 4054POPC   GL253570  19.659  37.952   5.894
 4054POPC   C1A53571  19.621  37.525   6.164
 4054POPC   D2A53572  19.845  37.764   6.489
 4054POPC   C3A53573  19.932  37.647   6.907
 4054POPC   C4A53574  19.748  37.530   7.301
 4054POPC   C1B53575  19.437  38.030   6.292
 4054POPC   C2B53576  19.339  37.745   6.617
 4054POPC   C3B53577  19.402  37.784   7.041
 4054POPC   C4B53578  19.413  37.857   7.513
 4055POPC   NC353579  15.439  31.700   5.506
 4055POPC   PO453580  14.704  31.774   5.402
 4055POPC   GL153581  15.015  31.515   5.727
 4055POPC   GL253582  15.332  31.282   5.776
 4055POPC   C1A53583  15.182  31.677   6.150
 4055POPC   D2A53584  15.054  31.746   6.598
 4055POPC   C3A53585  15.217  31.570   6.993
 4055POPC   C4A53586  15.066  31.229   7.234
 4055POPC   C1B53587  15.562  31.331   6.168
 4055POPC   C2B53588  15.460  31.242   6.602
 4055POPC   C3B53589  15.585  31.194   7.032
 4055POPC   C4B53590  15.719  31.470   7.340
 4056POPC   NC353591  30.356   6.022   5.268
 4056POPC   PO453592  29.616   5.946   5.354
 4056POPC   GL153593  29.873   5.863   5.734
 4056POPC   GL253594  30.115   5.633   5.643
 4056POPC   C1A53595  30.065   5.936   6.145
 4056POPC   D2A53596  29.974   5.773   6.527
 4056POPC   C3A53597  29.977   5.996   6.875
 4056POPC   C4A53598  29.834   6.034   7.273
 4056POPC   C1B53599  30.340   5.531   6.029
 4056POPC   C2B53600  30.420   5.550   6.457
 4056POPC   C3B53601  30.256   5.504   6.866
 4056POPC   C4B53602  29.948   5.541   7.158
 4057POPC   NC353603  22.175  34.721   5.364
 4057POPC   PO453604  22.447  34.289   5.797
 4057POPC   GL153605  22.106  34.606   5.883
 4057POPC   GL253606  22.295  34.910   5.837
 4057POPC   C1A53607  21.749  34.534   6.196
 4057POPC   D2A53608  21.601  34.389   6.597
 4057POPC   C3A53609  21.962  34.463   6.875
 4057POPC   C4A53610  22.069  34.675   7.260
 4057POPC   C1B53611  22.373  34.953   6.288
 4057POPC   C2B53612  22.275  34.974   6.729
 4057POPC   C3B53613  22.462  35.034   7.135
 4057POPC   C4B53614  22.435  34.860   7.585
 4058POPC   NC353615  38.470  14.030   5.586
 4058POPC   PO453616  38.628  13.412   5.681
 4058POPC   GL153617  38.489  13.683   5.989
 4058POPC   GL253618  38.795  13.893   5.957
 4058POPC   C1A53619  38.191  13.717   6.348
 4058POPC   D2A53620  38.003  13.787   6.761
 4058POPC   C3A53621  38.250  13.687   7.084
 4058POPC   C4A53622  38.691  13.622   7.159
 4058POPC   C1B53623  38.577  14.072   6.309
 4058POPC   C2B53624  38.533  13.924   6.732
 4058POPC   C3B53625  38.642  14.124   7.135
 4058POPC   C4B53626  38.520  14.223   7.543
 4059POPC   NC353627  32.477   1.718   5.453
 4059POPC   PO453628  31.855   2.054   5.508
 4059POPC   GL153629  32.115   1.970   5.849
 4059POPC   GL253630  32.401   2.130   5.732
 4059POPC   C1A53631  32.130   1.907   6.295
 4059POPC   D2A53632  31.972   2.030   6.726
 4059POPC   C3A53633  32.186   1.810   7.067
 4059POPC   C4A53634  32.217   1.846   7.562
 4059POPC   C1B53635  32.452   2.313   6.137
 4059POPC   C2B53636  32.486   2.195   6.548
 4059POPC   C3B53637  32.613   2.358   6.949
 4059POPC   C4B53638  32.523   2.120   7.277
 4060POPC   NC353639   4.175  18.563   5.189
 4060POPC   PO453640   4.781  18.382   5.429
 4060POPC   GL153641   4.591  18.417   5.809
 4060POPC   GL253642   4.208  18.433   5.862
 4060POPC   C1A53643   4.578  18.213   6.194
 4060POPC   D2A53644   4.450  18.154   6.612
 4060POPC   C3A53645   4.720  18.356   6.937
 4060POPC   C4A53646   4.647  18.439   7.385
 4060POPC   C1B53647   4.170  18.515   6.335
 4060POPC   C2B53648   4.153  18.524   6.825
 4060POPC   C3B53649   4.275  18.158   7.106
 4060POPC   C4B53650   4.001  17.871   7.347
 4061POPC   NC353651  10.266  15.643   5.444
 4061POPC   PO453652  10.746  16.208   5.375
 4061POPC   GL153653  10.542  15.991   5.715
 4061POPC   GL253654  10.735  15.676   5.770
 4061POPC   C1A53655  10.373  15.999   6.137
 4061POPC   D2A53656  10.553  15.909   6.556
 4061POPC   C3A53657  10.358  15.928   6.970
 4061POPC   C4A53658  10.493  16.180   7.326
 4061POPC   C1B53659  10.600  15.541   6.188
 4061POPC   C2B53660  10.468  15.401   6.618
 4061POPC   C3B53661  10.772  15.571   6.899
 4061POPC   C4B53662  10.772  15.778   7.254
 4062POPC   NC353663  21.038  24.407   5.429
 4062POPC   PO453664  21.356  23.807   5.486
 4062POPC   GL153665  21.298  23.749   5.909
 4062POPC   GL253666  21.591  23.553   5.972
 4062POPC   C1A53667  21.332  23.814   6.369
 4062POPC   D2A53668  21.036  23.713   6.702
 4062POPC   C3A53669  21.051  23.891   7.170
 4062POPC   C4A53670  20.945  23.959   7.632
 4062POPC   C1B53671  21.634  23.348   6.339
 4062POPC   C2B53672  21.674  23.216   6.749
 4062POPC   C3B53673  21.548  23.275   7.175
 4062POPC   C4B53674  21.733  23.523   7.520
 4063POPC   NC353675   7.982  29.235   5.406
 4063POPC   PO453676   8.390  29.731   5.209
 4063POPC   GL153677   8.387  29.456   5.675
 4063POPC   GL253678   8.036  29.345   5.904
 4063POPC   C1A53679   8.454  29.183   6.095
 4063POPC   D2A53680   8.452  28.945   6.478
 4063POPC   C3A53681   8.659  29.202   6.787
 4063POPC   C4A53682   8.547  29.456   7.136
 4063POPC   C1B53683   7.946  29.042   6.279
 4063POPC   C2B53684   7.979  28.950   6.754
 4063POPC   C3B53685   7.869  28.927   7.200
 4063POPC   C4B53686   7.906  28.702   7.609
 4064POPC   NC353687  23.389  16.861   5.161
 4064POPC   PO453688  23.863  16.473   5.417
 4064POPC   GL153689  23.697  16.616   5.809
 4064POPC   GL253690  23.471  16.936   5.751
 4064POPC   C1A53691  23.822  16.612   6.263
 4064POPC   D2A53692  23.631  16.812   6.625
 4064POPC   C3A53693  23.788  16.801   7.054
 4064POPC   C4A53694  23.736  17.175   7.242
 4064POPC   C1B53695  23.312  16.749   6.177
 4064POPC   C2B53696  23.257  16.477   6.557
 4064POPC   C3B53697  23.477  16.411   6.918
 4064POPC   C4B53698  23.407  16.475   7.315
 4065POPC   NC353699  12.246  19.495   5.607
 4065POPC   PO453700  11.919  19.962   5.153
 4065POPC   GL153701  11.968  19.994   5.627
 4065POPC   GL253702  11.817  19.702   5.779
 4065POPC   C1A53703  12.136  19.982   6.092
 4065POPC   D2A53704  12.144  19.840   6.529
 4065POPC   C3A53705  12.152  19.999   6.950
 4065POPC   C4A53706  12.127  19.840   7.374
 4065POPC   C1B53707  11.938  19.517   6.180
 4065POPC   C2B53708  12.043  19.337   6.540
 4065POPC   C3B53709  11.950  19.514   6.887
 4065POPC   C4B53710  11.976  19.369   7.242
 4066POPC   NC353711  44.778  40.528   5.065
 4066POPC   PO453712  44.666  40.942   5.531
 4066POPC   GL153713  44.622  40.985   5.920
 4066POPC   GL253714  44.324  40.739   5.885
 4066POPC   C1A53715  44.907  40.879   6.256
 4066POPC   D2A53716  44.855  40.592   6.569
 4066POPC   C3A53717  44.782  40.827   6.906
 4066POPC   C4A53718  44.890  41.217   7.128
 4066POPC   C1B53719  44.423  40.708   6.294
 4066POPC   C2B53720  44.271  40.753   6.679
 4066POPC   C3B53721  44.350  40.540   7.042
 4066POPC   C4B53722  44.454  40.909   7.279
 4067POPC   NC353723  44.544  23.380   5.558
 4067POPC   PO453724  44.595  24.033   5.463
 4067POPC   GL153725  44.796  23.758   5.800
 4067POPC   GL253726  44.449  23.759   5.888
 4067POPC   C1A53727  44.806  23.575   6.231
 4067POPC   D2A53728  44.925  23.818   6.620
 4067POPC   C3A53729  44.822  23.610   6.988
 4067POPC   C4A53730  44.460  23.324   7.072
 4067POPC   C1B53731  44.569  24.039   6.221
 4067POPC   C2B53732  44.449  24.152   6.634
 4067POPC   C3B53733  44.588  24.051   7.018
 4067POPC   C4B53734  44.481  23.748   7.346
 4068POPC   NC353735  38.360   7.145   5.614
 4068POPC   PO453736  38.581   6.522   5.426
 4068POPC   GL153737  38.315   6.618   5.775
 4068POPC   GL253738  38.575   6.799   5.911
 4068POPC   C1A53739  38.239   6.687   6.247
 4068POPC   D2A53740  38.113   6.426   6.563
 4068POPC   C3A53741  38.092   6.576   6.983
 4068POPC   C4A53742  38.309   6.299   7.254
 4068POPC   C1B53743  38.769   6.687   6.312
 4068POPC   C2B53744  38.570   6.671   6.701
 4068POPC   C3B53745  38.535   6.781   7.139
 4068POPC   C4B53746  38.443   7.073   7.471
 4069POPC   NC353747   3.164  19.564   5.084
 4069POPC   PO453748   3.616  19.192   5.282
 4069POPC   GL153749   3.482  19.238   5.749
 4069POPC   GL253750   3.462  18.930   5.956
 4069POPC   C1A53751   3.483  19.341   6.222
 4069POPC   D2A53752   3.550  19.147   6.616
 4069POPC   C3A53753   3.475  19.394   6.968
 4069POPC   C4A53754   3.661  19.276   7.338
 4069POPC   C1B53755   3.769  18.825   6.239
 4069POPC   C2B53756   3.687  18.524   6.542
 4069POPC   C3B53757   3.325  18.656   6.733
 4069POPC   C4B53758   3.362  18.908   7.114
 4070POPC   NC353759  35.062  15.160   5.380
 4070POPC   PO453760  35.059  15.831   5.313
 4070POPC   GL153761  35.238  15.514   5.667
 4070POPC   GL253762  35.615  15.557   5.747
 4070POPC   C1A53763  35.147  15.190   6.053
 4070POPC   D2A53764  35.398  15.126   6.458
 4070POPC   C3A53765  35.237  14.962   6.852
 4070POPC   C4A53766  35.220  14.939   7.299
 4070POPC   C1B53767  35.721  15.459   6.168
 4070POPC   C2B53768  35.538  15.609   6.573
 4070POPC   C3B53769  35.528  15.409   6.968
 4070POPC   C4B53770  35.554  15.319   7.434
 4071POPC   NC353771  34.401  35.017   5.578
 4071POPC   PO453772  34.616  34.476   5.334
 4071POPC   GL153773  34.710  34.593   5.780
 4071POPC   GL253774  34.953  34.850   5.869
 4071POPC   C1A53775  34.601  34.517   6.226
 4071POPC   D2A53776  34.715  34.558   6.695
 4071POPC   C3A53777  34.477  34.446   7.103
 4071POPC   C4A53778  34.410  34.354   7.590
 4071POPC   C1B53779  34.932  34.904   6.327
 4071POPC   C2B53780  35.035  34.980   6.752
 4071POPC   C3B53781  34.873  34.849   7.143
 4071POPC   C4B53782  34.762  34.719   7.553
 4072POPC   NC353783  29.512  33.123   5.605
 4072POPC   PO453784  30.175  32.996   5.371
 4072POPC   GL153785  30.011  33.055   5.756
 4072POPC   GL253786  29.813  32.713   5.701
 4072POPC   C1A53787  30.169  33.211   6.188
 4072POPC   D2A53788  30.232  33.314   6.649
 4072POPC   C3A53789  29.953  33.157   6.955
 4072POPC   C4A53790  29.770  32.784   6.966
 4072POPC   C1B53791  30.084  32.675   6.058
 4072POPC   C2B53792  30.054  32.801   6.486
 4072POPC   C3B53793  30.269  32.713   6.840
 4072POPC   C4B53794  30.288  32.738   7.259
 4073POPC   NC353795  27.532  32.982   5.098
 4073POPC   PO453796  27.894  33.425   5.522
 4073POPC   GL153797  27.688  33.198   5.842
 4073POPC   GL253798  27.464  32.911   5.760
 4073POPC   C1A53799  27.735  33.286   6.278
 4073POPC   D2A53800  27.777  33.110   6.705
 4073POPC   C3A53801  27.636  33.333   7.111
 4073POPC   C4A53802  27.500  33.295   7.563
 4073POPC   C1B53803  27.441  32.856   6.233
 4073POPC   C2B53804  27.338  32.765   6.698
 4073POPC   C3B53805  27.615  32.809   7.089
 4073POPC   C4B53806  28.004  32.557   7.216
 4074POPC   NC353807  43.226   0.158   5.403
 4074POPC   PO453808  42.899  44.541   5.321
 4074POPC   GL153809  43.166  44.732   5.697
 4074POPC   GL253810  43.445  44.486   5.785
 4074POPC   C1A53811  43.352  44.988   6.072
 4074POPC   D2A53812  43.537  44.841   6.498
 4074POPC   C3A53813  43.386  44.962   6.891
 4074POPC   C4A53814  43.534  44.857   7.285
 4074POPC   C1B53815  43.251  44.518   6.207
 4074POPC   C2B53816  43.028  44.775   6.529
 4074POPC   C3B53817  42.982  44.631   6.940
 4074POPC   C4B53818  43.349  44.405   7.111
 4075POPC   NC353819   8.200  10.705   5.331
 4075POPC   PO453820   8.608  11.114   5.704
 4075POPC   GL153821   8.189  10.861   5.816
 4075POPC   GL253822   8.180  10.484   5.778
 4075POPC   C1A53823   7.987  10.706   6.200
 4075POPC   D2A53824   7.936  10.770   6.637
 4075POPC   C3A53825   8.246  10.682   6.959
 4075POPC   C4A53826   8.234  10.576   7.411
 4075POPC   C1B53827   8.130  10.221   6.157
 4075POPC   C2B53828   7.994  10.215   6.607
 4075POPC   C3B53829   8.141  10.185   7.032
 4075POPC   C4B53830   8.567  10.312   7.130
 4076POPC   NC353831   9.192  38.265   5.473
 4076POPC   PO453832   8.902  38.900   5.438
 4076POPC   GL153833   9.075  38.697   5.817
 4076POPC   GL253834   8.828  38.442   5.779
 4076POPC   C1A53835   9.215  38.703   6.275
 4076POPC   D2A53836   9.246  38.398   6.650
 4076POPC   C3A53837   8.994  38.451   6.977
 4076POPC   C4A53838   9.020  38.775   7.272
 4076POPC   C1B53839   8.927  38.282   6.196
 4076POPC   C2B53840   8.887  38.032   6.586
 4076POPC   C3B53841   8.709  38.030   7.017
 4076POPC   C4B53842   8.688  38.344   7.357
 4077POPC   NC353843  13.074  26.180   5.108
 4077POPC   PO453844  12.448  25.863   4.959
 4077POPC   GL153845  12.572  26.020   5.476
 4077POPC   GL253846  12.937  26.169   5.614
 4077POPC   C1A53847  12.610  26.008   5.990
 4077POPC   D2A53848  12.866  25.922   6.387
 4077POPC   C3A53849  12.797  26.047   6.851
 4077POPC   C4A53850  12.581  26.035   7.271
 4077POPC   C1B53851  13.058  26.296   6.080
 4077POPC   C2B53852  13.276  26.281   6.500
 4077POPC   C3B53853  13.151  26.409   6.920
 4077POPC   C4B53854  13.054  26.177   7.297
 4078POPC   NC353855  42.439  39.718   5.314
 4078POPC   PO453856  41.869  40.052   5.438
 4078POPC   GL153857  42.057  39.807   5.735
 4078POPC   GL253858  42.397  39.939   5.770
 4078POPC   C1A53859  42.106  39.673   6.174
 4078POPC   D2A53860  42.192  39.869   6.578
 4078POPC   C3A53861  42.452  39.768   6.935
 4078POPC   C4A53862  42.079  39.754   7.114
 4078POPC   C1B53863  42.322  40.153   6.145
 4078POPC   C2B53864  42.460  40.280   6.553
 4078POPC   C3B53865  42.243  40.272   6.928
 4078POPC   C4B53866  42.330  40.152   7.319
 4079POPC   NC353867   2.297  25.009   5.524
 4079POPC   PO453868   1.759  25.479   5.418
 4079POPC   GL153869   1.963  25.303   5.761
 4079POPC   GL253870   2.287  25.477   5.758
 4079POPC   C1A53871   2.056  25.307   6.207
 4079POPC   D2A53872   1.840  25.368   6.592
 4079POPC   C3A53873   2.071  25.172   6.881
 4079POPC   C4A53874   1.879  25.023   7.212
 4079POPC   C1B53875   2.538  25.470   6.140
 4079POPC   C2B53876   2.410  25.475   6.587
 4079POPC   C3B53877   2.560  25.433   7.012
 4079POPC   C4B53878   2.271  25.298   7.340
 4080POPC   NC353879  32.240   2.542   5.409
 4080POPC   PO453880  32.622   3.027   5.679
 4080POPC   GL153881  32.212   2.857   5.826
 4080POPC   GL253882  32.064   2.495   5.872
 4080POPC   C1A53883  32.270   2.781   6.253
 4080POPC   D2A53884  32.574   2.697   6.550
 4080POPC   C3A53885  32.423   2.845   6.960
 4080POPC   C4A53886  32.582   2.923   7.354
 4080POPC   C1B53887  31.946   2.389   6.296
 4080POPC   C2B53888  32.101   2.527   6.675
 4080POPC   C3B53889  32.142   2.433   7.075
 4080POPC   C4B53890  32.306   2.534   7.476
 4081POPC   NC353891   6.137   8.375   5.221
 4081POPC   PO453892   5.686   7.902   5.432
 4081POPC   GL153893   5.850   8.071   5.800
 4081POPC   GL253894   5.945   8.419   5.751
 4081POPC   C1A53895   5.860   8.091   6.245
 4081POPC   D2A53896   6.099   8.082   6.606
 4081POPC   C3A53897   5.819   8.048   6.947
 4081POPC   C4A53898   5.565   8.155   7.281
 4081POPC   C1B53899   5.751   8.588   6.122
 4081POPC   C2B53900   5.793   8.670   6.551
 4081POPC   C3B53901   6.050   8.514   6.868
 4081POPC   C4B53902   5.983   8.447   7.263
 4082POPC   NC353903  38.288  16.983   5.538
 4082POPC   PO453904  38.727  16.548   5.192
 4082POPC   GL153905  38.727  16.735   5.629
 4082POPC   GL253906  38.413  16.543   5.740
 4082POPC   C1A53907  38.622  16.930   6.067
 4082POPC   D2A53908  38.443  16.949   6.492
 4082POPC   C3A53909  38.711  17.003   6.858
 4082POPC   C4A53910  38.648  17.026   7.307
 4082POPC   C1B53911  38.300  16.547   6.197
 4082POPC   C2B53912  38.336  16.458   6.664
 4082POPC   C3B53913  38.302  16.710   7.060
 4082POPC   C4B53914  38.411  16.629   7.524
 4083POPC   NC353915  10.389  29.350   5.475
 4083POPC   PO453916  10.035  28.795   5.363
 4083POPC   GL153917  10.438  28.874   5.698
 4083POPC   GL253918  10.515  29.230   5.932
 4083POPC   C1A53919  10.631  28.811   6.132
 4083POPC   D2A53920  10.450  29.095   6.438
 4083POPC   C3A53921  10.543  29.059   6.864
 4083POPC   C4A53922  10.280  28.996   7.224
 4083POPC   C1B53923  10.888  29.272   6.258
 4083POPC   C2B53924  11.134  29.449   6.609
 4083POPC   C3B53925  10.953  29.576   7.021
 4083POPC   C4B53926  10.509  29.461   7.201
 4084POPC   NC353927   6.627  22.467   5.194
 4084POPC   PO453928   6.905  21.920   5.254
 4084POPC   GL153929   6.556  22.118   5.555
 4084POPC   GL253930   6.738  22.407   5.683
 4084POPC   C1A53931   6.357  22.255   5.983
 4084POPC   D2A53932   6.401  22.175   6.425
 4084POPC   C3A53933   6.431  22.415   6.795
 4084POPC   C4A53934   6.425  22.219   7.196
 4084POPC   C1B53935   6.867  22.288   6.107
 4084POPC   C2B53936   6.912  22.409   6.547
 4084POPC   C3B53937   6.894  22.307   6.994
 4084POPC   C4B53938   6.853  21.914   7.213
 4085POPC   NC353939  34.543  17.821   5.433
 4085POPC   PO453940  34.491  17.181   5.458
 4085POPC   GL153941  34.574  17.492   5.819
 4085POPC   GL253942  34.893  17.690   5.811
 4085POPC   C1A53943  34.644  17.471   6.264
 4085POPC   D2A53944  34.768  17.214   6.617
 4085POPC   C3A53945  34.676  17.332   7.082
 4085POPC   C4A53946  34.421  17.642   7.328
 4085POPC   C1B53947  34.848  17.932   6.209
 4085POPC   C2B53948  34.632  17.863   6.609
 4085POPC   C3B53949  34.833  17.839   7.005
 4085POPC   C4B53950  34.943  17.731   7.399
 4086POPC   NC353951  38.506  38.922   5.594
 4086POPC   PO453952  38.221  38.340   5.466
 4086POPC   GL153953  38.345  38.205   5.849
 4086POPC   GL253954  38.571  38.497   5.872
 4086POPC   C1A53955  38.393  38.256   6.278
 4086POPC   D2A53956  38.402  38.607   6.528
 4086POPC   C3A53957  38.298  38.393   6.871
 4086POPC   C4A53958  38.294  38.556   7.268
 4086POPC   C1B53959  38.865  38.434   6.224
 4086POPC   C2B53960  38.801  38.317   6.652
 4086POPC   C3B53961  38.742  38.322   7.092
 4086POPC   C4B53962  38.820  38.643   7.370
 4087POPC   NC353963  36.881   0.505   5.358
 4087POPC   PO453964  36.425   0.175   5.640
 4087POPC   GL153965  36.643   0.538   5.804
 4087POPC   GL253966  36.842   0.283   5.958
 4087POPC   C1A53967  36.692   0.668   6.246
 4087POPC   D2A53968  36.913   0.384   6.544
 4087POPC   C3A53969  36.787   0.362   6.979
 4087POPC   C4A53970  36.928   0.580   7.343
 4087POPC   C1B53971  37.233   0.177   6.184
 4087POPC   C2B53972  37.443   0.203   6.575
 4087POPC   C3B53973  37.293   0.199   7.008
 4087POPC   C4B53974  37.120   0.089   7.421
 4088POPC   NC353975  30.608  32.927   5.506
 4088POPC   PO453976  31.112  33.347   5.363
 4088POPC   GL153977  30.817  33.304   5.797
 4088POPC   GL253978  30.682  32.955   5.992
 4088POPC   C1A53979  30.670  33.367   6.269
 4088POPC   D2A53980  30.573  32.966   6.509
 4088POPC   C3A53981  30.584  33.093   6.962
 4088POPC   C4A53982  30.335  33.416   7.165
 4088POPC   C1B53983  30.966  32.657   6.205
 4088POPC   C2B53984  31.081  32.570   6.639
 4088POPC   C3B53985  31.120  32.772   7.043
 4088POPC   C4B53986  30.796  32.852   7.370
 4089POPC   NC353987  44.878  28.776   5.359
 4089POPC   PO453988  44.243  28.760   5.633
 4089POPC   GL153989  44.522  29.093   5.850
 4089POPC   GL253990  44.854  29.139   5.722
 4089POPC   C1A53991  44.673  29.258   6.284
 4089POPC   D2A53992  44.780  29.523   6.671
 4089POPC   C3A53993  44.809  29.398   7.101
 4089POPC   C4A53994  44.771  29.081   7.430
 4089POPC   C1B53995  44.947  28.882   6.069
 4089POPC   C2B53996  44.911  28.842   6.532
 4089POPC   C3B53997   0.060  28.992   6.945
 4089POPC   C4B53998   0.186  28.811   7.351
 4090POPC   NC353999  42.541  28.512   5.289
 4090POPC   PO454000  41.943  28.708   5.328
 4090POPC   GL154001  42.174  28.450   5.654
 4090POPC   GL254002  42.502  28.593   5.820
 4090POPC   C1A54003  42.094  28.445   6.084
 4090POPC   D2A54004  42.138  28.303   6.506
 4090POPC   C3A54005  42.153  28.399   6.913
 4090POPC   C4A54006  42.206  28.557   7.308
 4090POPC   C1B54007  42.492  28.665   6.329
 4090POPC   C2B54008  42.530  28.704   6.812
 4090POPC   C3B54009  42.687  28.451   7.115
 4090POPC   C4B54010  42.854  28.038   7.073
 4091POPC   NC354011  13.728  10.667   5.457
 4091POPC   PO454012  13.748  10.151   5.076
 4091POPC   GL154013  13.719  10.212   5.660
 4091POPC   GL254014  13.545  10.524   5.881
 4091POPC   C1A54015  13.924  10.337   6.144
 4091POPC   D2A54016  14.008  10.268   6.614
 4091POPC   C3A54017  13.723  10.369   6.968
 4091POPC   C4A54018  13.753  10.458   7.413
 4091POPC   C1B54019  13.541  10.700   6.298
 4091POPC   C2B54020  13.743  10.812   6.673
 4091POPC   C3B54021  13.687  10.886   7.089
 4091POPC   C4B54022  13.294  10.753   7.251
 4092POPC   NC354023  12.597   1.555   5.575
 4092POPC   PO454024  13.037   1.086   5.264
 4092POPC   GL154025  12.952   1.080   5.746
 4092POPC   GL254026  13.265   1.166   5.932
 4092POPC   C1A54027  12.686   1.016   6.153
 4092POPC   D2A54028  12.613   0.966   6.621
 4092POPC   C3A54029  12.851   1.086   6.999
 4092POPC   C4A54030  12.992   1.294   7.360
 4092POPC   C1B54031  13.140   1.127   6.351
 4092POPC   C2B54032  12.879   1.412   6.577
 4092POPC   C3B54033  12.969   1.587   6.948
 4092POPC   C4B54034  13.010   1.877   7.252
 4093POPC   NC354035  23.257  20.593   5.588
 4093POPC   PO454036  23.854  20.350   5.392
 4093POPC   GL154037  23.914  20.655   5.721
 4093POPC   GL254038  23.647  20.473   5.906
 4093POPC   C1A54039  23.945  20.804   6.139
 4093POPC   D2A54040  23.657  20.659   6.434
 4093POPC   C3A54041  23.767  20.658   6.855
 4093POPC   C4A54042  23.596  20.454   7.168
 4093POPC   C1B54043  23.914  20.266   6.221
 4093POPC   C2B54044  23.857  20.178   6.645
 4093POPC   C3B54045  24.056  20.254   7.025
 4093POPC   C4B54046  24.080  20.320   7.473
 4094POPC   NC354047  27.365  33.530   5.545
 4094POPC   PO454048  27.724  34.173   5.481
 4094POPC   GL154049  27.574  33.964   5.845
 4094POPC   GL254050  27.826  33.743   5.901
 4094POPC   C1A54051  27.453  33.747   6.254
 4094POPC   D2A54052  27.631  33.623   6.656
 4094POPC   C3A54053  27.301  33.678   6.951
 4094POPC   C4A54054  27.442  33.747   7.380
 4094POPC   C1B54055  27.982  33.878   6.280
 4094POPC   C2B54056  27.981  33.991   6.704
 4094POPC   C3B54057  27.941  33.758   7.076
 4094POPC   C4B54058  27.876  33.958   7.453
 4095POPC   NC354059   1.511  43.051   5.388
 4095POPC   PO454060   0.887  42.723   5.573
 4095POPC   GL154061   1.161  43.069   5.818
 4095POPC   GL254062   1.553  43.047   5.885
 4095POPC   C1A54063   1.210  43.167   6.295
 4095POPC   D2A54064   1.052  43.044   6.725
 4095POPC   C3A54065   1.088  43.333   7.090
 4095POPC   C4A54066   1.040  43.594   7.518
 4095POPC   C1B54067   1.661  43.387   6.175
 4095POPC   C2B54068   1.629  43.452   6.623
 4095POPC   C3B54069   1.569  43.069   6.868
 4095POPC   C4B54070   1.303  42.842   7.125
 4096POPC   NC354071  17.072   4.250   5.539
 4096POPC   PO454072  16.544   4.644   5.384
 4096POPC   GL154073  16.617   4.357   5.763
 4096POPC   GL254074  16.670   3.995   5.833
 4096POPC   C1A54075  16.734   4.373   6.215
 4096POPC   D2A54076  16.546   4.559   6.582
 4096POPC   C3A54077  16.755   4.452   6.948
 4096POPC   C4A54078  16.673   4.387   7.360
 4096POPC   C1B54079  16.966   3.901   6.204
 4096POPC   C2B54080  16.923   4.046   6.653
 4096POPC   C3B54081  16.729   3.950   7.078
 4096POPC   C4B54082  16.893   3.957   7.522
 4097POPC   NC354083  21.653  33.123   5.389
 4097POPC   PO454084  21.188  32.680   5.341
 4097POPC   GL154085  21.421  32.760   5.719
 4097POPC   GL254086  21.124  32.815   5.917
 4097POPC   C1A54087  21.629  32.726   6.125
 4097POPC   D2A54088  21.695  33.025   6.470
 4097POPC   C3A54089  21.468  32.956   6.876
 4097POPC   C4A54090  21.444  32.892   7.333
 4097POPC   C1B54091  21.199  32.923   6.372
 4097POPC   C2B54092  21.191  33.329   6.631
 4097POPC   C3B54093  21.096  33.279   7.064
 4097POPC   C4B54094  20.988  32.838   7.080
 4098POPC   NC354095   6.204  38.288   5.345
 4098POPC   PO454096   5.552  38.537   5.348
 4098POPC   GL154097   5.764  38.229   5.634
 4098POPC   GL254098   5.900  38.512   5.781
 4098POPC   C1A54099   5.715  38.157   6.108
 4098POPC   D2A54100   5.524  38.446   6.449
 4098POPC   C3A54101   5.705  38.507   6.900
 4098POPC   C4A54102   5.930  38.204   7.185
 4098POPC   C1B54103   6.040  38.588   6.207
 4098POPC   C2B54104   5.960  38.828   6.568
 4098POPC   C3B54105   6.188  38.751   6.941
 4098POPC   C4B54106   6.031  38.714   7.335
 4099POPC   NC354107  41.227  20.130   5.351
 4099POPC   PO454108  40.665  19.807   5.520
 4099POPC   GL154109  40.604  19.815   5.914
 4099POPC   GL254110  40.574  20.172   5.874
 4099POPC   C1A54111  40.868  19.815   6.298
 4099POPC   D2A54112  41.230  19.960   6.575
 4099POPC   C3A54113  41.085  19.947   7.013
 4099POPC   C4A54114  40.876  19.556   7.191
 4099POPC   C1B54115  40.366  20.090   6.261
 4099POPC   C2B54116  40.560  20.075   6.657
 4099POPC   C3B54117  40.559  19.962   7.071
 4099POPC   C4B54118  40.726  20.239   7.334
 4100POPC   NC354119  10.101   3.434   5.451
 4100POPC   PO454120  10.776   3.444   5.382
 4100POPC   GL154121  10.772   3.621   5.770
 4100POPC   GL254122  10.418   3.690   5.773
 4100POPC   C1A54123  10.645   3.498   6.177
 4100POPC   D2A54124  10.465   3.371   6.547
 4100POPC   C3A54125  10.699   3.287   6.900
 4100POPC   C4A54126  10.592   3.289   7.316
 4100POPC   C1B54127  10.343   3.902   6.211
 4100POPC   C2B54128  10.375   3.867   6.690
 4100POPC   C3B54129  10.571   3.762   7.109
 4100POPC   C4B54130  10.509   3.813   7.584
 4101POPC   NC354131   2.169  33.893   5.387
 4101POPC   PO454132   1.712  33.517   5.600
 4101POPC   GL154133   2.092  33.666   5.836
 4101POPC   GL254134   2.071  33.998   5.870
 4101POPC   C1A54135   2.242  33.671   6.261
 4101POPC   D2A54136   2.009  33.581   6.614
 4101POPC   C3A54137   2.108  33.633   7.068
 4101POPC   C4A54138   1.896  33.577   7.514
 4101POPC   C1B54139   2.258  34.180   6.251
 4101POPC   C2B54140   2.304  34.020   6.682
 4101POPC   C3B54141   2.263  34.147   7.100
 4101POPC   C4B54142   1.890  34.045   7.273
 4102POPC   NC354143   2.945  16.322   5.131
 4102POPC   PO454144   2.599  16.879   5.426
 4102POPC   GL154145   2.669  16.859   5.852
 4102POPC   GL254146   2.798  16.535   5.793
 4102POPC   C1A54147   2.911  16.750   6.236
 4102POPC   D2A54148   2.857  16.454   6.590
 4102POPC   C3A54149   2.870  16.634   7.007
 4102POPC   C4A54150   2.563  16.917   7.185
 4102POPC   C1B54151   2.514  16.418   6.149
 4102POPC   C2B54152   2.359  16.295   6.552
 4102POPC   C3B54153   2.379  16.486   6.930
 4102POPC   C4B54154   2.457  16.346   7.339
 4103POPC   NC354155   0.618  18.725   5.156
 4103POPC   PO454156   0.290  19.314   5.170
 4103POPC   GL154157   0.342  19.073   5.612
 4103POPC   GL254158   0.689  19.012   5.739
 4103POPC   C1A54159   0.230  19.152   6.069
 4103POPC   D2A54160   0.343  19.322   6.505
 4103POPC   C3A54161   0.174  19.259   6.947
 4103POPC   C4A54162   0.217  19.326   7.433
 4103POPC   C1B54163   0.717  19.042   6.229
 4103POPC   C2B54164   0.651  18.922   6.699
 4103POPC   C3B54165   0.899  18.866   7.090
 4103POPC   C4B54166   1.044  19.142   7.438
 4104POPC   NC354167   3.340   5.880   5.131
 4104POPC   PO454168   3.697   5.433   5.388
 4104POPC   GL154169   3.553   5.779   5.621
 4104POPC   GL254170   3.822   5.683   5.841
 4104POPC   C1A54171   3.464   6.004   6.022
 4104POPC   D2A54172   3.366   5.814   6.418
 4104POPC   C3A54173   3.394   5.892   6.900
 4104POPC   C4A54174   3.276   5.618   7.291
 4104POPC   C1B54175   3.937   5.924   6.195
 4104POPC   C2B54176   3.754   6.126   6.524
 4104POPC   C3B54177   3.909   5.980   6.899
 4104POPC   C4B54178   3.754   5.946   7.287
 4105POPC   NC354179  33.231   0.007   5.299
 4105POPC   PO454180  33.058   0.669   5.384
 4105POPC   GL154181  33.196   0.361   5.708
 4105POPC   GL254182  32.888   0.308   5.880
 4105POPC   C1A54183  33.323   0.331   6.168
 4105POPC   D2A54184  33.063   0.389   6.538
 4105POPC   C3A54185  33.242   0.347   6.981
 4105POPC   C4A54186  33.452   0.632   7.274
 4105POPC   C1B54187  32.564   0.397   6.177
 4105POPC   C2B54188  32.480   0.418   6.599
 4105POPC   C3B54189  32.744   0.458   6.936
 4105POPC   C4B54190  32.823   0.112   7.139
 4106POPC   NC354191  39.817  11.820   5.505
 4106POPC   PO454192  39.858  12.425   5.438
 4106POPC   GL154193  39.849  12.176   5.881
 4106POPC   GL254194  40.153  11.913   5.885
 4106POPC   C1A54195  39.624  12.165   6.367
 4106POPC   D2A54196  39.726  11.963   6.762
 4106POPC   C3A54197  39.707  11.784   7.185
 4106POPC   C4A54198  39.939  11.920   7.578
 4106POPC   C1B54199  40.379  11.655   6.206
 4106POPC   C2B54200  40.251  11.621   6.677
 4106POPC   C3B54201  40.206  11.971   6.959
 4106POPC   C4B54202  40.581  12.237   7.078
 4107POPC   NC354203  13.948  13.951   5.431
 4107POPC   PO454204  13.696  14.646   5.358
 4107POPC   GL154205  13.624  14.550   5.821
 4107POPC   GL254206  13.584  14.197   5.786
 4107POPC   C1A54207  13.740  14.376   6.241
 4107POPC   D2A54208  13.544  14.417   6.623
 4107POPC   C3A54209  13.705  14.530   7.009
 4107POPC   C4A54210  13.517  14.562   7.378
 4107POPC   C1B54211  13.824  13.905   6.045
 4107POPC   C2B54212  13.803  13.914   6.447
 4107POPC   C3B54213  13.840  14.068   6.841
 4107POPC   C4B54214  13.562  14.077   7.204
 4108POPC   NC354215   1.805  29.893   5.294
 4108POPC   PO454216   2.429  30.127   5.364
 4108POPC   GL154217   2.255  30.100   5.757
 4108POPC   GL254218   1.895  30.105   5.771
 4108POPC   C1A54219   2.352  29.985   6.164
 4108POPC   D2A54220   2.333  29.700   6.496
 4108POPC   C3A54221   2.203  29.826   6.876
 4108POPC   C4A54222   2.247  29.732   7.306
 4108POPC   C1B54223   1.826  29.730   6.073
 4108POPC   C2B54224   1.597  29.560   6.464
 4108POPC   C3B54225   1.714  29.521   6.907
 4108POPC   C4B54226   1.784  29.889   7.169
 4109POPC   NC354227  26.697  25.169   5.320
 4109POPC   PO454228  27.210  25.367   5.334
 4109POPC   GL154229  27.067  25.250   5.756
 4109POPC   GL254230  26.754  25.029   5.829
 4109POPC   C1A54231  26.924  25.372   6.181
 4109POPC   D2A54232  26.959  25.191   6.596
 4109POPC   C3A54233  26.906  25.413   6.991
 4109POPC   C4A54234  26.895  25.391   7.447
 4109POPC   C1B54235  26.594  24.980   6.293
 4109POPC   C2B54236  26.506  25.040   6.773
 4109POPC   C3B54237  26.475  25.230   7.193
 4109POPC   C4B54238  26.466  25.183   7.643
 4110POPC   NC354239  42.269  27.536   5.401
 4110POPC   PO454240  42.930  27.636   5.358
 4110POPC   GL154241  42.666  27.498   5.755
 4110POPC   GL254242  42.357  27.708   5.868
 4110POPC   C1A54243  42.497  27.346   6.198
 4110POPC   D2A54244  42.258  27.463   6.599
 4110POPC   C3A54245  42.506  27.695   6.897
 4110POPC   C4A54246  42.626  27.634   7.318
 4110POPC   C1B54247  42.085  27.914   6.185
 4110POPC   C2B54248  41.907  27.840   6.621
 4110POPC   C3B54249  42.051  27.922   7.025
 4110POPC   C4B54250  42.375  28.073   7.289
 4111POPC   NC354251  10.761  26.116   5.477
 4111POPC   PO454252  10.185  25.784   5.296
 4111POPC   GL154253  10.387  25.941   5.753
 4111POPC   GL254254  10.251  25.749   5.990
 4111POPC   C1A54255  10.666  26.248   6.113
 4111POPC   D2A54256  10.804  26.323   6.578
 4111POPC   C3A54257  10.520  26.336   6.971
 4111POPC   C4A54258  10.525  26.380   7.465
 4111POPC   C1B54259  10.631  25.777   6.256
 4111POPC   C2B54260  10.634  25.845   6.683
 4111POPC   C3B54261  10.779  25.922   7.080
 4111POPC   C4B54262  10.421  25.876   7.289
 4112POPC   NC354263   0.036  16.453   5.095
 4112POPC   PO454264  44.634  16.942   5.348
 4112POPC   GL154265  44.721  16.974   5.773
 4112POPC   GL254266  44.407  16.988   5.900
 4112POPC   C1A54267  44.866  17.079   6.206
 4112POPC   D2A54268  44.779  17.010   6.682
 4112POPC   C3A54269  44.838  16.804   7.100
 4112POPC   C4A54270  44.694  16.755   7.547
 4112POPC   C1B54271  44.508  16.716   6.272
 4112POPC   C2B54272  44.504  16.577   6.726
 4112POPC   C3B54273  44.358  16.606   7.168
 4112POPC   C4B54274  44.240  16.494   7.607
 4113POPC   NC354275  16.648  42.521   5.367
 4113POPC   PO454276  16.329  41.911   5.170
 4113POPC   GL154277  16.538  42.061   5.616
 4113POPC   GL254278  16.493  42.422   5.825
 4113POPC   C1A54279  16.693  42.042   6.077
 4113POPC   D2A54280  16.601  42.136   6.518
 4113POPC   C3A54281  16.909  42.292   6.852
 4113POPC   C4A54282  16.858  42.503   7.256
 4113POPC   C1B54283  16.300  42.510   6.244
 4113POPC   C2B54284  16.431  42.597   6.671
 4113POPC   C3B54285  16.404  42.425   7.065
 4113POPC   C4B54286  16.278  42.674   7.377
 4114POPC   NC354287   9.052  24.771   5.457
 4114POPC   PO454288   8.498  24.346   5.423
 4114POPC   GL154289   8.666  24.594   5.768
 4114POPC   GL254290   9.004  24.472   5.877
 4114POPC   C1A54291   8.698  24.780   6.181
 4114POPC   D2A54292   8.708  24.610   6.575
 4114POPC   C3A54293   8.724  24.696   6.988
 4114POPC   C4A54294   8.889  24.338   7.181
 4114POPC   C1B54295   9.146  24.537   6.307
 4114POPC   C2B54296   9.228  24.604   6.753
 4114POPC   C3B54297   9.375  24.486   7.157
 4114POPC   C4B54298   9.232  24.387   7.584
 4115POPC   NC354299  38.081  29.859   5.424
 4115POPC   PO454300  38.560  30.284   5.299
 4115POPC   GL154301  38.553  29.979   5.694
 4115POPC   GL254302  38.252  29.950   5.902
 4115POPC   C1A54303  38.671  29.973   6.174
 4115POPC   D2A54304  38.356  29.936   6.528
 4115POPC   C3A54305  38.473  29.933   6.969
 4115POPC   C4A54306  38.799  29.823   7.231
 4115POPC   C1B54307  38.122  29.648   6.165
 4115POPC   C2B54308  38.119  29.448   6.550
 4115POPC   C3B54309  38.062  29.591   6.957
 4115POPC   C4B54310  38.100  29.685   7.409
 4116POPC   NC354311  17.260   0.774   5.607
 4116POPC   PO454312  17.801   0.705   5.208
 4116POPC   GL154313  17.679   0.437   5.649
 4116POPC   GL254314  17.356   0.301   5.836
 4116POPC   C1A54315  17.746   0.379   6.141
 4116POPC   D2A54316  17.644   0.165   6.541
 4116POPC   C3A54317  17.721   0.404   6.928
 4116POPC   C4A54318  17.613   0.361   7.358
 4116POPC   C1B54319  17.236   0.555   6.206
 4116POPC   C2B54320  17.296   0.613   6.647
 4116POPC   C3B54321  17.178   0.345   6.980
 4116POPC   C4B54322  17.114   0.507   7.371
 4117POPC   NC354323  28.432  20.917   5.291
 4117POPC   PO454324  28.154  20.363   5.143
 4117POPC   GL154325  28.322  20.500   5.620
 4117POPC   GL254326  28.093  20.422   5.882
 4117POPC   C1A54327  28.397  20.761   6.075
 4117POPC   D2A54328  28.615  20.973   6.432
 4117POPC   C3A54329  28.601  20.874   6.842
 4117POPC   C4A54330  28.633  20.865   7.254
 4117POPC   C1B54331  28.118  20.248   6.310
 4117POPC   C2B54332  28.053  20.363   6.751
 4117POPC   C3B54333  28.009  20.336   7.208
 4117POPC   C4B54334  28.111  20.151   7.637
 4118POPC   NC354335  29.635   6.469   5.488
 4118POPC   PO454336  30.277   6.691   5.423
 4118POPC   GL154337  30.019   6.704   5.801
 4118POPC   GL254338  30.027   6.349   5.835
 4118POPC   C1A54339  29.846   6.658   6.222
 4118POPC   D2A54340  30.047   6.394   6.553
 4118POPC   C3A54341  29.836   6.498   6.935
 4118POPC   C4A54342  29.886   6.711   7.332
 4118POPC   C1B54343  29.656   6.217   6.078
 4118POPC   C2B54344  29.610   6.155   6.524
 4118POPC   C3B54345  29.465   6.138   6.940
 4118POPC   C4B54346  29.484   6.418   7.309
 4119POPC   NC354347  32.451  13.592   5.148
 4119POPC   PO454348  31.930  14.037   5.260
 4119POPC   GL154349  32.124  13.740   5.628
 4119POPC   GL254350  31.889  13.591   5.903
 4119POPC   C1A54351  32.368  13.630   6.070
 4119POPC   D2A54352  32.268  13.557   6.560
 4119POPC   C3A54353  32.477  13.373   6.970
 4119POPC   C4A54354  32.479  13.135   7.395
 4119POPC   C1B54355  31.826  13.787   6.344
 4119POPC   C2B54356  31.966  13.930   6.774
 4119POPC   C3B54357  32.170  13.802   7.149
 4119POPC   C4B54358  32.049  13.898   7.590
 4120POPC   NC354359  36.661  34.890   5.496
 4120POPC   PO454360  37.306  34.583   5.283
 4120POPC   GL154361  37.041  34.570   5.692
 4120POPC   GL254362  37.004  34.847   5.890
 4120POPC   C1A54363  37.119  34.419   6.139
 4120POPC   D2A54364  37.007  34.647   6.513
 4120POPC   C3A54365  37.044  34.502   6.926
 4120POPC   C4A54366  36.809  34.592   7.286
 4120POPC   C1B54367  36.662  34.860   6.153
 4120POPC   C2B54368  36.613  34.987   6.552
 4120POPC   C3B54369  36.555  34.863   6.943
 4120POPC   C4B54370  36.395  34.877   7.363
 4121POPC   NC354371   5.292  22.030   5.568
 4121POPC   PO454372   5.938  22.046   5.475
 4121POPC   GL154373   5.782  22.146   5.883
 4121POPC   GL254374   5.450  22.070   6.034
 4121POPC   C1A54375   5.900  22.280   6.263
 4121POPC   D2A54376   5.962  22.495   6.614
 4121POPC   C3A54377   5.983  22.177   6.920
 4121POPC   C4A54378   5.960  22.063   7.345
 4121POPC   C1B54379   5.386  22.398   6.328
 4121POPC   C2B54380   5.470  22.320   6.735
 4121POPC   C3B54381   5.517  22.195   7.147
 4121POPC   C4B54382   5.609  22.421   7.511
 4122POPC   NC354383   7.389  37.761   5.310
 4122POPC   PO454384   7.608  37.140   5.313
 4122POPC   GL154385   7.555  37.432   5.716
 4122POPC   GL254386   7.544  37.842   5.781
 4122POPC   C1A54387   7.586  37.524   6.173
 4122POPC   D2A54388   7.857  37.646   6.512
 4122POPC   C3A54389   7.662  37.538   6.867
 4122POPC   C4A54390   7.384  37.669   7.182
 4122POPC   C1B54391   7.389  38.012   6.213
 4122POPC   C2B54392   7.335  37.952   6.695
 4122POPC   C3B54393   6.977  37.930   7.035
 4122POPC   C4B54394   7.035  37.992   7.509
 4123POPC   NC354395  41.311   3.297   5.397
 4123POPC   PO454396  41.840   3.678   5.406
 4123POPC   GL154397  41.646   3.503   5.787
 4123POPC   GL254398  41.301   3.590   5.830
 4123POPC   C1A54399  41.661   3.514   6.250
 4123POPC   D2A54400  41.773   3.518   6.686
 4123POPC   C3A54401  41.400   3.512   6.912
 4123POPC   C4A54402  41.549   3.585   7.305
 4123POPC   C1B54403  41.264   3.200   6.093
 4123POPC   C2B54404  41.081   3.153   6.505
 4123POPC   C3B54405  41.209   3.000   6.917
 4123POPC   C4B54406  41.174   3.184   7.298
 4124POPC   NC354407  14.930   9.385   5.373
 4124POPC   PO454408  15.356   9.914   5.549
 4124POPC   GL154409  15.063   9.767   5.819
 4124POPC   GL254410  14.947  10.101   5.856
 4124POPC   C1A54411  15.019   9.556   6.226
 4124POPC   D2A54412  15.263   9.546   6.624
 4124POPC   C3A54413  15.061   9.588   7.031
 4124POPC   C4A54414  14.826   9.271   7.255
 4124POPC   C1B54415  15.120  10.051   6.286
 4124POPC   C2B54416  14.977  10.010   6.734
 4124POPC   C3B54417  15.092  10.124   7.179
 4124POPC   C4B54418  15.368   9.945   7.529
 4125POPC   NC354419  30.706  40.346   5.430
 4125POPC   PO454420  30.813  39.719   5.418
 4125POPC   GL154421  30.791  39.953   5.777
 4125POPC   GL254422  31.083  40.133   5.773
 4125POPC   C1A54423  30.627  39.942   6.180
 4125POPC   D2A54424  30.647  39.658   6.536
 4125POPC   C3A54425  30.606  39.846   6.964
 4125POPC   C4A54426  30.307  40.049   7.295
 4125POPC   C1B54427  31.054  40.243   6.195
 4125POPC   C2B54428  30.898  40.100   6.597
 4125POPC   C3B54429  30.997  40.201   7.014
 4125POPC   C4B54430  31.070  40.585   7.219
 4126POPC   NC354431  43.495  21.614   5.505
 4126POPC   PO454432  42.963  21.154   5.434
 4126POPC   GL154433  43.084  21.407   5.786
 4126POPC   GL254434  43.413  21.218   5.858
 4126POPC   C1A54435  42.952  21.358   6.248
 4126POPC   D2A54436  43.105  21.410   6.698
 4126POPC   C3A54437  42.892  21.322   7.090
 4126POPC   C4A54438  42.820  21.562   7.449
 4126POPC   C1B54439  43.418  21.584   6.146
 4126POPC   C2B54440  43.408  21.819   6.540
 4126POPC   C3B54441  43.493  21.716   6.947
 4126POPC   C4B54442  43.361  21.433   7.244
 4127POPC   NC354443  14.890  15.357   5.341
 4127POPC   PO454444  15.523  15.262   5.347
 4127POPC   GL154445  15.265  15.117   5.740
 4127POPC   GL254446  15.451  14.855   5.940
 4127POPC   C1A54447  15.060  15.103   6.212
 4127POPC   D2A54448  15.014  14.996   6.714
 4127POPC   C3A54449  15.214  15.215   7.117
 4127POPC   C4A54450  15.068  15.487   7.486
 4127POPC   C1B54451  15.509  14.920   6.400
 4127POPC   C2B54452  15.590  14.956   6.849
 4127POPC   C3B54453  15.761  15.232   7.172
 4127POPC   C4B54454  15.591  15.563   7.456
 4128POPC   NC354455  17.956  44.347   5.363
 4128POPC   PO454456  17.235  44.418   5.505
 4128POPC   GL154457  17.395  44.757   5.853
 4128POPC   GL254458  17.720  44.928   5.873
 4128POPC   C1A54459  17.263  44.976   6.223
 4128POPC   D2A54460  17.330  44.681   6.533
 4128POPC   C3A54461  17.441  44.740   6.950
 4128POPC   C4A54462  17.463  44.324   7.193
 4128POPC   C1B54463  17.812  44.626   6.240
 4128POPC   C2B54464  18.070  44.414   6.605
 4128POPC   C3B54465  17.901  44.526   7.024
 4128POPC   C4B54466  17.736  44.772   7.377
 4129POPC   NC354467  20.965  25.361   5.429
 4129POPC   PO454468  20.461  25.013   5.304
 4129POPC   GL154469  20.560  25.214   5.702
 4129POPC   GL254470  20.851  25.108   5.874
 4129POPC   C1A54471  20.436  25.345   6.109
 4129POPC   D2A54472  20.175  25.499   6.424
 4129POPC   C3A54473  20.377  25.632   6.787
 4129POPC   C4A54474  20.709  25.458   7.038
 4129POPC   C1B54475  20.863  25.169   6.314
 4129POPC   C2B54476  20.548  25.171   6.616
 4129POPC   C3B54477  20.570  24.964   6.994
 4129POPC   C4B54478  20.985  24.939   7.170
 4130POPC   NC354479  32.176  38.259   5.341
 4130POPC   PO454480  32.506  38.845   5.271
 4130POPC   GL154481  32.335  38.640   5.701
 4130POPC   GL254482  32.100  38.353   5.820
 4130POPC   C1A54483  32.290  38.650   6.191
 4130POPC   D2A54484  32.450  38.510   6.612
 4130POPC   C3A54485  32.225  38.520   7.028
 4130POPC   C4A54486  31.991  38.620   7.438
 4130POPC   C1B54487  32.072  38.131   6.203
 4130POPC   C2B54488  32.068  38.182   6.630
 4130POPC   C3B54489  32.263  37.986   6.990
 4130POPC   C4B54490  32.076  38.128   7.339
 4131POPC   NC354491  36.316  41.807   5.398
 4131POPC   PO454492  35.871  41.367   4.991
 4131POPC   GL154493  35.968  41.460   5.531
 4131POPC   GL254494  36.178  41.279   5.752
 4131POPC   C1A54495  36.181  41.702   6.011
 4131POPC   D2A54496  36.351  41.868   6.450
 4131POPC   C3A54497  36.249  41.697   6.873
 4131POPC   C4A54498  36.133  41.523   7.299
 4131POPC   C1B54499  36.368  41.205   6.176
 4131POPC   C2B54500  36.306  41.110   6.639
 4131POPC   C3B54501  36.478  41.239   7.042
 4131POPC   C4B54502  36.484  41.184   7.495
 4132POPC   NC354503  38.888  13.133   5.441
 4132POPC   PO454504  39.524  13.175   5.306
 4132POPC   GL154505  39.320  13.066   5.733
 4132POPC   GL254506  39.182  13.345   5.916
 4132POPC   C1A54507  38.962  12.834   6.001
 4132POPC   D2A54508  38.860  12.772   6.442
 4132POPC   C3A54509  39.054  12.981   6.779
 4132POPC   C4A54510  38.976  13.168   7.183
 4132POPC   C1B54511  39.290  13.075   6.292
 4132POPC   C2B54512  39.548  12.937   6.616
 4132POPC   C3B54513  39.461  13.210   6.992
 4132POPC   C4B54514  39.383  13.213   7.481
 4133POPC   NC354515   4.981  31.689   5.254
 4133POPC   PO454516   5.514  31.333   5.377
 4133POPC   GL154517   5.181  31.507   5.680
 4133POPC   GL254518   4.909  31.258   5.731
 4133POPC   C1A54519   4.971  31.633   6.103
 4133POPC   D2A54520   5.136  31.513   6.509
 4133POPC   C3A54521   4.946  31.542   6.932
 4133POPC   C4A54522   5.133  31.750   7.276
 4133POPC   C1B54523   5.266  31.215   6.082
 4133POPC   C2B54524   5.316  31.045   6.494
 4133POPC   C3B54525   5.383  31.258   6.875
 4133POPC   C4B54526   5.322  31.245   7.296
 4134POPC   NC354527  20.848  36.074   5.295
 4134POPC   PO454528  20.224  36.149   5.455
 4134POPC   GL154529  20.535  36.104   5.815
 4134POPC   GL254530  20.903  35.956   5.832
 4134POPC   C1A54531  20.513  36.313   6.225
 4134POPC   D2A54532  20.656  36.557   6.581
 4134POPC   C3A54533  20.616  36.312   6.951
 4134POPC   C4A54534  20.605  36.310   7.371
 4134POPC   C1B54535  20.694  35.825   6.205
 4134POPC   C2B54536  20.606  35.940   6.594
 4134POPC   C3B54537  20.742  35.808   6.979
 4134POPC   C4B54538  20.570  35.797   7.355
 4135POPC   NC354539  26.771   3.884   5.235
 4135POPC   PO454540  27.174   3.483   5.448
 4135POPC   GL154541  26.891   3.609   5.776
 4135POPC   GL254542  26.743   3.254   5.764
 4135POPC   C1A54543  26.857   3.624   6.259
 4135POPC   D2A54544  26.964   3.322   6.594
 4135POPC   C3A54545  26.923   3.502   7.009
 4135POPC   C4A54546  26.782   3.412   7.413
 4135POPC   C1B54547  26.645   3.170   6.195
 4135POPC   C2B54548  26.462   3.408   6.583
 4135POPC   C3B54549  26.446   3.308   7.036
 4135POPC   C4B54550  26.283   3.527   7.418
 4136POPC   NC354551  35.549  13.560   5.296
 4136POPC   PO454552  35.647  14.177   5.409
 4136POPC   GL154553  35.533  13.865   5.751
 4136POPC   GL254554  35.292  13.568   5.744
 4136POPC   C1A54555  35.473  13.799   6.194
 4136POPC   D2A54556  35.737  13.784   6.530
 4136POPC   C3A54557  35.520  13.666   6.901
 4136POPC   C4A54558  35.603  13.779   7.321
 4136POPC   C1B54559  35.048  13.525   6.109
 4136POPC   C2B54560  35.153  13.456   6.538
 4136POPC   C3B54561  34.956  13.381   6.916
 4136POPC   C4B54562  35.168  13.529   7.264
 4137POPC   NC354563  21.749  30.268   5.754
 4137POPC   PO454564  21.466  30.605   5.198
 4137POPC   GL154565  21.374  30.656   5.682
 4137POPC   GL254566  21.607  30.806   5.897
 4137POPC   C1A54567  21.144  30.824   6.064
 4137POPC   D2A54568  21.146  30.989   6.513
 4137POPC   C3A54569  21.164  30.677   6.866
 4137POPC   C4A54570  21.585  30.476   7.054
 4137POPC   C1B54571  21.531  31.176   6.179
 4137POPC   C2B54572  21.636  31.269   6.592
 4137POPC   C3B54573  21.560  30.967   6.886
 4137POPC   C4B54574  21.354  30.876   7.288
 4138POPC   NC354575   6.217  33.224   5.199
 4138POPC   PO454576   5.568  32.966   5.350
 4138POPC   GL154577   5.784  33.153   5.733
 4138POPC   GL254578   6.157  33.254   5.753
 4138POPC   C1A54579   5.755  33.329   6.148
 4138POPC   D2A54580   5.885  33.205   6.556
 4138POPC   C3A54581   5.880  33.411   6.934
 4138POPC   C4A54582   5.631  33.245   7.257
 4138POPC   C1B54583   6.229  33.104   6.187
 4138POPC   C2B54584   6.344  32.992   6.621
 4138POPC   C3B54585   6.099  32.936   7.001
 4138POPC   C4B54586   6.216  33.016   7.418
 4139POPC   NC354587  28.738  36.928   5.550
 4139POPC   PO454588  28.135  36.590   5.468
 4139POPC   GL154589  28.289  36.807   5.789
 4139POPC   GL254590  28.553  36.586   5.881
 4139POPC   C1A54591  28.258  36.859   6.218
 4139POPC   D2A54592  28.054  36.979   6.595
 4139POPC   C3A54593  28.283  36.952   6.955
 4139POPC   C4A54594  28.113  36.740   7.293
 4139POPC   C1B54595  28.722  36.687   6.312
 4139POPC   C2B54596  28.549  36.506   6.689
 4139POPC   C3B54597  28.561  36.535   7.134
 4139POPC   C4B54598  28.569  36.805   7.513
 4140POPC   NC354599  29.293  36.933   5.405
 4140POPC   PO454600  29.335  36.391   5.723
 4140POPC   GL154601  29.318  36.731   5.972
 4140POPC   GL254602  29.053  36.962   5.953
 4140POPC   C1A54603  29.411  36.905   6.364
 4140POPC   D2A54604  29.128  36.994   6.655
 4140POPC   C3A54605  29.263  36.879   7.034
 4140POPC   C4A54606  29.018  36.661   7.299
 4140POPC   C1B54607  28.800  37.201   6.286
 4140POPC   C2B54608  28.733  37.312   6.731
 4140POPC   C3B54609  28.791  37.069   7.105
 4140POPC   C4B54610  29.124  37.155   7.434
 4141POPC   NC354611  42.519  37.427   5.528
 4141POPC   PO454612  41.993  37.560   5.163
 4141POPC   GL154613  42.037  37.759   5.657
 4141POPC   GL254614  42.340  37.917   5.784
 4141POPC   C1A54615  42.124  37.655   6.137
 4141POPC   D2A54616  42.247  37.903   6.522
 4141POPC   C3A54617  42.104  37.783   6.954
 4141POPC   C4A54618  42.176  38.041   7.324
 4141POPC   C1B54619  42.609  37.843   6.143
 4141POPC   C2B54620  42.693  37.627   6.561
 4141POPC   C3B54621  42.611  37.713   6.988
 4141POPC   C4B54622  42.502  37.649   7.421
 4142POPC   NC354623  26.599  10.796   5.419
 4142POPC   PO454624  26.789  10.106   5.343
 4142POPC   GL154625  26.822  10.347   5.785
 4142POPC   GL254626  27.084  10.633   5.841
 4142POPC   C1A54627  26.805  10.457   6.270
 4142POPC   D2A54628  26.985  10.276   6.669
 4142POPC   C3A54629  27.023  10.393   7.119
 4142POPC   C4A54630  26.784  10.355   7.501
 4142POPC   C1B54631  27.269  10.655   6.287
 4142POPC   C2B54632  27.133  10.774   6.733
 4142POPC   C3B54633  26.906  10.895   7.124
 4142POPC   C4B54634  26.953  10.827   7.571
 4143POPC   NC354635  37.791  22.392   5.313
 4143POPC   PO454636  37.424  21.954   5.250
 4143POPC   GL154637  37.556  22.019   5.650
 4143POPC   GL254638  37.487  22.380   5.734
 4143POPC   C1A54639  37.602  22.004   6.097
 4143POPC   D2A54640  37.528  21.867   6.517
 4143POPC   C3A54641  37.839  21.958   6.828
 4143POPC   C4A54642  37.994  21.780   7.177
 4143POPC   C1B54643  37.683  22.531   6.120
 4143POPC   C2B54644  37.691  22.354   6.523
 4143POPC   C3B54645  37.772  22.460   6.952
 4143POPC   C4B54646  37.732  22.182   7.314
 4144POPC   NC354647  33.041  30.796   5.430
 4144POPC   PO454648  32.532  30.343   5.358
 4144POPC   GL154649  32.797  30.460   5.744
 4144POPC   GL254650  32.661  30.787   5.832
 4144POPC   C1A54651  33.039  30.610   6.158
 4144POPC   D2A54652  33.290  30.695   6.574
 4144POPC   C3A54653  33.087  30.579   6.953
 4144POPC   C4A54654  33.100  30.364   7.365
 4144POPC   C1B54655  32.663  30.956   6.227
 4144POPC   C2B54656  32.878  31.001   6.598
 4144POPC   C3B54657  32.717  30.941   7.000
 4144POPC   C4B54658  32.935  30.855   7.373
 4145POPC   NC354659  40.096  28.710   5.223
 4145POPC   PO454660  40.064  29.373   5.257
 4145POPC   GL154661  39.996  29.352   5.679
 4145POPC   GL254662  40.039  28.993   5.663
 4145POPC   C1A54663  40.057  29.475   6.107
 4145POPC   D2A54664  39.842  29.319   6.471
 4145POPC   C3A54665  39.845  29.490   6.879
 4145POPC   C4A54666  39.903  29.346   7.284
 4145POPC   C1B54667  39.955  28.946   6.092
 4145POPC   C2B54668  40.077  28.858   6.512
 4145POPC   C3B54669  39.984  28.998   6.922
 4145POPC   C4B54670  40.177  28.901   7.346
 4146POPC   NC354671  42.078  30.125   5.571
 4146POPC   PO454672  41.683  29.648   5.171
 4146POPC   GL154673  41.646  29.820   5.636
 4146POPC   GL254674  41.589  30.152   5.789
 4146POPC   C1A54675  41.705  29.766   6.099
 4146POPC   D2A54676  41.757  29.854   6.550
 4146POPC   C3A54677  41.584  29.714   6.971
 4146POPC   C4A54678  41.689  29.952   7.364
 4146POPC   C1B54679  41.319  30.090   6.193
 4146POPC   C2B54680  41.255  29.943   6.637
 4146POPC   C3B54681  41.252  30.119   7.066
 4146POPC   C4B54682  40.938  30.077   7.393
 4147POPC   NC354683   1.682  37.183   5.580
 4147POPC   PO454684   2.278  36.797   5.430
 4147POPC   GL154685   2.028  36.826   5.776
 4147POPC   GL254686   2.114  37.151   5.862
 4147POPC   C1A54687   1.863  36.694   6.169
 4147POPC   D2A54688   2.041  36.637   6.584
 4147POPC   C3A54689   1.801  36.573   6.948
 4147POPC   C4A54690   1.928  36.766   7.317
 4147POPC   C1B54691   1.885  37.219   6.259
 4147POPC   C2B54692   1.987  37.474   6.647
 4147POPC   C3B54693   2.042  37.264   7.041
 4147POPC   C4B54694   1.641  37.164   7.196
 4148POPC   NC354695  27.331  30.930   5.400
 4148POPC   PO454696  27.905  30.677   5.363
 4148POPC   GL154697  27.705  30.738   5.734
 4148POPC   GL254698  27.460  30.504   5.696
 4148POPC   C1A54699  27.681  30.843   6.182
 4148POPC   D2A54700  27.708  30.643   6.578
 4148POPC   C3A54701  27.910  30.908   6.875
 4148POPC   C4A54702  28.043  30.784   7.259
 4148POPC   C1B54703  27.479  30.387   6.142
 4148POPC   C2B54704  27.496  30.172   6.540
 4148POPC   C3B54705  27.424  30.357   6.926
 4148POPC   C4B54706  27.510  30.706   7.169
 4149POPC   NC354707  10.621  19.445   5.592
 4149POPC   PO454708  10.155  19.939   5.684
 4149POPC   GL154709  10.570  19.874   5.895
 4149POPC   GL254710  10.723  20.220   5.767
 4149POPC   C1A54711  10.742  19.538   6.229
 4149POPC   D2A54712  10.826  19.291   6.653
 4149POPC   C3A54713  10.616  19.520   7.007
 4149POPC   C4A54714  10.463  19.797   7.384
 4149POPC   C1B54715  10.843  20.312   6.207
 4149POPC   C2B54716  10.794  20.081   6.588
 4149POPC   C3B54717  10.690  20.122   7.034
 4149POPC   C4B54718  10.800  20.217   7.469
 4150POPC   NC354719  41.645  43.767   5.574
 4150POPC   PO454720  41.674  43.112   5.396
 4150POPC   GL154721  41.597  43.288   5.822
 4150POPC   GL254722  41.295  43.470   5.852
 4150POPC   C1A54723  41.651  43.144   6.275
 4150POPC   D2A54724  41.736  43.061   6.724
 4150POPC   C3A54725  41.437  43.041   7.087
 4150POPC   C4A54726  41.497  43.032   7.536
 4150POPC   C1B54727  41.159  43.286   6.230
 4150POPC   C2B54728  41.187  43.127   6.642
 4150POPC   C3B54729  41.151  43.441   7.000
 4150POPC   C4B54730  41.107  43.357   7.444
 4151POPC   NC354731  20.845  33.695   5.548
 4151POPC   PO454732  20.206  33.751   5.244
 4151POPC   GL154733  20.383  33.888   5.666
 4151POPC   GL254734  20.641  34.145   5.686
 4151POPC   C1A54735  20.433  33.801   6.111
 4151POPC   D2A54736  20.543  33.532   6.464
 4151POPC   C3A54737  20.374  33.707   6.843
 4151POPC   C4A54738  20.458  33.609   7.253
 4151POPC   C1B54739  20.878  34.101   6.090
 4151POPC   C2B54740  20.780  33.973   6.505
 4151POPC   C3B54741  20.891  33.826   6.908
 4151POPC   C4B54742  20.807  34.095   7.247
 4152POPC   NC354743  10.798  39.403   5.520
 4152POPC   PO454744  11.332  38.974   5.455
 4152POPC   GL154745  11.204  39.232   5.838
 4152POPC   GL254746  11.080  39.584   5.890
 4152POPC   C1A54747  11.314  39.337   6.276
 4152POPC   D2A54748  11.172  39.154   6.694
 4152POPC   C3A54749  11.305  39.219   7.122
 4152POPC   C4A54750  11.529  39.207   7.514
 4152POPC   C1B54751  11.049  39.799   6.276
 4152POPC   C2B54752  11.178  39.667   6.688
 4152POPC   C3B54753  11.062  39.658   7.147
 4152POPC   C4B54754  11.074  39.450   7.575
 4153POPC   NC354755  38.718  28.006   5.539
 4153POPC   PO454756  38.119  27.807   5.423
 4153POPC   GL154757  38.363  27.590   5.750
 4153POPC   GL254758  38.711  27.443   5.721
 4153POPC   C1A54759  38.327  27.330   6.131
 4153POPC   D2A54760  38.370  27.520   6.535
 4153POPC   C3A54761  38.354  27.297   6.911
 4153POPC   C4A54762  38.211  27.462   7.262
 4153POPC   C1B54763  38.699  27.664   6.134
 4153POPC   C2B54764  38.836  27.761   6.543
 4153POPC   C3B54765  38.634  27.744   6.938
 4153POPC   C4B54766  38.731  27.448   7.232
 4154POPC   NC354767  42.258   0.109   5.460
 4154POPC   PO454768  42.769   0.501   5.448
 4154POPC   GL154769  42.495   0.624   5.797
 4154POPC   GL254770  42.115   0.637   5.731
 4154POPC   C1A54771  42.325   0.530   6.214
 4154POPC   D2A54772  42.246   0.610   6.651
 4154POPC   C3A54773  42.530   0.582   6.991
 4154POPC   C4A54774  42.546   0.257   7.296
 4154POPC   C1B54775  41.950   0.905   6.082
 4154POPC   C2B54776  41.913   0.978   6.539
 4154POPC   C3B54777  41.879   0.794   6.960
 4154POPC   C4B54778  42.089   0.511   7.247
 4155POPC   NC354779   1.114  10.110   5.263
 4155POPC   PO454780   1.515   9.692   5.312
 4155POPC   GL154781   1.642   9.726   5.736
 4155POPC   GL254782   1.680   9.415   5.941
 4155POPC   C1A54783   1.555   9.900   6.144
 4155POPC   D2A54784   1.308  10.007   6.517
 4155POPC   C3A54785   1.442   9.971   6.927
 4155POPC   C4A54786   1.263   9.992   7.340
 4155POPC   C1B54787   1.806   9.448   6.395
 4155POPC   C2B54788   1.685   9.530   6.835
 4155POPC   C3B54789   1.291   9.515   7.120
 4155POPC   C4B54790   1.173   9.173   7.404
 4156POPC   NC354791   4.021   5.661   5.152
 4156POPC   PO454792   4.437   6.093   5.521
 4156POPC   GL154793   4.343   5.909   5.881
 4156POPC   GL254794   4.502   5.600   5.851
 4156POPC   C1A54795   4.456   5.821   6.297
 4156POPC   D2A54796   4.245   5.690   6.613
 4156POPC   C3A54797   4.409   5.514   6.959
 4156POPC   C4A54798   4.335   5.863   7.178
 4156POPC   C1B54799   4.170   5.444   6.117
 4156POPC   C2B54800   3.835   5.474   6.423
 4156POPC   C3B54801   3.872   5.446   6.873
 4156POPC   C4B54802   3.987   5.494   7.274
 4157POPC   NC354803  21.877   6.241   5.747
 4157POPC   PO454804  21.653   5.680   5.664
 4157POPC   GL154805  21.499   5.827   6.037
 4157POPC   GL254806  21.688   6.085   6.212
 4157POPC   C1A54807  21.396   5.748   6.465
 4157POPC   D2A54808  21.468   6.026   6.800
 4157POPC   C3A54809  21.328   5.869   7.195
 4157POPC   C4A54810  21.520   5.946   7.557
 4157POPC   C1B54811  21.246   6.228   6.291
 4157POPC   C2B54812  20.958   6.374   6.629
 4157POPC   C3B54813  21.049   6.281   7.061
 4157POPC   C4B54814  21.495   6.366   7.235
 4158POPC   NC354815   1.041   2.063   5.408
 4158POPC   PO454816   1.449   1.680   5.465
 4158POPC   GL154817   1.311   1.972   5.837
 4158POPC   GL254818   0.919   1.963   5.885
 4158POPC   C1A54819   1.222   1.911   6.286
 4158POPC   D2A54820   1.050   1.752   6.663
 4158POPC   C3A54821   1.394   1.742   6.917
 4158POPC   C4A54822   1.549   1.700   7.328
 4158POPC   C1B54823   0.942   2.332   6.143
 4158POPC   C2B54824   0.998   2.488   6.554
 4158POPC   C3B54825   1.102   2.202   6.921
 4158POPC   C4B54826   0.965   2.125   7.354
 4159POPC   NC354827  34.368  25.070   5.632
 4159POPC   PO454828  33.808  25.056   5.253
 4159POPC   GL154829  33.823  25.179   5.701
 4159POPC   GL254830  34.043  25.057   6.006
 4159POPC   C1A54831  33.658  25.353   6.098
 4159POPC   D2A54832  33.848  25.246   6.485
 4159POPC   C3A54833  33.729  25.497   6.816
 4159POPC   C4A54834  33.922  25.558   7.187
 4159POPC   C1B54835  34.336  25.083   6.378
 4159POPC   C2B54836  34.381  25.003   6.850
 4159POPC   C3B54837  34.116  25.076   7.240
 4159POPC   C4B54838  33.853  24.817   7.538
 4160POPC   NC354839  23.715  32.697   5.335
 4160POPC   PO454840  23.453  33.260   5.361
 4160POPC   GL154841  23.759  33.131   5.699
 4160POPC   GL254842  23.730  32.799   5.832
 4160POPC   C1A54843  23.813  33.163   6.179
 4160POPC   D2A54844  23.598  33.120   6.588
 4160POPC   C3A54845  23.834  33.220   6.949
 4160POPC   C4A54846  23.722  33.380   7.321
 4160POPC   C1B54847  23.454  32.727   6.183
 4160POPC   C2B54848  23.588  32.596   6.589
 4160POPC   C3B54849  23.940  32.728   6.858
 4160POPC   C4B54850  23.898  32.841   7.290
 4161POPC   NC354851   3.624  13.941   5.377
 4161POPC   PO454852   3.096  13.464   5.447
 4161POPC   GL154853   3.265  13.669   5.799
 4161POPC   GL254854   3.607  13.634   5.787
 4161POPC   C1A54855   3.396  13.519   6.231
 4161POPC   D2A54856   3.672  13.559   6.586
 4161POPC   C3A54857   3.432  13.572   6.941
 4161POPC   C4A54858   3.149  13.662   7.257
 4161POPC   C1B54859   3.792  13.859   6.135
 4161POPC   C2B54860   3.960  13.994   6.537
 4161POPC   C3B54861   3.820  13.901   6.957
 4161POPC   C4B54862   3.996  13.947   7.359
 4162POPC   NC354863  30.087  12.728   4.928
 4162POPC   PO454864  29.866  12.551   5.549
 4162POPC   GL154865  29.815  12.693   5.935
 4162POPC   GL254866  29.623  13.038   5.870
 4162POPC   C1A54867  30.145  12.540   6.220
 4162POPC   D2A54868  30.288  12.793   6.548
 4162POPC   C3A54869  30.011  12.756   6.876
 4162POPC   C4A54870  30.207  12.805   7.248
 4162POPC   C1B54871  29.629  13.066   6.308
 4162POPC   C2B54872  29.923  13.222   6.623
 4162POPC   C3B54873  30.025  13.261   7.047
 4162POPC   C4B54874  29.745  12.995   7.291
 4163POPC   NC354875  29.997  35.450   5.233
 4163POPC   PO454876  29.392  35.536   5.441
 4163POPC   GL154877  29.683  35.452   5.787
 4163POPC   GL254878  30.056  35.583   5.760
 4163POPC   C1A54879  29.680  35.193   6.196
 4163POPC   D2A54880  29.485  35.112   6.614
 4163POPC   C3A54881  29.724  35.175   6.986
 4163POPC   C4A54882  29.681  35.561   7.168
 4163POPC   C1B54883  29.944  35.631   6.185
 4163POPC   C2B54884  29.953  35.493   6.615
 4163POPC   C3B54885  30.139  35.657   6.992
 4163POPC   C4B54886  30.239  35.477   7.416
 4164POPC   NC354887   1.328  28.264   5.444
 4164POPC   PO454888   0.822  27.809   5.396
 4164POPC   GL154889   1.006  28.015   5.767
 4164POPC   GL254890   1.054  28.397   5.833
 4164POPC   C1A54891   1.147  27.988   6.193
 4164POPC   D2A54892   0.948  27.980   6.580
 4164POPC   C3A54893   1.056  28.199   6.935
 4164POPC   C4A54894   1.351  28.003   7.172
 4164POPC   C1B54895   1.425  28.393   6.110
 4164POPC   C2B54896   1.445  28.261   6.555
 4164POPC   C3B54897   1.519  28.444   6.977
 4164POPC   C4B54898   1.515  28.579   7.381
 4165POPC   NC354899  29.774   3.555   5.488
 4165POPC   PO454900  30.380   3.760   5.563
 4165POPC   GL154901  30.131   3.587   5.871
 4165POPC   GL254902  29.794   3.780   5.957
 4165POPC   C1A54903  30.106   3.556   6.300
 4165POPC   D2A54904  29.708   3.533   6.512
 4165POPC   C3A54905  29.824   3.678   6.895
 4165POPC   C4A54906  29.903   3.440   7.275
 4165POPC   C1B54907  29.498   3.968   6.285
 4165POPC   C2B54908  29.363   3.904   6.732
 4165POPC   C3B54909  29.564   4.081   7.084
 4165POPC   C4B54910  29.853   3.943   7.343
 4166POPC   NC354911  37.172  14.256   5.371
 4166POPC   PO454912  36.570  14.423   5.112
 4166POPC   GL154913  36.594  14.327   5.588
 4166POPC   GL254914  36.909  14.432   5.756
 4166POPC   C1A54915  36.526  14.309   6.062
 4166POPC   D2A54916  36.799  14.315   6.432
 4166POPC   C3A54917  36.672  14.423   6.873
 4166POPC   C4A54918  36.780  14.290   7.286
 4166POPC   C1B54919  37.188  14.580   6.079
 4166POPC   C2B54920  37.196  14.636   6.521
 4166POPC   C3B54921  37.182  14.313   6.837
 4166POPC   C4B54922  37.339  14.422   7.221
 4167POPC   NC354923   5.502  16.725   5.286
 4167POPC   PO454924   4.951  17.157   5.379
 4167POPC   GL154925   5.095  16.810   5.676
 4167POPC   GL254926   4.819  16.561   5.683
 4167POPC   C1A54927   5.109  16.624   6.133
 4167POPC   D2A54928   5.083  16.567   6.620
 4167POPC   C3A54929   5.363  16.648   6.963
 4167POPC   C4A54930   5.483  16.823   7.375
 4167POPC   C1B54931   4.691  16.892   6.017
 4167POPC   C2B54932   4.786  17.011   6.468
 4167POPC   C3B54933   4.850  16.938   6.931
 4167POPC   C4B54934   4.946  16.608   7.274
 4168POPC   NC354935  27.863   8.332   5.560
 4168POPC   PO454936  28.515   8.327   5.438
 4168POPC   GL154937  28.430   8.187   5.821
 4168POPC   GL254938  28.776   8.069   5.822
 4168POPC   C1A54939  28.183   8.167   6.187
 4168POPC   D2A54940  28.123   8.470   6.521
 4168POPC   C3A54941  28.301   8.273   6.859
 4168POPC   C4A54942  28.256   7.989   7.187
 4168POPC   C1B54943  28.704   8.131   6.245
 4168POPC   C2B54944  28.726   8.038   6.641
 4168POPC   C3B54945  28.802   8.258   6.985
 4168POPC   C4B54946  28.747   8.019   7.327
 4169POPC   NC354947  13.577   0.583   5.078
 4169POPC   PO454948  13.865   0.129   5.524
 4169POPC   GL154949  13.666   0.415   5.885
 4169POPC   GL254950  13.938   0.628   6.097
 4169POPC   C1A54951  13.418   0.665   6.178
 4169POPC   D2A54952  13.422   0.799   6.622
 4169POPC   C3A54953  13.491   0.568   7.005
 4169POPC   C4A54954  13.611   0.679   7.422
 4169POPC   C1B54955  13.888   0.255   6.299
 4169POPC   C2B54956  14.026   0.022   6.598
 4169POPC   C3B54957  13.749  44.963   6.885
 4169POPC   C4B54958  13.532   0.113   7.218
 4170POPC   NC354959  19.618   3.767   5.379
 4170POPC   PO454960  19.645   2.983   5.461
 4170POPC   GL154961  19.611   3.372   5.726
 4170POPC   GL254962  19.904   3.569   5.847
 4170POPC   C1A54963  19.534   3.455   6.195
 4170POPC   D2A54964  19.306   3.605   6.593
 4170POPC   C3A54965  19.511   3.679   7.036
 4170POPC   C4A54966  19.602   3.533   7.466
 4170POPC   C1B54967  19.988   3.648   6.315
 4170POPC   C2B54968  19.780   3.420   6.665
 4170POPC   C3B54969  19.916   3.354   7.078
 4170POPC   C4B54970  20.083   3.703   7.307
 4171POPC   NC354971  38.325  31.573   5.339
 4171POPC   PO454972  38.787  31.089   5.512
 4171POPC   GL154973  38.465  31.263   5.764
 4171POPC   GL254974  38.416  31.624   5.827
 4171POPC   C1A54975  38.326  31.294   6.184
 4171POPC   D2A54976  38.534  31.486   6.519
 4171POPC   C3A54977  38.246  31.511   6.848
 4171POPC   C4A54978  38.325  31.200   7.145
 4171POPC   C1B54979  38.711  31.827   6.103
 4171POPC   C2B54980  38.981  31.746   6.435
 4171POPC   C3B54981  38.856  31.748   6.871
 4171POPC   C4B54982  38.572  31.679   7.195
 4172POPC   NC354983   2.996   0.190   5.486
 4172POPC   PO454984   2.527  44.770   5.179
 4172POPC   GL154985   2.673  44.607   5.611
 4172POPC   GL254986   3.055  44.616   5.592
 4172POPC   C1A54987   2.660  44.514   6.105
 4172POPC   D2A54988   2.711  44.574   6.547
 4172POPC   C3A54989   2.501  44.625   6.925
 4172POPC   C4A54990   2.607  44.974   7.181
 4172POPC   C1B54991   3.079  44.780   5.996
 4172POPC   C2B54992   3.167  44.728   6.404
 4172POPC   C3B54993   3.130  44.682   6.867
 4172POPC   C4B54994   3.169  44.362   7.197
 4173POPC   NC354995  21.031   9.626   5.063
 4173POPC   PO454996  21.556   9.997   5.380
 4173POPC   GL154997  21.440   9.649   5.709
 4173POPC   GL254998  21.313   9.884   5.956
 4173POPC   C1A54999  21.361   9.397   6.132
 4173POPC   D2A55000  21.270   9.573   6.574
 4173POPC   C3A55001  21.403   9.521   7.039
 4173POPC   C4A55002  21.437   9.544   7.508
 4173POPC   C1B55003  21.509  10.188   6.243
 4173POPC   C2B55004  21.430  10.065   6.661
 4173POPC   C3B55005  21.478  10.037   7.080
 4173POPC   C4B55006  21.801   9.806   7.239
 4174POPC   NC355007  24.707  22.540   5.295
 4174POPC   PO455008  24.825  21.885   5.387
 4174POPC   GL155009  24.604  21.820   5.825
 4174POPC   GL255010  24.214  21.811   5.839
 4174POPC   C1A55011  24.489  22.055   6.232
 4174POPC   D2A55012  24.414  22.360   6.576
 4174POPC   C3A55013  24.631  22.168   6.930
 4174POPC   C4A55014  24.707  21.726   7.105
 4174POPC   C1B55015  24.022  21.842   6.279
 4174POPC   C2B55016  24.200  21.921   6.698
 4174POPC   C3B55017  24.172  22.084   7.130
 4174POPC   C4B55018  24.113  22.221   7.575
 4175POPC   NC355019  44.979  36.091   5.394
 4175POPC   PO455020   0.672  36.228   5.422
 4175POPC   GL155021   0.365  36.354   5.750
 4175POPC   GL255022   0.222  36.060   5.866
 4175POPC   C1A55023   0.427  36.346   6.236
 4175POPC   D2A55024   0.646  36.259   6.636
 4175POPC   C3A55025   0.396  36.302   6.999
 4175POPC   C4A55026  44.975  36.473   6.930
 4175POPC   C1B55027   0.414  35.830   6.236
 4175POPC   C2B55028   0.289  35.610   6.616
 4175POPC   C3B55029   0.531  35.792   6.923
 4175POPC   C4B55030   0.682  35.713   7.331
 4176POPC   NC355031  15.134   3.339   5.341
 4176POPC   PO455032  14.550   3.242   5.598
 4176POPC   GL155033  14.876   3.467   5.851
 4176POPC   GL255034  15.241   3.538   5.794
 4176POPC   C1A55035  14.997   3.514   6.276
 4176POPC   D2A55036  14.908   3.662   6.673
 4176POPC   C3A55037  15.089   3.454   7.018
 4176POPC   C4A55038  15.429   3.698   7.206
 4176POPC   C1B55039  15.463   3.671   6.166
 4176POPC   C2B55040  15.408   3.500   6.611
 4176POPC   C3B55041  15.537   3.190   6.914
 4176POPC   C4B55042  15.632   3.253   7.328
 4177POPC   NC355043  24.170  20.936   5.370
 4177POPC   PO455044  24.557  20.341   5.358
 4177POPC   GL155045  24.663  20.467   5.763
 4177POPC   GL255046  24.871  20.199   5.799
 4177POPC   C1A55047  24.452  20.546   6.178
 4177POPC   D2A55048  24.176  20.584   6.544
 4177POPC   C3A55049  24.401  20.632   6.911
 4177POPC   C4A55050  24.383  20.724   7.355
 4177POPC   C1B55051  24.941  20.201   6.210
 4177POPC   C2B55052  24.792  20.191   6.625
 4177POPC   C3B55053  24.928  20.461   6.951
 4177POPC   C4B55054  24.879  20.617   7.363
 4178POPC   NC355055   7.163  30.624   5.388
 4178POPC   PO455056   7.802  30.540   5.193
 4178POPC   GL155057   7.602  30.500   5.668
 4178POPC   GL255058   7.400  30.776   5.844
 4178POPC   C1A55059   7.595  30.451   6.162
 4178POPC   D2A55060   7.722  30.641   6.565
 4178POPC   C3A55061   7.435  30.603   6.902
 4178POPC   C4A55062   7.550  30.759   7.290
 4178POPC   C1B55063   7.453  30.984   6.272
 4178POPC   C2B55064   7.180  30.971   6.657
 4178POPC   C3B55065   7.138  31.029   7.105
 4178POPC   C4B55066   7.049  31.416   7.297
 4179POPC   NC355067  29.616  29.908   5.569
 4179POPC   PO455068  30.312  29.570   5.623
 4179POPC   GL155069  29.963  29.691   5.876
 4179POPC   GL255070  30.011  30.050   5.855
 4179POPC   C1A55071  29.820  29.814   6.311
 4179POPC   D2A55072  29.675  30.131   6.635
 4179POPC   C3A55073  29.764  30.040   7.089
 4179POPC   C4A55074  29.878  29.738   7.431
 4179POPC   C1B55075  30.317  29.912   6.181
 4179POPC   C2B55076  30.467  29.741   6.573
 4179POPC   C3B55077  30.325  29.668   7.004
 4179POPC   C4B55078  30.262  30.014   7.246
 4180POPC   NC355079   9.125  25.548   5.357
 4180POPC   PO455080   8.632  25.085   5.500
 4180POPC   GL155081   8.904  25.130   5.850
 4180POPC   GL255082   9.115  25.453   5.859
 4180POPC   C1A55083   8.910  25.260   6.298
 4180POPC   D2A55084   8.993  25.057   6.691
 4180POPC   C3A55085   8.748  25.229   7.040
 4180POPC   C4A55086   8.738  25.213   7.486
 4180POPC   C1B55087   9.399  25.504   6.228
 4180POPC   C2B55088   9.299  25.483   6.672
 4180POPC   C3B55089   9.211  25.466   7.125
 4180POPC   C4B55090   9.462  25.658   7.463
 4181POPC   NC355091  33.733  14.735   5.374
 4181POPC   PO455092  33.669  15.411   5.340
 4181POPC   GL155093  33.604  15.118   5.708
 4181POPC   GL255094  33.950  14.976   5.789
 4181POPC   C1A55095  33.708  15.191   6.163
 4181POPC   D2A55096  33.982  15.198   6.521
 4181POPC   C3A55097  33.676  15.161   6.845
 4181POPC   C4A55098  33.622  15.399   7.206
 4181POPC   C1B55099  33.997  14.756   6.208
 4181POPC   C2B55100  33.909  14.710   6.650
 4181POPC   C3B55101  34.057  14.875   7.029
 4181POPC   C4B55102  33.728  14.904   7.336
 4182POPC   NC355103  43.288  40.723   5.383
 4182POPC   PO455104  42.681  40.621   5.542
 4182POPC   GL155105  43.032  40.668   5.834
 4182POPC   GL255106  43.279  40.970   5.827
 4182POPC   C1A55107  43.002  40.783   6.254
 4182POPC   D2A55108  42.883  40.952   6.639
 4182POPC   C3A55109  43.072  40.707   6.930
 4182POPC   C4A55110  43.104  40.577   7.336
 4182POPC   C1B55111  43.472  40.952   6.249
 4182POPC   C2B55112  43.602  40.917   6.688
 4182POPC   C3B55113  43.469  40.923   7.135
 4182POPC   C4B55114  43.282  41.019   7.540
 4183POPC   NC355115  30.804  39.312   5.193
 4183POPC   PO455116  30.296  38.863   5.384
 4183POPC   GL155117  30.529  39.236   5.615
 4183POPC   GL255118  30.303  39.484   5.710
 4183POPC   C1A55119  30.738  39.414   6.032
 4183POPC   D2A55120  30.963  39.262   6.415
 4183POPC   C3A55121  30.873  39.327   6.843
 4183POPC   C4A55122  30.956  39.239   7.249
 4183POPC   C1B55123  30.299  39.135   6.052
 4183POPC   C2B55124  30.446  39.176   6.476
 4183POPC   C3B55125  30.343  39.315   6.898
 4183POPC   C4B55126  30.234  39.059   7.255
 4184POPC   NC355127  30.671   3.855   5.228
 4184POPC   PO455128  31.083   3.391   5.386
 4184POPC   GL155129  30.868   3.373   5.812
 4184POPC   GL255130  30.528   3.251   5.742
 4184POPC   C1A55131  30.634   3.628   6.160
 4184POPC   D2A55132  30.505   3.805   6.573
 4184POPC   C3A55133  30.802   3.632   6.893
 4184POPC   C4A55134  30.705   3.250   7.129
 4184POPC   C1B55135  30.506   3.130   6.192
 4184POPC   C2B55136  30.417   3.291   6.622
 4184POPC   C3B55137  30.305   3.528   6.976
 4184POPC   C4B55138  30.393   3.506   7.431
 4185POPC   NC355139  41.749   0.072   5.088
 4185POPC   PO455140  41.589   0.661   5.443
 4185POPC   GL155141  41.571   0.639   5.870
 4185POPC   GL255142  41.219   0.758   5.878
 4185POPC   C1A55143  41.752   0.471   6.288
 4185POPC   D2A55144  41.816   0.347   6.733
 4185POPC   C3A55145  41.569   0.361   7.099
 4185POPC   C4A55146  41.800   0.061   7.260
 4185POPC   C1B55147  41.348   0.796   6.289
 4185POPC   C2B55148  41.478   0.720   6.659
 4185POPC   C3B55149  41.353   0.823   7.040
 4185POPC   C4B55150  41.615   0.823   7.388
 4186POPC   NC355151  15.532   6.298   5.316
 4186POPC   PO455152  14.893   6.346   5.330
 4186POPC   GL155153  15.122   6.473   5.723
 4186POPC   GL255154  15.360   6.233   5.833
 4186POPC   C1A55155  15.199   6.618   6.181
 4186POPC   D2A55156  14.901   6.654   6.558
 4186POPC   C3A55157  15.063   6.722   6.974
 4186POPC   C4A55158  15.412   6.914   7.161
 4186POPC   C1B55159  15.579   6.258   6.232
 4186POPC   C2B55160  15.687   6.346   6.654
 4186POPC   C3B55161  15.496   6.403   7.052
 4186POPC   C4B55162  15.247   6.488   7.411
 4187POPC   NC355163  35.025  42.881   5.489
 4187POPC   PO455164  34.381  43.010   5.370
 4187POPC   GL155165  34.453  43.022   5.827
 4187POPC   GL255166  34.809  43.097   5.900
 4187POPC   C1A55167  34.434  43.248   6.229
 4187POPC   D2A55168  34.463  43.112   6.648
 4187POPC   C3A55169  34.330  43.442   6.916
 4187POPC   C4A55170  34.513  43.457   7.319
 4187POPC   C1B55171  34.791  42.874   6.297
 4187POPC   C2B55172  34.973  42.930   6.702
 4187POPC   C3B55173  34.831  42.918   7.128
 4187POPC   C4B55174  34.856  42.640   7.506
 4188POPC   NC355175  20.079  19.473   5.207
 4188POPC   PO455176  19.588  19.022   5.337
 4188POPC   GL155177  19.705  19.235   5.693
 4188POPC   GL255178  20.016  19.082   5.765
 4188POPC   C1A55179  19.555  19.176   6.133
 4188POPC   D2A55180  19.657  18.971   6.524
 4188POPC   C3A55181  19.583  19.171   6.876
 4188POPC   C4A55182  19.760  19.145   7.244
 4188POPC   C1B55183  19.997  18.841   6.169
 4188POPC   C2B55184  20.066  18.680   6.636
 4188POPC   C3B55185  20.108  18.776   7.101
 4188POPC   C4B55186  20.078  18.925   7.560
 4189POPC   NC355187  37.974  43.148   5.335
 4189POPC   PO455188  37.483  42.752   5.374
 4189POPC   GL155189  37.539  43.038   5.725
 4189POPC   GL255190  37.684  43.373   5.706
 4189POPC   C1A55191  37.746  43.028   6.158
 4189POPC   D2A55192  37.827  42.799   6.582
 4189POPC   C3A55193  37.544  42.958   6.917
 4189POPC   C4A55194  37.579  43.034   7.361
 4189POPC   C1B55195  38.000  43.475   6.016
 4189POPC   C2B55196  38.148  43.460   6.441
 4189POPC   C3B55197  37.899  43.336   6.808
 4189POPC   C4B55198  37.759  43.500   7.199
 4190POPC   NC355199   2.761  22.401   5.231
 4190POPC   PO455200   2.387  21.959   5.558
 4190POPC   GL155201   2.732  22.053   5.845
 4190POPC   GL255202   2.878  22.408   5.807
 4190POPC   C1A55203   2.817  21.929   6.293
 4190POPC   D2A55204   2.971  22.140   6.688
 4190POPC   C3A55205   2.839  21.910   7.026
 4190POPC   C4A55206   3.039  21.983   7.389
 4190POPC   C1B55207   2.592  22.389   6.202
 4190POPC   C2B55208   2.482  22.205   6.600
 4190POPC   C3B55209   2.597  22.373   7.019
 4190POPC   C4B55210   2.475  22.140   7.379
 4191POPC   NC355211  39.523  18.135   5.321
 4191POPC   PO455212  38.857  18.329   5.355
 4191POPC   GL155213  39.019  18.436   5.749
 4191POPC   GL255214  39.368  18.403   5.734
 4191POPC   C1A55215  39.029  18.217   6.147
 4191POPC   D2A55216  38.835  18.013   6.488
 4191POPC   C3A55217  39.090  17.962   6.847
 4191POPC   C4A55218  39.109  18.253   7.158
 4191POPC   C1B55219  39.512  18.376   6.148
 4191POPC   C2B55220  39.298  18.379   6.547
 4191POPC   C3B55221  39.463  18.527   6.907
 4191POPC   C4B55222  39.612  18.312   7.209
 4192POPC   NC355223  42.510  19.671   5.416
 4192POPC   PO455224  42.449  20.359   5.414
 4192POPC   GL155225  42.411  20.059   5.755
 4192POPC   GL255226  42.036  19.988   5.743
 4192POPC   C1A55227  42.418  19.789   6.143
 4192POPC   D2A55228  42.345  19.484   6.493
 4192POPC   C3A55229  42.297  19.671   6.914
 4192POPC   C4A55230  42.566  19.623   7.272
 4192POPC   C1B55231  42.092  20.185   6.154
 4192POPC   C2B55232  42.277  20.124   6.550
 4192POPC   C3B55233  42.129  20.232   6.927
 4192POPC   C4B55234  42.233  20.030   7.303
 4193POPC   NC355235  35.175  24.820   5.615
 4193POPC   PO455236  34.501  24.634   5.486
 4193POPC   GL155237  34.751  24.556   5.796
 4193POPC   GL255238  34.939  24.212   5.729
 4193POPC   C1A55239  34.561  24.607   6.217
 4193POPC   D2A55240  34.530  24.295   6.567
 4193POPC   C3A55241  34.364  24.353   7.008
 4193POPC   C4A55242  34.378  24.654   7.357
 4193POPC   C1B55243  35.012  24.371   6.183
 4193POPC   C2B55244  34.942  24.652   6.557
 4193POPC   C3B55245  34.779  24.637   6.968
 4193POPC   C4B55246  34.839  24.400   7.369
 4194POPC   NC355247  17.416  20.983   5.578
 4194POPC   PO455248  17.791  20.539   5.402
 4194POPC   GL155249  17.562  20.389   5.778
 4194POPC   GL255250  17.190  20.493   5.759
 4194POPC   C1A55251  17.480  20.538   6.195
 4194POPC   D2A55252  17.611  20.754   6.590
 4194POPC   C3A55253  17.547  20.568   6.983
 4194POPC   C4A55254  17.633  20.846   7.302
 4194POPC   C1B55255  17.047  20.769   6.117
 4194POPC   C2B55256  17.085  20.588   6.532
 4194POPC   C3B55257  17.135  20.812   6.866
 4194POPC   C4B55258  17.019  20.852   7.244
 4195POPC   NC355259  36.582   4.273   5.544
 4195POPC   PO455260  37.267   4.094   5.431
 4195POPC   GL155261  37.023   4.047   5.806
 4195POPC   GL255262  36.739   3.801   5.786
 4195POPC   C1A55263  37.050   4.286   6.200
 4195POPC   D2A55264  37.057   4.100   6.597
 4195POPC   C3A55265  37.121   4.349   6.948
 4195POPC   C4A55266  37.081   4.180   7.316
 4195POPC   C1B55267  36.628   4.004   6.191
 4195POPC   C2B55268  36.588   4.313   6.545
 4195POPC   C3B55269  36.604   4.274   6.994
 4195POPC   C4B55270  36.630   3.875   7.199
 4196POPC   NC355271  19.509  26.099   5.446
 4196POPC   PO455272  19.934  25.652   5.816
 4196POPC   GL155273  19.661  25.956   5.918
 4196POPC   GL255274  19.391  25.727   5.838
 4196POPC   C1A55275  19.711  26.172   6.309
 4196POPC   D2A55276  19.548  26.350   6.702
 4196POPC   C3A55277  19.696  26.191   7.117
 4196POPC   C4A55278  19.770  26.038   7.553
 4196POPC   C1B55279  19.307  25.853   6.291
 4196POPC   C2B55280  19.414  25.842   6.766
 4196POPC   C3B55281  19.548  25.717   7.199
 4196POPC   C4B55282  19.485  25.594   7.665
 4197POPC   NC355283  15.234  23.802   5.461
 4197POPC   PO455284  14.858  23.322   5.533
 4197POPC   GL155285  15.071  23.446   5.855
 4197POPC   GL255286  15.417  23.385   5.760
 4197POPC   C1A55287  14.991  23.706   6.201
 4197POPC   D2A55288  15.168  23.894   6.549
 4197POPC   C3A55289  14.967  23.769   6.933
 4197POPC   C4A55290  14.745  23.803   7.285
 4197POPC   C1B55291  15.495  23.648   6.121
 4197POPC   C2B55292  15.649  23.631   6.544
 4197POPC   C3B55293  15.496  23.799   6.936
 4197POPC   C4B55294  15.380  23.586   7.286
 4198POPC   NC355295  35.192  44.650   5.316
 4198POPC   PO455296  35.747  44.607   5.669
 4198POPC   GL155297  35.425  44.645   5.919
 4198POPC   GL255298  35.177  44.448   5.778
 4198POPC   C1A55299  35.495  44.632   6.343
 4198POPC   D2A55300  35.641  44.335   6.633
 4198POPC   C3A55301  35.481  44.472   7.017
 4198POPC   C4A55302  35.207  44.729   7.215
 4198POPC   C1B55303  34.894  44.424   6.101
 4198POPC   C2B55304  35.014  44.490   6.494
 4198POPC   C3B55305  34.889  44.550   6.873
 4198POPC   C4B55306  34.854  44.351   7.253
 4199POPC   NC355307  17.031  33.909   5.368
 4199POPC   PO455308  16.366  33.821   5.351
 4199POPC   GL155309  16.615  33.666   5.731
 4199POPC   GL255310  17.020  33.634   5.798
 4199POPC   C1A55311  16.532  33.756   6.197
 4199POPC   D2A55312  16.662  33.546   6.571
 4199POPC   C3A55313  16.567  33.664   7.013
 4199POPC   C4A55314  16.656  34.031   7.257
 4199POPC   C1B55315  17.049  33.732   6.242
 4199POPC   C2B55316  17.034  33.870   6.690
 4199POPC   C3B55317  17.082  33.782   7.133
 4199POPC   C4B55318  17.093  33.994   7.546
 4200POPC   NC355319  16.393  26.754   5.294
 4200POPC   PO455320  17.076  26.812   5.328
 4200POPC   GL155321  17.030  26.597   5.764
 4200POPC   GL255322  16.681  26.478   5.857
 4200POPC   C1A55323  16.997  26.662   6.232
 4200POPC   D2A55324  16.889  26.990   6.591
 4200POPC   C3A55325  16.786  26.953   7.062
 4200POPC   C4A55326  17.014  26.858   7.464
 4200POPC   C1B55327  16.505  26.766   6.230
 4200POPC   C2B55328  16.387  26.870   6.684
 4200POPC   C3B55329  16.315  26.693   7.104
 4200POPC   C4B55330  16.616  26.464   7.357
 4201POPC   NC355331  32.738  29.199   5.222
 4201POPC   PO455332  32.144  29.061   5.444
 4201POPC   GL155333  32.239  29.146   5.814
 4201POPC   GL255334  32.242  28.783   5.900
 4201POPC   C1A55335  32.336  29.416   6.142
 4201POPC   D2A55336  32.374  29.564   6.564
 4201POPC   C3A55337  32.504  29.258   6.862
 4201POPC   C4A55338  32.181  29.102   7.133
 4201POPC   C1B55339  31.946  28.994   6.190
 4201POPC   C2B55340  31.793  29.071   6.604
 4201POPC   C3B55341  31.792  28.769   6.955
 4201POPC   C4B55342  32.121  28.609   7.208
 4202POPC   NC355343  10.074  44.470   5.598
 4202POPC   PO455344   9.579  44.905   5.429
 4202POPC   GL155345   9.600  44.677   5.792
 4202POPC   GL255346   9.854  44.893   5.903
 4202POPC   C1A55347   9.658  44.556   6.220
 4202POPC   D2A55348   9.509  44.515   6.615
 4202POPC   C3A55349   9.785  44.595   6.961
 4202POPC   C4A55350   9.863  44.664   7.385
 4202POPC   C1B55351  10.104  44.813   6.284
 4202POPC   C2B55352  10.249  44.761   6.710
 4202POPC   C3B55353  10.183  44.920   7.106
 4202POPC   C4B55354  10.203  44.986   7.590
 4203POPC   NC355355  28.563   9.632   5.267
 4203POPC   PO455356  28.355  10.213   5.462
 4203POPC   GL155357  28.345   9.795   5.759
 4203POPC   GL255358  28.623   9.529   5.777
 4203POPC   C1A55359  28.368   9.658   6.242
 4203POPC   D2A55360  28.113   9.905   6.561
 4203POPC   C3A55361  28.015   9.847   7.019
 4203POPC   C4A55362  28.216   9.563   7.329
 4203POPC   C1B55363  28.758   9.900   6.039
 4203POPC   C2B55364  28.700   9.947   6.499
 4203POPC   C3B55365  28.509   9.635   6.802
 4203POPC   C4B55366  28.687   9.475   7.200
 4204POPC   NC355367   3.025   8.323   5.486
 4204POPC   PO455368   2.282   8.343   5.390
 4204POPC   GL155369   2.435   8.295   5.834
 4204POPC   GL255370   2.773   8.138   5.907
 4204POPC   C1A55371   2.500   8.306   6.308
 4204POPC   D2A55372   2.718   8.355   6.702
 4204POPC   C3A55373   2.852   8.615   7.062
 4204POPC   C4A55374   3.313   8.645   7.131
 4204POPC   C1B55375   3.002   8.089   6.316
 4204POPC   C2B55376   2.937   7.877   6.728
 4204POPC   C3B55377   2.960   8.117   7.100
 4204POPC   C4B55378   2.661   8.178   7.393
 4205POPC   NC355379  21.709  20.590   5.196
 4205POPC   PO455380  21.548  21.196   5.492
 4205POPC   GL155381  21.644  20.780   5.684
 4205POPC   GL255382  21.331  20.697   5.767
 4205POPC   C1A55383  21.695  20.576   6.125
 4205POPC   D2A55384  21.618  20.697   6.576
 4205POPC   C3A55385  21.607  20.412   6.961
 4205POPC   C4A55386  21.571  20.423   7.411
 4205POPC   C1B55387  21.289  20.915   6.163
 4205POPC   C2B55388  21.118  20.933   6.561
 4205POPC   C3B55389  21.161  20.654   6.873
 4205POPC   C4B55390  21.055  20.593   7.270
 4206POPC   NC355391  28.403  14.106   5.150
 4206POPC   PO455392  28.238  13.522   5.612
 4206POPC   GL155393  28.291  13.637   5.997
 4206POPC   GL255394  28.141  13.960   5.977
 4206POPC   C1A55395  28.507  13.473   6.333
 4206POPC   D2A55396  28.653  13.722   6.627
 4206POPC   C3A55397  28.523  13.682   7.035
 4206POPC   C4A55398  28.638  13.642   7.461
 4206POPC   C1B55399  28.383  14.058   6.318
 4206POPC   C2B55400  28.238  13.997   6.708
 4206POPC   C3B55401  28.105  14.122   7.063
 4206POPC   C4B55402  28.478  14.117   7.330
 4207POPC   NC355403  31.040  35.285   5.518
 4207POPC   PO455404  30.418  35.524   5.407
 4207POPC   GL155405  30.598  35.408   5.796
 4207POPC   GL255406  30.914  35.627   5.884
 4207POPC   C1A55407  30.362  35.251   6.173
 4207POPC   D2A55408  30.415  35.038   6.580
 4207POPC   C3A55409  30.467  35.249   7.007
 4207POPC   C4A55410  30.747  35.478   7.346
 4207POPC   C1B55411  30.872  35.340   6.260
 4207POPC   C2B55412  30.894  35.324   6.720
 4207POPC   C3B55413  30.976  35.110   7.096
 4207POPC   C4B55414  31.031  35.127   7.576
 4208POPC   NC355415   4.814  12.313   5.293
 4208POPC   PO455416   5.434  12.180   5.298
 4208POPC   GL155417   5.161  12.153   5.669
 4208POPC   GL255418   4.945  11.849   5.705
 4208POPC   C1A55419   5.300  12.029   6.095
 4208POPC   D2A55420   5.277  11.764   6.470
 4208POPC   C3A55421   5.221  11.994   6.869
 4208POPC   C4A55422   5.019  12.405   7.042
 4208POPC   C1B55423   4.794  11.982   6.116
 4208POPC   C2B55424   4.721  12.101   6.550
 4208POPC   C3B55425   4.712  11.979   6.997
 4208POPC   C4B55426   4.999  11.975   7.332
 4209POPC   NC355427  11.433  25.671   5.534
 4209POPC   PO455428  11.289  26.387   5.555
 4209POPC   GL155429  11.251  26.057   5.877
 4209POPC   GL255430  11.004  25.768   5.862
 4209POPC   C1A55431  11.346  26.027   6.327
 4209POPC   D2A55432  11.138  25.906   6.705
 4209POPC   C3A55433  11.296  26.125   7.049
 4209POPC   C4A55434  11.684  26.360   6.999
 4209POPC   C1B55435  11.309  25.548   6.168
 4209POPC   C2B55436  11.503  25.543   6.599
 4209POPC   C3B55437  11.298  25.507   7.016
 4209POPC   C4B55438  11.132  25.718   7.374
 4210POPC   NC355439  10.553  21.969   5.438
 4210POPC   PO455440  10.333  22.507   5.182
 4210POPC   GL155441  10.432  22.429   5.704
 4210POPC   GL255442  10.528  22.105   5.912
 4210POPC   C1A55443  10.299  22.444   6.192
 4210POPC   D2A55444  10.548  22.519   6.584
 4210POPC   C3A55445  10.453  22.437   7.006
 4210POPC   C4A55446  10.508  22.022   7.204
 4210POPC   C1B55447  10.709  22.099   6.329
 4210POPC   C2B55448  10.874  22.170   6.764
 4210POPC   C3B55449  10.973  21.872   7.100
 4210POPC   C4B55450  10.886  21.769   7.553
 4211POPC   NC355451  31.823  26.217   5.365
 4211POPC   PO455452  32.493  26.087   5.396
 4211POPC   GL155453  32.220  26.154   5.706
 4211POPC   GL255454  32.061  25.842   5.798
 4211POPC   C1A55455  32.169  26.321   6.125
 4211POPC   D2A55456  32.190  26.134   6.543
 4211POPC   C3A55457  32.021  26.257   6.915
 4211POPC   C4A55458  32.042  26.163   7.354
 4211POPC   C1B55459  32.252  25.787   6.183
 4211POPC   C2B55460  32.139  25.623   6.610
 4211POPC   C3B55461  32.109  25.727   7.065
 4211POPC   C4B55462  31.873  25.701   7.497
 4212POPC   NC355463  16.220  31.559   5.289
 4212POPC   PO455464  15.749  31.181   5.486
 4212POPC   GL155465  15.923  31.466   5.809
 4212POPC   GL255466  15.893  31.806   5.719
 4212POPC   C1A55467  16.053  31.522   6.259
 4212POPC   D2A55468  15.956  31.391   6.693
 4212POPC   C3A55469  16.174  31.576   7.055
 4212POPC   C4A55470  16.205  31.484   7.498
 4212POPC   C1B55471  15.691  31.859   6.124
 4212POPC   C2B55472  15.806  31.906   6.552
 4212POPC   C3B55473  15.715  31.792   6.943
 4212POPC   C4B55474  15.861  31.976   7.320
 4213POPC   NC355475   6.198  40.412   5.432
 4213POPC   PO455476   6.273  39.762   5.527
 4213POPC   GL155477   5.995  39.769   5.872
 4213POPC   GL255478   5.650  39.768   5.731
 4213POPC   C1A55479   5.961  40.088   6.218
 4213POPC   D2A55480   6.181  40.284   6.567
 4213POPC   C3A55481   6.013  40.158   6.957
 4213POPC   C4A55482   6.115  40.016   7.355
 4213POPC   C1B55483   5.575  39.721   6.184
 4213POPC   C2B55484   5.754  39.754   6.631
 4213POPC   C3B55485   5.626  39.818   7.073
 4213POPC   C4B55486   5.628  40.169   7.353
 4214POPC   NC355487  39.378  14.357   5.320
 4214POPC   PO455488  38.793  14.364   5.423
 4214POPC   GL155489  39.110  14.263   5.802
 4214POPC   GL255490  39.417  14.463   5.819
 4214POPC   C1A55491  39.077  14.209   6.302
 4214POPC   D2A55492  39.024  14.065   6.772
 4214POPC   C3A55493  39.120  14.309   7.163
 4214POPC   C4A55494  39.448  14.494   7.400
 4214POPC   C1B55495  39.571  14.225   6.163
 4214POPC   C2B55496  39.515  14.156   6.609
 4214POPC   C3B55497  39.538  14.050   7.037
 4214POPC   C4B55498  39.402  13.998   7.459
 4215POPC   NC355499   4.160  33.647   5.337
 4215POPC   PO455500   4.413  34.238   5.637
 4215POPC   GL155501   4.325  33.878   5.844
 4215POPC   GL255502   4.671  33.900   5.991
 4215POPC   C1A55503   4.264  33.861   6.289
 4215POPC   D2A55504   4.469  34.116   6.599
 4215POPC   C3A55505   4.221  34.119   6.968
 4215POPC   C4A55506   3.951  33.772   7.104
 4215POPC   C1B55507   4.748  33.578   6.269
 4215POPC   C2B55508   4.531  33.468   6.639
 4215POPC   C3B55509   4.459  33.528   7.064
 4215POPC   C4B55510   4.676  33.451   7.451
 4216POPC   NC355511   1.768  23.351   5.567
 4216POPC   PO455512   2.071  23.871   5.204
 4216POPC   GL155513   2.055  23.748   5.688
 4216POPC   GL255514   2.230  23.430   5.768
 4216POPC   C1A55515   1.979  23.763   6.180
 4216POPC   D2A55516   1.722  23.567   6.535
 4216POPC   C3A55517   1.868  23.700   6.940
 4216POPC   C4A55518   2.003  24.009   7.236
 4216POPC   C1B55519   2.263  23.342   6.181
 4216POPC   C2B55520   2.219  23.535   6.592
 4216POPC   C3B55521   2.291  23.346   7.006
 4216POPC   C4B55522   2.114  23.520   7.367
 4217POPC   NC355523  37.480  35.040   5.162
 4217POPC   PO455524  37.002  35.268   5.590
 4217POPC   GL155525  36.820  35.337   5.957
 4217POPC   GL255526  36.575  35.650   5.926
 4217POPC   C1A55527  37.058  35.142   6.326
 4217POPC   D2A55528  37.366  35.015   6.649
 4217POPC   C3A55529  37.074  35.006   6.974
 4217POPC   C4A55530  36.782  35.209   7.219
 4217POPC   C1B55531  36.698  35.572   6.368
 4217POPC   C2B55532  36.837  35.411   6.724
 4217POPC   C3B55533  36.640  35.621   7.005
 4217POPC   C4B55534  36.603  35.646   7.412
 4218POPC   NC355535  12.512  15.330   5.412
 4218POPC   PO455536  12.919  14.741   5.444
 4218POPC   GL155537  12.898  15.066   5.783
 4218POPC   GL255538  13.161  14.947   5.996
 4218POPC   C1A55539  12.828  15.283   6.212
 4218POPC   D2A55540  12.613  15.281   6.620
 4218POPC   C3A55541  12.932  15.292   6.918
 4218POPC   C4A55542  12.989  15.356   7.322
 4218POPC   C1B55543  12.838  14.774   6.213
 4218POPC   C2B55544  12.959  14.895   6.594
 4218POPC   C3B55545  12.820  14.787   6.987
 4218POPC   C4B55546  12.609  15.039   7.246
 4219POPC   NC355547  26.888  29.273   5.392
 4219POPC   PO455548  26.238  29.013   5.400
 4219POPC   GL155549  26.487  29.211   5.789
 4219POPC   GL255550  26.778  29.421   5.858
 4219POPC   C1A55551  26.641  29.148   6.266
 4219POPC   D2A55552  26.547  29.259   6.727
 4219POPC   C3A55553  26.619  29.001   7.106
 4219POPC   C4A55554  26.764  29.081   7.556
 4219POPC   C1B55555  26.917  29.587   6.234
 4219POPC   C2B55556  27.045  29.417   6.640
 4219POPC   C3B55557  26.948  29.390   7.089
 4219POPC   C4B55558  27.189  29.344   7.457
 4220POPC   NC355559  25.207  13.912   5.439
 4220POPC   PO455560  25.156  14.600   5.495
 4220POPC   GL155561  25.241  14.297   5.770
 4220POPC   GL255562  25.581  14.176   5.664
 4220POPC   C1A55563  25.182  14.349   6.183
 4220POPC   D2A55564  25.220  14.637   6.544
 4220POPC   C3A55565  25.218  14.403   6.933
 4220POPC   C4A55566  25.151  14.684   7.274
 4220POPC   C1B55567  25.669  14.257   6.102
 4220POPC   C2B55568  25.519  14.204   6.534
 4220POPC   C3B55569  25.683  14.105   6.910
 4220POPC   C4B55570  25.606  14.347   7.264
 4221POPC   NC355571  30.030  33.696   5.231
 4221POPC   PO455572  29.359  33.515   5.381
 4221POPC   GL155573  29.626  33.724   5.692
 4221POPC   GL255574  29.918  33.971   5.655
 4221POPC   C1A55575  29.672  33.797   6.135
 4221POPC   D2A55576  29.779  33.493   6.460
 4221POPC   C3A55577  29.895  33.671   6.853
 4221POPC   C4A55578  29.707  33.764   7.241
 4221POPC   C1B55579  30.132  33.686   5.955
 4221POPC   C2B55580  30.226  33.759   6.406
 4221POPC   C3B55581  30.281  34.020   6.770
 4221POPC   C4B55582  30.192  33.915   7.211
 4222POPC   NC355583   9.588  28.585   5.318
 4222POPC   PO455584   9.880  27.980   5.450
 4222POPC   GL155585   9.700  28.183   5.784
 4222POPC   GL255586  10.030  28.187   5.922
 4222POPC   C1A55587   9.684  28.498   6.140
 4222POPC   D2A55588   9.759  28.510   6.602
 4222POPC   C3A55589   9.416  28.623   6.848
 4222POPC   C4A55590   9.508  28.734   7.259
 4222POPC   C1B55591  10.039  28.154   6.347
 4222POPC   C2B55592   9.856  28.025   6.715
 4222POPC   C3B55593   9.730  28.228   7.048
 4222POPC   C4B55594   9.787  28.380   7.453
 4223POPC   NC355595  36.429  40.983   5.444
 4223POPC   PO455596  35.781  40.886   5.517
 4223POPC   GL155597  35.975  40.828   5.883
 4223POPC   GL255598  36.257  40.683   5.847
 4223POPC   C1A55599  35.951  40.898   6.301
 4223POPC   D2A55600  35.805  40.635   6.613
 4223POPC   C3A55601  35.996  40.746   6.966
 4223POPC   C4A55602  36.047  41.048   7.240
 4223POPC   C1B55603  36.472  40.682   6.251
 4223POPC   C2B55604  36.585  40.375   6.568
 4223POPC   C3B55605  36.407  40.363   6.999
 4223POPC   C4B55606  36.433  40.719   7.251
 4224POPC   NC355607   2.420  30.543   5.557
 4224POPC   PO455608   1.740  30.631   5.377
 4224POPC   GL155609   1.975  30.646   5.783
 4224POPC   GL255610   2.096  30.995   5.827
 4224POPC   C1A55611   2.098  30.665   6.251
 4224POPC   D2A55612   1.995  30.877   6.674
 4224POPC   C3A55613   1.962  30.599   7.047
 4224POPC   C4A55614   2.256  30.260   7.147
 4224POPC   C1B55615   2.339  31.119   6.221
 4224POPC   C2B55616   2.458  31.129   6.655
 4224POPC   C3B55617   2.356  30.934   7.041
 4224POPC   C4B55618   2.028  31.068   7.302
 4225POPC   NC355619  11.671   0.185   5.590
 4225POPC   PO455620  12.350   0.394   5.487
 4225POPC   GL155621  12.169   0.234   5.844
 4225POPC   GL255622  11.934   0.523   5.864
 4225POPC   C1A55623  12.177   0.343   6.281
 4225POPC   D2A55624  12.432   0.500   6.593
 4225POPC   C3A55625  12.178   0.525   6.958
 4225POPC   C4A55626  12.269   0.215   7.264
 4225POPC   C1B55627  11.730   0.641   6.242
 4225POPC   C2B55628  11.829   0.747   6.659
 4225POPC   C3B55629  11.714   0.794   7.085
 4225POPC   C4B55630  11.889   0.526   7.385
 4226POPC   NC355631  26.873   2.130   5.458
 4226POPC   PO455632  27.281   1.692   5.651
 4226POPC   GL155633  26.981   1.909   5.902
 4226POPC   GL255634  26.671   1.759   5.898
 4226POPC   C1A55635  26.796   2.233   6.193
 4226POPC   D2A55636  26.926   2.330   6.633
 4226POPC   C3A55637  26.650   2.250   7.001
 4226POPC   C4A55638  26.844   2.125   7.434
 4226POPC   C1B55639  26.831   1.749   6.361
 4226POPC   C2B55640  26.913   1.681   6.793
 4226POPC   C3B55641  26.642   1.762   7.132
 4226POPC   C4B55642  26.332   2.050   7.361
 4227POPC   NC355643   7.228  37.055   5.059
 4227POPC   PO455644   7.410  36.448   5.413
 4227POPC   GL155645   7.626  36.769   5.754
 4227POPC   GL255646   7.985  36.675   5.871
 4227POPC   C1A55647   7.546  36.994   6.193
 4227POPC   D2A55648   7.367  37.219   6.593
 4227POPC   C3A55649   7.499  37.092   7.048
 4227POPC   C4A55650   7.455  36.680   7.283
 4227POPC   C1B55651   7.931  36.676   6.319
 4227POPC   C2B55652   7.651  36.742   6.683
 4227POPC   C3B55653   7.901  36.731   7.060
 4227POPC   C4B55654   7.984  36.608   7.496
 4228POPC   NC355655   1.349   2.994   5.571
 4228POPC   PO455656   0.844   2.472   5.384
 4228POPC   GL155657   1.184   2.481   5.687
 4228POPC   GL255658   1.022   2.725   5.823
 4228POPC   C1A55659   1.401   2.547   6.112
 4228POPC   D2A55660   1.473   2.821   6.485
 4228POPC   C3A55661   1.322   2.670   6.904
 4228POPC   C4A55662   1.032   2.611   7.239
 4228POPC   C1B55663   1.016   2.909   6.197
 4228POPC   C2B55664   0.718   2.985   6.488
 4228POPC   C3B55665   0.866   2.909   6.858
 4228POPC   C4B55666   0.895   3.088   7.228
 4229POPC   NC355667   0.053  25.329   5.718
 4229POPC   PO455668  44.488  25.600   5.426
 4229POPC   GL155669  44.554  25.447   5.828
 4229POPC   GL255670  44.791  25.686   5.975
 4229POPC   C1A55671  44.551  25.146   6.163
 4229POPC   D2A55672  44.396  25.293   6.549
 4229POPC   C3A55673  44.656  25.121   6.791
 4229POPC   C4A55674  44.609  24.971   7.153
 4229POPC   C1B55675  44.841  25.513   6.393
 4229POPC   C2B55676   0.142  25.244   6.612
 4229POPC   C3B55677   0.071  25.278   7.046
 4229POPC   C4B55678  44.790  25.478   7.321
 4230POPC   NC355679  43.291  44.144   5.411
 4230POPC   PO455680  42.828  43.801   5.695
 4230POPC   GL155681  43.156  44.042   5.878
 4230POPC   GL255682  42.947  44.303   5.847
 4230POPC   C1A55683  43.404  44.032   6.256
 4230POPC   D2A55684  43.369  43.650   6.469
 4230POPC   C3A55685  43.241  43.620   6.897
 4230POPC   C4A55686  43.552  43.589   7.227
 4230POPC   C1B55687  42.905  44.159   6.293
 4230POPC   C2B55688  43.088  44.204   6.679
 4230POPC   C3B55689  42.895  44.151   7.076
 4230POPC   C4B55690  43.001  43.845   7.306
 4231POPC   NC355691  19.771  30.920   5.609
 4231POPC   PO455692  20.321  30.517   5.396
 4231POPC   GL155693  20.063  30.523   5.826
 4231POPC   GL255694  19.651  30.525   5.930
 4231POPC   C1A55695  20.257  30.578   6.267
 4231POPC   D2A55696  20.289  30.573   6.738
 4231POPC   C3A55697  19.929  30.666   6.991
 4231POPC   C4A55698  20.065  31.071   7.121
 4231POPC   C1B55699  19.350  30.842   6.193
 4231POPC   C2B55700  19.381  31.040   6.631
 4231POPC   C3B55701  19.417  30.950   7.092
 4231POPC   C4B55702  19.687  30.829   7.454
 4232POPC   NC355703  10.194  20.382   5.518
 4232POPC   PO455704  10.700  20.756   5.497
 4232POPC   GL155705  10.454  20.685   5.832
 4232POPC   GL255706  10.302  20.955   5.985
 4232POPC   C1A55707  10.374  20.514   6.213
 4232POPC   D2A55708  10.617  20.634   6.552
 4232POPC   C3A55709  10.385  20.569   6.893
 4232POPC   C4A55710  10.356  20.467   7.294
 4232POPC   C1B55711  10.684  21.024   6.179
 4232POPC   C2B55712  10.801  21.133   6.588
 4232POPC   C3B55713  10.624  21.031   6.938
 4232POPC   C4B55714  10.494  21.018   7.326
 4233POPC   NC355715  18.317   5.258   5.093
 4233POPC   PO455716  18.459   4.716   5.585
 4233POPC   GL155717  18.205   4.963   5.926
 4233POPC   GL255718  18.059   5.354   5.837
 4233POPC   C1A55719  18.012   5.025   6.250
 4233POPC   D2A55720  17.982   4.746   6.530
 4233POPC   C3A55721  18.375   4.844   6.677
 4233POPC   C4A55722  18.268   5.049   7.033
 4233POPC   C1B55723  18.287   5.450   6.185
 4233POPC   C2B55724  18.281   5.393   6.619
 4233POPC   C3B55725  18.317   5.564   7.047
 4233POPC   C4B55726  17.998   5.389   7.322
 4234POPC   NC355727   2.988   0.971   5.325
 4234POPC   PO455728   3.634   0.781   5.489
 4234POPC   GL155729   3.572   0.965   5.892
 4234POPC   GL255730   3.269   1.137   5.785
 4234POPC   C1A55731   3.719   1.163   6.321
 4234POPC   D2A55732   3.809   1.330   6.774
 4234POPC   C3A55733   3.581   1.059   7.086
 4234POPC   C4A55734   3.110   1.037   7.198
 4234POPC   C1B55735   3.216   1.324   6.210
 4234POPC   C2B55736   3.290   1.258   6.659
 4234POPC   C3B55737   3.364   1.507   7.028
 4234POPC   C4B55738   3.174   1.539   7.418
 4235POPC   NC355739   1.753  24.126   5.439
 4235POPC   PO455740   1.910  24.774   5.600
 4235POPC   GL155741   1.960  24.815   6.049
 4235POPC   GL255742   2.314  24.705   6.100
 4235POPC   C1A55743   1.835  24.559   6.440
 4235POPC   D2A55744   1.652  24.134   6.578
 4235POPC   C3A55745   1.588  24.177   7.008
 4235POPC   C4A55746   1.648  24.572   7.264
 4235POPC   C1B55747   2.211  24.243   6.263
 4235POPC   C2B55748   2.147  24.080   6.696
 4235POPC   C3B55749   2.045  24.436   6.966
 4235POPC   C4B55750   2.256  24.697   7.272
 4236POPC   NC355751  41.649  44.414   5.322
 4236POPC   PO455752  41.306   0.012   5.238
 4236POPC   GL155753  41.347  44.773   5.628
 4236POPC   GL255754  41.114  44.466   5.619
 4236POPC   C1A55755  41.565  44.888   6.038
 4236POPC   D2A55756  41.823  44.952   6.413
 4236POPC   C3A55757  41.632  44.859   6.814
 4236POPC   C4A55758  41.705  44.547   7.173
 4236POPC   C1B55759  41.301  44.444   6.039
 4236POPC   C2B55760  41.306  44.649   6.436
 4236POPC   C3B55761  41.306  44.437   6.834
 4236POPC   C4B55762  41.255  44.302   7.253
 4237POPC   NC355763  44.256  25.123   5.514
 4237POPC   PO455764  43.612  25.167   5.637
 4237POPC   GL155765  43.674  25.486   5.905
 4237POPC   GL255766  44.008  25.551   5.735
 4237POPC   C1A55767  43.633  25.421   6.346
 4237POPC   D2A55768  43.912  25.456   6.698
 4237POPC   C3A55769  43.735  25.263   7.080
 4237POPC   C4A55770  43.617  25.342   7.496
 4237POPC   C1B55771  44.097  25.366   6.142
 4237POPC   C2B55772  43.985  25.011   6.446
 4237POPC   C3B55773  44.132  24.980   6.890
 4237POPC   C4B55774  44.113  24.988   7.361
 4238POPC   NC355775  26.481  32.271   5.484
 4238POPC   PO455776  25.788  32.249   5.403
 4238POPC   GL155777  26.021  32.099   5.717
 4238POPC   GL255778  26.071  31.743   5.712
 4238POPC   C1A55779  26.169  32.252   6.110
 4238POPC   D2A55780  26.091  32.455   6.494
 4238POPC   C3A55781  26.401  32.404   6.807
 4238POPC   C4A55782  26.250  32.379   7.210
 4238POPC   C1B55783  25.876  31.806   6.127
 4238POPC   C2B55784  26.014  31.906   6.553
 4238POPC   C3B55785  25.906  32.173   6.900
 4238POPC   C4B55786  25.807  32.059   7.321
 4239POPC   NC355787  25.561  35.394   5.427
 4239POPC   PO455788  24.852  35.494   5.377
 4239POPC   GL155789  25.035  35.324   5.775
 4239POPC   GL255790  24.808  35.082   5.930
 4239POPC   C1A55791  25.208  35.464   6.184
 4239POPC   D2A55792  25.486  35.302   6.538
 4239POPC   C3A55793  25.368  35.138   6.970
 4239POPC   C4A55794  25.436  35.195   7.424
 4239POPC   C1B55795  24.869  35.093   6.324
 4239POPC   C2B55796  24.991  35.330   6.635
 4239POPC   C3B55797  24.870  35.144   6.948
 4239POPC   C4B55798  24.851  35.298   7.273
 4240POPC   NC355799  19.337  19.427   5.359
 4240POPC   PO455800  19.182  20.063   5.540
 4240POPC   GL155801  19.046  19.691   5.744
 4240POPC   GL255802  19.374  19.607   5.849
 4240POPC   C1A55803  18.830  19.744   6.152
 4240POPC   D2A55804  18.916  19.832   6.591
 4240POPC   C3A55805  19.180  20.050   6.877
 4240POPC   C4A55806  18.784  20.112   7.137
 4240POPC   C1B55807  19.338  19.712   6.264
 4240POPC   C2B55808  19.265  19.463   6.615
 4240POPC   C3B55809  19.166  19.552   6.991
 4240POPC   C4B55810  19.403  19.546   7.311
 4241POPC   NC355811  29.640  34.567   5.633
 4241POPC   PO455812  30.063  34.798   5.165
 4241POPC   GL155813  30.121  34.779   5.678
 4241POPC   GL255814  30.186  34.404   5.773
 4241POPC   C1A55815  30.186  34.748   6.154
 4241POPC   D2A55816  30.128  34.522   6.557
 4241POPC   C3A55817  30.054  34.792   6.905
 4241POPC   C4A55818  29.731  34.662   7.209
 4241POPC   C1B55819  30.039  34.177   6.154
 4241POPC   C2B55820  29.792  34.087   6.550
 4241POPC   C3B55821  29.848  34.226   6.973
 4241POPC   C4B55822  30.232  34.428   7.199
 4242POPC   NC355823  34.268  40.043   5.564
 4242POPC   PO455824  34.930  39.905   5.308
 4242POPC   GL155825  34.871  39.954   5.772
 4242POPC   GL255826  34.577  39.798   5.875
 4242POPC   C1A55827  34.881  40.062   6.235
 4242POPC   D2A55828  34.811  39.872   6.653
 4242POPC   C3A55829  34.522  40.153   6.861
 4242POPC   C4A55830  34.740  40.257   7.196
 4242POPC   C1B55831  34.514  39.687   6.288
 4242POPC   C2B55832  34.330  39.687   6.703
 4242POPC   C3B55833  34.542  39.713   7.101
 4242POPC   C4B55834  34.418  39.933   7.469
 4243POPC   NC355835  12.047  29.746   5.403
 4243POPC   PO455836  11.808  30.429   5.380
 4243POPC   GL155837  11.880  30.119   5.716
 4243POPC   GL255838  12.094  30.318   5.866
 4243POPC   C1A55839  11.936  29.775   6.086
 4243POPC   D2A55840  11.860  29.577   6.540
 4243POPC   C3A55841  12.001  29.794   6.913
 4243POPC   C4A55842  12.021  29.913   7.351
 4243POPC   C1B55843  11.826  30.250   6.232
 4243POPC   C2B55844  12.027  30.251   6.610
 4243POPC   C3B55845  11.939  30.279   7.008
 4243POPC   C4B55846  11.604  30.207   7.278
 4244POPC   NC355847   0.446  28.139   5.343
 4244POPC   PO455848  44.907  28.014   5.743
 4244POPC   GL155849   0.192  28.385   5.799
 4244POPC   GL255850   0.543  28.255   5.837
 4244POPC   C1A55851   0.310  28.559   6.203
 4244POPC   D2A55852   0.161  28.365   6.567
 4244POPC   C3A55853   0.237  28.516   6.942
 4244POPC   C4A55854   0.259  28.271   7.281
 4244POPC   C1B55855   0.781  28.371   6.240
 4244POPC   C2B55856   0.658  28.407   6.646
 4244POPC   C3B55857   0.529  28.091   6.893
 4244POPC   C4B55858   0.722  28.009   7.280
 4245POPC   NC355859  33.936  41.655   5.437
 4245POPC   PO455860  33.468  41.180   5.556
 4245POPC   GL155861  33.522  41.527   5.922
 4245POPC   GL255862  33.838  41.738   5.920
 4245POPC   C1A55863  33.602  41.479   6.401
 4245POPC   D2A55864  33.978  41.252   6.615
 4245POPC   C3A55865  34.009  41.359   7.042
 4245POPC   C4A55866  33.676  41.329   7.280
 4245POPC   C1B55867  34.098  41.568   6.220
 4245POPC   C2B55868  34.010  41.755   6.592
 4245POPC   C3B55869  33.711  41.758   6.890
 4245POPC   C4B55870  33.845  41.803   7.314
 4246POPC   NC355871  22.414  18.814   5.278
 4246POPC   PO455872  22.157  19.423   5.326
 4246POPC   GL155873  22.292  19.231   5.750
 4246POPC   GL255874  22.301  18.872   5.774
 4246POPC   C1A55875  22.212  19.156   6.214
 4246POPC   D2A55876  21.894  18.952   6.483
 4246POPC   C3A55877  21.929  19.119   6.891
 4246POPC   C4A55878  22.192  19.134   7.239
 4246POPC   C1B55879  22.423  18.708   6.182
 4246POPC   C2B55880  22.327  18.750   6.661
 4246POPC   C3B55881  22.175  18.640   7.083
 4246POPC   C4B55882  22.358  18.724   7.503
 4247POPC   NC355883   3.665   0.336   5.349
 4247POPC   PO455884   3.043   0.514   5.133
 4247POPC   GL155885   3.175   0.626   5.650
 4247POPC   GL255886   3.441   0.424   5.811
 4247POPC   C1A55887   3.180   0.739   6.135
 4247POPC   D2A55888   3.136   0.562   6.581
 4247POPC   C3A55889   3.367   0.597   6.992
 4247POPC   C4A55890   3.478   0.660   7.437
 4247POPC   C1B55891   3.272   0.222   6.188
 4247POPC   C2B55892   3.390   0.119   6.621
 4247POPC   C3B55893   3.699   0.182   6.885
 4247POPC   C4B55894   3.666   0.223   7.280
 4248POPC   NC355895  24.724  10.757   5.596
 4248POPC   PO455896  24.270  10.268   5.600
 4248POPC   GL155897  24.224  10.553   5.911
 4248POPC   GL255898  24.495  10.728   6.040
 4248POPC   C1A55899  24.062  10.589   6.319
 4248POPC   D2A55900  24.263  10.522   6.704
 4248POPC   C3A55901  24.154  10.366   7.096
 4248POPC   C4A55902  24.194  10.387   7.554
 4248POPC   C1B55903  24.581  10.382   6.278
 4248POPC   C2B55904  24.766  10.501   6.670
 4248POPC   C3B55905  24.616  10.608   7.076
 4248POPC   C4B55906  24.656  10.295   7.321
 4249POPC   NC355907  36.292  21.808   5.485
 4249POPC   PO455908  35.792  22.058   5.495
 4249POPC   GL155909  36.184  22.171   5.837
 4249POPC   GL255910  36.411  21.876   5.966
 4249POPC   C1A55911  36.335  22.371   6.278
 4249POPC   D2A55912  36.295  22.599   6.735
 4249POPC   C3A55913  36.290  22.309   7.109
 4249POPC   C4A55914  36.316  22.101   7.543
 4249POPC   C1B55915  36.564  21.636   6.321
 4249POPC   C2B55916  36.472  21.865   6.706
 4249POPC   C3B55917  36.386  21.786   7.136
 4249POPC   C4B55918  36.317  21.576   7.545
 4250POPC   NC355919  28.143  10.629   5.344
 4250POPC   PO455920  28.824  10.870   5.280
 4250POPC   GL155921  28.507  10.836   5.645
 4250POPC   GL255922  28.567  10.520   5.803
 4250POPC   C1A55923  28.354  10.859   6.107
 4250POPC   D2A55924  28.145  10.822   6.526
 4250POPC   C3A55925  28.312  10.804   6.924
 4250POPC   C4A55926  28.199  10.709   7.363
 4250POPC   C1B55927  28.326  10.268   6.134
 4250POPC   C2B55928  28.378  10.368   6.573
 4250POPC   C3B55929  28.250  10.301   6.988
 4250POPC   C4B55930  28.500   9.989   7.162
 4251POPC   NC355931  29.308  18.076   5.660
 4251POPC   PO455932  28.777  18.375   5.382
 4251POPC   GL155933  28.906  18.421   5.828
 4251POPC   GL255934  28.918  18.062   5.993
 4251POPC   C1A55935  28.803  18.468   6.284
 4251POPC   D2A55936  28.773  18.101   6.520
 4251POPC   C3A55937  28.759  18.214   6.905
 4251POPC   C4A55938  29.076  18.136   7.143
 4251POPC   C1B55939  29.249  18.239   6.305
 4251POPC   C2B55940  29.160  18.449   6.705
 4251POPC   C3B55941  29.432  18.459   7.072
 4251POPC   C4B55942  29.565  18.051   7.219
 4252POPC   NC355943  37.877  10.173   5.440
 4252POPC   PO455944  37.459  10.656   5.224
 4252POPC   GL155945  37.568  10.506   5.650
 4252POPC   GL255946  37.920  10.594   5.757
 4252POPC   C1A55947  37.577  10.392   6.124
 4252POPC   D2A55948  37.417  10.366   6.588
 4252POPC   C3A55949  37.658  10.226   6.974
 4252POPC   C4A55950  38.029  10.344   7.226
 4252POPC   C1B55951  37.968  10.724   6.198
 4252POPC   C2B55952  37.668  10.827   6.534
 4252POPC   C3B55953  37.681  10.766   6.981
 4252POPC   C4B55954  37.685  10.948   7.398
 4253POPC   NC355955  14.274  31.113   5.738
 4253POPC   PO455956  14.379  30.506   5.517
 4253POPC   GL155957  14.199  30.605   5.920
 4253POPC   GL255958  13.905  30.455   5.873
 4253POPC   C1A55959  14.260  30.668   6.385
 4253POPC   D2A55960  14.648  30.700   6.677
 4253POPC   C3A55961  14.637  30.946   7.076
 4253POPC   C4A55962  14.589  31.202   7.453
 4253POPC   C1B55963  14.010  30.174   6.180
 4253POPC   C2B55964  13.887  30.110   6.578
 4253POPC   C3B55965  14.014  30.231   6.964
 4253POPC   C4B55966  14.056  30.500   7.295
 4254POPC   NC355967  25.583  23.021   5.286
 4254POPC   PO455968  25.003  22.869   5.354
 4254POPC   GL155969  25.201  22.934   5.793
 4254POPC   GL255970  25.487  22.739   5.784
 4254POPC   C1A55971  25.277  22.838   6.295
 4254POPC   D2A55972  25.250  22.691   6.770
 4254POPC   C3A55973  25.066  22.904   7.161
 4254POPC   C4A55974  24.979  22.966   7.641
 4254POPC   C1B55975  25.729  22.993   6.082
 4254POPC   C2B55976  25.722  23.158   6.518
 4254POPC   C3B55977  25.586  23.037   6.937
 4254POPC   C4B55978  25.629  22.628   7.150
 4255POPC   NC355979  18.740  33.328   5.046
 4255POPC   PO455980  18.120  33.047   5.235
 4255POPC   GL155981  18.083  33.008   5.708
 4255POPC   GL255982  17.958  32.656   5.722
 4255POPC   C1A55983  18.368  33.133   6.103
 4255POPC   D2A55984  18.583  33.055   6.531
 4255POPC   C3A55985  18.379  33.275   6.871
 4255POPC   C4A55986  18.199  33.367   7.252
 4255POPC   C1B55987  18.133  32.661   6.132
 4255POPC   C2B55988  18.112  32.900   6.508
 4255POPC   C3B55989  18.293  32.785   6.915
 4255POPC   C4B55990  18.093  32.846   7.300
 4256POPC   NC355991   3.715  16.856   5.447
 4256POPC   PO455992   3.367  16.249   5.306
 4256POPC   GL155993   3.347  16.446   5.727
 4256POPC   GL255994   3.240  16.816   5.833
 4256POPC   C1A55995   3.668  16.474   6.065
 4256POPC   D2A55996   3.696  16.443   6.532
 4256POPC   C3A55997   3.349  16.500   6.833
 4256POPC   C4A55998   3.368  16.598   7.273
 4256POPC   C1B55999   3.289  17.132   6.221
 4256POPC   C2B56000   3.504  17.218   6.655
 4256POPC   C3B56001   3.644  16.948   7.024
 4256POPC   C4B56002   3.678  16.948   7.490
 4257POPC   NC356003   2.615  36.453   5.485
 4257POPC   PO456004   3.034  36.129   5.134
 4257POPC   GL156005   3.018  36.205   5.693
 4257POPC   GL256006   2.753  36.004   5.831
 4257POPC   C1A56007   2.832  36.323   6.169
 4257POPC   D2A56008   2.999  36.338   6.576
 4257POPC   C3A56009   2.802  36.281   6.988
 4257POPC   C4A56010   3.025  36.367   7.378
 4257POPC   C1B56011   2.551  35.870   6.174
 4257POPC   C2B56012   2.582  36.023   6.586
 4257POPC   C3B56013   2.560  35.830   6.989
 4257POPC   C4B56014   2.448  35.974   7.391
 4258POPC   NC356015   4.012  34.452   5.591
 4258POPC   PO456016   4.479  34.819   5.250
 4258POPC   GL156017   4.430  34.777   5.759
 4258POPC   GL256018   4.114  34.745   5.978
 4258POPC   C1A56019   4.537  34.781   6.258
 4258POPC   D2A56020   4.467  34.614   6.710
 4258POPC   C3A56021   4.485  34.886   7.065
 4258POPC   C4A56022   4.143  35.153   7.159
 4258POPC   C1B56023   4.134  34.445   6.333
 4258POPC   C2B56024   3.947  34.511   6.746
 4258POPC   C3B56025   3.923  34.485   7.200
 4258POPC   C4B56026   4.015  34.131   7.488
 4259POPC   NC356027   9.804  33.669   5.279
 4259POPC   PO456028   9.316  34.078   5.453
 4259POPC   GL156029   9.572  33.936   5.794
 4259POPC   GL256030   9.932  33.988   5.754
 4259POPC   C1A56031   9.690  33.886   6.244
 4259POPC   D2A56032   9.489  33.843   6.675
 4259POPC   C3A56033   9.628  33.760   7.103
 4259POPC   C4A56034   9.976  33.555   7.268
 4259POPC   C1B56035   9.983  34.299   6.115
 4259POPC   C2B56036   9.868  34.248   6.562
 4259POPC   C3B56037  10.013  34.064   6.972
 4259POPC   C4B56038   9.930  34.031   7.442
 4260POPC   NC356039  12.671   2.597   5.485
 4260POPC   PO456040  13.079   3.268   5.403
 4260POPC   GL156041  13.116   2.948   5.718
 4260POPC   GL256042  12.785   2.972   5.835
 4260POPC   C1A56043  13.149   2.715   6.126
 4260POPC   D2A56044  13.000   2.515   6.539
 4260POPC   C3A56045  13.123   2.722   6.959
 4260POPC   C4A56046  13.060   2.854   7.404
 4260POPC   C1B56047  12.713   2.964   6.261
 4260POPC   C2B56048  12.458   2.729   6.544
 4260POPC   C3B56049  12.638   2.574   6.907
 4260POPC   C4B56050  12.662   2.955   7.117
 4261POPC   NC356051  27.953  31.148   5.480
 4261POPC   PO456052  27.185  31.370   5.388
 4261POPC   GL156053  27.369  31.465   5.829
 4261POPC   GL256054  27.621  31.231   5.865
 4261POPC   C1A56055  27.390  31.401   6.316
 4261POPC   D2A56056  27.440  31.073   6.669
 4261POPC   C3A56057  27.276  31.156   7.090
 4261POPC   C4A56058  27.380  31.520   7.351
 4261POPC   C1B56059  27.871  31.306   6.249
 4261POPC   C2B56060  27.990  31.547   6.593
 4261POPC   C3B56061  27.786  31.432   6.983
 4261POPC   C4B56062  28.094  31.323   7.253
 4262POPC   NC356063   9.391  14.091   5.587
 4262POPC   PO456064   9.830  13.672   5.241
 4262POPC   GL156065   9.793  13.573   5.719
 4262POPC   GL256066   9.558  13.324   5.797
 4262POPC   C1A56067   9.906  13.364   6.154
 4262POPC   D2A56068   9.682  13.442   6.554
 4262POPC   C3A56069   9.889  13.776   6.757
 4262POPC   C4A56070  10.044  13.735   7.151
 4262POPC   C1B56071   9.477  13.668   6.123
 4262POPC   C2B56072   9.286  13.764   6.551
 4262POPC   C3B56073   9.417  13.739   6.974
 4262POPC   C4B56074   9.640  13.412   7.086
 4263POPC   NC356075  15.600   0.356   5.427
 4263POPC   PO456076  16.172   0.681   5.382
 4263POPC   GL156077  16.141   0.426   5.728
 4263POPC   GL256078  15.852   0.559   5.847
 4263POPC   C1A56079  16.205   0.240   6.144
 4263POPC   D2A56080  16.095   0.361   6.567
 4263POPC   C3A56081  16.186   0.123   6.939
 4263POPC   C4A56082  16.141   0.396   7.269
 4263POPC   C1B56083  15.670   0.278   6.150
 4263POPC   C2B56084  15.662   0.054   6.549
 4263POPC   C3B56085  15.701   0.254   6.951
 4263POPC   C4B56086  15.635   0.436   7.345
 4264POPC   NC356087  29.677   2.657   5.273
 4264POPC   PO456088  30.121   3.127   5.319
 4264POPC   GL156089  30.038   2.797   5.647
 4264POPC   GL256090  30.091   3.030   5.912
 4264POPC   C1A56091  29.811   2.613   6.049
 4264POPC   D2A56092  29.848   2.464   6.501
 4264POPC   C3A56093  29.720   2.640   6.933
 4264POPC   C4A56094  29.666   2.443   7.335
 4264POPC   C1B56095  29.989   3.062   6.359
 4264POPC   C2B56096  29.942   3.161   6.813
 4264POPC   C3B56097  30.202   3.058   7.180
 4264POPC   C4B56098  30.094   3.128   7.645
 4265POPC   NC356099  37.700   3.991   5.284
 4265POPC   PO456100  37.605   3.373   5.441
 4265POPC   GL156101  37.601   3.538   5.866
 4265POPC   GL256102  37.558   3.875   5.782
 4265POPC   C1A56103  37.710   3.493   6.324
 4265POPC   D2A56104  37.659   3.169   6.669
 4265POPC   C3A56105  37.721   3.289   7.086
 4265POPC   C4A56106  37.942   3.672   7.168
 4265POPC   C1B56107  37.353   3.874   6.172
 4265POPC   C2B56108  37.545   3.968   6.536
 4265POPC   C3B56109  37.592   3.688   6.799
 4265POPC   C4B56110  37.316   3.611   7.092
 4266POPC   NC356111   0.854  31.541   5.388
 4266POPC   PO456112   1.397  31.188   5.362
 4266POPC   GL156113   1.306  31.491   5.688
 4266POPC   GL256114   1.026  31.642   5.846
 4266POPC   C1A56115   1.457  31.520   6.119
 4266POPC   D2A56116   1.441  31.728   6.515
 4266POPC   C3A56117   1.317  31.509   6.883
 4266POPC   C4A56118   1.194  31.411   7.303
 4266POPC   C1B56119   0.968  31.634   6.267
 4266POPC   C2B56120   0.830  31.519   6.655
 4266POPC   C3B56121   0.864  31.719   7.040
 4266POPC   C4B56122   0.968  31.851   7.463
 4267POPC   NC356123  24.355   9.837   5.461
 4267POPC   PO456124  24.785   9.373   5.666
 4267POPC   GL156125  24.591   9.612   5.949
 4267POPC   GL256126  24.583   9.989   5.913
 4267POPC   C1A56127  24.408   9.701   6.346
 4267POPC   D2A56128  24.503  10.039   6.641
 4267POPC   C3A56129  24.434   9.932   7.048
 4267POPC   C4A56130  24.248   9.558   7.204
 4267POPC   C1B56131  24.873   9.901   6.252
 4267POPC   C2B56132  24.851   9.551   6.549
 4267POPC   C3B56133  24.687   9.457   6.948
 4267POPC   C4B56134  24.844   9.750   7.267
 4268POPC   NC356135  42.709  22.228   5.425
 4268POPC   PO456136  42.221  21.798   5.209
 4268POPC   GL156137  42.323  21.953   5.656
 4268POPC   GL256138  42.668  21.866   5.805
 4268POPC   C1A56139  42.252  22.149   6.086
 4268POPC   D2A56140  42.070  22.071   6.511
 4268POPC   C3A56141  42.290  22.040   6.864
 4268POPC   C4A56142  42.184  22.266   7.171
 4268POPC   C1B56143  42.741  22.274   6.097
 4268POPC   C2B56144  42.533  22.339   6.514
 4268POPC   C3B56145  42.674  22.377   6.971
 4268POPC   C4B56146  42.658  22.032   7.293
 4269POPC   NC356147  30.438   5.088   5.302
 4269POPC   PO456148  31.132   5.119   5.370
 4269POPC   GL156149  30.878   4.926   5.657
 4269POPC   GL256150  30.623   5.168   5.771
 4269POPC   C1A56151  30.958   4.732   6.057
 4269POPC   D2A56152  30.955   4.846   6.490
 4269POPC   C3A56153  30.965   4.942   6.939
 4269POPC   C4A56154  31.067   5.354   7.104
 4269POPC   C1B56155  30.662   5.141   6.207
 4269POPC   C2B56156  30.511   5.049   6.649
 4269POPC   C3B56157  30.545   5.171   7.113
 4269POPC   C4B56158  30.450   5.464   7.465
 4270POPC   NC356159   4.045  27.512   5.513
 4270POPC   PO456160   4.496  27.933   5.331
 4270POPC   GL156161   4.531  27.740   5.766
 4270POPC   GL256162   4.457  27.355   5.786
 4270POPC   C1A56163   4.368  27.652   6.195
 4270POPC   D2A56164   4.088  27.761   6.491
 4270POPC   C3A56165   4.120  27.709   6.904
 4270POPC   C4A56166   4.411  27.755   7.193
 4270POPC   C1B56167   4.339  27.146   6.179
 4270POPC   C2B56168   4.286  27.295   6.597
 4270POPC   C3B56169   4.475  27.291   6.999
 4270POPC   C4B56170   4.293  27.277   7.419
 4271POPC   NC356171  17.967  24.064   5.400
 4271POPC   PO456172  18.492  24.432   5.369
 4271POPC   GL156173  18.409  24.603   5.788
 4271POPC   GL256174  18.092  24.502   5.870
 4271POPC   C1A56175  18.394  24.595   6.278
 4271POPC   D2A56176  18.503  24.542   6.725
 4271POPC   C3A56177  18.288  24.733   7.060
 4271POPC   C4A56178  18.405  24.799   7.496
 4271POPC   C1B56179  18.061  24.207   6.167
 4271POPC   C2B56180  18.036  24.358   6.582
 4271POPC   C3B56181  18.124  24.173   6.967
 4271POPC   C4B56182  18.128  24.346   7.365
 4272POPC   NC356183  10.848  31.100   5.517
 4272POPC   PO456184  10.543  30.479   5.391
 4272POPC   GL156185  10.458  30.710   5.795
 4272POPC   GL256186  10.791  30.794   5.910
 4272POPC   C1A56187  10.479  30.683   6.290
 4272POPC   D2A56188  10.729  30.915   6.587
 4272POPC   C3A56189  10.606  30.882   7.030
 4272POPC   C4A56190  10.311  30.618   7.227
 4272POPC   C1B56191  10.815  30.351   6.060
 4272POPC   C2B56192  10.591  30.162   6.422
 4272POPC   C3B56193  10.514  30.415   6.790
 4272POPC   C4B56194  10.753  30.383   7.177
 4273POPC   NC356195  16.424  11.667   5.507
 4273POPC   PO456196  16.998  11.255   5.400
 4273POPC   GL156197  16.895  11.277   5.854
 4273POPC   GL256198  16.578  11.108   5.938
 4273POPC   C1A56199  17.040  11.137   6.282
 4273POPC   D2A56200  16.719  11.035   6.603
 4273POPC   C3A56201  16.771  11.075   7.006
 4273POPC   C4A56202  17.070  11.231   7.281
 4273POPC   C1B56203  16.635  11.433   6.282
 4273POPC   C2B56204  16.804  11.544   6.713
 4273POPC   C3B56205  16.640  11.542   7.133
 4273POPC   C4B56206  16.263  11.258   7.171
 4274POPC   NC356207  30.792  31.119   5.368
 4274POPC   PO456208  30.434  30.550   5.464
 4274POPC   GL156209  30.698  30.732   5.794
 4274POPC   GL256210  30.974  30.559   5.644
 4274POPC   C1A56211  30.687  30.835   6.272
 4274POPC   D2A56212  30.478  30.676   6.670
 4274POPC   C3A56213  30.567  30.844   7.078
 4274POPC   C4A56214  30.926  30.928   7.331
 4274POPC   C1B56215  31.051  30.452   6.081
 4274POPC   C2B56216  31.113  30.610   6.486
 4274POPC   C3B56217  31.026  30.597   6.907
 4274POPC   C4B56218  31.091  30.168   7.045
 4275POPC   NC356219  10.171   2.480   5.742
 4275POPC   PO456220  10.655   2.813   5.384
 4275POPC   GL156221  10.556   2.868   5.859
 4275POPC   GL256222  10.421   3.186   5.841
 4275POPC   C1A56223  10.767   3.009   6.294
 4275POPC   D2A56224  10.708   2.782   6.689
 4275POPC   C3A56225  10.756   2.838   7.131
 4275POPC   C4A56226  10.520   2.582   7.337
 4275POPC   C1B56227  10.248   3.012   6.249
 4275POPC   C2B56228  10.083   3.038   6.676
 4275POPC   C3B56229  10.292   2.992   7.039
 4275POPC   C4B56230  10.234   2.971   7.478
 4276POPC   NC356231  13.961   6.171   5.378
 4276POPC   PO456232  13.829   5.510   5.469
 4276POPC   GL156233  13.692   5.467   5.897
 4276POPC   GL256234  13.444   5.702   5.931
 4276POPC   C1A56235  13.809   5.620   6.326
 4276POPC   D2A56236  13.641   5.811   6.738
 4276POPC   C3A56237  13.776   5.825   7.201
 4276POPC   C4A56238  13.612   5.594   7.580
 4276POPC   C1B56239  13.252   5.574   6.322
 4276POPC   C2B56240  13.147   5.607   6.759
 4276POPC   C3B56241  13.273   5.859   7.124
 4276POPC   C4B56242  13.420   6.063   7.521
 4277POPC   NC356243  39.658  41.151   5.257
 4277POPC   PO456244  39.518  40.476   5.273
 4277POPC   GL156245  39.275  40.704   5.644
 4277POPC   GL256246  39.365  41.043   5.699
 4277POPC   C1A56247  39.088  40.708   6.082
 4277POPC   D2A56248  39.137  40.896   6.518
 4277POPC   C3A56249  39.003  40.690   6.911
 4277POPC   C4A56250  39.172  40.750   7.318
 4277POPC   C1B56251  39.628  40.921   6.056
 4277POPC   C2B56252  39.678  40.898   6.518
 4277POPC   C3B56253  39.524  40.828   6.943
 4277POPC   C4B56254  39.498  41.162   7.259
 4278POPC   NC356255  20.713  22.067   5.511
 4278POPC   PO456256  21.053  22.573   5.767
 4278POPC   GL156257  20.880  22.204   5.990
 4278POPC   GL256258  20.528  22.042   5.962
 4278POPC   C1A56259  20.692  22.232   6.385
 4278POPC   D2A56260  20.569  22.137   6.748
 4278POPC   C3A56261  20.824  22.365   6.987
 4278POPC   C4A56262  20.768  22.229   7.354
 4278POPC   C1B56263  20.240  21.987   6.306
 4278POPC   C2B56264  20.081  22.173   6.679
 4278POPC   C3B56265  20.196  21.970   7.071
 4278POPC   C4B56266  20.289  22.166   7.462
 4279POPC   NC356267  10.067   5.408   5.370
 4279POPC   PO456268   9.781   4.864   5.436
 4279POPC   GL156269   9.923   4.940   5.851
 4279POPC   GL256270  10.008   5.301   5.899
 4279POPC   C1A56271   9.801   5.007   6.289
 4279POPC   D2A56272   9.680   4.976   6.712
 4279POPC   C3A56273   9.861   4.779   7.070
 4279POPC   C4A56274   9.721   4.923   7.483
 4279POPC   C1B56275  10.008   5.469   6.353
 4279POPC   C2B56276   9.754   5.481   6.728
 4279POPC   C3B56277   9.769   5.310   7.151
 4279POPC   C4B56278   9.929   5.421   7.596
 4280POPC   NC356279  41.081  41.514   5.339
 4280POPC   PO456280  40.497  41.270   5.528
 4280POPC   GL156281  40.747  41.550   5.727
 4280POPC   GL256282  40.949  41.286   5.820
 4280POPC   C1A56283  40.936  41.749   6.076
 4280POPC   D2A56284  40.920  41.930   6.481
 4280POPC   C3A56285  41.131  41.704   6.781
 4280POPC   C4A56286  40.978  41.840   7.164
 4280POPC   C1B56287  40.620  41.324   6.170
 4280POPC   C2B56288  40.751  41.427   6.571
 4280POPC   C3B56289  40.668  41.467   6.992
 4280POPC   C4B56290  40.434  41.226   7.304
 4281POPC   NC356291  25.025  37.476   5.642
 4281POPC   PO456292  24.493  37.347   5.206
 4281POPC   GL156293  24.404  37.495   5.634
 4281POPC   GL256294  24.318  37.854   5.653
 4281POPC   C1A56295  24.440  37.481   6.090
 4281POPC   D2A56296  24.140  37.459   6.406
 4281POPC   C3A56297  24.162  37.396   6.884
 4281POPC   C4A56298  24.459  37.458   7.233
 4281POPC   C1B56299  24.225  37.950   6.121
 4281POPC   C2B56300  24.125  37.928   6.616
 4281POPC   C3B56301  24.226  38.051   7.085
 4281POPC   C4B56302  24.344  38.310   7.486
 4282POPC   NC356303  16.630  12.259   5.080
 4282POPC   PO456304  16.412  12.114   5.652
 4282POPC   GL156305  16.552  11.842   5.980
 4282POPC   GL256306  16.895  11.773   5.973
 4282POPC   C1A56307  16.585  11.924   6.420
 4282POPC   D2A56308  16.419  12.125   6.775
 4282POPC   C3A56309  16.608  12.067   7.171
 4282POPC   C4A56310  16.492  11.833   7.548
 4282POPC   C1B56311  17.095  11.808   6.393
 4282POPC   C2B56312  17.014  12.036   6.805
 4282POPC   C3B56313  17.292  12.113   7.181
 4282POPC   C4B56314  17.279  12.185   7.654
 4283POPC   NC356315   6.879  26.467   5.384
 4283POPC   PO456316   6.532  27.011   5.145
 4283POPC   GL156317   6.523  26.880   5.603
 4283POPC   GL256318   6.493  26.517   5.725
 4283POPC   C1A56319   6.537  26.960   6.061
 4283POPC   D2A56320   6.330  26.878   6.460
 4283POPC   C3A56321   6.564  26.670   6.835
 4283POPC   C4A56322   6.782  26.663   7.196
 4283POPC   C1B56323   6.831  26.549   6.008
 4283POPC   C2B56324   6.808  26.568   6.420
 4283POPC   C3B56325   7.003  26.359   6.786
 4283POPC   C4B56326   7.158  26.237   7.173
 4284POPC   NC356327  20.218  22.937   5.508
 4284POPC   PO456328  19.640  22.550   5.590
 4284POPC   GL156329  19.763  22.968   5.777
 4284POPC   GL256330  20.086  23.103   5.967
 4284POPC   C1A56331  19.635  23.022   6.193
 4284POPC   D2A56332  19.826  23.158   6.555
 4284POPC   C3A56333  19.604  22.935   6.874
 4284POPC   C4A56334  19.468  22.830   7.276
 4284POPC   C1B56335  20.026  22.678   6.125
 4284POPC   C2B56336  19.963  22.662   6.556
 4284POPC   C3B56337  20.107  22.901   6.902
 4284POPC   C4B56338  19.985  22.861   7.295
 4285POPC   NC356339   7.658  26.201   5.417
 4285POPC   PO456340   7.196  25.745   5.469
 4285POPC   GL156341   7.434  25.873   5.785
 4285POPC   GL256342   7.277  26.206   5.805
 4285POPC   C1A56343   7.335  25.873   6.213
 4285POPC   D2A56344   7.421  26.041   6.609
 4285POPC   C3A56345   7.195  25.820   6.888
 4285POPC   C4A56346   7.221  25.694   7.285
 4285POPC   C1B56347   7.638  26.284   6.109
 4285POPC   C2B56348   7.660  26.492   6.520
 4285POPC   C3B56349   7.632  26.413   6.950
 4285POPC   C4B56350   7.623  26.009   7.106
 4286POPC   NC356351  36.564  37.288   5.545
 4286POPC   PO456352  36.566  37.960   5.698
 4286POPC   GL156353  36.212  37.650   5.797
 4286POPC   GL256354  36.166  37.291   5.909
 4286POPC   C1A56355  35.957  37.707   6.174
 4286POPC   D2A56356  36.049  37.599   6.581
 4286POPC   C3A56357  35.816  37.685   6.935
 4286POPC   C4A56358  35.963  37.623   7.356
 4286POPC   C1B56359  36.446  37.448   6.217
 4286POPC   C2B56360  36.543  37.449   6.648
 4286POPC   C3B56361  36.273  37.384   7.011
 4286POPC   C4B56362  35.882  37.164   7.062
 4287POPC   NC356363  41.664  19.368   5.374
 4287POPC   PO456364  41.694  18.734   5.511
 4287POPC   GL156365  41.530  18.826   5.881
 4287POPC   GL256366  41.436  19.145   5.797
 4287POPC   C1A56367  41.510  18.934   6.316
 4287POPC   D2A56368  41.495  19.048   6.746
 4287POPC   C3A56369  41.684  18.845   7.123
 4287POPC   C4A56370  41.463  18.935   7.558
 4287POPC   C1B56371  41.762  19.312   6.058
 4287POPC   C2B56372  41.889  19.251   6.488
 4287POPC   C3B56373  41.842  19.374   6.926
 4287POPC   C4B56374  41.782  19.271   7.357
 4288POPC   NC356375   4.322  43.592   5.280
 4288POPC   PO456376   3.854  44.189   5.379
 4288POPC   GL156377   4.166  44.025   5.698
 4288POPC   GL256378   4.207  43.674   5.757
 4288POPC   C1A56379   4.387  44.018   6.121
 4288POPC   D2A56380   4.498  44.186   6.523
 4288POPC   C3A56381   4.315  43.998   6.910
 4288POPC   C4A56382   4.420  44.104   7.319
 4288POPC   C1B56383   4.284  43.507   6.168
 4288POPC   C2B56384   4.488  43.645   6.556
 4288POPC   C3B56385   4.657  43.581   6.971
 4288POPC   C4B56386   4.356  43.609   7.292
 4289POPC   NC356387  27.045   8.789   5.433
 4289POPC   PO456388  26.633   9.315   5.250
 4289POPC   GL156389  26.644   9.055   5.631
 4289POPC   GL256390  26.531   8.719   5.592
 4289POPC   C1A56391  26.822   9.071   6.061
 4289POPC   D2A56392  26.712   9.070   6.502
 4289POPC   C3A56393  26.965   9.336   6.781
 4289POPC   C4A56394  27.206   9.287   7.182
 4289POPC   C1B56395  26.625   8.598   6.033
 4289POPC   C2B56396  26.912   8.585   6.399
 4289POPC   C3B56397  27.073   8.815   6.756
 4289POPC   C4B56398  26.720   8.958   7.036
 4290POPC   NC356399  21.474   8.725   5.108
 4290POPC   PO456400  21.328   9.356   5.300
 4290POPC   GL156401  21.464   9.113   5.654
 4290POPC   GL256402  21.291   8.818   5.694
 4290POPC   C1A56403  21.633   8.951   6.048
 4290POPC   D2A56404  21.546   8.820   6.472
 4290POPC   C3A56405  21.546   9.135   6.755
 4290POPC   C4A56406  21.531   9.043   7.196
 4290POPC   C1B56407  21.094   8.869   6.099
 4290POPC   C2B56408  21.090   9.056   6.498
 4290POPC   C3B56409  21.170   8.803   6.873
 4290POPC   C4B56410  21.025   8.872   7.287
 4291POPC   NC356411  34.190  40.081   4.990
 4291POPC   PO456412  33.703  39.961   5.414
 4291POPC   GL156413  33.807  39.821   5.833
 4291POPC   GL256414  34.092  39.950   6.021
 4291POPC   C1A56415  33.614  39.947   6.223
 4291POPC   D2A56416  33.729  40.114   6.616
 4291POPC   C3A56417  33.522  39.967   6.999
 4291POPC   C4A56418  33.745  40.104   7.377
 4291POPC   C1B56419  33.996  39.604   6.289
 4291POPC   C2B56420  33.831  39.613   6.700
 4291POPC   C3B56421  34.004  39.770   7.109
 4291POPC   C4B56422  33.982  39.725   7.600
 4292POPC   NC356423  21.338  42.038   5.410
 4292POPC   PO456424  21.627  42.695   5.255
 4292POPC   GL156425  21.387  42.543   5.621
 4292POPC   GL256426  21.602  42.296   5.772
 4292POPC   C1A56427  21.296  42.615   6.065
 4292POPC   D2A56428  21.126  42.693   6.470
 4292POPC   C3A56429  21.364  42.658   6.842
 4292POPC   C4A56430  21.238  42.474   7.186
 4292POPC   C1B56431  21.423  42.130   6.171
 4292POPC   C2B56432  21.284  42.200   6.612
 4292POPC   C3B56433  21.454  42.050   7.022
 4292POPC   C4B56434  21.705  42.234   7.376
 4293POPC   NC356435  22.160  39.791   5.530
 4293POPC   PO456436  22.512  40.419   5.494
 4293POPC   GL156437  22.245  40.279   5.895
 4293POPC   GL256438  21.965  40.033   5.980
 4293POPC   C1A56439  22.228  40.149   6.383
 4293POPC   D2A56440  22.205  39.817   6.736
 4293POPC   C3A56441  22.402  39.990   7.118
 4293POPC   C4A56442  22.460  39.825   7.540
 4293POPC   C1B56443  21.677  40.208   6.326
 4293POPC   C2B56444  21.484  40.266   6.758
 4293POPC   C3B56445  21.716  40.429   7.168
 4293POPC   C4B56446  22.027  40.133   7.424
 4294POPC   NC356447  12.741  17.265   5.428
 4294POPC   PO456448  13.156  17.824   5.374
 4294POPC   GL156449  13.006  17.626   5.796
 4294POPC   GL256450  12.657  17.712   5.710
 4294POPC   C1A56451  13.079  17.518   6.311
 4294POPC   D2A56452  13.328  17.413   6.743
 4294POPC   C3A56453  13.167  17.430   7.200
 4294POPC   C4A56454  13.047  17.586   7.628
 4294POPC   C1B56455  12.651  17.773   6.158
 4294POPC   C2B56456  12.617  17.602   6.584
 4294POPC   C3B56457  12.510  17.645   7.001
 4294POPC   C4B56458  12.661  17.408   7.334
 4295POPC   NC356459   1.426  14.498   5.343
 4295POPC   PO456460   0.862  14.784   5.577
 4295POPC   GL156461   1.201  14.512   5.811
 4295POPC   GL256462   1.248  14.124   5.786
 4295POPC   C1A56463   1.201  14.340   6.254
 4295POPC   D2A56464   1.095  14.084   6.627
 4295POPC   C3A56465   1.097  14.296   7.040
 4295POPC   C4A56466   0.846  14.548   7.333
 4295POPC   C1B56467   1.595  14.064   6.119
 4295POPC   C2B56468   1.603  14.150   6.556
 4295POPC   C3B56469   1.514  13.991   6.961
 4295POPC   C4B56470   1.513  14.257   7.323
 4296POPC   NC356471  26.648  18.605   5.489
 4296POPC   PO456472  26.616  17.968   5.200
 4296POPC   GL156473  26.650  18.025   5.687
 4296POPC   GL256474  26.914  18.242   5.884
 4296POPC   C1A56475  26.612  17.992   6.179
 4296POPC   D2A56476  26.966  18.134   6.471
 4296POPC   C3A56477  26.957  18.016   6.921
 4296POPC   C4A56478  26.559  18.029   7.139
 4296POPC   C1B56479  26.660  18.490   6.213
 4296POPC   C2B56480  26.556  18.401   6.664
 4296POPC   C3B56481  26.799  18.490   7.051
 4296POPC   C4B56482  27.041  18.490   7.442
 4297POPC   NC356483  22.164  35.752   5.288
 4297POPC   PO456484  22.370  35.122   5.249
 4297POPC   GL156485  22.207  35.354   5.607
 4297POPC   GL256486  21.869  35.240   5.731
 4297POPC   C1A56487  22.211  35.407   6.058
 4297POPC   D2A56488  22.184  35.570   6.466
 4297POPC   C3A56489  22.126  35.440   6.906
 4297POPC   C4A56490  21.776  35.676   7.090
 4297POPC   C1B56491  21.881  35.026   6.149
 4297POPC   C2B56492  21.786  34.886   6.581
 4297POPC   C3B56493  21.847  35.048   7.016
 4297POPC   C4B56494  22.053  35.192   7.403
 4298POPC   NC356495  21.217  42.943   5.246
 4298POPC   PO456496  21.376  43.554   5.362
 4298POPC   GL156497  21.326  43.230   5.695
 4298POPC   GL256498  21.616  43.007   5.684
 4298POPC   C1A56499  21.139  43.103   6.116
 4298POPC   D2A56500  20.851  43.166   6.451
 4298POPC   C3A56501  21.078  43.082   6.837
 4298POPC   C4A56502  21.282  42.978   7.244
 4298POPC   C1B56503  21.636  43.183   6.100
 4298POPC   C2B56504  21.535  43.007   6.479
 4298POPC   C3B56505  21.598  43.142   6.890
 4298POPC   C4B56506  21.719  43.266   7.273
 4299POPC   NC356507   7.683   0.658   5.397
 4299POPC   PO456508   7.100   0.286   5.359
 4299POPC   GL156509   7.333   0.420   5.696
 4299POPC   GL256510   7.187   0.737   5.665
 4299POPC   C1A56511   7.513   0.320   6.097
 4299POPC   D2A56512   7.407   0.489   6.485
 4299POPC   C3A56513   7.397   0.293   6.848
 4299POPC   C4A56514   7.507   0.155   7.230
 4299POPC   C1B56515   7.085   0.666   6.098
 4299POPC   C2B56516   6.927   0.635   6.561
 4299POPC   C3B56517   7.010   0.609   7.002
 4299POPC   C4B56518   7.387   0.647   7.227
 4300POPC   NC356519  34.335  35.661   5.309
 4300POPC   PO456520  34.828  35.182   5.485
 4300POPC   GL156521  34.651  35.530   5.742
 4300POPC   GL256522  34.283  35.570   5.803
 4300POPC   C1A56523  34.640  35.557   6.200
 4300POPC   D2A56524  34.827  35.438   6.609
 4300POPC   C3A56525  34.551  35.177   6.874
 4300POPC   C4A56526  34.514  35.202   7.326
 4300POPC   C1B56527  34.152  35.717   6.210
 4300POPC   C2B56528  34.285  35.600   6.652
 4300POPC   C3B56529  34.534  35.669   7.046
 4300POPC   C4B56530  34.312  35.659   7.479
 4301POPC   NC356531  13.650  21.402   5.390
 4301POPC   PO456532  13.233  20.892   5.398
 4301POPC   GL156533  13.427  21.129   5.779
 4301POPC   GL256534  13.381  21.506   5.809
 4301POPC   C1A56535  13.645  21.185   6.214
 4301POPC   D2A56536  13.812  21.405   6.621
 4301POPC   C3A56537  13.750  21.219   7.074
 4301POPC   C4A56538  13.703  21.215   7.557
 4301POPC   C1B56539  13.417  21.734   6.215
 4301POPC   C2B56540  13.539  21.879   6.633
 4301POPC   C3B56541  13.670  21.746   7.021
 4301POPC   C4B56542  13.460  21.643   7.409
 4302POPC   NC356543  41.142  24.208   5.620
 4302POPC   PO456544  41.519  24.662   5.333
 4302POPC   GL156545  41.461  24.589   5.806
 4302POPC   GL256546  41.117  24.672   5.879
 4302POPC   C1A56547  41.561  24.252   6.177
 4302POPC   D2A56548  41.781  24.237   6.589
 4302POPC   C3A56549  41.580  24.322   7.013
 4302POPC   C4A56550  41.823  24.481   7.384
 4302POPC   C1B56551  41.247  24.624   6.323
 4302POPC   C2B56552  41.118  24.614   6.791
 4302POPC   C3B56553  41.317  24.740   7.211
 4302POPC   C4B56554  41.403  24.606   7.632
 4303POPC   NC356555  23.203  17.735   5.411
 4303POPC   PO456556  22.519  17.479   5.457
 4303POPC   GL156557  22.828  17.568   5.729
 4303POPC   GL256558  23.044  17.278   5.623
 4303POPC   C1A56559  22.994  17.705   6.129
 4303POPC   D2A56560  23.153  17.528   6.526
 4303POPC   C3A56561  22.962  17.733   6.878
 4303POPC   C4A56562  23.108  17.871   7.247
 4303POPC   C1B56563  23.073  17.203   6.049
 4303POPC   C2B56564  22.747  17.285   6.333
 4303POPC   C3B56565  22.724  17.315   6.758
 4303POPC   C4B56566  22.919  17.240   7.146
 4304POPC   NC356567  29.678  28.169   5.425
 4304POPC   PO456568  29.999  28.704   5.234
 4304POPC   GL156569  29.959  28.531   5.718
 4304POPC   GL256570  29.683  28.309   5.916
 4304POPC   C1A56571  30.068  28.469   6.188
 4304POPC   D2A56572  29.759  28.477   6.540
 4304POPC   C3A56573  29.951  28.435   6.942
 4304POPC   C4A56574  30.087  28.399   7.384
 4304POPC   C1B56575  29.835  27.975   6.196
 4304POPC   C2B56576  30.019  28.014   6.601
 4304POPC   C3B56577  29.801  27.919   6.958
 4304POPC   C4B56578  29.923  27.916   7.373
 4305POPC   NC356579   2.510  35.466   5.358
 4305POPC   PO456580   1.884  35.110   5.402
 4305POPC   GL156581   2.034  35.094   5.830
 4305POPC   GL256582   2.376  35.077   5.707
 4305POPC   C1A56583   1.948  35.346   6.238
 4305POPC   D2A56584   2.218  35.643   6.490
 4305POPC   C3A56585   2.084  35.683   6.893
 4305POPC   C4A56586   1.738  35.511   7.114
 4305POPC   C1B56587   2.428  35.348   6.095
 4305POPC   C2B56588   2.402  35.154   6.540
 4305POPC   C3B56589   2.377  35.257   7.003
 4305POPC   C4B56590   2.026  35.074   7.257
 4306POPC   NC356591  14.016  22.311   5.588
 4306POPC   PO456592  14.583  21.944   5.457
 4306POPC   GL156593  14.514  22.186   5.783
 4306POPC   GL256594  14.532  22.536   5.666
 4306POPC   C1A56595  14.344  22.061   6.185
 4306POPC   D2A56596  14.299  21.768   6.506
 4306POPC   C3A56597  14.370  21.851   6.911
 4306POPC   C4A56598  14.193  22.081   7.213
 4306POPC   C1B56599  14.541  22.533   6.143
 4306POPC   C2B56600  14.394  22.421   6.551
 4306POPC   C3B56601  14.182  22.544   6.914
 4306POPC   C4B56602  14.394  22.563   7.279
 4307POPC   NC356603  44.206  25.970   5.463
 4307POPC   PO456604  43.556  25.956   5.489
 4307POPC   GL156605  43.819  26.019   5.833
 4307POPC   GL256606  44.042  26.304   5.812
 4307POPC   C1A56607  43.889  25.843   6.219
 4307POPC   D2A56608  43.993  25.985   6.617
 4307POPC   C3A56609  44.076  25.831   7.007
 4307POPC   C4A56610  43.838  25.811   7.378
 4307POPC   C1B56611  44.202  26.321   6.248
 4307POPC   C2B56612  43.929  26.484   6.599
 4307POPC   C3B56613  43.818  26.295   7.007
 4307POPC   C4B56614  44.128  26.263   7.334
 4308POPC   NC356615  39.112  11.511   5.107
 4308POPC   PO456616  38.981  11.984   5.626
 4308POPC   GL156617  39.210  11.759   5.941
 4308POPC   GL256618  39.348  12.075   5.981
 4308POPC   C1A56619  39.324  11.751   6.396
 4308POPC   D2A56620  39.082  12.039   6.598
 4308POPC   C3A56621  38.948  11.934   6.984
 4308POPC   C4A56622  38.956  12.143   7.346
 4308POPC   C1B56623  39.227  12.452   6.269
 4308POPC   C2B56624  39.263  12.507   6.702
 4308POPC   C3B56625  39.378  12.228   7.033
 4308POPC   C4B56626  39.727  12.279   7.277
 4309POPC   NC356627  19.082  32.745   5.460
 4309POPC   PO456628  18.706  32.271   5.469
 4309POPC   GL156629  18.851  32.471   5.836
 4309POPC   GL256630  19.162  32.329   5.765
 4309POPC   C1A56631  18.999  32.354   6.249
 4309POPC   D2A56632  18.883  32.120   6.575
 4309POPC   C3A56633  18.979  32.263   7.013
 4309POPC   C4A56634  19.163  32.010   7.326
 4309POPC   C1B56635  19.386  32.623   6.031
 4309POPC   C2B56636  19.415  32.714   6.462
 4309POPC   C3B56637  19.415  32.474   6.825
 4309POPC   C4B56638  19.543  32.343   7.220
 4310POPC   NC356639  38.378  17.803   5.367
 4310POPC   PO456640  38.708  17.182   5.383
 4310POPC   GL156641  38.519  17.402   5.769
 4310POPC   GL256642  38.314  17.727   5.856
 4310POPC   C1A56643  38.568  17.431   6.236
 4310POPC   D2A56644  38.777  17.496   6.634
 4310POPC   C3A56645  38.563  17.481   7.027
 4310POPC   C4A56646  38.217  17.247   7.233
 4310POPC   C1B56647  38.084  17.593   6.207
 4310POPC   C2B56648  38.189  17.380   6.604
 4310POPC   C3B56649  38.030  17.601   6.933
 4310POPC   C4B56650  38.209  17.790   7.244
 4311POPC   NC356651   5.928  22.534   5.581
 4311POPC   PO456652   5.368  22.843   5.277
 4311POPC   GL156653   5.617  22.933   5.718
 4311POPC   GL256654   5.618  23.222   5.924
 4311POPC   C1A56655   5.709  22.786   6.185
 4311POPC   D2A56656   5.559  22.835   6.621
 4311POPC   C3A56657   5.707  22.658   7.032
 4311POPC   C4A56658   6.055  22.563   7.244
 4311POPC   C1B56659   5.396  23.319   6.301
 4311POPC   C2B56660   5.336  23.290   6.741
 4311POPC   C3B56661   5.683  23.167   7.012
 4311POPC   C4B56662   5.803  23.214   7.456
 4312POPC   NC356663  32.185  33.184   5.291
 4312POPC   PO456664  32.572  32.662   5.368
 4312POPC   GL156665  32.586  32.920   5.781
 4312POPC   GL256666  32.433  33.262   5.754
 4312POPC   C1A56667  32.442  32.891   6.248
 4312POPC   D2A56668  32.458  33.120   6.678
 4312POPC   C3A56669  32.457  33.003   7.127
 4312POPC   C4A56670  32.443  32.583   7.294
 4312POPC   C1B56671  32.082  33.254   6.057
 4312POPC   C2B56672  32.059  33.450   6.445
 4312POPC   C3B56673  31.990  33.327   6.824
 4312POPC   C4B56674  31.966  33.229   7.195
 4313POPC   NC356675  16.713  30.561   5.283
 4313POPC   PO456676  16.683  31.088   5.648
 4313POPC   GL156677  16.525  30.684   5.803
 4313POPC   GL256678  16.741  30.356   5.770
 4313POPC   C1A56679  16.353  30.711   6.229
 4313POPC   D2A56680  16.387  31.012   6.581
 4313POPC   C3A56681  16.413  30.763   6.949
 4313POPC   C4A56682  16.446  30.643   7.343
 4313POPC   C1B56683  16.848  30.524   6.189
 4313POPC   C2B56684  16.796  30.654   6.624
 4313POPC   C3B56685  16.881  30.512   7.063
 4313POPC   C4B56686  17.238  30.489   7.391
 4314POPC   NC356687  34.433   9.570   5.027
 4314POPC   PO456688  33.938   9.881   5.253
 4314POPC   GL156689  33.799   9.858   5.683
 4314POPC   GL256690  34.078  10.007   5.834
 4314POPC   C1A56691  33.719   9.747   6.145
 4314POPC   D2A56692  33.922   9.694   6.569
 4314POPC   C3A56693  33.742   9.812   7.000
 4314POPC   C4A56694  33.915   9.698   7.439
 4314POPC   C1B56695  33.974  10.189   6.240
 4314POPC   C2B56696  33.915  10.183   6.673
 4314POPC   C3B56697  34.188  10.038   7.004
 4314POPC   C4B56698  34.221  10.144   7.430
 4315POPC   NC356699   1.388  13.809   5.266
 4315POPC   PO456700   0.851  13.528   5.527
 4315POPC   GL156701   1.204  13.577   5.770
 4315POPC   GL256702   1.403  13.262   5.750
 4315POPC   C1A56703   1.187  13.753   6.182
 4315POPC   D2A56704   1.387  13.658   6.566
 4315POPC   C3A56705   1.122  13.656   6.928
 4315POPC   C4A56706   1.187  13.799   7.328
 4315POPC   C1B56707   1.277  13.215   6.199
 4315POPC   C2B56708   1.433  13.151   6.619
 4315POPC   C3B56709   1.491  13.292   7.026
 4315POPC   C4B56710   1.260  13.107   7.366
 4316POPC   NC356711  12.050  20.527   5.428
 4316POPC   PO456712  12.286  21.155   5.213
 4316POPC   GL156713  12.160  21.009   5.689
 4316POPC   GL256714  11.849  20.796   5.810
 4316POPC   C1A56715  12.250  20.818   6.122
 4316POPC   D2A56716  12.039  20.770   6.527
 4316POPC   C3A56717  12.219  20.565   6.890
 4316POPC   C4A56718  12.342  20.812   7.259
 4316POPC   C1B56719  11.878  20.446   6.142
 4316POPC   C2B56720  11.881  20.286   6.596
 4316POPC   C3B56721  11.789  20.340   7.077
 4316POPC   C4B56722  11.741  20.172   7.521
 4317POPC   NC356723  27.858   7.363   5.520
 4317POPC   PO456724  27.287   7.709   5.409
 4317POPC   GL156725  27.476   7.585   5.816
 4317POPC   GL256726  27.386   7.265   5.840
 4317POPC   C1A56727  27.673   7.719   6.245
 4317POPC   D2A56728  28.020   7.667   6.560
 4317POPC   C3A56729  27.865   7.712   6.980
 4317POPC   C4A56730  27.480   7.595   7.123
 4317POPC   C1B56731  27.445   7.245   6.267
 4317POPC   C2B56732  27.561   7.356   6.663
 4317POPC   C3B56733  27.467   7.103   6.998
 4317POPC   C4B56734  27.499   6.920   7.373
 4318POPC   NC356735  21.983  17.058   5.395
 4318POPC   PO456736  22.406  16.529   5.339
 4318POPC   GL156737  22.206  16.527   5.726
 4318POPC   GL256738  22.432  16.761   5.819
 4318POPC   C1A56739  21.999  16.629   6.115
 4318POPC   D2A56740  21.920  16.858   6.524
 4318POPC   C3A56741  22.053  16.953   6.957
 4318POPC   C4A56742  22.038  16.692   7.328
 4318POPC   C1B56743  22.278  17.078   6.084
 4318POPC   C2B56744  22.275  17.221   6.518
 4318POPC   C3B56745  22.493  16.871   6.739
 4318POPC   C4B56746  22.520  16.812   7.176
 4319POPC   NC356747  38.695  21.055   5.465
 4319POPC   PO456748  38.187  21.389   5.398
 4319POPC   GL156749  38.286  21.230   5.803
 4319POPC   GL256750  38.597  21.410   5.819
 4319POPC   C1A56751  38.351  21.374   6.259
 4319POPC   D2A56752  38.409  21.753   6.545
 4319POPC   C3A56753  38.368  21.553   6.915
 4319POPC   C4A56754  38.484  21.129   6.983
 4319POPC   C1B56755  38.793  21.119   6.126
 4319POPC   C2B56756  39.046  21.191   6.499
 4319POPC   C3B56757  38.886  21.424   6.838
 4319POPC   C4B56758  38.893  21.305   7.242
 4320POPC   NC356759  16.342  19.510   5.642
 4320POPC   PO456760  16.187  18.896   5.380
 4320POPC   GL156761  15.970  18.988   5.783
 4320POPC   GL256762  15.597  19.046   5.737
 4320POPC   C1A56763  16.070  19.150   6.214
 4320POPC   D2A56764  16.393  19.162   6.560
 4320POPC   C3A56765  16.217  19.159   6.981
 4320POPC   C4A56766  16.310  18.875   7.331
 4320POPC   C1B56767  15.572  18.934   6.167
 4320POPC   C2B56768  15.781  18.838   6.539
 4320POPC   C3B56769  15.578  18.815   6.911
 4320POPC   C4B56770  15.755  19.089   7.210
 4321POPC   NC356771  16.464   4.242   5.178
 4321POPC   PO456772  15.793   4.067   5.291
 4321POPC   GL156773  15.776   3.981   5.735
 4321POPC   GL256774  16.129   4.092   5.777
 4321POPC   C1A56775  15.629   4.157   6.134
 4321POPC   D2A56776  15.790   4.326   6.511
 4321POPC   C3A56777  15.600   4.283   6.916
 4321POPC   C4A56778  15.872   4.426   7.272
 4321POPC   C1B56779  16.219   4.284   6.180
 4321POPC   C2B56780  16.300   4.101   6.586
 4321POPC   C3B56781  16.284   4.243   7.009
 4321POPC   C4B56782  16.257   4.066   7.417
 4322POPC   NC356783  35.770  27.969   5.473
 4322POPC   PO456784  35.333  27.442   5.438
 4322POPC   GL156785  35.376  27.576   5.834
 4322POPC   GL256786  35.696  27.438   5.845
 4322POPC   C1A56787  35.361  27.404   6.270
 4322POPC   D2A56788  35.058  27.314   6.630
 4322POPC   C3A56789  35.186  27.487   7.037
 4322POPC   C4A56790  35.103  27.916   7.124
 4322POPC   C1B56791  35.696  27.787   6.183
 4322POPC   C2B56792  35.490  27.779   6.636
 4322POPC   C3B56793  35.622  27.764   7.089
 4322POPC   C4B56794  35.619  27.426   7.397
 4323POPC   NC356795   2.132   7.909   5.309
 4323POPC   PO456796   1.579   8.188   5.225
 4323POPC   GL156797   1.868   8.173   5.658
 4323POPC   GL256798   2.013   7.835   5.791
 4323POPC   C1A56799   2.013   8.229   6.125
 4323POPC   D2A56800   2.073   8.350   6.590
 4323POPC   C3A56801   1.949   8.081   6.940
 4323POPC   C4A56802   1.607   8.080   7.229
 4323POPC   C1B56803   2.377   7.842   6.075
 4323POPC   C2B56804   2.438   7.815   6.534
 4323POPC   C3B56805   2.460   7.993   6.932
 4323POPC   C4B56806   2.327   8.411   7.060
 4324POPC   NC356807  28.494   1.449   5.452
 4324POPC   PO456808  28.259   0.827   5.720
 4324POPC   GL156809  28.388   1.155   5.979
 4324POPC   GL256810  28.229   1.492   5.916
 4324POPC   C1A56811  28.173   1.212   6.389
 4324POPC   D2A56812  28.035   1.217   6.836
 4324POPC   C3A56813  28.371   1.093   7.116
 4324POPC   C4A56814  28.848   1.090   7.190
 4324POPC   C1B56815  28.519   1.580   6.253
 4324POPC   C2B56816  28.499   1.480   6.682
 4324POPC   C3B56817  28.623   1.535   7.070
 4324POPC   C4B56818  28.683   1.480   7.481
 4325POPC   NC356819  11.682  26.344   5.793
 4325POPC   PO456820  12.056  26.692   5.271
 4325POPC   GL156821  11.935  26.823   5.687
 4325POPC   GL256822  12.168  26.552   5.759
 4325POPC   C1A56823  12.044  26.855   6.143
 4325POPC   D2A56824  12.261  26.717   6.551
 4325POPC   C3A56825  12.097  26.807   6.946
 4325POPC   C4A56826  11.976  26.647   7.296
 4325POPC   C1B56827  12.306  26.394   6.151
 4325POPC   C2B56828  12.647  26.377   6.446
 4325POPC   C3B56829  12.676  26.583   6.837
 4325POPC   C4B56830  12.470  26.538   7.238
 4326POPC   NC356831  18.997  11.567   5.408
 4326POPC   PO456832  19.342  10.957   5.493
 4326POPC   GL156833  19.115  11.162   5.798
 4326POPC   GL256834  19.327  11.448   5.879
 4326POPC   C1A56835  19.062  11.155   6.248
 4326POPC   D2A56836  18.973  10.906   6.611
 4326POPC   C3A56837  18.817  11.117   6.998
 4326POPC   C4A56838  18.973  11.281   7.403
 4326POPC   C1B56839  19.430  11.535   6.331
 4326POPC   C2B56840  19.301  11.499   6.797
 4326POPC   C3B56841  19.272  11.718   7.204
 4326POPC   C4B56842  19.418  12.012   7.540
 4327POPC   NC356843   2.977  25.859   5.407
 4327POPC   PO456844   2.400  26.246   5.445
 4327POPC   GL156845   2.532  26.031   5.820
 4327POPC   GL256846   2.899  26.047   5.870
 4327POPC   C1A56847   2.602  26.172   6.281
 4327POPC   D2A56848   2.664  25.931   6.688
 4327POPC   C3A56849   2.791  26.128   7.100
 4327POPC   C4A56850   2.705  26.206   7.547
 4327POPC   C1B56851   2.974  25.829   6.255
 4327POPC   C2B56852   3.186  25.966   6.638
 4327POPC   C3B56853   3.085  25.734   7.006
 4327POPC   C4B56854   2.980  25.779   7.438
 4328POPC   NC356855  12.278  42.999   5.026
 4328POPC   PO456856  11.811  43.058   5.467
 4328POPC   GL156857  12.105  43.203   5.801
 4328POPC   GL256858  11.876  43.149   6.042
 4328POPC   C1A56859  12.259  43.446   6.205
 4328POPC   D2A56860  12.224  43.576   6.668
 4328POPC   C3A56861  12.281  43.228   6.990
 4328POPC   C4A56862  12.262  42.817   7.213
 4328POPC   C1B56863  11.782  43.339   6.411
 4328POPC   C2B56864  11.793  43.303   6.828
 4328POPC   C3B56865  11.848  43.226   7.261
 4328POPC   C4B56866  11.839  43.513   7.613
 4329POPC   NC356867  15.686  24.597   5.406
 4329POPC   PO456868  16.363  24.326   5.290
 4329POPC   GL156869  16.149  24.446   5.668
 4329POPC   GL256870  16.145  24.780   5.771
 4329POPC   C1A56871  16.042  24.360   6.118
 4329POPC   D2A56872  16.165  24.527   6.537
 4329POPC   C3A56873  16.044  24.312   6.919
 4329POPC   C4A56874  16.235  24.461   7.305
 4329POPC   C1B56875  15.887  24.834   6.173
 4329POPC   C2B56876  15.782  24.964   6.614
 4329POPC   C3B56877  15.943  24.814   7.038
 4329POPC   C4B56878  15.848  24.747   7.509
 4330POPC   NC356879   2.620  10.084   5.583
 4330POPC   PO456880   2.938  10.558   5.230
 4330POPC   GL156881   2.797  10.612   5.662
 4330POPC   GL256882   2.882  10.353   5.923
 4330POPC   C1A56883   2.767  10.810   6.079
 4330POPC   D2A56884   2.800  10.574   6.435
 4330POPC   C3A56885   2.701  10.707   6.848
 4330POPC   C4A56886   2.853  10.447   7.171
 4330POPC   C1B56887   3.177  10.218   6.245
 4330POPC   C2B56888   3.331  10.250   6.654
 4330POPC   C3B56889   3.231  10.139   7.058
 4330POPC   C4B56890   3.130  10.145   7.512
 4331POPC   NC356891   9.965   0.224   5.455
 4331POPC   PO456892   9.492   0.659   5.513
 4331POPC   GL156893   9.664   0.406   5.822
 4331POPC   GL256894   9.412   0.173   5.851
 4331POPC   C1A56895   9.883   0.512   6.176
 4331POPC   D2A56896   9.841   0.768   6.511
 4331POPC   C3A56897   9.831   0.535   6.887
 4331POPC   C4A56898   9.608   0.591   7.258
 4331POPC   C1B56899   9.597   0.097   6.264
 4331POPC   C2B56900   9.742   0.002   6.664
 4331POPC   C3B56901   9.703   0.092   7.097
 4331POPC   C4B56902   9.736   0.148   7.528
 4332POPC   NC356903  17.271  27.177   5.082
 4332POPC   PO456904  17.702  27.038   5.596
 4332POPC   GL156905  17.516  26.745   5.882
 4332POPC   GL256906  17.328  27.001   6.065
 4332POPC   C1A56907  17.493  26.529   6.308
 4332POPC   D2A56908  17.178  26.553   6.687
 4332POPC   C3A56909  17.306  26.793   7.035
 4332POPC   C4A56910  17.718  26.669   7.189
 4332POPC   C1B56911  17.706  27.010   6.275
 4332POPC   C2B56912  17.655  26.848   6.658
 4332POPC   C3B56913  17.702  27.112   6.938
 4332POPC   C4B56914  17.546  27.171   7.316
 4333POPC   NC356915   9.275   2.975   5.171
 4333POPC   PO456916   9.054   3.627   5.407
 4333POPC   GL156917   8.917   3.557   5.858
 4333POPC   GL256918   9.200   3.632   5.926
 4333POPC   C1A56919   8.823   3.493   6.330
 4333POPC   D2A56920   8.924   3.716   6.739
 4333POPC   C3A56921   9.119   3.440   7.041
 4333POPC   C4A56922   8.948   3.062   7.247
 4333POPC   C1B56923   9.141   3.869   6.278
 4333POPC   C2B56924   9.369   4.019   6.611
 4333POPC   C3B56925   9.349   3.894   7.039
 4333POPC   C4B56926   9.314   3.913   7.494
 4334POPC   NC356927  11.062   2.342   5.310
 4334POPC   PO456928  11.440   1.772   5.240
 4334POPC   GL156929  11.402   2.122   5.635
 4334POPC   GL256930  11.606   1.928   5.892
 4334POPC   C1A56931  11.238   2.206   6.095
 4334POPC   D2A56932  11.386   2.103   6.529
 4334POPC   C3A56933  11.147   1.947   6.918
 4334POPC   C4A56934  11.247   2.115   7.340
 4334POPC   C1B56935  11.524   1.657   6.269
 4334POPC   C2B56936  11.607   1.675   6.700
 4334POPC   C3B56937  11.656   2.005   6.975
 4334POPC   C4B56938  11.605   1.747   7.301
 4335POPC   NC356939  40.338  20.829   5.123
 4335POPC   PO456940  39.841  20.449   5.456
 4335POPC   GL156941  39.924  20.501   5.910
 4335POPC   GL256942  40.269  20.607   5.962
 4335POPC   C1A56943  39.931  20.822   6.269
 4335POPC   D2A56944  40.020  20.929   6.689
 4335POPC   C3A56945  39.841  20.620   6.973
 4335POPC   C4A56946  39.752  20.547   7.450
 4335POPC   C1B56947  40.438  20.971   6.287
 4335POPC   C2B56948  40.564  21.008   6.714
 4335POPC   C3B56949  40.332  21.042   7.086
 4335POPC   C4B56950  40.193  20.752   7.304
 4336POPC   NC356951  39.777  34.228   5.413
 4336POPC   PO456952  39.983  34.842   5.502
 4336POPC   GL156953  40.053  34.515   5.814
 4336POPC   GL256954  39.870  34.194   5.911
 4336POPC   C1A56955  40.091  34.541   6.241
 4336POPC   D2A56956  39.863  34.484   6.621
 4336POPC   C3A56957  40.091  34.599   6.982
 4336POPC   C4A56958  39.970  34.776   7.350
 4336POPC   C1B56959  40.182  34.047   6.225
 4336POPC   C2B56960  40.283  34.191   6.625
 4336POPC   C3B56961  40.204  34.110   7.041
 4336POPC   C4B56962  40.220  34.340   7.448
 4337POPC   NC356963  19.692  34.818   5.378
 4337POPC   PO456964  20.164  34.339   5.528
 4337POPC   GL156965  19.977  34.693   5.799
 4337POPC   GL256966  19.644  34.800   5.893
 4337POPC   C1A56967  20.131  34.748   6.224
 4337POPC   D2A56968  19.979  34.521   6.600
 4337POPC   C3A56969  20.140  34.548   7.005
 4337POPC   C4A56970  20.180  34.592   7.460
 4337POPC   C1B56971  19.560  34.626   6.300
 4337POPC   C2B56972  19.552  34.789   6.713
 4337POPC   C3B56973  19.591  34.468   6.978
 4337POPC   C4B56974  19.773  34.313   7.331
 4338POPC   NC356975  29.732  25.629   5.436
 4338POPC   PO456976  30.051  26.215   5.416
 4338POPC   GL156977  29.915  26.079   5.802
 4338POPC   GL256978  30.024  25.760   5.835
 4338POPC   C1A56979  29.767  25.980   6.243
 4338POPC   D2A56980  29.583  25.934   6.654
 4338POPC   C3A56981  29.737  26.203   6.996
 4338POPC   C4A56982  29.637  25.934   7.328
 4338POPC   C1B56983  30.226  25.729   6.212
 4338POPC   C2B56984  30.058  25.704   6.626
 4338POPC   C3B56985  30.091  25.831   7.053
 4338POPC   C4B56986  30.464  25.900   7.265
 4339POPC   NC356987  27.646  25.392   5.460
 4339POPC   PO456988  27.986  25.980   5.481
 4339POPC   GL156989  27.931  25.621   5.824
 4339POPC   GL256990  27.545  25.529   5.934
 4339POPC   C1A56991  27.939  25.337   6.218
 4339POPC   D2A56992  27.959  25.063   6.616
 4339POPC   C3A56993  27.837  25.156   7.060
 4339POPC   C4A56994  27.736  24.927   7.449
 4339POPC   C1B56995  27.418  25.238   6.295
 4339POPC   C2B56996  27.430  25.113   6.757
 4339POPC   C3B56997  27.342  25.231   7.203
 4339POPC   C4B56998  27.312  25.143   7.628
 4340POPC   NC356999   0.380   2.318   5.376
 4340POPC   PO457000   0.737   1.686   5.449
 4340POPC   GL157001   0.483   1.676   5.845
 4340POPC   GL257002   0.183   1.897   5.762
 4340POPC   C1A57003   0.356   1.714   6.288
 4340POPC   D2A57004   0.124   2.076   6.503
 4340POPC   C3A57005   0.170   1.981   6.917
 4340POPC   C4A57006   0.569   1.876   7.100
 4340POPC   C1B57007   0.461   2.153   6.085
 4340POPC   C2B57008   0.659   2.097   6.545
 4340POPC   C3B57009   0.616   2.360   6.963
 4340POPC   C4B57010   0.287   2.316   7.294
 4341POPC   NC357011  29.903  10.374   5.531
 4341POPC   PO457012  29.784  10.951   5.287
 4341POPC   GL157013  29.937  10.841   5.775
 4341POPC   GL257014  29.739  10.573   5.967
 4341POPC   C1A57015  30.099  10.758   6.264
 4341POPC   D2A57016  29.937  10.522   6.669
 4341POPC   C3A57017  30.198  10.214   6.889
 4341POPC   C4A57018  30.291  10.161   7.363
 4341POPC   C1B57019  29.652  10.255   6.332
 4341POPC   C2B57020  29.748  10.023   6.742
 4341POPC   C3B57021  29.765  10.288   7.131
 4341POPC   C4B57022  29.637  10.726   7.087
 4342POPC   NC357023  38.252   2.468   5.475
 4342POPC   PO457024  38.554   3.026   5.306
 4342POPC   GL157025  38.595   2.878   5.728
 4342POPC   GL257026  38.827   2.593   5.751
 4342POPC   C1A57027  38.375   2.961   6.133
 4342POPC   D2A57028  38.430   2.797   6.562
 4342POPC   C3A57029  38.545   2.961   6.963
 4342POPC   C4A57030  38.391   2.690   7.294
 4342POPC   C1B57031  38.845   2.761   6.184
 4342POPC   C2B57032  38.945   2.833   6.609
 4342POPC   C3B57033  38.876   2.583   6.972
 4342POPC   C4B57034  38.904   2.520   7.376
 4343POPC   NC357035   9.880  24.759   5.409
 4343POPC   PO457036   9.296  24.339   5.457
 4343POPC   GL157037   9.545  24.569   5.762
 4343POPC   GL257038   9.850  24.401   5.804
 4343POPC   C1A57039   9.777  24.767   6.148
 4343POPC   D2A57040   9.750  24.609   6.578
 4343POPC   C3A57041   9.890  24.778   6.962
 4343POPC   C4A57042   9.984  24.535   7.298
 4343POPC   C1B57043   9.581  24.295   6.182
 4343POPC   C2B57044   9.501  24.171   6.634
 4343POPC   C3B57045   9.764  24.217   6.989
 4343POPC   C4B57046   9.652  24.134   7.422
 4344POPC   NC357047   6.085  39.338   5.478
 4344POPC   PO457048   5.421  39.310   5.552
 4344POPC   GL157049   5.745  39.292   5.899
 4344POPC   GL257050   6.025  39.017   5.896
 4344POPC   C1A57051   5.798  39.283   6.367
 4344POPC   D2A57052   6.144  39.309   6.690
 4344POPC   C3A57053   6.091  39.606   7.026
 4344POPC   C4A57054   5.886  39.565   7.453
 4344POPC   C1B57055   5.625  38.855   6.107
 4344POPC   C2B57056   5.425  38.937   6.505
 4344POPC   C3B57057   5.540  39.091   6.865
 4344POPC   C4B57058   5.867  39.149   7.129
 4345POPC   NC357059   1.020  38.328   5.073
 4345POPC   PO457060   1.390  38.570   5.583
 4345POPC   GL157061   1.442  38.439   5.935
 4345POPC   GL257062   1.112  38.422   6.011
 4345POPC   C1A57063   1.507  38.260   6.308
 4345POPC   D2A57064   1.253  38.420   6.590
 4345POPC   C3A57065   1.435  38.282   6.917
 4345POPC   C4A57066   1.333  38.354   7.284
 4345POPC   C1B57067   0.905  38.780   6.200
 4345POPC   C2B57068   1.018  38.919   6.609
 4345POPC   C3B57069   1.063  38.693   6.985
 4345POPC   C4B57070   0.895  38.593   7.375
 4346POPC   NC357071   6.241  29.238   5.249
 4346POPC   PO457072   5.495  29.143   5.328
 4346POPC   GL157073   5.748  29.198   5.770
 4346POPC   GL257074   5.790  28.845   5.952
 4346POPC   C1A57075   5.881  29.303   6.224
 4346POPC   D2A57076   6.205  29.415   6.565
 4346POPC   C3A57077   6.029  29.379   6.980
 4346POPC   C4A57078   5.847  29.264   7.370
 4346POPC   C1B57079   6.002  28.779   6.314
 4346POPC   C2B57080   6.011  28.948   6.714
 4346POPC   C3B57081   6.164  28.882   7.119
 4346POPC   C4B57082   5.939  28.748   7.454
 4347POPC   NC357083   4.488   8.130   5.484
 4347POPC   PO457084   4.357   8.773   5.418
 4347POPC   GL157085   4.439   8.491   5.857
 4347POPC   GL257086   4.182   8.205   5.892
 4347POPC   C1A57087   4.356   8.406   6.342
 4347POPC   D2A57088   4.165   8.473   6.777
 4347POPC   C3A57089   4.244   8.152   7.110
 4347POPC   C4A57090   4.559   7.809   7.104
 4347POPC   C1B57091   3.939   8.080   6.274
 4347POPC   C2B57092   3.985   7.984   6.693
 4347POPC   C3B57093   3.858   7.835   7.085
 4347POPC   C4B57094   3.944   7.966   7.508
 4348POPC   NC357095  20.895   7.167   5.593
 4348POPC   PO457096  21.450   7.545   5.517
 4348POPC   GL157097  21.437   7.546   5.931
 4348POPC   GL257098  21.110   7.455   5.952
 4348POPC   C1A57099  21.349   7.546   6.402
 4348POPC   D2A57100  21.221   7.758   6.775
 4348POPC   C3A57101  21.426   7.529   7.086
 4348POPC   C4A57102  21.510   7.222   7.379
 4348POPC   C1B57103  21.015   7.174   6.321
 4348POPC   C2B57104  21.133   7.220   6.784
 4348POPC   C3B57105  21.011   7.259   7.238
 4348POPC   C4B57106  21.128   7.184   7.706
 4349POPC   NC357107   6.412  19.405   5.515
 4349POPC   PO457108   6.491  18.747   5.626
 4349POPC   GL157109   6.801  18.890   5.919
 4349POPC   GL257110   6.801  19.252   5.836
 4349POPC   C1A57111   6.749  18.917   6.363
 4349POPC   D2A57112   6.351  18.953   6.578
 4349POPC   C3A57113   6.417  19.104   6.972
 4349POPC   C4A57114   6.816  19.062   7.223
 4349POPC   C1B57115   6.456  19.283   6.154
 4349POPC   C2B57116   6.577  19.442   6.556
 4349POPC   C3B57117   6.761  19.474   6.956
 4349POPC   C4B57118   6.488  19.474   7.341
 4350POPC   NC357119  16.259   6.083   5.475
 4350POPC   PO457120  15.849   6.628   5.249
 4350POPC   GL157121  15.739   6.674   5.727
 4350POPC   GL257122  16.075   6.595   5.873
 4350POPC   C1A57123  15.705   6.752   6.204
 4350POPC   D2A57124  15.525   6.849   6.627
 4350POPC   C3A57125  15.840   6.766   6.948
 4350POPC   C4A57126  16.208   6.922   7.148
 4350POPC   C1B57127  16.079   6.386   6.297
 4350POPC   C2B57128  16.204   6.481   6.728
 4350POPC   C3B57129  16.137   6.408   7.170
 4350POPC   C4B57130  16.046   6.244   7.581
 4351POPC   NC357131   8.581   5.174   5.394
 4351POPC   PO457132   8.004   4.833   5.354
 4351POPC   GL157133   8.158   4.669   5.781
 4351POPC   GL257134   8.522   4.544   5.821
 4351POPC   C1A57135   8.275   4.873   6.168
 4351POPC   D2A57136   8.219   5.114   6.535
 4351POPC   C3A57137   8.009   4.891   6.842
 4351POPC   C4A57138   8.037   5.021   7.250
 4351POPC   C1B57139   8.753   4.707   6.203
 4351POPC   C2B57140   8.729   4.927   6.611
 4351POPC   C3B57141   8.506   5.024   6.988
 4351POPC   C4B57142   8.459   4.743   7.311
 4352POPC   NC357143   8.909  15.672   5.043
 4352POPC   PO457144   8.763  15.148   5.444
 4352POPC   GL157145   8.851  15.293   5.856
 4352POPC   GL257146   9.180  15.408   5.804
 4352POPC   C1A57147   8.840  15.136   6.304
 4352POPC   D2A57148   9.066  15.039   6.693
 4352POPC   C3A57149   8.941  15.245   7.084
 4352POPC   C4A57150   9.101  15.142   7.496
 4352POPC   C1B57151   9.313  15.334   6.259
 4352POPC   C2B57152   9.399  15.445   6.713
 4352POPC   C3B57153   9.368  15.498   7.169
 4352POPC   C4B57154   9.420  15.533   7.610
 4353POPC   NC357155   1.911  36.426   5.451
 4353POPC   PO457156   2.442  35.923   5.460
 4353POPC   GL157157   2.277  36.244   5.801
 4353POPC   GL257158   1.917  36.216   5.923
 4353POPC   C1A57159   2.302  36.340   6.249
 4353POPC   D2A57160   2.084  36.135   6.613
 4353POPC   C3A57161   2.242  36.276   7.007
 4353POPC   C4A57162   2.042  36.281   7.424
 4353POPC   C1B57163   1.800  35.882   6.231
 4353POPC   C2B57164   1.622  35.883   6.658
 4353POPC   C3B57165   1.764  36.033   7.062
 4353POPC   C4B57166   1.793  35.845   7.503
 4354POPC   NC357167  21.339  36.106   5.529
 4354POPC   PO457168  21.907  36.494   5.344
 4354POPC   GL157169  21.660  36.377   5.791
 4354POPC   GL257170  21.316  36.354   5.973
 4354POPC   C1A57171  21.622  36.027   6.171
 4354POPC   D2A57172  21.571  35.888   6.614
 4354POPC   C3A57173  21.545  36.177   6.967
 4354POPC   C4A57174  21.527  36.481   7.307
 4354POPC   C1B57175  21.022  36.229   6.290
 4354POPC   C2B57176  21.068  36.161   6.723
 4354POPC   C3B57177  21.079  36.272   7.151
 4354POPC   C4B57178  21.024  36.005   7.480
 4355POPC   NC357179  12.961  42.482   5.423
 4355POPC   PO457180  12.612  41.969   5.171
 4355POPC   GL157181  12.930  42.044   5.665
 4355POPC   GL257182  12.938  41.848   5.975
 4355POPC   C1A57183  12.933  42.271   6.185
 4355POPC   D2A57184  13.152  42.189   6.608
 4355POPC   C3A57185  12.915  42.343   6.973
 4355POPC   C4A57186  12.718  42.585   7.315
 4355POPC   C1B57187  12.580  41.866   6.266
 4355POPC   C2B57188  12.629  42.082   6.609
 4355POPC   C3B57189  12.589  41.945   7.009
 4355POPC   C4B57190  12.733  42.058   7.416
 4356POPC   NC357191  40.848  18.842   5.135
 4356POPC   PO457192  40.866  18.231   5.262
 4356POPC   GL157193  40.864  18.190   5.714
 4356POPC   GL257194  40.651  18.457   5.778
 4356POPC   C1A57195  40.914  18.126   6.207
 4356POPC   D2A57196  40.822  18.311   6.607
 4356POPC   C3A57197  41.017  18.207   6.992
 4356POPC   C4A57198  41.241  17.885   7.167
 4356POPC   C1B57199  40.477  18.411   6.202
 4356POPC   C2B57200  40.344  18.445   6.623
 4356POPC   C3B57201  40.548  18.447   7.037
 4356POPC   C4B57202  40.883  18.675   7.246
 4357POPC   NC357203  34.350   1.196   5.410
 4357POPC   PO457204  35.067   1.030   5.413
 4357POPC   GL157205  34.792   1.233   5.735
 4357POPC   GL257206  34.519   0.978   5.836
 4357POPC   C1A57207  34.808   1.204   6.186
 4357POPC   D2A57208  34.598   0.894   6.442
 4357POPC   C3A57209  34.475   1.139   6.788
 4357POPC   C4A57210  34.665   1.412   7.082
 4357POPC   C1B57211  34.264   1.251   6.101
 4357POPC   C2B57212  34.128   1.428   6.500
 4357POPC   C3B57213  34.208   1.557   6.908
 4357POPC   C4B57214  34.204   1.341   7.295
 4358POPC   NC357215  17.281   3.433   5.422
 4358POPC   PO457216  17.786   3.732   5.370
 4358POPC   GL157217  17.606   3.675   5.745
 4358POPC   GL257218  17.698   3.362   5.786
 4358POPC   C1A57219  17.443   3.597   6.166
 4358POPC   D2A57220  17.402   3.757   6.584
 4358POPC   C3A57221  17.440   3.471   6.956
 4358POPC   C4A57222  17.448   3.697   7.318
 4358POPC   C1B57223  17.931   3.383   6.175
 4358POPC   C2B57224  17.728   3.342   6.549
 4358POPC   C3B57225  17.867   3.178   6.920
 4358POPC   C4B57226  17.837   3.350   7.297
 4359POPC   NC357227  12.867  41.591   5.339
 4359POPC   PO457228  12.443  42.000   5.662
 4359POPC   GL157229  12.575  41.555   5.830
 4359POPC   GL257230  12.979  41.397   5.787
 4359POPC   C1A57231  12.778  41.397   6.231
 4359POPC   D2A57232  12.974  41.681   6.546
 4359POPC   C3A57233  12.917  41.534   6.955
 4359POPC   C4A57234  13.029  41.630   7.356
 4359POPC   C1B57235  13.277  41.487   6.178
 4359POPC   C2B57236  13.345  41.337   6.655
 4359POPC   C3B57237  13.394  41.314   7.134
 4359POPC   C4B57238  13.311  41.286   7.593
 4360POPC   NC357239  16.010   3.562   5.446
 4360POPC   PO457240  15.536   3.125   5.473
 4360POPC   GL157241  15.721   3.313   5.879
 4360POPC   GL257242  16.064   3.473   5.931
 4360POPC   C1A57243  15.809   3.359   6.353
 4360POPC   D2A57244  16.155   3.422   6.628
 4360POPC   C3A57245  16.046   3.371   7.069
 4360POPC   C4A57246  16.012   3.605   7.464
 4360POPC   C1B57247  15.995   3.816   6.230
 4360POPC   C2B57248  15.817   3.830   6.646
 4360POPC   C3B57249  15.888   3.904   7.081
 4360POPC   C4B57250  15.728   4.014   7.512
 4361POPC   NC357251   4.030  28.540   5.136
 4361POPC   PO457252   4.130  28.097   5.722
 4361POPC   GL157253   4.234  28.429   6.005
 4361POPC   GL257254   4.187  28.193   6.234
 4361POPC   C1A57255   4.104  28.701   6.296
 4361POPC   D2A57256   4.247  28.589   6.675
 4361POPC   C3A57257   3.994  28.678   7.001
 4361POPC   C4A57258   4.183  28.645   7.380
 4361POPC   C1B57259   4.589  28.085   6.354
 4361POPC   C2B57260   4.513  28.017   6.763
 4361POPC   C3B57261   4.277  28.230   7.078
 4361POPC   C4B57262   4.181  28.136   7.510
 4362POPC   NC357263   3.055  25.080   5.329
 4362POPC   PO457264   2.589  25.597   5.371
 4362POPC   GL157265   2.899  25.439   5.689
 4362POPC   GL257266   2.741  25.134   5.777
 4362POPC   C1A57267   3.035  25.330   6.123
 4362POPC   D2A57268   2.840  25.214   6.521
 4362POPC   C3A57269   3.070  25.093   6.880
 4362POPC   C4A57270   3.124  25.278   7.264
 4362POPC   C1B57271   2.857  24.859   6.135
 4362POPC   C2B57272   2.733  24.701   6.539
 4362POPC   C3B57273   2.542  24.909   6.873
 4362POPC   C4B57274   2.687  24.988   7.258
 4363POPC   NC357275   8.530  14.734   5.398
 4363POPC   PO457276   9.013  14.267   5.381
 4363POPC   GL157277   9.057  14.448   5.796
 4363POPC   GL257278   8.839  14.767   5.867
 4363POPC   C1A57279   8.931  14.326   6.196
 4363POPC   D2A57280   8.723  14.144   6.536
 4363POPC   C3A57281   8.873  14.390   6.868
 4363POPC   C4A57282   8.924  14.300   7.292
 4363POPC   C1B57283   9.212  14.788   6.173
 4363POPC   C2B57284   9.269  14.576   6.558
 4363POPC   C3B57285   9.347  14.537   7.010
 4363POPC   C4B57286   9.247  14.678   7.432
 4364POPC   NC357287   0.190  38.309   5.631
 4364POPC   PO457288   0.744  38.564   5.370
 4364POPC   GL157289   0.664  38.455   5.774
 4364POPC   GL257290   0.528  38.767   5.846
 4364POPC   C1A57291   0.625  38.337   6.207
 4364POPC   D2A57292   0.730  38.491   6.618
 4364POPC   C3A57293   0.407  38.407   6.910
 4364POPC   C4A57294   0.421  38.396   7.315
 4364POPC   C1B57295   0.375  38.907   6.256
 4364POPC   C2B57296   0.310  38.834   6.683
 4364POPC   C3B57297   0.578  38.861   7.066
 4364POPC   C4B57298   0.493  38.846   7.543
 4365POPC   NC357299   6.365  41.159   5.448
 4365POPC   PO457300   5.848  40.727   5.298
 4365POPC   GL157301   6.013  40.845   5.709
 4365POPC   GL257302   5.948  41.182   5.768
 4365POPC   C1A57303   6.011  40.642   6.120
 4365POPC   D2A57304   5.757  40.573   6.490
 4365POPC   C3A57305   5.967  40.684   6.868
 4365POPC   C4A57306   5.923  40.573   7.265
 4365POPC   C1B57307   6.094  41.151   6.163
 4365POPC   C2B57308   5.883  41.078   6.513
 4365POPC   C3B57309   6.037  41.203   6.867
 4365POPC   C4B57310   6.195  41.040   7.188
 4366POPC   NC357311  36.803  24.711   5.448
 4366POPC   PO457312  37.090  24.095   5.310
 4366POPC   GL157313  37.123  24.247   5.799
 4366POPC   GL257314  36.825  24.436   5.908
 4366POPC   C1A57315  37.152  24.289   6.293
 4366POPC   D2A57316  36.796  24.519   6.564
 4366POPC   C3A57317  36.702  24.400   6.986
 4366POPC   C4A57318  37.089  24.214   7.069
 4366POPC   C1B57319  37.038  24.769   6.180
 4366POPC   C2B57320  37.243  24.776   6.598
 4366POPC   C3B57321  37.097  24.766   6.994
 4366POPC   C4B57322  36.859  24.778   7.337
 4367POPC   NC357323  21.104   9.979   5.495
 4367POPC   PO457324  20.684   9.458   5.332
 4367POPC   GL157325  20.555   9.566   5.752
 4367POPC   GL257326  20.716   9.882   5.792
 4367POPC   C1A57327  20.366   9.762   6.136
 4367POPC   D2A57328  20.389   9.962   6.547
 4367POPC   C3A57329  20.349   9.623   6.832
 4367POPC   C4A57330  20.570   9.566   7.184
 4367POPC   C1B57331  20.896   9.648   6.123
 4367POPC   C2B57332  20.751   9.531   6.503
 4367POPC   C3B57333  20.864   9.769   6.832
 4367POPC   C4B57334  21.030   9.797   7.223
 4368POPC   NC357335  35.652  31.594   5.535
 4368POPC   PO457336  34.984  31.259   5.445
 4368POPC   GL157337  35.315  31.268   5.738
 4368POPC   GL257338  35.151  31.462   5.900
 4368POPC   C1A57339  35.583  31.336   6.140
 4368POPC   D2A57340  35.588  31.642   6.477
 4368POPC   C3A57341  35.724  31.574   6.899
 4368POPC   C4A57342  35.494  31.401   7.219
 4368POPC   C1B57343  34.942  31.200   6.187
 4368POPC   C2B57344  34.893  31.154   6.619
 4368POPC   C3B57345  35.041  31.288   7.019
 4368POPC   C4B57346  35.063  31.097   7.424
 4369POPC   NC357347   2.691  27.298   5.559
 4369POPC   PO457348   2.669  27.939   5.359
 4369POPC   GL157349   2.828  27.741   5.768
 4369POPC   GL257350   3.154  27.544   5.751
 4369POPC   C1A57351   2.841  27.484   6.178
 4369POPC   D2A57352   2.631  27.583   6.568
 4369POPC   C3A57353   2.841  27.440   6.918
 4369POPC   C4A57354   2.592  27.442   7.259
 4369POPC   C1B57355   3.192  27.856   6.100
 4369POPC   C2B57356   3.139  27.699   6.559
 4369POPC   C3B57357   3.132  27.842   7.001
 4369POPC   C4B57358   2.991  27.709   7.421
 4370POPC   NC357359   4.786  21.531   5.251
 4370POPC   PO457360   5.282  21.918   5.112
 4370POPC   GL157361   5.199  21.560   5.540
 4370POPC   GL257362   4.958  21.297   5.666
 4370POPC   C1A57363   5.268  21.513   6.029
 4370POPC   D2A57364   5.557  21.376   6.404
 4370POPC   C3A57365   5.449  21.499   6.847
 4370POPC   C4A57366   5.162  21.321   7.132
 4370POPC   C1B57367   4.850  21.128   6.097
 4370POPC   C2B57368   4.695  21.147   6.534
 4370POPC   C3B57369   4.689  21.268   6.975
 4370POPC   C4B57370   4.796  21.134   7.432
 4371POPC   NC357371  32.813  42.130   5.345
 4371POPC   PO457372  33.111  42.762   5.357
 4371POPC   GL157373  32.873  42.594   5.736
 4371POPC   GL257374  32.964  42.244   5.821
 4371POPC   C1A57375  33.029  42.583   6.200
 4371POPC   D2A57376  33.027  42.377   6.610
 4371POPC   C3A57377  33.192  42.556   7.017
 4371POPC   C4A57378  33.116  42.356   7.436
 4371POPC   C1B57379  33.056  42.004   6.213
 4371POPC   C2B57380  33.192  41.824   6.617
 4371POPC   C3B57381  33.077  42.039   6.994
 4371POPC   C4B57382  32.725  42.304   7.048
 4372POPC   NC357383  34.698  37.331   5.354
 4372POPC   PO457384  34.293  37.858   5.355
 4372POPC   GL157385  34.505  37.692   5.736
 4372POPC   GL257386  34.854  37.715   5.683
 4372POPC   C1A57387  34.462  37.547   6.182
 4372POPC   D2A57388  34.377  37.749   6.594
 4372POPC   C3A57389  34.322  37.539   6.941
 4372POPC   C4A57390  34.428  37.685   7.354
 4372POPC   C1B57391  34.947  37.684   6.114
 4372POPC   C2B57392  34.868  37.625   6.555
 4372POPC   C3B57393  34.838  37.517   7.001
 4372POPC   C4B57394  35.019  37.331   7.361
 4373POPC   NC357395  34.475  38.251   5.563
 4373POPC   PO457396  34.866  38.838   5.644
 4373POPC   GL157397  34.689  38.534   5.931
 4373POPC   GL257398  34.767  38.156   5.969
 4373POPC   C1A57399  34.483  38.583   6.306
 4373POPC   D2A57400  34.284  38.773   6.631
 4373POPC   C3A57401  34.505  38.716   6.986
 4373POPC   C4A57402  34.880  38.597   7.143
 4373POPC   C1B57403  34.676  38.111   6.381
 4373POPC   C2B57404  34.649  38.264   6.783
 4373POPC   C3B57405  34.675  38.098   7.173
 4373POPC   C4B57406  34.904  37.824   7.436
 4374POPC   NC357407  20.055   7.109   5.458
 4374POPC   PO457408  20.053   6.444   5.318
 4374POPC   GL157409  19.810   6.605   5.683
 4374POPC   GL257410  19.976   6.834   5.852
 4374POPC   C1A57411  19.726   6.497   6.136
 4374POPC   D2A57412  19.899   6.419   6.538
 4374POPC   C3A57413  19.729   6.690   6.824
 4374POPC   C4A57414  19.780   6.538   7.216
 4374POPC   C1B57415  19.901   6.970   6.226
 4374POPC   C2B57416  20.168   6.870   6.513
 4374POPC   C3B57417  20.204   6.820   6.914
 4374POPC   C4B57418  19.969   7.060   7.181
 4375POPC   NC357419   9.921  14.852   5.438
 4375POPC   PO457420  10.526  15.233   5.392
 4375POPC   GL157421  10.419  15.244   5.815
 4375POPC   GL257422  10.285  14.953   5.783
 4375POPC   C1A57423  10.534  15.043   6.255
 4375POPC   D2A57424  10.745  14.908   6.655
 4375POPC   C3A57425  10.638  15.097   7.031
 4375POPC   C4A57426  10.402  15.396   7.235
 4375POPC   C1B57427  10.137  14.777   6.119
 4375POPC   C2B57428  10.100  14.884   6.533
 4375POPC   C3B57429  10.145  15.054   6.900
 4375POPC   C4B57430  10.232  14.896   7.302
 4376POPC   NC357431  12.396  14.572   5.467
 4376POPC   PO457432  11.859  14.181   5.458
 4376POPC   GL157433  12.040  14.309   5.804
 4376POPC   GL257434  12.349  14.187   5.868
 4376POPC   C1A57435  11.913  14.331   6.204
 4376POPC   D2A57436  12.037  14.509   6.582
 4376POPC   C3A57437  11.854  14.565   6.966
 4376POPC   C4A57438  12.010  14.375   7.371
 4376POPC   C1B57439  12.371  14.565   6.170
 4376POPC   C2B57440  12.467  14.750   6.617
 4376POPC   C3B57441  12.338  14.649   7.080
 4376POPC   C4B57442  12.363  14.705   7.582
 4377POPC   NC357443   0.501  24.895   5.584
 4377POPC   PO457444   0.342  24.325   5.241
 4377POPC   GL157445   0.395  24.224   5.738
 4377POPC   GL257446   0.392  24.507   5.887
 4377POPC   C1A57447   0.565  24.223   6.244
 4377POPC   D2A57448   0.439  24.403   6.666
 4377POPC   C3A57449   0.632  24.222   7.059
 4377POPC   C4A57450   0.446  24.178   7.483
 4377POPC   C1B57451   0.387  24.736   6.275
 4377POPC   C2B57452  44.979  24.798   6.453
 4377POPC   C3B57453   0.060  24.798   6.885
 4377POPC   C4B57454   0.277  24.610   7.223
 4378POPC   NC357455  16.387   5.092   5.498
 4378POPC   PO457456  17.072   5.359   5.532
 4378POPC   GL157457  16.803   5.081   5.778
 4378POPC   GL257458  16.576   5.318   5.911
 4378POPC   C1A57459  16.652   4.891   6.181
 4378POPC   D2A57460  16.992   4.821   6.500
 4378POPC   C3A57461  16.944   4.918   6.943
 4378POPC   C4A57462  16.914   4.825   7.361
 4378POPC   C1B57463  16.991   5.288   6.204
 4378POPC   C2B57464  16.909   5.341   6.621
 4378POPC   C3B57465  16.547   5.217   6.823
 4378POPC   C4B57466  16.566   5.191   7.239
 4379POPC   NC357467  26.096  22.363   5.303
 4379POPC   PO457468  25.803  21.790   5.426
 4379POPC   GL157469  26.052  22.045   5.750
 4379POPC   GL257470  26.316  22.311   5.799
 4379POPC   C1A57471  26.170  21.985   6.191
 4379POPC   D2A57472  26.040  22.254   6.566
 4379POPC   C3A57473  26.039  22.096   6.980
 4379POPC   C4A57474  26.339  21.797   7.102
 4379POPC   C1B57475  26.431  22.408   6.257
 4379POPC   C2B57476  26.536  22.162   6.678
 4379POPC   C3B57477  26.493  22.294   7.113
 4379POPC   C4B57478  26.132  22.533   7.303
 4380POPC   NC357479  40.465   1.707   5.444
 4380POPC   PO457480  41.006   2.122   5.370
 4380POPC   GL157481  40.797   2.013   5.756
 4380POPC   GL257482  40.863   1.671   5.858
 4380POPC   C1A57483  40.652   2.023   6.196
 4380POPC   D2A57484  40.732   2.360   6.487
 4380POPC   C3A57485  40.693   2.217   6.896
 4380POPC   C4A57486  40.958   1.965   7.157
 4380POPC   C1B57487  40.586   1.487   6.185
 4380POPC   C2B57488  40.342   1.590   6.558
 4380POPC   C3B57489  40.590   1.699   6.921
 4380POPC   C4B57490  40.490   1.804   7.360
 4381POPC   NC357491  33.746  32.290   5.488
 4381POPC   PO457492  34.369  32.072   5.662
 4381POPC   GL157493  34.030  32.204   5.920
 4381POPC   GL257494  33.776  31.941   5.878
 4381POPC   C1A57495  33.787  32.186   6.318
 4381POPC   D2A57496  33.416  32.221   6.603
 4381POPC   C3A57497  33.487  32.216   7.047
 4381POPC   C4A57498  33.842  32.449   7.201
 4381POPC   C1B57499  34.056  31.728   6.171
 4381POPC   C2B57500  34.157  31.890   6.565
 4381POPC   C3B57501  33.963  32.028   6.924
 4381POPC   C4B57502  34.001  31.956   7.359
 4382POPC   NC357503  23.472  43.321   5.434
 4382POPC   PO457504  23.961  42.815   5.209
 4382POPC   GL157505  23.820  43.011   5.666
 4382POPC   GL257506  23.947  43.330   5.763
 4382POPC   C1A57507  23.631  43.131   6.142
 4382POPC   D2A57508  23.462  43.286   6.617
 4382POPC   C3A57509  23.577  43.211   7.103
 4382POPC   C4A57510  23.844  43.241   7.518
 4382POPC   C1B57511  23.992  43.483   6.207
 4382POPC   C2B57512  23.965  43.414   6.691
 4382POPC   C3B57513  24.120  43.149   7.080
 4382POPC   C4B57514  24.357  43.045   7.476
 4383POPC   NC357515  38.585   4.237   5.131
 4383POPC   PO457516  39.287   4.112   5.286
 4383POPC   GL157517  39.248   4.216   5.725
 4383POPC   GL257518  39.066   4.520   5.764
 4383POPC   C1A57519  39.265   4.092   6.187
 4383POPC   D2A57520  39.183   4.205   6.572
 4383POPC   C3A57521  38.948   4.025   6.872
 4383POPC   C4A57522  39.107   4.247   7.214
 4383POPC   C1B57523  39.318   4.575   6.085
 4383POPC   C2B57524  39.253   4.685   6.469
 4383POPC   C3B57525  39.322   4.615   6.887
 4383POPC   C4B57526  39.137   4.742   7.232
 4384POPC   NC357527  37.974  24.924   5.538
 4384POPC   PO457528  37.282  24.716   5.572
 4384POPC   GL157529  37.583  24.510   5.856
 4384POPC   GL257530  37.939  24.426   6.007
 4384POPC   C1A57531  37.565  24.630   6.254
 4384POPC   D2A57532  37.779  24.554   6.612
 4384POPC   C3A57533  37.520  24.466   6.943
 4384POPC   C4A57534  37.350  24.536   7.365
 4384POPC   C1B57535  38.052  24.815   6.185
 4384POPC   C2B57536  38.196  24.861   6.573
 4384POPC   C3B57537  38.053  24.817   6.983
 4384POPC   C4B57538  37.833  24.638   7.301
 4385POPC   NC357539  18.485  36.038   5.417
 4385POPC   PO457540  17.822  35.930   5.341
 4385POPC   GL157541  18.077  35.902   5.802
 4385POPC   GL257542  18.460  35.863   5.909
 4385POPC   C1A57543  18.140  35.952   6.319
 4385POPC   D2A57544  18.401  35.878   6.711
 4385POPC   C3A57545  18.230  35.946   7.123
 4385POPC   C4A57546  17.917  36.167   7.369
 4385POPC   C1B57547  18.508  36.278   6.163
 4385POPC   C2B57548  18.583  36.498   6.606
 4385POPC   C3B57549  18.646  36.256   6.972
 4385POPC   C4B57550  18.732  35.832   7.137
 4386POPC   NC357551  28.181  28.257   5.456
 4386POPC   PO457552  28.758  28.540   5.235
 4386POPC   GL157553  28.682  28.403   5.664
 4386POPC   GL257554  28.453  28.649   5.754
 4386POPC   C1A57555  28.727  28.423   6.148
 4386POPC   D2A57556  28.482  28.378   6.539
 4386POPC   C3A57557  28.604  28.229   6.934
 4386POPC   C4A57558  28.726  28.552   7.188
 4386POPC   C1B57559  28.204  28.538   6.139
 4386POPC   C2B57560  27.987  28.556   6.554
 4386POPC   C3B57561  28.137  28.504   6.978
 4386POPC   C4B57562  27.868  28.265   7.250
 4387POPC   NC357563   6.766  12.629   5.310
 4387POPC   PO457564   6.161  12.865   5.352
 4387POPC   GL157565   6.517  12.974   5.667
 4387POPC   GL257566   6.596  12.665   5.817
 4387POPC   C1A57567   6.853  13.099   6.013
 4387POPC   D2A57568   6.948  13.119   6.490
 4387POPC   C3A57569   6.645  13.133   6.871
 4387POPC   C4A57570   6.440  13.163   7.315
 4387POPC   C1B57571   6.445  12.865   6.206
 4387POPC   C2B57572   6.483  12.698   6.626
 4387POPC   C3B57573   6.351  12.732   7.055
 4387POPC   C4B57574   6.643  12.697   7.389
 4388POPC   NC357575   8.601   3.487   5.472
 4388POPC   PO457576   7.956   3.260   5.429
 4388POPC   GL157577   8.078   3.550   5.840
 4388POPC   GL257578   8.410   3.652   5.897
 4388POPC   C1A57579   7.958   3.407   6.292
 4388POPC   D2A57580   7.822   3.569   6.676
 4388POPC   C3A57581   8.000   3.409   7.016
 4388POPC   C4A57582   8.218   3.530   7.375
 4388POPC   C1B57583   8.361   3.702   6.293
 4388POPC   C2B57584   8.390   3.576   6.705
 4388POPC   C3B57585   8.607   3.412   7.060
 4388POPC   C4B57586   8.672   3.385   7.529
 4389POPC   NC357587  27.062  19.199   5.281
 4389POPC   PO457588  27.070  18.702   5.688
 4389POPC   GL157589  26.991  19.132   5.803
 4389POPC   GL257590  26.711  19.297   5.647
 4389POPC   C1A57591  26.874  19.203   6.227
 4389POPC   D2A57592  26.767  18.900   6.531
 4389POPC   C3A57593  27.054  18.946   6.831
 4389POPC   C4A57594  26.987  18.928   7.214
 4389POPC   C1B57595  26.437  19.367   6.022
 4389POPC   C2B57596  26.394  19.286   6.501
 4389POPC   C3B57597  26.611  19.224   6.918
 4389POPC   C4B57598  26.689  19.297   7.352
 4390POPC   NC357599  35.241  26.584   5.419
 4390POPC   PO457600  35.166  25.951   5.371
 4390POPC   GL157601  35.107  26.157   5.780
 4390POPC   GL257602  35.451  26.307   5.791
 4390POPC   C1A57603  35.237  26.029   6.214
 4390POPC   D2A57604  35.552  25.860   6.500
 4390POPC   C3A57605  35.423  25.959   6.922
 4390POPC   C4A57606  35.327  25.812   7.343
 4390POPC   C1B57607  35.416  26.525   6.159
 4390POPC   C2B57608  35.398  26.383   6.567
 4390POPC   C3B57609  35.267  26.496   6.945
 4390POPC   C4B57610  35.347  26.329   7.307
 4391POPC   NC357611  43.159  34.538   5.388
 4391POPC   PO457612  42.861  35.026   5.377
 4391POPC   GL157613  42.806  34.845   5.769
 4391POPC   GL257614  42.708  34.501   5.668
 4391POPC   C1A57615  42.845  34.805   6.225
 4391POPC   D2A57616  43.134  34.894   6.531
 4391POPC   C3A57617  43.145  34.737   6.947
 4391POPC   C4A57618  43.364  34.728   7.329
 4391POPC   C1B57619  42.871  34.321   6.070
 4391POPC   C2B57620  42.978  34.360   6.541
 4391POPC   C3B57621  43.236  34.216   6.917
 4391POPC   C4B57622  43.121  34.186   7.343
 4392POPC   NC357623   9.676  14.085   5.109
 4392POPC   PO457624   9.562  14.567   5.597
 4392POPC   GL157625   9.734  14.537   5.936
 4392POPC   GL257626   9.777  14.177   5.930
 4392POPC   C1A57627   9.771  14.513   6.359
 4392POPC   D2A57628   9.998  14.347   6.648
 4392POPC   C3A57629   9.870  14.616   6.952
 4392POPC   C4A57630   9.780  14.645   7.343
 4392POPC   C1B57631   9.428  14.168   6.246
 4392POPC   C2B57632   9.532  14.169   6.692
 4392POPC   C3B57633   9.701  14.150   7.082
 4392POPC   C4B57634   9.438  14.224   7.415
 4393POPC   NC357635  21.924  41.573   5.106
 4393POPC   PO457636  21.243  41.594   5.288
 4393POPC   GL157637  21.341  41.583   5.732
 4393POPC   GL257638  21.105  41.318   5.809
 4393POPC   C1A57639  21.486  41.631   6.182
 4393POPC   D2A57640  21.380  41.707   6.617
 4393POPC   C3A57641  21.526  41.535   7.015
 4393POPC   C4A57642  21.488  41.721   7.441
 4393POPC   C1B57643  21.191  41.199   6.213
 4393POPC   C2B57644  21.390  41.186   6.585
 4393POPC   C3B57645  21.155  41.142   6.956
 4393POPC   C4B57646  21.236  41.283   7.368
 4394POPC   NC357647  24.222  31.225   5.380
 4394POPC   PO457648  24.443  31.861   5.344
 4394POPC   GL157649  24.264  31.601   5.718
 4394POPC   GL257650  24.545  31.298   5.828
 4394POPC   C1A57651  24.180  31.457   6.152
 4394POPC   D2A57652  24.513  31.385   6.461
 4394POPC   C3A57653  24.514  31.539   6.888
 4394POPC   C4A57654  24.292  31.531   7.312
 4394POPC   C1B57655  24.760  31.019   6.209
 4394POPC   C2B57656  24.823  31.063   6.721
 4394POPC   C3B57657  24.588  31.104   7.163
 4394POPC   C4B57658  24.362  31.101   7.596
 4395POPC   NC357659  32.799   4.058   5.343
 4395POPC   PO457660  33.278   4.552   5.411
 4395POPC   GL157661  33.058   4.283   5.797
 4395POPC   GL257662  32.728   4.119   5.885
 4395POPC   C1A57663  32.991   4.291   6.293
 4395POPC   D2A57664  33.074   4.497   6.727
 4395POPC   C3A57665  33.215   4.346   7.157
 4395POPC   C4A57666  33.076   4.232   7.602
 4395POPC   C1B57667  32.501   4.095   6.289
 4395POPC   C2B57668  32.684   4.153   6.733
 4395POPC   C3B57669  32.765   4.124   7.194
 4395POPC   C4B57670  32.751   3.830   7.547
 4396POPC   NC357671  37.419  31.447   5.420
 4396POPC   PO457672  38.099  31.167   5.383
 4396POPC   GL157673  37.952  31.347   5.806
 4396POPC   GL257674  37.628  31.539   5.865
 4396POPC   C1A57675  37.793  31.249   6.250
 4396POPC   D2A57676  37.606  31.457   6.624
 4396POPC   C3A57677  37.754  31.378   7.029
 4396POPC   C4A57678  37.450  31.230   7.299
 4396POPC   C1B57679  37.691  31.767   6.233
 4396POPC   C2B57680  37.465  31.961   6.552
 4396POPC   C3B57681  37.582  31.875   6.979
 4396POPC   C4B57682  37.593  31.732   7.401
 4397POPC   NC357683  23.069  32.489   5.482
 4397POPC   PO457684  22.600  32.004   5.399
 4397POPC   GL157685  22.807  32.204   5.790
 4397POPC   GL257686  23.208  32.098   5.807
 4397POPC   C1A57687  22.947  32.334   6.213
 4397POPC   D2A57688  23.044  32.645   6.528
 4397POPC   C3A57689  23.089  32.483   6.955
 4397POPC   C4A57690  23.004  32.707   7.338
 4397POPC   C1B57691  23.450  32.201   6.194
 4397POPC   C2B57692  23.336  32.138   6.631
 4397POPC   C3B57693  23.367  32.006   7.072
 4397POPC   C4B57694  23.181  32.211   7.428
 4398POPC   NC357695  34.678  41.943   5.481
 4398POPC   PO457696  34.289  41.362   5.354
 4398POPC   GL157697  34.574  41.485   5.688
 4398POPC   GL257698  34.385  41.732   5.844
 4398POPC   C1A57699  34.640  41.396   6.143
 4398POPC   D2A57700  34.477  41.499   6.569
 4398POPC   C3A57701  34.781  41.541   6.927
 4398POPC   C4A57702  34.804  41.253   7.304
 4398POPC   C1B57703  34.615  41.907   6.211
 4398POPC   C2B57704  34.452  42.025   6.613
 4398POPC   C3B57705  34.326  41.787   6.999
 4398POPC   C4B57706  34.329  41.886   7.427
 4399POPC   NC357707  12.963  22.999   5.436
 4399POPC   PO457708  12.299  22.799   5.441
 4399POPC   GL157709  12.603  22.807   5.799
 4399POPC   GL257710  12.900  22.613   5.782
 4399POPC   C1A57711  12.570  22.861   6.247
 4399POPC   D2A57712  12.712  23.110   6.585
 4399POPC   C3A57713  12.699  23.004   6.982
 4399POPC   C4A57714  12.418  22.877   7.267
 4399POPC   C1B57715  13.064  22.760   6.182
 4399POPC   C2B57716  13.118  22.779   6.624
 4399POPC   C3B57717  13.217  22.995   6.987
 4399POPC   C4B57718  13.099  23.254   7.260
 4400POPC   NC357719  20.872  37.069   5.196
 4400POPC   PO457720  20.846  37.656   5.339
 4400POPC   GL157721  20.722  37.562   5.776
 4400POPC   GL257722  20.499  37.294   5.749
 4400POPC   C1A57723  20.750  37.660   6.232
 4400POPC   D2A57724  20.904  37.510   6.630
 4400POPC   C3A57725  20.661  37.612   6.967
 4400POPC   C4A57726  20.738  37.740   7.378
 4400POPC   C1B57727  20.316  37.339   6.168
 4400POPC   C2B57728  20.332  37.527   6.571
 4400POPC   C3B57729  20.291  37.264   6.939
 4400POPC   C4B57730  20.465  37.301   7.343
 4401POPC   NC357731  40.304  18.196   5.474
 4401POPC   PO457732  39.693  18.581   5.363
 4401POPC   GL157733  39.896  18.384   5.744
 4401POPC   GL257734  39.759  18.043   5.775
 4401POPC   C1A57735  39.986  18.556   6.183
 4401POPC   D2A57736  39.840  18.389   6.581
 4401POPC   C3A57737  39.997  18.569   6.962
 4401POPC   C4A57738  40.122  18.360   7.336
 4401POPC   C1B57739  39.959  18.044   6.193
 4401POPC   C2B57740  40.336  17.960   6.480
 4401POPC   C3B57741  40.281  18.006   6.933
 4401POPC   C4B57742  40.515  18.017   7.325
 4402POPC   NC357743  44.330  31.070   5.352
 4402POPC   PO457744  44.765  30.462   5.386
 4402POPC   GL157745  44.604  30.482   5.805
 4402POPC   GL257746  44.470  30.802   5.781
 4402POPC   C1A57747  44.531  30.268   6.191
 4402POPC   D2A57748  44.741  30.385   6.568
 4402POPC   C3A57749  44.547  30.507   6.946
 4402POPC   C4A57750  44.777  30.663   7.274
 4402POPC   C1B57751  44.647  30.783   6.218
 4402POPC   C2B57752  44.564  31.002   6.597
 4402POPC   C3B57753  44.629  31.085   7.025
 4402POPC   C4B57754  44.300  30.866   7.253
 4403POPC   NC357755   2.357  29.139   5.029
 4403POPC   PO457756   2.839  29.429   5.455
 4403POPC   GL157757   2.953  29.230   5.790
 4403POPC   GL257758   3.212  29.483   5.812
 4403POPC   C1A57759   2.753  29.095   6.171
 4403POPC   D2A57760   2.552  29.243   6.540
 4403POPC   C3A57761   2.662  29.058   6.934
 4403POPC   C4A57762   2.409  28.987   7.300
 4403POPC   C1B57763   3.244  29.293   6.200
 4403POPC   C2B57764   3.067  29.242   6.580
 4403POPC   C3B57765   3.183  29.337   6.965
 4403POPC   C4B57766   3.037  29.099   7.274
 4404POPC   NC357767   8.729  32.824   5.622
 4404POPC   PO457768   8.672  32.289   5.248
 4404POPC   GL157769   8.935  32.391   5.697
 4404POPC   GL257770   9.245  32.298   5.860
 4404POPC   C1A57771   8.882  32.458   6.183
 4404POPC   D2A57772   9.011  32.269   6.588
 4404POPC   C3A57773   8.727  32.246   6.947
 4404POPC   C4A57774   8.789  32.435   7.380
 4404POPC   C1B57775   9.255  32.018   6.190
 4404POPC   C2B57776   9.496  31.947   6.543
 4404POPC   C3B57777   9.309  31.988   6.929
 4404POPC   C4B57778   9.055  32.014   7.270
 4405POPC   NC357779  17.254  43.642   5.257
 4405POPC   PO457780  17.844  43.945   5.117
 4405POPC   GL157781  17.871  43.920   5.626
 4405POPC   GL257782  17.915  43.578   5.667
 4405POPC   C1A57783  17.873  44.094   6.116
 4405POPC   D2A57784  17.622  44.211   6.525
 4405POPC   C3A57785  17.749  44.001   6.918
 4405POPC   C4A57786  17.385  43.793   7.101
 4405POPC   C1B57787  17.636  43.628   6.037
 4405POPC   C2B57788  17.686  43.663   6.511
 4405POPC   C3B57789  17.754  43.464   6.928
 4405POPC   C4B57790  17.664  43.478   7.398
 4406POPC   NC357791   6.825  43.923   5.501
 4406POPC   PO457792   6.261  44.288   5.603
 4406POPC   GL157793   6.487  44.057   5.873
 4406POPC   GL257794   6.428  43.688   5.826
 4406POPC   C1A57795   6.632  43.910   6.262
 4406POPC   D2A57796   6.625  44.044   6.682
 4406POPC   C3A57797   6.756  43.658   6.874
 4406POPC   C4A57798   7.079  43.581   7.162
 4406POPC   C1B57799   6.391  43.448   6.223
 4406POPC   C2B57800   6.291  43.653   6.622
 4406POPC   C3B57801   6.270  43.847   7.014
 4406POPC   C4B57802   6.346  43.775   7.453
 4407POPC   NC357803  34.026  27.725   5.576
 4407POPC   PO457804  33.631  27.124   5.534
 4407POPC   GL157805  33.872  27.308   5.849
 4407POPC   GL257806  33.600  27.565   5.856
 4407POPC   C1A57807  33.867  27.416   6.300
 4407POPC   D2A57808  33.598  27.591   6.637
 4407POPC   C3A57809  33.705  27.474   7.064
 4407POPC   C4A57810  33.743  27.456   7.519
 4407POPC   C1B57811  33.702  27.906   6.134
 4407POPC   C2B57812  33.964  27.914   6.464
 4407POPC   C3B57813  33.884  27.955   6.901
 4407POPC   C4B57814  33.657  27.923   7.297
 4408POPC   NC357815  14.540   3.702   5.550
 4408POPC   PO457816  14.324   4.248   5.161
 4408POPC   GL157817  14.415   4.278   5.675
 4408POPC   GL257818  14.717   4.160   5.842
 4408POPC   C1A57819  14.343   4.203   6.176
 4408POPC   D2A57820  14.586   4.237   6.596
 4408POPC   C3A57821  14.289   4.170   6.956
 4408POPC   C4A57822  14.387   3.967   7.336
 4408POPC   C1B57823  14.760   4.536   6.179
 4408POPC   C2B57824  14.698   4.759   6.612
 4408POPC   C3B57825  14.544   4.612   7.002
 4408POPC   C4B57826  14.746   4.289   7.218
 4409POPC   NC357827   6.914  35.576   5.359
 4409POPC   PO457828   6.337  35.158   5.406
 4409POPC   GL157829   6.443  35.344   5.811
 4409POPC   GL257830   6.825  35.394   5.828
 4409POPC   C1A57831   6.506  35.524   6.230
 4409POPC   D2A57832   6.280  35.578   6.599
 4409POPC   C3A57833   6.518  35.535   6.974
 4409POPC   C4A57834   6.470  35.294   7.326
 4409POPC   C1B57835   6.931  35.220   6.213
 4409POPC   C2B57836   6.859  35.335   6.644
 4409POPC   C3B57837   6.826  35.092   7.027
 4409POPC   C4B57838   6.757  34.847   7.390
 4410POPC   NC357839  28.079  27.453   5.476
 4410POPC   PO457840  27.746  28.075   5.407
 4410POPC   GL157841  27.986  27.915   5.787
 4410POPC   GL257842  27.815  27.627   5.879
 4410POPC   C1A57843  28.090  27.835   6.255
 4410POPC   D2A57844  28.083  27.664   6.710
 4410POPC   C3A57845  27.816  27.795   7.093
 4410POPC   C4A57846  27.601  27.718   7.505
 4410POPC   C1B57847  27.587  27.711   6.274
 4410POPC   C2B57848  27.554  27.588   6.722
 4410POPC   C3B57849  27.573  27.343   7.143
 4410POPC   C4B57850  27.275  27.307   7.502
 4411POPC   NC357851   4.508   6.522   5.380
 4411POPC   PO457852   3.950   6.958   5.407
 4411POPC   GL157853   4.279   6.832   5.752
 4411POPC   GL257854   4.402   6.494   5.863
 4411POPC   C1A57855   4.269   6.905   6.201
 4411POPC   D2A57856   4.393   6.703   6.580
 4411POPC   C3A57857   4.213   6.797   7.002
 4411POPC   C4A57858   4.542   6.634   7.293
 4411POPC   C1B57859   4.183   6.371   6.176
 4411POPC   C2B57860   4.245   6.209   6.542
 4411POPC   C3B57861   4.312   6.310   6.917
 4411POPC   C4B57862   4.118   6.307   7.278
 4412POPC   NC357863   3.644  38.914   5.426
 4412POPC   PO457864   3.308  38.240   5.410
 4412POPC   GL157865   3.506  38.389   5.775
 4412POPC   GL257866   3.816  38.590   5.798
 4412POPC   C1A57867   3.611  38.352   6.195
 4412POPC   D2A57868   3.473  38.549   6.525
 4412POPC   C3A57869   3.606  38.348   6.845
 4412POPC   C4A57870   3.487  38.483   7.211
 4412POPC   C1B57871   3.814  38.812   6.244
 4412POPC   C2B57872   3.976  38.683   6.634
 4412POPC   C3B57873   3.988  38.606   7.062
 4412POPC   C4B57874   3.835  38.735   7.486
 4413POPC   NC357875  12.637  29.451   5.482
 4413POPC   PO457876  13.246  29.181   5.465
 4413POPC   GL157877  13.037  29.181   5.862
 4413POPC   GL257878  12.944  28.839   5.878
 4413POPC   C1A57879  12.756  29.219   6.250
 4413POPC   D2A57880  12.521  29.190   6.672
 4413POPC   C3A57881  12.777  29.321   7.055
 4413POPC   C4A57882  13.155  29.256   7.406
 4413POPC   C1B57883  13.109  28.849   6.302
 4413POPC   C2B57884  13.017  29.035   6.684
 4413POPC   C3B57885  13.024  28.889   7.106
 4413POPC   C4B57886  12.982  28.749   7.578
 4414POPC   NC357887   9.208  17.474   5.400
 4414POPC   PO457888   8.535  17.657   5.577
 4414POPC   GL157889   8.881  17.550   5.793
 4414POPC   GL257890   9.034  17.246   5.827
 4414POPC   C1A57891   8.984  17.634   6.185
 4414POPC   D2A57892   8.789  17.646   6.538
 4414POPC   C3A57893   8.929  17.793   6.895
 4414POPC   C4A57894   9.067  17.722   7.263
 4414POPC   C1B57895   9.269  17.215   6.199
 4414POPC   C2B57896   9.294  17.456   6.592
 4414POPC   C3B57897   9.113  17.326   6.965
 4414POPC   C4B57898   9.154  17.194   7.371
 4415POPC   NC357899  41.832  42.071   5.253
 4415POPC   PO457900  41.389  42.522   5.606
 4415POPC   GL157901  41.785  42.352   5.767
 4415POPC   GL257902  41.740  41.986   5.771
 4415POPC   C1A57903  41.892  42.469   6.199
 4415POPC   D2A57904  41.570  42.667   6.436
 4415POPC   C3A57905  41.556  42.578   6.862
 4415POPC   C4A57906  41.513  42.581   7.301
 4415POPC   C1B57907  41.498  42.117   6.150
 4415POPC   C2B57908  41.495  42.024   6.578
 4415POPC   C3B57909  41.342  42.132   6.958
 4415POPC   C4B57910  41.573  42.081   7.268
 4416POPC   NC357911   8.707  39.351   5.441
 4416POPC   PO457912   9.364  39.589   5.531
 4416POPC   GL157913   9.089  39.357   5.820
 4416POPC   GL257914   8.785  39.122   5.878
 4416POPC   C1A57915   9.000  39.402   6.221
 4416POPC   D2A57916   8.906  39.124   6.501
 4416POPC   C3A57917   8.840  39.359   6.828
 4416POPC   C4A57918   8.843  39.257   7.241
 4416POPC   C1B57919   8.702  38.787   6.165
 4416POPC   C2B57920   8.775  38.634   6.554
 4416POPC   C3B57921   8.705  38.867   6.905
 4416POPC   C4B57922   8.499  38.816   7.264
 4417POPC   NC357923  15.404  34.330   5.445
 4417POPC   PO457924  14.725  34.434   5.380
 4417POPC   GL157925  14.992  34.482   5.777
 4417POPC   GL257926  15.272  34.268   5.922
 4417POPC   C1A57927  14.943  34.510   6.259
 4417POPC   D2A57928  14.993  34.659   6.705
 4417POPC   C3A57929  14.946  34.360   7.051
 4417POPC   C4A57930  14.846  34.108   7.419
 4417POPC   C1B57931  15.424  34.653   6.123
 4417POPC   C2B57932  15.521  34.729   6.576
 4417POPC   C3B57933  15.406  34.634   7.029
 4417POPC   C4B57934  15.084  34.746   7.362
 4418POPC   NC357935   2.801  12.639   5.070
 4418POPC   PO457936   3.205  12.866   5.518
 4418POPC   GL157937   2.986  12.626   5.794
 4418POPC   GL257938   2.631  12.567   5.752
 4418POPC   C1A57939   2.879  12.767   6.212
 4418POPC   D2A57940   2.820  12.995   6.609
 4418POPC   C3A57941   2.849  12.810   7.016
 4418POPC   C4A57942   3.182  12.566   7.218
 4418POPC   C1B57943   2.386  12.599   6.175
 4418POPC   C2B57944   2.340  12.852   6.588
 4418POPC   C3B57945   2.438  13.145   6.966
 4418POPC   C4B57946   2.401  13.116   7.427
 4419POPC   NC357947   3.700  30.265   5.479
 4419POPC   PO457948   3.585  29.535   5.440
 4419POPC   GL157949   3.547  29.874   5.778
 4419POPC   GL257950   3.298  30.137   5.891
 4419POPC   C1A57951   3.721  30.076   6.167
 4419POPC   D2A57952   3.838  30.216   6.588
 4419POPC   C3A57953   3.514  30.175   6.843
 4419POPC   C4A57954   3.530  29.957   7.212
 4419POPC   C1B57955   3.228  29.819   6.194
 4419POPC   C2B57956   3.360  29.688   6.588
 4419POPC   C3B57957   3.132  29.849   6.915
 4419POPC   C4B57958   3.082  29.722   7.292
 4420POPC   NC357959   7.209  44.845   5.451
 4420POPC   PO457960   7.804  44.576   5.396
 4420POPC   GL157961   7.573  44.431   5.749
 4420POPC   GL257962   7.878  44.349   5.890
 4420POPC   C1A57963   7.360  44.582   6.133
 4420POPC   D2A57964   7.402  44.930   6.467
 4420POPC   C3A57965   7.325  44.786   6.900
 4420POPC   C4A57966   7.205  44.540   7.259
 4420POPC   C1B57967   7.854  44.740   6.086
 4420POPC   C2B57968   7.912  44.855   6.506
 4420POPC   C3B57969   7.828  44.968   6.900
 4420POPC   C4B57970   7.698  44.693   7.260
 4421POPC   NC357971  19.670  31.733   5.333
 4421POPC   PO457972  20.142  31.267   5.562
 4421POPC   GL157973  19.823  31.518   5.779
 4421POPC   GL257974  19.933  31.866   5.774
 4421POPC   C1A57975  19.572  31.612   6.168
 4421POPC   D2A57976  19.722  31.704   6.605
 4421POPC   C3A57977  19.608  31.402   6.910
 4421POPC   C4A57978  19.696  31.344   7.338
 4421POPC   C1B57979  20.030  31.840   6.213
 4421POPC   C2B57980  20.260  31.623   6.563
 4421POPC   C3B57981  20.093  31.578   6.983
 4421POPC   C4B57982  20.115  31.754   7.370
 4422POPC   NC357983   3.304  32.156   5.416
 4422POPC   PO457984   2.689  31.971   5.487
 4422POPC   GL157985   2.817  31.966   5.883
 4422POPC   GL257986   3.124  32.202   5.899
 4422POPC   C1A57987   2.738  32.135   6.261
 4422POPC   D2A57988   3.015  32.407   6.497
 4422POPC   C3A57989   2.761  32.445   6.858
 4422POPC   C4A57990   2.731  32.195   7.239
 4422POPC   C1B57991   3.217  31.894   6.215
 4422POPC   C2B57992   3.009  31.903   6.632
 4422POPC   C3B57993   3.152  32.118   6.965
 4422POPC   C4B57994   3.321  32.000   7.323
 4423POPC   NC357995   7.578  17.914   5.192
 4423POPC   PO457996   7.395  17.303   5.439
 4423POPC   GL157997   7.292  17.657   5.755
 4423POPC   GL257998   7.595  17.872   5.741
 4423POPC   C1A57999   7.068  17.561   6.147
 4423POPC   D2A58000   7.096  17.221   6.471
 4423POPC   C3A58001   7.302  17.362   6.869
 4423POPC   C4A58002   7.592  17.221   7.181
 4423POPC   C1B58003   7.726  17.627   6.126
 4423POPC   C2B58004   7.839  17.652   6.584
 4423POPC   C3B58005   7.680  17.730   7.020
 4423POPC   C4B58006   7.696  17.758   7.466
 4424POPC   NC358007  31.243  42.784   5.642
 4424POPC   PO458008  31.642  42.230   5.441
 4424POPC   GL158009  31.564  42.424   5.816
 4424POPC   GL258010  31.250  42.273   5.882
 4424POPC   C1A58011  31.574  42.462   6.263
 4424POPC   D2A58012  31.878  42.212   6.505
 4424POPC   C3A58013  31.745  42.228   6.926
 4424POPC   C4A58014  31.861  42.197   7.356
 4424POPC   C1B58015  30.996  42.368   6.236
 4424POPC   C2B58016  31.017  42.447   6.670
 4424POPC   C3B58017  31.056  42.582   7.081
 4424POPC   C4B58018  31.439  42.459   7.269
 4425POPC   NC358019  22.489  21.970   5.406
 4425POPC   PO458020  21.863  22.038   5.582
 4425POPC   GL158021  22.194  22.059   5.835
 4425POPC   GL258022  22.224  22.417   5.776
 4425POPC   C1A58023  22.090  22.021   6.255
 4425POPC   D2A58024  22.315  22.124   6.564
 4425POPC   C3A58025  22.180  21.938   6.883
 4425POPC   C4A58026  22.088  22.029   7.284
 4425POPC   C1B58027  21.911  22.469   6.117
 4425POPC   C2B58028  21.907  22.427   6.577
 4425POPC   C3B58029  22.135  22.433   6.961
 4425POPC   C4B58030  22.064  22.540   7.360
 4426POPC   NC358031  14.888  32.342   5.400
 4426POPC   PO458032  15.540  32.159   5.472
 4426POPC   GL158033  15.311  32.113   5.876
 4426POPC   GL258034  14.965  32.022   5.809
 4426POPC   C1A58035  15.423  32.298   6.319
 4426POPC   D2A58036  15.339  32.638   6.671
 4426POPC   C3A58037  15.226  32.423   7.063
 4426POPC   C4A58038  15.359  32.031   7.216
 4426POPC   C1B58039  14.907  32.308   6.174
 4426POPC   C2B58040  15.001  32.250   6.629
 4426POPC   C3B58041  14.874  32.018   7.024
 4426POPC   C4B58042  14.936  32.157   7.474
 4427POPC   NC358043  19.431  23.673   5.450
 4427POPC   PO458044  20.071  23.397   5.543
 4427POPC   GL158045  19.782  23.532   5.894
 4427POPC   GL258046  19.492  23.802   5.926
 4427POPC   C1A58047  19.849  23.798   6.283
 4427POPC   D2A58048  19.745  24.114   6.579
 4427POPC   C3A58049  19.815  23.939   6.963
 4427POPC   C4A58050  20.141  23.697   7.135
 4427POPC   C1B58051  19.430  23.483   6.255
 4427POPC   C2B58052  19.564  23.570   6.672
 4427POPC   C3B58053  19.691  23.422   7.039
 4427POPC   C4B58054  19.443  23.683   7.262
 4428POPC   NC358055  44.661   3.829   5.437
 4428POPC   PO458056  44.628   3.169   5.318
 4428POPC   GL158057  44.781   3.388   5.694
 4428POPC   GL258058  44.458   3.478   5.806
 4428POPC   C1A58059  44.904   3.479   6.150
 4428POPC   D2A58060  44.748   3.487   6.574
 4428POPC   C3A58061  44.827   3.716   6.945
 4428POPC   C4A58062  44.992   3.534   7.317
 4428POPC   C1B58063  44.351   3.518   6.254
 4428POPC   C2B58064  44.268   3.361   6.699
 4428POPC   C3B58065  44.509   3.353   7.066
 4428POPC   C4B58066  44.252   3.468   7.369
 4429POPC   NC358067   7.159   5.662   5.608
 4429POPC   PO458068   7.606   6.182   5.436
 4429POPC   GL158069   7.395   6.019   5.869
 4429POPC   GL258070   7.036   6.122   5.869
 4429POPC   C1A58071   7.345   5.821   6.325
 4429POPC   D2A58072   7.292   5.520   6.691
 4429POPC   C3A58073   7.468   5.722   7.051
 4429POPC   C4A58074   7.672   5.949   7.374
 4429POPC   C1B58075   6.863   5.927   6.229
 4429POPC   C2B58076   6.831   5.825   6.678
 4429POPC   C3B58077   6.978   5.675   7.080
 4429POPC   C4B58078   7.171   5.801   7.468
 4430POPC   NC358079  15.857   2.659   5.215
 4430POPC   PO458080  16.260   3.154   5.376
 4430POPC   GL158081  16.064   2.935   5.740
 4430POPC   GL258082  15.965   2.582   5.840
 4430POPC   C1A58083  16.010   2.942   6.198
 4430POPC   D2A58084  16.224   2.894   6.629
 4430POPC   C3A58085  16.144   2.636   7.022
 4430POPC   C4A58086  15.830   2.808   7.231
 4430POPC   C1B58087  15.714   2.528   6.256
 4430POPC   C2B58088  15.695   2.610   6.721
 4430POPC   C3B58089  15.540   2.418   7.115
 4430POPC   C4B58090  15.762   2.385   7.525
 4431POPC   NC358091  18.183  27.446   5.393
 4431POPC   PO458092  18.803  27.548   5.279
 4431POPC   GL158093  18.627  27.708   5.682
 4431POPC   GL258094  18.615  27.358   5.779
 4431POPC   C1A58095  18.359  27.901   6.054
 4431POPC   D2A58096  18.080  27.742   6.396
 4431POPC   C3A58097  18.168  27.865   6.824
 4431POPC   C4A58098  18.262  27.882   7.242
 4431POPC   C1B58099  18.496  27.453   6.217
 4431POPC   C2B58100  18.591  27.582   6.642
 4431POPC   C3B58101  18.509  27.422   7.055
 4431POPC   C4B58102  18.388  27.372   7.482
 4432POPC   NC358103  38.552  38.974   5.061
 4432POPC   PO458104  38.278  39.488   5.539
 4432POPC   GL158105  38.410  39.328   5.924
 4432POPC   GL258106  38.344  38.976   6.067
 4432POPC   C1A58107  38.364  39.428   6.329
 4432POPC   D2A58108  38.341  39.145   6.648
 4432POPC   C3A58109  38.393  39.374   7.041
 4432POPC   C4A58110  38.625  39.553   7.373
 4432POPC   C1B58111  38.692  38.908   6.247
 4432POPC   C2B58112  38.850  38.882   6.635
 4432POPC   C3B58113  38.591  38.861   6.986
 4432POPC   C4B58114  38.497  39.030   7.418
 4433POPC   NC358115  40.539  43.312   5.424
 4433POPC   PO458116  39.858  43.039   5.370
 4433POPC   GL158117  39.962  43.189   5.767
 4433POPC   GL258118  40.305  43.051   5.795
 4433POPC   C1A58119  39.760  43.101   6.177
 4433POPC   D2A58120  39.868  42.901   6.580
 4433POPC   C3A58121  39.809  43.130   6.938
 4433POPC   C4A58122  39.981  42.867   7.265
 4433POPC   C1B58123  40.235  42.927   6.209
 4433POPC   C2B58124  40.286  43.190   6.561
 4433POPC   C3B58125  40.326  43.133   6.969
 4433POPC   C4B58126  40.113  43.361   7.284
 4434POPC   NC358127  16.097  44.538   5.371
 4434POPC   PO458128  15.516  44.903   5.470
 4434POPC   GL158129  15.710  44.572   5.777
 4434POPC   GL258130  16.051  44.450   5.870
 4434POPC   C1A58131  15.724  44.615   6.227
 4434POPC   D2A58132  15.904  44.555   6.633
 4434POPC   C3A58133  15.704  44.733   6.997
 4434POPC   C4A58134  15.867  44.974   7.340
 4434POPC   C1B58135  16.254  44.689   6.225
 4434POPC   C2B58136  16.396  44.720   6.671
 4434POPC   C3B58137  16.194  44.626   7.078
 4434POPC   C4B58138  16.075  44.308   7.314
 4435POPC   NC358139   2.776  26.472   5.588
 4435POPC   PO458140   3.074  27.056   5.593
 4435POPC   GL158141   2.844  26.906   5.889
 4435POPC   GL258142   2.488  26.857   5.768
 4435POPC   C1A58143   2.974  26.738   6.263
 4435POPC   D2A58144   2.935  26.426   6.568
 4435POPC   C3A58145   2.727  26.586   6.917
 4435POPC   C4A58146   2.983  26.589   7.304
 4435POPC   C1B58147   2.454  27.081   6.161
 4435POPC   C2B58148   2.672  27.069   6.542
 4435POPC   C3B58149   2.503  27.070   6.916
 4435POPC   C4B58150   2.647  26.949   7.285
 4436POPC   NC358151  15.391  13.058   5.639
 4436POPC   PO458152  14.918  13.138   5.116
 4436POPC   GL158153  14.928  12.898   5.647
 4436POPC   GL258154  14.942  13.117   5.975
 4436POPC   C1A58155  15.071  12.610   6.024
 4436POPC   D2A58156  15.033  12.424   6.465
 4436POPC   C3A58157  14.940  12.599   6.874
 4436POPC   C4A58158  15.183  12.903   7.138
 4436POPC   C1B58159  15.237  13.062   6.343
 4436POPC   C2B58160  15.413  12.760   6.677
 4436POPC   C3B58161  15.659  12.741   7.087
 4436POPC   C4B58162  15.614  13.108   7.406
 4437POPC   NC358163  12.259  33.924   5.561
 4437POPC   PO458164  11.713  34.374   5.471
 4437POPC   GL158165  11.868  34.105   5.826
 4437POPC   GL258166  12.199  34.151   6.010
 4437POPC   C1A58167  11.876  33.782   6.139
 4437POPC   D2A58168  11.713  33.698   6.538
 4437POPC   C3A58169  11.910  33.562   6.924
 4437POPC   C4A58170  12.184  33.624   7.292
 4437POPC   C1B58171  12.229  34.046   6.431
 4437POPC   C2B58172  11.987  34.069   6.807
 4437POPC   C3B58173  12.194  34.121   7.179
 4437POPC   C4B58174  12.654  34.117   7.226
 4438POPC   NC358175  27.948   5.439   5.615
 4438POPC   PO458176  27.364   5.182   5.385
 4438POPC   GL158177  27.436   5.356   5.813
 4438POPC   GL258178  27.617   5.050   5.962
 4438POPC   C1A58179  27.441   5.398   6.278
 4438POPC   D2A58180  27.535   5.022   6.566
 4438POPC   C3A58181  27.525   5.106   6.985
 4438POPC   C4A58182  27.607   5.522   7.162
 4438POPC   C1B58183  27.894   4.786   6.281
 4438POPC   C2B58184  27.944   4.750   6.751
 4438POPC   C3B58185  27.902   4.743   7.205
 4438POPC   C4B58186  28.029   4.629   7.659
 4439POPC   NC358187  40.686  30.480   5.254
 4439POPC   PO458188  41.019  30.961   5.119
 4439POPC   GL158189  40.786  30.807   5.625
 4439POPC   GL258190  40.540  30.504   5.745
 4439POPC   C1A58191  40.886  30.647   6.094
 4439POPC   D2A58192  41.052  30.421   6.493
 4439POPC   C3A58193  41.038  30.682   6.883
 4439POPC   C4A58194  40.845  31.027   7.164
 4439POPC   C1B58195  40.373  30.485   6.163
 4439POPC   C2B58196  40.576  30.625   6.542
 4439POPC   C3B58197  40.501  30.657   6.969
 4439POPC   C4B58198  40.775  30.541   7.290
 4440POPC   NC358199   3.875  28.484   5.671
 4440POPC   PO458200   3.281  28.325   5.361
 4440POPC   GL158201   3.371  28.379   5.820
 4440POPC   GL258202   3.619  28.123   5.945
 4440POPC   C1A58203   3.195  28.343   6.253
 4440POPC   D2A58204   3.333  28.162   6.655
 4440POPC   C3A58205   3.504  28.453   6.929
 4440POPC   C4A58206   3.372  28.707   7.259
 4440POPC   C1B58207   3.714  28.335   6.336
 4440POPC   C2B58208   3.895  28.172   6.716
 4440POPC   C3B58209   3.797  28.064   7.133
 4440POPC   C4B58210   3.761  28.391   7.368
 4441POPC   NC358211  27.528  18.521   5.511
 4441POPC   PO458212  27.424  17.850   5.415
 4441POPC   GL158213  27.416  18.097   5.795
 4441POPC   GL258214  27.759  18.202   5.863
 4441POPC   C1A58215  27.382  18.312   6.208
 4441POPC   D2A58216  27.253  18.587   6.550
 4441POPC   C3A58217  27.370  18.559   7.008
 4441POPC   C4A58218  27.451  18.188   7.257
 4441POPC   C1B58219  27.882  18.217   6.285
 4441POPC   C2B58220  27.714  18.310   6.679
 4441POPC   C3B58221  27.907  18.338   7.064
 4441POPC   C4B58222  28.010  18.608   7.362
 4442POPC   NC358223   5.643  16.338   5.755
 4442POPC   PO458224   5.899  15.881   5.297
 4442POPC   GL158225   5.756  15.810   5.713
 4442POPC   GL258226   5.413  15.628   5.672
 4442POPC   C1A58227   5.921  15.895   6.168
 4442POPC   D2A58228   5.791  16.194   6.504
 4442POPC   C3A58229   5.788  15.989   6.912
 4442POPC   C4A58230   5.471  16.046   7.210
 4442POPC   C1B58231   5.598  15.511   6.085
 4442POPC   C2B58232   5.535  15.697   6.482
 4442POPC   C3B58233   5.392  15.624   6.892
 4442POPC   C4B58234   5.595  15.545   7.262
 4443POPC   NC358235  29.531   9.639   5.515
 4443POPC   PO458236  30.051   9.938   5.579
 4443POPC   GL158237  29.958  10.089   5.955
 4443POPC   GL258238  29.599  10.083   5.851
 4443POPC   C1A58239  30.102  10.030   6.387
 4443POPC   D2A58240  30.146   9.683   6.720
 4443POPC   C3A58241  30.008   9.774   7.152
 4443POPC   C4A58242  30.200   9.679   7.567
 4443POPC   C1B58243  29.647   9.751   6.188
 4443POPC   C2B58244  29.671   9.396   6.476
 4443POPC   C3B58245  29.634   9.540   6.890
 4443POPC   C4B58246  29.471   9.886   7.150
 4444POPC   NC358247  41.254  36.236   5.408
 4444POPC   PO458248  41.825  36.336   5.562
 4444POPC   GL158249  41.537  36.068   5.825
 4444POPC   GL258250  41.612  35.744   6.005
 4444POPC   C1A58251  41.215  36.092   6.145
 4444POPC   D2A58252  41.230  36.037   6.590
 4444POPC   C3A58253  41.519  36.289   6.835
 4444POPC   C4A58254  41.318  36.137   7.176
 4444POPC   C1B58255  41.682  36.064   6.364
 4444POPC   C2B58256  42.008  36.287   6.604
 4444POPC   C3B58257  42.014  36.395   7.037
 4444POPC   C4B58258  41.809  36.258   7.442
 4445POPC   NC358259  14.642  33.020   5.403
 4445POPC   PO458260  13.888  33.040   5.420
 4445POPC   GL158261  14.249  32.929   5.749
 4445POPC   GL258262  14.401  33.220   5.839
 4445POPC   C1A58263  14.204  32.927   6.237
 4445POPC   D2A58264  14.149  32.738   6.651
 4445POPC   C3A58265  14.155  33.031   7.020
 4445POPC   C4A58266  14.491  32.889   7.219
 4445POPC   C1B58267  14.595  33.272   6.238
 4445POPC   C2B58268  14.517  33.123   6.661
 4445POPC   C3B58269  14.682  33.316   7.039
 4445POPC   C4B58270  14.889  33.222   7.433
 4446POPC   NC358271  44.314  34.473   5.621
 4446POPC   PO458272  43.620  34.539   5.430
 4446POPC   GL158273  43.839  34.517   5.815
 4446POPC   GL258274  43.888  34.169   5.832
 4446POPC   C1A58275  43.773  34.664   6.250
 4446POPC   D2A58276  43.503  34.528   6.586
 4446POPC   C3A58277  43.679  34.555   6.977
 4446POPC   C4A58278  43.639  34.264   7.311
 4446POPC   C1B58279  44.115  34.279   6.206
 4446POPC   C2B58280  44.045  34.370   6.618
 4446POPC   C3B58281  44.081  34.230   7.026
 4446POPC   C4B58282  44.155  34.598   7.234
 4447POPC   NC358283  24.082  12.798   5.497
 4447POPC   PO458284  24.741  12.556   5.354
 4447POPC   GL158285  24.619  12.875   5.718
 4447POPC   GL258286  24.333  12.931   5.948
 4447POPC   C1A58287  24.773  13.147   6.088
 4447POPC   D2A58288  24.545  13.091   6.503
 4447POPC   C3A58289  24.591  13.020   6.947
 4447POPC   C4A58290  24.240  13.142   7.251
 4447POPC   C1B58291  24.639  12.671   6.210
 4447POPC   C2B58292  24.591  12.549   6.646
 4447POPC   C3B58293  24.485  12.496   7.053
 4447POPC   C4B58294  24.571  12.762   7.393
 4448POPC   NC358295  37.091  30.797   5.459
 4448POPC   PO458296  36.924  30.197   5.573
 4448POPC   GL158297  36.815  30.537   5.809
 4448POPC   GL258298  36.585  30.792   5.635
 4448POPC   C1A58299  37.048  30.650   6.187
 4448POPC   D2A58300  37.020  30.388   6.574
 4448POPC   C3A58301  36.971  30.579   6.979
 4448POPC   C4A58302  37.240  30.753   7.290
 4448POPC   C1B58303  36.547  30.856   6.103
 4448POPC   C2B58304  36.722  30.820   6.547
 4448POPC   C3B58305  36.615  30.957   6.957
 4448POPC   C4B58306  36.713  30.825   7.367
 4449POPC   NC358307  27.497  10.972   5.475
 4449POPC   PO458308  27.440  11.656   5.600
 4449POPC   GL158309  27.666  11.301   5.848
 4449POPC   GL258310  27.844  10.948   5.845
 4449POPC   C1A58311  27.501  11.130   6.289
 4449POPC   D2A58312  27.253  11.274   6.683
 4449POPC   C3A58313  27.350  11.190   7.111
 4449POPC   C4A58314  27.532  11.463   7.458
 4449POPC   C1B58315  27.983  11.183   6.211
 4449POPC   C2B58316  27.884  11.262   6.644
 4449POPC   C3B58317  27.862  11.166   7.065
 4449POPC   C4B58318  27.847  11.049   7.497
 4450POPC   NC358319   2.993  14.717   5.384
 4450POPC   PO458320   2.976  15.508   5.492
 4450POPC   GL158321   2.780  15.178   5.736
 4450POPC   GL258322   3.017  14.919   5.836
 4450POPC   C1A58323   2.563  15.052   6.121
 4450POPC   D2A58324   2.537  15.271   6.527
 4450POPC   C3A58325   2.507  15.064   6.923
 4450POPC   C4A58326   2.649  15.130   7.315
 4450POPC   C1B58327   3.066  14.952   6.254
 4450POPC   C2B58328   2.852  14.861   6.598
 4450POPC   C3B58329   3.015  14.958   6.977
 4450POPC   C4B58330   3.145  15.187   7.303
 4451POPC   NC358331  21.769  44.060   5.441
 4451POPC   PO458332  22.358  43.739   5.406
 4451POPC   GL158333  22.157  43.689   5.774
 4451POPC   GL258334  21.896  43.451   5.714
 4451POPC   C1A58335  22.320  43.805   6.188
 4451POPC   D2A58336  22.286  43.625   6.585
 4451POPC   C3A58337  22.437  43.844   6.962
 4451POPC   C4A58338  22.457  44.150   7.284
 4451POPC   C1B58339  21.822  43.647   6.158
 4451POPC   C2B58340  21.827  43.427   6.542
 4451POPC   C3B58341  21.951  43.576   6.963
 4451POPC   C4B58342  21.980  43.993   7.153
 4452POPC   NC358343   6.182   4.130   5.269
 4452POPC   PO458344   5.668   4.592   5.448
 4452POPC   GL158345   5.813   4.295   5.807
 4452POPC   GL258346   6.177   4.168   5.782
 4452POPC   C1A58347   5.818   4.321   6.280
 4452POPC   D2A58348   5.706   4.463   6.722
 4452POPC   C3A58349   5.844   4.201   7.091
 4452POPC   C4A58350   5.976   4.220   7.542
 4452POPC   C1B58351   6.264   4.045   6.189
 4452POPC   C2B58352   6.104   4.011   6.607
 4452POPC   C3B58353   6.314   3.966   6.998
 4452POPC   C4B58354   6.158   3.777   7.343
 4453POPC   NC358355  23.828  44.032   5.544
 4453POPC   PO458356  23.895  44.692   5.373
 4453POPC   GL158357  23.616  44.520   5.681
 4453POPC   GL258358  23.881  44.446   5.844
 4453POPC   C1A58359  23.500  44.592   6.142
 4453POPC   D2A58360  23.761  44.817   6.449
 4453POPC   C3A58361  23.587  44.813   6.849
 4453POPC   C4A58362  23.526  44.523   7.147
 4453POPC   C1B58363  23.967  44.392   6.239
 4453POPC   C2B58364  23.823  44.344   6.645
 4453POPC   C3B58365  24.008  44.560   6.966
 4453POPC   C4B58366  24.187  44.577   7.345
 4454POPC   NC358367  40.117  44.187   5.460
 4454POPC   PO458368  39.795  44.850   5.459
 4454POPC   GL158369  39.991  44.604   5.750
 4454POPC   GL258370  39.779  44.307   5.830
 4454POPC   C1A58371  40.001  44.743   6.161
 4454POPC   D2A58372  40.258  44.905   6.468
 4454POPC   C3A58373  40.047  44.697   6.845
 4454POPC   C4A58374  40.051  44.846   7.270
 4454POPC   C1B58375  39.549  44.519   6.134
 4454POPC   C2B58376  39.541  44.644   6.564
 4454POPC   C3B58377  39.545  44.792   6.981
 4454POPC   C4B58378  39.575  44.651   7.390
 4455POPC   NC358379  19.679   6.172   5.451
 4455POPC   PO458380  19.731   5.507   5.448
 4455POPC   GL158381  19.795   5.808   5.833
 4455POPC   GL258382  19.989   6.132   5.869
 4455POPC   C1A58383  19.557   6.020   6.184
 4455POPC   D2A58384  19.445   5.945   6.607
 4455POPC   C3A58385  19.654   6.082   6.972
 4455POPC   C4A58386  19.891   5.897   7.293
 4455POPC   C1B58387  20.062   5.983   6.318
 4455POPC   C2B58388  20.111   5.907   6.793
 4455POPC   C3B58389  20.330   5.714   7.172
 4455POPC   C4B58390  20.273   5.821   7.635
 4456POPC   NC358391  36.357   1.809   5.234
 4456POPC   PO458392  36.111   2.377   5.383
 4456POPC   GL158393  36.306   2.159   5.743
 4456POPC   GL258394  36.065   1.868   5.843
 4456POPC   C1A58395  36.368   2.093   6.211
 4456POPC   D2A58396  36.195   2.302   6.577
 4456POPC   C3A58397  36.068   2.173   6.994
 4456POPC   C4A58398  36.326   2.123   7.304
 4456POPC   C1B58399  35.951   1.844   6.311
 4456POPC   C2B58400  35.916   1.768   6.733
 4456POPC   C3B58401  36.204   1.653   7.066
 4456POPC   C4B58402  35.962   1.650   7.422
 4457POPC   NC358403  27.027   7.038   5.535
 4457POPC   PO458404  26.447   7.431   5.277
 4457POPC   GL158405  26.561   7.563   5.767
 4457POPC   GL258406  26.889   7.436   5.819
 4457POPC   C1A58407  26.660   7.556   6.260
 4457POPC   D2A58408  26.565   7.625   6.702
 4457POPC   C3A58409  26.594   7.443   7.103
 4457POPC   C4A58410  26.472   7.589   7.542
 4457POPC   C1B58411  26.957   7.167   6.171
 4457POPC   C2B58412  27.005   7.305   6.588
 4457POPC   C3B58413  26.961   7.099   6.962
 4457POPC   C4B58414  27.081   7.301   7.292
 4458POPC   NC358415  44.514  35.443   5.345
 4458POPC   PO458416  44.591  34.778   5.409
 4458POPC   GL158417  44.512  35.148   5.762
 4458POPC   GL258418  44.845  35.250   5.802
 4458POPC   C1A58419  44.547  35.493   6.129
 4458POPC   D2A58420  44.542  35.652   6.558
 4458POPC   C3A58421  44.379  35.300   6.811
 4458POPC   C4A58422  44.337  35.289   7.249
 4458POPC   C1B58423  44.810  35.090   6.266
 4458POPC   C2B58424  44.893  35.276   6.705
 4458POPC   C3B58425  44.771  35.506   7.094
 4458POPC   C4B58426  44.881  35.496   7.547
 4459POPC   NC358427  18.144  21.550   5.193
 4459POPC   PO458428  18.773  21.420   5.125
 4459POPC   GL158429  18.511  21.259   5.667
 4459POPC   GL258430  18.254  21.057   5.763
 4459POPC   C1A58431  18.371  21.464   6.118
 4459POPC   D2A58432  18.174  21.487   6.524
 4459POPC   C3A58433  18.370  21.672   6.870
 4459POPC   C4A58434  18.317  21.495   7.276
 4459POPC   C1B58435  18.316  20.983   6.208
 4459POPC   C2B58436  18.119  20.969   6.635
 4459POPC   C3B58437  18.232  21.009   7.081
 4459POPC   C4B58438  18.110  20.857   7.481
 4460POPC   NC358439  28.733  24.047   5.543
 4460POPC   PO458440  29.176  23.631   5.292
 4460POPC   GL158441  29.231  23.762   5.762
 4460POPC   GL258442  28.975  23.893   5.965
 4460POPC   C1A58443  29.426  23.794   6.193
 4460POPC   D2A58444  29.257  23.647   6.581
 4460POPC   C3A58445  29.421  23.717   6.999
 4460POPC   C4A58446  29.209  23.897   7.320
 4460POPC   C1B58447  29.022  24.091   6.369
 4460POPC   C2B58448  29.038  24.032   6.842
 4460POPC   C3B58449  28.839  24.253   7.186
 4460POPC   C4B58450  28.697  24.319   7.626
 4461POPC   NC358451  31.717   0.659   5.651
 4461POPC   PO458452  31.391   0.080   5.549
 4461POPC   GL158453  31.578   0.259   5.923
 4461POPC   GL258454  31.336   0.524   5.940
 4461POPC   C1A58455  31.643   0.564   6.315
 4461POPC   D2A58456  31.466   0.676   6.739
 4461POPC   C3A58457  31.494   0.394   7.107
 4461POPC   C4A58458  31.839   0.458   7.359
 4461POPC   C1B58459  31.255   0.215   6.298
 4461POPC   C2B58460  31.273   0.168   6.700
 4461POPC   C3B58461  30.995   0.382   6.973
 4461POPC   C4B58462  31.007   0.387   7.404
 4462POPC   NC358463  37.136  42.636   5.099
 4462POPC   PO458464  36.923  43.241   5.413
 4462POPC   GL158465  36.737  43.056   5.775
 4462POPC   GL258466  37.053  43.092   5.938
 4462POPC   C1A58467  36.682  42.830   6.195
 4462POPC   D2A58468  36.717  43.093   6.569
 4462POPC   C3A58469  36.930  42.942   6.908
 4462POPC   C4A58470  36.668  42.892   7.256
 4462POPC   C1B58471  37.308  43.361   6.170
 4462POPC   C2B58472  37.249  43.332   6.622
 4462POPC   C3B58473  37.291  43.393   7.062
 4462POPC   C4B58474  37.074  43.171   7.372
 4463POPC   NC358475   8.542  35.040   5.495
 4463POPC   PO458476   8.026  35.527   5.471
 4463POPC   GL158477   7.994  35.463   5.882
 4463POPC   GL258478   8.327  35.318   5.856
 4463POPC   C1A58479   8.133  35.431   6.307
 4463POPC   D2A58480   8.469  35.607   6.533
 4463POPC   C3A58481   8.366  35.460   6.941
 4463POPC   C4A58482   7.973  35.461   7.145
 4463POPC   C1B58483   8.544  35.111   6.199
 4463POPC   C2B58484   8.766  35.151   6.581
 4463POPC   C3B58485   8.729  34.962   7.003
 4463POPC   C4B58486   8.499  34.961   7.400
 4464POPC   NC358487  30.554  13.536   5.288
 4464POPC   PO458488  31.169  13.529   5.138
 4464POPC   GL158489  30.939  13.650   5.613
 4464POPC   GL258490  30.997  14.019   5.585
 4464POPC   C1A58491  30.646  13.592   6.088
 4464POPC   D2A58492  30.398  13.403   6.510
 4464POPC   C3A58493  30.506  13.504   6.977
 4464POPC   C4A58494  30.912  13.503   7.223
 4464POPC   C1B58495  30.906  14.015   6.017
 4464POPC   C2B58496  30.960  14.017   6.455
 4464POPC   C3B58497  30.857  13.850   6.834
 4464POPC   C4B58498  30.824  14.006   7.238
 4465POPC   NC358499  14.471  29.391   5.491
 4465POPC   PO458500  14.803  28.852   5.518
 4465POPC   GL158501  14.515  29.003   5.849
 4465POPC   GL258502  14.322  29.331   5.979
 4465POPC   C1A58503  14.431  28.924   6.272
 4465POPC   D2A58504  14.440  29.185   6.622
 4465POPC   C3A58505  14.403  28.888   6.953
 4465POPC   C4A58506  14.465  29.033   7.358
 4465POPC   C1B58507  14.007  29.203   6.316
 4465POPC   C2B58508  13.949  29.096   6.758
 4465POPC   C3B58509  14.162  29.342   7.067
 4465POPC   C4B58510  14.195  29.469   7.469
 4466POPC   NC358511   0.102  42.138   5.217
 4466POPC   PO458512   0.431  41.567   5.370
 4466POPC   GL158513   0.489  41.866   5.684
 4466POPC   GL258514   0.851  41.936   5.761
 4466POPC   C1A58515   0.320  41.812   6.091
 4466POPC   D2A58516   0.059  41.827   6.454
 4466POPC   C3A58517   0.345  41.744   6.815
 4466POPC   C4A58518   0.354  41.594   7.262
 4466POPC   C1B58519   0.892  41.598   6.109
 4466POPC   C2B58520   1.005  41.425   6.547
 4466POPC   C3B58521   0.789  41.503   6.956
 4466POPC   C4B58522   0.863  41.633   7.414
 4467POPC   NC358523   2.662  31.497   5.389
 4467POPC   PO458524   3.304  31.291   5.503
 4467POPC   GL158525   2.963  31.480   5.827
 4467POPC   GL258526   2.561  31.427   5.868
 4467POPC   C1A58527   2.823  31.587   6.272
 4467POPC   D2A58528   2.899  31.412   6.696
 4467POPC   C3A58529   2.882  31.569   7.124
 4467POPC   C4A58530   2.455  31.385   7.266
 4467POPC   C1B58531   2.364  31.742   6.139
 4467POPC   C2B58532   2.419  31.662   6.588
 4467POPC   C3B58533   2.470  31.828   7.006
 4467POPC   C4B58534   2.457  31.820   7.516
 4468POPC   NC358535  38.491  36.465   5.445
 4468POPC   PO458536  38.280  35.842   5.372
 4468POPC   GL158537  38.537  36.068   5.765
 4468POPC   GL258538  38.769  36.406   5.861
 4468POPC   C1A58539  38.468  35.925   6.193
 4468POPC   D2A58540  38.246  36.002   6.563
 4468POPC   C3A58541  38.384  35.948   6.959
 4468POPC   C4A58542  38.383  36.072   7.375
 4468POPC   C1B58543  38.871  36.218   6.258
 4468POPC   C2B58544  38.771  35.992   6.620
 4468POPC   C3B58545  38.893  36.193   6.991
 4468POPC   C4B58546  38.783  36.379   7.351
 4469POPC   NC358547  11.980  24.078   5.612
 4469POPC   PO458548  12.290  23.546   5.443
 4469POPC   GL158549  12.240  23.650   5.833
 4469POPC   GL258550  11.897  23.550   5.814
 4469POPC   C1A58551  12.163  23.845   6.221
 4469POPC   D2A58552  11.974  23.970   6.588
 4469POPC   C3A58553  12.239  24.079   6.921
 4469POPC   C4A58554  12.325  23.774   7.207
 4469POPC   C1B58555  11.787  23.270   6.148
 4469POPC   C2B58556  11.856  23.422   6.556
 4469POPC   C3B58557  11.848  23.619   6.961
 4469POPC   C4B58558  11.752  24.016   7.072
 4470POPC   NC358559  15.929  22.212   5.382
 4470POPC   PO458560  16.520  22.613   5.414
 4470POPC   GL158561  16.266  22.349   5.746
 4470POPC   GL258562  16.154  21.991   5.764
 4470POPC   C1A58563  16.012  22.373   6.115
 4470POPC   D2A58564  16.083  22.509   6.537
 4470POPC   C3A58565  15.783  22.402   6.826
 4470POPC   C4A58566  15.900  22.362   7.238
 4470POPC   C1B58567  15.925  21.871   6.175
 4470POPC   C2B58568  15.785  21.926   6.608
 4470POPC   C3B58569  16.017  21.828   6.992
 4470POPC   C4B58570  15.934  21.851   7.450
 4471POPC   NC358571   5.637   1.543   5.397
 4471POPC   PO458572   5.764   2.251   5.520
 4471POPC   GL158573   5.715   1.996   5.860
 4471POPC   GL258574   6.018   1.882   5.802
 4471POPC   C1A58575   5.560   1.903   6.267
 4471POPC   D2A58576   5.807   1.970   6.626
 4471POPC   C3A58577   5.662   1.834   6.986
 4471POPC   C4A58578   5.557   2.063   7.319
 4471POPC   C1B58579   6.038   1.734   6.220
 4471POPC   C2B58580   6.186   1.630   6.620
 4471POPC   C3B58581   5.997   1.395   6.927
 4471POPC   C4B58582   6.066   1.617   7.254
 4472POPC   NC358583  43.059   1.767   5.332
 4472POPC   PO458584  43.198   2.386   5.472
 4472POPC   GL158585  43.024   2.092   5.791
 4472POPC   GL258586  42.832   1.766   5.779
 4472POPC   C1A58587  43.290   2.005   6.170
 4472POPC   D2A58588  43.326   1.720   6.539
 4472POPC   C3A58589  43.217   1.924   6.920
 4472POPC   C4A58590  43.390   1.983   7.288
 4472POPC   C1B58591  42.926   1.674   6.206
 4472POPC   C2B58592  42.855   1.889   6.568
 4472POPC   C3B58593  42.737   1.753   6.966
 4472POPC   C4B58594  42.838   2.012   7.283
 4473POPC   NC358595  35.498  39.685   5.379
 4473POPC   PO458596  35.092  39.124   5.176
 4473POPC   GL158597  35.164  39.280   5.633
 4473POPC   GL258598  34.858  39.382   5.777
 4473POPC   C1A58599  35.268  39.152   6.096
 4473POPC   D2A58600  35.447  38.983   6.497
 4473POPC   C3A58601  35.499  39.237   6.901
 4473POPC   C4A58602  35.584  39.076   7.341
 4473POPC   C1B58603  35.020  39.583   6.143
 4473POPC   C2B58604  35.138  39.432   6.552
 4473POPC   C3B58605  35.038  39.526   7.003
 4473POPC   C4B58606  35.328  39.527   7.350
 4474POPC   NC358607  40.866  27.142   5.304
 4474POPC   PO458608  40.470  26.632   5.383
 4474POPC   GL158609  40.619  26.907   5.719
 4474POPC   GL258610  40.946  26.936   5.806
 4474POPC   C1A58611  40.612  26.797   6.171
 4474POPC   D2A58612  40.678  26.567   6.542
 4474POPC   C3A58613  40.607  26.830   6.903
 4474POPC   C4A58614  40.887  27.004   7.221
 4474POPC   C1B58615  41.071  27.024   6.255
 4474POPC   C2B58616  41.066  26.902   6.696
 4474POPC   C3B58617  41.362  27.042   7.009
 4474POPC   C4B58618  41.368  26.922   7.447
 4475POPC   NC358619   3.409  24.297   5.274
 4475POPC   PO458620   3.831  24.796   5.543
 4475POPC   GL158621   3.604  24.481   5.772
 4475POPC   GL258622   3.406  24.142   5.753
 4475POPC   C1A58623   3.698  24.480   6.208
 4475POPC   D2A58624   3.547  24.640   6.590
 4475POPC   C3A58625   3.699  24.492   6.993
 4475POPC   C4A58626   3.989  24.716   7.237
 4475POPC   C1B58627   3.515  24.007   6.152
 4475POPC   C2B58628   3.598  24.119   6.556
 4475POPC   C3B58629   3.392  24.107   6.883
 4475POPC   C4B58630   3.289  24.279   7.246
 4476POPC   NC358631  20.588  10.823   5.350
 4476POPC   PO458632  20.706  10.137   5.317
 4476POPC   GL158633  20.530  10.347   5.688
 4476POPC   GL258634  20.721  10.625   5.828
 4476POPC   C1A58635  20.565  10.239   6.132
 4476POPC   D2A58636  20.669  10.466   6.500
 4476POPC   C3A58637  20.460  10.387   6.875
 4476POPC   C4A58638  20.606  10.097   7.139
 4476POPC   C1B58639  20.377  10.727   6.151
 4476POPC   C2B58640  20.354  10.852   6.599
 4476POPC   C3B58641  20.435  10.863   7.063
 4476POPC   C4B58642  20.249  10.804   7.489
 4477POPC   NC358643  15.297  20.842   5.570
 4477POPC   PO458644  14.796  20.532   5.204
 4477POPC   GL158645  14.856  20.632   5.687
 4477POPC   GL258646  15.126  20.397   5.813
 4477POPC   C1A58647  14.902  20.664   6.186
 4477POPC   D2A58648  15.159  20.810   6.563
 4477POPC   C3A58649  15.180  20.618   6.961
 4477POPC   C4A58650  14.967  20.457   7.277
 4477POPC   C1B58651  15.390  20.482   6.211
 4477POPC   C2B58652  15.572  20.467   6.677
 4477POPC   C3B58653  15.582  20.400   7.174
 4477POPC   C4B58654  15.512  20.508   7.624
 4478POPC   NC358655  11.459  37.550   5.541
 4478POPC   PO458656  11.078  38.082   5.523
 4478POPC   GL158657  11.192  37.830   5.888
 4478POPC   GL258658  11.536  37.901   5.936
 4478POPC   C1A58659  11.302  37.528   6.234
 4478POPC   D2A58660  11.136  37.373   6.642
 4478POPC   C3A58661  11.315  37.466   7.069
 4478POPC   C4A58662  11.183  37.494   7.512
 4478POPC   C1B58663  11.350  38.012   6.373
 4478POPC   C2B58664  11.109  37.880   6.759
 4478POPC   C3B58665  11.143  37.927   7.199
 4478POPC   C4B58666  11.131  38.055   7.639
 4479POPC   NC358667  29.091  25.073   5.193
 4479POPC   PO458668  28.826  24.532   5.547
 4479POPC   GL158669  29.049  24.441   5.916
 4479POPC   GL258670  29.361  24.261   5.894
 4479POPC   C1A58671  29.200  24.653   6.278
 4479POPC   D2A58672  29.210  24.473   6.656
 4479POPC   C3A58673  29.148  24.626   7.022
 4479POPC   C4A58674  28.817  24.821   7.242
 4479POPC   C1B58675  29.556  24.303   6.305
 4479POPC   C2B58676  29.567  24.145   6.728
 4479POPC   C3B58677  29.499  24.268   7.146
 4479POPC   C4B58678  29.193  24.417   7.486
 4480POPC   NC358679   4.426  25.716   5.030
 4480POPC   PO458680   4.084  26.256   5.290
 4480POPC   GL158681   4.184  26.228   5.734
 4480POPC   GL258682   4.243  25.864   5.817
 4480POPC   C1A58683   4.527  26.232   6.038
 4480POPC   D2A58684   4.642  26.100   6.447
 4480POPC   C3A58685   4.515  26.315   6.842
 4480POPC   C4A58686   4.571  26.060   7.225
 4480POPC   C1B58687   4.169  25.948   6.270
 4480POPC   C2B58688   4.256  25.898   6.717
 4480POPC   C3B58689   4.101  26.092   7.077
 4480POPC   C4B58690   4.023  25.664   7.221
 4481POPC   NC358691  25.689  31.742   5.371
 4481POPC   PO458692  26.286  31.364   5.381
 4481POPC   GL158693  26.136  31.239   5.801
 4481POPC   GL258694  25.777  31.312   5.837
 4481POPC   C1A58695  26.175  31.340   6.237
 4481POPC   D2A58696  26.407  31.395   6.638
 4481POPC   C3A58697  26.237  31.178   6.992
 4481POPC   C4A58698  26.127  31.312   7.372
 4481POPC   C1B58699  25.669  31.363   6.280
 4481POPC   C2B58700  25.863  31.391   6.678
 4481POPC   C3B58701  25.923  31.627   7.031
 4481POPC   C4B58702  25.586  31.568   7.322
 4482POPC   NC358703   3.149  15.950   5.584
 4482POPC   PO458704   3.802  15.760   5.479
 4482POPC   GL158705   3.620  15.984   5.809
 4482POPC   GL258706   3.472  15.690   5.899
 4482POPC   C1A58707   3.701  15.994   6.269
 4482POPC   D2A58708   4.042  15.857   6.564
 4482POPC   C3A58709   3.868  15.820   6.980
 4482POPC   C4A58710   3.567  16.131   7.133
 4482POPC   C1B58711   3.204  15.849   6.218
 4482POPC   C2B58712   3.166  16.042   6.599
 4482POPC   C3B58713   3.184  15.820   6.934
 4482POPC   C4B58714   3.440  15.641   7.211
 4483POPC   NC358715  23.737  14.660   5.418
 4483POPC   PO458716  23.615  14.048   5.523
 4483POPC   GL158717  23.813  14.300   5.839
 4483POPC   GL258718  23.899  14.687   5.889
 4483POPC   C1A58719  23.668  14.312   6.265
 4483POPC   D2A58720  23.843  14.201   6.650
 4483POPC   C3A58721  23.709  14.147   7.066
 4483POPC   C4A58722  23.825  14.118   7.514
 4483POPC   C1B58723  23.547  14.799   6.163
 4483POPC   C2B58724  23.456  14.678   6.590
 4483POPC   C3B58725  23.450  14.624   7.015
 4483POPC   C4B58726  23.589  14.536   7.371
 4484POPC   NC358727  27.555  44.473   5.343
 4484POPC   PO458728  28.027  44.875   5.472
 4484POPC   GL158729  27.844  44.887   5.838
 4484POPC   GL258730  27.563  44.722   5.781
 4484POPC   C1A58731  27.849  44.633   6.199
 4484POPC   D2A58732  27.609  44.539   6.573
 4484POPC   C3A58733  27.768  44.681   6.936
 4484POPC   C4A58734  27.926  44.469   7.279
 4484POPC   C1B58735  27.349  44.684   6.149
 4484POPC   C2B58736  27.231  44.931   6.500
 4484POPC   C3B58737  27.258  44.777   6.913
 4484POPC   C4B58738  27.418  44.848   7.321
 4485POPC   NC358739  31.944  32.402   5.426
 4485POPC   PO458740  32.511  31.997   5.456
 4485POPC   GL158741  32.575  32.318   5.779
 4485POPC   GL258742  32.277  32.523   5.793
 4485POPC   C1A58743  32.453  32.367   6.241
 4485POPC   D2A58744  32.128  32.419   6.564
 4485POPC   C3A58745  32.317  32.268   6.930
 4485POPC   C4A58746  32.326  32.062   7.386
 4485POPC   C1B58747  31.993  32.684   6.120
 4485POPC   C2B58748  31.999  32.919   6.523
 4485POPC   C3B58749  32.030  32.755   6.960
 4485POPC   C4B58750  31.961  32.402   7.255
 4486POPC   NC358751  38.779  30.683   5.306
 4486POPC   PO458752  38.168  30.358   5.619
 4486POPC   GL158753  38.509  30.445   5.897
 4486POPC   GL258754  38.665  30.771   5.894
 4486POPC   C1A58755  38.451  30.417   6.339
 4486POPC   D2A58756  38.678  30.325   6.709
 4486POPC   C3A58757  38.409  30.433   7.067
 4486POPC   C4A58758  38.212  30.719   7.335
 4486POPC   C1B58759  38.624  30.907   6.340
 4486POPC   C2B58760  38.559  30.841   6.800
 4486POPC   C3B58761  38.700  30.841   7.256
 4486POPC   C4B58762  38.939  30.914   7.661
 4487POPC   NC358763   1.474  18.548   5.436
 4487POPC   PO458764   0.986  18.072   5.591
 4487POPC   GL158765   1.229  18.363   5.865
 4487POPC   GL258766   1.496  18.189   5.847
 4487POPC   C1A58767   1.240  18.501   6.313
 4487POPC   D2A58768   1.000  18.489   6.740
 4487POPC   C3A58769   1.217  18.452   7.126
 4487POPC   C4A58770   1.641  18.415   7.171
 4487POPC   C1B58771   1.419  17.956   6.201
 4487POPC   C2B58772   1.134  18.023   6.493
 4487POPC   C3B58773   1.099  17.984   6.919
 4487POPC   C4B58774   1.253  17.969   7.306
 4488POPC   NC358775   1.081   0.508   5.581
 4488POPC   PO458776   1.613   0.106   5.406
 4488POPC   GL158777   1.546   0.351   5.780
 4488POPC   GL258778   1.537   0.732   5.723
 4488POPC   C1A58779   1.414   0.409   6.231
 4488POPC   D2A58780   1.385   0.254   6.672
 4488POPC   C3A58781   1.092   0.433   6.985
 4488POPC   C4A58782   0.948   0.469   7.433
 4488POPC   C1B58783   1.250   0.940   6.043
 4488POPC   C2B58784   1.225   0.877   6.480
 4488POPC   C3B58785   1.459   0.761   6.853
 4488POPC   C4B58786   1.321   0.790   7.278
 4489POPC   NC358787  14.009   0.628   5.593
 4489POPC   PO458788  14.706   0.440   5.492
 4489POPC   GL158789  14.581   0.346   5.900
 4489POPC   GL258790  14.241   0.239   5.856
 4489POPC   C1A58791  14.397   0.432   6.319
 4489POPC   D2A58792  14.158   0.605   6.658
 4489POPC   C3A58793  14.442   0.716   7.003
 4489POPC   C4A58794  14.735   0.455   7.216
 4489POPC   C1B58795  14.344  44.943   6.178
 4489POPC   C2B58796  14.541   0.018   6.592
 4489POPC   C3B58797  14.359   0.210   6.954
 4489POPC   C4B58798  13.978   0.384   7.152
 4490POPC   NC358799  35.895  11.848   5.478
 4490POPC   PO458800  36.578  11.936   5.635
 4490POPC   GL158801  36.246  11.965   5.891
 4490POPC   GL258802  36.407  12.239   6.045
 4490POPC   C1A58803  35.966  12.000   6.257
 4490POPC   D2A58804  35.833  12.207   6.652
 4490POPC   C3A58805  35.839  11.884   6.944
 4490POPC   C4A58806  36.132  11.804   7.278
 4490POPC   C1B58807  36.468  11.906   6.361
 4490POPC   C2B58808  36.327  11.870   6.775
 4490POPC   C3B58809  36.209  12.216   7.012
 4490POPC   C4B58810  36.268  12.260   7.443
 4491POPC   NC358811  32.507  35.973   5.474
 4491POPC   PO458812  33.182  35.929   5.560
 4491POPC   GL158813  33.165  35.996   5.941
 4491POPC   GL258814  32.854  36.191   5.930
 4491POPC   C1A58815  33.241  36.214   6.300
 4491POPC   D2A58816  33.018  36.316   6.661
 4491POPC   C3A58817  33.051  36.089   7.051
 4491POPC   C4A58818  32.964  36.206   7.442
 4491POPC   C1B58819  32.822  35.923   6.316
 4491POPC   C2B58820  32.703  35.909   6.729
 4491POPC   C3B58821  32.562  35.951   7.129
 4491POPC   C4B58822  32.475  36.248   7.381
 4492POPC   NC358823  26.418   4.509   5.366
 4492POPC   PO458824  27.104   4.222   5.288
 4492POPC   GL158825  26.897   4.466   5.604
 4492POPC   GL258826  26.715   4.187   5.681
 4492POPC   C1A58827  26.950   4.517   6.064
 4492POPC   D2A58828  26.837   4.599   6.500
 4492POPC   C3A58829  26.994   4.843   6.861
 4492POPC   C4A58830  26.977   4.569   7.224
 4492POPC   C1B58831  26.689   4.085   6.116
 4492POPC   C2B58832  26.575   4.155   6.559
 4492POPC   C3B58833  26.750   4.108   6.970
 4492POPC   C4B58834  26.626   3.873   7.301
 4493POPC   NC358835  27.797  30.198   5.380
 4493POPC   PO458836  27.541  29.577   5.420
 4493POPC   GL158837  27.716  29.811   5.756
 4493POPC   GL258838  27.443  29.995   5.802
 4493POPC   C1A58839  27.821  30.008   6.175
 4493POPC   D2A58840  27.969  29.900   6.604
 4493POPC   C3A58841  27.761  29.992   6.991
 4493POPC   C4A58842  27.801  30.314   7.324
 4493POPC   C1B58843  27.422  29.694   6.170
 4493POPC   C2B58844  27.509  29.661   6.608
 4493POPC   C3B58845  27.301  29.754   6.987
 4493POPC   C4B58846  27.373  30.051   7.330
 4494POPC   NC358847  14.136  10.056   5.332
 4494POPC   PO458848  14.623   9.701   5.253
 4494POPC   GL158849  14.551   9.795   5.712
 4494POPC   GL258850  14.635   9.487   5.870
 4494POPC   C1A58851  14.620   9.923   6.198
 4494POPC   D2A58852  14.466  10.019   6.658
 4494POPC   C3A58853  14.595   9.906   7.088
 4494POPC   C4A58854  14.380   9.845   7.524
 4494POPC   C1B58855  14.533   9.439   6.332
 4494POPC   C2B58856  14.613   9.495   6.782
 4494POPC   C3B58857  14.362   9.449   7.177
 4494POPC   C4B58858  14.448   9.323   7.609
 4495POPC   NC358859  21.619  17.499   5.345
 4495POPC   PO458860  21.161  17.903   5.416
 4495POPC   GL158861  21.367  17.602   5.779
 4495POPC   GL258862  21.592  17.265   5.805
 4495POPC   C1A58863  21.490  17.656   6.222
 4495POPC   D2A58864  21.421  17.851   6.627
 4495POPC   C3A58865  21.403  17.600   7.009
 4495POPC   C4A58866  21.066  17.789   7.232
 4495POPC   C1B58867  21.833  17.284   6.233
 4495POPC   C2B58868  21.704  17.282   6.702
 4495POPC   C3B58869  21.618  17.121   7.165
 4495POPC   C4B58870  21.760  17.038   7.627
 4496POPC   NC358871   1.298  26.542   5.169
 4496POPC   PO458872   1.047  27.071   5.518
 4496POPC   GL158873   1.069  26.797   5.817
 4496POPC   GL258874   1.000  26.484   5.673
 4496POPC   C1A58875   1.105  26.935   6.231
 4496POPC   D2A58876   1.403  27.074   6.513
 4496POPC   C3A58877   1.292  27.069   6.938
 4496POPC   C4A58878   1.329  26.851   7.306
 4496POPC   C1B58879   1.140  26.401   6.131
 4496POPC   C2B58880   1.242  26.549   6.528
 4496POPC   C3B58881   1.366  26.497   6.929
 4496POPC   C4B58882   1.044  26.423   7.246
 4497POPC   NC358883  44.496  30.096   5.504
 4497POPC   PO458884  44.748  29.463   5.339
 4497POPC   GL158885  44.647  29.616   5.779
 4497POPC   GL258886  44.289  29.655   5.791
 4497POPC   C1A58887  44.853  29.742   6.216
 4497POPC   D2A58888   0.031  29.952   6.591
 4497POPC   C3A58889  44.904  29.896   7.006
 4497POPC   C4A58890  44.649  30.111   7.274
 4497POPC   C1B58891  44.355  29.683   6.239
 4497POPC   C2B58892  44.458  29.925   6.607
 4497POPC   C3B58893  44.387  29.765   7.011
 4497POPC   C4B58894  44.219  29.806   7.436
 4498POPC   NC358895   9.402   2.907   5.704
 4498POPC   PO458896   8.835   2.806   5.288
 4498POPC   GL158897   8.895   2.824   5.767
 4498POPC   GL258898   8.700   3.084   5.854
 4498POPC   C1A58899   9.019   3.025   6.236
 4498POPC   D2A58900   8.951   3.098   6.698
 4498POPC   C3A58901   9.064   2.689   6.936
 4498POPC   C4A58902   9.045   2.587   7.407
 4498POPC   C1B58903   8.601   2.718   6.188
 4498POPC   C2B58904   8.608   2.712   6.675
 4498POPC   C3B58905   8.603   2.649   7.144
 4498POPC   C4B58906   8.553   2.885   7.539
 4499POPC   NC358907  17.723  27.910   5.210
 4499POPC   PO458908  17.290  28.398   5.245
 4499POPC   GL158909  17.369  28.338   5.677
 4499POPC   GL258910  17.716  28.268   5.717
 4499POPC   C1A58911  17.334  28.482   6.102
 4499POPC   D2A58912  17.673  28.640   6.364
 4499POPC   C3A58913  17.544  28.676   6.802
 4499POPC   C4A58914  17.590  28.526   7.227
 4499POPC   C1B58915  17.678  28.087   6.151
 4499POPC   C2B58916  17.551  28.209   6.584
 4499POPC   C3B58917  17.482  28.099   7.002
 4499POPC   C4B58918  17.281  28.066   7.432
 4500POPC   NC358919  41.230   1.001   5.420
 4500POPC   PO458920  41.731   1.418   5.422
 4500POPC   GL158921  41.589   1.164   5.788
 4500POPC   GL258922  41.254   1.290   5.871
 4500POPC   C1A58923  41.585   1.248   6.256
 4500POPC   D2A58924  41.371   1.214   6.670
 4500POPC   C3A58925  41.656   1.246   7.049
 4500POPC   C4A58926  41.692   1.319   7.511
 4500POPC   C1B58927  41.179   1.572   6.249
 4500POPC   C2B58928  41.067   1.660   6.681
 4500POPC   C3B58929  41.278   1.582   7.064
 4500POPC   C4B58930  41.324   1.685   7.505
 4501POPC   NC358931  30.844  44.276   5.376
 4501POPC   PO458932  30.430  44.810   5.600
 4501POPC   GL158933  30.675  44.804   5.956
 4501POPC   GL258934  30.863  44.533   5.837
 4501POPC   C1A58935  30.762  44.712   6.374
 4501POPC   D2A58936  30.816  44.951   6.744
 4501POPC   C3A58937  30.724  44.701   7.103
 4501POPC   C4A58938  30.416  44.733   7.402
 4501POPC   C1B58939  31.157  44.242   6.031
 4501POPC   C2B58940  31.177  44.112   6.469
 4501POPC   C3B58941  30.919  44.088   6.827
 4501POPC   C4B58942  31.056  44.259   7.219
 4502POPC   NC358943   2.660   1.828   5.411
 4502POPC   PO458944   3.251   2.304   5.441
 4502POPC   GL158945   3.036   2.161   5.798
 4502POPC   GL258946   2.671   2.057   5.872
 4502POPC   C1A58947   3.108   2.008   6.195
 4502POPC   D2A58948   3.023   1.735   6.516
 4502POPC   C3A58949   2.792   1.932   6.838
 4502POPC   C4A58950   2.945   1.954   7.260
 4502POPC   C1B58951   2.620   2.030   6.338
 4502POPC   C2B58952   2.517   2.341   6.650
 4502POPC   C3B58953   2.391   2.221   7.055
 4502POPC   C4B58954   2.491   2.113   7.468
 4503POPC   NC358955  22.898  34.149   5.710
 4503POPC   PO458956  22.589  33.588   5.470
 4503POPC   GL158957  22.849  33.634   5.828
 4503POPC   GL258958  22.597  33.829   5.965
 4503POPC   C1A58959  23.005  33.716   6.258
 4503POPC   D2A58960  23.213  33.942   6.587
 4503POPC   C3A58961  22.935  34.152   6.880
 4503POPC   C4A58962  23.044  34.162   7.303
 4503POPC   C1B58963  22.534  33.480   6.228
 4503POPC   C2B58964  22.558  33.618   6.665
 4503POPC   C3B58965  22.840  33.658   7.011
 4503POPC   C4B58966  22.735  33.754   7.432
 4504POPC   NC358967   5.230   3.965   5.523
 4504POPC   PO458968   4.949   3.344   5.507
 4504POPC   GL158969   4.741   3.550   5.852
 4504POPC   GL258970   4.848   3.889   5.892
 4504POPC   C1A58971   4.821   3.507   6.322
 4504POPC   D2A58972   5.112   3.659   6.663
 4504POPC   C3A58973   5.349   3.394   6.956
 4504POPC   C4A58974   5.012   3.193   7.181
 4504POPC   C1B58975   5.202   3.915   6.207
 4504POPC   C2B58976   5.425   4.062   6.585
 4504POPC   C3B58977   5.374   3.936   7.018
 4504POPC   C4B58978   5.146   3.683   7.325
 4505POPC   NC358979  38.632   9.267   5.308
 4505POPC   PO458980  38.576   8.623   5.575
 4505POPC   GL158981  38.460   8.933   5.942
 4505POPC   GL258982  38.736   9.013   6.149
 4505POPC   C1A58983  38.340   9.115   6.398
 4505POPC   D2A58984  38.700   9.234   6.639
 4505POPC   C3A58985  38.513   9.123   7.004
 4505POPC   C4A58986  38.221   8.884   7.248
 4505POPC   C1B58987  38.786   8.694   6.427
 4505POPC   C2B58988  38.891   8.731   6.842
 4505POPC   C3B58989  38.696   8.696   7.229
 4505POPC   C4B58990  38.418   8.392   7.289
 4506POPC   NC358991  42.217  33.426   5.449
 4506POPC   PO458992  42.614  34.073   5.356
 4506POPC   GL158993  42.501  34.035   5.814
 4506POPC   GL258994  42.361  33.702   5.884
 4506POPC   C1A58995  42.588  33.949   6.276
 4506POPC   D2A58996  42.310  33.869   6.615
 4506POPC   C3A58997  42.382  33.882   7.058
 4506POPC   C4A58998  42.488  33.489   7.254
 4506POPC   C1B58999  42.059  33.968   6.141
 4506POPC   C2B59000  41.856  34.075   6.564
 4506POPC   C3B59001  41.876  34.181   7.027
 4506POPC   C4B59002  41.990  33.975   7.404
 4507POPC   NC359003   1.730  15.423   5.397
 4507POPC   PO459004   2.313  15.084   5.451
 4507POPC   GL159005   2.056  15.122   5.814
 4507POPC   GL259006   1.958  15.462   5.853
 4507POPC   C1A59007   2.071  15.172   6.280
 4507POPC   D2A59008   1.860  14.962   6.638
 4507POPC   C3A59009   1.998  15.137   7.027
 4507POPC   C4A59010   2.210  14.900   7.376
 4507POPC   C1B59011   1.789  15.599   6.255
 4507POPC   C2B59012   1.731  15.444   6.695
 4507POPC   C3B59013   1.794  15.613   7.091
 4507POPC   C4B59014   2.003  15.500   7.478
 4508POPC   NC359015  33.011  41.279   5.505
 4508POPC   PO459016  33.242  41.969   5.438
 4508POPC   GL159017  33.064  41.727   5.771
 4508POPC   GL259018  32.711  41.758   5.760
 4508POPC   C1A59019  33.031  41.466   6.177
 4508POPC   D2A59020  32.886  41.382   6.624
 4508POPC   C3A59021  33.272  41.391   6.897
 4508POPC   C4A59022  33.330  41.673   7.230
 4508POPC   C1B59023  32.589  41.728   6.223
 4508POPC   C2B59024  32.669  41.913   6.664
 4508POPC   C3B59025  32.664  41.793   7.130
 4508POPC   C4B59026  32.667  41.632   7.565
 4509POPC   NC359027  24.345  44.788   5.252
 4509POPC   PO459028  24.583  44.137   5.309
 4509POPC   GL159029  24.653  44.471   5.707
 4509POPC   GL259030  24.358  44.659   5.811
 4509POPC   C1A59031  24.792  44.828   6.090
 4509POPC   D2A59032  24.727   0.002   6.569
 4509POPC   C3A59033  24.562  44.697   6.960
 4509POPC   C4A59034  24.673  44.411   7.336
 4509POPC   C1B59035  24.338  44.730   6.277
 4509POPC   C2B59036  24.227  44.913   6.654
 4509POPC   C3B59037  24.162   0.025   7.104
 4509POPC   C4B59038  23.798  44.907   7.349
 4510POPC   NC359039  22.643  30.840   5.192
 4510POPC   PO459040  23.161  30.557   5.520
 4510POPC   GL159041  22.925  30.804   5.751
 4510POPC   GL259042  23.134  31.045   5.810
 4510POPC   C1A59043  22.854  30.752   6.179
 4510POPC   D2A59044  22.789  30.449   6.530
 4510POPC   C3A59045  22.757  30.679   6.903
 4510POPC   C4A59046  22.828  30.759   7.305
 4510POPC   C1B59047  23.247  31.060   6.229
 4510POPC   C2B59048  22.986  31.037   6.577
 4510POPC   C3B59049  23.036  31.095   6.989
 4510POPC   C4B59050  22.864  31.263   7.336
 4511POPC   NC359051  25.264  34.299   5.350
 4511POPC   PO459052  25.377  34.950   5.491
 4511POPC   GL159053  25.161  34.735   5.820
 4511POPC   GL259054  25.303  34.963   6.087
 4511POPC   C1A59055  25.009  34.586   6.250
 4511POPC   D2A59056  25.142  34.777   6.667
 4511POPC   C3A59057  24.921  34.636   7.067
 4511POPC   C4A59058  25.003  34.467   7.502
 4511POPC   C1B59059  25.522  34.556   6.185
 4511POPC   C2B59060  25.749  34.371   6.557
 4511POPC   C3B59061  25.753  34.480   7.004
 4511POPC   C4B59062  25.403  34.694   7.228
 4512POPC   NC359063  40.662  19.334   5.570
 4512POPC   PO459064  41.213  19.018   5.339
 4512POPC   GL159065  40.987  18.899   5.740
 4512POPC   GL259066  40.655  18.945   5.929
 4512POPC   C1A59067  41.057  19.111   6.161
 4512POPC   D2A59068  40.821  19.322   6.496
 4512POPC   C3A59069  40.820  19.095   6.893
 4512POPC   C4A59070  41.181  19.078   7.165
 4512POPC   C1B59071  40.586  18.878   6.371
 4512POPC   C2B59072  40.288  18.940   6.702
 4512POPC   C3B59073  40.375  18.913   7.149
 4512POPC   C4B59074  40.671  19.124   7.413
 4513POPC   NC359075  17.268  40.676   5.058
 4513POPC   PO459076  17.849  40.783   5.450
 4513POPC   GL159077  17.515  40.785   5.705
 4513POPC   GL259078  17.233  40.949   5.532
 4513POPC   C1A59079  17.539  40.571   6.115
 4513POPC   D2A59080  17.647  40.309   6.474
 4513POPC   C3A59081  17.558  40.536   6.837
 4513POPC   C4A59082  17.460  40.474   7.240
 4513POPC   C1B59083  17.173  41.019   5.999
 4513POPC   C2B59084  17.269  40.918   6.423
 4513POPC   C3B59085  17.449  41.038   6.813
 4513POPC   C4B59086  17.601  40.971   7.234
 4514POPC   NC359087   0.051  31.700   5.322
 4514POPC   PO459088   0.509  31.189   5.370
 4514POPC   GL159089   0.573  31.395   5.796
 4514POPC   GL259090   0.516  31.775   5.806
 4514POPC   C1A59091   0.584  31.278   6.238
 4514POPC   D2A59092   0.298  31.318   6.599
 4514POPC   C3A59093   0.492  31.318   6.990
 4514POPC   C4A59094   0.555  31.543   7.386
 4514POPC   C1B59095   0.442  31.769   6.299
 4514POPC   C2B59096   0.422  31.826   6.770
 4514POPC   C3B59097   0.167  31.694   7.091
 4514POPC   C4B59098   0.055  31.296   7.307
 4515POPC   NC359099  32.525  26.566   5.552
 4515POPC   PO459100  31.864  26.632   5.558
 4515POPC   GL159101  32.030  26.931   5.827
 4515POPC   GL259102  32.367  27.013   5.788
 4515POPC   C1A59103  32.012  26.823   6.229
 4515POPC   D2A59104  32.261  26.656   6.523
 4515POPC   C3A59105  32.015  26.772   6.834
 4515POPC   C4A59106  32.050  26.656   7.231
 4515POPC   C1B59107  32.443  27.084   6.224
 4515POPC   C2B59108  32.409  27.138   6.660
 4515POPC   C3B59109  32.487  26.824   6.992
 4515POPC   C4B59110  32.596  26.640   7.379
 4516POPC   NC359111  19.707  11.266   5.463
 4516POPC   PO459112  20.340  11.516   5.211
 4516POPC   GL159113  20.142  11.414   5.708
 4516POPC   GL259114  19.956  11.079   5.881
 4516POPC   C1A59115  19.922  11.425   6.204
 4516POPC   D2A59116  20.011  11.231   6.574
 4516POPC   C3A59117  19.845  11.374   6.943
 4516POPC   C4A59118  20.035  11.222   7.292
 4516POPC   C1B59119  19.562  11.061   6.117
 4516POPC   C2B59120  19.479  11.070   6.557
 4516POPC   C3B59121  19.344  11.000   6.969
 4516POPC   C4B59122  19.466  11.259   7.273
 4517POPC   NC359123  21.907  31.549   5.449
 4517POPC   PO459124  22.304  31.147   5.134
 4517POPC   GL159125  22.342  31.332   5.578
 4517POPC   GL259126  22.607  31.223   5.728
 4517POPC   C1A59127  22.129  31.451   6.029
 4517POPC   D2A59128  21.850  31.681   6.335
 4517POPC   C3A59129  21.829  31.718   6.803
 4517POPC   C4A59130  21.969  31.690   7.240
 4517POPC   C1B59131  22.483  31.120   6.142
 4517POPC   C2B59132  22.196  31.275   6.510
 4517POPC   C3B59133  22.259  31.417   6.923
 4517POPC   C4B59134  22.323  31.211   7.346
 4518POPC   NC359135  21.572  21.683   5.502
 4518POPC   PO459136  20.946  21.588   5.633
 4518POPC   GL159137  21.058  21.389   6.011
 4518POPC   GL259138  21.434  21.355   5.972
 4518POPC   C1A59139  21.143  21.416   6.409
 4518POPC   D2A59140  21.375  21.588   6.705
 4518POPC   C3A59141  21.307  21.500   7.136
 4518POPC   C4A59142  21.676  21.378   7.405
 4518POPC   C1B59143  21.621  21.223   6.407
 4518POPC   C2B59144  21.504  21.108   6.856
 4518POPC   C3B59145  21.548  20.896   7.247
 4518POPC   C4B59146  21.676  20.940   7.710
 4519POPC   NC359147  35.890  28.736   5.516
 4519POPC   PO459148  36.264  28.085   5.427
 4519POPC   GL159149  36.134  28.323   5.732
 4519POPC   GL259150  36.428  28.542   5.720
 4519POPC   C1A59151  35.886  28.286   6.108
 4519POPC   D2A59152  35.815  28.164   6.529
 4519POPC   C3A59153  35.970  28.429   6.859
 4519POPC   C4A59154  35.900  28.276   7.268
 4519POPC   C1B59155  36.293  28.656   6.131
 4519POPC   C2B59156  36.337  28.820   6.552
 4519POPC   C3B59157  36.464  28.744   6.951
 4519POPC   C4B59158  36.397  28.386   7.183
 4520POPC   NC359159   1.055  24.025   5.373
 4520POPC   PO459160   1.566  23.753   5.680
 4520POPC   GL159161   1.159  23.788   5.847
 4520POPC   GL259162   1.021  23.477   5.744
 4520POPC   C1A59163   1.044  24.013   6.226
 4520POPC   D2A59164   1.036  24.143   6.638
 4520POPC   C3A59165   0.930  23.827   6.893
 4520POPC   C4A59166   1.195  23.917   7.196
 4520POPC   C1B59167   1.193  23.340   6.137
 4520POPC   C2B59168   1.210  23.553   6.534
 4520POPC   C3B59169   1.376  23.508   6.943
 4520POPC   C4B59170   1.074  23.400   7.222
 4521POPC   NC359171  11.124  29.419   5.118
 4521POPC   PO459172  11.587  29.551   5.555
 4521POPC   GL159173  11.461  29.867   5.877
 4521POPC   GL259174  11.135  30.012   5.799
 4521POPC   C1A59175  11.462  29.790   6.316
 4521POPC   D2A59176  11.572  30.014   6.685
 4521POPC   C3A59177  11.494  29.764   7.052
 4521POPC   C4A59178  11.533  29.760   7.540
 4521POPC   C1B59179  10.970  29.865   6.212
 4521POPC   C2B59180  11.025  29.949   6.630
 4521POPC   C3B59181  11.171  30.174   6.958
 4521POPC   C4B59182  11.144  30.014   7.350
 4522POPC   NC359183   5.239  38.876   5.467
 4522POPC   PO459184   4.770  39.422   5.445
 4522POPC   GL159185   4.968  39.226   5.790
 4522POPC   GL259186   4.817  38.922   5.787
 4522POPC   C1A59187   5.247  39.253   6.165
 4522POPC   D2A59188   5.323  39.481   6.550
 4522POPC   C3A59189   5.230  39.478   6.982
 4522POPC   C4A59190   5.437  39.344   7.328
 4522POPC   C1B59191   4.782  39.045   6.232
 4522POPC   C2B59192   4.949  39.142   6.661
 4522POPC   C3B59193   4.980  39.046   7.116
 4522POPC   C4B59194   4.825  38.626   7.255
 4523POPC   NC359195  39.636   6.357   5.518
 4523POPC   PO459196  39.508   6.820   5.029
 4523POPC   GL159197  39.914   6.776   5.508
 4523POPC   GL259198  40.043   6.464   5.774
 4523POPC   C1A59199  39.848   6.818   6.068
 4523POPC   D2A59200  39.628   6.719   6.512
 4523POPC   C3A59201  39.710   6.868   6.968
 4523POPC   C4A59202  40.092   6.852   7.235
 4523POPC   C1B59203  39.752   6.308   6.157
 4523POPC   C2B59204  39.870   6.271   6.602
 4523POPC   C3B59205  40.044   6.331   7.027
 4523POPC   C4B59206  40.098   6.379   7.491
 4524POPC   NC359207   9.992  18.929   5.345
 4524POPC   PO459208   9.437  19.267   5.501
 4524POPC   GL159209   9.776  19.167   5.783
 4524POPC   GL259210   9.815  18.824   5.818
 4524POPC   C1A59211   9.912  19.110   6.227
 4524POPC   D2A59212   9.822  18.894   6.653
 4524POPC   C3A59213   9.779  19.149   7.058
 4524POPC   C4A59214   9.822  19.241   7.542
 4524POPC   C1B59215   9.559  18.734   6.198
 4524POPC   C2B59216   9.430  18.516   6.581
 4524POPC   C3B59217   9.572  18.573   7.010
 4524POPC   C4B59218   9.571  18.815   7.397
 4525POPC   NC359219  32.883   1.102   5.283
 4525POPC   PO459220  33.474   1.258   5.541
 4525POPC   GL159221  33.092   1.184   5.751
 4525POPC   GL259222  32.996   0.838   5.866
 4525POPC   C1A59223  32.930   1.348   6.134
 4525POPC   D2A59224  33.085   1.260   6.541
 4525POPC   C3A59225  32.950   1.427   6.896
 4525POPC   C4A59226  32.864   1.318   7.290
 4525POPC   C1B59227  33.243   0.836   6.272
 4525POPC   C2B59228  33.269   0.818   6.738
 4525POPC   C3B59229  33.290   1.066   7.078
 4525POPC   C4B59230  33.330   1.113   7.552
 4526POPC   NC359231  29.919   6.985   5.384
 4526POPC   PO459232  30.056   7.633   5.391
 4526POPC   GL159233  29.988   7.629   5.803
 4526POPC   GL259234  29.995   7.267   5.829
 4526POPC   C1A59235  30.029   7.672   6.257
 4526POPC   D2A59236  30.085   7.418   6.635
 4526POPC   C3A59237  30.239   7.619   6.995
 4526POPC   C4A59238  29.981   7.874   7.285
 4526POPC   C1B59239  30.162   7.095   6.213
 4526POPC   C2B59240  30.081   6.910   6.608
 4526POPC   C3B59241  29.775   7.027   6.911
 4526POPC   C4B59242  29.742   7.296   7.276
 4527POPC   NC359243  14.651  27.644   5.265
 4527POPC   PO459244  14.051  27.726   5.615
 4527POPC   GL159245  14.345  27.543   5.850
 4527POPC   GL259246  14.436  27.772   6.066
 4527POPC   C1A59247  14.268  27.329   6.219
 4527POPC   D2A59248  14.488  27.390   6.606
 4527POPC   C3A59249  14.289  27.675   6.908
 4527POPC   C4A59250  14.366  27.537   7.297
 4527POPC   C1B59251  14.810  27.917   6.174
 4527POPC   C2B59252  14.847  27.866   6.579
 4527POPC   C3B59253  14.804  27.683   6.947
 4527POPC   C4B59254  14.760  27.851   7.346
 4528POPC   NC359255  12.504  31.518   5.558
 4528POPC   PO459256  13.078  31.559   5.174
 4528POPC   GL159257  13.000  31.499   5.619
 4528POPC   GL259258  13.000  31.759   5.824
 4528POPC   C1A59259  12.930  31.335   6.068
 4528POPC   D2A59260  12.722  31.493   6.450
 4528POPC   C3A59261  12.869  31.269   6.797
 4528POPC   C4A59262  12.892  31.077   7.186
 4528POPC   C1B59263  12.638  31.865   6.108
 4528POPC   C2B59264  12.456  31.961   6.506
 4528POPC   C3B59265  12.682  31.936   6.893
 4528POPC   C4B59266  12.752  31.594   7.178
 4529POPC   NC359267  22.376  34.000   5.455
 4529POPC   PO459268  21.930  33.473   5.535
 4529POPC   GL159269  22.110  33.752   5.881
 4529POPC   GL259270  21.984  34.123   5.968
 4529POPC   C1A59271  22.169  33.831   6.327
 4529POPC   D2A59272  21.933  33.965   6.664
 4529POPC   C3A59273  22.064  33.605   6.890
 4529POPC   C4A59274  22.366  33.465   7.161
 4529POPC   C1B59275  22.179  34.346   6.375
 4529POPC   C2B59276  22.425  34.144   6.694
 4529POPC   C3B59277  22.235  34.033   7.089
 4529POPC   C4B59278  21.817  33.887   7.207
 4530POPC   NC359279  36.398  26.817   5.425
 4530POPC   PO459280  35.718  26.597   5.422
 4530POPC   GL159281  36.016  26.768   5.778
 4530POPC   GL259282  36.380  26.577   5.852
 4530POPC   C1A59283  36.204  26.920   6.194
 4530POPC   D2A59284  36.227  27.126   6.628
 4530POPC   C3A59285  36.197  26.916   7.052
 4530POPC   C4A59286  35.966  26.644   7.350
 4530POPC   C1B59287  36.301  26.412   6.239
 4530POPC   C2B59288  36.240  26.571   6.629
 4530POPC   C3B59289  36.246  26.411   7.001
 4530POPC   C4B59290  36.465  26.536   7.360
 4531POPC   NC359291  30.311  30.071   5.438
 4531POPC   PO459292  30.983  29.804   5.452
 4531POPC   GL159293  30.929  30.049   5.799
 4531POPC   GL259294  30.602  30.215   5.832
 4531POPC   C1A59295  30.824  29.944   6.223
 4531POPC   D2A59296  30.983  29.671   6.538
 4531POPC   C3A59297  30.834  29.728   6.946
 4531POPC   C4A59298  30.750  29.919   7.337
 4531POPC   C1B59299  30.545  30.359   6.250
 4531POPC   C2B59300  30.738  30.224   6.632
 4531POPC   C3B59301  30.600  30.306   7.015
 4531POPC   C4B59302  30.818  30.441   7.359
 4532POPC   NC359303   6.379  33.784   5.456
 4532POPC   PO459304   6.995  33.914   5.623
 4532POPC   GL159305   6.729  33.669   5.821
 4532POPC   GL259306   6.522  33.950   5.932
 4532POPC   C1A59307   6.703  33.584   6.236
 4532POPC   D2A59308   6.715  33.850   6.611
 4532POPC   C3A59309   6.724  33.629   7.010
 4532POPC   C4A59310   6.357  33.415   7.173
 4532POPC   C1B59311   6.279  34.056   6.324
 4532POPC   C2B59312   6.366  34.269   6.704
 4532POPC   C3B59313   6.633  34.122   7.042
 4532POPC   C4B59314   6.911  33.992   7.427
 4533POPC   NC359315  30.384  11.912   5.392
 4533POPC   PO459316  30.845  12.353   5.579
 4533POPC   GL159317  30.778  12.041   5.812
 4533POPC   GL259318  30.433  12.109   5.863
 4533POPC   C1A59319  30.965  11.937   6.206
 4533POPC   D2A59320  30.814  11.861   6.620
 4533POPC   C3A59321  30.901  12.161   6.951
 4533POPC   C4A59322  31.112  11.979   7.306
 4533POPC   C1B59323  30.431  11.944   6.260
 4533POPC   C2B59324  30.300  11.698   6.614
 4533POPC   C3B59325  30.487  11.770   7.017
 4533POPC   C4B59326  30.599  12.039   7.355
 4534POPC   NC359327  19.087  34.265   5.039
 4534POPC   PO459328  19.276  33.884   5.586
 4534POPC   GL159329  19.231  33.612   5.927
 4534POPC   GL259330  18.925  33.504   5.817
 4534POPC   C1A59331  19.161  33.750   6.362
 4534POPC   D2A59332  18.822  33.981   6.587
 4534POPC   C3A59333  18.882  33.898   7.028
 4534POPC   C4A59334  19.035  33.770   7.426
 4534POPC   C1B59335  18.853  33.368   6.243
 4534POPC   C2B59336  18.837  33.477   6.712
 4534POPC   C3B59337  19.135  33.445   7.042
 4534POPC   C4B59338  19.170  33.209   7.435
 4535POPC   NC359339   9.232  32.917   5.230
 4535POPC   PO459340   8.746  33.262   5.467
 4535POPC   GL159341   8.986  33.183   5.858
 4535POPC   GL259342   9.164  32.835   5.895
 4535POPC   C1A59343   8.750  33.000   6.264
 4535POPC   D2A59344   8.831  32.739   6.656
 4535POPC   C3A59345   8.742  32.865   7.082
 4535POPC   C4A59346   8.928  33.212   7.323
 4535POPC   C1B59347   9.243  33.050   6.280
 4535POPC   C2B59348   9.356  33.017   6.671
 4535POPC   C3B59349   9.228  32.925   7.018
 4535POPC   C4B59350   9.172  32.488   7.052
 4536POPC   NC359351  19.391  25.542   5.339
 4536POPC   PO459352  19.043  24.952   5.102
 4536POPC   GL159353  19.046  25.193   5.566
 4536POPC   GL259354  18.760  25.407   5.705
 4536POPC   C1A59355  19.048  25.186   6.069
 4536POPC   D2A59356  19.169  25.409   6.486
 4536POPC   C3A59357  19.371  25.262   6.871
 4536POPC   C4A59358  19.226  25.332   7.291
 4536POPC   C1B59359  18.617  25.534   6.141
 4536POPC   C2B59360  18.690  25.522   6.574
 4536POPC   C3B59361  18.836  25.389   6.961
 4536POPC   C4B59362  18.781  25.562   7.375
 4537POPC   NC359363  12.210  22.358   5.585
 4537POPC   PO459364  11.709  21.960   5.348
 4537POPC   GL159365  11.733  22.115   5.799
 4537POPC   GL259366  12.060  22.025   5.921
 4537POPC   C1A59367  11.692  22.110   6.273
 4537POPC   D2A59368  11.907  22.376   6.593
 4537POPC   C3A59369  11.820  22.201   7.001
 4537POPC   C4A59370  12.040  22.402   7.325
 4537POPC   C1B59371  12.086  21.757   6.249
 4537POPC   C2B59372  12.161  21.932   6.645
 4537POPC   C3B59373  12.349  22.144   6.971
 4537POPC   C4B59374  12.589  21.825   7.190
 4538POPC   NC359375  25.249   7.595   5.477
 4538POPC   PO459376  25.744   7.094   5.358
 4538POPC   GL159377  25.489   7.210   5.787
 4538POPC   GL259378  25.276   7.533   5.972
 4538POPC   C1A59379  25.521   7.208   6.255
 4538POPC   D2A59380  25.380   7.439   6.620
 4538POPC   C3A59381  25.374   7.158   6.958
 4538POPC   C4A59382  25.692   7.078   7.255
 4538POPC   C1B59383  24.956   7.453   6.319
 4538POPC   C2B59384  24.905   7.549   6.775
 4538POPC   C3B59385  25.097   7.522   7.189
 4538POPC   C4B59386  24.939   7.479   7.612
 4539POPC   NC359387   3.425  39.594   5.613
 4539POPC   PO459388   3.382  38.924   5.810
 4539POPC   GL159389   3.449  39.299   6.037
 4539POPC   GL259390   3.774  39.486   5.968
 4539POPC   C1A59391   3.330  39.285   6.466
 4539POPC   D2A59392   3.260  38.952   6.760
 4539POPC   C3A59393   3.616  38.964   7.009
 4539POPC   C4A59394   3.568  39.329   7.252
 4539POPC   C1B59395   3.871  39.344   6.362
 4539POPC   C2B59396   3.712  39.479   6.770
 4539POPC   C3B59397   3.867  39.714   7.120
 4539POPC   C4B59398   3.958  39.578   7.567
 4540POPC   NC359399   0.216  20.507   5.478
 4540POPC   PO459400   0.591  21.063   5.511
 4540POPC   GL159401   0.509  20.769   5.857
 4540POPC   GL259402   0.557  20.386   5.876
 4540POPC   C1A59403   0.243  20.639   6.219
 4540POPC   D2A59404   0.340  20.462   6.614
 4540POPC   C3A59405   0.266  20.666   7.000
 4540POPC   C4A59406  44.940  20.504   7.219
 4540POPC   C1B59407   0.729  20.298   6.326
 4540POPC   C2B59408   0.717  20.188   6.799
 4540POPC   C3B59409   0.678  20.429   7.163
 4540POPC   C4B59410   0.784  20.879   7.225
 4541POPC   NC359411  29.021  20.350   5.582
 4541POPC   PO459412  28.820  20.995   5.539
 4541POPC   GL159413  28.882  20.765   5.907
 4541POPC   GL259414  29.231  20.765   5.902
 4541POPC   C1A59415  28.982  20.602   6.328
 4541POPC   D2A59416  28.981  20.328   6.703
 4541POPC   C3A59417  29.032  20.619   7.044
 4541POPC   C4A59418  29.129  20.852   7.411
 4541POPC   C1B59419  29.459  20.899   6.291
 4541POPC   C2B59420  29.594  20.904   6.723
 4541POPC   C3B59421  29.546  20.723   7.120
 4541POPC   C4B59422  29.837  20.497   7.377
 4542POPC   NC359423  44.471  42.870   5.475
 4542POPC   PO459424   0.048  43.231   5.377
 4542POPC   GL159425  44.724  43.217   5.731
 4542POPC   GL259426  44.782  42.859   5.846
 4542POPC   C1A59427  44.503  43.149   6.175
 4542POPC   D2A59428  44.384  43.049   6.630
 4542POPC   C3A59429  44.642  43.237   6.970
 4542POPC   C4A59430  44.604  43.216   7.457
 4542POPC   C1B59431  44.822  42.761   6.234
 4542POPC   C2B59432  44.854  42.847   6.665
 4542POPC   C3B59433  44.617  42.692   6.987
 4542POPC   C4B59434  44.610  42.650   7.431
 4543POPC   NC359435  31.132  11.497   5.386
 4543POPC   PO459436  30.532  11.475   5.393
 4543POPC   GL159437  30.670  11.548   5.819
 4543POPC   GL259438  31.021  11.529   5.884
 4543POPC   C1A59439  30.673  11.501   6.266
 4543POPC   D2A59440  30.571  11.151   6.486
 4543POPC   C3A59441  30.477  11.260   6.870
 4543POPC   C4A59442  30.452  11.028   7.229
 4543POPC   C1B59443  31.035  11.156   6.186
 4543POPC   C2B59444  31.036  11.287   6.649
 4543POPC   C3B59445  30.929  11.242   7.115
 4543POPC   C4B59446  31.059  11.473   7.491
 4544POPC   NC359447  31.746  44.967   5.268
 4544POPC   PO459448  31.216  44.562   5.407
 4544POPC   GL159449  31.454  44.617   5.788
 4544POPC   GL259450  31.228  44.843   5.972
 4544POPC   C1A59451  31.701  44.810   6.138
 4544POPC   D2A59452  31.859  44.645   6.521
 4544POPC   C3A59453  31.637  44.755   6.907
 4544POPC   C4A59454  31.480  44.524   7.274
 4544POPC   C1B59455  31.279  44.638   6.381
 4544POPC   C2B59456  31.166  44.581   6.810
 4544POPC   C3B59457  31.182  44.916   7.137
 4544POPC   C4B59458  31.231  44.902   7.554
 4545POPC   NC359459  22.550  31.603   5.165
 4545POPC   PO459460  23.201  31.429   5.033
 4545POPC   GL159461  23.004  31.428   5.510
 4545POPC   GL259462  22.879  31.705   5.690
 4545POPC   C1A59463  22.920  31.397   6.065
 4545POPC   D2A59464  22.694  31.436   6.467
 4545POPC   C3A59465  22.771  31.525   6.899
 4545POPC   C4A59466  22.545  31.667   7.266
 4545POPC   C1B59467  22.731  31.856   6.142
 4545POPC   C2B59468  22.866  31.925   6.577
 4545POPC   C3B59469  22.857  32.011   7.034
 4545POPC   C4B59470  23.043  31.731   7.363
 4546POPC   NC359471  18.305  22.504   5.403
 4546POPC   PO459472  17.945  21.971   5.232
 4546POPC   GL159473  18.145  22.119   5.674
 4546POPC   GL259474  18.090  21.843   5.926
 4546POPC   C1A59475  18.299  22.261   6.081
 4546POPC   D2A59476  18.303  21.989   6.428
 4546POPC   C3A59477  18.273  22.195   6.822
 4546POPC   C4A59478  18.420  22.074   7.220
 4546POPC   C1B59479  17.836  21.803   6.282
 4546POPC   C2B59480  17.845  21.910   6.711
 4546POPC   C3B59481  17.925  21.774   7.119
 4546POPC   C4B59482  17.955  21.824   7.568
 4547POPC   NC359483   8.884  22.084   5.444
 4547POPC   PO459484   9.334  22.527   5.221
 4547POPC   GL159485   9.157  22.474   5.705
 4547POPC   GL259486   9.064  22.131   5.907
 4547POPC   C1A59487   9.051  22.527   6.191
 4547POPC   D2A59488   8.922  22.161   6.467
 4547POPC   C3A59489   8.956  22.203   6.905
 4547POPC   C4A59490   9.190  22.489   7.177
 4547POPC   C1B59491   9.216  21.823   6.189
 4547POPC   C2B59492   9.336  21.840   6.581
 4547POPC   C3B59493   9.210  21.744   6.973
 4547POPC   C4B59494   9.270  21.907   7.362
 4548POPC   NC359495   7.427  42.332   5.521
 4548POPC   PO459496   7.090  42.832   5.400
 4548POPC   GL159497   7.167  42.625   5.856
 4548POPC   GL259498   7.245  42.241   5.973
 4548POPC   C1A59499   7.371  42.626   6.254
 4548POPC   D2A59500   7.501  42.482   6.646
 4548POPC   C3A59501   7.292  42.638   6.968
 4548POPC   C4A59502   7.237  42.504   7.358
 4548POPC   C1B59503   7.574  42.131   6.286
 4548POPC   C2B59504   7.749  42.043   6.722
 4548POPC   C3B59505   7.519  42.178   7.095
 4548POPC   C4B59506   7.603  42.228   7.564
 4549POPC   NC359507   3.272  30.817   5.481
 4549POPC   PO459508   2.542  30.986   5.582
 4549POPC   GL159509   2.889  30.975   5.855
 4549POPC   GL259510   2.986  30.631   5.901
 4549POPC   C1A59511   2.846  31.080   6.296
 4549POPC   D2A59512   2.882  30.847   6.677
 4549POPC   C3A59513   2.852  31.057   7.084
 4549POPC   C4A59514   2.641  30.957   7.475
 4549POPC   C1B59515   2.625  30.629   6.244
 4549POPC   C2B59516   2.459  30.561   6.696
 4549POPC   C3B59517   2.721  30.540   7.095
 4549POPC   C4B59518   3.094  30.258   7.233
 4550POPC   NC359519  39.472  21.646   5.682
 4550POPC   PO459520  39.064  22.102   5.301
 4550POPC   GL159521  39.178  22.195   5.736
 4550POPC   GL259522  39.508  22.264   5.849
 4550POPC   C1A59523  39.144  22.122   6.200
 4550POPC   D2A59524  39.255  22.159   6.649
 4550POPC   C3A59525  39.055  22.242   7.032
 4550POPC   C4A59526  39.239  22.274   7.446
 4550POPC   C1B59527  39.605  22.550   6.188
 4550POPC   C2B59528  39.676  22.483   6.618
 4550POPC   C3B59529  39.550  22.422   7.044
 4550POPC   C4B59530  39.752  22.276   7.456
 4551POPC   NC359531  33.638  16.149   5.417
 4551POPC   PO459532  33.645  16.849   5.287
 4551POPC   GL159533  33.673  16.580   5.726
 4551POPC   GL259534  33.946  16.335   5.815
 4551POPC   C1A59535  33.602  16.481   6.205
 4551POPC   D2A59536  33.487  16.548   6.670
 4551POPC   C3A59537  33.601  16.885   6.977
 4551POPC   C4A59538  33.677  17.152   7.363
 4551POPC   C1B59539  34.140  16.531   6.200
 4551POPC   C2B59540  34.008  16.635   6.631
 4551POPC   C3B59541  33.881  16.434   7.014
 4551POPC   C4B59542  33.785  16.633   7.403
 4552POPC   NC359543  11.655  43.425   5.682
 4552POPC   PO459544  11.130  43.238   5.350
 4552POPC   GL159545  11.180  43.191   5.772
 4552POPC   GL259546  11.393  42.900   5.718
 4552POPC   C1A59547  11.356  43.134   6.182
 4552POPC   D2A59548  11.226  42.997   6.540
 4552POPC   C3A59549  11.339  43.125   6.923
 4552POPC   C4A59550  11.100  43.123   7.264
 4552POPC   C1B59551  11.672  42.705   6.036
 4552POPC   C2B59552  11.729  42.800   6.484
 4552POPC   C3B59553  11.800  42.789   6.936
 4552POPC   C4B59554  11.507  42.800   7.260
 4553POPC   NC359555  38.772  35.702   5.405
 4553POPC   PO459556  39.457  35.399   5.374
 4553POPC   GL159557  39.359  35.475   5.781
 4553POPC   GL259558  39.022  35.410   5.773
 4553POPC   C1A59559  39.403  35.348   6.212
 4553POPC   D2A59560  39.516  35.345   6.648
 4553POPC   C3A59561  39.240  35.213   6.999
 4553POPC   C4A59562  39.238  35.473   7.371
 4553POPC   C1B59563  38.979  35.716   6.111
 4553POPC   C2B59564  39.175  35.723   6.504
 4553POPC   C3B59565  39.059  35.684   6.926
 4553POPC   C4B59566  38.770  35.762   7.240
 4554POPC   NC359567  37.581  23.348   5.518
 4554POPC   PO459568  38.009  22.748   5.500
 4554POPC   GL159569  37.814  22.984   5.845
 4554POPC   GL259570  37.462  22.925   5.839
 4554POPC   C1A59571  37.720  23.036   6.300
 4554POPC   D2A59572  37.852  23.170   6.716
 4554POPC   C3A59573  37.700  22.984   7.110
 4554POPC   C4A59574  37.722  23.216   7.518
 4554POPC   C1B59575  37.266  22.818   6.266
 4554POPC   C2B59576  37.415  22.773   6.706
 4554POPC   C3B59577  37.316  22.628   7.148
 4554POPC   C4B59578  37.442  22.786   7.582
 4555POPC   NC359579  31.135  36.756   5.079
 4555POPC   PO459580  30.743  37.209   5.287
 4555POPC   GL159581  30.717  37.029   5.712
 4555POPC   GL259582  30.985  36.776   5.639
 4555POPC   C1A59583  30.395  36.931   6.074
 4555POPC   D2A59584  30.468  36.746   6.477
 4555POPC   C3A59585  30.283  36.839   6.884
 4555POPC   C4A59586  30.486  36.799   7.281
 4555POPC   C1B59587  30.885  36.684   6.089
 4555POPC   C2B59588  30.917  36.531   6.531
 4555POPC   C3B59589  30.815  36.733   6.895
 4555POPC   C4B59590  31.012  36.596   7.234
 4556POPC   NC359591  39.849  17.317   5.334
 4556POPC   PO459592  40.261  17.819   5.199
 4556POPC   GL159593  40.053  17.641   5.651
 4556POPC   GL259594  39.714  17.470   5.803
 4556POPC   C1A59595  40.089  17.494   6.123
 4556POPC   D2A59596  39.945  17.635   6.514
 4556POPC   C3A59597  40.102  17.503   6.892
 4556POPC   C4A59598  40.100  17.683   7.302
 4556POPC   C1B59599  39.602  17.334   6.248
 4556POPC   C2B59600  39.641  17.297   6.729
 4556POPC   C3B59601  39.665  17.405   7.154
 4556POPC   C4B59602  39.711  17.271   7.564
 4557POPC   NC359603  34.490  30.093   5.274
 4557POPC   PO459604  34.858  29.567   5.346
 4557POPC   GL159605  34.594  29.698   5.709
 4557POPC   GL259606  34.591  30.053   5.782
 4557POPC   C1A59607  34.439  29.727   6.132
 4557POPC   D2A59608  34.511  29.942   6.516
 4557POPC   C3A59609  34.480  29.759   6.936
 4557POPC   C4A59610  34.435  30.121   7.250
 4557POPC   C1B59611  34.900  29.983   6.149
 4557POPC   C2B59612  34.999  30.067   6.618
 4557POPC   C3B59613  34.926  29.985   7.064
 4557POPC   C4B59614  34.934  30.099   7.501
 4558POPC   NC359615  25.695  10.721   5.458
 4558POPC   PO459616  25.792  10.032   5.355
 4558POPC   GL159617  25.922  10.342   5.723
 4558POPC   GL259618  26.273  10.457   5.674
 4558POPC   C1A59619  26.016  10.603   6.127
 4558POPC   D2A59620  25.861  10.677   6.570
 4558POPC   C3A59621  26.070  10.644   6.963
 4558POPC   C4A59622  26.090  10.286   7.241
 4558POPC   C1B59623  26.375  10.257   6.085
 4558POPC   C2B59624  26.363  10.439   6.560
 4558POPC   C3B59625  26.543  10.478   7.011
 4558POPC   C4B59626  26.467  10.747   7.379
 4559POPC   NC359627  40.195   0.111   5.456
 4559POPC   PO459628  39.660   0.550   5.355
 4559POPC   GL159629  39.868   0.405   5.755
 4559POPC   GL259630  40.229   0.510   5.763
 4559POPC   C1A59631  39.893   0.240   6.212
 4559POPC   D2A59632  39.877   0.161   6.697
 4559POPC   C3A59633  40.114   0.319   7.058
 4559POPC   C4A59634  39.951   0.397   7.482
 4559POPC   C1B59635  40.380   0.394   6.162
 4559POPC   C2B59636  40.220   0.537   6.565
 4559POPC   C3B59637  40.230   0.813   6.922
 4559POPC   C4B59638  40.329   0.758   7.344
 4560POPC   NC359639   3.390  36.395   5.302
 4560POPC   PO459640   4.013  36.158   5.335
 4560POPC   GL159641   3.783  35.993   5.755
 4560POPC   GL259642   3.532  36.209   5.760
 4560POPC   C1A59643   3.533  35.873   6.154
 4560POPC   D2A59644   3.464  36.120   6.540
 4560POPC   C3A59645   3.537  35.971   6.928
 4560POPC   C4A59646   3.639  36.051   7.321
 4560POPC   C1B59647   3.347  36.394   6.131
 4560POPC   C2B59648   3.386  36.651   6.541
 4560POPC   C3B59649   3.318  36.502   6.974
 4560POPC   C4B59650   3.518  36.532   7.398
 4561POPC   NC359651   9.341  39.047   5.504
 4561POPC   PO459652  10.005  39.125   5.354
 4561POPC   GL159653   9.847  39.060   5.786
 4561POPC   GL259654   9.620  39.302   5.866
 4561POPC   C1A59655   9.762  39.093   6.299
 4561POPC   D2A59656   9.822  39.388   6.674
 4561POPC   C3A59657   9.779  39.180   7.052
 4561POPC   C4A59658   9.890  38.757   7.063
 4561POPC   C1B59659   9.520  39.540   6.225
 4561POPC   C2B59660   9.323  39.402   6.607
 4561POPC   C3B59661   9.269  39.097   6.929
 4561POPC   C4B59662   9.326  39.396   7.241
 4562POPC   NC359663   4.975  15.827   5.300
 4562POPC   PO459664   5.288  16.361   5.466
 4562POPC   GL159665   5.101  16.124   5.824
 4562POPC   GL259666   4.875  15.824   5.788
 4562POPC   C1A59667   5.089  16.138   6.304
 4562POPC   D2A59668   5.304  16.100   6.697
 4562POPC   C3A59669   5.037  16.189   7.006
 4562POPC   C4A59670   4.711  16.092   7.266
 4562POPC   C1B59671   5.121  15.679   6.111
 4562POPC   C2B59672   4.996  15.659   6.532
 4562POPC   C3B59673   4.843  15.722   6.941
 4562POPC   C4B59674   5.092  15.694   7.318
 4563POPC   NC359675  29.435   1.468   5.413
 4563POPC   PO459676  28.872   1.126   5.465
 4563POPC   GL159677  29.032   1.009   5.856
 4563POPC   GL259678  29.373   0.844   5.767
 4563POPC   C1A59679  28.938   1.216   6.276
 4563POPC   D2A59680  28.991   1.359   6.730
 4563POPC   C3A59681  29.320   1.233   7.034
 4563POPC   C4A59682  29.400   1.285   7.503
 4563POPC   C1B59683  29.269   0.718   6.192
 4563POPC   C2B59684  29.190   0.876   6.578
 4563POPC   C3B59685  29.119   0.737   6.956
 4563POPC   C4B59686  29.339   0.775   7.302
 4564POPC   NC359687  21.228  40.417   5.390
 4564POPC   PO459688  21.694  39.888   5.590
 4564POPC   GL159689  21.416  40.025   5.909
 4564POPC   GL259690  21.196  40.281   5.873
 4564POPC   C1A59691  21.221  39.937   6.302
 4564POPC   D2A59692  21.014  39.699   6.630
 4564POPC   C3A59693  21.232  39.851   6.968
 4564POPC   C4A59694  21.650  39.938   7.134
 4564POPC   C1B59695  20.909  40.334   6.213
 4564POPC   C2B59696  20.937  40.202   6.627
 4564POPC   C3B59697  20.950  40.283   7.009
 4564POPC   C4B59698  21.258  40.216   7.325
 4565POPC   NC359699  10.695   3.905   5.330
 4565POPC   PO459700  10.012   3.916   5.407
 4565POPC   GL159701  10.258   4.165   5.738
 4565POPC   GL259702  10.653   4.138   5.805
 4565POPC   C1A59703  10.311   4.404   6.123
 4565POPC   D2A59704  10.462   4.346   6.535
 4565POPC   C3A59705  10.151   4.324   6.875
 4565POPC   C4A59706  10.244   4.114   7.265
 4565POPC   C1B59707  10.836   4.016   6.227
 4565POPC   C2B59708  10.878   4.048   6.689
 4565POPC   C3B59709  10.668   4.281   7.023
 4565POPC   C4B59710  10.401   4.613   7.218
 4566POPC   NC359711  38.229  26.364   5.299
 4566POPC   PO459712  38.631  26.955   5.317
 4566POPC   GL159713  38.556  26.890   5.735
 4566POPC   GL259714  38.512  26.547   5.696
 4566POPC   C1A59715  38.364  26.814   6.136
 4566POPC   D2A59716  38.288  26.982   6.519
 4566POPC   C3A59717  38.317  26.773   6.916
 4566POPC   C4A59718  38.052  26.955   7.212
 4566POPC   C1B59719  38.770  26.511   6.093
 4566POPC   C2B59720  38.720  26.693   6.501
 4566POPC   C3B59721  38.731  26.474   6.877
 4566POPC   C4B59722  38.754  26.609   7.253
 4567POPC   NC359723  41.719  17.663   5.338
 4567POPC   PO459724  41.149  17.367   5.290
 4567POPC   GL159725  41.291  17.661   5.694
 4567POPC   GL259726  41.636  17.763   5.859
 4567POPC   C1A59727  41.255  17.733   6.172
 4567POPC   D2A59728  41.253  17.770   6.631
 4567POPC   C3A59729  41.476  17.478   6.879
 4567POPC   C4A59730  41.716  17.543   7.228
 4567POPC   C1B59731  41.702  17.949   6.324
 4567POPC   C2B59732  41.870  17.775   6.758
 4567POPC   C3B59733  42.095  17.851   7.152
 4567POPC   C4B59734  42.022  17.708   7.625
 4568POPC   NC359735  16.543  18.542   5.493
 4568POPC   PO459736  17.123  18.194   5.533
 4568POPC   GL159737  16.856  18.434   5.883
 4568POPC   GL259738  16.440  18.443   5.977
 4568POPC   C1A59739  16.800  18.337   6.328
 4568POPC   D2A59740  16.716  18.451   6.748
 4568POPC   C3A59741  16.978  18.302   7.090
 4568POPC   C4A59742  16.841  17.939   7.348
 4568POPC   C1B59743  16.242  18.666   6.348
 4568POPC   C2B59744  16.288  18.688   6.819
 4568POPC   C3B59745  16.428  18.408   7.193
 4568POPC   C4B59746  16.257  18.459   7.629
 4569POPC   NC359747  37.811   0.155   5.468
 4569POPC   PO459748  37.552  44.548   5.523
 4569POPC   GL159749  37.863  44.719   5.810
 4569POPC   GL259750  38.075  44.414   5.931
 4569POPC   C1A59751  37.690  44.905   6.187
 4569POPC   D2A59752  37.546  44.695   6.543
 4569POPC   C3A59753  37.691  44.858   6.921
 4569POPC   C4A59754  38.088  44.810   7.188
 4569POPC   C1B59755  37.680  44.347   6.125
 4569POPC   C2B59756  37.523  44.167   6.461
 4569POPC   C3B59757  37.555  44.314   6.879
 4569POPC   C4B59758  37.731  44.459   7.240
 4570POPC   NC359759  11.639  32.496   5.431
 4570POPC   PO459760  11.050  32.192   5.236
 4570POPC   GL159761  11.242  32.237   5.635
 4570POPC   GL259762  11.484  31.950   5.709
 4570POPC   C1A59763  11.183  32.384   6.070
 4570POPC   D2A59764  10.999  32.331   6.508
 4570POPC   C3A59765  11.199  32.440   6.929
 4570POPC   C4A59766  11.118  32.592   7.383
 4570POPC   C1B59767  11.369  31.931   6.172
 4570POPC   C2B59768  11.462  32.054   6.619
 4570POPC   C3B59769  11.394  32.002   7.074
 4570POPC   C4B59770  11.380  31.908   7.532
 4571POPC   NC359771   2.974  20.073   5.417
 4571POPC   PO459772   2.539  19.544   5.638
 4571POPC   GL159773   2.783  19.824   5.895
 4571POPC   GL259774   2.731  20.197   5.880
 4571POPC   C1A59775   2.760  19.962   6.333
 4571POPC   D2A59776   3.043  19.996   6.655
 4571POPC   C3A59777   2.983  19.685   6.949
 4571POPC   C4A59778   3.178  19.626   7.307
 4571POPC   C1B59779   2.358  20.275   6.194
 4571POPC   C2B59780   2.320  20.124   6.634
 4571POPC   C3B59781   2.654  20.112   6.968
 4571POPC   C4B59782   2.740  19.921   7.354
 4572POPC   NC359783   9.495  15.757   5.451
 4572POPC   PO459784  10.086  16.074   5.451
 4572POPC   GL159785   9.953  15.792   5.833
 4572POPC   GL259786   9.607  15.659   5.941
 4572POPC   C1A59787   9.926  15.826   6.295
 4572POPC   D2A59788   9.914  16.081   6.641
 4572POPC   C3A59789   9.624  15.902   6.917
 4572POPC   C4A59790   9.764  15.770   7.307
 4572POPC   C1B59791   9.498  16.089   6.106
 4572POPC   C2B59792   9.398  16.256   6.526
 4572POPC   C3B59793   9.613  16.426   6.881
 4572POPC   C4B59794   9.611  16.270   7.274
 4573POPC   NC359795   0.330   1.386   5.451
 4573POPC   PO459796   0.850   0.906   5.467
 4573POPC   GL159797   0.701   1.195   5.788
 4573POPC   GL259798   0.308   1.163   5.914
 4573POPC   C1A59799   0.723   1.042   6.198
 4573POPC   D2A59800   0.392   1.042   6.525
 4573POPC   C3A59801   0.470   1.002   6.975
 4573POPC   C4A59802   0.839   0.963   7.266
 4573POPC   C1B59803   0.033   1.314   6.272
 4573POPC   C2B59804   0.156   1.470   6.704
 4573POPC   C3B59805   0.151   1.441   7.141
 4573POPC   C4B59806   0.132   1.798   7.431
 4574POPC   NC359807  38.632  14.994   5.516
 4574POPC   PO459808  38.069  14.995   5.145
 4574POPC   GL159809  38.228  15.222   5.689
 4574POPC   GL259810  38.497  14.931   5.972
 4574POPC   C1A59811  38.178  15.243   6.145
 4574POPC   D2A59812  38.404  14.927   6.478
 4574POPC   C3A59813  38.419  15.002   6.913
 4574POPC   C4A59814  38.155  15.230   7.177
 4574POPC   C1B59815  38.679  15.276   6.213
 4574POPC   C2B59816  38.532  15.418   6.598
 4574POPC   C3B59817  38.671  15.460   6.987
 4574POPC   C4B59818  38.563  15.486   7.396
 4575POPC   NC359819  15.243   5.298   5.214
 4575POPC   PO459820  15.255   4.608   5.216
 4575POPC   GL159821  15.344   4.944   5.587
 4575POPC   GL259822  15.131   5.275   5.707
 4575POPC   C1A59823  15.396   5.025   6.043
 4575POPC   D2A59824  15.123   4.949   6.395
 4575POPC   C3A59825  15.297   5.030   6.796
 4575POPC   C4A59826  15.345   5.333   7.119
 4575POPC   C1B59827  14.962   5.378   6.139
 4575POPC   C2B59828  14.805   5.288   6.599
 4575POPC   C3B59829  14.840   5.454   7.030
 4575POPC   C4B59830  14.966   5.365   7.455
 4576POPC   NC359831  19.348  24.550   5.225
 4576POPC   PO459832  19.931  24.768   5.349
 4576POPC   GL159833  19.919  24.464   5.649
 4576POPC   GL259834  19.594  24.312   5.656
 4576POPC   C1A59835  19.971  24.527   6.086
 4576POPC   D2A59836  19.800  24.623   6.488
 4576POPC   C3A59837  19.999  24.458   6.889
 4576POPC   C4A59838  20.073  24.249   7.286
 4576POPC   C1B59839  19.514  24.281   6.110
 4576POPC   C2B59840  19.340  24.423   6.503
 4576POPC   C3B59841  19.487  24.480   6.900
 4576POPC   C4B59842  19.544  24.243   7.258
 4577POPC   NC359843  42.695   2.508   5.445
 4577POPC   PO459844  42.029   2.801   5.315
 4577POPC   GL159845  42.173   2.759   5.742
 4577POPC   GL259846  42.010   2.460   5.884
 4577POPC   C1A59847  42.267   2.917   6.176
 4577POPC   D2A59848  42.107   3.139   6.551
 4577POPC   C3A59849  42.264   3.011   6.965
 4577POPC   C4A59850  42.009   2.794   7.266
 4577POPC   C1B59851  42.431   2.436   6.075
 4577POPC   C2B59852  42.606   2.310   6.455
 4577POPC   C3B59853  42.690   2.295   6.883
 4577POPC   C4B59854  42.425   2.504   7.189
 4578POPC   NC359855   2.754   6.280   5.612
 4578POPC   PO459856   2.860   5.643   5.271
 4578POPC   GL159857   2.725   5.736   5.698
 4578POPC   GL259858   3.038   5.894   5.780
 4578POPC   C1A59859   2.510   5.725   6.132
 4578POPC   D2A59860   2.470   5.967   6.536
 4578POPC   C3A59861   2.562   5.740   6.924
 4578POPC   C4A59862   2.682   5.504   7.308
 4578POPC   C1B59863   2.924   6.000   6.236
 4578POPC   C2B59864   2.950   6.087   6.708
 4578POPC   C3B59865   2.941   5.994   7.163
 4578POPC   C4B59866   2.912   5.844   7.599
 4579POPC   NC359867   5.375  17.270   5.508
 4579POPC   PO459868   5.145  17.833   5.435
 4579POPC   GL159869   5.195  17.667   5.835
 4579POPC   GL259870   4.954  17.852   6.036
 4579POPC   C1A59871   5.129  17.384   6.194
 4579POPC   D2A59872   5.033  17.446   6.629
 4579POPC   C3A59873   5.276  17.261   6.932
 4579POPC   C4A59874   5.315  17.540   7.258
 4579POPC   C1B59875   4.944  17.981   6.471
 4579POPC   C2B59876   4.770  17.832   6.857
 4579POPC   C3B59877   4.817  17.496   7.139
 4579POPC   C4B59878   4.885  17.545   7.579
 4580POPC   NC359879  22.318  36.299   5.460
 4580POPC   PO459880  21.734  35.868   5.442
 4580POPC   GL159881  22.003  36.013   5.754
 4580POPC   GL259882  22.291  35.839   5.779
 4580POPC   C1A59883  22.065  36.242   6.141
 4580POPC   D2A59884  22.062  36.058   6.541
 4580POPC   C3A59885  22.038  36.264   6.920
 4580POPC   C4A59886  21.906  36.123   7.340
 4580POPC   C1B59887  22.479  35.941   6.153
 4580POPC   C2B59888  22.562  35.911   6.565
 4580POPC   C3B59889  22.364  35.866   6.944
 4580POPC   C4B59890  22.456  35.772   7.379
 4581POPC   NC359891   7.964   4.387   5.397
 4581POPC   PO459892   8.415   3.910   5.422
 4581POPC   GL159893   8.205   4.117   5.792
 4581POPC   GL259894   7.831   4.082   5.798
 4581POPC   C1A59895   8.237   4.336   6.203
 4581POPC   D2A59896   8.371   4.560   6.581
 4581POPC   C3A59897   8.197   4.421   6.965
 4581POPC   C4A59898   8.223   4.291   7.384
 4581POPC   C1B59899   7.921   3.921   6.194
 4581POPC   C2B59900   8.083   4.031   6.605
 4581POPC   C3B59901   8.123   3.911   7.015
 4581POPC   C4B59902   7.764   3.821   7.203
 4582POPC   NC359903  27.920  10.073   5.580
 4582POPC   PO459904  27.406   9.621   5.313
 4582POPC   GL159905  27.539   9.661   5.736
 4582POPC   GL259906  27.890   9.528   5.678
 4582POPC   C1A59907  27.402   9.635   6.190
 4582POPC   D2A59908  27.622   9.690   6.626
 4582POPC   C3A59909  27.376   9.776   7.026
 4582POPC   C4A59910  27.404   9.810   7.506
 4582POPC   C1B59911  27.895   9.623   6.117
 4582POPC   C2B59912  27.988   9.353   6.472
 4582POPC   C3B59913  28.030   9.356   6.907
 4582POPC   C4B59914  27.722   9.479   7.251
 4583POPC   NC359915  20.201  43.285   5.295
 4583POPC   PO459916  20.826  43.133   5.403
 4583POPC   GL159917  20.731  43.112   5.808
 4583POPC   GL259918  20.846  42.777   5.876
 4583POPC   C1A59919  20.411  43.121   6.110
 4583POPC   D2A59920  20.321  43.190   6.539
 4583POPC   C3A59921  20.561  43.202   6.939
 4583POPC   C4A59922  20.872  43.332   7.242
 4583POPC   C1B59923  20.652  42.693   6.272
 4583POPC   C2B59924  20.677  42.756   6.711
 4583POPC   C3B59925  20.807  42.776   7.133
 4583POPC   C4B59926  20.490  42.889   7.395
 4584POPC   NC359927   1.469  16.983   5.474
 4584POPC   PO459928   1.257  16.363   5.328
 4584POPC   GL159929   1.201  16.619   5.690
 4584POPC   GL259930   1.503  16.499   5.814
 4584POPC   C1A59931   1.323  16.928   6.111
 4584POPC   D2A59932   1.256  17.141   6.562
 4584POPC   C3A59933   1.043  16.922   6.920
 4584POPC   C4A59934   1.318  16.924   7.247
 4584POPC   C1B59935   1.195  16.435   6.136
 4584POPC   C2B59936   1.167  16.635   6.513
 4584POPC   C3B59937   1.421  16.600   6.868
 4584POPC   C4B59938   1.204  16.430   7.237
 4585POPC   NC359939  12.919  40.917   5.348
 4585POPC   PO459940  12.573  40.369   5.443
 4585POPC   GL159941  12.669  40.588   5.893
 4585POPC   GL259942  12.784  40.939   5.851
 4585POPC   C1A59943  12.663  40.856   6.323
 4585POPC   D2A59944  12.750  41.127   6.671
 4585POPC   C3A59945  12.757  40.840   7.006
 4585POPC   C4A59946  12.540  40.470   7.201
 4585POPC   C1B59947  13.120  41.001   6.174
 4585POPC   C2B59948  13.181  40.839   6.614
 4585POPC   C3B59949  13.277  40.815   7.068
 4585POPC   C4B59950  13.415  40.788   7.500
 4586POPC   NC359951  14.558  12.957   5.341
 4586POPC   PO459952  13.975  12.807   5.150
 4586POPC   GL159953  14.050  12.966   5.635
 4586POPC   GL259954  14.345  12.776   5.771
 4586POPC   C1A59955  14.068  12.929   6.150
 4586POPC   D2A59956  14.282  12.731   6.549
 4586POPC   C3A59957  14.224  12.841   6.991
 4586POPC   C4A59958  14.335  13.071   7.394
 4586POPC   C1B59959  14.602  12.774   6.143
 4586POPC   C2B59960  14.785  12.951   6.546
 4586POPC   C3B59961  14.708  13.024   7.037
 4586POPC   C4B59962  14.786  12.881   7.501
 4587POPC   NC359963  15.903   1.878   5.415
 4587POPC   PO459964  16.273   2.499   5.419
 4587POPC   GL159965  16.170   2.133   5.749
 4587POPC   GL259966  16.182   1.748   5.811
 4587POPC   C1A59967  16.025   2.129   6.184
 4587POPC   D2A59968  15.760   2.107   6.580
 4587POPC   C3A59969  15.916   2.074   7.013
 4587POPC   C4A59970  15.806   1.870   7.431
 4587POPC   C1B59971  16.206   1.669   6.248
 4587POPC   C2B59972  16.269   1.806   6.677
 4587POPC   C3B59973  16.222   1.666   7.136
 4587POPC   C4B59974  16.252   1.658   7.613
 4588POPC   NC359975  30.072  22.810   5.350
 4588POPC   PO459976  29.495  23.049   5.364
 4588POPC   GL159977  29.840  23.122   5.698
 4588POPC   GL259978  29.575  23.169   5.932
 4588POPC   C1A59979  30.068  22.999   6.102
 4588POPC   D2A59980  29.911  22.946   6.552
 4588POPC   C3A59981  30.103  22.926   6.998
 4588POPC   C4A59982  30.125  22.818   7.449
 4588POPC   C1B59983  29.582  23.304   6.358
 4588POPC   C2B59984  29.611  23.279   6.814
 4588POPC   C3B59985  29.686  23.119   7.227
 4588POPC   C4B59986  29.814  23.154   7.678
 4589POPC   NC359987  33.403   7.418   5.482
 4589POPC   PO459988  32.858   7.462   5.405
 4589POPC   GL159989  33.019   7.563   5.845
 4589POPC   GL259990  33.335   7.405   5.994
 4589POPC   C1A59991  32.992   7.604   6.321
 4589POPC   D2A59992  32.848   7.336   6.665
 4589POPC   C3A59993  32.534   7.469   6.984
 4589POPC   C4A59994  32.526   7.826   7.277
 4589POPC   C1B59995  33.398   7.245   6.426
 4589POPC   C2B59996  33.227   7.021   6.787
 4589POPC   C3B59997  32.961   7.121   7.123
 4589POPC   C4B59998  32.972   7.570   7.222
 4590POPC   NC359999  10.454  24.194   5.380
 4590POPC   PO460000  10.333  24.797   5.230
 4590POPC   GL160001  10.312  24.598   5.685
 4590POPC   GL260002  10.658  24.505   5.773
 4590POPC   C1A60003  10.231  24.471   6.156
 4590POPC   D2A60004  10.498  24.539   6.552
 4590POPC   C3A60005  10.389  24.559   6.970
 4590POPC   C4A60006  10.721  24.539   7.262
 4590POPC   C1B60007  10.706  24.246   6.152
 4590POPC   C2B60008  10.915  24.176   6.536
 4590POPC   C3B60009  10.757  24.170   6.916
 4590POPC   C4B60010  10.775  23.848   7.169
 4591POPC   NC360011  35.725   2.624   5.378
 4591POPC   PO460012  35.123   2.767   5.535
 4591POPC   GL160013  35.463   2.696   5.858
 4591POPC   GL260014  35.497   2.360   5.839
 4591POPC   C1A60015  35.673   2.749   6.300
 4591POPC   D2A60016  35.881   3.028   6.657
 4591POPC   C3A60017  35.711   3.003   7.114
 4591POPC   C4A60018  35.387   3.093   7.483
 4591POPC   C1B60019  35.262   2.408   6.274
 4591POPC   C2B60020  35.304   2.510   6.732
 4591POPC   C3B60021  35.221   2.646   7.171
 4591POPC   C4B60022  34.899   2.473   7.491
 4592POPC   NC360023  36.492  43.445   5.371
 4592POPC   PO460024  36.095  42.927   5.263
 4592POPC   GL160025  36.221  43.049   5.675
 4592POPC   GL260026  36.079  43.349   5.702
 4592POPC   C1A60027  36.339  43.192   6.110
 4592POPC   D2A60028  36.195  43.098   6.524
 4592POPC   C3A60029  36.351  43.176   6.940
 4592POPC   C4A60030  36.125  42.948   7.244
 4592POPC   C1B60031  35.903  43.461   6.110
 4592POPC   C2B60032  35.748  43.375   6.522
 4592POPC   C3B60033  35.855  43.332   6.961
 4592POPC   C4B60034  35.970  43.582   7.306
 4593POPC   NC360035   5.249   7.590   5.376
 4593POPC   PO460036   4.732   7.047   5.478
 4593POPC   GL160037   5.042   7.284   5.773
 4593POPC   GL260038   5.103   7.649   5.854
 4593POPC   C1A60039   5.134   7.326   6.235
 4593POPC   D2A60040   5.068   7.520   6.624
 4593POPC   C3A60041   5.140   7.245   6.963
 4593POPC   C4A60042   5.070   7.282   7.366
 4593POPC   C1B60043   5.431   7.800   6.116
 4593POPC   C2B60044   5.530   7.784   6.570
 4593POPC   C3B60045   5.404   7.724   7.016
 4593POPC   C4B60046   5.343   7.706   7.495
 4594POPC   NC360047  13.256  27.919   5.529
 4594POPC   PO460048  12.650  28.189   5.263
 4594POPC   GL160049  12.779  28.393   5.620
 4594POPC   GL260050  13.120  28.399   5.667
 4594POPC   C1A60051  12.741  28.398   6.049
 4594POPC   D2A60052  12.885  28.389   6.458
 4594POPC   C3A60053  12.675  28.636   6.768
 4594POPC   C4A60054  12.729  28.506   7.178
 4594POPC   C1B60055  13.263  28.417   6.070
 4594POPC   C2B60056  13.413  28.435   6.493
 4594POPC   C3B60057  13.185  28.464   6.862
 4594POPC   C4B60058  13.220  28.425   7.270
 4595POPC   NC360059  32.295  25.647   5.382
 4595POPC   PO460060  32.067  25.065   5.331
 4595POPC   GL160061  32.155  25.245   5.722
 4595POPC   GL260062  32.483  25.345   5.779
 4595POPC   C1A60063  32.126  25.298   6.171
 4595POPC   D2A60064  32.062  25.060   6.539
 4595POPC   C3A60065  32.155  25.197   6.913
 4595POPC   C4A60066  31.932  25.270   7.238
 4595POPC   C1B60067  32.653  25.455   6.177
 4595POPC   C2B60068  32.583  25.364   6.609
 4595POPC   C3B60069  32.587  25.477   7.027
 4595POPC   C4B60070  32.479  25.181   7.317
 4596POPC   NC360071   9.928   4.419   5.423
 4596POPC   PO460072   9.410   4.186   5.013
 4596POPC   GL160073   9.440   4.259   5.530
 4596POPC   GL260074   9.557   4.537   5.755
 4596POPC   C1A60075   9.524   4.095   6.006
 4596POPC   D2A60076   9.873   4.031   6.367
 4596POPC   C3A60077   9.847   3.924   6.836
 4596POPC   C4A60078   9.766   4.031   7.283
 4596POPC   C1B60079   9.813   4.507   6.123
 4596POPC   C2B60080   9.683   4.484   6.536
 4596POPC   C3B60081   9.597   4.361   6.926
 4596POPC   C4B60082   9.496   4.462   7.329
 4597POPC   NC360083  35.947  24.159   5.426
 4597POPC   PO460084  36.318  24.732   5.438
 4597POPC   GL160085  36.079  24.543   5.838
 4597POPC   GL260086  35.876  24.226   5.913
 4597POPC   C1A60087  35.923  24.593   6.296
 4597POPC   D2A60088  35.673  24.615   6.700
 4597POPC   C3A60089  36.049  24.590   6.975
 4597POPC   C4A60090  36.404  24.876   7.061
 4597POPC   C1B60091  36.211  24.181   6.192
 4597POPC   C2B60092  36.328  24.297   6.612
 4597POPC   C3B60093  36.236  24.107   7.005
 4597POPC   C4B60094  36.027  24.267   7.374
 4598POPC   NC360095  37.696  16.334   5.395
 4598POPC   PO460096  37.513  15.710   5.380
 4598POPC   GL160097  37.771  15.746   5.778
 4598POPC   GL260098  37.932  16.092   5.810
 4598POPC   C1A60099  37.668  15.751   6.248
 4598POPC   D2A60100  37.757  15.610   6.693
 4598POPC   C3A60101  37.714  15.867   7.050
 4598POPC   C4A60102  37.549  16.214   7.273
 4598POPC   C1B60103  37.995  16.150   6.274
 4598POPC   C2B60104  37.829  16.268   6.693
 4598POPC   C3B60105  38.063  16.248   7.100
 4598POPC   C4B60106  37.993  16.331   7.527
 4599POPC   NC360107   8.203  22.504   5.455
 4599POPC   PO460108   8.438  21.833   5.397
 4599POPC   GL160109   8.446  22.094   5.766
 4599POPC   GL260110   8.073  22.117   5.797
 4599POPC   C1A60111   8.528  22.327   6.174
 4599POPC   D2A60112   8.529  22.491   6.641
 4599POPC   C3A60113   8.407  22.171   6.985
 4599POPC   C4A60114   8.433  21.876   7.332
 4599POPC   C1B60115   8.011  22.248   6.229
 4599POPC   C2B60116   8.053  21.997   6.613
 4599POPC   C3B60117   7.841  22.042   7.008
 4599POPC   C4B60118   7.938  22.212   7.394
 4600POPC   NC360119  21.074  44.540   5.466
 4600POPC   PO460120  21.748  44.530   5.453
 4600POPC   GL160121  21.465  44.468   5.830
 4600POPC   GL260122  21.089  44.455   5.962
 4600POPC   C1A60123  21.469  44.605   6.276
 4600POPC   D2A60124  21.428  44.838   6.687
 4600POPC   C3A60125  21.341  44.637   7.090
 4600POPC   C4A60126  21.398  44.725   7.522
 4600POPC   C1B60127  20.970  44.753   6.322
 4600POPC   C2B60128  20.913  44.964   6.742
 4600POPC   C3B60129  20.938  44.933   7.197
 4600POPC   C4B60130  20.928  44.563   7.428
 4601POPC   NC360131  19.241  30.251   5.513
 4601POPC   PO460132  18.623  30.426   5.420
 4601POPC   GL160133  18.716  30.138   5.801
 4601POPC   GL260134  18.997  29.921   5.832
 4601POPC   C1A60135  18.770  30.010   6.269
 4601POPC   D2A60136  18.966  30.118   6.661
 4601POPC   C3A60137  18.969  29.910   7.073
 4601POPC   C4A60138  19.107  30.133   7.459
 4601POPC   C1B60139  19.240  29.724   6.176
 4601POPC   C2B60140  19.322  29.761   6.616
 4601POPC   C3B60141  19.429  29.557   7.008
 4601POPC   C4B60142  19.101  29.407   7.227
 4602POPC   NC360143   0.840  20.586   5.047
 4602POPC   PO460144   1.467  20.600   5.374
 4602POPC   GL160145   1.382  20.580   5.834
 4602POPC   GL260146   1.036  20.553   5.987
 4602POPC   C1A60147   1.460  20.619   6.287
 4602POPC   D2A60148   1.109  20.578   6.565
 4602POPC   C3A60149   1.222  20.660   6.986
 4602POPC   C4A60150   1.524  20.419   7.228
 4602POPC   C1B60151   1.237  20.191   6.154
 4602POPC   C2B60152   1.430  20.141   6.538
 4602POPC   C3B60153   1.232  20.169   6.890
 4602POPC   C4B60154   1.079  20.147   7.281
 4603POPC   NC360155  13.203   3.730   5.266
 4603POPC   PO460156  13.777   3.403   5.195
 4603POPC   GL160157  13.574   3.595   5.613
 4603POPC   GL260158  13.730   3.391   5.845
 4603POPC   C1A60159  13.423   3.702   6.090
 4603POPC   D2A60160  13.391   3.497   6.521
 4603POPC   C3A60161  13.529   3.613   6.935
 4603POPC   C4A60162  13.632   3.446   7.343
 4603POPC   C1B60163  13.874   3.526   6.273
 4603POPC   C2B60164  13.905   3.788   6.629
 4603POPC   C3B60165  14.015   3.733   7.071
 4603POPC   C4B60166  13.963   3.758   7.520
 4604POPC   NC360167   7.140  36.817   5.529
 4604POPC   PO460168   6.460  36.758   5.423
 4604POPC   GL160169   6.504  36.902   5.848
 4604POPC   GL260170   6.796  36.883   5.867
 4604POPC   C1A60171   6.564  36.869   6.305
 4604POPC   D2A60172   6.744  37.096   6.634
 4604POPC   C3A60173   6.588  36.824   6.911
 4604POPC   C4A60174   6.348  36.828   7.236
 4604POPC   C1B60175   7.031  37.050   6.193
 4604POPC   C2B60176   7.127  36.755   6.525
 4604POPC   C3B60177   7.091  36.816   6.958
 4604POPC   C4B60178   6.863  36.957   7.322
 4605POPC   NC360179  14.022  27.277   5.578
 4605POPC   PO460180  13.432  27.566   5.286
 4605POPC   GL160181  13.585  27.546   5.714
 4605POPC   GL260182  13.538  27.208   5.805
 4605POPC   C1A60183  13.775  27.557   6.163
 4605POPC   D2A60184  13.937  27.499   6.569
 4605POPC   C3A60185  13.674  27.589   6.905
 4605POPC   C4A60186  13.877  27.631   7.297
 4605POPC   C1B60187  13.266  27.475   6.098
 4605POPC   C2B60188  13.287  27.466   6.542
 4605POPC   C3B60189  13.176  27.493   6.976
 4605POPC   C4B60190  13.377  27.562   7.356
 4606POPC   NC360191  27.677  23.113   5.420
 4606POPC   PO460192  27.218  22.674   5.331
 4606POPC   GL160193  27.401  22.751   5.730
 4606POPC   GL260194  27.729  22.813   5.892
 4606POPC   C1A60195  27.341  22.653   6.163
 4606POPC   D2A60196  27.498  22.878   6.509
 4606POPC   C3A60197  27.462  22.714   6.941
 4606POPC   C4A60198  27.664  22.858   7.294
 4606POPC   C1B60199  27.854  23.148   6.167
 4606POPC   C2B60200  28.028  23.218   6.553
 4606POPC   C3B60201  27.856  23.185   6.946
 4606POPC   C4B60202  27.925  23.283   7.375
 4607POPC   NC360203  12.431  37.614   5.313
 4607POPC   PO460204  11.909  37.532   5.443
 4607POPC   GL160205  11.997  37.629   5.873
 4607POPC   GL260206  12.324  37.778   5.818
 4607POPC   C1A60207  11.835  37.740   6.314
 4607POPC   D2A60208  11.589  37.663   6.677
 4607POPC   C3A60209  11.807  37.606   7.066
 4607POPC   C4A60210  11.990  37.534   7.477
 4607POPC   C1B60211  12.347  37.704   6.284
 4607POPC   C2B60212  12.190  37.564   6.705
 4607POPC   C3B60213  12.291  37.763   7.120
 4607POPC   C4B60214  12.661  38.018   7.266
 4608POPC   NC360215  28.186   4.518   5.328
 4608POPC   PO460216  28.729   4.185   5.431
 4608POPC   GL160217  28.443   4.301   5.740
 4608POPC   GL260218  28.120   4.129   5.812
 4608POPC   C1A60219  28.506   4.332   6.155
 4608POPC   D2A60220  28.459   4.216   6.555
 4608POPC   C3A60221  28.421   4.559   6.852
 4608POPC   C4A60222  28.327   4.479   7.280
 4608POPC   C1B60223  27.992   4.247   6.245
 4608POPC   C2B60224  27.978   4.203   6.705
 4608POPC   C3B60225  27.843   3.989   7.053
 4608POPC   C4B60226  27.814   4.272   7.384
 4609POPC   NC360227  37.786  14.645   5.439
 4609POPC   PO460228  37.516  14.102   5.129
 4609POPC   GL160229  37.553  14.242   5.662
 4609POPC   GL260230  37.304  14.118   5.891
 4609POPC   C1A60231  37.722  14.359   6.102
 4609POPC   D2A60232  37.729  14.708   6.412
 4609POPC   C3A60233  38.002  14.680   6.775
 4609POPC   C4A60234  37.820  14.672   7.200
 4609POPC   C1B60235  37.307  14.147   6.333
 4609POPC   C2B60236  37.645  14.212   6.619
 4609POPC   C3B60237  37.679  14.100   7.028
 4609POPC   C4B60238  37.286  13.927   7.191
 4610POPC   NC360239  28.565  36.249   5.448
 4610POPC   PO460240  27.937  35.842   5.498
 4610POPC   GL160241  28.172  36.133   5.780
 4610POPC   GL260242  28.446  35.927   5.840
 4610POPC   C1A60243  28.317  36.258   6.211
 4610POPC   D2A60244  28.359  35.981   6.576
 4610POPC   C3A60245  28.272  36.141   6.967
 4610POPC   C4A60246  28.260  36.215   7.410
 4610POPC   C1B60247  28.693  35.900   6.196
 4610POPC   C2B60248  28.871  36.082   6.573
 4610POPC   C3B60249  28.732  35.857   6.903
 4610POPC   C4B60250  28.589  35.864   7.302
 4611POPC   NC360251  44.702  22.779   5.329
 4611POPC   PO460252   0.012  23.371   5.487
 4611POPC   GL160253  44.946  23.212   5.871
 4611POPC   GL260254  44.702  22.964   5.839
 4611POPC   C1A60255  44.946  23.078   6.301
 4611POPC   D2A60256  44.756  23.240   6.649
 4611POPC   C3A60257  44.795  22.944   6.999
 4611POPC   C4A60258  44.894  22.849   7.436
 4611POPC   C1B60259  44.458  23.156   6.182
 4611POPC   C2B60260  44.357  22.944   6.557
 4611POPC   C3B60261  44.247  22.871   6.976
 4611POPC   C4B60262  44.485  22.585   7.195
 4612POPC   NC360263  23.166  22.388   5.496
 4612POPC   PO460264  22.994  21.784   5.390
 4612POPC   GL160265  22.853  22.012   5.767
 4612POPC   GL260266  22.711  22.304   5.729
 4612POPC   C1A60267  23.002  22.007   6.189
 4612POPC   D2A60268  23.196  21.849   6.568
 4612POPC   C3A60269  23.091  22.031   6.953
 4612POPC   C4A60270  23.048  22.425   7.204
 4612POPC   C1B60271  22.586  22.327   6.166
 4612POPC   C2B60272  22.791  22.265   6.589
 4612POPC   C3B60273  22.609  22.193   7.002
 4612POPC   C4B60274  22.555  22.479   7.319
 4613POPC   NC360275  37.184  34.137   5.491
 4613POPC   PO460276  37.764  33.840   5.238
 4613POPC   GL160277  37.710  33.647   5.649
 4613POPC   GL260278  37.348  33.625   5.701
 4613POPC   C1A60279  37.862  33.692   6.072
 4613POPC   D2A60280  37.820  33.998   6.416
 4613POPC   C3A60281  37.861  33.859   6.853
 4613POPC   C4A60282  37.955  33.640   7.265
 4613POPC   C1B60283  37.401  33.442   6.140
 4613POPC   C2B60284  37.464  33.536   6.602
 4613POPC   C3B60285  37.457  33.584   7.065
 4613POPC   C4B60286  37.574  33.977   7.281
 4614POPC   NC360287   8.759  28.034   5.228
 4614POPC   PO460288   9.125  28.615   5.307
 4614POPC   GL160289   8.859  28.545   5.709
 4614POPC   GL260290   8.784  28.189   5.731
 4614POPC   C1A60291   8.720  28.470   6.172
 4614POPC   D2A60292   8.872  28.210   6.518
 4614POPC   C3A60293   8.827  28.310   6.983
 4614POPC   C4A60294   8.820  28.298   7.457
 4614POPC   C1B60295   9.179  28.224   6.001
 4614POPC   C2B60296   9.369  28.224   6.426
 4614POPC   C3B60297   9.270  28.130   6.836
 4614POPC   C4B60298   9.283  28.257   7.243
 4615POPC   NC360299  16.989   1.545   5.477
 4615POPC   PO460300  16.819   0.842   5.335
 4615POPC   GL160301  16.847   1.123   5.704
 4615POPC   GL260302  16.536   1.237   5.858
 4615POPC   C1A60303  17.006   1.274   6.114
 4615POPC   D2A60304  16.860   1.255   6.561
 4615POPC   C3A60305  17.074   1.295   6.941
 4615POPC   C4A60306  17.077   1.537   7.304
 4615POPC   C1B60307  16.414   1.213   6.293
 4615POPC   C2B60308  16.386   1.311   6.724
 4615POPC   C3B60309  16.572   1.249   7.100
 4615POPC   C4B60310  16.297   1.196   7.411
 4616POPC   NC360311  14.761  24.379   5.380
 4616POPC   PO460312  15.389  24.234   5.469
 4616POPC   GL160313  15.103  24.382   5.755
 4616POPC   GL260314  15.201  24.724   5.775
 4616POPC   C1A60315  14.989  24.259   6.172
 4616POPC   D2A60316  15.165  24.425   6.557
 4616POPC   C3A60317  15.176  24.231   6.973
 4616POPC   C4A60318  15.033  24.219   7.406
 4616POPC   C1B60319  15.470  24.505   6.110
 4616POPC   C2B60320  15.658  24.482   6.527
 4616POPC   C3B60321  15.477  24.650   6.922
 4616POPC   C4B60322  15.619  24.379   7.243
 4617POPC   NC360323  40.161  39.431   5.049
 4617POPC   PO460324  39.724  38.917   5.298
 4617POPC   GL160325  39.847  39.105   5.663
 4617POPC   GL260326  40.198  39.230   5.595
 4617POPC   C1A60327  39.714  39.020   6.088
 4617POPC   D2A60328  39.998  38.958   6.429
 4617POPC   C3A60329  39.901  38.992   6.860
 4617POPC   C4A60330  39.794  39.177   7.241
 4617POPC   C1B60331  40.257  39.272   6.071
 4617POPC   C2B60332  40.274  39.450   6.534
 4617POPC   C3B60333  40.164  39.455   7.008
 4617POPC   C4B60334  40.085  39.513   7.483
 4618POPC   NC360335   3.799  11.552   5.047
 4618POPC   PO460336   3.336  11.201   5.316
 4618POPC   GL160337   3.490  11.333   5.708
 4618POPC   GL260338   3.827  11.246   5.719
 4618POPC   C1A60339   3.545  11.422   6.146
 4618POPC   D2A60340   3.466  11.177   6.528
 4618POPC   C3A60341   3.472  11.487   6.829
 4618POPC   C4A60342   3.418  11.587   7.243
 4618POPC   C1B60343   4.032  11.286   6.123
 4618POPC   C2B60344   3.966  11.400   6.519
 4618POPC   C3B60345   3.936  11.214   6.888
 4618POPC   C4B60346   3.883  11.323   7.285
 4619POPC   NC360347  13.574  30.585   5.506
 4619POPC   PO460348  13.194  31.072   5.452
 4619POPC   GL160349  13.224  30.783   5.813
 4619POPC   GL260350  13.521  30.910   5.973
 4619POPC   C1A60351  13.440  30.440   6.106
 4619POPC   D2A60352  13.753  30.573   6.384
 4619POPC   C3A60353  13.649  30.551   6.813
 4619POPC   C4A60354  13.333  30.663   7.100
 4619POPC   C1B60355  13.834  31.084   6.266
 4619POPC   C2B60356  13.936  31.001   6.669
 4619POPC   C3B60357  13.854  30.954   7.080
 4619POPC   C4B60358  14.144  30.990   7.365
 4620POPC   NC360359  12.225  42.227   5.332
 4620POPC   PO460360  11.930  42.705   5.074
 4620POPC   GL160361  12.021  42.604   5.622
 4620POPC   GL260362  11.858  42.275   5.817
 4620POPC   C1A60363  12.165  42.570   6.093
 4620POPC   D2A60364  12.119  42.419   6.538
 4620POPC   C3A60365  12.398  42.436   6.893
 4620POPC   C4A60366  12.292  42.279   7.291
 4620POPC   C1B60367  12.062  42.038   6.198
 4620POPC   C2B60368  12.160  41.868   6.646
 4620POPC   C3B60369  12.092  41.815   7.100
 4620POPC   C4B60370  11.820  42.082   7.319
 4621POPC   NC360371   1.645  42.355   5.387
 4621POPC   PO460372   2.232  42.130   5.422
 4621POPC   GL160373   2.057  42.338   5.786
 4621POPC   GL260374   1.793  42.557   5.882
 4621POPC   C1A60375   2.109  42.368   6.229
 4621POPC   D2A60376   2.283  42.236   6.597
 4621POPC   C3A60377   2.079  42.278   6.981
 4621POPC   C4A60378   2.134  42.048   7.347
 4621POPC   C1B60379   1.828  42.807   6.243
 4621POPC   C2B60380   1.894  42.623   6.617
 4621POPC   C3B60381   1.638  42.528   6.936
 4621POPC   C4B60382   1.666  42.350   7.304
 4622POPC   NC360383  27.227  10.049   5.204
 4622POPC   PO460384  27.718  10.465   5.433
 4622POPC   GL160385  27.584  10.467   5.842
 4622POPC   GL260386  27.353  10.160   5.828
 4622POPC   C1A60387  27.775  10.628   6.234
 4622POPC   D2A60388  27.650  10.799   6.654
 4622POPC   C3A60389  27.777  10.661   7.060
 4622POPC   C4A60390  27.385  10.717   7.294
 4622POPC   C1B60391  27.644  10.091   6.196
 4622POPC   C2B60392  27.730  10.262   6.593
 4622POPC   C3B60393  27.476  10.277   6.925
 4622POPC   C4B60394  27.688  10.168   7.280
 4623POPC   NC360395   5.309  22.379   5.193
 4623POPC   PO460396   4.845  21.944   5.478
 4623POPC   GL160397   4.905  22.293   5.782
 4623POPC   GL260398   4.593  22.173   5.908
 4623POPC   C1A60399   4.869  22.426   6.241
 4623POPC   D2A60400   4.935  22.172   6.608
 4623POPC   C3A60401   5.028  22.336   6.992
 4623POPC   C4A60402   5.143  22.469   7.363
 4623POPC   C1B60403   4.905  21.899   6.137
 4623POPC   C2B60404   4.860  21.649   6.526
 4623POPC   C3B60405   4.757  21.779   6.924
 4623POPC   C4B60406   5.160  21.842   7.106
 4624POPC   NC360407  21.438  28.628   5.308
 4624POPC   PO460408  21.402  27.923   5.397
 4624POPC   GL160409  21.537  28.206   5.779
 4624POPC   GL260410  21.237  28.411   5.833
 4624POPC   C1A60411  21.677  28.387   6.216
 4624POPC   D2A60412  21.650  28.613   6.645
 4624POPC   C3A60413  21.629  28.279   6.994
 4624POPC   C4A60414  21.304  28.008   7.177
 4624POPC   C1B60415  21.202  28.521   6.285
 4624POPC   C2B60416  21.253  28.280   6.650
 4624POPC   C3B60417  21.145  28.480   7.024
 4624POPC   C4B60418  21.300  28.473   7.405
 4625POPC   NC360419  29.227  16.319   5.040
 4625POPC   PO460420  29.012  15.870   5.502
 4625POPC   GL160421  29.223  15.890   5.853
 4625POPC   GL260422  28.932  15.808   6.010
 4625POPC   C1A60423  29.302  16.079   6.240
 4625POPC   D2A60424  29.009  16.193   6.526
 4625POPC   C3A60425  29.245  16.313   6.868
 4625POPC   C4A60426  29.204  16.367   7.327
 4625POPC   C1B60427  29.078  15.649   6.398
 4625POPC   C2B60428  29.366  15.802   6.713
 4625POPC   C3B60429  29.284  15.880   7.139
 4625POPC   C4B60430  28.840  15.895   7.152
 4626POPC   NC360431  20.511  42.656   5.507
 4626POPC   PO460432  20.844  42.137   5.389
 4626POPC   GL160433  20.926  42.273   5.788
 4626POPC   GL260434  20.553  42.323   5.911
 4626POPC   C1A60435  20.938  42.255   6.223
 4626POPC   D2A60436  20.664  42.226   6.530
 4626POPC   C3A60437  20.853  42.314   6.880
 4626POPC   C4A60438  20.882  42.086   7.207
 4626POPC   C1B60439  20.247  42.126   6.217
 4626POPC   C2B60440  20.162  41.983   6.652
 4626POPC   C3B60441  20.215  42.036   7.105
 4626POPC   C4B60442  20.460  42.399   7.224
 4627POPC   NC360443   6.380   9.903   5.508
 4627POPC   PO460444   6.724   9.329   5.296
 4627POPC   GL160445   6.776   9.642   5.675
 4627POPC   GL260446   7.118   9.762   5.707
 4627POPC   C1A60447   6.705   9.952   6.075
 4627POPC   D2A60448   6.632  10.144   6.501
 4627POPC   C3A60449   6.692   9.968   6.934
 4627POPC   C4A60450   6.451   9.815   7.269
 4627POPC   C1B60451   6.967   9.526   6.122
 4627POPC   C2B60452   6.771   9.630   6.556
 4627POPC   C3B60453   6.817   9.482   7.042
 4627POPC   C4B60454   6.869   9.320   7.476
 4628POPC   NC360455  34.309  13.592   5.358
 4628POPC   PO460456  35.068  13.615   5.281
 4628POPC   GL160457  34.768  13.578   5.654
 4628POPC   GL260458  34.676  13.895   5.850
 4628POPC   C1A60459  34.545  13.447   6.055
 4628POPC   D2A60460  34.657  13.594   6.484
 4628POPC   C3A60461  34.407  13.400   6.829
 4628POPC   C4A60462  34.545  13.265   7.220
 4628POPC   C1B60463  34.250  13.865   6.103
 4628POPC   C2B60464  34.187  13.770   6.539
 4628POPC   C3B60465  34.381  13.942   6.925
 4628POPC   C4B60466  34.241  13.986   7.365
 4629POPC   NC360467  31.700  14.783   5.136
 4629POPC   PO460468  31.425  14.298   5.464
 4629POPC   GL160469  31.440  14.615   5.745
 4629POPC   GL260470  31.221  14.394   5.912
 4629POPC   C1A60471  31.408  14.791   6.154
 4629POPC   D2A60472  31.576  14.687   6.552
 4629POPC   C3A60473  31.376  14.774   6.915
 4629POPC   C4A60474  31.453  14.745   7.311
 4629POPC   C1B60475  31.570  14.298   6.186
 4629POPC   C2B60476  31.517  14.144   6.596
 4629POPC   C3B60477  31.605  14.307   6.998
 4629POPC   C4B60478  31.290  14.246   7.317
 4630POPC   NC360479  14.168  43.379   5.574
 4630POPC   PO460480  14.551  42.886   5.296
 4630POPC   GL160481  14.451  42.981   5.754
 4630POPC   GL260482  14.149  42.910   5.864
 4630POPC   C1A60483  14.431  43.187   6.197
 4630POPC   D2A60484  14.528  43.371   6.603
 4630POPC   C3A60485  14.707  43.236   6.998
 4630POPC   C4A60486  14.394  43.272   7.278
 4630POPC   C1B60487  14.014  42.892   6.289
 4630POPC   C2B60488  14.296  42.871   6.634
 4630POPC   C3B60489  14.384  42.826   7.035
 4630POPC   C4B60490  14.212  42.769   7.437
 4631POPC   NC360491  14.171  25.905   5.679
 4631POPC   PO460492  14.587  26.331   5.408
 4631POPC   GL160493  14.749  26.186   5.845
 4631POPC   GL260494  14.613  25.837   5.949
 4631POPC   C1A60495  14.778  26.143   6.327
 4631POPC   D2A60496  14.592  25.907   6.708
 4631POPC   C3A60497  14.292  26.134   7.008
 4631POPC   C4A60498  14.349  26.389   7.409
 4631POPC   C1B60499  14.293  25.935   6.304
 4631POPC   C2B60500  14.056  25.747   6.647
 4631POPC   C3B60501  13.916  25.799   7.094
 4631POPC   C4B60502  14.039  25.984   7.518
 4632POPC   NC360503  13.874  27.904   5.239
 4632POPC   PO460504  13.446  28.435   5.285
 4632POPC   GL160505  13.645  28.394   5.683
 4632POPC   GL260506  13.678  28.059   5.766
 4632POPC   C1A60507  13.774  28.476   6.113
 4632POPC   D2A60508  13.946  28.514   6.558
 4632POPC   C3A60509  13.703  28.479   6.968
 4632POPC   C4A60510  13.728  28.418   7.432
 4632POPC   C1B60511  13.534  28.002   6.185
 4632POPC   C2B60512  13.737  28.002   6.570
 4632POPC   C3B60513  13.883  28.021   6.967
 4632POPC   C4B60514  13.506  28.020   7.179
 4633POPC   NC360515   3.252  29.204   5.365
 4633POPC   PO460516   3.814  28.880   5.392
 4633POPC   GL160517   3.566  28.909   5.754
 4633POPC   GL260518   3.651  29.233   5.847
 4633POPC   C1A60519   3.591  28.878   6.221
 4633POPC   D2A60520   3.603  29.203   6.569
 4633POPC   C3A60521   3.632  29.055   6.996
 4633POPC   C4A60522   3.497  29.262   7.395
 4633POPC   C1B60523   3.676  29.567   6.170
 4633POPC   C2B60524   3.883  29.649   6.578
 4633POPC   C3B60525   3.710  29.553   6.998
 4633POPC   C4B60526   3.849  29.605   7.465
 4634POPC   NC360527  18.492   9.776   5.429
 4634POPC   PO460528  17.901   9.565   5.546
 4634POPC   GL160529  18.161   9.769   5.843
 4634POPC   GL260530  18.361  10.084   5.808
 4634POPC   C1A60531  18.104   9.876   6.241
 4634POPC   D2A60532  17.878   9.996   6.583
 4634POPC   C3A60533  18.097   9.780   6.898
 4634POPC   C4A60534  17.969   9.833   7.306
 4634POPC   C1B60535  18.628  10.029   6.168
 4634POPC   C2B60536  18.741   9.906   6.591
 4634POPC   C3B60537  18.637  10.109   6.984
 4634POPC   C4B60538  18.469   9.941   7.326
 4635POPC   NC360539  32.394  31.556   5.489
 4635POPC   PO460540  31.973  31.156   5.404
 4635POPC   GL160541  32.186  31.115   5.831
 4635POPC   GL260542  32.482  31.304   5.919
 4635POPC   C1A60543  32.129  31.290   6.275
 4635POPC   D2A60544  32.223  31.534   6.642
 4635POPC   C3A60545  32.378  31.316   7.004
 4635POPC   C4A60546  32.411  31.101   7.399
 4635POPC   C1B60547  32.496  31.700   6.198
 4635POPC   C2B60548  32.614  31.945   6.583
 4635POPC   C3B60549  32.491  31.803   6.990
 4635POPC   C4B60550  32.011  31.862   7.020
 4636POPC   NC360551  14.330  20.638   5.211
 4636POPC   PO460552  14.163  21.077   5.714
 4636POPC   GL160553  14.370  20.716   5.869
 4636POPC   GL260554  14.185  20.439   5.826
 4636POPC   C1A60555  14.398  20.686   6.312
 4636POPC   D2A60556  14.628  20.903   6.635
 4636POPC   C3A60557  14.623  20.632   6.953
 4636POPC   C4A60558  14.333  20.460   7.227
 4636POPC   C1B60559  14.098  20.243   6.231
 4636POPC   C2B60560  14.152  20.370   6.654
 4636POPC   C3B60561  13.985  20.155   6.987
 4636POPC   C4B60562  13.827  20.404   7.302
 4637POPC   NC360563  19.433   2.560   5.371
 4637POPC   PO460564  19.737   2.008   5.253
 4637POPC   GL160565  19.892   1.876   5.674
 4637POPC   GL260566  19.878   2.207   5.817
 4637POPC   C1A60567  19.917   1.751   6.148
 4637POPC   D2A60568  19.737   1.873   6.593
 4637POPC   C3A60569  19.802   1.898   7.057
 4637POPC   C4A60570  19.604   2.156   7.400
 4637POPC   C1B60571  19.893   2.261   6.285
 4637POPC   C2B60572  19.927   2.345   6.749
 4637POPC   C3B60573  20.064   2.317   7.176
 4637POPC   C4B60574  20.012   2.405   7.610
 4638POPC   NC360575  21.387   6.833   5.147
 4638POPC   PO460576  21.906   6.656   5.519
 4638POPC   GL160577  21.452   6.709   5.662
 4638POPC   GL260578  21.391   7.064   5.712
 4638POPC   C1A60579  21.197   6.716   6.066
 4638POPC   D2A60580  21.289   6.770   6.528
 4638POPC   C3A60581  21.146   6.759   6.968
 4638POPC   C4A60582  21.203   6.754   7.427
 4638POPC   C1B60583  21.518   7.110   6.177
 4638POPC   C2B60584  21.614   7.154   6.650
 4638POPC   C3B60585  21.635   6.880   7.035
 4638POPC   C4B60586  21.743   6.784   7.494
 4639POPC   NC360587  13.456  16.604   5.468
 4639POPC   PO460588  13.879  17.135   5.386
 4639POPC   GL160589  13.701  16.895   5.807
 4639POPC   GL260590  13.539  16.558   5.963
 4639POPC   C1A60591  13.493  17.002   6.227
 4639POPC   D2A60592  13.580  16.882   6.641
 4639POPC   C3A60593  13.371  16.939   7.015
 4639POPC   C4A60594  13.289  16.570   7.247
 4639POPC   C1B60595  13.879  16.632   6.275
 4639POPC   C2B60596  14.064  16.709   6.683
 4639POPC   C3B60597  13.844  16.664   7.065
 4639POPC   C4B60598  13.741  16.336   7.356
 4640POPC   NC360599  19.797  28.725   5.653
 4640POPC   PO460600  19.457  28.174   5.461
 4640POPC   GL160601  19.687  28.263   5.873
 4640POPC   GL260602  19.888  28.553   6.104
 4640POPC   C1A60603  19.802  28.098   6.267
 4640POPC   D2A60604  19.636  28.254   6.667
 4640POPC   C3A60605  19.881  28.149   7.037
 4640POPC   C4A60606  19.995  28.229   7.462
 4640POPC   C1B60607  19.572  28.815   6.294
 4640POPC   C2B60608  19.369  28.737   6.682
 4640POPC   C3B60609  19.567  28.562   7.083
 4640POPC   C4B60610  19.701  28.636   7.543
 4641POPC   NC360611  24.710  14.710   5.480
 4641POPC   PO460612  24.758  14.028   5.408
 4641POPC   GL160613  24.686  14.281   5.761
 4641POPC   GL260614  24.345  14.429   5.759
 4641POPC   C1A60615  24.695  14.501   6.152
 4641POPC   D2A60616  24.828  14.308   6.541
 4641POPC   C3A60617  24.744  14.572   6.873
 4641POPC   C4A60618  24.753  14.365   7.260
 4641POPC   C1B60619  24.177  14.410   6.187
 4641POPC   C2B60620  23.962  14.692   6.489
 4641POPC   C3B60621  23.952  14.620   6.938
 4641POPC   C4B60622  24.313  14.575   7.144
 4642POPC   NC360623   5.887   1.001   4.995
 4642POPC   PO460624   6.008   1.399   5.623
 4642POPC   GL160625   6.002   1.126   5.973
 4642POPC   GL260626   6.200   0.810   5.967
 4642POPC   C1A60627   5.902   1.268   6.384
 4642POPC   D2A60628   5.590   1.484   6.593
 4642POPC   C3A60629   5.555   1.136   6.827
 4642POPC   C4A60630   5.671   1.001   7.177
 4642POPC   C1B60631   6.008   0.771   6.354
 4642POPC   C2B60632   5.994   0.896   6.776
 4642POPC   C3B60633   6.151   0.853   7.202
 4642POPC   C4B60634   6.327   0.622   7.590
 4643POPC   NC360635  16.203  20.484   5.462
 4643POPC   PO460636  15.542  20.419   5.506
 4643POPC   GL160637  15.718  20.709   5.828
 4643POPC   GL260638  16.078  20.785   5.844
 4643POPC   C1A60639  15.830  20.710   6.270
 4643POPC   D2A60640  16.054  20.599   6.600
 4643POPC   C3A60641  15.915  20.737   6.993
 4643POPC   C4A60642  16.009  20.638   7.438
 4643POPC   C1B60643  16.241  20.410   6.138
 4643POPC   C2B60644  16.263  20.141   6.528
 4643POPC   C3B60645  16.267  20.310   6.962
 4643POPC   C4B60646  16.282  20.216   7.404
 4644POPC   NC360647  20.798  41.699   5.267
 4644POPC   PO460648  20.215  41.361   5.423
 4644POPC   GL160649  20.598  41.382   5.706
 4644POPC   GL260650  20.793  41.737   5.782
 4644POPC   C1A60651  20.654  41.349   6.163
 4644POPC   D2A60652  20.538  41.741   6.401
 4644POPC   C3A60653  20.603  41.806   6.854
 4644POPC   C4A60654  20.541  41.602   7.275
 4644POPC   C1B60655  21.000  41.722   6.200
 4644POPC   C2B60656  20.935  41.479   6.612
 4644POPC   C3B60657  21.029  41.627   7.061
 4644POPC   C4B60658  20.973  41.706   7.534
 4645POPC   NC360659  17.225  10.731   5.136
 4645POPC   PO460660  16.656  10.495   5.394
 4645POPC   GL160661  16.639  10.588   5.809
 4645POPC   GL260662  16.975  10.468   5.850
 4645POPC   C1A60663  16.703  10.692   6.235
 4645POPC   D2A60664  16.746  10.426   6.589
 4645POPC   C3A60665  16.617  10.576   6.952
 4645POPC   C4A60666  16.429  10.746   7.282
 4645POPC   C1B60667  17.145  10.452   6.237
 4645POPC   C2B60668  17.144  10.732   6.597
 4645POPC   C3B60669  17.261  10.800   7.025
 4645POPC   C4B60670  16.955  10.730   7.313
 4646POPC   NC360671   5.500   9.252   5.464
 4646POPC   PO460672   5.971   8.769   5.373
 4646POPC   GL160673   5.836   8.963   5.768
 4646POPC   GL260674   6.010   9.288   5.826
 4646POPC   C1A60675   5.642   9.109   6.177
 4646POPC   D2A60676   5.828   9.190   6.592
 4646POPC   C3A60677   5.581   9.086   6.936
 4646POPC   C4A60678   5.585   8.667   7.072
 4646POPC   C1B60679   6.152   9.018   6.187
 4646POPC   C2B60680   6.250   8.927   6.639
 4646POPC   C3B60681   6.071   8.990   7.055
 4646POPC   C4B60682   6.135   8.903   7.486
 4647POPC   NC360683  38.784  39.610   5.699
 4647POPC   PO460684  38.674  40.286   5.455
 4647POPC   GL160685  38.561  40.055   5.835
 4647POPC   GL260686  38.261  39.865   5.862
 4647POPC   C1A60687  38.617  39.891   6.257
 4647POPC   D2A60688  38.621  40.115   6.621
 4647POPC   C3A60689  38.613  39.874   6.967
 4647POPC   C4A60690  38.512  40.087   7.325
 4647POPC   C1B60691  38.165  40.143   6.187
 4647POPC   C2B60692  38.146  39.958   6.571
 4647POPC   C3B60693  38.131  40.094   6.980
 4647POPC   C4B60694  38.120  39.743   7.266
 4648POPC   NC360695  12.204  26.221   5.140
 4648POPC   PO460696  11.790  25.960   5.571
 4648POPC   GL160697  12.110  26.034   5.825
 4648POPC   GL260698  12.220  25.723   5.808
 4648POPC   C1A60699  12.141  25.926   6.262
 4648POPC   D2A60700  12.395  25.888   6.584
 4648POPC   C3A60701  12.293  26.213   6.866
 4648POPC   C4A60702  12.083  26.161   7.252
 4648POPC   C1B60703  11.940  25.495   6.066
 4648POPC   C2B60704  12.024  25.473   6.495
 4648POPC   C3B60705  11.959  25.749   6.836
 4648POPC   C4B60706  11.692  25.815   7.183
 4649POPC   NC360707  16.064   7.000   5.472
 4649POPC   PO460708  15.675   7.576   5.478
 4649POPC   GL160709  15.893   7.494   5.856
 4649POPC   GL260710  16.261   7.495   5.785
 4649POPC   C1A60711  16.038   7.151   6.133
 4649POPC   D2A60712  16.106   6.939   6.521
 4649POPC   C3A60713  15.959   7.240   6.820
 4649POPC   C4A60714  15.698   7.366   7.154
 4649POPC   C1B60715  16.340   7.607   6.220
 4649POPC   C2B60716  16.370   7.843   6.617
 4649POPC   C3B60717  16.097   7.736   6.924
 4649POPC   C4B60718  16.212   7.438   7.226
 4650POPC   NC360719   8.516  15.564   5.508
 4650POPC   PO460720   9.100  15.970   5.325
 4650POPC   GL160721   8.903  15.874   5.757
 4650POPC   GL260722   8.601  15.741   5.968
 4650POPC   C1A60723   9.068  15.781   6.171
 4650POPC   D2A60724   8.909  15.607   6.560
 4650POPC   C3A60725   9.107  15.849   6.891
 4650POPC   C4A60726   9.210  15.964   7.326
 4650POPC   C1B60727   8.639  16.055   6.290
 4650POPC   C2B60728   8.650  16.069   6.742
 4650POPC   C3B60729   8.687  15.927   7.179
 4650POPC   C4B60730   8.733  16.078   7.600
 4651POPC   NC360731   6.103  14.773   5.559
 4651POPC   PO460732   6.601  14.383   5.347
 4651POPC   GL160733   6.714  14.232   5.741
 4651POPC   GL260734   6.577  13.980   5.714
 4651POPC   C1A60735   6.659  14.393   6.153
 4651POPC   D2A60736   6.846  14.566   6.497
 4651POPC   C3A60737   6.696  14.472   6.870
 4651POPC   C4A60738   6.412  14.551   7.201
 4651POPC   C1B60739   6.598  13.888   6.164
 4651POPC   C2B60740   6.466  14.088   6.537
 4651POPC   C3B60741   6.378  14.086   6.945
 4651POPC   C4B60742   6.718  14.121   7.233
 4652POPC   NC360743  18.457   5.185   5.585
 4652POPC   PO460744  19.013   4.954   5.238
 4652POPC   GL160745  18.958   5.063   5.658
 4652POPC   GL260746  18.951   5.417   5.602
 4652POPC   C1A60747  19.017   5.027   6.120
 4652POPC   D2A60748  19.097   5.060   6.576
 4652POPC   C3A60749  18.938   4.809   6.917
 4652POPC   C4A60750  19.195   4.930   7.262
 4652POPC   C1B60751  18.822   5.543   6.009
 4652POPC   C2B60752  18.735   5.365   6.393
 4652POPC   C3B60753  18.714   5.272   6.835
 4652POPC   C4B60754  18.724   5.140   7.236
 4653POPC   NC360755  10.088  11.047   5.578
 4653POPC   PO460756   9.484  10.953   5.601
 4653POPC   GL160757   9.477  11.322   5.887
 4653POPC   GL260758   9.772  11.527   5.888
 4653POPC   C1A60759   9.381  11.419   6.328
 4653POPC   D2A60760   9.546  11.248   6.728
 4653POPC   C3A60761   9.778  11.420   7.069
 4653POPC   C4A60762   9.798  11.319   7.513
 4653POPC   C1B60763   9.905  11.344   6.324
 4653POPC   C2B60764  10.115  11.207   6.756
 4653POPC   C3B60765  10.211  11.153   7.248
 4653POPC   C4B60766  10.241  11.296   7.735
 4654POPC   NC360767   1.292  30.747   5.391
 4654POPC   PO460768   0.763  30.414   5.388
 4654POPC   GL160769   0.858  30.719   5.726
 4654POPC   GL260770   0.954  31.078   5.630
 4654POPC   C1A60771   1.002  30.631   6.168
 4654POPC   D2A60772   1.332  30.580   6.489
 4654POPC   C3A60773   1.340  30.656   6.942
 4654POPC   C4A60774   1.502  31.018   7.146
 4654POPC   C1B60775   1.063  31.160   6.055
 4654POPC   C2B60776   1.185  31.168   6.500
 4654POPC   C3B60777   1.006  31.078   6.925
 4654POPC   C4B60778   0.783  31.086   7.316
 4655POPC   NC360779  10.749  33.351   5.209
 4655POPC   PO460780  10.373  32.917   5.451
 4655POPC   GL160781  10.512  32.801   5.844
 4655POPC   GL260782  10.797  33.028   5.836
 4655POPC   C1A60783  10.458  32.999   6.249
 4655POPC   D2A60784  10.672  33.018   6.659
 4655POPC   C3A60785  10.328  32.941   6.941
 4655POPC   C4A60786  10.001  33.037   7.221
 4655POPC   C1B60787  10.920  32.791   6.210
 4655POPC   C2B60788  11.149  32.838   6.586
 4655POPC   C3B60789  11.057  32.929   7.017
 4655POPC   C4B60790  10.711  32.923   7.259
 4656POPC   NC360791  37.046  15.627   5.370
 4656POPC   PO460792  36.757  16.231   5.204
 4656POPC   GL160793  36.772  15.997   5.647
 4656POPC   GL260794  37.121  15.947   5.775
 4656POPC   C1A60795  36.706  15.866   6.106
 4656POPC   D2A60796  36.780  16.019   6.555
 4656POPC   C3A60797  36.652  15.831   6.944
 4656POPC   C4A60798  36.803  15.728   7.368
 4656POPC   C1B60799  37.200  16.039   6.220
 4656POPC   C2B60800  37.290  15.843   6.633
 4656POPC   C3B60801  37.163  15.918   7.051
 4656POPC   C4B60802  37.028  16.189   7.381
 4657POPC   NC360803   0.670  44.597   5.631
 4657POPC   PO460804   0.239  44.901   5.239
 4657POPC   GL160805   0.266  44.926   5.720
 4657POPC   GL260806   0.120  44.598   5.841
 4657POPC   C1A60807   0.426  44.841   6.189
 4657POPC   D2A60808   0.514  44.590   6.584
 4657POPC   C3A60809   0.492  44.711   7.017
 4657POPC   C4A60810   0.737   0.043   7.223
 4657POPC   C1B60811   0.206  44.349   6.236
 4657POPC   C2B60812   0.023  44.282   6.664
 4657POPC   C3B60813   0.041  44.171   7.106
 4657POPC   C4B60814   0.326  44.293   7.445
 4658POPC   NC360815   5.319  25.521   5.118
 4658POPC   PO460816   5.082  24.991   5.588
 4658POPC   GL160817   5.289  25.330   5.766
 4658POPC   GL260818   4.976  25.423   5.938
 4658POPC   C1A60819   5.419  25.528   6.145
 4658POPC   D2A60820   5.219  25.472   6.537
 4658POPC   C3A60821   5.417  25.583   6.915
 4658POPC   C4A60822   5.171  25.462   7.255
 4658POPC   C1B60823   4.981  25.107   6.220
 4658POPC   C2B60824   4.996  24.892   6.594
 4658POPC   C3B60825   4.942  25.127   6.940
 4658POPC   C4B60826   4.741  25.167   7.311
 4659POPC   NC360827  12.200  18.852   5.246
 4659POPC   PO460828  12.350  18.239   5.198
 4659POPC   GL160829  12.291  18.272   5.650
 4659POPC   GL260830  12.423  18.570   5.817
 4659POPC   C1A60831  12.245  18.084   6.066
 4659POPC   D2A60832  12.411  18.079   6.490
 4659POPC   C3A60833  12.163  18.004   6.845
 4659POPC   C4A60834  12.217  18.107   7.259
 4659POPC   C1B60835  12.278  18.562   6.268
 4659POPC   C2B60836  12.253  18.514   6.733
 4659POPC   C3B60837  12.566  18.669   7.005
 4659POPC   C4B60838  12.327  18.592   7.307
 4660POPC   NC360839   3.549  26.992   5.525
 4660POPC   PO460840   3.233  26.344   5.540
 4660POPC   GL160841   3.413  26.627   5.909
 4660POPC   GL260842   3.769  26.766   5.929
 4660POPC   C1A60843   3.465  26.923   6.299
 4660POPC   D2A60844   3.165  27.178   6.554
 4660POPC   C3A60845   3.069  26.963   6.932
 4660POPC   C4A60846   3.477  26.888   7.125
 4660POPC   C1B60847   3.896  26.392   6.138
 4660POPC   C2B60848   4.026  26.333   6.566
 4660POPC   C3B60849   3.823  26.514   6.881
 4660POPC   C4B60850   3.725  26.469   7.255
 4661POPC   NC360851  44.212   0.326   5.369
 4661POPC   PO460852  44.893   0.617   5.435
 4661POPC   GL160853  44.781   0.379   5.766
 4661POPC   GL260854  44.436   0.286   5.818
 4661POPC   C1A60855  44.716   0.431   6.205
 4661POPC   D2A60856  44.559   0.093   6.479
 4661POPC   C3A60857  44.651   0.216   6.870
 4661POPC   C4A60858  44.742   0.361   7.284
 4661POPC   C1B60859  44.228   0.411   6.236
 4661POPC   C2B60860  44.146   0.316   6.692
 4661POPC   C3B60861  44.255   0.369   7.134
 4661POPC   C4B60862  44.181   0.384   7.573
 4662POPC   NC360863  28.787  21.460   5.480
 4662POPC   PO460864  29.364  21.830   5.347
 4662POPC   GL160865  29.152  21.670   5.760
 4662POPC   GL260866  29.137  21.296   5.825
 4662POPC   C1A60867  28.874  21.637   6.146
 4662POPC   D2A60868  28.980  21.556   6.569
 4662POPC   C3A60869  28.792  21.332   6.902
 4662POPC   C4A60870  28.890  21.293   7.311
 4662POPC   C1B60871  29.028  21.156   6.229
 4662POPC   C2B60872  29.089  21.002   6.657
 4662POPC   C3B60873  29.281  21.158   7.039
 4662POPC   C4B60874  29.406  21.261   7.487
 4663POPC   NC360875  23.653  12.228   5.338
 4663POPC   PO460876  24.247  11.773   5.238
 4663POPC   GL160877  23.957  11.816   5.664
 4663POPC   GL260878  23.578  11.895   5.711
 4663POPC   C1A60879  23.906  12.043   6.104
 4663POPC   D2A60880  23.846  12.358   6.442
 4663POPC   C3A60881  24.045  12.253   6.836
 4663POPC   C4A60882  23.866  12.237   7.270
 4663POPC   C1B60883  23.486  11.752   6.122
 4663POPC   C2B60884  23.668  11.886   6.530
 4663POPC   C3B60885  23.512  12.144   6.865
 4663POPC   C4B60886  23.498  11.889   7.218
 4664POPC   NC360887  27.018  17.707   5.251
 4664POPC   PO460888  26.560  17.378   5.592
 4664POPC   GL160889  26.740  17.549   5.889
 4664POPC   GL260890  27.048  17.703   5.772
 4664POPC   C1A60891  26.559  17.510   6.282
 4664POPC   D2A60892  26.695  17.710   6.609
 4664POPC   C3A60893  26.591  17.557   6.966
 4664POPC   C4A60894  26.736  17.592   7.369
 4664POPC   C1B60895  27.094  17.669   6.231
 4664POPC   C2B60896  27.111  17.399   6.597
 4664POPC   C3B60897  27.090  17.453   7.034
 4664POPC   C4B60898  27.070  17.213   7.428
 4665POPC   NC360899  11.534  40.067   5.388
 4665POPC   PO460900  10.893  39.865   5.471
 4665POPC   GL160901  11.169  40.089   5.809
 4665POPC   GL260902  11.485  39.923   5.881
 4665POPC   C1A60903  11.302  40.260   6.243
 4665POPC   D2A60904  11.133  40.171   6.665
 4665POPC   C3A60905  11.321  40.124   7.083
 4665POPC   C4A60906  11.220  40.269   7.501
 4665POPC   C1B60907  11.560  39.834   6.290
 4665POPC   C2B60908  11.642  39.949   6.698
 4665POPC   C3B60909  11.554  39.661   7.024
 4665POPC   C4B60910  11.475  39.748   7.459
 4666POPC   NC360911  11.521  31.504   5.370
 4666POPC   PO460912  10.970  31.534   5.611
 4666POPC   GL160913  11.400  31.459   5.846
 4666POPC   GL260914  11.479  31.126   5.956
 4666POPC   C1A60915  11.667  31.532   6.194
 4666POPC   D2A60916  11.420  31.545   6.533
 4666POPC   C3A60917  11.581  31.569   6.900
 4666POPC   C4A60918  11.260  31.528   7.185
 4666POPC   C1B60919  11.066  31.223   6.146
 4666POPC   C2B60920  10.936  31.386   6.494
 4666POPC   C3B60921  10.942  31.263   6.892
 4666POPC   C4B60922  11.063  31.053   7.284
 4667POPC   NC360923   2.314  16.449   5.517
 4667POPC   PO460924   2.012  15.806   5.456
 4667POPC   GL160925   1.940  15.975   5.838
 4667POPC   GL260926   2.298  16.011   5.864
 4667POPC   C1A60927   1.998  16.066   6.281
 4667POPC   D2A60928   1.829  15.948   6.664
 4667POPC   C3A60929   2.120  16.017   6.964
 4667POPC   C4A60930   2.032  15.999   7.393
 4667POPC   C1B60931   2.314  15.655   6.177
 4667POPC   C2B60932   2.185  15.604   6.601
 4667POPC   C3B60933   2.309  15.532   7.021
 4667POPC   C4B60934   2.484  15.808   7.272
 4668POPC   NC360935  34.308  44.448   5.142
 4668POPC   PO460936  34.790  44.901   5.267
 4668POPC   GL160937  34.751  44.705   5.652
 4668POPC   GL260938  34.712  44.376   5.525
 4668POPC   C1A60939  34.589  44.852   6.054
 4668POPC   D2A60940  34.672  44.915   6.489
 4668POPC   C3A60941  34.470  44.836   6.848
 4668POPC   C4A60942  34.692  44.841   7.246
 4668POPC   C1B60943  34.406  44.400   5.890
 4668POPC   C2B60944  34.379  44.481   6.347
 4668POPC   C3B60945  34.176  44.410   6.742
 4668POPC   C4B60946  34.369  44.438   7.154
 4669POPC   NC360947  19.677  38.374   5.605
 4669POPC   PO460948  20.195  37.880   5.706
 4669POPC   GL160949  20.043  38.257   6.032
 4669POPC   GL260950  19.703  38.453   6.081
 4669POPC   C1A60951  19.895  38.265   6.492
 4669POPC   D2A60952  19.932  38.558   6.815
 4669POPC   C3A60953  19.787  38.483   7.173
 4669POPC   C4A60954  19.804  38.042   7.208
 4669POPC   C1B60955  19.937  38.742   6.300
 4669POPC   C2B60956  19.799  38.979   6.628
 4669POPC   C3B60957  19.520  39.103   6.895
 4669POPC   C4B60958  19.345  38.815   7.172
 4670POPC   NC360959  42.942  22.934   5.150
 4670POPC   PO460960  43.604  22.685   5.306
 4670POPC   GL160961  43.258  22.770   5.627
 4670POPC   GL260962  43.176  23.111   5.673
 4670POPC   C1A60963  43.135  22.759   6.089
 4670POPC   D2A60964  42.966  22.609   6.495
 4670POPC   C3A60965  43.119  22.780   6.890
 4670POPC   C4A60966  43.201  22.959   7.298
 4670POPC   C1B60967  43.024  23.263   6.110
 4670POPC   C2B60968  42.899  23.126   6.531
 4670POPC   C3B60969  42.808  23.197   6.961
 4670POPC   C4B60970  42.993  23.405   7.292
 4671POPC   NC360971  42.904  30.378   5.067
 4671POPC   PO460972  42.369  30.496   5.509
 4671POPC   GL160973  42.274  30.481   5.924
 4671POPC   GL260974  42.590  30.593   5.983
 4671POPC   C1A60975  42.261  30.663   6.347
 4671POPC   D2A60976  42.349  30.879   6.725
 4671POPC   C3A60977  42.230  30.634   7.049
 4671POPC   C4A60978  42.157  30.457   7.419
 4671POPC   C1B60979  42.572  30.268   6.290
 4671POPC   C2B60980  42.559  30.386   6.707
 4671POPC   C3B60981  42.541  30.214   7.096
 4671POPC   C4B60982  42.587  30.230   7.539
 4672POPC   NC360983   3.101  38.649   5.573
 4672POPC   PO460984   2.507  38.347   5.351
 4672POPC   GL160985   2.572  38.184   5.764
 4672POPC   GL260986   2.942  38.173   5.797
 4672POPC   C1A60987   2.614  38.283   6.229
 4672POPC   D2A60988   2.736  38.066   6.613
 4672POPC   C3A60989   2.489  38.217   6.966
 4672POPC   C4A60990   2.570  38.307   7.395
 4672POPC   C1B60991   3.098  38.412   6.177
 4672POPC   C2B60992   2.945  38.566   6.579
 4672POPC   C3B60993   2.950  38.481   7.023
 4672POPC   C4B60994   3.079  38.268   7.399
 4673POPC   NC360995  31.516   2.405   5.457
 4673POPC   PO460996  31.119   1.866   5.580
 4673POPC   GL160997  31.289   2.122   5.902
 4673POPC   GL260998  31.628   2.227   5.929
 4673POPC   C1A60999  31.408   1.902   6.288
 4673POPC   D2A61000  31.230   1.727   6.654
 4673POPC   C3A61001  31.541   1.788   6.952
 4673POPC   C4A61002  31.406   1.940   7.332
 4673POPC   C1B61003  31.433   2.412   6.299
 4673POPC   C2B61004  31.466   2.248   6.690
 4673POPC   C3B61005  31.630   2.324   7.063
 4673POPC   C4B61006  31.878   2.109   7.324
 4674POPC   NC361007  41.019  25.573   5.536
 4674POPC   PO461008  40.678  24.983   5.480
 4674POPC   GL161009  40.782  25.212   5.873
 4674POPC   GL261010  40.671  25.569   5.908
 4674POPC   C1A61011  40.503  25.292   6.277
 4674POPC   D2A61012  40.414  25.502   6.663
 4674POPC   C3A61013  40.615  25.346   7.050
 4674POPC   C4A61014  40.793  25.173   7.429
 4674POPC   C1B61015  40.967  25.526   6.272
 4674POPC   C2B61016  40.965  25.564   6.723
 4674POPC   C3B61017  41.034  25.596   7.183
 4674POPC   C4B61018  41.091  25.554   7.619
 4675POPC   NC361019   0.992  15.214   5.504
 4675POPC   PO461020   1.618  14.948   5.385
 4675POPC   GL161021   1.530  15.138   5.798
 4675POPC   GL261022   1.209  15.022   5.923
 4675POPC   C1A61023   1.559  15.134   6.265
 4675POPC   D2A61024   1.291  15.217   6.624
 4675POPC   C3A61025   1.460  15.130   7.038
 4675POPC   C4A61026   1.309  15.272   7.459
 4675POPC   C1B61027   1.113  14.834   6.344
 4675POPC   C2B61028   1.103  14.784   6.834
 4675POPC   C3B61029   0.951  15.028   7.202
 4675POPC   C4B61030   0.962  14.963   7.677
 4676POPC   NC361031  23.424  20.128   5.352
 4676POPC   PO461032  22.753  19.951   5.204
 4676POPC   GL161033  22.782  19.813   5.713
 4676POPC   GL261034  23.168  19.839   5.793
 4676POPC   C1A61035  22.705  20.022   6.149
 4676POPC   D2A61036  22.901  19.995   6.563
 4676POPC   C3A61037  22.624  19.757   6.805
 4676POPC   C4A61038  22.504  20.012   7.155
 4676POPC   C1B61039  23.056  19.646   6.194
 4676POPC   C2B61040  23.011  19.447   6.614
 4676POPC   C3B61041  23.078  19.679   7.015
 4676POPC   C4B61042  23.226  19.617   7.412
 4677POPC   NC361043  34.098  30.964   5.313
 4677POPC   PO461044  33.457  30.974   5.342
 4677POPC   GL161045  33.721  30.854   5.705
 4677POPC   GL261046  34.032  30.702   5.779
 4677POPC   C1A61047  33.688  30.785   6.165
 4677POPC   D2A61048  33.707  31.017   6.573
 4677POPC   C3A61049  33.818  30.784   6.959
 4677POPC   C4A61050  33.505  30.650   7.256
 4677POPC   C1B61051  34.271  30.432   6.090
 4677POPC   C2B61052  34.295  30.421   6.574
 4677POPC   C3B61053  34.317  30.597   7.002
 4677POPC   C4B61054  34.152  30.658   7.423
 4678POPC   NC361055  16.780  44.362   5.430
 4678POPC   PO461056  16.783  43.748   5.164
 4678POPC   GL161057  16.806  43.774   5.599
 4678POPC   GL261058  16.520  43.982   5.688
 4678POPC   C1A61059  16.810  43.718   6.059
 4678POPC   D2A61060  16.665  43.927   6.453
 4678POPC   C3A61061  16.688  43.755   6.859
 4678POPC   C4A61062  16.905  43.733   7.269
 4678POPC   C1B61063  16.494  44.241   6.059
 4678POPC   C2B61064  16.223  44.200   6.418
 4678POPC   C3B61065  16.355  44.201   6.829
 4678POPC   C4B61066  16.676  44.201   7.137
 4679POPC   NC361067   9.774  43.522   5.581
 4679POPC   PO461068   9.652  44.178   5.590
 4679POPC   GL161069   9.838  44.149   5.989
 4679POPC   GL261070  10.196  44.239   6.056
 4679POPC   C1A61071   9.642  44.036   6.394
 4679POPC   D2A61072   9.709  44.102   6.849
 4679POPC   C3A61073   9.569  43.832   7.155
 4679POPC   C4A61074   9.818  43.484   7.203
 4679POPC   C1B61075  10.053  44.340   6.496
 4679POPC   C2B61076  10.178  44.280   6.948
 4679POPC   C3B61077   9.989  44.180   7.341
 4679POPC   C4B61078   9.904  44.284   7.788
 4680POPC   NC361079  27.509  14.462   5.415
 4680POPC   PO461080  28.040  13.989   5.427
 4680POPC   GL161081  27.781  14.247   5.780
 4680POPC   GL261082  27.787  14.653   5.788
 4680POPC   C1A61083  27.616  14.174   6.215
 4680POPC   D2A61084  27.748  13.974   6.622
 4680POPC   C3A61085  27.571  14.148   7.010
 4680POPC   C4A61086  27.768  14.495   7.227
 4680POPC   C1B61087  27.545  14.715   6.187
 4680POPC   C2B61088  27.350  14.536   6.566
 4680POPC   C3B61089  27.370  14.704   6.995
 4680POPC   C4B61090  27.465  14.893   7.420
 4681POPC   NC361091  33.528  11.045   5.155
 4681POPC   PO461092  32.924  11.089   5.464
 4681POPC   GL161093  32.966  11.268   5.889
 4681POPC   GL261094  33.233  11.482   5.982
 4681POPC   C1A61095  33.050  11.091   6.277
 4681POPC   D2A61096  33.360  10.975   6.556
 4681POPC   C3A61097  33.348  11.210   6.931
 4681POPC   C4A61098  33.329  11.065   7.351
 4681POPC   C1B61099  32.867  11.562   6.313
 4681POPC   C2B61100  32.840  11.274   6.700
 4681POPC   C3B61101  32.881  11.153   7.138
 4681POPC   C4B61102  32.882  11.559   7.380
 4682POPC   NC361103   7.425  13.327   5.031
 4682POPC   PO461104   7.341  13.886   5.520
 4682POPC   GL161105   7.370  13.647   5.864
 4682POPC   GL261106   7.274  13.296   5.776
 4682POPC   C1A61107   7.514  13.819   6.253
 4682POPC   D2A61108   7.720  13.811   6.635
 4682POPC   C3A61109   7.496  13.680   7.024
 4682POPC   C4A61110   7.363  13.971   7.348
 4682POPC   C1B61111   7.414  13.230   6.238
 4682POPC   C2B61112   7.407  13.161   6.719
 4682POPC   C3B61113   7.539  13.191   7.158
 4682POPC   C4B61114   7.829  13.062   7.462
 4683POPC   NC361115  25.057  30.734   4.959
 4683POPC   PO461116  24.676  31.098   5.336
 4683POPC   GL161117  24.607  30.797   5.656
 4683POPC   GL261118  24.261  30.731   5.639
 4683POPC   C1A61119  24.645  30.544   6.023
 4683POPC   D2A61120  24.767  30.442   6.434
 4683POPC   C3A61121  24.784  30.550   6.843
 4683POPC   C4A61122  24.686  30.619   7.261
 4683POPC   C1B61123  24.253  30.880   6.089
 4683POPC   C2B61124  24.414  30.813   6.534
 4683POPC   C3B61125  24.287  30.620   6.935
 4683POPC   C4B61126  24.178  30.728   7.338
 4684POPC   NC361127  22.299  41.609   5.589
 4684POPC   PO461128  21.805  41.955   5.322
 4684POPC   GL161129  21.897  41.859   5.795
 4684POPC   GL261130  21.852  41.525   5.861
 4684POPC   C1A61131  22.125  41.718   6.250
 4684POPC   D2A61132  22.367  41.487   6.635
 4684POPC   C3A61133  22.419  41.687   7.074
 4684POPC   C4A61134  22.416  41.749   7.556
 4684POPC   C1B61135  21.831  41.294   6.251
 4684POPC   C2B61136  21.855  41.493   6.640
 4684POPC   C3B61137  22.021  41.352   7.039
 4684POPC   C4B61138  21.767  41.297   7.394
 4685POPC   NC361139  36.092  25.123   5.357
 4685POPC   PO461140  36.191  25.748   5.344
 4685POPC   GL161141  36.219  25.510   5.724
 4685POPC   GL261142  35.882  25.336   5.808
 4685POPC   C1A61143  36.307  25.416   6.153
 4685POPC   D2A61144  36.133  25.577   6.534
 4685POPC   C3A61145  36.312  25.364   6.853
 4685POPC   C4A61146  36.277  25.435   7.230
 4685POPC   C1B61147  35.896  25.087   6.198
 4685POPC   C2B61148  36.025  24.991   6.648
 4685POPC   C3B61149  35.881  25.084   7.097
 4685POPC   C4B61150  35.936  25.267   7.547
 4686POPC   NC361151  37.477  19.240   5.397
 4686POPC   PO461152  38.081  18.902   5.519
 4686POPC   GL161153  37.865  19.133   5.812
 4686POPC   GL261154  37.588  18.890   5.781
 4686POPC   C1A61155  37.747  19.117   6.277
 4686POPC   D2A61156  37.980  19.038   6.694
 4686POPC   C3A61157  37.821  19.087   7.137
 4686POPC   C4A61158  37.465  19.322   7.297
 4686POPC   C1B61159  37.485  18.588   6.110
 4686POPC   C2B61160  37.375  18.649   6.530
 4686POPC   C3B61161  37.391  18.939   6.879
 4686POPC   C4B61162  37.441  18.793   7.291
 4687POPC   NC361163  14.894  42.206   5.443
 4687POPC   PO461164  15.521  42.374   5.214
 4687POPC   GL161165  15.470  42.342   5.713
 4687POPC   GL261166  15.163  42.473   5.867
 4687POPC   C1A61167  15.392  42.138   6.185
 4687POPC   D2A61168  15.209  42.173   6.630
 4687POPC   C3A61169  15.439  42.144   7.056
 4687POPC   C4A61170  15.234  41.878   7.366
 4687POPC   C1B61171  15.258  42.640   6.319
 4687POPC   C2B61172  15.290  42.649   6.787
 4687POPC   C3B61173  15.403  42.616   7.226
 4687POPC   C4B61174  15.477  42.780   7.666
 4688POPC   NC361175  28.652   8.773   5.483
 4688POPC   PO461176  28.247   9.284   5.331
 4688POPC   GL161177  28.200   9.061   5.727
 4688POPC   GL261178  28.222   8.680   5.751
 4688POPC   C1A61179  28.344   9.119   6.156
 4688POPC   D2A61180  28.408   9.023   6.603
 4688POPC   C3A61181  28.075   8.847   6.911
 4688POPC   C4A61182  28.215   9.038   7.311
 4688POPC   C1B61183  28.502   8.608   6.131
 4688POPC   C2B61184  28.647   8.556   6.562
 4688POPC   C3B61185  28.558   8.703   6.986
 4688POPC   C4B61186  28.451   8.449   7.333
 4689POPC   NC361187  29.478  42.354   5.603
 4689POPC   PO461188  30.121  42.423   5.452
 4689POPC   GL161189  30.167  42.519   5.886
 4689POPC   GL261190  29.869  42.341   5.928
 4689POPC   C1A61191  30.173  42.396   6.347
 4689POPC   D2A61192  30.000  42.589   6.735
 4689POPC   C3A61193  30.040  42.407   7.120
 4689POPC   C4A61194  29.811  42.267   7.475
 4689POPC   C1B61195  29.677  42.318   6.334
 4689POPC   C2B61196  29.863  42.098   6.701
 4689POPC   C3B61197  29.867  41.921   7.115
 4689POPC   C4B61198  29.616  41.794   7.471
 4690POPC   NC361199  40.602  36.516   5.102
 4690POPC   PO461200  40.911  36.010   5.223
 4690POPC   GL161201  40.762  36.015   5.674
 4690POPC   GL261202  40.826  36.330   5.844
 4690POPC   C1A61203  40.740  35.910   6.148
 4690POPC   D2A61204  40.715  36.116   6.584
 4690POPC   C3A61205  40.725  35.885   6.994
 4690POPC   C4A61206  40.422  35.768   7.340
 4690POPC   C1B61207  40.880  36.502   6.286
 4690POPC   C2B61208  41.047  36.502   6.739
 4690POPC   C3B61209  40.879  36.456   7.182
 4690POPC   C4B61210  40.785  36.465   7.675
 4691POPC   NC361211   5.438   0.176   5.338
 4691POPC   PO461212   5.000   0.592   5.524
 4691POPC   GL161213   5.137   0.740   5.884
 4691POPC   GL261214   4.824   0.835   5.968
 4691POPC   C1A61215   5.273   0.582   6.267
 4691POPC   D2A61216   5.506   0.645   6.626
 4691POPC   C3A61217   5.276   0.450   6.935
 4691POPC   C4A61218   5.368   0.617   7.293
 4691POPC   C1B61219   4.802   0.377   6.115
 4691POPC   C2B61220   4.645   0.334   6.516
 4691POPC   C3B61221   4.735   0.701   6.801
 4691POPC   C4B61222   4.869   0.675   7.224
 4692POPC   NC361223  30.403  31.780   5.396
 4692POPC   PO461224  31.061  31.565   5.363
 4692POPC   GL161225  30.882  31.591   5.808
 4692POPC   GL261226  30.503  31.576   5.853
 4692POPC   C1A61227  30.779  31.355   6.217
 4692POPC   D2A61228  30.574  31.207   6.620
 4692POPC   C3A61229  30.886  31.219   6.912
 4692POPC   C4A61230  30.970  31.422   7.296
 4692POPC   C1B61231  30.229  31.729   6.194
 4692POPC   C2B61232  30.093  31.854   6.609
 4692POPC   C3B61233  30.272  31.744   6.986
 4692POPC   C4B61234  30.463  31.375   7.185
 4693POPC   NC361235   2.273  22.488   5.585
 4693POPC   PO461236   2.850  22.835   5.415
 4693POPC   GL161237   2.864  23.006   5.804
 4693POPC   GL261238   2.585  22.808   5.899
 4693POPC   C1A61239   2.737  23.172   6.193
 4693POPC   D2A61240   2.535  23.144   6.568
 4693POPC   C3A61241   2.763  23.125   6.913
 4693POPC   C4A61242   2.803  23.018   7.285
 4693POPC   C1B61243   2.962  22.730   6.209
 4693POPC   C2B61244   2.881  22.686   6.635
 4693POPC   C3B61245   3.123  22.723   7.005
 4693POPC   C4B61246   3.028  22.482   7.364
 4694POPC   NC361247  21.617  44.951   5.365
 4694POPC   PO461248  20.960  44.995   5.439
 4694POPC   GL161249  21.267  44.949   5.823
 4694POPC   GL261250  21.628   0.129   5.864
 4694POPC   C1A61251  21.317   0.117   6.272
 4694POPC   D2A61252  21.297   0.340   6.691
 4694POPC   C3A61253  21.387   0.160   7.119
 4694POPC   C4A61254  21.221   0.186   7.566
 4694POPC   C1B61255  21.686   0.472   6.229
 4694POPC   C2B61256  21.640   0.729   6.629
 4694POPC   C3B61257  21.573   0.645   7.090
 4694POPC   C4B61258  21.837   0.613   7.486
 4695POPC   NC361259  11.168  12.440   5.370
 4695POPC   PO461260  11.151  13.078   5.314
 4695POPC   GL161261  11.361  13.026   5.693
 4695POPC   GL261262  11.258  12.723   5.777
 4695POPC   C1A61263  11.417  13.047   6.144
 4695POPC   D2A61264  11.231  12.909   6.536
 4695POPC   C3A61265  11.375  12.999   6.913
 4695POPC   C4A61266  11.431  12.684   7.186
 4695POPC   C1B61267  11.027  12.647   6.157
 4695POPC   C2B61268  10.836  12.562   6.522
 4695POPC   C3B61269  10.958  12.624   6.938
 4695POPC   C4B61270  11.077  12.311   7.262
 4696POPC   NC361271  32.553  40.246   5.291
 4696POPC   PO461272  33.124  40.607   5.407
 4696POPC   GL161273  32.894  40.781   5.783
 4696POPC   GL261274  32.672  41.076   5.826
 4696POPC   C1A61275  32.932  40.837   6.225
 4696POPC   D2A61276  33.205  40.993   6.535
 4696POPC   C3A61277  33.092  40.898   6.948
 4696POPC   C4A61278  33.322  40.994   7.310
 4696POPC   C1B61279  32.494  41.122   6.240
 4696POPC   C2B61280  32.581  40.916   6.641
 4696POPC   C3B61281  32.595  41.002   7.074
 4696POPC   C4B61282  32.867  41.314   7.206
 4697POPC   NC361283  23.016  11.740   5.574
 4697POPC   PO461284  23.073  12.421   5.516
 4697POPC   GL161285  22.924  12.207   5.884
 4697POPC   GL261286  22.609  12.037   5.766
 4697POPC   C1A61287  23.085  12.025   6.286
 4697POPC   D2A61288  23.174  11.751   6.669
 4697POPC   C3A61289  23.019  11.937   7.047
 4697POPC   C4A61290  23.064  12.049   7.488
 4697POPC   C1B61291  22.605  11.828   6.169
 4697POPC   C2B61292  22.685  11.935   6.597
 4697POPC   C3B61293  22.508  11.891   6.975
 4697POPC   C4B61294  22.619  11.769   7.353
 4698POPC   NC361295  30.000  13.957   5.459
 4698POPC   PO461296  29.715  13.464   5.175
 4698POPC   GL161297  29.733  13.571   5.672
 4698POPC   GL261298  29.589  13.908   5.767
 4698POPC   C1A61299  29.981  13.732   6.090
 4698POPC   D2A61300  29.877  13.752   6.546
 4698POPC   C3A61301  30.055  13.792   6.962
 4698POPC   C4A61302  30.136  13.708   7.407
 4698POPC   C1B61303  29.382  14.052   6.140
 4698POPC   C2B61304  29.528  14.145   6.558
 4698POPC   C3B61305  29.514  13.890   6.940
 4698POPC   C4B61306  29.694  13.978   7.335
 4699POPC   NC361307  10.953   3.096   5.649
 4699POPC   PO461308  11.386   2.696   5.204
 4699POPC   GL161309  11.284   2.691   5.637
 4699POPC   GL261310  10.967   2.564   5.760
 4699POPC   C1A61311  11.339   2.754   6.082
 4699POPC   D2A61312  11.281   2.640   6.498
 4699POPC   C3A61313  11.196   2.908   6.832
 4699POPC   C4A61314  11.401   2.746   7.199
 4699POPC   C1B61315  10.835   2.508   6.204
 4699POPC   C2B61316  10.920   2.307   6.612
 4699POPC   C3B61317  11.011   2.432   7.030
 4699POPC   C4B61318  11.001   2.544   7.509
 4700POPC   NC361319  23.554  44.989   5.453
 4700POPC   PO461320  23.395   0.558   5.386
 4700POPC   GL161321  23.658   0.348   5.821
 4700POPC   GL261322  23.764  44.972   5.921
 4700POPC   C1A61323  23.875   0.315   6.283
 4700POPC   D2A61324  23.853   0.232   6.745
 4700POPC   C3A61325  23.891   0.464   7.124
 4700POPC   C4A61326  23.632   0.649   7.435
 4700POPC   C1B61327  23.412   0.115   6.232
 4700POPC   C2B61328  23.354   0.255   6.691
 4700POPC   C3B61329  23.439   0.215   7.164
 4700POPC   C4B61330  23.476   0.203   7.648
 4701POPC   NC361331  38.361  39.910   5.356
 4701POPC   PO461332  37.710  40.028   5.381
 4701POPC   GL161333  37.467  40.218   5.720
 4701POPC   GL261334  37.740  40.022   5.914
 4701POPC   C1A61335  37.485  40.402   6.140
 4701POPC   D2A61336  37.687  40.149   6.456
 4701POPC   C3A61337  37.616  40.230   6.887
 4701POPC   C4A61338  37.330  40.191   7.233
 4701POPC   C1B61339  37.900  39.671   6.169
 4701POPC   C2B61340  37.890  39.492   6.551
 4701POPC   C3B61341  37.786  39.729   6.875
 4701POPC   C4B61342  37.585  39.739   7.247
 4702POPC   NC361343  42.657  35.214   4.996
 4702POPC   PO461344  42.245  35.655   5.333
 4702POPC   GL161345  42.198  35.565   5.793
 4702POPC   GL261346  42.284  35.221   5.897
 4702POPC   C1A61347  42.466  35.621   6.188
 4702POPC   D2A61348  42.738  35.619   6.540
 4702POPC   C3A61349  42.552  35.654   6.944
 4702POPC   C4A61350  42.467  35.292   7.146
 4702POPC   C1B61351  42.453  35.123   6.276
 4702POPC   C2B61352  42.323  35.327   6.622
 4702POPC   C3B61353  42.004  35.380   6.894
 4702POPC   C4B61354  42.000  35.153   7.296
 4703POPC   NC361355  43.263  37.597   5.305
 4703POPC   PO461356  42.665  37.903   5.414
 4703POPC   GL161357  42.949  37.745   5.749
 4703POPC   GL261358  43.001  37.394   5.765
 4703POPC   C1A61359  43.076  37.640   6.194
 4703POPC   D2A61360  43.176  37.800   6.573
 4703POPC   C3A61361  43.100  37.520   6.896
 4703POPC   C4A61362  43.037  37.698   7.279
 4703POPC   C1B61363  43.402  37.278   6.006
 4703POPC   C2B61364  43.464  37.332   6.456
 4703POPC   C3B61365  43.488  37.169   6.881
 4703POPC   C4B61366  43.453  37.367   7.265
 4704POPC   NC361367  30.567  43.519   5.604
 4704POPC   PO461368  30.397  44.138   5.340
 4704POPC   GL161369  30.735  44.049   5.792
 4704POPC   GL261370  30.958  43.783   5.794
 4704POPC   C1A61371  30.716  44.018   6.276
 4704POPC   D2A61372  30.506  43.699   6.566
 4704POPC   C3A61373  30.452  43.890   7.010
 4704POPC   C4A61374  30.550  44.239   7.323
 4704POPC   C1B61375  30.921  43.578   6.142
 4704POPC   C2B61376  31.025  43.614   6.526
 4704POPC   C3B61377  30.858  43.561   6.891
 4704POPC   C4B61378  30.885  43.785   7.254
 4705POPC   NC361379  40.964  37.192   5.431
 4705POPC   PO461380  40.551  36.657   5.532
 4705POPC   GL161381  40.551  36.785   5.920
 4705POPC   GL261382  40.898  36.848   5.890
 4705POPC   C1A61383  40.386  36.791   6.327
 4705POPC   D2A61384  40.607  36.741   6.677
 4705POPC   C3A61385  40.597  37.089   6.921
 4705POPC   C4A61386  40.515  36.823   7.230
 4705POPC   C1B61387  40.822  37.035   6.301
 4705POPC   C2B61388  41.049  37.053   6.664
 4705POPC   C3B61389  41.120  36.912   7.074
 4705POPC   C4B61390  40.940  36.896   7.479
 4706POPC   NC361391   8.066  19.949   5.374
 4706POPC   PO461392   8.470  19.467   5.471
 4706POPC   GL161393   8.216  19.651   5.798
 4706POPC   GL261394   8.281  20.020   5.821
 4706POPC   C1A61395   8.161  19.708   6.238
 4706POPC   D2A61396   8.017  19.813   6.632
 4706POPC   C3A61397   8.228  19.664   6.992
 4706POPC   C4A61398   7.897  19.817   7.239
 4706POPC   C1B61399   8.100  20.224   6.162
 4706POPC   C2B61400   8.280  20.239   6.560
 4706POPC   C3B61401   8.188  20.170   7.015
 4706POPC   C4B61402   8.084  20.243   7.464
 4707POPC   NC361403   9.176  42.265   5.457
 4707POPC   PO461404   8.541  42.238   5.370
 4707POPC   GL161405   8.784  42.418   5.773
 4707POPC   GL261406   9.139  42.469   5.913
 4707POPC   C1A61407   8.783  42.617   6.218
 4707POPC   D2A61408   9.061  42.558   6.571
 4707POPC   C3A61409   8.829  42.564   6.939
 4707POPC   C4A61410   8.867  42.523   7.388
 4707POPC   C1B61411   8.996  42.152   6.220
 4707POPC   C2B61412   9.086  42.042   6.673
 4707POPC   C3B61413   8.985  42.053   7.144
 4707POPC   C4B61414   9.120  42.138   7.594
 4708POPC   NC361415   2.119  44.959   5.065
 4708POPC   PO461416   1.988  44.489   5.533
 4708POPC   GL161417   2.222  44.652   5.921
 4708POPC   GL261418   1.876  44.636   6.016
 4708POPC   C1A61419   2.220  44.712   6.364
 4708POPC   D2A61420   1.859  44.509   6.564
 4708POPC   C3A61421   1.991  44.483   6.973
 4708POPC   C4A61422   1.842  44.578   7.344
 4708POPC   C1B61423   1.835   0.050   6.199
 4708POPC   C2B61424   1.838   0.010   6.597
 4708POPC   C3B61425   1.638  44.884   6.973
 4708POPC   C4B61426   1.751   0.068   7.387
 4709POPC   NC361427  42.066  29.157   5.361
 4709POPC   PO461428  42.724  28.979   5.277
 4709POPC   GL161429  42.472  29.112   5.714
 4709POPC   GL261430  42.135  28.938   5.810
 4709POPC   C1A61431  42.433  29.145   6.209
 4709POPC   D2A61432  42.411  29.344   6.631
 4709POPC   C3A61433  42.422  29.181   7.035
 4709POPC   C4A61434  42.411  29.369   7.470
 4709POPC   C1B61435  41.961  28.933   6.215
 4709POPC   C2B61436  42.078  28.858   6.632
 4709POPC   C3B61437  41.890  28.824   7.039
 4709POPC   C4B61438  42.034  29.039   7.452
 4710POPC   NC361439  23.361  31.762   5.355
 4710POPC   PO461440  23.804  31.320   5.572
 4710POPC   GL161441  23.636  31.415   5.942
 4710POPC   GL261442  23.359  31.575   5.848
 4710POPC   C1A61443  23.673  31.495   6.368
 4710POPC   D2A61444  23.679  31.766   6.721
 4710POPC   C3A61445  23.846  31.503   7.030
 4710POPC   C4A61446  24.070  31.129   7.062
 4710POPC   C1B61447  23.241  31.746   6.237
 4710POPC   C2B61448  23.201  31.527   6.610
 4710POPC   C3B61449  23.337  31.488   7.023
 4710POPC   C4B61450  23.516  31.108   7.185
 4711POPC   NC361451   2.606  23.267   5.464
 4711POPC   PO461452   2.520  23.862   5.736
 4711POPC   GL161453   2.731  23.589   5.908
 4711POPC   GL261454   3.015  23.780   5.805
 4711POPC   C1A61455   2.666  23.641   6.352
 4711POPC   D2A61456   2.675  23.618   6.772
 4711POPC   C3A61457   2.453  23.823   7.075
 4711POPC   C4A61458   2.774  23.570   7.284
 4711POPC   C1B61459   3.019  23.970   6.181
 4711POPC   C2B61460   3.072  23.866   6.595
 4711POPC   C3B61461   2.909  24.024   7.010
 4711POPC   C4B61462   2.897  24.034   7.494
 4712POPC   NC361463  12.765  16.493   5.144
 4712POPC   PO461464  13.153  17.029   5.394
 4712POPC   GL161465  13.176  16.915   5.785
 4712POPC   GL261466  13.015  16.599   5.786
 4712POPC   C1A61467  12.970  17.032   6.142
 4712POPC   D2A61468  13.068  17.004   6.563
 4712POPC   C3A61469  12.833  17.204   6.868
 4712POPC   C4A61470  12.910  16.973   7.234
 4712POPC   C1B61471  12.639  16.616   6.075
 4712POPC   C2B61472  12.492  16.749   6.495
 4712POPC   C3B61473  12.634  16.673   6.917
 4712POPC   C4B61474  12.785  16.392   7.244
 4713POPC   NC361475   2.804  29.864   5.307
 4713POPC   PO461476   3.218  30.354   5.446
 4713POPC   GL161477   2.825  30.192   5.710
 4713POPC   GL261478   2.836  29.839   5.801
 4713POPC   C1A61479   2.840  30.163   6.185
 4713POPC   D2A61480   2.926  30.292   6.615
 4713POPC   C3A61481   2.664  30.081   6.876
 4713POPC   C4A61482   2.665  30.000   7.302
 4713POPC   C1B61483   2.746  29.605   6.144
 4713POPC   C2B61484   2.835  29.699   6.543
 4713POPC   C3B61485   2.681  29.576   6.943
 4713POPC   C4B61486   2.665  29.438   7.353
 4714POPC   NC361487   1.130   8.137   5.307
 4714POPC   PO461488   1.363   8.721   5.501
 4714POPC   GL161489   1.438   8.410   5.772
 4714POPC   GL261490   1.133   8.246   5.822
 4714POPC   C1A61491   1.517   8.325   6.218
 4714POPC   D2A61492   1.536   8.174   6.653
 4714POPC   C3A61493   1.289   8.401   6.961
 4714POPC   C4A61494   1.208   8.370   7.398
 4714POPC   C1B61495   1.104   8.023   6.227
 4714POPC   C2B61496   1.033   8.026   6.691
 4714POPC   C3B61497   1.122   7.921   7.131
 4714POPC   C4B61498   0.937   7.966   7.554
 4715POPC   NC361499  21.879  10.277   5.581
 4715POPC   PO461500  21.925  10.923   5.458
 4715POPC   GL161501  21.566  10.716   5.679
 4715POPC   GL261502  21.404  10.360   5.739
 4715POPC   C1A61503  21.388  10.692   6.121
 4715POPC   D2A61504  21.215  10.545   6.514
 4715POPC   C3A61505  21.472  10.521   6.892
 4715POPC   C4A61506  21.547  10.487   7.363
 4715POPC   C1B61507  21.054  10.311   6.057
 4715POPC   C2B61508  20.977  10.075   6.441
 4715POPC   C3B61509  21.014  10.267   6.902
 4715POPC   C4B61510  21.091  10.258   7.380
 4716POPC   NC361511   6.818  25.483   5.551
 4716POPC   PO461512   6.538  26.107   5.400
 4716POPC   GL161513   6.781  26.004   5.764
 4716POPC   GL261514   6.550  25.745   5.880
 4716POPC   C1A61515   6.850  26.091   6.218
 4716POPC   D2A61516   6.604  26.105   6.588
 4716POPC   C3A61517   6.698  25.985   7.025
 4716POPC   C4A61518   6.576  26.240   7.360
 4716POPC   C1B61519   6.860  25.601   6.189
 4716POPC   C2B61520   6.793  25.633   6.639
 4716POPC   C3B61521   6.820  25.477   7.051
 4716POPC   C4B61522   6.679  25.548   7.461
 4717POPC   NC361523  25.636  36.272   5.355
 4717POPC   PO461524  24.967  36.464   5.243
 4717POPC   GL161525  25.139  36.239   5.628
 4717POPC   GL261526  24.966  35.915   5.763
 4717POPC   C1A61527  25.357  36.218   6.061
 4717POPC   D2A61528  25.183  36.325   6.528
 4717POPC   C3A61529  25.318  36.178   6.936
 4717POPC   C4A61530  25.355  36.096   7.352
 4717POPC   C1B61531  24.961  35.960   6.234
 4717POPC   C2B61532  25.033  35.844   6.679
 4717POPC   C3B61533  25.214  35.631   7.056
 4717POPC   C4B61534  25.109  35.655   7.507
 4718POPC   NC361535  20.469  23.585   5.377
 4718POPC   PO461536  20.636  24.200   5.356
 4718POPC   GL161537  20.757  23.884   5.714
 4718POPC   GL261538  20.424  23.726   5.862
 4718POPC   C1A61539  20.820  23.814   6.188
 4718POPC   D2A61540  20.490  23.800   6.522
 4718POPC   C3A61541  20.606  23.754   6.953
 4718POPC   C4A61542  20.536  24.011   7.311
 4718POPC   C1B61543  20.598  23.361   6.077
 4718POPC   C2B61544  20.698  23.329   6.523
 4718POPC   C3B61545  20.396  23.311   6.821
 4718POPC   C4B61546  20.336  23.241   7.239
 4719POPC   NC361547  32.650   0.371   5.434
 4719POPC   PO461548  32.013   0.521   5.327
 4719POPC   GL161549  32.163   0.404   5.751
 4719POPC   GL261550  32.380   0.682   5.781
 4719POPC   C1A61551  32.036   0.228   6.172
 4719POPC   D2A61552  31.762   0.137   6.549
 4719POPC   C3A61553  31.940   0.178   6.949
 4719POPC   C4A61554  32.271   0.455   7.094
 4719POPC   C1B61555  32.140   0.726   6.201
 4719POPC   C2B61556  32.017   0.619   6.649
 4719POPC   C3B61557  31.954   0.850   7.027
 4719POPC   C4B61558  31.979   1.067   7.434
 4720POPC   NC361559  22.974  14.757   5.660
 4720POPC   PO461560  22.952  14.243   5.257
 4720POPC   GL161561  22.959  14.204   5.743
 4720POPC   GL261562  23.278  14.201   5.875
 4720POPC   C1A61563  22.805  14.312   6.180
 4720POPC   D2A61564  22.793  14.698   6.482
 4720POPC   C3A61565  22.963  14.633   6.899
 4720POPC   C4A61566  22.734  14.385   7.207
 4720POPC   C1B61567  23.236  14.045   6.298
 4720POPC   C2B61568  23.295  14.200   6.733
 4720POPC   C3B61569  23.205  14.178   7.184
 4720POPC   C4B61570  23.339  14.190   7.619
 4721POPC   NC361571   1.206  37.239   5.130
 4721POPC   PO461572   1.531  36.737   5.470
 4721POPC   GL161573   1.251  36.876   5.760
 4721POPC   GL261574   1.145  37.211   5.747
 4721POPC   C1A61575   1.353  36.920   6.193
 4721POPC   D2A61576   1.598  36.934   6.577
 4721POPC   C3A61577   1.328  36.859   6.905
 4721POPC   C4A61578   1.429  36.709   7.316
 4721POPC   C1B61579   0.853  37.049   6.069
 4721POPC   C2B61580   0.812  36.912   6.495
 4721POPC   C3B61581   0.861  37.126   6.880
 4721POPC   C4B61582   1.044  37.056   7.283
 4722POPC   NC361583  29.460  11.026   5.612
 4722POPC   PO461584  29.026  11.421   5.200
 4722POPC   GL161585  29.061  11.315   5.672
 4722POPC   GL261586  28.981  10.970   5.760
 4722POPC   C1A61587  29.234  11.352   6.128
 4722POPC   D2A61588  29.477  11.290   6.499
 4722POPC   C3A61589  29.268  11.330   6.873
 4722POPC   C4A61590  29.398  11.209   7.243
 4722POPC   C1B61591  28.856  10.873   6.158
 4722POPC   C2B61592  29.042  10.966   6.525
 4722POPC   C3B61593  29.171  10.828   6.898
 4722POPC   C4B61594  29.031  10.850   7.265
 4723POPC   NC361595   0.534  41.129   5.324
 4723POPC   PO461596   0.191  40.504   5.317
 4723POPC   GL161597   0.390  40.741   5.673
 4723POPC   GL261598   0.163  41.034   5.761
 4723POPC   C1A61599   0.539  40.798   6.119
 4723POPC   D2A61600   0.350  40.829   6.536
 4723POPC   C3A61601   0.475  40.727   6.950
 4723POPC   C4A61602   0.180  40.810   7.222
 4723POPC   C1B61603   0.474  41.295   6.008
 4723POPC   C2B61604   0.465  41.370   6.472
 4723POPC   C3B61605   0.373  41.218   6.912
 4723POPC   C4B61606   0.645  41.152   7.297
 4724POPC   NC361607   2.426  12.195   5.366
 4724POPC   PO461608   1.755  11.899   5.343
 4724POPC   GL161609   1.843  12.095   5.750
 4724POPC   GL261610   2.176  12.275   5.820
 4724POPC   C1A61611   1.731  11.962   6.162
 4724POPC   D2A61612   1.907  11.842   6.554
 4724POPC   C3A61613   1.786  12.029   6.910
 4724POPC   C4A61614   1.731  11.916   7.316
 4724POPC   C1B61615   2.305  12.071   6.223
 4724POPC   C2B61616   2.402  12.123   6.668
 4724POPC   C3B61617   2.312  12.142   7.118
 4724POPC   C4B61618   2.291  12.263   7.555
 4725POPC   NC361619  12.807  31.164   5.229
 4725POPC   PO461620  12.778  30.518   5.230
 4725POPC   GL161621  12.720  30.687   5.665
 4725POPC   GL261622  12.699  31.049   5.714
 4725POPC   C1A61623  12.828  30.727   6.121
 4725POPC   D2A61624  13.123  30.629   6.460
 4725POPC   C3A61625  12.897  30.701   6.819
 4725POPC   C4A61626  12.831  30.574   7.204
 4725POPC   C1B61627  12.479  31.117   6.124
 4725POPC   C2B61628  12.533  30.954   6.550
 4725POPC   C3B61629  12.422  31.053   6.999
 4725POPC   C4B61630  12.458  30.835   7.425
 4726POPC   NC361631  26.385  35.609   5.444
 4726POPC   PO461632  25.941  35.212   5.219
 4726POPC   GL161633  25.975  35.399   5.703
 4726POPC   GL261634  26.115  35.709   5.857
 4726POPC   C1A61635  25.807  35.397   6.143
 4726POPC   D2A61636  26.004  35.296   6.591
 4726POPC   C3A61637  25.772  35.432   6.983
 4726POPC   C4A61638  25.929  35.314   7.388
 4726POPC   C1B61639  26.258  35.587   6.257
 4726POPC   C2B61640  26.477  35.563   6.621
 4726POPC   C3B61641  26.268  35.477   7.010
 4726POPC   C4B61642  26.143  35.769   7.364
 4727POPC   NC361643   8.213  17.337   5.481
 4727POPC   PO461644   7.997  18.001   5.450
 4727POPC   GL161645   8.135  17.777   5.862
 4727POPC   GL261646   8.262  17.420   5.953
 4727POPC   C1A61647   8.317  17.751   6.311
 4727POPC   D2A61648   8.350  17.744   6.766
 4727POPC   C3A61649   8.110  17.441   6.973
 4727POPC   C4A61650   8.035  17.363   7.380
 4727POPC   C1B61651   8.593  17.291   6.164
 4727POPC   C2B61652   8.453  17.273   6.542
 4727POPC   C3B61653   8.602  17.314   6.910
 4727POPC   C4B61654   8.566  17.568   7.225
 4728POPC   NC361655  16.292  30.079   5.663
 4728POPC   PO461656  16.757  29.687   5.421
 4728POPC   GL161657  16.923  29.822   5.822
 4728POPC   GL261658  17.186  30.065   5.811
 4728POPC   C1A61659  16.798  30.006   6.235
 4728POPC   D2A61660  16.592  30.185   6.658
 4728POPC   C3A61661  16.595  29.957   7.074
 4728POPC   C4A61662  16.509  29.511   7.151
 4728POPC   C1B61663  17.268  30.203   6.197
 4728POPC   C2B61664  17.115  30.253   6.580
 4728POPC   C3B61665  17.319  30.284   6.936
 4728POPC   C4B61666  17.099  30.040   7.186
 4729POPC   NC361667  11.779  15.512   5.476
 4729POPC   PO461668  12.203  14.999   5.439
 4729POPC   GL161669  12.150  15.242   5.794
 4729POPC   GL261670  12.393  15.057   5.985
 4729POPC   C1A61671  11.968  15.409   6.188
 4729POPC   D2A61672  11.595  15.445   6.482
 4729POPC   C3A61673  11.723  15.558   6.887
 4729POPC   C4A61674  11.988  15.458   7.206
 4729POPC   C1B61675  11.967  14.876   6.137
 4729POPC   C2B61676  11.791  14.956   6.547
 4729POPC   C3B61677  12.067  15.043   6.908
 4729POPC   C4B61678  11.956  14.908   7.344
 4730POPC   NC361679   6.418   8.939   5.384
 4730POPC   PO461680   6.894   8.505   5.654
 4730POPC   GL161681   6.573   8.764   5.853
 4730POPC   GL261682   6.592   9.151   5.817
 4730POPC   C1A61683   6.625   8.861   6.288
 4730POPC   D2A61684   6.711   9.139   6.647
 4730POPC   C3A61685   6.601   8.957   7.048
 4730POPC   C4A61686   6.476   8.547   7.186
 4730POPC   C1B61687   6.428   9.488   6.079
 4730POPC   C2B61688   6.264   9.451   6.483
 4730POPC   C3B61689   6.335   9.416   6.899
 4730POPC   C4B61690   6.376   9.320   7.321
 4731POPC   NC361691  31.913  24.638   5.305
 4731POPC   PO461692  31.278  24.879   5.304
 4731POPC   GL161693  31.241  24.747   5.717
 4731POPC   GL261694  31.606  24.703   5.810
 4731POPC   C1A61695  31.172  24.647   6.149
 4731POPC   D2A61696  31.033  24.383   6.481
 4731POPC   C3A61697  31.185  24.506   6.879
 4731POPC   C4A61698  31.259  24.490   7.312
 4731POPC   C1B61699  31.685  24.424   6.187
 4731POPC   C2B61700  31.634  24.478   6.637
 4731POPC   C3B61701  31.679  24.333   7.057
 4731POPC   C4B61702  31.739  24.474   7.479
 4732POPC   NC361703  19.536  36.644   5.535
 4732POPC   PO461704  20.161  36.980   5.516
 4732POPC   GL161705  19.965  36.800   5.845
 4732POPC   GL261706  19.972  36.454   5.777
 4732POPC   C1A61707  19.818  36.940   6.251
 4732POPC   D2A61708  19.894  37.257   6.547
 4732POPC   C3A61709  19.793  37.161   6.963
 4732POPC   C4A61710  20.035  37.017   7.324
 4732POPC   C1B61711  19.967  36.441   6.221
 4732POPC   C2B61712  19.719  36.525   6.602
 4732POPC   C3B61713  19.792  36.669   7.018
 4732POPC   C4B61714  19.733  36.619   7.467
 4733POPC   NC361715  23.504  16.165   5.392
 4733POPC   PO461716  24.081  15.743   5.438
 4733POPC   GL161717  24.037  15.955   5.824
 4733POPC   GL261718  23.700  16.045   5.832
 4733POPC   C1A61719  23.958  16.081   6.262
 4733POPC   D2A61720  24.116  15.946   6.636
 4733POPC   C3A61721  23.878  16.074   6.969
 4733POPC   C4A61722  23.935  15.914   7.356
 4733POPC   C1B61723  23.486  16.237   6.161
 4733POPC   C2B61724  23.510  16.035   6.572
 4733POPC   C3B61725  23.338  15.930   6.996
 4733POPC   C4B61726  23.447  15.963   7.438
 4734POPC   NC361727  44.679  43.456   5.241
 4734POPC   PO461728  44.740  44.051   5.397
 4734POPC   GL161729  44.579  43.759   5.675
 4734POPC   GL261730  44.367  43.986   5.865
 4734POPC   C1A61731  44.715  43.597   6.060
 4734POPC   D2A61732  44.676  43.501   6.501
 4734POPC   C3A61733  44.717  43.784   6.846
 4734POPC   C4A61734  44.834  43.650   7.263
 4734POPC   C1B61735  44.575  44.028   6.276
 4734POPC   C2B61736  44.316  44.059   6.625
 4734POPC   C3B61737  44.086  44.030   7.004
 4734POPC   C4B61738  44.190  44.020   7.442
 4735POPC   NC361739   2.255  20.814   5.539
 4735POPC   PO461740   2.911  20.532   5.489
 4735POPC   GL161741   2.922  20.681   5.879
 4735POPC   GL261742   2.555  20.678   5.922
 4735POPC   C1A61743   2.992  20.608   6.303
 4735POPC   D2A61744   2.725  20.483   6.625
 4735POPC   C3A61745   2.929  20.584   7.023
 4735POPC   C4A61746   2.861  20.422   7.436
 4735POPC   C1B61747   2.616  20.976   6.210
 4735POPC   C2B61748   2.796  20.989   6.598
 4735POPC   C3B61749   2.585  20.959   6.959
 4735POPC   C4B61750   2.786  21.027   7.294
 4736POPC   NC361751  44.869  11.617   5.419
 4736POPC   PO461752  44.443  11.209   5.411
 4736POPC   GL161753  44.665  11.291   5.800
 4736POPC   GL261754   0.011  11.452   5.882
 4736POPC   C1A61755  44.604  11.156   6.238
 4736POPC   D2A61756  44.678  11.462   6.579
 4736POPC   C3A61757  44.575  11.334   7.004
 4736POPC   C4A61758  44.594  11.391   7.470
 4736POPC   C1B61759   0.082  11.294   6.306
 4736POPC   C2B61760   0.023  11.149   6.765
 4736POPC   C3B61761  44.992  11.121   7.221
 4736POPC   C4B61762   0.058  11.244   7.629
 4737POPC   NC361763  15.516  40.263   5.355
 4737POPC   PO461764  16.137  39.901   5.388
 4737POPC   GL161765  16.056  40.117   5.774
 4737POPC   GL261766  15.724  40.025   5.793
 4737POPC   C1A61767  15.946  40.299   6.181
 4737POPC   D2A61768  15.680  40.166   6.546
 4737POPC   C3A61769  15.874  40.211   6.971
 4737POPC   C4A61770  16.126  40.178   7.341
 4737POPC   C1B61771  15.848  39.795   6.186
 4737POPC   C2B61772  15.918  39.731   6.628
 4737POPC   C3B61773  16.012  39.726   7.064
 4737POPC   C4B61774  16.079  39.682   7.496
 4738POPC   NC361775  34.987  34.750   5.353
 4738POPC   PO461776  35.613  34.486   5.265
 4738POPC   GL161777  35.423  34.645   5.680
 4738POPC   GL261778  35.653  34.916   5.747
 4738POPC   C1A61779  35.205  34.447   6.076
 4738POPC   D2A61780  35.323  34.273   6.497
 4738POPC   C3A61781  35.156  34.418   6.914
 4738POPC   C4A61782  35.225  34.551   7.348
 4738POPC   C1B61783  35.416  34.905   6.149
 4738POPC   C2B61784  35.550  34.832   6.574
 4738POPC   C3B61785  35.452  34.850   7.004
 4738POPC   C4B61786  35.341  35.079   7.338
 4739POPC   NC361787  18.923  34.197   5.523
 4739POPC   PO461788  19.064  34.722   5.083
 4739POPC   GL161789  19.225  34.753   5.592
 4739POPC   GL261790  19.164  34.513   5.825
 4739POPC   C1A61791  19.197  34.918   6.101
 4739POPC   D2A61792  19.091  34.699   6.518
 4739POPC   C3A61793  19.110  34.893   6.950
 4739POPC   C4A61794  18.929  34.683   7.316
 4739POPC   C1B61795  19.244  34.236   6.173
 4739POPC   C2B61796  19.301  34.221   6.606
 4739POPC   C3B61797  19.077  34.363   6.943
 4739POPC   C4B61798  19.249  34.242   7.321
 4740POPC   NC361799  11.584  43.352   5.179
 4740POPC   PO461800  11.148  43.917   5.286
 4740POPC   GL161801  11.108  44.039   5.698
 4740POPC   GL261802  11.307  43.773   5.802
 4740POPC   C1A61803  11.014  43.992   6.150
 4740POPC   D2A61804  11.247  43.999   6.544
 4740POPC   C3A61805  11.072  44.137   6.903
 4740POPC   C4A61806  11.140  44.042   7.336
 4740POPC   C1B61807  11.429  43.660   6.215
 4740POPC   C2B61808  11.308  43.499   6.588
 4740POPC   C3B61809  11.163  43.619   6.988
 4740POPC   C4B61810  11.438  43.529   7.278
 4741POPC   NC361811  32.543  27.406   5.470
 4741POPC   PO461812  31.879  27.448   5.456
 4741POPC   GL161813  32.155  27.493   5.790
 4741POPC   GL261814  32.233  27.844   5.717
 4741POPC   C1A61815  32.352  27.620   6.170
 4741POPC   D2A61816  32.241  27.690   6.598
 4741POPC   C3A61817  32.589  27.604   6.850
 4741POPC   C4A61818  32.453  27.304   7.148
 4741POPC   C1B61819  31.884  27.851   6.049
 4741POPC   C2B61820  31.774  27.948   6.477
 4741POPC   C3B61821  31.755  27.760   6.859
 4741POPC   C4B61822  32.059  27.630   7.160
 4742POPC   NC361823  28.997  40.597   5.275
 4742POPC   PO461824  29.429  40.173   5.419
 4742POPC   GL161825  29.279  40.424   5.776
 4742POPC   GL261826  29.239  40.797   5.776
 4742POPC   C1A61827  29.182  40.538   6.228
 4742POPC   D2A61828  29.274  40.774   6.628
 4742POPC   C3A61829  29.264  40.598   7.060
 4742POPC   C4A61830  29.417  40.678   7.483
 4742POPC   C1B61831  29.477  40.972   6.180
 4742POPC   C2B61832  29.615  41.148   6.617
 4742POPC   C3B61833  29.501  41.048   7.070
 4742POPC   C4B61834  29.470  41.307   7.459
 4743POPC   NC361835   7.842  43.240   5.472
 4743POPC   PO461836   8.445  43.007   5.257
 4743POPC   GL161837   8.268  43.048   5.696
 4743POPC   GL261838   8.534  42.862   5.799
 4743POPC   C1A61839   8.010  43.175   6.107
 4743POPC   D2A61840   8.163  43.194   6.555
 4743POPC   C3A61841   8.046  43.379   6.960
 4743POPC   C4A61842   7.874  43.197   7.352
 4743POPC   C1B61843   8.305  42.765   6.186
 4743POPC   C2B61844   8.388  42.707   6.624
 4743POPC   C3B61845   8.275  42.925   6.985
 4743POPC   C4B61846   8.634  42.959   7.222
 4744POPC   NC361847  43.816  44.723   5.250
 4744POPC   PO461848  43.749  44.136   5.492
 4744POPC   GL161849  43.978  44.425   5.768
 4744POPC   GL261850  44.016  44.791   5.702
 4744POPC   C1A61851  43.808  44.576   6.143
 4744POPC   D2A61852  43.749  44.360   6.524
 4744POPC   C3A61853  43.786  44.585   6.899
 4744POPC   C4A61854  43.946  44.461   7.285
 4744POPC   C1B61855  44.187  44.930   6.080
 4744POPC   C2B61856  44.086  44.829   6.507
 4744POPC   C3B61857  44.228  44.859   6.922
 4744POPC   C4B61858  44.082  44.943   7.329
 4745POPC   NC361859  37.425  35.081   5.714
 4745POPC   PO461860  37.657  35.520   5.268
 4745POPC   GL161861  37.701  35.528   5.741
 4745POPC   GL261862  37.902  35.255   5.851
 4745POPC   C1A61863  37.685  35.488   6.233
 4745POPC   D2A61864  37.906  35.622   6.606
 4745POPC   C3A61865  37.745  35.571   7.031
 4745POPC   C4A61866  37.437  35.282   7.223
 4745POPC   C1B61867  37.988  34.982   6.204
 4745POPC   C2B61868  37.941  34.891   6.640
 4745POPC   C3B61869  37.876  35.078   7.039
 4745POPC   C4B61870  37.829  34.993   7.480
 4746POPC   NC361871  39.191  36.597   5.554
 4746POPC   PO461872  39.478  37.303   5.488
 4746POPC   GL161873  39.268  37.202   5.864
 4746POPC   GL261874  39.006  36.984   5.874
 4746POPC   C1A61875  39.273  37.081   6.292
 4746POPC   D2A61876  39.487  37.016   6.662
 4746POPC   C3A61877  39.268  37.010   7.031
 4746POPC   C4A61878  39.569  36.918   7.325
 4746POPC   C1B61879  38.794  36.814   6.211
 4746POPC   C2B61880  38.896  36.915   6.629
 4746POPC   C3B61881  38.825  36.765   7.022
 4746POPC   C4B61882  38.977  36.847   7.442
 4747POPC   NC361883  34.329  12.448   5.620
 4747POPC   PO461884  34.711  11.890   5.325
 4747POPC   GL161885  34.635  12.064   5.720
 4747POPC   GL261886  34.399  11.815   5.790
 4747POPC   C1A61887  34.658  12.195   6.168
 4747POPC   D2A61888  34.774  12.329   6.598
 4747POPC   C3A61889  34.528  12.352   6.981
 4747POPC   C4A61890  34.434  12.385   7.430
 4747POPC   C1B61891  34.182  11.930   6.146
 4747POPC   C2B61892  34.294  12.049   6.549
 4747POPC   C3B61893  34.424  11.838   6.888
 4747POPC   C4B61894  34.500  11.919   7.290
 4748POPC   NC361895  41.322  38.393   5.462
 4748POPC   PO461896  40.635  38.522   5.415
 4748POPC   GL161897  40.803  38.409   5.767
 4748POPC   GL261898  40.474  38.386   5.928
 4748POPC   C1A61899  40.952  38.358   6.172
 4748POPC   D2A61900  40.814  38.549   6.550
 4748POPC   C3A61901  40.817  38.321   6.914
 4748POPC   C4A61902  41.051  38.324   7.280
 4748POPC   C1B61903  40.492  38.185   6.355
 4748POPC   C2B61904  40.291  38.242   6.754
 4748POPC   C3B61905  40.353  38.177   7.170
 4748POPC   C4B61906  40.583  38.453   7.433
 4749POPC   NC361907   6.901  38.840   5.384
 4749POPC   PO461908   6.634  38.247   5.201
 4749POPC   GL161909   6.670  38.406   5.617
 4749POPC   GL261910   6.404  38.591   5.769
 4749POPC   C1A61911   6.753  38.314   6.064
 4749POPC   D2A61912   6.887  38.099   6.464
 4749POPC   C3A61913   6.881  38.392   6.828
 4749POPC   C4A61914   7.012  38.474   7.255
 4749POPC   C1B61915   6.261  38.186   5.996
 4749POPC   C2B61916   6.324  38.067   6.439
 4749POPC   C3B61917   6.425  38.104   6.887
 4749POPC   C4B61918   6.503  38.386   7.208
 4750POPC   NC361919  33.388  15.659   5.616
 4750POPC   PO461920  34.050  15.949   5.448
 4750POPC   GL161921  33.858  15.827   5.787
 4750POPC   GL261922  33.895  15.516   5.804
 4750POPC   C1A61923  33.723  15.950   6.189
 4750POPC   D2A61924  33.823  16.157   6.563
 4750POPC   C3A61925  33.766  15.935   6.949
 4750POPC   C4A61926  33.728  16.123   7.398
 4750POPC   C1B61927  34.122  15.549   6.170
 4750POPC   C2B61928  34.123  15.722   6.575
 4750POPC   C3B61929  34.053  15.508   6.951
 4750POPC   C4B61930  33.995  15.706   7.333
 4751POPC   NC361931  34.194  33.184   5.522
 4751POPC   PO461932  34.765  32.887   5.441
 4751POPC   GL161933  34.660  32.923   5.883
 4751POPC   GL261934  34.514  33.260   6.039
 4751POPC   C1A61935  34.826  32.974   6.305
 4751POPC   D2A61936  34.526  33.138   6.573
 4751POPC   C3A61937  34.509  32.996   6.967
 4751POPC   C4A61938  34.741  32.672   7.158
 4751POPC   C1B61939  34.570  33.606   6.381
 4751POPC   C2B61940  34.810  33.530   6.780
 4751POPC   C3B61941  34.626  33.524   7.209
 4751POPC   C4B61942  34.749  33.441   7.638
 4752POPC   NC361943  30.102  44.406   5.583
 4752POPC   PO461944  29.701   0.064   5.555
 4752POPC   GL161945  29.907  44.852   5.911
 4752POPC   GL261946  30.193  44.611   6.021
 4752POPC   C1A61947  29.786  44.706   6.312
 4752POPC   D2A61948  29.896  44.472   6.649
 4752POPC   C3A61949  29.603  44.532   6.894
 4752POPC   C4A61950  29.767  44.929   7.057
 4752POPC   C1B61951  30.257  44.911   6.317
 4752POPC   C2B61952  30.331  44.800   6.722
 4752POPC   C3B61953  30.344  44.409   6.893
 4752POPC   C4B61954  30.027  44.511   7.169
 4753POPC   NC361955  32.877  28.221   5.378
 4753POPC   PO461956  33.117  28.852   5.548
 4753POPC   GL161957  33.065  28.468   5.854
 4753POPC   GL261958  32.900  28.110   5.879
 4753POPC   C1A61959  32.952  28.418   6.305
 4753POPC   D2A61960  32.717  28.766   6.501
 4753POPC   C3A61961  32.772  28.793   6.947
 4753POPC   C4A61962  33.034  28.474   7.065
 4753POPC   C1B61963  32.760  27.937   6.297
 4753POPC   C2B61964  32.764  28.109   6.727
 4753POPC   C3B61965  32.954  27.985   7.139
 4753POPC   C4B61966  32.810  28.115   7.567
 4754POPC   NC361967  30.939  44.951   5.540
 4754POPC   PO461968  30.593   0.641   5.517
 4754POPC   GL161969  30.592   0.321   5.862
 4754POPC   GL261970  30.917   0.271   5.917
 4754POPC   C1A61971  30.647   0.226   6.326
 4754POPC   D2A61972  30.396   0.304   6.670
 4754POPC   C3A61973  30.496   0.187   7.097
 4754POPC   C4A61974  30.463   0.390   7.498
 4754POPC   C1B61975  30.939   0.634   6.236
 4754POPC   C2B61976  30.734   0.712   6.649
 4754POPC   C3B61977  30.627   0.717   7.117
 4754POPC   C4B61978  30.732   0.790   7.568
 4755POPC   NC361979   7.620  25.520   5.417
 4755POPC   PO461980   7.023  25.257   5.192
 4755POPC   GL161981   7.240  25.215   5.648
 4755POPC   GL261982   7.594  25.202   5.797
 4755POPC   C1A61983   7.231  25.229   6.130
 4755POPC   D2A61984   7.254  25.462   6.519
 4755POPC   C3A61985   7.291  25.288   6.940
 4755POPC   C4A61986   7.316  25.218   7.411
 4755POPC   C1B61987   7.683  25.481   6.183
 4755POPC   C2B61988   7.732  25.596   6.645
 4755POPC   C3B61989   7.714  25.523   7.103
 4755POPC   C4B61990   7.859  25.259   7.402
 4756POPC   NC361991  31.038  27.731   5.598
 4756POPC   PO461992  30.384  27.812   5.474
 4756POPC   GL161993  30.591  27.543   5.787
 4756POPC   GL261994  30.459  27.243   5.839
 4756POPC   C1A61995  30.712  27.572   6.226
 4756POPC   D2A61996  30.905  27.496   6.615
 4756POPC   C3A61997  30.788  27.679   7.007
 4756POPC   C4A61998  31.024  27.514   7.379
 4756POPC   C1B61999  30.777  27.094   6.096
 4756POPC   C2B62000  30.553  27.088   6.477
 4756POPC   C3B62001  30.440  27.168   6.884
 4756POPC   C4B62002  30.546  27.323   7.274
 4757POPC   NC362003  19.830  32.675   5.240
 4757POPC   PO462004  20.112  32.036   5.320
 4757POPC   GL162005  19.990  32.345   5.591
 4757POPC   GL262006  19.657  32.347   5.628
 4757POPC   C1A62007  20.010  32.345   6.038
 4757POPC   D2A62008  19.776  32.365   6.420
 4757POPC   C3A62009  19.845  32.174   6.813
 4757POPC   C4A62010  20.029  32.430   7.115
 4757POPC   C1B62011  19.551  32.111   6.016
 4757POPC   C2B62012  19.370  32.042   6.423
 4757POPC   C3B62013  19.347  31.949   6.854
 4757POPC   C4B62014  19.641  31.834   7.164
 4758POPC   NC362015  39.648  28.176   5.213
 4758POPC   PO462016  40.305  28.277   5.266
 4758POPC   GL162017  40.021  28.325   5.630
 4758POPC   GL262018  39.845  27.994   5.651
 4758POPC   C1A62019  40.146  28.478   6.079
 4758POPC   D2A62020  40.119  28.333   6.510
 4758POPC   C3A62021  40.195  28.549   6.915
 4758POPC   C4A62022  39.970  28.429   7.313
 4758POPC   C1B62023  39.908  28.027   6.102
 4758POPC   C2B62024  39.724  28.019   6.521
 4758POPC   C3B62025  39.913  28.075   6.919
 4758POPC   C4B62026  40.018  27.933   7.345
 4759POPC   NC362027  16.049  41.896   5.542
 4759POPC   PO462028  15.585  41.389   5.373
 4759POPC   GL162029  15.767  41.527   5.774
 4759POPC   GL262030  16.095  41.570   5.944
 4759POPC   C1A62031  15.676  41.687   6.180
 4759POPC   D2A62032  15.920  41.615   6.534
 4759POPC   C3A62033  15.732  41.811   6.820
 4759POPC   C4A62034  15.685  41.685   7.216
 4759POPC   C1B62035  16.371  41.688   6.284
 4759POPC   C2B62036  16.417  41.699   6.691
 4759POPC   C3B62037  16.190  41.628   7.035
 4759POPC   C4B62038  16.337  41.397   7.388
 4760POPC   NC362039   3.565  21.846   5.446
 4760POPC   PO462040   3.125  21.333   5.368
 4760POPC   GL162041   3.316  21.453   5.758
 4760POPC   GL262042   3.041  21.640   5.867
 4760POPC   C1A62043   3.583  21.338   6.150
 4760POPC   D2A62044   3.494  21.401   6.609
 4760POPC   C3A62045   3.761  21.327   6.988
 4760POPC   C4A62046   3.630  21.278   7.422
 4760POPC   C1B62047   3.301  21.758   6.218
 4760POPC   C2B62048   3.423  21.917   6.616
 4760POPC   C3B62049   3.335  21.736   7.024
 4760POPC   C4B62050   3.462  21.737   7.469
 4761POPC   NC362051   5.520  35.640   5.341
 4761POPC   PO462052   4.900  35.207   5.536
 4761POPC   GL162053   5.201  35.474   5.765
 4761POPC   GL262054   5.423  35.187   5.741
 4761POPC   C1A62055   5.056  35.580   6.195
 4761POPC   D2A62056   4.802  35.256   6.449
 4761POPC   C3A62057   4.977  35.097   6.849
 4761POPC   C4A62058   4.928  35.336   7.227
 4761POPC   C1B62059   5.318  35.117   6.192
 4761POPC   C2B62060   5.336  35.367   6.576
 4761POPC   C3B62061   5.463  35.340   6.983
 4761POPC   C4B62062   5.401  35.088   7.342
 4762POPC   NC362063  39.390  20.687   5.408
 4762POPC   PO462064  39.202  20.165   5.743
 4762POPC   GL162065  39.386  20.524   5.882
 4762POPC   GL262066  39.063  20.741   5.809
 4762POPC   C1A62067  39.542  20.485   6.278
 4762POPC   D2A62068  39.237  20.309   6.535
 4762POPC   C3A62069  39.358  20.417   6.900
 4762POPC   C4A62070  39.372  20.715   7.165
 4762POPC   C1B62071  39.096  20.731   6.251
 4762POPC   C2B62072  38.853  20.691   6.604
 4762POPC   C3B62073  38.934  20.877   6.958
 4762POPC   C4B62074  38.774  20.835   7.360
 4763POPC   NC362075   4.695  33.741   5.512
 4763POPC   PO462076   5.306  33.862   5.403
 4763POPC   GL162077   5.326  33.824   5.812
 4763POPC   GL262078   5.090  33.630   5.846
 4763POPC   C1A62079   5.167  33.978   6.213
 4763POPC   D2A62080   4.944  33.922   6.590
 4763POPC   C3A62081   5.225  34.071   6.872
 4763POPC   C4A62082   5.284  34.198   7.260
 4763POPC   C1B62083   5.271  33.470   6.219
 4763POPC   C2B62084   5.333  33.591   6.654
 4763POPC   C3B62085   4.998  33.565   6.995
 4763POPC   C4B62086   5.148  33.350   7.377
 4764POPC   NC362087  19.816   0.673   5.370
 4764POPC   PO462088  20.020   0.037   5.346
 4764POPC   GL162089  19.933   0.313   5.743
 4764POPC   GL262090  20.116   0.606   5.777
 4764POPC   C1A62091  19.647   0.366   6.136
 4764POPC   D2A62092  19.751   0.272   6.583
 4764POPC   C3A62093  19.588   0.535   6.901
 4764POPC   C4A62094  19.664   0.644   7.339
 4764POPC   C1B62095  20.132   0.508   6.219
 4764POPC   C2B62096  20.053   0.664   6.653
 4764POPC   C3B62097  20.092   0.490   7.092
 4764POPC   C4B62098  20.424   0.550   7.432
 4765POPC   NC362099   5.051  20.820   5.501
 4765POPC   PO462100   5.306  20.195   5.457
 4765POPC   GL162101   5.292  20.460   5.811
 4765POPC   GL262102   4.925  20.475   5.890
 4765POPC   C1A62103   5.350  20.453   6.266
 4765POPC   D2A62104   5.300  20.788   6.569
 4765POPC   C3A62105   5.151  20.680   6.962
 4765POPC   C4A62106   5.097  20.710   7.384
 4765POPC   C1B62107   4.835  20.633   6.306
 4765POPC   C2B62108   4.658  20.659   6.712
 4765POPC   C3B62109   4.657  20.770   7.111
 4765POPC   C4B62110   4.485  20.715   7.518
 4766POPC   NC362111  32.543  24.998   5.379
 4766POPC   PO462112  32.301  24.393   5.337
 4766POPC   GL162113  32.237  24.707   5.689
 4766POPC   GL262114  32.522  24.834   5.867
 4766POPC   C1A62115  32.046  24.793   6.087
 4766POPC   D2A62116  32.149  24.567   6.466
 4766POPC   C3A62117  32.050  24.659   6.909
 4766POPC   C4A62118  32.171  24.355   7.231
 4766POPC   C1B62119  32.499  24.954   6.299
 4766POPC   C2B62120  32.497  24.856   6.741
 4766POPC   C3B62121  32.516  24.705   7.144
 4766POPC   C4B62122  32.549  24.531   7.538
 4767POPC   NC362123   8.344  19.051   5.322
 4767POPC   PO462124   8.751  18.550   5.618
 4767POPC   GL162125   8.407  18.892   5.796
 4767POPC   GL262126   8.047  19.083   5.728
 4767POPC   C1A62127   8.359  19.211   6.127
 4767POPC   D2A62128   8.413  19.084   6.540
 4767POPC   C3A62129   8.282  19.117   6.987
 4767POPC   C4A62130   8.299  18.932   7.431
 4767POPC   C1B62131   7.863  19.301   6.103
 4767POPC   C2B62132   7.963  19.313   6.552
 4767POPC   C3B62133   7.809  19.386   6.975
 4767POPC   C4B62134   8.059  19.363   7.388
 4768POPC   NC362135  17.094  22.646   5.584
 4768POPC   PO462136  17.467  23.108   5.245
 4768POPC   GL162137  17.440  23.026   5.710
 4768POPC   GL262138  17.702  22.791   5.841
 4768POPC   C1A62139  17.326  22.932   6.169
 4768POPC   D2A62140  17.498  23.010   6.588
 4768POPC   C3A62141  17.223  22.912   6.926
 4768POPC   C4A62142  17.108  23.071   7.308
 4768POPC   C1B62143  17.857  23.086   6.206
 4768POPC   C2B62144  18.002  22.950   6.647
 4768POPC   C3B62145  17.748  22.798   7.031
 4768POPC   C4B62146  17.604  23.027   7.443
 4769POPC   NC362147  15.554  27.948   5.570
 4769POPC   PO462148  15.185  27.448   5.279
 4769POPC   GL162149  15.172  27.485   5.728
 4769POPC   GL262150  14.843  27.615   5.752
 4769POPC   C1A62151  15.232  27.635   6.122
 4769POPC   D2A62152  15.238  27.551   6.548
 4769POPC   C3A62153  15.312  27.803   6.886
 4769POPC   C4A62154  15.220  27.625   7.252
 4769POPC   C1B62155  14.781  27.381   6.149
 4769POPC   C2B62156  14.947  27.124   6.501
 4769POPC   C3B62157  15.097  27.241   6.935
 4769POPC   C4B62158  14.814  27.296   7.279
 4770POPC   NC362159  22.084  28.927   5.184
 4770POPC   PO462160  22.486  29.490   5.247
 4770POPC   GL162161  22.316  29.226   5.650
 4770POPC   GL262162  21.948  29.105   5.651
 4770POPC   C1A62163  22.295  29.259   6.152
 4770POPC   D2A62164  22.335  29.509   6.563
 4770POPC   C3A62165  22.446  29.371   6.961
 4770POPC   C4A62166  22.199  29.175   7.241
 4770POPC   C1B62167  21.803  29.090   6.081
 4770POPC   C2B62168  21.905  29.179   6.509
 4770POPC   C3B62169  21.821  29.028   6.927
 4770POPC   C4B62170  21.680  28.737   7.192
 4771POPC   NC362171  43.894  38.253   5.353
 4771POPC   PO462172  43.936  38.853   5.366
 4771POPC   GL162173  43.932  38.677   5.785
 4771POPC   GL262174  44.225  38.442   5.829
 4771POPC   C1A62175  43.838  38.578   6.210
 4771POPC   D2A62176  43.589  38.433   6.556
 4771POPC   C3A62177  43.786  38.611   6.915
 4771POPC   C4A62178  43.712  38.460   7.319
 4771POPC   C1B62179  44.296  38.236   6.227
 4771POPC   C2B62180  44.083  38.264   6.612
 4771POPC   C3B62181  44.211  38.322   7.014
 4771POPC   C4B62182  44.149  38.139   7.403
 4772POPC   NC362183   4.743  10.740   5.366
 4772POPC   PO462184   5.486  10.557   5.392
 4772POPC   GL162185   5.183  10.497   5.757
 4772POPC   GL262186   4.822  10.566   5.871
 4772POPC   C1A62187   5.204  10.434   6.196
 4772POPC   D2A62188   5.471  10.471   6.553
 4772POPC   C3A62189   5.215  10.359   6.895
 4772POPC   C4A62190   5.053  10.530   7.258
 4772POPC   C1B62191   4.592  10.609   6.286
 4772POPC   C2B62192   4.597  10.575   6.747
 4772POPC   C3B62193   4.563  10.631   7.201
 4772POPC   C4B62194   4.393  10.736   7.613
 4773POPC   NC362195  34.614  14.659   5.298
 4773POPC   PO462196  34.332  14.043   5.451
 4773POPC   GL162197  34.562  14.376   5.715
 4773POPC   GL262198  34.262  14.540   5.804
 4773POPC   C1A62199  34.806  14.555   6.094
 4773POPC   D2A62200  34.901  14.827   6.469
 4773POPC   C3A62201  34.867  14.589   6.880
 4773POPC   C4A62202  34.959  14.455   7.298
 4773POPC   C1B62203  34.348  14.364   6.180
 4773POPC   C2B62204  34.556  14.337   6.543
 4773POPC   C3B62205  34.356  14.472   6.904
 4773POPC   C4B62206  34.448  14.459   7.285
 4774POPC   NC362207  41.237  16.919   5.272
 4774POPC   PO462208  41.768  16.615   5.225
 4774POPC   GL162209  41.573  16.785   5.664
 4774POPC   GL262210  41.505  17.152   5.723
 4774POPC   C1A62211  41.276  16.804   6.079
 4774POPC   D2A62212  41.165  16.717   6.556
 4774POPC   C3A62213  41.371  16.767   7.011
 4774POPC   C4A62214  41.374  17.077   7.363
 4774POPC   C1B62215  41.719  17.010   6.157
 4774POPC   C2B62216  41.572  17.019   6.626
 4774POPC   C3B62217  41.786  17.076   7.045
 4774POPC   C4B62218  41.887  16.751   7.337
 4775POPC   NC362219  16.742  20.052   5.403
 4775POPC   PO462220  16.697  19.387   5.394
 4775POPC   GL162221  16.795  19.677   5.786
 4775POPC   GL262222  16.951  20.019   5.858
 4775POPC   C1A62223  16.588  19.880   6.192
 4775POPC   D2A62224  16.772  20.085   6.624
 4775POPC   C3A62225  16.609  19.921   7.026
 4775POPC   C4A62226  16.306  19.649   7.208
 4775POPC   C1B62227  17.114  19.735   6.180
 4775POPC   C2B62228  17.240  19.835   6.590
 4775POPC   C3B62229  17.111  19.804   7.016
 4775POPC   C4B62230  16.980  19.574   7.411
 4776POPC   NC362231   9.351  29.798   5.631
 4776POPC   PO462232  10.020  29.630   5.449
 4776POPC   GL162233   9.807  29.813   5.857
 4776POPC   GL262234   9.679  30.173   5.756
 4776POPC   C1A62235   9.685  29.755   6.319
 4776POPC   D2A62236   9.573  29.554   6.704
 4776POPC   C3A62237   9.622  29.848   7.039
 4776POPC   C4A62238   9.668  29.691   7.440
 4776POPC   C1B62239   9.752  30.261   6.180
 4776POPC   C2B62240   9.732  30.225   6.623
 4776POPC   C3B62241   9.927  30.273   7.019
 4776POPC   C4B62242   9.779  30.245   7.424
 4777POPC   NC362243  35.003   2.348   5.663
 4777POPC   PO462244  34.460   2.636   5.367
 4777POPC   GL162245  34.516   2.549   5.783
 4777POPC   GL262246  34.416   2.210   5.796
 4777POPC   C1A62247  34.697   2.746   6.148
 4777POPC   D2A62248  34.857   2.640   6.550
 4777POPC   C3A62249  34.732   2.727   6.987
 4777POPC   C4A62250  34.382   2.830   7.267
 4777POPC   C1B62251  34.517   2.279   6.260
 4777POPC   C2B62252  34.465   2.366   6.733
 4777POPC   C3B62253  34.478   2.332   7.197
 4777POPC   C4B62254  34.450   2.244   7.629
 4778POPC   NC362255   5.451   5.073   5.492
 4778POPC   PO462256   4.985   4.650   5.253
 4778POPC   GL162257   4.948   5.023   5.572
 4778POPC   GL262258   5.141   4.882   5.844
 4778POPC   C1A62259   4.846   5.256   6.009
 4778POPC   D2A62260   4.678   5.377   6.428
 4778POPC   C3A62261   4.885   5.338   6.823
 4778POPC   C4A62262   4.733   5.171   7.181
 4778POPC   C1B62263   5.315   5.095   6.192
 4778POPC   C2B62264   5.285   5.039   6.628
 4778POPC   C3B62265   5.128   4.913   7.027
 4778POPC   C4B62266   5.238   4.891   7.457
 4779POPC   NC362267  15.097  12.382   5.301
 4779POPC   PO462268  15.639  12.631   5.589
 4779POPC   GL162269  15.348  12.233   5.734
 4779POPC   GL262270  14.954  12.133   5.729
 4779POPC   C1A62271  15.247  12.070   6.162
 4779POPC   D2A62272  15.514  12.177   6.512
 4779POPC   C3A62273  15.352  12.302   6.898
 4779POPC   C4A62274  15.226  12.040   7.203
 4779POPC   C1B62275  14.819  11.813   6.038
 4779POPC   C2B62276  14.778  11.803   6.480
 4779POPC   C3B62277  14.876  12.059   6.812
 4779POPC   C4B62278  14.713  12.033   7.195
 4780POPC   NC362279  34.768  30.987   5.141
 4780POPC   PO462280  34.285  30.529   5.355
 4780POPC   GL162281  34.529  30.760   5.707
 4780POPC   GL262282  34.760  30.515   5.898
 4780POPC   C1A62283  34.511  30.894   6.180
 4780POPC   D2A62284  34.391  31.002   6.647
 4780POPC   C3A62285  34.671  30.948   7.053
 4780POPC   C4A62286  34.589  30.917   7.508
 4780POPC   C1B62287  34.747  30.447   6.336
 4780POPC   C2B62288  34.913  30.580   6.736
 4780POPC   C3B62289  34.798  30.476   7.155
 4780POPC   C4B62290  34.972  30.605   7.513
 4781POPC   NC362291  39.434  27.502   5.594
 4781POPC   PO462292  40.080  27.517   5.483
 4781POPC   GL162293  39.944  27.522   5.868
 4781POPC   GL262294  39.764  27.209   5.855
 4781POPC   C1A62295  40.185  27.628   6.253
 4781POPC   D2A62296  40.296  27.772   6.671
 4781POPC   C3A62297  40.185  27.569   7.068
 4781POPC   C4A62298  40.237  27.491   7.549
 4781POPC   C1B62299  39.554  27.084   6.202
 4781POPC   C2B62300  39.673  26.984   6.615
 4781POPC   C3B62301  39.553  27.145   6.981
 4781POPC   C4B62302  39.851  27.167   7.254
 4782POPC   NC362303   1.970   9.601   5.350
 4782POPC   PO462304   2.341  10.202   5.221
 4782POPC   GL162305   2.110  10.004   5.654
 4782POPC   GL262306   2.126   9.662   5.873
 4782POPC   C1A62307   2.043  10.091   6.124
 4782POPC   D2A62308   1.863   9.956   6.538
 4782POPC   C3A62309   1.969   9.991   6.966
 4782POPC   C4A62310   1.753   9.756   7.301
 4782POPC   C1B62311   2.286   9.634   6.312
 4782POPC   C2B62312   2.296   9.361   6.704
 4782POPC   C3B62313   2.165   9.431   7.158
 4782POPC   C4B62314   2.274   9.621   7.565
 4783POPC   NC362315  37.322   2.225   5.367
 4783POPC   PO462316  36.650   2.186   5.293
 4783POPC   GL162317  36.869   2.064   5.688
 4783POPC   GL262318  37.099   2.301   5.831
 4783POPC   C1A62319  36.844   1.887   6.139
 4783POPC   D2A62320  36.736   2.020   6.579
 4783POPC   C3A62321  36.865   1.784   6.956
 4783POPC   C4A62322  36.691   1.765   7.358
 4783POPC   C1B62323  36.738   2.387   6.064
 4783POPC   C2B62324  36.632   2.538   6.466
 4783POPC   C3B62325  36.563   2.393   6.918
 4783POPC   C4B62326  36.840   2.222   7.222
 4784POPC   NC362327  39.137  40.259   5.429
 4784POPC   PO462328  39.249  39.631   5.721
 4784POPC   GL162329  39.080  40.025   5.900
 4784POPC   GL262330  39.358  40.271   5.900
 4784POPC   C1A62331  39.032  40.229   6.315
 4784POPC   D2A62332  39.108  40.048   6.738
 4784POPC   C3A62333  38.988  40.215   7.153
 4784POPC   C4A62334  39.063  40.345   7.600
 4784POPC   C1B62335  39.611  40.087   6.234
 4784POPC   C2B62336  39.605  39.921   6.653
 4784POPC   C3B62337  39.506  40.136   7.050
 4784POPC   C4B62338  39.347  39.965   7.454
 4785POPC   NC362339  27.776  17.560   5.388
 4785POPC   PO462340  27.267  17.244   5.171
 4785POPC   GL162341  27.429  17.277   5.656
 4785POPC   GL262342  27.554  17.602   5.841
 4785POPC   C1A62343  27.409  17.249   6.150
 4785POPC   D2A62344  27.605  17.465   6.514
 4785POPC   C3A62345  27.560  17.254   6.919
 4785POPC   C4A62346  27.552  17.110   7.354
 4785POPC   C1B62347  27.887  17.726   6.119
 4785POPC   C2B62348  28.069  17.667   6.529
 4785POPC   C3B62349  27.918  17.646   6.947
 4785POPC   C4B62350  27.892  17.895   7.314
 4786POPC   NC362351   5.076  37.093   5.389
 4786POPC   PO462352   4.687  36.600   5.477
 4786POPC   GL162353   5.005  36.757   5.770
 4786POPC   GL262354   4.850  37.062   5.852
 4786POPC   C1A62355   5.241  36.625   6.148
 4786POPC   D2A62356   5.126  36.736   6.579
 4786POPC   C3A62357   5.372  36.728   6.921
 4786POPC   C4A62358   5.290  36.882   7.289
 4786POPC   C1B62359   4.801  36.951   6.249
 4786POPC   C2B62360   4.810  37.149   6.649
 4786POPC   C3B62361   4.819  36.898   7.030
 4786POPC   C4B62362   4.828  36.858   7.475
 4787POPC   NC362363  18.970  13.026   5.154
 4787POPC   PO462364  19.370  12.652   5.290
 4787POPC   GL162365  19.180  12.902   5.686
 4787POPC   GL262366  18.860  13.098   5.767
 4787POPC   C1A62367  19.126  12.880   6.177
 4787POPC   D2A62368  18.936  12.897   6.634
 4787POPC   C3A62369  19.070  12.737   7.081
 4787POPC   C4A62370  19.030  12.473   7.484
 4787POPC   C1B62371  18.791  13.271   6.231
 4787POPC   C2B62372  18.581  13.252   6.670
 4787POPC   C3B62373  18.676  13.066   7.090
 4787POPC   C4B62374  18.692  13.213   7.532
 4788POPC   NC362375  42.211  16.709   5.194
 4788POPC   PO462376  42.694  16.938   5.379
 4788POPC   GL162377  42.539  16.845   5.872
 4788POPC   GL262378  42.250  16.938   6.147
 4788POPC   C1A62379  42.682  16.791   6.341
 4788POPC   D2A62380  42.410  16.751   6.677
 4788POPC   C3A62381  42.288  16.912   7.051
 4788POPC   C4A62382  42.375  16.894   7.464
 4788POPC   C1B62383  42.201  16.489   6.310
 4788POPC   C2B62384  42.343  16.248   6.687
 4788POPC   C3B62385  42.454  16.423   7.097
 4788POPC   C4B62386  42.256  16.404   7.488
 4789POPC   NC362387  30.426  35.928   5.204
 4789POPC   PO462388  30.789  36.485   5.240
 4789POPC   GL162389  30.778  36.254   5.678
 4789POPC   GL262390  30.533  35.949   5.715
 4789POPC   C1A62391  30.663  36.227   6.148
 4789POPC   D2A62392  30.816  36.028   6.537
 4789POPC   C3A62393  30.768  36.218   6.971
 4789POPC   C4A62394  30.967  35.970   7.314
 4789POPC   C1B62395  30.449  35.757   6.131
 4789POPC   C2B62396  30.475  35.590   6.550
 4789POPC   C3B62397  30.643  35.732   6.927
 4789POPC   C4B62398  30.468  35.909   7.297
 4790POPC   NC362399  17.245  40.380   5.557
 4790POPC   PO462400  17.831  40.091   5.378
 4790POPC   GL162401  17.680  40.186   5.770
 4790POPC   GL262402  17.942  40.141   5.995
 4790POPC   C1A62403  17.388  40.050   6.099
 4790POPC   D2A62404  17.301  39.859   6.497
 4790POPC   C3A62405  17.289  40.096   6.867
 4790POPC   C4A62406  17.355  39.966   7.268
 4790POPC   C1B62407  17.806  39.850   6.317
 4790POPC   C2B62408  17.752  39.879   6.750
 4790POPC   C3B62409  17.796  40.133   7.075
 4790POPC   C4B62410  17.748  40.141   7.538
 4791POPC   NC362411   9.864  19.627   5.489
 4791POPC   PO462412   9.864  20.288   5.209
 4791POPC   GL162413   9.712  20.181   5.674
 4791POPC   GL262414   9.554  19.878   5.795
 4791POPC   C1A62415   9.654  20.226   6.148
 4791POPC   D2A62416   9.560  19.920   6.493
 4791POPC   C3A62417   9.901  19.819   6.789
 4791POPC   C4A62418  10.075  20.041   7.166
 4791POPC   C1B62419   9.689  19.577   6.120
 4791POPC   C2B62420   9.631  19.404   6.535
 4791POPC   C3B62421   9.470  19.545   6.905
 4791POPC   C4B62422   9.724  19.640   7.245
 4792POPC   NC362423  17.456  34.804   5.511
 4792POPC   PO462424  17.411  34.161   5.465
 4792POPC   GL162425  17.668  34.401   5.815
 4792POPC   GL262426  17.879  34.738   5.833
 4792POPC   C1A62427  17.520  34.525   6.240
 4792POPC   D2A62428  17.330  34.353   6.626
 4792POPC   C3A62429  17.234  34.544   7.049
 4792POPC   C4A62430  17.329  34.449   7.471
 4792POPC   C1B62431  18.009  34.613   6.249
 4792POPC   C2B62432  17.901  34.352   6.596
 4792POPC   C3B62433  17.719  34.405   6.981
 4792POPC   C4B62434  17.714  34.729   7.256
 4793POPC   NC362435  37.613  29.007   5.656
 4793POPC   PO462436  38.178  29.366   5.408
 4793POPC   GL162437  37.957  29.361   5.784
 4793POPC   GL262438  38.111  29.074   5.930
 4793POPC   C1A62439  37.758  29.280   6.218
 4793POPC   D2A62440  37.607  29.423   6.594
 4793POPC   C3A62441  37.567  29.210   6.967
 4793POPC   C4A62442  37.639  29.385   7.346
 4793POPC   C1B62443  37.843  28.762   6.191
 4793POPC   C2B62444  37.741  28.901   6.582
 4793POPC   C3B62445  37.903  28.831   6.954
 4793POPC   C4B62446  37.718  28.838   7.315
 4794POPC   NC362447  44.120  39.204   5.140
 4794POPC   PO462448  43.628  39.644   5.328
 4794POPC   GL162449  43.674  39.388   5.773
 4794POPC   GL262450  43.979  39.204   5.746
 4794POPC   C1A62451  43.671  39.081   6.144
 4794POPC   D2A62452  43.901  39.149   6.559
 4794POPC   C3A62453  43.786  39.122   7.007
 4794POPC   C4A62454  43.679  39.365   7.388
 4794POPC   C1B62455  44.176  39.023   6.136
 4794POPC   C2B62456  44.234  38.759   6.503
 4794POPC   C3B62457  44.281  38.859   6.943
 4794POPC   C4B62458  44.149  38.704   7.330
 4795POPC   NC362459  21.880   7.342   5.580
 4795POPC   PO462460  22.444   7.598   5.424
 4795POPC   GL162461  22.351   7.715   5.831
 4795POPC   GL262462  22.092   7.922   5.779
 4795POPC   C1A62463  22.415   7.545   6.234
 4795POPC   D2A62464  22.514   7.612   6.653
 4795POPC   C3A62465  22.454   7.316   6.961
 4795POPC   C4A62466  22.399   7.565   7.309
 4795POPC   C1B62467  21.894   7.702   6.156
 4795POPC   C2B62468  21.967   7.522   6.584
 4795POPC   C3B62469  21.933   7.396   7.021
 4795POPC   C4B62470  21.854   7.610   7.393
 4796POPC   NC362471  40.351  14.432   5.537
 4796POPC   PO462472  39.795  14.337   5.472
 4796POPC   GL162473  39.983  14.410   5.912
 4796POPC   GL262474  39.817  14.687   6.066
 4796POPC   C1A62475  40.055  14.307   6.381
 4796POPC   D2A62476  40.002  14.012   6.737
 4796POPC   C3A62477  40.016  14.155   7.158
 4796POPC   C4A62478  39.933  14.436   7.473
 4796POPC   C1B62479  39.651  14.626   6.476
 4796POPC   C2B62480  39.672  14.562   6.924
 4796POPC   C3B62481  39.776  14.861   7.250
 4796POPC   C4B62482  40.084  15.191   7.362
 4797POPC   NC362483  18.911  20.366   5.756
 4797POPC   PO462484  19.274  20.821   5.338
 4797POPC   GL162485  19.251  20.736   5.786
 4797POPC   GL262486  19.439  20.395   5.849
 4797POPC   C1A62487  19.098  20.779   6.227
 4797POPC   D2A62488  19.328  20.720   6.588
 4797POPC   C3A62489  19.271  20.937   6.997
 4797POPC   C4A62490  18.948  20.830   7.312
 4797POPC   C1B62491  19.285  20.262   6.271
 4797POPC   C2B62492  18.922  20.355   6.526
 4797POPC   C3B62493  18.986  20.526   6.919
 4797POPC   C4B62494  19.277  20.413   7.244
 4798POPC   NC362495   5.644  28.698   5.502
 4798POPC   PO462496   6.055  28.141   5.522
 4798POPC   GL162497   5.899  28.315   5.885
 4798POPC   GL262498   5.547  28.297   5.841
 4798POPC   C1A62499   6.084  28.271   6.322
 4798POPC   D2A62500   5.988  28.395   6.745
 4798POPC   C3A62501   6.181  28.356   7.154
 4798POPC   C4A62502   5.992  28.243   7.548
 4798POPC   C1B62503   5.587  28.414   6.267
 4798POPC   C2B62504   5.582  28.662   6.625
 4798POPC   C3B62505   5.671  28.688   7.027
 4798POPC   C4B62506   5.577  28.398   7.329
 4799POPC   NC362507  14.536  21.307   5.523
 4799POPC   PO462508  13.981  21.112   5.201
 4799POPC   GL162509  14.064  21.548   5.618
 4799POPC   GL262510  14.383  21.674   5.835
 4799POPC   C1A62511  14.014  21.545   6.135
 4799POPC   D2A62512  14.299  21.277   6.437
 4799POPC   C3A62513  14.243  21.323   6.896
 4799POPC   C4A62514  14.446  21.057   7.169
 4799POPC   C1B62515  14.697  21.625   6.184
 4799POPC   C2B62516  14.863  21.524   6.614
 4799POPC   C3B62517  14.716  21.486   7.042
 4799POPC   C4B62518  14.464  21.641   7.388
 4800POPC   NC362519  21.444  27.461   5.481
 4800POPC   PO462520  22.034  27.588   5.550
 4800POPC   GL162521  21.716  27.710   5.854
 4800POPC   GL262522  21.695  27.367   5.924
 4800POPC   C1A62523  21.773  27.895   6.265
 4800POPC   D2A62524  22.075  27.823   6.606
 4800POPC   C3A62525  21.994  27.583   6.987
 4800POPC   C4A62526  21.959  27.404   7.397
 4800POPC   C1B62527  21.993  27.439   6.250
 4800POPC   C2B62528  22.190  27.277   6.626
 4800POPC   C3B62529  22.208  27.094   7.050
 4800POPC   C4B62530  22.431  27.205   7.438
 4801POPC   NC362531  29.083  33.945   5.435
 4801POPC   PO462532  28.682  33.483   5.532
 4801POPC   GL162533  29.064  33.586   5.808
 4801POPC   GL262534  29.216  33.953   5.915
 4801POPC   C1A62535  29.260  33.504   6.199
 4801POPC   D2A62536  29.335  33.741   6.560
 4801POPC   C3A62537  29.356  33.517   6.935
 4801POPC   C4A62538  29.207  33.760   7.264
 4801POPC   C1B62539  28.924  33.941   6.233
 4801POPC   C2B62540  28.903  34.011   6.688
 4801POPC   C3B62541  29.268  34.166   6.884
 4801POPC   C4B62542  29.402  34.246   7.277
 4802POPC   NC362543  26.478   6.202   5.507
 4802POPC   PO462544  26.824   5.700   5.336
 4802POPC   GL162545  26.999   5.786   5.764
 4802POPC   GL262546  26.704   5.928   5.866
 4802POPC   C1A62547  26.955   5.626   6.206
 4802POPC   D2A62548  26.941   5.899   6.560
 4802POPC   C3A62549  26.795   5.741   6.959
 4802POPC   C4A62550  26.828   5.697   7.423
 4802POPC   C1B62551  26.457   5.614   6.060
 4802POPC   C2B62552  26.518   5.586   6.499
 4802POPC   C3B62553  26.293   5.646   6.861
 4802POPC   C4B62554  26.369   5.549   7.268
 4803POPC   NC362555   5.595  37.485   5.432
 4803POPC   PO462556   6.169  37.821   5.445
 4803POPC   GL162557   5.910  37.739   5.795
 4803POPC   GL262558   5.828  37.367   5.864
 4803POPC   C1A62559   6.020  37.683   6.221
 4803POPC   D2A62560   5.900  37.451   6.575
 4803POPC   C3A62561   6.057  37.740   6.890
 4803POPC   C4A62562   6.102  37.697   7.326
 4803POPC   C1B62563   5.520  37.617   6.123
 4803POPC   C2B62564   5.521  37.793   6.539
 4803POPC   C3B62565   5.580  37.612   6.957
 4803POPC   C4B62566   5.484  37.855   7.294
 4804POPC   NC362567   4.107  42.907   5.339
 4804POPC   PO462568   4.687  43.287   5.332
 4804POPC   GL162569   4.525  43.232   5.732
 4804POPC   GL262570   4.166  43.168   5.779
 4804POPC   C1A62571   4.665  43.153   6.144
 4804POPC   D2A62572   4.399  43.118   6.484
 4804POPC   C3A62573   4.286  43.270   6.876
 4804POPC   C4A62574   4.478  43.119   7.261
 4804POPC   C1B62575   4.040  42.930   6.135
 4804POPC   C2B62576   4.022  42.773   6.555
 4804POPC   C3B62577   4.121  42.810   6.984
 4804POPC   C4B62578   3.810  42.766   7.252
 4805POPC   NC362579   8.926  18.649   5.205
 4805POPC   PO462580   9.206  17.965   5.284
 4805POPC   GL162581   9.184  18.247   5.642
 4805POPC   GL262582   8.925  18.064   5.811
 4805POPC   C1A62583   9.178  18.389   6.118
 4805POPC   D2A62584   8.947  18.647   6.454
 4805POPC   C3A62585   9.030  18.553   6.914
 4805POPC   C4A62586   9.014  18.244   7.253
 4805POPC   C1B62587   8.720  18.098   6.220
 4805POPC   C2B62588   8.763  18.188   6.645
 4805POPC   C3B62589   8.555  18.130   7.044
 4805POPC   C4B62590   8.599  18.001   7.480
 4806POPC   NC362591   2.215  11.261   5.630
 4806POPC   PO462592   1.808  11.047   5.161
 4806POPC   GL162593   1.726  11.410   5.679
 4806POPC   GL262594   1.973  11.201   6.059
 4806POPC   C1A62595   1.595  11.462   6.161
 4806POPC   D2A62596   1.826  11.335   6.556
 4806POPC   C3A62597   1.698  11.403   7.004
 4806POPC   C4A62598   1.817  11.069   7.349
 4806POPC   C1B62599   2.144  11.585   6.182
 4806POPC   C2B62600   2.368  11.620   6.557
 4806POPC   C3B62601   2.183  11.665   6.976
 4806POPC   C4B62602   2.029  11.516   7.386
 4807POPC   NC362603  23.090  18.622   5.394
 4807POPC   PO462604  22.776  18.060   5.332
 4807POPC   GL162605  22.819  18.126   5.764
 4807POPC   GL262606  22.578  18.384   5.803
 4807POPC   C1A62607  23.059  18.210   6.148
 4807POPC   D2A62608  23.226  18.041   6.542
 4807POPC   C3A62609  23.058  18.243   6.912
 4807POPC   C4A62610  22.657  18.090   7.096
 4807POPC   C1B62611  22.522  18.202   6.202
 4807POPC   C2B62612  22.682  18.372   6.589
 4807POPC   C3B62613  22.700  18.604   6.998
 4807POPC   C4B62614  23.094  18.690   7.212
 4808POPC   NC362615  22.464  20.175   5.529
 4808POPC   PO462616  22.153  20.716   5.227
 4808POPC   GL162617  22.169  20.710   5.717
 4808POPC   GL262618  22.346  20.493   5.889
 4808POPC   C1A62619  22.124  20.854   6.179
 4808POPC   D2A62620  22.182  20.640   6.587
 4808POPC   C3A62621  21.984  20.734   6.964
 4808POPC   C4A62622  22.052  20.533   7.331
 4808POPC   C1B62623  22.586  20.571   6.263
 4808POPC   C2B62624  22.723  20.546   6.672
 4808POPC   C3B62625  22.473  20.524   7.036
 4808POPC   C4B62626  22.521  20.775   7.434
 4809POPC   NC362627  35.373  18.004   5.507
 4809POPC   PO462628  35.790  17.469   5.613
 4809POPC   GL162629  35.448  17.605   5.836
 4809POPC   GL262630  35.633  17.862   5.954
 4809POPC   C1A62631  35.179  17.487   6.174
 4809POPC   D2A62632  35.073  17.628   6.556
 4809POPC   C3A62633  35.144  17.419   6.892
 4809POPC   C4A62634  35.372  17.649   7.123
 4809POPC   C1B62635  35.729  17.545   6.285
 4809POPC   C2B62636  35.599  17.339   6.676
 4809POPC   C3B62637  35.723  17.288   7.117
 4809POPC   C4B62638  35.579  17.435   7.540
 4810POPC   NC362639  17.777  31.585   5.383
 4810POPC   PO462640  18.531  31.296   5.414
 4810POPC   GL162641  18.422  31.406   5.804
 4810POPC   GL262642  18.202  31.672   5.670
 4810POPC   C1A62643  18.229  31.270   6.222
 4810POPC   D2A62644  17.968  31.228   6.603
 4810POPC   C3A62645  18.237  31.477   6.868
 4810POPC   C4A62646  18.563  31.378   7.126
 4810POPC   C1B62647  18.192  31.767   6.107
 4810POPC   C2B62648  18.376  31.890   6.523
 4810POPC   C3B62649  18.141  31.981   6.881
 4810POPC   C4B62650  18.159  31.859   7.248
 4811POPC   NC362651   6.601   5.036   5.215
 4811POPC   PO462652   7.224   5.260   5.367
 4811POPC   GL162653   6.889   5.015   5.697
 4811POPC   GL262654   6.486   4.968   5.727
 4811POPC   C1A62655   6.739   5.034   6.169
 4811POPC   D2A62656   6.592   4.941   6.620
 4811POPC   C3A62657   6.815   5.204   6.958
 4811POPC   C4A62658   6.890   5.278   7.424
 4811POPC   C1B62659   6.232   4.904   6.148
 4811POPC   C2B62660   6.173   4.615   6.532
 4811POPC   C3B62661   6.106   4.681   6.987
 4811POPC   C4B62662   6.445   4.919   7.162
 4812POPC   NC362663   2.398  42.569   5.452
 4812POPC   PO462664   2.784  41.976   5.373
 4812POPC   GL162665   2.735  42.248   5.735
 4812POPC   GL262666   3.079  42.384   5.851
 4812POPC   C1A62667   2.612  42.325   6.175
 4812POPC   D2A62668   2.780  42.374   6.618
 4812POPC   C3A62669   2.585  42.207   7.032
 4812POPC   C4A62670   2.540  42.333   7.494
 4812POPC   C1B62671   3.060  42.076   6.159
 4812POPC   C2B62672   3.220  42.069   6.568
 4812POPC   C3B62673   3.088  42.147   6.964
 4812POPC   C4B62674   3.019  42.295   7.365
 4813POPC   NC362675  44.872  25.883   5.309
 4813POPC   PO462676  44.439  26.385   5.481
 4813POPC   GL162677  44.546  26.150   5.848
 4813POPC   GL262678  44.324  25.895   5.943
 4813POPC   C1A62679  44.756  26.118   6.247
 4813POPC   D2A62680   0.005  25.982   6.596
 4813POPC   C3A62681  44.882  26.002   7.039
 4813POPC   C4A62682  44.494  25.901   7.291
 4813POPC   C1B62683  44.384  25.779   6.335
 4813POPC   C2B62684  44.498  25.989   6.694
 4813POPC   C3B62685  44.594  25.624   6.879
 4813POPC   C4B62686  44.310  25.398   7.143
 4814POPC   NC362687  25.730  44.594   5.461
 4814POPC   PO462688  26.382  44.500   5.441
 4814POPC   GL162689  26.149  44.526   5.790
 4814POPC   GL262690  26.056  44.844   5.759
 4814POPC   C1A62691  25.901  44.579   6.171
 4814POPC   D2A62692  25.962  44.734   6.575
 4814POPC   C3A62693  25.940  44.481   6.926
 4814POPC   C4A62694  26.171  44.435   7.279
 4814POPC   C1B62695  26.373  44.977   6.073
 4814POPC   C2B62696  26.422  44.941   6.518
 4814POPC   C3B62697  26.308  44.878   6.946
 4814POPC   C4B62698  26.313  44.922   7.379
 4815POPC   NC362699  35.712   4.149   5.068
 4815POPC   PO462700  35.218   4.409   5.480
 4815POPC   GL162701  35.220   4.271   5.922
 4815POPC   GL262702  35.380   3.943   6.007
 4815POPC   C1A62703  35.162   4.369   6.361
 4815POPC   D2A62704  35.205   4.641   6.717
 4815POPC   C3A62705  35.208   4.413   7.105
 4815POPC   C4A62706  35.143   3.995   7.285
 4815POPC   C1B62707  35.636   4.212   6.237
 4815POPC   C2B62708  35.661   4.402   6.605
 4815POPC   C3B62709  35.703   4.492   7.008
 4815POPC   C4B62710  35.654   4.158   7.244
 4816POPC   NC362711  39.721  11.057   5.471
 4816POPC   PO462712  40.220  11.547   5.498
 4816POPC   GL162713  40.083  11.337   5.875
 4816POPC   GL262714  40.175  10.980   5.827
 4816POPC   C1A62715  40.011  11.331   6.327
 4816POPC   D2A62716  39.761  11.466   6.652
 4816POPC   C3A62717  39.803  11.272   7.061
 4816POPC   C4A62718  39.988  11.437   7.449
 4816POPC   C1B62719  39.839  10.911   6.135
 4816POPC   C2B62720  39.815  10.925   6.600
 4816POPC   C3B62721  40.059  10.830   6.978
 4816POPC   C4B62722  40.062  10.939   7.388
 4817POPC   NC362723   4.740  42.088   5.073
 4817POPC   PO462724   5.308  42.231   5.421
 4817POPC   GL162725   5.229  42.271   5.872
 4817POPC   GL262726   4.854  42.396   5.919
 4817POPC   C1A62727   5.131  42.185   6.288
 4817POPC   D2A62728   4.907  42.398   6.598
 4817POPC   C3A62729   4.953  42.334   7.024
 4817POPC   C4A62730   4.961  41.998   7.308
 4817POPC   C1B62731   4.612  42.121   6.251
 4817POPC   C2B62732   4.619  41.963   6.719
 4817POPC   C3B62733   4.502  42.133   7.150
 4817POPC   C4B62734   4.585  42.171   7.639
 4818POPC   NC362735  13.599  13.232   5.414
 4818POPC   PO462736  13.424  13.957   5.376
 4818POPC   GL162737  13.499  13.651   5.737
 4818POPC   GL262738  13.761  13.382   5.860
 4818POPC   C1A62739  13.453  13.568   6.200
 4818POPC   D2A62740  13.591  13.398   6.585
 4818POPC   C3A62741  13.556  13.636   6.933
 4818POPC   C4A62742  13.265  13.659   7.256
 4818POPC   C1B62743  13.959  13.428   6.244
 4818POPC   C2B62744  14.062  13.574   6.675
 4818POPC   C3B62745  13.940  13.259   6.976
 4818POPC   C4B62746  13.837  13.209   7.411
 4819POPC   NC362747  40.737  39.838   5.276
 4819POPC   PO462748  40.408  40.356   5.499
 4819POPC   GL162749  40.645  40.028   5.734
 4819POPC   GL262750  40.472  39.697   5.699
 4819POPC   C1A62751  40.942  39.925   6.079
 4819POPC   D2A62752  41.184  39.911   6.472
 4819POPC   C3A62753  41.054  39.753   6.879
 4819POPC   C4A62754  40.888  40.014   7.205
 4819POPC   C1B62755  40.470  39.738   6.139
 4819POPC   C2B62756  40.646  39.911   6.509
 4819POPC   C3B62757  40.525  39.814   6.897
 4819POPC   C4B62758  40.518  39.681   7.320
 4820POPC   NC362759  33.553  12.095   5.405
 4820POPC   PO462760  34.233  12.069   5.379
 4820POPC   GL162761  33.952  12.120   5.736
 4820POPC   GL262762  33.853  11.798   5.737
 4820POPC   C1A62763  33.709  12.164   6.138
 4820POPC   D2A62764  33.744  11.934   6.557
 4820POPC   C3A62765  33.941  12.036   6.953
 4820POPC   C4A62766  34.026  12.447   7.067
 4820POPC   C1B62767  33.725  11.626   6.141
 4820POPC   C2B62768  33.583  11.462   6.556
 4820POPC   C3B62769  33.554  11.693   6.989
 4820POPC   C4B62770  33.622  11.823   7.414
 4821POPC   NC362771  31.003  14.547   5.458
 4821POPC   PO462772  30.458  14.042   5.443
 4821POPC   GL162773  30.647  14.375   5.774
 4821POPC   GL262774  30.430  14.643   5.920
 4821POPC   C1A62775  30.829  14.505   6.183
 4821POPC   D2A62776  30.641  14.404   6.556
 4821POPC   C3A62777  30.936  14.385   6.901
 4821POPC   C4A62778  30.861  14.516   7.325
 4821POPC   C1B62779  30.486  14.854   6.334
 4821POPC   C2B62780  30.470  14.832   6.805
 4821POPC   C3B62781  30.513  14.880   7.262
 4821POPC   C4B62782  30.348  14.659   7.627
 4822POPC   NC362783  33.456  43.097   5.415
 4822POPC   PO462784  32.744  43.381   5.467
 4822POPC   GL162785  33.047  43.131   5.749
 4822POPC   GL262786  33.313  42.833   5.831
 4822POPC   C1A62787  32.897  43.084   6.154
 4822POPC   D2A62788  32.742  43.383   6.430
 4822POPC   C3A62789  32.737  43.297   6.869
 4822POPC   C4A62790  32.678  43.142   7.295
 4822POPC   C1B62791  33.388  43.003   6.257
 4822POPC   C2B62792  33.146  43.047   6.634
 4822POPC   C3B62793  33.156  43.104   7.084
 4822POPC   C4B62794  33.148  42.855   7.458
 4823POPC   NC362795  24.229  32.184   5.095
 4823POPC   PO462796  24.771  32.234   5.501
 4823POPC   GL162797  24.653  32.161   5.905
 4823POPC   GL262798  24.706  31.813   5.855
 4823POPC   C1A62799  24.471  32.356   6.280
 4823POPC   D2A62800  24.494  32.654   6.656
 4823POPC   C3A62801  24.400  32.476   7.033
 4823POPC   C4A62802  24.128  32.324   7.324
 4823POPC   C1B62803  24.665  31.870   6.328
 4823POPC   C2B62804  24.556  32.087   6.730
 4823POPC   C3B62805  24.607  31.935   7.194
 4823POPC   C4B62806  24.886  31.918   7.565
 4824POPC   NC362807  14.143   3.215   5.392
 4824POPC   PO462808  14.064   3.791   5.668
 4824POPC   GL162809  14.252   3.487   5.923
 4824POPC   GL262810  14.151   3.122   5.895
 4824POPC   C1A62811  14.492   3.611   6.280
 4824POPC   D2A62812  14.415   3.759   6.696
 4824POPC   C3A62813  14.550   3.523   7.055
 4824POPC   C4A62814  14.459   3.497   7.503
 4824POPC   C1B62815  14.241   3.169   6.319
 4824POPC   C2B62816  14.171   3.322   6.757
 4824POPC   C3B62817  14.121   3.246   7.227
 4824POPC   C4B62818  13.992   3.283   7.698
 4825POPC   NC362819  41.573  37.697   5.365
 4825POPC   PO462820  42.077  37.247   5.579
 4825POPC   GL162821  41.687  37.436   5.789
 4825POPC   GL262822  41.338  37.477   5.795
 4825POPC   C1A62823  41.619  37.702   6.145
 4825POPC   D2A62824  41.793  37.634   6.534
 4825POPC   C3A62825  41.622  37.894   6.794
 4825POPC   C4A62826  41.549  37.655   7.158
 4825POPC   C1B62827  41.144  37.868   6.047
 4825POPC   C2B62828  41.092  38.009   6.526
 4825POPC   C3B62829  41.153  37.920   6.996
 4825POPC   C4B62830  41.214  37.868   7.482
 4826POPC   NC362831  36.679  29.164   5.337
 4826POPC   PO462832  37.256  29.284   5.588
 4826POPC   GL162833  36.877  29.115   5.813
 4826POPC   GL262834  36.547  29.286   5.823
 4826POPC   C1A62835  36.730  28.954   6.208
 4826POPC   D2A62836  36.767  29.101   6.617
 4826POPC   C3A62837  36.942  28.942   6.985
 4826POPC   C4A62838  37.162  29.161   7.287
 4826POPC   C1B62839  36.689  29.466   6.225
 4826POPC   C2B62840  36.713  29.684   6.639
 4826POPC   C3B62841  36.705  29.413   7.033
 4826POPC   C4B62842  36.559  29.105   7.294
 4827POPC   NC362843  38.211  30.822   5.663
 4827POPC   PO462844  37.539  30.898   5.506
 4827POPC   GL162845  37.582  30.628   5.873
 4827POPC   GL262846  37.336  30.388   5.793
 4827POPC   C1A62847  37.588  30.690   6.336
 4827POPC   D2A62848  37.433  30.721   6.767
 4827POPC   C3A62849  37.729  30.847   7.085
 4827POPC   C4A62850  37.742  30.683   7.502
 4827POPC   C1B62851  37.387  30.236   6.223
 4827POPC   C2B62852  37.510  30.234   6.679
 4827POPC   C3B62853  37.579  30.362   7.134
 4827POPC   C4B62854  37.383  30.339   7.578
 4828POPC   NC362855  43.776   2.451   5.462
 4828POPC   PO462856  44.023   1.827   5.386
 4828POPC   GL162857  43.775   1.919   5.761
 4828POPC   GL262858  43.431   1.775   5.719
 4828POPC   C1A62859  43.794   2.079   6.228
 4828POPC   D2A62860  43.629   2.118   6.685
 4828POPC   C3A62861  43.918   2.077   7.045
 4828POPC   C4A62862  44.286   2.093   7.302
 4828POPC   C1B62863  43.618   1.589   6.121
 4828POPC   C2B62864  43.821   1.658   6.543
 4828POPC   C3B62865  43.665   1.643   6.983
 4828POPC   C4B62866  43.791   1.625   7.428
 4829POPC   NC362867  10.726  37.786   5.476
 4829POPC   PO462868  10.247  37.313   5.433
 4829POPC   GL162869  10.387  37.568   5.829
 4829POPC   GL262870  10.717  37.660   5.945
 4829POPC   C1A62871  10.319  37.696   6.272
 4829POPC   D2A62872  10.210  37.779   6.711
 4829POPC   C3A62873  10.335  37.648   7.101
 4829POPC   C4A62874  10.285  37.581   7.550
 4829POPC   C1B62875  10.843  37.765   6.333
 4829POPC   C2B62876  10.679  37.586   6.703
 4829POPC   C3B62877  10.811  37.497   7.113
 4829POPC   C4B62878  10.741  37.773   7.448
 4830POPC   NC362879  17.496  28.801   5.364
 4830POPC   PO462880  17.252  29.365   5.459
 4830POPC   GL162881  17.297  29.028   5.795
 4830POPC   GL262882  17.626  28.805   5.852
 4830POPC   C1A62883  17.116  28.982   6.214
 4830POPC   D2A62884  16.982  29.209   6.584
 4830POPC   C3A62885  17.100  28.920   6.905
 4830POPC   C4A62886  17.387  28.979   7.239
 4830POPC   C1B62887  17.626  29.119   6.191
 4830POPC   C2B62888  17.519  29.171   6.636
 4830POPC   C3B62889  17.677  29.346   7.022
 4830POPC   C4B62890  17.700  29.285   7.502
 4831POPC   NC362891  17.001   8.380   5.435
 4831POPC   PO462892  16.515   7.834   5.465
 4831POPC   GL162893  16.751   8.109   5.774
 4831POPC   GL262894  16.621   8.452   5.755
 4831POPC   C1A62895  17.103   8.162   6.090
 4831POPC   D2A62896  17.063   8.371   6.498
 4831POPC   C3A62897  16.841   8.150   6.830
 4831POPC   C4A62898  16.903   8.227   7.260
 4831POPC   C1B62899  16.698   8.477   6.161
 4831POPC   C2B62900  16.503   8.335   6.524
 4831POPC   C3B62901  16.509   8.521   6.962
 4831POPC   C4B62902  16.512   8.518   7.401
 4832POPC   NC362903  21.821  30.756   5.452
 4832POPC   PO462904  22.354  30.476   5.147
 4832POPC   GL162905  22.418  30.775   5.632
 4832POPC   GL262906  22.148  30.916   5.788
 4832POPC   C1A62907  22.380  30.632   6.148
 4832POPC   D2A62908  22.417  30.802   6.543
 4832POPC   C3A62909  22.287  30.485   6.850
 4832POPC   C4A62910  22.307  30.643   7.267
 4832POPC   C1B62911  21.988  30.957   6.176
 4832POPC   C2B62912  21.907  30.796   6.553
 4832POPC   C3B62913  22.068  30.947   6.921
 4832POPC   C4B62914  21.866  30.952   7.290
 4833POPC   NC362915  39.357   0.867   5.172
 4833POPC   PO462916  39.236   1.434   5.525
 4833POPC   GL162917  39.230   1.238   5.876
 4833POPC   GL262918  39.430   0.930   5.811
 4833POPC   C1A62919  39.002   1.324   6.250
 4833POPC   D2A62920  39.025   1.112   6.630
 4833POPC   C3A62921  38.906   1.358   6.974
 4833POPC   C4A62922  39.072   1.411   7.378
 4833POPC   C1B62923  39.539   1.066   6.242
 4833POPC   C2B62924  39.535   1.052   6.676
 4833POPC   C3B62925  39.417   1.194   7.068
 4833POPC   C4B62926  39.464   1.120   7.546
 4834POPC   NC362927  29.034  19.563   5.406
 4834POPC   PO462928  29.382  20.149   5.405
 4834POPC   GL162929  29.243  19.941   5.823
 4834POPC   GL262930  29.036  19.634   5.905
 4834POPC   C1A62931  29.024  20.023   6.238
 4834POPC   D2A62932  29.008  19.787   6.610
 4834POPC   C3A62933  28.786  19.882   6.947
 4834POPC   C4A62934  28.997  20.122   7.196
 4834POPC   C1B62935  29.148  19.391   6.278
 4834POPC   C2B62936  29.229  19.344   6.713
 4834POPC   C3B62937  29.226  19.607   7.103
 4834POPC   C4B62938  29.447  19.730   7.503
 4835POPC   NC362939  41.942   1.002   5.401
 4835POPC   PO462940  42.569   1.100   5.338
 4835POPC   GL162941  42.330   1.122   5.760
 4835POPC   GL262942  42.067   1.379   5.841
 4835POPC   C1A62943  42.347   1.169   6.242
 4835POPC   D2A62944  42.480   1.110   6.672
 4835POPC   C3A62945  42.294   1.040   7.080
 4835POPC   C4A62946  42.475   1.007   7.495
 4835POPC   C1B62947  42.002   1.556   6.284
 4835POPC   C2B62948  42.049   1.420   6.755
 4835POPC   C3B62949  42.103   1.489   7.220
 4835POPC   C4B62950  42.156   1.385   7.675
 4836POPC   NC362951  40.614  27.967   5.060
 4836POPC   PO462952  41.103  28.196   5.508
 4836POPC   GL162953  40.857  28.279   5.885
 4836POPC   GL262954  40.525  28.303   5.790
 4836POPC   C1A62955  40.699  28.538   6.242
 4836POPC   D2A62956  40.991  28.581   6.586
 4836POPC   C3A62957  40.850  28.606   7.010
 4836POPC   C4A62958  41.008  28.327   7.304
 4836POPC   C1B62959  40.479  28.074   6.214
 4836POPC   C2B62960  40.587  28.212   6.647
 4836POPC   C3B62961  40.404  28.125   7.033
 4836POPC   C4B62962  40.475  28.407   7.365
 4837POPC   NC362963  31.454   7.247   5.432
 4837POPC   PO462964  31.255   6.668   5.630
 4837POPC   GL162965  31.237   7.085   5.873
 4837POPC   GL262966  31.581   7.301   5.927
 4837POPC   C1A62967  31.088   7.289   6.274
 4837POPC   D2A62968  31.102   7.280   6.743
 4837POPC   C3A62969  31.431   7.400   7.085
 4837POPC   C4A62970  31.476   7.229   7.528
 4837POPC   C1B62971  31.455   7.654   6.223
 4837POPC   C2B62972  31.368   7.727   6.673
 4837POPC   C3B62973  31.560   7.903   7.049
 4837POPC   C4B62974  31.617   7.714   7.470
 4838POPC   NC362975  15.571  11.147   5.559
 4838POPC   PO462976  15.301  11.744   5.276
 4838POPC   GL162977  15.212  11.606   5.747
 4838POPC   GL262978  15.100  11.259   5.815
 4838POPC   C1A62979  15.240  11.549   6.238
 4838POPC   D2A62980  15.261  11.744   6.660
 4838POPC   C3A62981  15.076  11.594   7.055
 4838POPC   C4A62982  15.402  11.565   7.328
 4838POPC   C1B62983  15.285  11.039   6.162
 4838POPC   C2B62984  15.205  10.936   6.556
 4838POPC   C3B62985  15.306  11.145   6.961
 4838POPC   C4B62986  15.254  11.061   7.350
 4839POPC   NC362987  38.457  22.989   5.485
 4839POPC   PO462988  38.445  23.596   5.719
 4839POPC   GL162989  38.502  23.188   5.958
 4839POPC   GL262990  38.804  22.959   5.872
 4839POPC   C1A62991  38.211  22.881   6.186
 4839POPC   D2A62992  38.026  22.718   6.577
 4839POPC   C3A62993  38.180  22.811   6.999
 4839POPC   C4A62994  38.176  23.053   7.387
 4839POPC   C1B62995  38.617  22.582   6.072
 4839POPC   C2B62996  38.536  22.617   6.515
 4839POPC   C3B62997  38.633  22.557   6.956
 4839POPC   C4B62998  38.643  22.876   7.305
 4840POPC   NC362999   1.746  38.863   5.528
 4840POPC   PO463000   2.237  39.303   5.231
 4840POPC   GL163001   2.086  39.380   5.736
 4840POPC   GL263002   1.738  39.336   5.888
 4840POPC   C1A63003   2.057  39.437   6.242
 4840POPC   D2A63004   1.817  39.420   6.649
 4840POPC   C3A63005   1.968  39.592   7.061
 4840POPC   C4A63006   1.764  39.635   7.494
 4840POPC   C1B63007   1.853  38.989   6.185
 4840POPC   C2B63008   2.077  38.977   6.584
 4840POPC   C3B63009   2.026  39.078   7.017
 4840POPC   C4B63010   1.924  38.868   7.396
 4841POPC   NC363011   0.810  33.984   5.439
 4841POPC   PO463012   0.269  33.741   5.433
 4841POPC   GL163013   0.563  33.643   5.761
 4841POPC   GL263014   0.547  33.937   5.892
 4841POPC   C1A63015   0.622  33.510   6.178
 4841POPC   D2A63016   0.549  33.772   6.531
 4841POPC   C3A63017   0.563  33.549   6.914
 4841POPC   C4A63018   0.477  33.412   7.322
 4841POPC   C1B63019   0.772  34.205   6.119
 4841POPC   C2B63020   0.769  34.248   6.549
 4841POPC   C3B63021   0.517  34.122   6.916
 4841POPC   C4B63022   0.574  33.912   7.284
 4842POPC   NC363023  29.293  13.608   5.278
 4842POPC   PO463024  28.657  13.705   5.228
 4842POPC   GL163025  28.901  13.692   5.665
 4842POPC   GL263026  29.228  13.556   5.798
 4842POPC   C1A63027  28.914  13.731   6.142
 4842POPC   D2A63028  29.132  13.830   6.545
 4842POPC   C3A63029  29.045  13.551   6.914
 4842POPC   C4A63030  29.148  13.627   7.344
 4842POPC   C1B63031  29.496  13.552   6.163
 4842POPC   C2B63032  29.467  13.466   6.600
 4842POPC   C3B63033  29.508  13.354   7.019
 4842POPC   C4B63034  29.691  13.478   7.415
 4843POPC   NC363035  25.582   8.422   5.479
 4843POPC   PO463036  25.684   7.675   5.655
 4843POPC   GL163037  25.416   8.031   5.781
 4843POPC   GL263038  25.073   8.005   5.766
 4843POPC   C1A63039  25.322   8.260   6.182
 4843POPC   D2A63040  25.379   7.974   6.540
 4843POPC   C3A63041  25.265   8.037   6.978
 4843POPC   C4A63042  25.308   8.315   7.334
 4843POPC   C1B63043  24.913   7.947   6.191
 4843POPC   C2B63044  24.832   8.051   6.640
 4843POPC   C3B63045  24.756   7.939   7.089
 4843POPC   C4B63046  24.981   7.951   7.454
 4844POPC   NC363047  22.258  17.840   5.113
 4844POPC   PO463048  22.217  18.432   5.451
 4844POPC   GL163049  22.062  18.442   5.889
 4844POPC   GL263050  22.047  18.130   5.961
 4844POPC   C1A63051  22.056  18.442   6.366
 4844POPC   D2A63052  22.241  18.129   6.637
 4844POPC   C3A63053  22.136  18.104   7.058
 4844POPC   C4A63054  22.300  18.242   7.418
 4844POPC   C1B63055  21.694  18.130   6.270
 4844POPC   C2B63056  21.737  18.235   6.714
 4844POPC   C3B63057  21.647  18.023   7.120
 4844POPC   C4B63058  21.854  18.018   7.523
 4845POPC   NC363059  31.648  27.847   5.411
 4845POPC   PO463060  31.244  27.307   5.548
 4845POPC   GL163061  31.490  27.531   5.811
 4845POPC   GL263062  31.702  27.311   5.948
 4845POPC   C1A63063  31.398  27.708   6.205
 4845POPC   D2A63064  31.251  27.882   6.612
 4845POPC   C3A63065  31.281  27.795   7.038
 4845POPC   C4A63066  31.573  27.588   7.304
 4845POPC   C1B63067  31.940  27.338   6.323
 4845POPC   C2B63068  31.922  27.278   6.766
 4845POPC   C3B63069  31.892  27.155   7.186
 4845POPC   C4B63070  31.909  27.372   7.595
 4846POPC   NC363071  36.262  18.532   5.532
 4846POPC   PO463072  35.791  18.157   5.442
 4846POPC   GL163073  35.942  18.249   5.847
 4846POPC   GL263074  36.246  18.150   5.900
 4846POPC   C1A63075  35.862  18.171   6.298
 4846POPC   D2A63076  36.021  18.302   6.710
 4846POPC   C3A63077  35.833  18.343   7.135
 4846POPC   C4A63078  35.736  18.288   7.585
 4846POPC   C1B63079  36.471  18.267   6.242
 4846POPC   C2B63080  36.477  18.093   6.634
 4846POPC   C3B63081  36.287  18.002   7.022
 4846POPC   C4B63082  36.211  18.144   7.421
 4847POPC   NC363083  44.492  36.941   5.595
 4847POPC   PO463084  44.985  36.571   5.269
 4847POPC   GL163085  44.885  36.612   5.745
 4847POPC   GL263086  44.953  36.970   5.795
 4847POPC   C1A63087  44.587  36.683   6.158
 4847POPC   D2A63088  44.627  36.839   6.572
 4847POPC   C3A63089  44.500  36.821   6.979
 4847POPC   C4A63090  44.694  36.638   7.309
 4847POPC   C1B63091  44.905  37.094   6.216
 4847POPC   C2B63092  44.888  37.248   6.648
 4847POPC   C3B63093  44.937  37.074   7.044
 4847POPC   C4B63094  44.678  37.195   7.379
 4848POPC   NC363095  36.082  19.465   5.844
 4848POPC   PO463096  36.335  18.992   5.514
 4848POPC   GL163097  36.270  18.908   5.907
 4848POPC   GL263098  35.945  18.761   5.876
 4848POPC   C1A63099  36.381  19.053   6.309
 4848POPC   D2A63100  36.354  19.338   6.658
 4848POPC   C3A63101  36.334  19.161   7.072
 4848POPC   C4A63102  36.137  19.167   7.490
 4848POPC   C1B63103  36.100  18.625   6.297
 4848POPC   C2B63104  36.183  18.796   6.733
 4848POPC   C3B63105  35.913  18.872   7.114
 4848POPC   C4B63106  35.588  18.754   7.416
 4849POPC   NC363107   7.701  18.389   5.492
 4849POPC   PO463108   7.196  18.072   5.408
 4849POPC   GL163109   7.278  18.254   5.829
 4849POPC   GL263110   7.550  18.456   5.961
 4849POPC   C1A63111   7.448  18.047   6.225
 4849POPC   D2A63112   7.320  17.838   6.615
 4849POPC   C3A63113   7.345  18.133   6.974
 4849POPC   C4A63114   7.340  18.129   7.412
 4849POPC   C1B63115   7.155  18.567   6.217
 4849POPC   C2B63116   7.136  18.729   6.651
 4849POPC   C3B63117   7.273  18.848   7.085
 4849POPC   C4B63118   7.496  18.625   7.452
 4850POPC   NC363119  16.905   7.550   5.447
 4850POPC   PO463120  16.494   7.059   5.646
 4850POPC   GL163121  16.808   7.270   5.889
 4850POPC   GL263122  16.769   7.631   5.928
 4850POPC   C1A63123  16.782   7.334   6.341
 4850POPC   D2A63124  16.455   7.321   6.679
 4850POPC   C3A63125  16.644   7.221   7.066
 4850POPC   C4A63126  16.890   7.353   7.420
 4850POPC   C1B63127  16.798   7.851   6.338
 4850POPC   C2B63128  16.858   7.648   6.744
 4850POPC   C3B63129  16.715   7.736   7.120
 4850POPC   C4B63130  16.426   8.043   7.187
 4851POPC   NC363131  39.735  29.621   5.019
 4851POPC   PO463132  39.348  30.103   5.262
 4851POPC   GL163133  39.334  29.831   5.642
 4851POPC   GL263134  39.469  30.118   5.775
 4851POPC   C1A63135  39.243  29.591   6.073
 4851POPC   D2A63136  39.008  29.701   6.486
 4851POPC   C3A63137  39.132  29.552   6.928
 4851POPC   C4A63138  39.280  29.747   7.328
 4851POPC   C1B63139  39.204  30.079   6.135
 4851POPC   C2B63140  39.215  30.204   6.543
 4851POPC   C3B63141  39.102  30.069   6.911
 4851POPC   C4B63142  39.351  30.242   7.258
 4852POPC   NC363143   8.606  27.375   5.459
 4852POPC   PO463144   8.182  26.794   5.346
 4852POPC   GL163145   8.408  26.865   5.703
 4852POPC   GL263146   8.478  26.557   5.831
 4852POPC   C1A63147   8.367  26.943   6.164
 4852POPC   D2A63148   8.035  26.823   6.463
 4852POPC   C3A63149   8.143  26.885   6.925
 4852POPC   C4A63150   8.397  27.093   7.224
 4852POPC   C1B63151   8.213  26.435   6.180
 4852POPC   C2B63152   8.311  26.445   6.637
 4852POPC   C3B63153   8.137  26.392   7.066
 4852POPC   C4B63154   7.931  26.239   7.435
 4853POPC   NC363155  29.759  21.595   5.286
 4853POPC   PO463156  30.228  21.326   5.376
 4853POPC   GL163157  29.968  21.464   5.759
 4853POPC   GL263158  29.658  21.667   5.792
 4853POPC   C1A63159  29.991  21.535   6.222
 4853POPC   D2A63160  29.951  21.239   6.565
 4853POPC   C3A63161  30.003  21.282   7.017
 4853POPC   C4A63162  29.895  21.009   7.352
 4853POPC   C1B63163  29.502  21.401   6.162
 4853POPC   C2B63164  29.463  21.394   6.624
 4853POPC   C3B63165  29.581  21.560   7.074
 4853POPC   C4B63166  29.437  21.761   7.475
 4854POPC   NC363167  17.742  20.080   5.399
 4854POPC   PO463168  17.134  19.804   5.416
 4854POPC   GL163169  17.429  19.863   5.778
 4854POPC   GL263170  17.740  19.693   5.823
 4854POPC   C1A63171  17.564  20.027   6.186
 4854POPC   D2A63172  17.563  20.237   6.590
 4854POPC   C3A63173  17.791  20.082   6.929
 4854POPC   C4A63174  17.563  19.908   7.258
 4854POPC   C1B63175  17.607  19.518   6.257
 4854POPC   C2B63176  17.714  19.627   6.695
 4854POPC   C3B63177  17.921  19.583   7.100
 4854POPC   C4B63178  17.838  19.370   7.498
 4855POPC   NC363179   4.754  11.326   5.149
 4855POPC   PO463180   5.375  11.239   5.424
 4855POPC   GL163181   5.068  11.333   5.781
 4855POPC   GL263182   4.849  11.067   5.743
 4855POPC   C1A63183   4.879  11.476   6.214
 4855POPC   D2A63184   4.842  11.600   6.677
 4855POPC   C3A63185   5.196  11.456   6.926
 4855POPC   C4A63186   5.365  11.635   7.286
 4855POPC   C1B63187   4.999  10.943   6.161
 4855POPC   C2B63188   5.044  10.771   6.582
 4855POPC   C3B63189   5.272  10.882   6.960
 4855POPC   C4B63190   5.063  11.090   7.315
 4856POPC   NC363191  26.497  30.970   5.532
 4856POPC   PO463192  27.021  30.579   5.424
 4856POPC   GL163193  26.855  30.718   5.796
 4856POPC   GL263194  26.547  30.529   5.852
 4856POPC   C1A63195  26.866  30.648   6.230
 4856POPC   D2A63196  27.015  30.435   6.559
 4856POPC   C3A63197  27.067  30.714   6.868
 4856POPC   C4A63198  26.976  30.627   7.277
 4856POPC   C1B63199  26.332  30.690   6.185
 4856POPC   C2B63200  26.323  30.495   6.577
 4856POPC   C3B63201  26.570  30.503   6.929
 4856POPC   C4B63202  26.462  30.726   7.291
 4857POPC   NC363203  25.832   0.588   5.436
 4857POPC   PO463204  26.454   0.289   5.419
 4857POPC   GL163205  26.279   0.610   5.681
 4857POPC   GL263206  26.103   0.329   5.817
 4857POPC   C1A63207  26.085   0.698   6.110
 4857POPC   D2A63208  26.257   0.392   6.385
 4857POPC   C3A63209  26.171   0.374   6.842
 4857POPC   C4A63210  26.343   0.446   7.277
 4857POPC   C1B63211  25.884   0.098   6.203
 4857POPC   C2B63212  25.703   0.149   6.651
 4857POPC   C3B63213  25.845   0.032   7.076
 4857POPC   C4B63214  25.907   0.242   7.475
 4858POPC   NC363215   7.478  41.722   5.328
 4858POPC   PO463216   7.491  41.102   5.584
 4858POPC   GL163217   7.356  41.523   5.779
 4858POPC   GL263218   7.566  41.867   5.816
 4858POPC   C1A63219   7.236  41.772   6.176
 4858POPC   D2A63220   7.293  41.835   6.614
 4858POPC   C3A63221   7.352  41.462   6.815
 4858POPC   C4A63222   7.382  41.385   7.241
 4858POPC   C1B63223   7.703  41.573   6.143
 4858POPC   C2B63224   7.824  41.569   6.555
 4858POPC   C3B63225   7.854  41.376   6.972
 4858POPC   C4B63226   7.746  41.735   7.208
 4859POPC   NC363227  11.740  24.725   5.430
 4859POPC   PO463228  12.349  24.338   5.499
 4859POPC   GL163229  12.144  24.499   5.887
 4859POPC   GL263230  11.760  24.455   5.894
 4859POPC   C1A63231  12.180  24.383   6.331
 4859POPC   D2A63232  11.993  24.502   6.732
 4859POPC   C3A63233  12.294  24.591   7.063
 4859POPC   C4A63234  12.524  24.302   7.330
 4859POPC   C1B63235  11.742  24.637   6.280
 4859POPC   C2B63236  11.481  24.636   6.617
 4859POPC   C3B63237  11.590  24.513   7.050
 4859POPC   C4B63238  11.876  24.821   7.231
 4860POPC   NC363239  27.086  36.957   5.432
 4860POPC   PO463240  26.404  36.939   5.488
 4860POPC   GL163241  26.702  36.719   5.735
 4860POPC   GL263242  26.893  36.997   5.893
 4860POPC   C1A63243  26.779  36.546   6.166
 4860POPC   D2A63244  26.645  36.465   6.619
 4860POPC   C3A63245  26.666  36.769   6.971
 4860POPC   C4A63246  26.855  36.922   7.358
 4860POPC   C1B63247  27.210  36.825   6.164
 4860POPC   C2B63248  27.123  36.650   6.578
 4860POPC   C3B63249  27.179  36.907   6.969
 4860POPC   C4B63250  26.995  37.322   7.091
 4861POPC   NC363251  42.895   0.918   5.620
 4861POPC   PO463252  43.300   0.549   5.159
 4861POPC   GL163253  43.334   0.587   5.660
 4861POPC   GL263254  43.063   0.381   5.829
 4861POPC   C1A63255  43.395   0.522   6.158
 4861POPC   D2A63256  43.197   0.265   6.506
 4861POPC   C3A63257  43.192   0.443   6.962
 4861POPC   C4A63258  43.315   0.373   7.405
 4861POPC   C1B63259  42.786   0.249   6.143
 4861POPC   C2B63260  42.711   0.399   6.549
 4861POPC   C3B63261  42.794   0.116   6.873
 4861POPC   C4B63262  43.006   0.011   7.262
 4862POPC   NC363263   0.430  13.519   5.370
 4862POPC   PO463264   0.510  12.895   5.521
 4862POPC   GL163265   0.521  13.255   5.847
 4862POPC   GL263266   0.469  13.630   5.861
 4862POPC   C1A63267   0.778  13.372   6.245
 4862POPC   D2A63268   0.845  13.265   6.716
 4862POPC   C3A63269   0.632  13.550   7.043
 4862POPC   C4A63270   0.723  13.986   7.198
 4862POPC   C1B63271   0.268  13.477   6.236
 4862POPC   C2B63272   0.319  13.371   6.673
 4862POPC   C3B63273   0.110  13.446   7.077
 4862POPC   C4B63274  44.838  13.422   7.456
 4863POPC   NC363275  38.235  43.565   5.054
 4863POPC   PO463276  38.598  43.995   5.465
 4863POPC   GL163277  38.527  43.934   5.846
 4863POPC   GL263278  38.450  43.594   5.787
 4863POPC   C1A63279  38.640  44.089   6.228
 4863POPC   D2A63280  38.507  44.167   6.617
 4863POPC   C3A63281  38.760  44.018   6.930
 4863POPC   C4A63282  38.522  43.973   7.270
 4863POPC   C1B63283  38.690  43.582   6.179
 4863POPC   C2B63284  38.600  43.649   6.605
 4863POPC   C3B63285  38.269  43.716   6.916
 4863POPC   C4B63286  38.214  43.580   7.370
 4864POPC   NC363287  27.457  20.707   5.361
 4864POPC   PO463288  27.763  20.219   5.577
 4864POPC   GL163289  27.464  20.399   5.836
 4864POPC   GL263290  27.653  20.302   6.121
 4864POPC   C1A63291  27.359  20.673   6.218
 4864POPC   D2A63292  27.606  20.594   6.619
 4864POPC   C3A63293  27.435  20.806   6.964
 4864POPC   C4A63294  27.468  20.502   7.239
 4864POPC   C1B63295  27.875  20.725   6.215
 4864POPC   C2B63296  28.134  20.849   6.568
 4864POPC   C3B63297  28.127  20.810   7.020
 4864POPC   C4B63298  27.846  20.827   7.348
 4865POPC   NC363299  28.425   0.101   5.412
 4865POPC   PO463300  28.856  44.531   5.506
 4865POPC   GL163301  28.470  44.729   5.747
 4865POPC   GL263302  28.166  44.509   5.826
 4865POPC   C1A63303  28.280  44.931   6.132
 4865POPC   D2A63304  28.072  44.944   6.551
 4865POPC   C3A63305  28.288  44.715   6.882
 4865POPC   C4A63306  28.409  44.634   7.293
 4865POPC   C1B63307  28.466  44.437   6.144
 4865POPC   C2B63308  28.640  44.453   6.553
 4865POPC   C3B63309  28.591  44.280   6.955
 4865POPC   C4B63310  28.350  44.133   7.290
 4866POPC   NC363311  17.006  26.255   5.364
 4866POPC   PO463312  16.303  26.315   5.417
 4866POPC   GL163313  16.500  26.001   5.745
 4866POPC   GL263314  16.868  25.947   5.752
 4866POPC   C1A63315  16.632  26.068   6.193
 4866POPC   D2A63316  16.425  25.926   6.572
 4866POPC   C3A63317  16.490  26.184   6.894
 4866POPC   C4A63318  16.637  25.988   7.213
 4866POPC   C1B63319  17.037  25.709   6.126
 4866POPC   C2B63320  16.913  25.764   6.553
 4866POPC   C3B63321  16.958  25.642   6.991
 4866POPC   C4B63322  17.125  25.898   7.333
 4867POPC   NC363323   0.643  11.670   5.441
 4867POPC   PO463324   0.112  11.229   5.415
 4867POPC   GL163325   0.431  11.164   5.760
 4867POPC   GL263326   0.595  11.462   5.910
 4867POPC   C1A63327   0.513  11.026   6.197
 4867POPC   D2A63328   0.507  11.237   6.600
 4867POPC   C3A63329   0.480  11.042   7.009
 4867POPC   C4A63330   0.703  11.280   7.309
 4867POPC   C1B63331   0.359  11.699   6.221
 4867POPC   C2B63332   0.211  11.653   6.656
 4867POPC   C3B63333   0.295  11.528   7.074
 4867POPC   C4B63334   0.016  11.680   7.366
 4868POPC   NC363335  11.141  20.939   5.494
 4868POPC   PO463336  11.596  20.403   5.490
 4868POPC   GL163337  11.357  20.486   5.914
 4868POPC   GL263338  11.007  20.674   5.912
 4868POPC   C1A63339  11.409  20.379   6.374
 4868POPC   D2A63340  11.553  20.672   6.718
 4868POPC   C3A63341  11.386  20.645   7.123
 4868POPC   C4A63342  11.237  20.248   7.193
 4868POPC   C1B63343  11.096  20.763   6.360
 4868POPC   C2B63344  11.056  20.493   6.750
 4868POPC   C3B63345  10.853  20.603   7.128
 4868POPC   C4B63346  11.005  20.956   7.287
 4869POPC   NC363347  25.608   9.856   4.964
 4869POPC   PO463348  25.031   9.718   5.271
 4869POPC   GL163349  25.095   9.728   5.810
 4869POPC   GL263350  25.373   9.921   5.978
 4869POPC   C1A63351  25.196   9.469   6.179
 4869POPC   D2A63352  25.370   9.635   6.559
 4869POPC   C3A63353  25.193   9.525   6.945
 4869POPC   C4A63354  25.324   9.623   7.409
 4869POPC   C1B63355  25.293  10.180   6.323
 4869POPC   C2B63356  25.078  10.070   6.697
 4869POPC   C3B63357  25.309  10.003   7.051
 4869POPC   C4B63358  25.156  10.122   7.416
 4870POPC   NC363359  34.477  26.802   5.490
 4870POPC   PO463360  34.358  27.363   5.650
 4870POPC   GL163361  34.647  27.060   5.898
 4870POPC   GL263362  34.848  26.694   5.863
 4870POPC   C1A63363  34.599  26.857   6.292
 4870POPC   D2A63364  34.849  26.824   6.655
 4870POPC   C3A63365  34.603  26.954   7.024
 4870POPC   C4A63366  34.179  26.778   7.048
 4870POPC   C1B63367  34.920  26.456   6.217
 4870POPC   C2B63368  34.624  26.370   6.499
 4870POPC   C3B63369  34.610  26.456   6.916
 4870POPC   C4B63370  34.413  26.372   7.245
 4871POPC   NC363371   8.589  31.571   5.519
 4871POPC   PO463372   8.006  31.302   5.448
 4871POPC   GL163373   8.086  31.606   5.806
 4871POPC   GL263374   8.374  31.479   5.960
 4871POPC   C1A63375   8.117  31.741   6.292
 4871POPC   D2A63376   7.993  31.559   6.721
 4871POPC   C3A63377   8.323  31.408   7.017
 4871POPC   C4A63378   8.330  31.536   7.472
 4871POPC   C1B63379   8.071  31.212   6.177
 4871POPC   C2B63380   8.056  31.054   6.606
 4871POPC   C3B63381   7.844  31.033   6.973
 4871POPC   C4B63382   8.013  31.178   7.344
 4872POPC   NC363383   4.544  14.439   5.606
 4872POPC   PO463384   4.048  14.142   5.335
 4872POPC   GL163385   4.102  14.078   5.762
 4872POPC   GL263386   4.443  13.997   5.849
 4872POPC   C1A63387   4.016  14.338   6.136
 4872POPC   D2A63388   4.137  14.562   6.540
 4872POPC   C3A63389   3.995  14.372   6.932
 4872POPC   C4A63390   4.128  14.437   7.358
 4872POPC   C1B63391   4.449  14.100   6.305
 4872POPC   C2B63392   4.421  14.162   6.755
 4872POPC   C3B63393   4.545  14.511   7.055
 4872POPC   C4B63394   4.592  14.479   7.551
 4873POPC   NC363395  11.235  28.529   5.403
 4873POPC   PO463396  11.371  27.966   5.271
 4873POPC   GL163397  11.340  28.115   5.755
 4873POPC   GL263398  11.372  28.475   5.875
 4873POPC   C1A63399  11.453  28.150   6.256
 4873POPC   D2A63400  11.500  28.006   6.730
 4873POPC   C3A63401  11.327  28.210   7.088
 4873POPC   C4A63402  10.898  28.152   7.211
 4873POPC   C1B63403  11.628  28.634   6.197
 4873POPC   C2B63404  11.610  28.513   6.615
 4873POPC   C3B63405  11.453  28.705   6.978
 4873POPC   C4B63406  11.584  28.912   7.367
 4874POPC   NC363407  10.207   2.613   5.189
 4874POPC   PO463408   9.720   2.574   5.647
 4874POPC   GL163409   9.835   2.746   6.021
 4874POPC   GL263410   9.909   3.073   5.877
 4874POPC   C1A63411  10.008   2.593   6.433
 4874POPC   D2A63412  10.263   2.523   6.832
 4874POPC   C3A63413   9.986   2.600   7.187
 4874POPC   C4A63414   9.515   2.566   7.154
 4874POPC   C1B63415   9.723   3.140   6.305
 4874POPC   C2B63416   9.439   2.962   6.606
 4874POPC   C3B63417   9.423   3.040   7.027
 4874POPC   C4B63418   9.822   3.094   7.186
 4875POPC   NC363419   3.788  41.374   5.491
 4875POPC   PO463420   3.457  41.983   5.401
 4875POPC   GL163421   3.359  41.784   5.837
 4875POPC   GL263422   3.469  41.429   5.889
 4875POPC   C1A63423   3.331  41.662   6.296
 4875POPC   D2A63424   3.612  41.711   6.638
 4875POPC   C3A63425   3.367  41.683   6.995
 4875POPC   C4A63426   3.336  41.897   7.343
 4875POPC   C1B63427   3.821  41.551   6.175
 4875POPC   C2B63428   3.983  41.360   6.576
 4875POPC   C3B63429   3.716  41.268   6.945
 4875POPC   C4B63430   3.580  41.373   7.360
 4876POPC   NC363431   8.525  26.383   5.360
 4876POPC   PO463432   7.986  25.843   5.413
 4876POPC   GL163433   8.096  26.028   5.808
 4876POPC   GL263434   8.453  26.040   5.751
 4876POPC   C1A63435   8.051  25.934   6.273
 4876POPC   D2A63436   7.950  26.073   6.700
 4876POPC   C3A63437   8.130  25.880   7.090
 4876POPC   C4A63438   7.991  25.738   7.505
 4876POPC   C1B63439   8.579  26.082   6.186
 4876POPC   C2B63440   8.487  25.979   6.633
 4876POPC   C3B63441   8.600  26.116   7.051
 4876POPC   C4B63442   8.688  25.738   7.269
 4877POPC   NC363443  11.990  23.164   5.416
 4877POPC   PO463444  11.780  22.546   5.546
 4877POPC   GL163445  11.947  22.844   5.843
 4877POPC   GL263446  12.214  23.126   5.875
 4877POPC   C1A63447  12.069  22.801   6.261
 4877POPC   D2A63448  12.181  23.023   6.626
 4877POPC   C3A63449  12.013  22.793   6.964
 4877POPC   C4A63450  11.621  22.685   7.117
 4877POPC   C1B63451  12.330  23.358   6.263
 4877POPC   C2B63452  12.341  23.534   6.700
 4877POPC   C3B63453  12.206  23.287   7.063
 4877POPC   C4B63454  11.846  23.175   7.309
 4878POPC   NC363455   0.252  39.271   5.366
 4878POPC   PO463456   0.846  39.316   5.397
 4878POPC   GL163457   0.669  39.303   5.811
 4878POPC   GL263458   0.298  39.233   5.861
 4878POPC   C1A63459   0.576  39.414   6.244
 4878POPC   D2A63460   0.619  39.224   6.640
 4878POPC   C3A63461   0.729  39.349   7.069
 4878POPC   C4A63462   0.912  39.173   7.446
 4878POPC   C1B63463   0.019  39.347   6.188
 4878POPC   C2B63464  44.894  39.414   6.590
 4878POPC   C3B63465   0.182  39.284   6.878
 4878POPC   C4B63466   0.267  39.216   7.257
 4879POPC   NC363467  38.911   1.738   5.379
 4879POPC   PO463468  39.432   2.206   5.391
 4879POPC   GL163469  39.150   2.161   5.742
 4879POPC   GL263470  39.152   1.804   5.867
 4879POPC   C1A63471  38.966   2.165   6.175
 4879POPC   D2A63472  39.008   1.901   6.562
 4879POPC   C3A63473  38.942   2.070   6.995
 4879POPC   C4A63474  39.112   1.931   7.387
 4879POPC   C1B63475  39.468   1.592   6.155
 4879POPC   C2B63476  39.374   1.512   6.585
 4879POPC   C3B63477  39.303   1.689   6.977
 4879POPC   C4B63478  39.525   1.606   7.362
 4880POPC   NC363479  20.894  18.235   5.561
 4880POPC   PO463480  20.227  18.271   5.501
 4880POPC   GL163481  20.423  18.520   5.846
 4880POPC   GL263482  20.800  18.493   5.976
 4880POPC   C1A63483  20.442  18.626   6.280
 4880POPC   D2A63484  20.637  18.513   6.650
 4880POPC   C3A63485  20.373  18.274   6.871
 4880POPC   C4A63486  20.313  18.341   7.287
 4880POPC   C1B63487  20.673  18.148   6.283
 4880POPC   C2B63488  20.823  18.036   6.725
 4880POPC   C3B63489  20.822  18.291   7.102
 4880POPC   C4B63490  20.749  18.230   7.533
 4881POPC   NC363491   4.440  31.086   5.375
 4881POPC   PO463492   4.594  31.704   5.499
 4881POPC   GL163493   4.320  31.464   5.733
 4881POPC   GL263494   4.008  31.628   5.797
 4881POPC   C1A63495   4.456  31.256   6.099
 4881POPC   D2A63496   4.630  31.422   6.467
 4881POPC   C3A63497   4.544  31.228   6.858
 4881POPC   C4A63498   4.409  31.525   7.120
 4881POPC   C1B63499   3.950  31.358   6.166
 4881POPC   C2B63500   4.118  31.300   6.547
 4881POPC   C3B63501   3.957  31.457   6.914
 4881POPC   C4B63502   3.975  31.212   7.257
 4882POPC   NC363503   6.327  11.818   5.413
 4882POPC   PO463504   6.917  12.220   5.469
 4882POPC   GL163505   6.723  12.166   5.842
 4882POPC   GL263506   6.614  11.835   5.825
 4882POPC   C1A63507   6.619  12.366   6.242
 4882POPC   D2A63508   6.525  12.180   6.641
 4882POPC   C3A63509   6.668  12.338   7.018
 4882POPC   C4A63510   6.627  12.177   7.437
 4882POPC   C1B63511   6.740  11.673   6.200
 4882POPC   C2B63512   6.623  11.641   6.608
 4882POPC   C3B63513   6.695  11.815   6.997
 4882POPC   C4B63514   6.490  11.685   7.383
 4883POPC   NC363515  41.955  20.332   5.356
 4883POPC   PO463516  41.596  19.838   5.366
 4883POPC   GL163517  41.492  20.029   5.788
 4883POPC   GL263518  41.106  19.982   5.839
 4883POPC   C1A63519  41.629  19.891   6.219
 4883POPC   D2A63520  41.902  19.766   6.578
 4883POPC   C3A63521  41.788  19.874   7.023
 4883POPC   C4A63522  41.510  20.026   7.330
 4883POPC   C1B63523  41.259  19.585   5.994
 4883POPC   C2B63524  41.382  19.441   6.401
 4883POPC   C3B63525  41.215  19.472   6.800
 4883POPC   C4B63526  41.394  19.553   7.175
 4884POPC   NC363527   1.494  38.117   5.513
 4884POPC   PO463528   1.125  37.640   5.329
 4884POPC   GL163529   1.301  37.681   5.766
 4884POPC   GL263530   1.344  37.931   5.969
 4884POPC   C1A63531   1.404  37.449   6.160
 4884POPC   D2A63532   1.202  37.277   6.534
 4884POPC   C3A63533   1.261  37.454   6.961
 4884POPC   C4A63534   1.271  37.857   7.181
 4884POPC   C1B63535   1.045  38.016   6.306
 4884POPC   C2B63536   1.057  37.963   6.718
 4884POPC   C3B63537   0.877  38.187   7.040
 4884POPC   C4B63538   0.775  38.053   7.434
 4885POPC   NC363539  23.489  30.207   5.400
 4885POPC   PO463540  24.070  29.906   5.526
 4885POPC   GL163541  23.816  29.997   5.887
 4885POPC   GL263542  23.506  30.144   5.895
 4885POPC   C1A63543  23.900  29.971   6.343
 4885POPC   D2A63544  23.852  30.192   6.743
 4885POPC   C3A63545  23.840  29.885   7.102
 4885POPC   C4A63546  23.904  29.968   7.553
 4885POPC   C1B63547  23.392  29.962   6.241
 4885POPC   C2B63548  23.385  29.726   6.597
 4885POPC   C3B63549  23.282  29.769   6.989
 4885POPC   C4B63550  23.401  30.095   7.219
 4886POPC   NC363551  15.496  27.152   5.477
 4886POPC   PO463552  16.148  27.176   5.247
 4886POPC   GL163553  16.024  26.949   5.652
 4886POPC   GL263554  15.750  26.728   5.712
 4886POPC   C1A63555  16.013  26.917   6.139
 4886POPC   D2A63556  15.982  27.151   6.549
 4886POPC   C3A63557  16.162  27.220   6.993
 4886POPC   C4A63558  16.048  27.149   7.424
 4886POPC   C1B63559  15.567  26.648   6.138
 4886POPC   C2B63560  15.763  26.662   6.543
 4886POPC   C3B63561  15.825  26.832   6.953
 4886POPC   C4B63562  15.805  26.573   7.320
 4887POPC   NC363563  30.155  38.562   5.071
 4887POPC   PO463564  30.663  38.203   5.354
 4887POPC   GL163565  30.639  38.434   5.800
 4887POPC   GL263566  30.710  38.771   5.714
 4887POPC   C1A63567  30.758  38.367   6.230
 4887POPC   D2A63568  30.498  38.282   6.607
 4887POPC   C3A63569  30.648  38.400   7.004
 4887POPC   C4A63570  31.028  38.308   7.206
 4887POPC   C1B63571  30.764  38.890   6.134
 4887POPC   C2B63572  30.754  38.775   6.580
 4887POPC   C3B63573  30.638  38.903   6.989
 4887POPC   C4B63574  30.680  38.770   7.400
 4888POPC   NC363575  36.354  16.137   5.398
 4888POPC   PO463576  35.916  15.708   5.341
 4888POPC   GL163577  36.220  15.730   5.709
 4888POPC   GL263578  36.277  16.074   5.890
 4888POPC   C1A63579  36.207  15.660   6.179
 4888POPC   D2A63580  36.242  15.873   6.592
 4888POPC   C3A63581  35.930  15.752   6.869
 4888POPC   C4A63582  35.971  15.465   7.188
 4888POPC   C1B63583  36.040  16.207   6.253
 4888POPC   C2B63584  35.835  16.247   6.650
 4888POPC   C3B63585  36.029  16.225   7.037
 4888POPC   C4B63586  36.247  15.890   7.254
 4889POPC   NC363587  37.619  38.649   5.220
 4889POPC   PO463588  37.538  37.976   5.467
 4889POPC   GL163589  37.764  38.348   5.698
 4889POPC   GL263590  37.576  38.652   5.760
 4889POPC   C1A63591  38.007  38.568   6.058
 4889POPC   D2A63592  37.906  38.533   6.507
 4889POPC   C3A63593  37.837  38.551   6.971
 4889POPC   C4A63594  37.883  38.255   7.336
 4889POPC   C1B63595  37.525  38.405   6.166
 4889POPC   C2B63596  37.398  38.440   6.619
 4889POPC   C3B63597  37.447  38.260   7.061
 4889POPC   C4B63598  37.319  38.168   7.494
 4890POPC   NC363599  37.809  40.711   5.370
 4890POPC   PO463600  37.164  40.650   5.470
 4890POPC   GL163601  37.401  40.889   5.794
 4890POPC   GL263602  37.780  40.947   5.832
 4890POPC   C1A63603  37.423  40.914   6.233
 4890POPC   D2A63604  37.545  40.683   6.599
 4890POPC   C3A63605  37.527  40.848   7.012
 4890POPC   C4A63606  37.729  40.543   7.272
 4890POPC   C1B63607  37.903  40.710   6.209
 4890POPC   C2B63608  38.130  40.776   6.601
 4890POPC   C3B63609  38.026  40.980   6.998
 4890POPC   C4B63610  38.196  40.749   7.314
 4891POPC   NC363611  10.162  27.635   5.327
 4891POPC   PO463612   9.738  27.175   5.479
 4891POPC   GL163613   9.866  27.299   5.855
 4891POPC   GL263614   9.980  27.664   5.897
 4891POPC   C1A63615   9.698  27.358   6.255
 4891POPC   D2A63616   9.945  27.560   6.526
 4891POPC   C3A63617   9.789  27.391   6.867
 4891POPC   C4A63618   9.747  27.343   7.306
 4891POPC   C1B63619   9.650  27.859   6.191
 4891POPC   C2B63620   9.458  27.733   6.595
 4891POPC   C3B63621   9.539  27.770   7.059
 4891POPC   C4B63622   9.836  27.838   7.383
 4892POPC   NC363623  19.727  26.917   5.525
 4892POPC   PO463624  19.941  26.281   5.410
 4892POPC   GL163625  19.839  26.458   5.784
 4892POPC   GL263626  20.154  26.654   5.760
 4892POPC   C1A63627  19.722  26.671   6.175
 4892POPC   D2A63628  19.656  26.841   6.601
 4892POPC   C3A63629  19.984  27.052   6.854
 4892POPC   C4A63630  19.813  26.989   7.245
 4892POPC   C1B63631  20.240  26.523   6.176
 4892POPC   C2B63632  20.052  26.459   6.568
 4892POPC   C3B63633  20.008  26.556   6.976
 4892POPC   C4B63634  19.953  26.523   7.419
 4893POPC   NC363635  43.508  36.807   5.472
 4893POPC   PO463636  44.155  36.875   5.281
 4893POPC   GL163637  43.979  37.068   5.684
 4893POPC   GL263638  44.207  37.326   5.812
 4893POPC   C1A63639  43.920  36.986   6.152
 4893POPC   D2A63640  43.670  36.827   6.517
 4893POPC   C3A63641  43.685  36.699   6.976
 4893POPC   C4A63642  43.693  36.888   7.409
 4893POPC   C1B63643  44.382  37.202   6.245
 4893POPC   C2B63644  44.162  37.055   6.634
 4893POPC   C3B63645  44.058  37.055   7.078
 4893POPC   C4B63646  44.171  37.199   7.538
 4894POPC   NC363647  32.412   7.532   5.411
 4894POPC   PO463648  31.860   7.443   5.446
 4894POPC   GL163649  32.100   7.477   5.857
 4894POPC   GL263650  31.933   7.730   6.027
 4894POPC   C1A63651  32.386   7.439   6.270
 4894POPC   D2A63652  32.403   7.106   6.621
 4894POPC   C3A63653  32.235   7.071   7.058
 4894POPC   C4A63654  31.937   7.329   7.302
 4894POPC   C1B63655  31.891   7.435   6.374
 4894POPC   C2B63656  32.013   7.453   6.802
 4894POPC   C3B63657  32.051   7.791   7.100
 4894POPC   C4B63658  31.881   8.158   7.378
 4895POPC   NC363659   1.022   2.842   5.184
 4895POPC   PO463660   0.290   2.805   5.320
 4895POPC   GL163661   0.532   2.772   5.692
 4895POPC   GL263662   0.656   3.075   5.867
 4895POPC   C1A63663   0.551   2.659   6.126
 4895POPC   D2A63664   0.423   2.546   6.528
 4895POPC   C3A63665   0.371   2.857   6.855
 4895POPC   C4A63666   0.487   2.788   7.225
 4895POPC   C1B63667   0.320   3.134   6.147
 4895POPC   C2B63668   0.236   3.282   6.546
 4895POPC   C3B63669  44.997   3.211   6.907
 4895POPC   C4B63670   0.004   2.986   7.244
 4896POPC   NC363671  30.793  25.153   5.414
 4896POPC   PO463672  30.181  25.491   5.424
 4896POPC   GL163673  30.514  25.554   5.799
 4896POPC   GL263674  30.787  25.302   5.873
 4896POPC   C1A63675  30.719  25.602   6.240
 4896POPC   D2A63676  31.072  25.503   6.503
 4896POPC   C3A63677  31.015  25.402   6.931
 4896POPC   C4A63678  30.852  25.505   7.327
 4896POPC   C1B63679  30.932  25.096   6.236
 4896POPC   C2B63680  31.137  24.979   6.638
 4896POPC   C3B63681  30.991  24.921   7.112
 4896POPC   C4B63682  31.164  25.121   7.480
 4897POPC   NC363683  31.647  34.411   5.124
 4897POPC   PO463684  32.265  34.699   5.391
 4897POPC   GL163685  32.372  34.647   5.830
 4897POPC   GL263686  32.024  34.566   5.858
 4897POPC   C1A63687  32.314  34.380   6.228
 4897POPC   D2A63688  32.219  34.557   6.623
 4897POPC   C3A63689  32.134  34.321   6.941
 4897POPC   C4A63690  32.258  34.450   7.318
 4897POPC   C1B63691  32.021  34.834   6.235
 4897POPC   C2B63692  31.856  34.923   6.657
 4897POPC   C3B63693  31.981  34.836   7.083
 4897POPC   C4B63694  31.932  34.777   7.532
 4898POPC   NC363695  36.695  17.632   5.506
 4898POPC   PO463696  37.342  17.534   5.528
 4898POPC   GL163697  37.169  17.256   5.794
 4898POPC   GL263698  36.972  17.537   5.964
 4898POPC   C1A63699  36.877  17.036   6.057
 4898POPC   D2A63700  36.983  17.025   6.479
 4898POPC   C3A63701  36.911  17.292   6.814
 4898POPC   C4A63702  36.810  17.197   7.248
 4898POPC   C1B63703  36.702  17.442   6.331
 4898POPC   C2B63704  36.474  17.569   6.684
 4898POPC   C3B63705  36.681  17.693   7.031
 4898POPC   C4B63706  37.078  17.692   7.115
 4899POPC   NC363707  17.805   8.314   5.423
 4899POPC   PO463708  17.256   7.904   5.442
 4899POPC   GL163709  17.528   7.978   5.794
 4899POPC   GL263710  17.522   8.326   5.829
 4899POPC   C1A63711  17.576   8.000   6.255
 4899POPC   D2A63712  17.273   7.922   6.586
 4899POPC   C3A63713  17.321   8.159   6.947
 4899POPC   C4A63714  17.506   7.977   7.224
 4899POPC   C1B63715  17.495   8.533   6.206
 4899POPC   C2B63716  17.585   8.426   6.605
 4899POPC   C3B63717  17.833   8.198   6.890
 4899POPC   C4B63718  17.885   8.295   7.325
 4900POPC   NC363719  40.238  26.218   5.462
 4900POPC   PO463720  39.906  25.620   5.501
 4900POPC   GL163721  39.944  25.884   5.883
 4900POPC   GL263722  40.048  26.236   5.934
 4900POPC   C1A63723  40.009  25.920   6.346
 4900POPC   D2A63724  39.979  26.185   6.707
 4900POPC   C3A63725  39.907  25.898   7.028
 4900POPC   C4A63726  40.263  25.702   7.118
 4900POPC   C1B63727  39.672  26.296   6.192
 4900POPC   C2B63728  39.578  26.480   6.595
 4900POPC   C3B63729  39.595  26.304   7.026
 4900POPC   C4B63730  39.659  26.133   7.451
 4901POPC   NC363731  18.954  31.166   5.286
 4901POPC   PO463732  19.350  30.707   5.541
 4901POPC   GL163733  19.036  30.598   5.828
 4901POPC   GL263734  18.869  30.930   5.741
 4901POPC   C1A63735  19.172  30.333   6.192
 4901POPC   D2A63736  19.176  30.566   6.593
 4901POPC   C3A63737  19.243  30.425   7.026
 4901POPC   C4A63738  19.187  30.636   7.433
 4901POPC   C1B63739  18.684  31.057   6.121
 4901POPC   C2B63740  18.901  31.010   6.500
 4901POPC   C3B63741  18.922  30.859   6.919
 4901POPC   C4B63742  18.887  31.019   7.300
 4902POPC   NC363743  40.210  21.790   5.369
 4902POPC   PO463744  39.628  21.993   5.429
 4902POPC   GL163745  39.922  21.973   5.770
 4902POPC   GL263746  39.763  21.820   6.046
 4902POPC   C1A63747  40.041  22.261   6.126
 4902POPC   D2A63748  40.205  22.209   6.553
 4902POPC   C3A63749  40.076  22.358   6.957
 4902POPC   C4A63750  40.245  22.204   7.353
 4902POPC   C1B63751  39.648  22.039   6.354
 4902POPC   C2B63752  39.727  22.013   6.759
 4902POPC   C3B63753  39.588  21.929   7.131
 4902POPC   C4B63754  39.549  21.543   7.248
 4903POPC   NC363755  26.609  38.408   5.266
 4903POPC   PO463756  27.064  38.163   5.488
 4903POPC   GL163757  27.030  38.447   5.862
 4903POPC   GL263758  26.755  38.676   5.792
 4903POPC   C1A63759  26.949  38.464   6.333
 4903POPC   D2A63760  26.673  38.509   6.720
 4903POPC   C3A63761  26.764  38.332   7.146
 4903POPC   C4A63762  26.923  38.111   7.521
 4903POPC   C1B63763  26.638  38.849   6.224
 4903POPC   C2B63764  26.635  39.018   6.658
 4903POPC   C3B63765  26.758  38.883   7.085
 4903POPC   C4B63766  26.664  38.761   7.522
 4904POPC   NC363767  36.702  12.390   5.642
 4904POPC   PO463768  36.771  12.958   5.210
 4904POPC   GL163769  36.886  12.960   5.669
 4904POPC   GL263770  36.564  12.953   5.791
 4904POPC   C1A63771  36.931  13.109   6.147
 4904POPC   D2A63772  36.733  13.299   6.551
 4904POPC   C3A63773  36.838  13.067   6.973
 4904POPC   C4A63774  37.155  12.847   7.282
 4904POPC   C1B63775  36.568  12.724   6.184
 4904POPC   C2B63776  36.771  12.762   6.561
 4904POPC   C3B63777  36.917  12.562   6.927
 4904POPC   C4B63778  36.701  12.604   7.322
 4905POPC   NC363779  44.804   2.739   5.363
 4905POPC   PO463780  44.138   2.721   5.544
 4905POPC   GL163781  44.426   2.624   5.810
 4905POPC   GL263782  44.537   2.957   5.805
 4905POPC   C1A63783  44.370   2.712   6.233
 4905POPC   D2A63784  44.547   3.027   6.464
 4905POPC   C3A63785  44.581   2.884   6.892
 4905POPC   C4A63786  44.374   2.586   7.163
 4905POPC   C1B63787  44.873   2.826   6.102
 4905POPC   C2B63788  44.984   2.800   6.553
 4905POPC   C3B63789  44.964   2.551   6.972
 4905POPC   C4B63790  44.794   2.574   7.443
 4906POPC   NC363791   6.874  18.488   5.570
 4906POPC   PO463792   6.296  18.089   5.558
 4906POPC   GL163793   6.566  18.193   5.852
 4906POPC   GL263794   6.843  17.981   5.757
 4906POPC   C1A63795   6.613  18.444   6.215
 4906POPC   D2A63796   6.495  18.444   6.622
 4906POPC   C3A63797   6.698  18.663   6.901
 4906POPC   C4A63798   6.461  18.672   7.238
 4906POPC   C1B63799   6.949  18.064   6.184
 4906POPC   C2B63800   6.977  18.240   6.581
 4906POPC   C3B63801   6.827  18.160   6.968
 4906POPC   C4B63802   6.531  18.170   7.270
 4907POPC   NC363803  27.793  21.648   5.323
 4907POPC   PO463804  28.440  21.361   5.199
 4907POPC   GL163805  28.316  21.297   5.640
 4907POPC   GL263806  28.058  21.543   5.775
 4907POPC   C1A63807  28.465  21.305   6.075
 4907POPC   D2A63808  28.477  21.470   6.507
 4907POPC   C3A63809  28.280  21.305   6.894
 4907POPC   C4A63810  28.273  21.193   7.345
 4907POPC   C1B63811  27.846  21.654   6.188
 4907POPC   C2B63812  27.932  21.657   6.658
 4907POPC   C3B63813  28.085  21.764   7.077
 4907POPC   C4B63814  28.095  21.630   7.530
 4908POPC   NC363815  33.488  36.265   5.574
 4908POPC   PO463816  34.051  36.023   5.313
 4908POPC   GL163817  33.927  35.963   5.756
 4908POPC   GL263818  34.083  36.238   5.943
 4908POPC   C1A63819  33.663  35.919   6.155
 4908POPC   D2A63820  33.781  35.744   6.571
 4908POPC   C3A63821  33.671  35.833   6.979
 4908POPC   C4A63822  34.087  35.919   7.108
 4908POPC   C1B63823  34.057  36.192   6.397
 4908POPC   C2B63824  33.653  36.236   6.582
 4908POPC   C3B63825  33.472  36.323   6.933
 4908POPC   C4B63826  33.789  36.317   7.168
 4909POPC   NC363827  44.906  32.549   5.432
 4909POPC   PO463828  44.691  33.252   5.257
 4909POPC   GL163829  44.632  33.189   5.703
 4909POPC   GL263830  44.543  32.826   5.758
 4909POPC   C1A63831  44.814  33.266   6.121
 4909POPC   D2A63832  44.680  33.213   6.545
 4909POPC   C3A63833  44.623  33.391   6.927
 4909POPC   C4A63834  44.685  33.232   7.329
 4909POPC   C1B63835  44.662  32.769   6.204
 4909POPC   C2B63836  44.451  32.773   6.603
 4909POPC   C3B63837  44.575  32.848   7.013
 4909POPC   C4B63838  44.878  32.621   7.265
 4910POPC   NC363839  29.211  22.302   5.387
 4910POPC   PO463840  28.727  22.150   5.741
 4910POPC   GL163841  29.092  22.352   5.894
 4910POPC   GL263842  29.389  22.124   5.836
 4910POPC   C1A63843  29.142  22.337   6.335
 4910POPC   D2A63844  28.857  22.118   6.619
 4910POPC   C3A63845  28.817  22.291   7.045
 4910POPC   C4A63846  28.858  22.388   7.516
 4910POPC   C1B63847  29.337  21.874   6.229
 4910POPC   C2B63848  29.339  21.891   6.693
 4910POPC   C3B63849  29.103  21.719   7.042
 4910POPC   C4B63850  28.947  21.917   7.365
 4911POPC   NC363851  31.169  41.972   5.444
 4911POPC   PO463852  31.568  41.450   5.112
 4911POPC   GL163853  31.527  41.538   5.619
 4911POPC   GL263854  31.725  41.815   5.743
 4911POPC   C1A63855  31.522  41.457   6.120
 4911POPC   D2A63856  31.260  41.435   6.527
 4911POPC   C3A63857  31.382  41.576   6.954
 4911POPC   C4A63858  31.452  41.435   7.415
 4911POPC   C1B63859  31.573  41.967   6.139
 4911POPC   C2B63860  31.409  41.981   6.558
 4911POPC   C3B63861  31.262  42.083   6.962
 4911POPC   C4B63862  31.419  41.953   7.321
 4912POPC   NC363863  43.147  43.513   5.855
 4912POPC   PO463864  43.312  42.956   5.467
 4912POPC   GL163865  43.306  42.996   5.873
 4912POPC   GL263866  42.970  43.029   5.880
 4912POPC   C1A63867  43.487  43.162   6.260
 4912POPC   D2A63868  43.240  43.163   6.623
 4912POPC   C3A63869  43.374  43.134   7.049
 4912POPC   C4A63870  43.114  43.361   7.340
 4912POPC   C1B63871  42.743  42.841   6.196
 4912POPC   C2B63872  42.745  42.900   6.619
 4912POPC   C3B63873  42.843  43.172   6.939
 4912POPC   C4B63874  42.878  42.923   7.290
 4913POPC   NC363875   3.135  41.644   5.400
 4913POPC   PO463876   2.606  41.276   5.523
 4913POPC   GL163877   2.941  41.380   5.823
 4913POPC   GL263878   2.839  41.728   5.818
 4913POPC   C1A63879   2.851  41.462   6.275
 4913POPC   D2A63880   2.465  41.435   6.523
 4913POPC   C3A63881   2.446  41.693   6.919
 4913POPC   C4A63882   2.589  41.350   7.182
 4913POPC   C1B63883   2.492  41.826   6.098
 4913POPC   C2B63884   2.662  41.902   6.490
 4913POPC   C3B63885   2.919  41.680   6.767
 4913POPC   C4B63886   2.871  41.759   7.216
 4914POPC   NC363887  43.523  35.093   5.462
 4914POPC   PO463888  44.119  35.237   5.145
 4914POPC   GL163889  44.021  35.238   5.641
 4914POPC   GL263890  43.787  35.027   5.869
 4914POPC   C1A63891  44.088  35.309   6.123
 4914POPC   D2A63892  44.030  35.557   6.500
 4914POPC   C3A63893  43.872  35.436   6.916
 4914POPC   C4A63894  43.903  35.030   7.147
 4914POPC   C1B63895  43.602  35.167   6.283
 4914POPC   C2B63896  43.577  35.048   6.724
 4914POPC   C3B63897  43.416  35.191   7.114
 4914POPC   C4B63898  43.610  35.138   7.549
 4915POPC   NC363899   0.728  37.475   5.506
 4915POPC   PO463900   0.264  37.883   5.474
 4915POPC   GL163901   0.493  37.826   5.835
 4915POPC   GL263902   0.842  37.939   5.817
 4915POPC   C1A63903   0.454  37.847   6.260
 4915POPC   D2A63904   0.556  38.006   6.652
 4915POPC   C3A63905   0.352  37.930   7.069
 4915POPC   C4A63906   0.383  37.613   7.364
 4915POPC   C1B63907   0.896  37.574   6.121
 4915POPC   C2B63908   0.742  37.517   6.543
 4915POPC   C3B63909   0.756  37.638   6.968
 4915POPC   C4B63910   0.895  37.552   7.341
 4916POPC   NC363911  41.728  26.818   5.361
 4916POPC   PO463912  41.234  27.255   5.546
 4916POPC   GL163913  41.553  27.110   5.772
 4916POPC   GL263914  41.426  26.764   5.814
 4916POPC   C1A63915  41.595  27.047   6.200
 4916POPC   D2A63916  41.562  26.827   6.559
 4916POPC   C3A63917  41.910  26.910   6.828
 4916POPC   C4A63918  41.820  27.090   7.223
 4916POPC   C1B63919  41.107  26.546   6.112
 4916POPC   C2B63920  41.170  26.433   6.557
 4916POPC   C3B63921  41.361  26.538   6.952
 4916POPC   C4B63922  41.768  26.569   7.173
 4917POPC   NC363923   7.620  15.121   5.549
 4917POPC   PO463924   7.051  14.770   5.440
 4917POPC   GL163925   7.245  14.972   5.847
 4917POPC   GL263926   7.594  14.843   5.997
 4917POPC   C1A63927   7.384  15.251   6.200
 4917POPC   D2A63928   7.802  15.165   6.401
 4917POPC   C3A63929   7.966  15.401   6.770
 4917POPC   C4A63930   7.775  15.431   7.181
 4917POPC   C1B63931   7.306  14.770   6.377
 4917POPC   C2B63932   7.157  14.809   6.833
 4917POPC   C3B63933   7.334  14.937   7.244
 4917POPC   C4B63934   7.378  14.799   7.709
 4918POPC   NC363935  34.113   0.124   5.576
 4918POPC   PO463936  33.882  44.506   5.408
 4918POPC   GL163937  33.899  44.667   5.842
 4918POPC   GL263938  33.678  44.424   6.040
 4918POPC   C1A63939  34.063  44.878   6.231
 4918POPC   D2A63940  33.876  44.986   6.641
 4918POPC   C3A63941  34.003  44.830   7.037
 4918POPC   C4A63942  33.861  44.464   7.165
 4918POPC   C1B63943  33.539  44.853   6.214
 4918POPC   C2B63944  33.359  44.983   6.616
 4918POPC   C3B63945  33.477  44.845   7.037
 4918POPC   C4B63946  33.557  44.726   7.472
 4919POPC   NC363947   7.840  33.276   5.540
 4919POPC   PO463948   8.353  32.799   5.347
 4919POPC   GL163949   8.276  33.039   5.737
 4919POPC   GL263950   8.325  33.388   5.793
 4919POPC   C1A63951   8.032  33.019   6.114
 4919POPC   D2A63952   7.960  33.168   6.511
 4919POPC   C3A63953   8.065  33.007   6.891
 4919POPC   C4A63954   7.949  33.013   7.303
 4919POPC   C1B63955   8.382  33.367   6.266
 4919POPC   C2B63956   8.513  33.194   6.705
 4919POPC   C3B63957   8.421  33.245   7.180
 4919POPC   C4B63958   8.526  33.239   7.643
 4920POPC   NC363959  30.504   2.881   5.378
 4920POPC   PO463960  31.208   2.807   5.389
 4920POPC   GL163961  30.873   2.837   5.783
 4920POPC   GL263962  30.512   2.704   5.847
 4920POPC   C1A63963  30.805   2.680   6.247
 4920POPC   D2A63964  30.692   2.875   6.598
 4920POPC   C3A63965  30.693   2.703   6.954
 4920POPC   C4A63966  30.905   2.809   7.251
 4920POPC   C1B63967  30.292   2.642   6.258
 4920POPC   C2B63968  30.212   2.746   6.705
 4920POPC   C3B63969  30.186   2.536   7.095
 4920POPC   C4B63970  30.442   2.683   7.402
 4921POPC   NC363971  14.110  12.466   5.441
 4921POPC   PO463972  13.427  12.713   5.357
 4921POPC   GL163973  13.531  12.893   5.770
 4921POPC   GL263974  13.712  12.618   5.836
 4921POPC   C1A63975  13.570  13.046   6.200
 4921POPC   D2A63976  13.661  12.885   6.621
 4921POPC   C3A63977  13.464  13.109   6.997
 4921POPC   C4A63978  13.104  13.182   7.226
 4921POPC   C1B63979  13.817  12.502   6.258
 4921POPC   C2B63980  13.892  12.417   6.685
 4921POPC   C3B63981  13.745  12.652   7.065
 4921POPC   C4B63982  13.988  12.710   7.442
 4922POPC   NC363983   7.974  21.670   5.426
 4922POPC   PO463984   8.330  21.125   5.263
 4922POPC   GL163985   8.412  21.318   5.706
 4922POPC   GL263986   8.239  21.617   5.867
 4922POPC   C1A63987   8.533  21.275   6.161
 4922POPC   D2A63988   8.411  21.383   6.605
 4922POPC   C3A63989   8.411  21.055   6.922
 4922POPC   C4A63990   8.234  21.068   7.340
 4922POPC   C1B63991   7.849  21.746   6.154
 4922POPC   C2B63992   7.617  21.728   6.582
 4922POPC   C3B63993   7.721  21.547   6.971
 4922POPC   C4B63994   8.162  21.517   7.075
 4923POPC   NC363995   9.530   3.810   5.293
 4923POPC   PO463996   9.709   3.137   5.399
 4923POPC   GL163997   9.667   3.511   5.742
 4923POPC   GL263998   9.914   3.765   5.863
 4923POPC   C1A63999   9.592   3.621   6.216
 4923POPC   D2A64000   9.352   3.475   6.559
 4923POPC   C3A64001   9.620   3.479   6.901
 4923POPC   C4A64002   9.632   3.545   7.334
 4923POPC   C1B64003  10.085   3.482   6.137
 4923POPC   C2B64004   9.985   3.528   6.545
 4923POPC   C3B64005  10.148   3.482   6.956
 4923POPC   C4B64006  10.141   3.509   7.373
 4924POPC   NC364007  34.994  40.370   5.431
 4924POPC   PO464008  35.622  40.114   5.557
 4924POPC   GL164009  35.384  39.874   5.859
 4924POPC   GL264010  35.534  39.550   5.882
 4924POPC   C1A64011  35.382  39.934   6.313
 4924POPC   D2A64012  35.317  39.866   6.752
 4924POPC   C3A64013  35.254  40.114   7.121
 4924POPC   C4A64014  35.164  40.364   7.491
 4924POPC   C1B64015  35.625  39.484   6.321
 4924POPC   C2B64016  35.802  39.747   6.659
 4924POPC   C3B64017  35.694  39.779   7.089
 4924POPC   C4B64018  35.674  40.077   7.419
 4925POPC   NC364019   2.077  13.921   5.402
 4925POPC   PO464020   1.644  13.404   5.283
 4925POPC   GL164021   1.718  13.656   5.680
 4925POPC   GL264022   2.050  13.730   5.857
 4925POPC   C1A64023   1.659  13.557   6.117
 4925POPC   D2A64024   1.889  13.749   6.443
 4925POPC   C3A64025   2.090  13.451   6.689
 4925POPC   C4A64026   2.012  13.443   7.109
 4925POPC   C1B64027   2.336  13.681   6.196
 4925POPC   C2B64028   2.360  13.932   6.576
 4925POPC   C3B64029   2.298  13.849   7.005
 4925POPC   C4B64030   2.525  13.599   7.250
 4926POPC   NC364031  37.512  24.143   5.497
 4926POPC   PO464032  37.953  23.591   5.336
 4926POPC   GL164033  37.937  23.580   5.833
 4926POPC   GL264034  37.873  23.928   5.932
 4926POPC   C1A64035  37.746  23.558   6.285
 4926POPC   D2A64036  37.423  23.455   6.609
 4926POPC   C3A64037  37.574  23.460   7.037
 4926POPC   C4A64038  37.873  23.668   7.259
 4926POPC   C1B64039  37.646  24.106   6.257
 4926POPC   C2B64040  37.637  24.018   6.657
 4926POPC   C3B64041  37.523  23.960   7.043
 4926POPC   C4B64042  37.677  24.149   7.378
 4927POPC   NC364043  19.659  44.901   5.658
 4927POPC   PO464044  19.157  44.586   5.343
 4927POPC   GL164045  19.029  44.707   5.759
 4927POPC   GL264046  19.313  44.739   5.982
 4927POPC   C1A64047  18.832  44.754   6.181
 4927POPC   D2A64048  18.997  44.896   6.591
 4927POPC   C3A64049  18.892  44.722   7.015
 4927POPC   C4A64050  18.724  44.316   7.210
 4927POPC   C1B64051  19.474  44.914   6.363
 4927POPC   C2B64052  19.453  44.929   6.833
 4927POPC   C3B64053  19.359  44.745   7.260
 4927POPC   C4B64054  19.419  44.801   7.702
 4928POPC   NC364055   8.216  44.812   5.397
 4928POPC   PO464056   8.257  44.165   5.308
 4928POPC   GL164057   8.361  44.343   5.751
 4928POPC   GL264058   8.425  44.702   5.839
 4928POPC   C1A64059   8.259  44.415   6.219
 4928POPC   D2A64060   8.361  44.636   6.614
 4928POPC   C3A64061   8.093  44.529   6.947
 4928POPC   C4A64062   8.192  44.550   7.351
 4928POPC   C1B64063   8.306  44.964   6.198
 4928POPC   C2B64064   8.324   0.156   6.647
 4928POPC   C3B64065   8.327  44.967   7.064
 4928POPC   C4B64066   8.012   0.062   7.376
 4929POPC   NC364067  21.493  18.433   5.364
 4929POPC   PO464068  21.897  17.892   5.432
 4929POPC   GL164069  21.568  18.067   5.751
 4929POPC   GL264070  21.558  18.408   5.859
 4929POPC   C1A64071  21.222  18.103   6.108
 4929POPC   D2A64072  21.112  18.395   6.455
 4929POPC   C3A64073  21.273  18.326   6.892
 4929POPC   C4A64074  21.253  18.241   7.361
 4929POPC   C1B64075  21.565  18.638   6.219
 4929POPC   C2B64076  21.428  18.766   6.616
 4929POPC   C3B64077  21.664  18.677   6.948
 4929POPC   C4B64078  21.710  18.490   7.333
 4930POPC   NC364079  29.814  43.833   5.421
 4930POPC   PO464080  30.303  43.841   5.811
 4930POPC   GL164081  29.918  43.964   5.888
 4930POPC   GL264082  29.825  43.590   5.871
 4930POPC   C1A64083  29.883  44.191   6.230
 4930POPC   D2A64084  30.114  44.017   6.591
 4930POPC   C3A64085  29.958  44.042   7.000
 4930POPC   C4A64086  29.622  44.159   7.232
 4930POPC   C1B64087  29.735  43.705   6.300
 4930POPC   C2B64088  29.811  43.610   6.729
 4930POPC   C3B64089  30.076  43.541   7.055
 4930POPC   C4B64090  29.995  43.752   7.441
 4931POPC   NC364091   7.995  20.789   5.297
 4931POPC   PO464092   8.408  20.273   5.369
 4931POPC   GL164093   8.248  20.524   5.677
 4931POPC   GL264094   8.499  20.786   5.718
 4931POPC   C1A64095   8.080  20.746   6.026
 4931POPC   D2A64096   8.264  20.876   6.446
 4931POPC   C3A64097   8.115  20.645   6.826
 4931POPC   C4A64098   7.924  20.672   7.244
 4931POPC   C1B64099   8.515  20.520   6.129
 4931POPC   C2B64100   8.747  20.451   6.490
 4931POPC   C3B64101   8.619  20.409   6.902
 4931POPC   C4B64102   8.424  20.571   7.250
 4932POPC   NC364103  39.848  19.080   5.368
 4932POPC   PO464104  40.518  18.899   5.444
 4932POPC   GL164105  40.154  18.861   5.786
 4932POPC   GL264106  39.752  18.865   5.812
 4932POPC   C1A64107  40.079  19.066   6.216
 4932POPC   D2A64108  39.946  19.352   6.563
 4932POPC   C3A64109  40.061  19.287   6.992
 4932POPC   C4A64110  40.373  19.496   7.238
 4932POPC   C1B64111  39.576  18.909   6.205
 4932POPC   C2B64112  39.740  18.885   6.597
 4932POPC   C3B64113  39.597  19.030   6.962
 4932POPC   C4B64114  39.698  18.812   7.280
 4933POPC   NC364115  22.242  11.015   5.130
 4933POPC   PO464116  22.262  10.336   5.322
 4933POPC   GL164117  22.226  10.597   5.752
 4933POPC   GL264118  21.900  10.527   6.005
 4933POPC   C1A64119  22.327  10.665   6.201
 4933POPC   D2A64120  22.411  10.420   6.574
 4933POPC   C3A64121  22.355  10.585   6.976
 4933POPC   C4A64122  22.373  10.453   7.404
 4933POPC   C1B64123  22.063  10.182   6.266
 4933POPC   C2B64124  21.932  10.108   6.683
 4933POPC   C3B64125  21.921  10.341   7.041
 4933POPC   C4B64126  21.865  10.807   7.105
 4934POPC   NC364127  16.989   9.153   5.280
 4934POPC   PO464128  17.444   8.683   5.428
 4934POPC   GL164129  17.352   8.874   5.789
 4934POPC   GL264130  17.112   8.618   5.864
 4934POPC   C1A64131  17.624   9.052   6.131
 4934POPC   D2A64132  17.775   9.256   6.539
 4934POPC   C3A64133  17.744   8.931   6.841
 4934POPC   C4A64134  17.582   8.612   7.092
 4934POPC   C1B64135  17.083   8.829   6.227
 4934POPC   C2B64136  17.256   8.828   6.616
 4934POPC   C3B64137  17.074   8.627   6.967
 4934POPC   C4B64138  17.193   8.759   7.369
 4935POPC   NC364139  19.690  40.178   5.538
 4935POPC   PO464140  19.992  39.651   5.394
 4935POPC   GL164141  20.014  39.899   5.817
 4935POPC   GL264142  20.298  39.806   5.944
 4935POPC   C1A64143  19.832  40.095   6.235
 4935POPC   D2A64144  19.567  40.231   6.663
 4935POPC   C3A64145  19.707  40.082   7.110
 4935POPC   C4A64146  20.086  40.212   7.393
 4935POPC   C1B64147  20.154  39.697   6.306
 4935POPC   C2B64148  19.967  39.866   6.695
 4935POPC   C3B64149  20.153  39.809   7.093
 4935POPC   C4B64150  20.318  39.432   7.295
 4936POPC   NC364151   8.047  41.142   5.466
 4936POPC   PO464152   8.230  40.495   5.295
 4936POPC   GL164153   8.291  40.630   5.760
 4936POPC   GL264154   8.631  40.451   5.773
 4936POPC   C1A64155   8.103  40.803   6.218
 4936POPC   D2A64156   7.960  40.732   6.693
 4936POPC   C3A64157   8.046  40.895   7.116
 4936POPC   C4A64158   8.162  41.192   7.462
 4936POPC   C1B64159   8.548  40.572   6.200
 4936POPC   C2B64160   8.493  40.777   6.598
 4936POPC   C3B64161   8.500  40.632   7.020
 4936POPC   C4B64162   8.458  40.769   7.431
 4937POPC   NC364163   4.479  41.181   5.255
 4937POPC   PO464164   4.397  41.844   5.276
 4937POPC   GL164165   4.307  41.531   5.616
 4937POPC   GL264166   4.548  41.745   5.818
 4937POPC   C1A64167   4.305  41.349   6.067
 4937POPC   D2A64168   4.490  41.484   6.483
 4937POPC   C3A64169   4.413  41.245   6.873
 4937POPC   C4A64170   4.169  41.335   7.230
 4937POPC   C1B64171   4.185  41.886   6.015
 4937POPC   C2B64172   4.117  41.892   6.453
 4937POPC   C3B64173   4.163  41.767   6.874
 4937POPC   C4B64174   3.842  41.746   7.144
 4938POPC   NC364175  13.543   5.164   5.375
 4938POPC   PO464176  14.121   4.751   5.394
 4938POPC   GL164177  13.959   5.040   5.736
 4938POPC   GL264178  13.598   4.964   5.824
 4938POPC   C1A64179  13.917   5.111   6.193
 4938POPC   D2A64180  13.798   4.865   6.558
 4938POPC   C3A64181  13.918   5.088   6.937
 4938POPC   C4A64182  13.879   5.220   7.355
 4938POPC   C1B64183  13.414   5.093   6.223
 4938POPC   C2B64184  13.557   5.300   6.621
 4938POPC   C3B64185  13.519   5.403   7.042
 4938POPC   C4B64186  13.341   5.220   7.368
 4939POPC   NC364187  30.511  42.720   5.524
 4939POPC   PO464188  30.996  43.174   5.535
 4939POPC   GL164189  30.797  43.133   5.891
 4939POPC   GL264190  30.832  42.785   5.930
 4939POPC   C1A64191  30.667  43.185   6.322
 4939POPC   D2A64192  30.819  42.909   6.651
 4939POPC   C3A64193  30.828  43.058   7.057
 4939POPC   C4A64194  30.555  43.395   7.266
 4939POPC   C1B64195  30.571  42.671   6.221
 4939POPC   C2B64196  30.327  42.873   6.506
 4939POPC   C3B64197  30.354  43.110   6.864
 4939POPC   C4B64198  30.398  42.903   7.256
 4940POPC   NC364199  25.815  34.789   5.382
 4940POPC   PO464200  26.355  35.072   5.662
 4940POPC   GL164201  26.079  34.747   5.828
 4940POPC   GL264202  25.758  34.943   5.856
 4940POPC   C1A64203  26.094  34.449   6.180
 4940POPC   D2A64204  26.175  34.655   6.593
 4940POPC   C3A64205  26.269  34.475   6.981
 4940POPC   C4A64206  26.236  34.504   7.447
 4940POPC   C1B64207  25.859  34.912   6.279
 4940POPC   C2B64208  25.721  34.878   6.688
 4940POPC   C3B64209  26.003  34.946   7.022
 4940POPC   C4B64210  25.861  34.828   7.421
 4941POPC   NC364211  18.809   3.935   5.486
 4941POPC   PO464212  19.238   3.584   5.179
 4941POPC   GL164213  19.125   3.583   5.741
 4941POPC   GL264214  18.779   3.656   5.892
 4941POPC   C1A64215  19.028   3.386   6.212
 4941POPC   D2A64216  18.795   3.461   6.647
 4941POPC   C3A64217  19.070   3.415   7.017
 4941POPC   C4A64218  19.076   3.336   7.440
 4941POPC   C1B64219  18.855   3.847   6.317
 4941POPC   C2B64220  18.961   3.952   6.745
 4941POPC   C3B64221  18.723   3.766   7.091
 4941POPC   C4B64222  18.737   3.688   7.552
 4942POPC   NC364223  38.242  19.376   5.460
 4942POPC   PO464224  38.791  18.994   5.485
 4942POPC   GL164225  38.465  19.096   5.815
 4942POPC   GL264226  38.311  18.803   5.972
 4942POPC   C1A64227  38.242  19.249   6.209
 4942POPC   D2A64228  38.424  19.309   6.654
 4942POPC   C3A64229  38.197  19.390   7.026
 4942POPC   C4A64230  38.257  19.139   7.442
 4942POPC   C1B64231  38.663  18.966   6.256
 4942POPC   C2B64232  38.685  18.827   6.657
 4942POPC   C3B64233  38.408  18.922   6.986
 4942POPC   C4B64234  38.681  19.205   7.147
 4943POPC   NC364235  21.387  41.160   5.411
 4943POPC   PO464236  21.669  40.550   5.363
 4943POPC   GL164237  21.440  40.746   5.746
 4943POPC   GL264238  21.573  41.069   5.873
 4943POPC   C1A64239  21.312  40.677   6.193
 4943POPC   D2A64240  21.107  40.701   6.606
 4943POPC   C3A64241  21.276  40.657   7.008
 4943POPC   C4A64242  21.025  40.657   7.360
 4943POPC   C1B64243  21.812  40.790   6.174
 4943POPC   C2B64244  21.650  40.736   6.607
 4943POPC   C3B64245  21.646  40.994   6.993
 4943POPC   C4B64246  21.516  40.861   7.428
 4944POPC   NC364247   3.435  15.497   5.412
 4944POPC   PO464248   3.430  14.841   5.345
 4944POPC   GL164249   3.661  14.925   5.758
 4944POPC   GL264250   3.452  15.175   5.853
 4944POPC   C1A64251   3.830  14.997   6.210
 4944POPC   D2A64252   3.726  14.902   6.665
 4944POPC   C3A64253   4.002  14.855   7.054
 4944POPC   C4A64254   3.943  14.863   7.555
 4944POPC   C1B64255   3.391  15.346   6.250
 4944POPC   C2B64256   3.502  15.605   6.590
 4944POPC   C3B64257   3.445  15.282   6.874
 4944POPC   C4B64258   3.637  15.143   7.235
 4945POPC   NC364259  25.145  32.466   5.381
 4945POPC   PO464260  25.348  31.918   5.062
 4945POPC   GL164261  25.358  32.051   5.563
 4945POPC   GL264262  25.141  32.064   5.776
 4945POPC   C1A64263  25.560  32.222   6.001
 4945POPC   D2A64264  25.615  32.239   6.462
 4945POPC   C3A64265  25.380  32.379   6.845
 4945POPC   C4A64266  25.316  32.580   7.253
 4945POPC   C1B64267  25.064  32.231   6.167
 4945POPC   C2B64268  25.113  32.056   6.535
 4945POPC   C3B64269  25.004  31.944   6.884
 4945POPC   C4B64270  24.902  32.317   7.074
 4946POPC   NC364271  13.353   2.130   5.556
 4946POPC   PO464272  13.049   1.585   5.701
 4946POPC   GL164273  12.849   1.944   5.854
 4946POPC   GL264274  12.934   2.317   5.852
 4946POPC   C1A64275  12.834   1.871   6.285
 4946POPC   D2A64276  12.964   1.998   6.656
 4946POPC   C3A64277  12.615   1.949   6.918
 4946POPC   C4A64278  12.565   2.192   7.246
 4946POPC   C1B64279  13.235   2.176   6.191
 4946POPC   C2B64280  13.461   2.192   6.570
 4946POPC   C3B64281  13.279   2.237   6.967
 4946POPC   C4B64282  13.137   2.354   7.353
 4947POPC   NC364283   1.322  40.511   5.340
 4947POPC   PO464284   1.003  41.088   5.310
 4947POPC   GL164285   1.202  40.897   5.674
 4947POPC   GL264286   1.563  40.816   5.717
 4947POPC   C1A64287   1.197  40.868   6.136
 4947POPC   D2A64288   0.924  40.756   6.492
 4947POPC   C3A64289   0.921  40.972   6.881
 4947POPC   C4A64290   0.943  40.633   7.196
 4947POPC   C1B64291   1.703  40.961   6.153
 4947POPC   C2B64292   1.476  41.044   6.576
 4947POPC   C3B64293   1.411  40.875   7.017
 4947POPC   C4B64294   1.480  40.934   7.479
 4948POPC   NC364295   4.265  24.801   5.394
 4948POPC   PO464296   4.594  24.182   5.398
 4948POPC   GL164297   4.438  24.465   5.787
 4948POPC   GL264298   4.579  24.853   5.806
 4948POPC   C1A64299   4.289  24.335   6.228
 4948POPC   D2A64300   4.043  24.410   6.614
 4948POPC   C3A64301   4.237  24.296   7.029
 4948POPC   C4A64302   4.429  24.089   7.387
 4948POPC   C1B64303   4.633  24.730   6.247
 4948POPC   C2B64304   4.506  24.648   6.690
 4948POPC   C3B64305   4.502  24.734   7.153
 4948POPC   C4B64306   4.487  24.856   7.607
 4949POPC   NC364307  27.374  12.102   5.437
 4949POPC   PO464308  26.666  11.995   5.563
 4949POPC   GL164309  26.803  12.154   5.903
 4949POPC   GL264310  26.947  12.460   5.879
 4949POPC   C1A64311  26.572  12.224   6.253
 4949POPC   D2A64312  26.491  12.147   6.668
 4949POPC   C3A64313  26.800  11.993   6.926
 4949POPC   C4A64314  26.948  12.148   7.292
 4949POPC   C1B64315  27.239  12.211   6.154
 4949POPC   C2B64316  27.215  12.053   6.591
 4949POPC   C3B64317  27.275  12.309   6.945
 4949POPC   C4B64318  27.459  12.167   7.300
 4950POPC   NC364319  20.659   8.543   5.265
 4950POPC   PO464320  20.180   8.164   5.305
 4950POPC   GL164321  20.429   8.265   5.725
 4950POPC   GL264322  20.819   8.281   5.707
 4950POPC   C1A64323  20.444   8.130   6.197
 4950POPC   D2A64324  20.368   8.359   6.608
 4950POPC   C3A64325  20.484   8.166   7.023
 4950POPC   C4A64326  20.451   8.067   7.478
 4950POPC   C1B64327  20.946   8.206   6.146
 4950POPC   C2B64328  20.838   8.079   6.584
 4950POPC   C3B64329  21.009   8.208   6.958
 4950POPC   C4B64330  20.862   8.355   7.330
 4951POPC   NC364331   5.220  29.476   5.119
 4951POPC   PO464332   5.129  30.058   5.498
 4951POPC   GL164333   5.115  29.744   5.795
 4951POPC   GL264334   5.330  29.494   5.666
 4951POPC   C1A64335   4.946  29.771   6.215
 4951POPC   D2A64336   5.072  30.043   6.550
 4951POPC   C3A64337   5.080  29.930   6.939
 4951POPC   C4A64338   4.704  29.965   7.124
 4951POPC   C1B64339   5.366  29.470   6.134
 4951POPC   C2B64340   5.096  29.366   6.520
 4951POPC   C3B64341   5.071  29.429   6.956
 4951POPC   C4B64342   5.095  29.654   7.374
 4952POPC   NC364343  40.470  29.621   5.399
 4952POPC   PO464344  39.804  29.878   5.421
 4952POPC   GL164345  40.105  29.865   5.756
 4952POPC   GL264346  39.984  30.188   5.860
 4952POPC   C1A64347  40.284  29.962   6.192
 4952POPC   D2A64348  40.320  30.180   6.599
 4952POPC   C3A64349  40.167  29.884   6.881
 4952POPC   C4A64350  40.268  29.690   7.261
 4952POPC   C1B64351  39.732  29.872   6.123
 4952POPC   C2B64352  39.524  29.777   6.506
 4952POPC   C3B64353  39.575  29.912   6.925
 4952POPC   C4B64354  39.784  29.878   7.308
 4953POPC   NC364355  30.047   1.994   5.440
 4953POPC   PO464356  29.524   2.292   5.501
 4953POPC   GL164357  29.729   2.135   5.808
 4953POPC   GL264358  29.611   1.802   5.833
 4953POPC   C1A64359  29.893   2.077   6.179
 4953POPC   D2A64360  29.691   1.940   6.526
 4953POPC   C3A64361  29.794   2.125   6.902
 4953POPC   C4A64362  29.724   1.849   7.209
 4953POPC   C1B64363  29.856   1.559   6.150
 4953POPC   C2B64364  30.165   1.665   6.460
 4953POPC   C3B64365  30.258   1.888   6.827
 4953POPC   C4B64366  30.273   1.846   7.260
 4954POPC   NC364367  44.757  17.375   5.417
 4954POPC   PO464368  44.448  17.988   5.512
 4954POPC   GL164369  44.773  17.776   5.784
 4954POPC   GL264370  44.603  17.482   5.907
 4954POPC   C1A64371  44.969  17.660   6.199
 4954POPC   D2A64372  44.653  17.447   6.479
 4954POPC   C3A64373  44.750  17.476   6.939
 4954POPC   C4A64374   0.030  17.732   7.185
 4954POPC   C1B64375  44.516  17.869   6.220
 4954POPC   C2B64376  44.727  17.903   6.660
 4954POPC   C3B64377  44.596  18.006   7.086
 4954POPC   C4B64378  44.317  17.915   7.471
 4955POPC   NC364379  40.756  44.062   5.376
 4955POPC   PO464380  41.094  43.404   5.399
 4955POPC   GL164381  40.773  43.687   5.743
 4955POPC   GL264382  40.513  44.053   5.802
 4955POPC   C1A64383  40.573  43.729   6.167
 4955POPC   D2A64384  40.527  43.903   6.564
 4955POPC   C3A64385  40.927  43.859   6.756
 4955POPC   C4A64386  40.959  43.902   7.176
 4955POPC   C1B64387  40.837  44.211   6.050
 4955POPC   C2B64388  40.919  44.289   6.474
 4955POPC   C3B64389  40.811  44.327   6.915
 4955POPC   C4B64390  40.834  44.597   7.264
 4956POPC   NC364391  40.260  36.284   5.507
 4956POPC   PO464392  39.599  36.362   5.605
 4956POPC   GL164393  39.903  36.121   5.846
 4956POPC   GL264394  40.262  35.954   5.889
 4956POPC   C1A64395  39.930  36.123   6.256
 4956POPC   D2A64396  39.684  36.371   6.540
 4956POPC   C3A64397  39.794  36.341   6.954
 4956POPC   C4A64398  39.819  35.939   7.169
 4956POPC   C1B64399  40.407  36.300   6.160
 4956POPC   C2B64400  40.252  36.360   6.573
 4956POPC   C3B64401  40.262  36.117   6.939
 4956POPC   C4B64402  40.203  36.246   7.352
 4957POPC   NC364403   9.395  34.527   5.590
 4957POPC   PO464404  10.049  34.741   5.605
 4957POPC   GL164405   9.821  34.785   5.970
 4957POPC   GL264406   9.466  34.850   5.969
 4957POPC   C1A64407   9.809  34.800   6.414
 4957POPC   D2A64408   9.588  34.762   6.785
 4957POPC   C3A64409   9.926  34.572   6.942
 4957POPC   C4A64410  10.148  34.460   7.287
 4957POPC   C1B64411   9.495  34.439   6.219
 4957POPC   C2B64412   9.352  34.325   6.603
 4957POPC   C3B64413   9.522  34.252   6.998
 4957POPC   C4B64414   9.638  34.468   7.345
 4958POPC   NC364415  18.458  29.140   5.509
 4958POPC   PO464416  17.955  28.752   5.402
 4958POPC   GL164417  18.141  28.854   5.811
 4958POPC   GL264418  18.462  28.721   5.857
 4958POPC   C1A64419  18.146  29.228   6.111
 4958POPC   D2A64420  17.923  29.463   6.447
 4958POPC   C3A64421  18.158  29.420   6.822
 4958POPC   C4A64422  18.133  29.339   7.259
 4958POPC   C1B64423  18.343  28.782   6.309
 4958POPC   C2B64424  18.018  28.928   6.628
 4958POPC   C3B64425  17.905  28.900   7.072
 4958POPC   C4B64426  18.030  28.884   7.491
 4959POPC   NC364427  19.980  41.733   5.265
 4959POPC   PO464428  19.469  41.263   5.389
 4959POPC   GL164429  19.631  41.315   5.818
 4959POPC   GL264430  19.872  41.604   5.780
 4959POPC   C1A64431  19.563  41.530   6.205
 4959POPC   D2A64432  19.816  41.630   6.534
 4959POPC   C3A64433  19.631  41.646   6.942
 4959POPC   C4A64434  19.725  41.846   7.328
 4959POPC   C1B64435  20.147  41.492   6.120
 4959POPC   C2B64436  20.259  41.342   6.534
 4959POPC   C3B64437  20.165  41.525   6.919
 4959POPC   C4B64438  19.955  41.393   7.256
 4960POPC   NC364439  13.285  32.134   5.644
 4960POPC   PO464440  12.702  31.928   5.456
 4960POPC   GL164441  12.718  32.277   5.795
 4960POPC   GL264442  12.982  32.224   6.017
 4960POPC   C1A64443  12.699  32.570   6.223
 4960POPC   D2A64444  12.624  32.447   6.656
 4960POPC   C3A64445  12.758  32.401   7.100
 4960POPC   C4A64446  12.737  32.275   7.526
 4960POPC   C1B64447  12.963  32.137   6.425
 4960POPC   C2B64448  13.126  32.233   6.807
 4960POPC   C3B64449  13.108  32.017   7.237
 4960POPC   C4B64450  13.193  32.117   7.695
 4961POPC   NC364451  20.640  38.963   5.579
 4961POPC   PO464452  20.551  39.535   5.604
 4961POPC   GL164453  20.493  39.311   5.961
 4961POPC   GL264454  20.303  38.981   5.959
 4961POPC   C1A64455  20.755  39.256   6.312
 4961POPC   D2A64456  20.798  39.019   6.688
 4961POPC   C3A64457  20.788  39.327   7.003
 4961POPC   C4A64458  21.111  39.449   7.240
 4961POPC   C1B64459  20.217  39.165   6.365
 4961POPC   C2B64460  20.291  38.955   6.748
 4961POPC   C3B64461  20.463  38.953   7.144
 4961POPC   C4B64462  20.424  38.962   7.606
 4962POPC   NC364463  28.966   8.224   5.347
 4962POPC   PO464464  29.618   8.143   5.462
 4962POPC   GL164465  29.288   8.051   5.730
 4962POPC   GL264466  29.220   8.397   5.778
 4962POPC   C1A64467  29.199   8.001   6.172
 4962POPC   D2A64468  29.392   7.836   6.558
 4962POPC   C3A64469  29.159   7.910   6.928
 4962POPC   C4A64470  29.221   8.199   7.291
 4962POPC   C1B64471  29.035   8.514   6.156
 4962POPC   C2B64472  29.138   8.368   6.562
 4962POPC   C3B64473  29.246   8.567   6.937
 4962POPC   C4B64474  28.957   8.633   7.300
 4963POPC   NC364475   4.943  27.924   5.357
 4963POPC   PO464476   5.378  27.492   5.499
 4963POPC   GL164477   5.084  27.676   5.803
 4963POPC   GL264478   5.088  28.043   5.847
 4963POPC   C1A64479   4.882  27.653   6.207
 4963POPC   D2A64480   4.720  27.559   6.619
 4963POPC   C3A64481   4.909  27.765   6.984
 4963POPC   C4A64482   5.259  27.627   7.246
 4963POPC   C1B64483   5.349  27.881   6.217
 4963POPC   C2B64484   5.327  27.717   6.680
 4963POPC   C3B64485   5.551  27.970   7.029
 4963POPC   C4B64486   5.577  27.921   7.522
 4964POPC   NC364487  27.820  13.528   5.395
 4964POPC   PO464488  27.384  14.039   5.541
 4964POPC   GL164489  27.441  13.700   5.852
 4964POPC   GL264490  27.653  13.408   5.852
 4964POPC   C1A64491  27.339  13.486   6.272
 4964POPC   D2A64492  27.520  13.531   6.707
 4964POPC   C3A64493  27.505  13.626   7.157
 4964POPC   C4A64494  27.604  13.890   7.510
 4964POPC   C1B64495  27.818  13.642   6.204
 4964POPC   C2B64496  28.044  13.548   6.555
 4964POPC   C3B64497  27.986  13.598   6.973
 4964POPC   C4B64498  28.130  13.715   7.358
 4965POPC   NC364499  15.766  30.299   5.222
 4965POPC   PO464500  15.970  29.771   5.561
 4965POPC   GL164501  15.807  29.988   5.860
 4965POPC   GL264502  15.600  30.167   5.708
 4965POPC   C1A64503  15.809  29.858   6.262
 4965POPC   D2A64504  16.030  29.604   6.520
 4965POPC   C3A64505  16.147  29.825   6.859
 4965POPC   C4A64506  16.043  29.752   7.259
 4965POPC   C1B64507  15.388  30.117   6.128
 4965POPC   C2B64508  15.521  30.143   6.581
 4965POPC   C3B64509  15.636  29.995   7.011
 4965POPC   C4B64510  15.763  30.185   7.421
 4966POPC   NC364511  15.135  41.237   5.380
 4966POPC   PO464512  14.881  41.785   5.630
 4966POPC   GL164513  14.916  41.392   5.831
 4966POPC   GL264514  15.275  41.375   5.866
 4966POPC   C1A64515  14.912  41.436   6.275
 4966POPC   D2A64516  15.249  41.695   6.467
 4966POPC   C3A64517  15.198  41.717   6.887
 4966POPC   C4A64518  14.898  41.530   7.149
 4966POPC   C1B64519  15.399  41.241   6.288
 4966POPC   C2B64520  15.527  41.334   6.736
 4966POPC   C3B64521  15.360  41.292   7.175
 4966POPC   C4B64522  15.132  41.109   7.552
 4967POPC   NC364523  17.241  27.189   5.608
 4967POPC   PO464524  17.616  27.485   5.081
 4967POPC   GL164525  17.601  27.572   5.595
 4967POPC   GL264526  17.369  27.815   5.803
 4967POPC   C1A64527  17.700  27.542   6.088
 4967POPC   D2A64528  17.524  27.720   6.513
 4967POPC   C3A64529  17.593  27.608   6.962
 4967POPC   C4A64530  17.979  27.482   7.152
 4967POPC   C1B64531  17.200  27.521   6.167
 4967POPC   C2B64532  17.331  27.252   6.541
 4967POPC   C3B64533  17.187  27.278   6.967
 4967POPC   C4B64534  17.017  27.356   7.371
 4968POPC   NC364535  34.140  16.911   5.328
 4968POPC   PO464536  34.657  16.527   5.169
 4968POPC   GL164537  34.491  16.626   5.627
 4968POPC   GL264538  34.460  16.323   5.813
 4968POPC   C1A64539  34.580  16.824   6.077
 4968POPC   D2A64540  34.524  16.744   6.568
 4968POPC   C3A64541  34.830  16.840   6.945
 4968POPC   C4A64542  34.698  16.876   7.384
 4968POPC   C1B64543  34.658  16.351   6.234
 4968POPC   C2B64544  34.852  16.358   6.606
 4968POPC   C3B64545  34.613  16.392   6.986
 4968POPC   C4B64546  34.308  16.719   7.074
 4969POPC   NC364547  25.112  36.859   5.451
 4969POPC   PO464548  25.795  36.699   5.426
 4969POPC   GL164549  25.452  36.683   5.783
 4969POPC   GL264550  25.219  37.039   5.895
 4969POPC   C1A64551  25.282  36.694   6.214
 4969POPC   D2A64552  25.361  36.916   6.540
 4969POPC   C3A64553  25.304  36.693   6.887
 4969POPC   C4A64554  25.212  36.570   7.283
 4969POPC   C1B64555  24.960  37.133   6.266
 4969POPC   C2B64556  25.122  37.360   6.617
 4969POPC   C3B64557  25.310  37.197   6.973
 4969POPC   C4B64558  24.977  37.006   7.166
 4970POPC   NC364559  38.145   8.487   5.609
 4970POPC   PO464560  37.641   8.946   5.429
 4970POPC   GL164561  37.757   9.149   5.838
 4970POPC   GL264562  38.086   9.224   5.743
 4970POPC   C1A64563  37.831   9.045   6.314
 4970POPC   D2A64564  38.005   8.903   6.757
 4970POPC   C3A64565  37.717   8.788   7.131
 4970POPC   C4A64566  37.442   8.910   7.512
 4970POPC   C1B64567  38.077   9.455   6.127
 4970POPC   C2B64568  37.956   9.471   6.595
 4970POPC   C3B64569  37.978   9.337   7.032
 4970POPC   C4B64570  37.859   9.182   7.429
 4971POPC   NC364571  16.328  23.172   5.559
 4971POPC   PO464572  15.965  22.660   5.431
 4971POPC   GL164573  16.076  22.813   5.833
 4971POPC   GL264574  15.923  23.107   5.877
 4971POPC   C1A64575  16.233  22.913   6.252
 4971POPC   D2A64576  16.404  22.914   6.667
 4971POPC   C3A64577  16.053  22.864   6.920
 4971POPC   C4A64578  16.053  22.964   7.323
 4971POPC   C1B64579  15.729  23.193   6.239
 4971POPC   C2B64580  15.621  23.055   6.655
 4971POPC   C3B64581  15.729  23.294   7.006
 4971POPC   C4B64582  15.944  23.447   7.341
 4972POPC   NC364583  31.501  31.259   5.352
 4972POPC   PO464584  31.681  32.005   5.477
 4972POPC   GL164585  31.467  31.625   5.716
 4972POPC   GL264586  31.681  31.298   5.820
 4972POPC   C1A64587  31.290  31.474   6.120
 4972POPC   D2A64588  31.096  31.661   6.492
 4972POPC   C3A64589  31.297  31.615   6.881
 4972POPC   C4A64590  31.378  31.245   7.062
 4972POPC   C1B64591  31.651  31.071   6.209
 4972POPC   C2B64592  31.691  31.304   6.603
 4972POPC   C3B64593  31.864  31.362   7.001
 4972POPC   C4B64594  31.787  31.131   7.365
 4973POPC   NC364595  42.333  40.338   5.435
 4973POPC   PO464596  42.104  40.940   5.136
 4973POPC   GL164597  42.212  40.820   5.650
 4973POPC   GL264598  42.319  40.578   5.875
 4973POPC   C1A64599  42.103  40.942   6.142
 4973POPC   D2A64600  42.062  41.151   6.578
 4973POPC   C3A64601  42.427  41.180   6.864
 4973POPC   C4A64602  42.222  41.069   7.237
 4973POPC   C1B64603  42.517  40.668   6.216
 4973POPC   C2B64604  42.384  40.767   6.581
 4973POPC   C3B64605  42.548  40.686   6.958
 4973POPC   C4B64606  42.522  40.643   7.370
 4974POPC   NC364607   5.454  19.165   5.672
 4974POPC   PO464608   5.968  19.448   5.365
 4974POPC   GL164609   6.029  19.173   5.771
 4974POPC   GL264610   5.863  18.866   5.823
 4974POPC   C1A64611   5.902  19.216   6.227
 4974POPC   D2A64612   5.832  19.037   6.648
 4974POPC   C3A64613   5.763  19.247   7.062
 4974POPC   C4A64614   6.088  19.182   7.349
 4974POPC   C1B64615   6.076  18.703   6.208
 4974POPC   C2B64616   5.996  18.558   6.643
 4974POPC   C3B64617   5.986  18.768   7.073
 4974POPC   C4B64618   6.084  18.717   7.570
 4975POPC   NC364619   5.684  20.009   5.188
 4975POPC   PO464620   6.161  20.059   5.682
 4975POPC   GL164621   6.091  19.685   5.861
 4975POPC   GL264622   5.740  19.583   5.851
 4975POPC   C1A64623   5.983  19.717   6.298
 4975POPC   D2A64624   5.962  19.608   6.707
 4975POPC   C3A64625   5.939  19.959   6.979
 4975POPC   C4A64626   5.991  19.685   7.306
 4975POPC   C1B64627   5.473  19.729   6.222
 4975POPC   C2B64628   5.532  19.917   6.645
 4975POPC   C3B64629   5.508  19.730   7.074
 4975POPC   C4B64630   5.540  19.810   7.539
 4976POPC   NC364631  28.641  34.669   5.512
 4976POPC   PO464632  29.241  34.374   5.545
 4976POPC   GL164633  29.149  34.559   5.895
 4976POPC   GL264634  28.840  34.384   5.945
 4976POPC   C1A64635  29.394  34.737   6.249
 4976POPC   D2A64636  29.544  34.587   6.669
 4976POPC   C3A64637  29.280  34.772   6.983
 4976POPC   C4A64638  29.156  34.667   7.387
 4976POPC   C1B64639  28.993  34.437   6.377
 4976POPC   C2B64640  28.844  34.524   6.788
 4976POPC   C3B64641  28.843  34.315   7.151
 4976POPC   C4B64642  28.924  34.223   7.576
 4977POPC   NC364643   4.078  22.907   5.439
 4977POPC   PO464644   4.598  22.560   5.459
 4977POPC   GL164645   4.584  22.698   5.883
 4977POPC   GL264646   4.251  22.858   5.930
 4977POPC   C1A64647   4.610  22.888   6.290
 4977POPC   D2A64648   4.332  23.029   6.590
 4977POPC   C3A64649   4.395  22.865   6.991
 4977POPC   C4A64650   4.784  22.805   7.271
 4977POPC   C1B64651   3.966  23.121   6.135
 4977POPC   C2B64652   3.922  23.341   6.497
 4977POPC   C3B64653   3.971  23.223   6.905
 4977POPC   C4B64654   3.984  23.350   7.326
 4978POPC   NC364655   5.539  32.507   5.363
 4978POPC   PO464656   6.050  32.092   5.415
 4978POPC   GL164657   5.974  31.984   5.857
 4978POPC   GL264658   6.170  31.672   5.873
 4978POPC   C1A64659   5.905  32.239   6.249
 4978POPC   D2A64660   6.019  32.583   6.572
 4978POPC   C3A64661   5.885  32.448   6.977
 4978POPC   C4A64662   5.482  32.230   7.038
 4978POPC   C1B64663   6.075  31.743   6.322
 4978POPC   C2B64664   5.919  31.949   6.706
 4978POPC   C3B64665   5.950  31.975   7.168
 4978POPC   C4B64666   6.052  31.842   7.583
 4979POPC   NC364667  40.995  21.576   5.227
 4979POPC   PO464668  40.624  21.068   5.398
 4979POPC   GL164669  40.808  21.131   5.766
 4979POPC   GL264670  40.872  21.474   5.764
 4979POPC   C1A64671  40.968  21.051   6.161
 4979POPC   D2A64672  40.977  21.280   6.550
 4979POPC   C3A64673  41.030  21.100   6.947
 4979POPC   C4A64674  40.763  21.240   7.266
 4979POPC   C1B64675  40.648  21.439   6.171
 4979POPC   C2B64676  40.608  21.643   6.563
 4979POPC   C3B64677  40.474  21.494   6.917
 4979POPC   C4B64678  40.403  21.577   7.335
 4980POPC   NC364679  41.720  28.315   5.452
 4980POPC   PO464680  41.456  28.882   5.664
 4980POPC   GL164681  41.468  28.459   5.893
 4980POPC   GL264682  41.699  28.134   5.913
 4980POPC   C1A64683  41.646  28.448   6.318
 4980POPC   D2A64684  41.656  28.272   6.713
 4980POPC   C3A64685  41.367  28.491   6.936
 4980POPC   C4A64686  41.395  28.705   7.274
 4980POPC   C1B64687  41.532  27.941   6.285
 4980POPC   C2B64688  41.359  27.839   6.699
 4980POPC   C3B64689  41.401  28.004   7.120
 4980POPC   C4B64690  41.756  28.289   7.218
 4981POPC   NC364691  38.568  42.345   5.382
 4981POPC   PO464692  38.156  42.810   5.566
 4981POPC   GL164693  38.187  42.523   5.876
 4981POPC   GL264694  38.376  42.229   5.835
 4981POPC   C1A64695  38.366  42.520   6.258
 4981POPC   D2A64696  38.380  42.365   6.635
 4981POPC   C3A64697  38.341  42.707   6.921
 4981POPC   C4A64698  38.367  42.658   7.342
 4981POPC   C1B64699  38.415  42.013   6.226
 4981POPC   C2B64700  38.330  41.834   6.623
 4981POPC   C3B64701  38.431  41.929   7.061
 4981POPC   C4B64702  38.480  42.151   7.459
 4982POPC   NC364703  41.262  29.749   5.310
 4982POPC   PO464704  40.742  30.014   5.280
 4982POPC   GL164705  40.619  30.000   5.708
 4982POPC   GL264706  40.830  29.724   5.761
 4982POPC   C1A64707  40.766  30.140   6.108
 4982POPC   D2A64708  40.770  29.967   6.504
 4982POPC   C3A64709  40.765  30.203   6.879
 4982POPC   C4A64710  40.468  30.148   7.199
 4982POPC   C1B64711  40.653  29.596   6.148
 4982POPC   C2B64712  40.786  29.458   6.553
 4982POPC   C3B64713  40.695  29.668   6.943
 4982POPC   C4B64714  40.934  29.584   7.299
 4983POPC   NC364715  36.277  39.469   5.390
 4983POPC   PO464716  35.696  39.118   5.590
 4983POPC   GL164717  36.089  39.022   5.833
 4983POPC   GL264718  36.263  39.357   5.882
 4983POPC   C1A64719  36.200  38.997   6.275
 4983POPC   D2A64720  36.048  39.312   6.572
 4983POPC   C3A64721  36.040  39.276   7.022
 4983POPC   C4A64722  35.921  39.461   7.406
 4983POPC   C1B64723  36.487  39.420   6.256
 4983POPC   C2B64724  36.537  39.194   6.642
 4983POPC   C3B64725  36.522  39.067   7.045
 4983POPC   C4B64726  36.452  39.077   7.493
 4984POPC   NC364727   8.683  21.452   5.277
 4984POPC   PO464728   9.279  21.344   5.165
 4984POPC   GL164729   9.051  21.340   5.626
 4984POPC   GL264730   8.829  21.642   5.729
 4984POPC   C1A64731   9.065  21.339   6.126
 4984POPC   D2A64732   9.289  21.344   6.577
 4984POPC   C3A64733   9.094  21.257   7.023
 4984POPC   C4A64734   9.002  21.251   7.525
 4984POPC   C1B64735   8.705  21.777   6.122
 4984POPC   C2B64736   8.854  21.642   6.523
 4984POPC   C3B64737   8.698  21.710   6.921
 4984POPC   C4B64738   8.638  21.403   7.222
 4985POPC   NC364739  36.691  22.725   5.468
 4985POPC   PO464740  37.122  23.229   5.466
 4985POPC   GL164741  36.956  23.027   5.855
 4985POPC   GL264742  37.026  22.653   5.839
 4985POPC   C1A64743  36.820  23.159   6.285
 4985POPC   D2A64744  36.812  23.415   6.688
 4985POPC   C3A64745  36.778  23.200   7.050
 4985POPC   C4A64746  37.140  23.101   7.294
 4985POPC   C1B64747  36.798  22.620   6.238
 4985POPC   C2B64748  36.807  22.805   6.667
 4985POPC   C3B64749  36.701  22.674   7.091
 4985POPC   C4B64750  36.464  22.604   7.483
 4986POPC   NC364751  13.703  19.878   5.368
 4986POPC   PO464752  13.143  19.802   5.760
 4986POPC   GL164753  13.605  19.797   5.858
 4986POPC   GL264754  13.751  20.127   5.875
 4986POPC   C1A64755  13.859  19.718   6.238
 4986POPC   D2A64756  13.554  19.617   6.577
 4986POPC   C3A64757  13.592  19.788   6.976
 4986POPC   C4A64758  13.719  19.492   7.280
 4986POPC   C1B64759  13.481  20.055   6.281
 4986POPC   C2B64760  13.276  20.117   6.701
 4986POPC   C3B64761  13.371  20.232   7.148
 4986POPC   C4B64762  13.650  19.970   7.463
 4987POPC   NC364763  27.427   3.869   5.363
 4987POPC   PO464764  27.602   3.126   5.351
 4987POPC   GL164765  27.633   3.402   5.726
 4987POPC   GL264766  27.663   3.792   5.799
 4987POPC   C1A64767  27.776   3.444   6.160
 4987POPC   D2A64768  27.618   3.297   6.552
 4987POPC   C3A64769  27.858   3.470   6.887
 4987POPC   C4A64770  27.768   3.324   7.278
 4987POPC   C1B64771  27.335   3.675   6.104
 4987POPC   C2B64772  27.303   3.712   6.592
 4987POPC   C3B64773  27.406   3.666   7.060
 4987POPC   C4B64774  27.178   3.739   7.470
 4988POPC   NC364775   7.633  23.041   5.284
 4988POPC   PO464776   7.722  22.417   5.543
 4988POPC   GL164777   7.578  22.838   5.799
 4988POPC   GL264778   7.503  23.207   5.766
 4988POPC   C1A64779   7.308  22.997   6.192
 4988POPC   D2A64780   7.221  22.835   6.605
 4988POPC   C3A64781   7.612  22.774   6.812
 4988POPC   C4A64782   7.676  22.617   7.240
 4988POPC   C1B64783   7.653  23.382   6.205
 4988POPC   C2B64784   7.482  23.295   6.673
 4988POPC   C3B64785   7.436  23.119   7.133
 4988POPC   C4B64786   7.324  23.284   7.556
 4989POPC   NC364787   4.288  23.859   5.253
 4989POPC   PO464788   3.970  23.343   5.503
 4989POPC   GL164789   4.369  23.498   5.690
 4989POPC   GL264790   4.599  23.218   5.822
 4989POPC   C1A64791   4.307  23.851   5.979
 4989POPC   D2A64792   3.990  23.857   6.319
 4989POPC   C3A64793   4.028  23.919   6.745
 4989POPC   C4A64794   4.161  23.763   7.109
 4989POPC   C1B64795   4.394  23.386   6.205
 4989POPC   C2B64796   4.367  23.555   6.624
 4989POPC   C3B64797   4.448  23.370   7.004
 4989POPC   C4B64798   4.460  23.185   7.391
 4990POPC   NC364799  21.619  23.423   5.483
 4990POPC   PO464800  21.402  22.846   5.215
 4990POPC   GL164801  21.367  22.989   5.702
 4990POPC   GL264802  21.193  23.255   5.818
 4990POPC   C1A64803  21.384  22.918   6.206
 4990POPC   D2A64804  21.477  22.707   6.635
 4990POPC   C3A64805  21.270  22.650   7.039
 4990POPC   C4A64806  21.192  22.954   7.354
 4990POPC   C1B64807  21.127  23.380   6.233
 4990POPC   C2B64808  21.179  23.214   6.653
 4990POPC   C3B64809  21.029  23.346   7.073
 4990POPC   C4B64810  21.190  23.457   7.515
 4991POPC   NC364811  25.025  44.486   5.268
 4991POPC   PO464812  25.516  44.971   5.277
 4991POPC   GL164813  25.311  44.806   5.647
 4991POPC   GL264814  25.142  44.570   5.758
 4991POPC   C1A64815  25.399  44.842   6.105
 4991POPC   D2A64816  25.245  44.917   6.534
 4991POPC   C3A64817  25.493  44.678   6.800
 4991POPC   C4A64818  25.515  44.494   7.219
 4991POPC   C1B64819  25.050  44.412   6.166
 4991POPC   C2B64820  24.851  44.526   6.553
 4991POPC   C3B64821  25.040  44.538   6.996
 4991POPC   C4B64822  25.059  44.705   7.443
 4992POPC   NC364823  16.032   8.873   5.347
 4992POPC   PO464824  16.082   9.399   5.759
 4992POPC   GL164825  15.941   8.970   5.851
 4992POPC   GL264826  16.269   8.832   5.795
 4992POPC   C1A64827  15.791   8.882   6.261
 4992POPC   D2A64828  15.894   9.145   6.631
 4992POPC   C3A64829  15.632   9.215   7.004
 4992POPC   C4A64830  15.694   9.142   7.446
 4992POPC   C1B64831  16.202   8.601   6.164
 4992POPC   C2B64832  16.181   8.718   6.585
 4992POPC   C3B64833  16.320   9.009   6.901
 4992POPC   C4B64834  16.195   8.939   7.304
 4993POPC   NC364835  30.144  32.515   5.305
 4993POPC   PO464836  30.839  32.539   5.407
 4993POPC   GL164837  30.556  32.473   5.781
 4993POPC   GL264838  30.517  32.105   5.810
 4993POPC   C1A64839  30.496  32.446   6.254
 4993POPC   D2A64840  30.481  32.234   6.665
 4993POPC   C3A64841  30.695  32.480   7.004
 4993POPC   C4A64842  31.004  32.383   7.339
 4993POPC   C1B64843  30.709  31.948   6.188
 4993POPC   C2B64844  30.599  31.722   6.556
 4993POPC   C3B64845  30.782  31.725   6.932
 4993POPC   C4B64846  30.659  32.022   7.206
 4994POPC   NC364847  27.606   0.078   5.410
 4994POPC   PO464848  27.292   0.761   5.476
 4994POPC   GL164849  27.300   0.530   5.855
 4994POPC   GL264850  27.611   0.338   5.846
 4994POPC   C1A64851  27.523   0.610   6.264
 4994POPC   D2A64852  27.582   0.713   6.688
 4994POPC   C3A64853  27.925   0.688   6.972
 4994POPC   C4A64854  27.584   0.675   7.244
 4994POPC   C1B64855  27.639   0.107   6.246
 4994POPC   C2B64856  27.626   0.190   6.694
 4994POPC   C3B64857  27.734   0.204   7.115
 4994POPC   C4B64858  28.032  44.968   7.274
 4995POPC   NC364859  44.888   5.501   4.976
 4995POPC   PO464860  44.784   5.096   5.370
 4995POPC   GL164861  44.765   5.082   5.810
 4995POPC   GL264862  44.448   5.229   5.897
 4995POPC   C1A64863  44.768   4.957   6.236
 4995POPC   D2A64864  44.530   4.747   6.554
 4995POPC   C3A64865  44.654   4.879   6.943
 4995POPC   C4A64866  44.615   5.231   7.238
 4995POPC   C1B64867  44.592   5.451   6.298
 4995POPC   C2B64868  44.646   5.583   6.753
 4995POPC   C3B64869  44.651   5.736   7.198
 4995POPC   C4B64870  44.618   5.580   7.628
 4996POPC   NC364871  11.691  13.167   5.316
 4996POPC   PO464872  11.632  12.492   5.348
 4996POPC   GL164873  11.785  12.710   5.730
 4996POPC   GL264874  12.100  12.893   5.723
 4996POPC   C1A64875  11.906  12.855   6.167
 4996POPC   D2A64876  11.765  13.008   6.529
 4996POPC   C3A64877  11.884  12.890   6.919
 4996POPC   C4A64878  11.757  13.079   7.265
 4996POPC   C1B64879  12.399  12.888   6.057
 4996POPC   C2B64880  12.300  12.865   6.506
 4996POPC   C3B64881  12.362  12.728   6.908
 4996POPC   C4B64882  12.252  12.635   7.311
 4997POPC   NC364883  15.137  19.372   5.158
 4997POPC   PO464884  15.292  18.748   5.325
 4997POPC   GL164885  15.088  19.021   5.617
 4997POPC   GL264886  15.184  19.379   5.677
 4997POPC   C1A64887  15.087  19.097   6.075
 4997POPC   D2A64888  15.077  19.231   6.500
 4997POPC   C3A64889  15.044  18.963   6.852
 4997POPC   C4A64890  15.177  19.086   7.248
 4997POPC   C1B64891  15.492  19.445   6.050
 4997POPC   C2B64892  15.631  19.349   6.483
 4997POPC   C3B64893  15.419  19.330   6.876
 4997POPC   C4B64894  15.319  19.580   7.228
 4998POPC   NC364895   2.150   2.681   5.302
 4998POPC   PO464896   1.460   2.668   5.268
 4998POPC   GL164897   1.768   2.711   5.677
 4998POPC   GL264898   2.097   2.930   5.779
 4998POPC   C1A64899   1.904   2.615   6.135
 4998POPC   D2A64900   1.989   2.435   6.553
 4998POPC   C3A64901   1.815   2.707   6.867
 4998POPC   C4A64902   1.637   2.944   7.230
 4998POPC   C1B64903   2.366   2.877   6.211
 4998POPC   C2B64904   2.321   2.826   6.701
 4998POPC   C3B64905   2.223   2.700   7.145
 4998POPC   C4B64906   2.030   2.363   7.420
 4999POPC   NC364907   6.552  42.044   5.132
 4999POPC   PO464908   6.885  42.275   5.630
 4999POPC   GL164909   6.726  42.345   6.016
 4999POPC   GL264910   6.776  41.982   6.132
 4999POPC   C1A64911   6.546  42.366   6.429
 4999POPC   D2A64912   6.409  42.060   6.719
 4999POPC   C3A64913   6.400  42.275   7.100
 4999POPC   C4A64914   6.344  42.731   7.125
 4999POPC   C1B64915   7.046  42.250   6.424
 4999POPC   C2B64916   6.956  42.686   6.553
 4999POPC   C3B64917   6.782  42.569   6.909
 4999POPC   C4B64918   6.958  42.179   7.046
 5000POPC   NC364919  16.982  28.083   5.392
 5000POPC   PO464920  16.687  28.697   5.545
 5000POPC   GL164921  16.570  28.462   5.863
 5000POPC   GL264922  16.493  28.162   5.646
 5000POPC   C1A64923  16.754  28.380   6.291
 5000POPC   D2A64924  17.116  28.494   6.578
 5000POPC   C3A64925  17.061  28.405   7.041
 5000POPC   C4A64926  16.700  28.416   7.332
 5000POPC   C1B64927  16.385  28.046   6.068
 5000POPC   C2B64928  16.420  28.032   6.521
 5000POPC   C3B64929  16.601  28.093   6.919
 5000POPC   C4B64930  16.308  28.098   7.273
 5001POPC   NC364931  44.919  19.056   5.326
 5001POPC   PO464932  44.879  19.707   5.580
 5001POPC   GL164933  44.740  19.343   5.849
 5001POPC   GL264934  44.793  18.982   5.807
 5001POPC   C1A64935  44.764  19.172   6.284
 5001POPC   D2A64936  44.642  18.866   6.575
 5001POPC   C3A64937  44.608  19.063   6.944
 5001POPC   C4A64938  44.766  19.287   7.239
 5001POPC   C1B64939  44.914  18.713   6.121
 5001POPC   C2B64940   0.169  18.780   6.474
 5001POPC   C3B64941   0.046  18.783   6.895
 5001POPC   C4B64942   0.094  18.860   7.300
 5002POPC   NC364943  38.161  37.036   5.371
 5002POPC   PO464944  38.782  36.841   5.457
 5002POPC   GL164945  38.507  37.041   5.753
 5002POPC   GL264946  38.345  36.740   5.875
 5002POPC   C1A64947  38.350  37.151   6.169
 5002POPC   D2A64948  38.377  36.915   6.547
 5002POPC   C3A64949  38.320  37.131   6.934
 5002POPC   C4A64950  38.459  36.983   7.314
 5002POPC   C1B64951  38.416  36.471   6.240
 5002POPC   C2B64952  38.574  36.456   6.661
 5002POPC   C3B64953  38.384  36.509   7.063
 5002POPC   C4B64954  38.304  36.540   7.523
 5003POPC   NC364955  36.463  10.602   5.672
 5003POPC   PO464956  35.901  10.778   5.280
 5003POPC   GL164957  35.976  10.516   5.743
 5003POPC   GL264958  35.718  10.445   5.991
 5003POPC   C1A64959  36.177  10.452   6.229
 5003POPC   D2A64960  36.376  10.577   6.630
 5003POPC   C3A64961  36.210  10.416   7.019
 5003POPC   C4A64962  36.140  10.364   7.435
 5003POPC   C1B64963  35.881  10.861   6.175
 5003POPC   C2B64964  35.992  10.957   6.625
 5003POPC   C3B64965  35.822  10.771   7.026
 5003POPC   C4B64966  35.650  10.437   7.309
 5004POPC   NC364967  10.949  38.528   5.488
 5004POPC   PO464968  10.338  38.072   5.492
 5004POPC   GL164969  10.503  38.140   5.891
 5004POPC   GL264970  10.533  38.522   5.876
 5004POPC   C1A64971  10.398  38.267   6.332
 5004POPC   D2A64972  10.659  38.376   6.691
 5004POPC   C3A64973  10.651  38.072   7.036
 5004POPC   C4A64974  10.351  38.071   7.405
 5004POPC   C1B64975  10.579  38.803   6.244
 5004POPC   C2B64976  10.713  38.924   6.649
 5004POPC   C3B64977  10.700  38.777   7.035
 5004POPC   C4B64978  10.376  38.766   7.304
 5005POPC   NC364979  28.959  31.416   5.319
 5005POPC   PO464980  29.600  31.101   5.439
 5005POPC   GL164981  29.470  31.391   5.802
 5005POPC   GL264982  29.100  31.454   5.813
 5005POPC   C1A64983  29.334  31.297   6.233
 5005POPC   D2A64984  29.164  31.065   6.595
 5005POPC   C3A64985  29.325  31.299   6.957
 5005POPC   C4A64986  29.269  31.313   7.435
 5005POPC   C1B64987  28.865  31.510   6.209
 5005POPC   C2B64988  28.972  31.550   6.674
 5005POPC   C3B64989  28.935  31.586   7.144
 5005POPC   C4B64990  28.858  31.966   7.370
 5006POPC   NC364991   4.696  32.915   5.398
 5006POPC   PO464992   5.124  32.253   5.405
 5006POPC   GL164993   5.208  32.259   5.862
 5006POPC   GL264994   5.554  32.309   5.881
 5006POPC   C1A64995   4.976  32.147   6.265
 5006POPC   D2A64996   4.804  31.899   6.567
 5006POPC   C3A64997   4.974  32.070   6.910
 5006POPC   C4A64998   4.805  32.166   7.287
 5006POPC   C1B64999   5.411  32.402   6.326
 5006POPC   C2B65000   5.101  32.519   6.665
 5006POPC   C3B65001   5.081  32.543   7.127
 5006POPC   C4B65002   4.926  32.552   7.596
 5007POPC   NC365003  31.768  15.526   5.440
 5007POPC   PO465004  31.315  14.940   5.357
 5007POPC   GL165005  31.417  15.221   5.690
 5007POPC   GL265006  31.718  15.075   5.772
 5007POPC   C1A65007  31.428  15.320   6.137
 5007POPC   D2A65008  31.361  15.142   6.545
 5007POPC   C3A65009  31.487  15.361   6.901
 5007POPC   C4A65010  31.393  15.284   7.291
 5007POPC   C1B65011  31.856  15.023   6.212
 5007POPC   C2B65012  31.865  15.138   6.648
 5007POPC   C3B65013  31.831  15.024   7.089
 5007POPC   C4B65014  31.881  15.242   7.469
 5008POPC   NC365015  44.299  21.723   5.416
 5008POPC   PO465016  43.849  21.201   5.484
 5008POPC   GL165017  43.892  21.474   5.844
 5008POPC   GL265018  44.194  21.659   5.905
 5008POPC   C1A65019  43.851  21.341   6.269
 5008POPC   D2A65020  43.465  21.149   6.437
 5008POPC   C3A65021  43.538  21.151   6.869
 5008POPC   C4A65022  43.879  21.380   7.112
 5008POPC   C1B65023  44.335  21.559   6.295
 5008POPC   C2B65024  44.181  21.504   6.705
 5008POPC   C3B65025  44.371  21.634   7.103
 5008POPC   C4B65026  44.212  21.666   7.507
 5009POPC   NC365027  11.097  17.870   5.568
 5009POPC   PO465028  11.155  18.556   5.756
 5009POPC   GL165029  11.333  18.366   6.098
 5009POPC   GL265030  11.419  18.047   5.961
 5009POPC   C1A65031  11.392  18.147   6.487
 5009POPC   D2A65032  11.633  17.970   6.788
 5009POPC   C3A65033  11.787  18.341   6.979
 5009POPC   C4A65034  11.485  18.661   7.099
 5009POPC   C1B65035  11.041  17.913   6.211
 5009POPC   C2B65036  10.872  18.163   6.562
 5009POPC   C3B65037  11.111  18.387   6.865
 5009POPC   C4B65038  11.331  18.127   7.176
 5010POPC   NC365039  40.364  34.549   5.395
 5010POPC   PO465040  41.002  34.361   5.430
 5010POPC   GL165041  40.820  34.596   5.799
 5010POPC   GL265042  40.517  34.786   5.810
 5010POPC   C1A65043  40.652  34.516   6.253
 5010POPC   D2A65044  40.763  34.336   6.674
 5010POPC   C3A65045  40.616  34.525   7.024
 5010POPC   C4A65046  40.915  34.801   7.185
 5010POPC   C1B65047  40.382  34.970   6.176
 5010POPC   C2B65048  40.331  34.825   6.582
 5010POPC   C3B65049  40.356  35.041   6.952
 5010POPC   C4B65050  40.453  34.908   7.323
 5011POPC   NC365051  33.958  44.057   5.502
 5011POPC   PO465052  33.554  43.559   5.491
 5011POPC   GL165053  33.595  43.833   5.887
 5011POPC   GL265054  33.264  44.011   5.939
 5011POPC   C1A65055  33.941  43.967   6.222
 5011POPC   D2A65056  34.236  43.854   6.606
 5011POPC   C3A65057  34.137  43.996   7.055
 5011POPC   C4A65058  33.717  44.012   7.274
 5011POPC   C1B65059  33.425  44.005   6.370
 5011POPC   C2B65060  33.750  44.028   6.700
 5011POPC   C3B65061  33.841  43.632   6.901
 5011POPC   C4B65062  33.640  43.524   7.255
 5012POPC   NC365063  22.052   8.308   5.388
 5012POPC   PO465064  22.622   8.361   5.510
 5012POPC   GL165065  22.285   8.396   5.856
 5012POPC   GL265066  21.887   8.462   5.825
 5012POPC   C1A65067  22.322   8.358   6.309
 5012POPC   D2A65068  22.176   7.976   6.523
 5012POPC   C3A65069  22.279   7.964   6.980
 5012POPC   C4A65070  22.406   8.423   7.124
 5012POPC   C1B65071  21.872   8.214   6.140
 5012POPC   C2B65072  21.834   8.411   6.474
 5012POPC   C3B65073  22.007   8.354   6.822
 5012POPC   C4B65074  21.880   8.382   7.233
 5013POPC   NC365075  13.012   4.413   5.272
 5013POPC   PO465076  12.431   4.623   5.331
 5013POPC   GL165077  12.649   4.382   5.695
 5013POPC   GL265078  12.997   4.295   5.759
 5013POPC   C1A65079  12.696   4.299   6.159
 5013POPC   D2A65080  12.822   4.043   6.505
 5013POPC   C3A65081  12.697   4.226   6.889
 5013POPC   C4A65082  12.604   4.195   7.290
 5013POPC   C1B65083  13.206   4.180   6.143
 5013POPC   C2B65084  13.358   4.020   6.537
 5013POPC   C3B65085  13.159   3.980   6.940
 5013POPC   C4B65086  13.119   4.300   7.237
 5014POPC   NC365087  18.039   3.332   5.418
 5014POPC   PO465088  18.641   3.245   5.547
 5014POPC   GL165089  18.349   3.394   5.847
 5014POPC   GL265090  18.145   3.692   5.775
 5014POPC   C1A65091  18.447   3.489   6.262
 5014POPC   D2A65092  18.239   3.368   6.612
 5014POPC   C3A65093  18.237   3.519   6.960
 5014POPC   C4A65094  18.328   3.546   7.332
 5014POPC   C1B65095  17.892   3.872   6.109
 5014POPC   C2B65096  17.959   3.804   6.535
 5014POPC   C3B65097  17.807   3.826   6.948
 5014POPC   C4B65098  17.928   3.844   7.377
 5015POPC   NC365099  26.264   9.859   5.466
 5015POPC   PO465100  25.653   9.514   5.276
 5015POPC   GL165101  25.676   9.618   5.706
 5015POPC   GL265102  25.938   9.839   5.846
 5015POPC   C1A65103  25.704   9.562   6.175
 5015POPC   D2A65104  25.898   9.472   6.576
 5015POPC   C3A65105  25.702   9.625   6.970
 5015POPC   C4A65106  26.010   9.782   7.230
 5015POPC   C1B65107  26.217   9.788   6.243
 5015POPC   C2B65108  26.570   9.988   6.483
 5015POPC   C3B65109  26.378  10.005   6.896
 5015POPC   C4B65110  26.473   9.968   7.329
 5016POPC   NC365111  43.745   1.452   5.449
 5016POPC   PO465112  44.145   0.850   5.305
 5016POPC   GL165113  44.233   1.121   5.745
 5016POPC   GL265114  44.179   1.527   5.782
 5016POPC   C1A65115  44.018   1.236   6.150
 5016POPC   D2A65116  43.700   1.183   6.457
 5016POPC   C3A65117  43.940   1.238   6.839
 5016POPC   C4A65118  43.801   1.148   7.253
 5016POPC   C1B65119  44.219   1.750   6.223
 5016POPC   C2B65120  44.264   1.810   6.719
 5016POPC   C3B65121  44.211   1.597   7.129
 5016POPC   C4B65122  44.221   1.324   7.515
 5017POPC   NC365123  39.236  31.214   5.543
 5017POPC   PO465124  39.392  31.879   5.559
 5017POPC   GL165125  39.212  31.605   5.873
 5017POPC   GL265126  38.903  31.565   5.714
 5017POPC   C1A65127  39.357  31.384   6.259
 5017POPC   D2A65128  39.366  31.550   6.696
 5017POPC   C3A65129  39.280  31.544   7.150
 5017POPC   C4A65130  39.570  31.729   7.503
 5017POPC   C1B65131  38.854  31.324   6.123
 5017POPC   C2B65132  38.978  31.219   6.555
 5017POPC   C3B65133  38.811  31.256   6.951
 5017POPC   C4B65134  38.850  31.320   7.382
 5018POPC   NC365135  23.830  33.686   5.426
 5018POPC   PO465136  23.378  34.198   5.642
 5018POPC   GL165137  23.406  33.811   5.933
 5018POPC   GL265138  23.711  33.603   5.903
 5018POPC   C1A65139  23.521  33.592   6.363
 5018POPC   D2A65140  23.617  33.658   6.809
 5018POPC   C3A65141  23.332  33.813   7.073
 5018POPC   C4A65142  23.216  33.622   7.443
 5018POPC   C1B65143  23.847  33.943   6.182
 5018POPC   C2B65144  23.759  34.100   6.577
 5018POPC   C3B65145  23.894  34.099   6.984
 5018POPC   C4B65146  23.763  33.881   7.324
 5019POPC   NC365147  41.269  42.971   5.566
 5019POPC   PO465148  40.615  42.810   5.453
 5019POPC   GL165149  40.829  42.827   5.821
 5019POPC   GL265150  40.859  43.172   5.809
 5019POPC   C1A65151  40.973  42.801   6.257
 5019POPC   D2A65152  40.713  42.913   6.606
 5019POPC   C3A65153  40.853  43.016   7.032
 5019POPC   C4A65154  41.034  42.818   7.412
 5019POPC   C1B65155  40.649  43.225   6.183
 5019POPC   C2B65156  40.751  43.421   6.587
 5019POPC   C3B65157  40.633  43.525   7.029
 5019POPC   C4B65158  40.608  43.282   7.413
 5020POPC   NC365159  43.993  40.495   5.564
 5020POPC   PO465160  43.672  40.988   5.438
 5020POPC   GL165161  43.820  40.917   5.848
 5020POPC   GL265162  43.660  40.623   5.913
 5020POPC   C1A65163  43.981  40.969   6.277
 5020POPC   D2A65164  44.021  41.228   6.633
 5020POPC   C3A65165  43.981  40.999   7.060
 5020POPC   C4A65166  43.792  41.028   7.513
 5020POPC   C1B65167  43.959  40.456   6.222
 5020POPC   C2B65168  43.965  40.346   6.654
 5020POPC   C3B65169  43.781  40.532   7.015
 5020POPC   C4B65170  43.981  40.580   7.399
 5021POPC   NC365171  24.069  16.952   5.548
 5021POPC   PO465172  24.604  16.595   5.459
 5021POPC   GL165173  24.344  16.628   5.848
 5021POPC   GL265174  24.506  16.935   5.847
 5021POPC   C1A65175  24.261  16.906   6.265
 5021POPC   D2A65176  24.146  16.869   6.687
 5021POPC   C3A65177  24.376  16.801   7.052
 5021POPC   C4A65178  24.197  16.904   7.432
 5021POPC   C1B65179  24.723  16.659   6.199
 5021POPC   C2B65180  24.717  16.658   6.652
 5021POPC   C3B65181  24.838  16.593   7.071
 5021POPC   C4B65182  24.851  16.761   7.483
 5022POPC   NC365183  36.948  40.220   5.459
 5022POPC   PO465184  36.750  39.564   5.430
 5022POPC   GL165185  36.597  39.797   5.772
 5022POPC   GL265186  36.937  39.896   5.869
 5022POPC   C1A65187  36.564  39.958   6.202
 5022POPC   D2A65188  36.877  39.922   6.517
 5022POPC   C3A65189  36.838  40.096   6.925
 5022POPC   C4A65190  36.636  39.989   7.312
 5022POPC   C1B65191  37.297  39.907   6.140
 5022POPC   C2B65192  37.415  39.712   6.502
 5022POPC   C3B65193  37.276  39.841   6.856
 5022POPC   C4B65194  37.067  39.745   7.220
 5023POPC   NC365195   2.955  17.215   5.561
 5023POPC   PO465196   2.519  17.644   5.455
 5023POPC   GL165197   2.537  17.384   5.817
 5023POPC   GL265198   2.808  17.620   5.883
 5023POPC   C1A65199   2.693  17.238   6.231
 5023POPC   D2A65200   2.692  16.989   6.628
 5023POPC   C3A65201   3.025  17.110   6.893
 5023POPC   C4A65202   2.845  17.376   7.169
 5023POPC   C1B65203   2.488  17.731   6.175
 5023POPC   C2B65204   2.515  17.588   6.594
 5023POPC   C3B65205   2.577  17.842   6.935
 5023POPC   C4B65206   2.832  17.865   7.286
 5024POPC   NC365207   8.278  41.842   5.331
 5024POPC   PO465208   7.760  41.372   5.197
 5024POPC   GL165209   7.958  41.579   5.676
 5024POPC   GL265210   8.140  41.881   5.800
 5024POPC   C1A65211   8.206  41.477   6.130
 5024POPC   D2A65212   8.180  41.207   6.557
 5024POPC   C3A65213   8.411  41.239   6.967
 5024POPC   C4A65214   8.662  41.266   7.361
 5024POPC   C1B65215   8.025  41.974   6.161
 5024POPC   C2B65216   8.223  41.912   6.523
 5024POPC   C3B65217   8.175  41.756   6.900
 5024POPC   C4B65218   8.312  41.676   7.291
 5025POPC   NC365219  28.461  15.723   5.284
 5025POPC   PO465220  28.805  16.295   5.226
 5025POPC   GL165221  28.607  16.124   5.679
 5025POPC   GL265222  28.408  15.812   5.783
 5025POPC   C1A65223  28.561  16.094   6.173
 5025POPC   D2A65224  28.618  15.857   6.561
 5025POPC   C3A65225  28.305  15.950   6.868
 5025POPC   C4A65226  28.422  16.181   7.203
 5025POPC   C1B65227  28.127  15.807   6.172
 5025POPC   C2B65228  27.914  15.748   6.576
 5025POPC   C3B65229  28.001  15.529   6.955
 5025POPC   C4B65230  28.176  15.669   7.331
 5026POPC   NC365231  44.541   4.716   5.489
 5026POPC   PO465232  44.910   4.202   5.295
 5026POPC   GL165233  44.898   4.212   5.748
 5026POPC   GL265234  44.970   4.567   5.822
 5026POPC   C1A65235  44.687   3.957   6.088
 5026POPC   D2A65236  44.587   3.957   6.517
 5026POPC   C3A65237  44.384   4.271   6.739
 5026POPC   C4A65238  44.586   4.393   7.111
 5026POPC   C1B65239  44.790   4.438   6.235
 5026POPC   C2B65240  44.893   4.410   6.682
 5026POPC   C3B65241   0.066   4.549   7.081
 5026POPC   C4B65242  44.742   4.772   7.427
 5027POPC   NC365243  21.472  36.678   5.356
 5027POPC   PO465244  20.950  36.395   5.618
 5027POPC   GL165245  21.279  36.808   5.792
 5027POPC   GL265246  21.655  36.897   5.848
 5027POPC   C1A65247  21.296  36.908   6.213
 5027POPC   D2A65248  21.125  37.047   6.588
 5027POPC   C3A65249  21.226  36.773   6.935
 5027POPC   C4A65250  21.150  36.906   7.339
 5027POPC   C1B65251  21.765  36.663   6.185
 5027POPC   C2B65252  21.705  36.439   6.542
 5027POPC   C3B65253  21.765  36.686   6.904
 5027POPC   C4B65254  21.630  36.976   7.208
 5028POPC   NC365255  14.458  18.734   5.487
 5028POPC   PO465256  14.708  19.301   5.308
 5028POPC   GL165257  14.644  19.186   5.797
 5028POPC   GL265258  14.663  18.821   5.956
 5028POPC   C1A65259  14.612  19.246   6.274
 5028POPC   D2A65260  14.512  19.401   6.722
 5028POPC   C3A65261  14.685  19.221   7.134
 5028POPC   C4A65262  14.785  18.759   7.291
 5028POPC   C1B65263  14.253  18.835   6.222
 5028POPC   C2B65264  14.106  18.841   6.694
 5028POPC   C3B65265  14.314  18.840   7.125
 5028POPC   C4B65266  14.225  18.780   7.610
 5029POPC   NC365267   7.386  12.506   5.394
 5029POPC   PO465268   7.052  13.010   5.233
 5029POPC   GL165269   7.082  12.790   5.689
 5029POPC   GL265270   7.411  12.791   5.854
 5029POPC   C1A65271   7.045  12.649   6.164
 5029POPC   D2A65272   7.355  12.587   6.511
 5029POPC   C3A65273   7.165  12.613   6.933
 5029POPC   C4A65274   7.065  12.944   7.200
 5029POPC   C1B65275   7.740  12.637   6.149
 5029POPC   C2B65276   7.902  12.690   6.573
 5029POPC   C3B65277   7.667  12.743   6.929
 5029POPC   C4B65278   7.516  12.653   7.328
 5030POPC   NC365279  41.470   5.635   5.350
 5030POPC   PO465280  41.933   6.088   5.160
 5030POPC   GL165281  41.761   5.938   5.637
 5030POPC   GL265282  41.384   5.964   5.732
 5030POPC   C1A65283  41.654   5.609   6.036
 5030POPC   D2A65284  41.588   5.404   6.505
 5030POPC   C3A65285  41.747   5.559   6.963
 5030POPC   C4A65286  41.900   5.880   7.320
 5030POPC   C1B65287  41.569   6.124   6.140
 5030POPC   C2B65288  41.665   6.320   6.565
 5030POPC   C3B65289  41.725   6.274   7.032
 5030POPC   C4B65290  41.507   6.177   7.451
 5031POPC   NC365291  35.804  36.262   5.621
 5031POPC   PO465292  36.483  36.070   5.484
 5031POPC   GL165293  36.371  36.210   5.859
 5031POPC   GL265294  36.124  35.944   5.890
 5031POPC   C1A65295  36.245  36.315   6.272
 5031POPC   D2A65296  35.985  36.203   6.635
 5031POPC   C3A65297  36.234  36.316   7.026
 5031POPC   C4A65298  35.995  36.228   7.428
 5031POPC   C1B65299  36.214  35.792   6.307
 5031POPC   C2B65300  36.388  35.919   6.705
 5031POPC   C3B65301  36.204  35.825   7.153
 5031POPC   C4B65302  36.151  35.782   7.635
 5032POPC   NC365303  20.717  35.092   5.430
 5032POPC   PO465304  21.114  35.700   5.379
 5032POPC   GL165305  20.910  35.465   5.725
 5032POPC   GL265306  20.548  35.559   5.786
 5032POPC   C1A65307  20.875  35.330   6.164
 5032POPC   D2A65308  20.664  35.418   6.568
 5032POPC   C3A65309  20.867  35.302   6.935
 5032POPC   C4A65310  21.011  34.961   7.143
 5032POPC   C1B65311  20.309  35.493   6.194
 5032POPC   C2B65312  20.195  35.585   6.665
 5032POPC   C3B65313  20.371  35.413   7.048
 5032POPC   C4B65314  20.296  35.065   7.309
 5033POPC   NC365315   3.762  40.529   5.505
 5033POPC   PO465316   3.363  41.196   5.459
 5033POPC   GL165317   3.370  40.915   5.808
 5033POPC   GL265318   3.716  40.944   5.797
 5033POPC   C1A65319   3.450  40.664   6.209
 5033POPC   D2A65320   3.417  40.474   6.622
 5033POPC   C3A65321   3.394  40.833   6.883
 5033POPC   C4A65322   3.396  40.909   7.290
 5033POPC   C1B65323   3.836  41.043   6.182
 5033POPC   C2B65324   3.800  40.848   6.570
 5033POPC   C3B65325   3.993  40.840   6.951
 5033POPC   C4B65326   3.909  40.918   7.381
 5034POPC   NC365327  34.719  25.832   5.496
 5034POPC   PO465328  34.335  26.380   5.468
 5034POPC   GL165329  34.555  26.263   5.813
 5034POPC   GL265330  34.344  25.983   5.806
 5034POPC   C1A65331  34.726  25.990   6.132
 5034POPC   D2A65332  34.755  25.855   6.528
 5034POPC   C3A65333  34.968  26.117   6.784
 5034POPC   C4A65334  34.884  26.127   7.241
 5034POPC   C1B65335  34.224  26.125   6.212
 5034POPC   C2B65336  34.269  26.032   6.625
 5034POPC   C3B65337  34.499  25.946   6.950
 5034POPC   C4B65338  34.306  25.892   7.285
 5035POPC   NC365339  10.312  17.292   5.660
 5035POPC   PO465340   9.708  17.541   5.410
 5035POPC   GL165341   9.540  17.436   5.807
 5035POPC   GL265342   9.510  17.085   5.727
 5035POPC   C1A65343   9.677  17.527   6.239
 5035POPC   D2A65344   9.684  17.833   6.589
 5035POPC   C3A65345   9.616  17.651   7.009
 5035POPC   C4A65346   9.894  17.745   7.370
 5035POPC   C1B65347   9.754  17.008   6.094
 5035POPC   C2B65348   9.628  17.041   6.527
 5035POPC   C3B65349   9.571  17.129   6.974
 5035POPC   C4B65350   9.695  17.246   7.389
 5036POPC   NC365351  14.671  31.318   5.302
 5036POPC   PO465352  14.112  31.469   5.485
 5036POPC   GL165353  14.202  31.633   5.847
 5036POPC   GL265354  14.532  31.580   5.853
 5036POPC   C1A65355  14.235  31.527   6.269
 5036POPC   D2A65356  14.053  31.510   6.648
 5036POPC   C3A65357  14.254  31.314   6.961
 5036POPC   C4A65358  14.204  31.501   7.334
 5036POPC   C1B65359  14.746  31.418   6.250
 5036POPC   C2B65360  14.804  31.293   6.713
 5036POPC   C3B65361  14.698  31.533   7.080
 5036POPC   C4B65362  14.867  31.651   7.461
 5037POPC   NC365363  20.680  11.471   5.513
 5037POPC   PO465364  20.142  10.952   5.454
 5037POPC   GL165365  20.474  11.065   5.791
 5037POPC   GL265366  20.806  11.140   5.912
 5037POPC   C1A65367  20.408  11.251   6.207
 5037POPC   D2A65368  20.636  11.282   6.589
 5037POPC   C3A65369  20.405  11.351   6.967
 5037POPC   C4A65370  20.531  11.246   7.421
 5037POPC   C1B65371  20.876  10.890   6.282
 5037POPC   C2B65372  20.884  10.867   6.743
 5037POPC   C3B65373  20.889  11.175   7.057
 5037POPC   C4B65374  21.029  11.138   7.494
 5038POPC   NC365375  23.423   9.480   5.398
 5038POPC   PO465376  23.925   9.881   5.310
 5038POPC   GL165377  23.861   9.948   5.772
 5038POPC   GL265378  24.105   9.758   5.910
 5038POPC   C1A65379  23.628   9.863   6.203
 5038POPC   D2A65380  23.374   9.539   6.501
 5038POPC   C3A65381  23.438   9.499   6.947
 5038POPC   C4A65382  23.491   9.898   7.146
 5038POPC   C1B65383  24.135  10.098   6.200
 5038POPC   C2B65384  23.962  10.128   6.581
 5038POPC   C3B65385  23.942   9.915   6.951
 5038POPC   C4B65386  24.003   9.954   7.389
 5039POPC   NC365387  26.148   6.072   4.968
 5039POPC   PO465388  25.828   5.649   5.413
 5039POPC   GL165389  25.973   5.740   5.869
 5039POPC   GL265390  26.176   6.020   5.881
 5039POPC   C1A65391  26.060   5.788   6.367
 5039POPC   D2A65392  25.993   6.045   6.745
 5039POPC   C3A65393  25.943   5.813   7.178
 5039POPC   C4A65394  25.946   5.546   7.574
 5039POPC   C1B65395  26.431   6.105   6.268
 5039POPC   C2B65396  26.491   6.092   6.709
 5039POPC   C3B65397  26.457   6.065   7.151
 5039POPC   C4B65398  26.293   5.995   7.541
 5040POPC   NC365399  31.229   9.498   5.222
 5040POPC   PO465400  31.035  10.101   5.524
 5040POPC   GL165401  31.310  10.031   5.862
 5040POPC   GL265402  31.439   9.673   5.889
 5040POPC   C1A65403  31.345   9.979   6.287
 5040POPC   D2A65404  31.594   9.812   6.612
 5040POPC   C3A65405  31.483   9.766   7.024
 5040POPC   C4A65406  31.606   9.589   7.426
 5040POPC   C1B65407  31.399   9.452   6.295
 5040POPC   C2B65408  31.216   9.403   6.712
 5040POPC   C3B65409  31.299   9.263   7.139
 5040POPC   C4B65410  31.156   9.348   7.562
 5041POPC   NC365411  10.744  41.845   5.622
 5041POPC   PO465412  10.247  41.652   5.152
 5041POPC   GL165413  10.353  41.511   5.680
 5041POPC   GL265414  10.674  41.441   5.913
 5041POPC   C1A65415  10.248  41.623   6.160
 5041POPC   D2A65416  10.213  41.384   6.571
 5041POPC   C3A65417  10.176  41.551   7.011
 5041POPC   C4A65418  10.261  41.763   7.402
 5041POPC   C1B65419  10.695  41.439   6.354
 5041POPC   C2B65420  10.640  41.618   6.739
 5041POPC   C3B65421  10.692  41.621   7.150
 5041POPC   C4B65422  10.967  41.567   7.534
 5042POPC   NC365423  29.135  44.153   5.536
 5042POPC   PO465424  29.412  43.586   5.436
 5042POPC   GL165425  29.326  43.697   5.884
 5042POPC   GL265426  29.415  44.037   5.956
 5042POPC   C1A65427  29.224  43.789   6.352
 5042POPC   D2A65428  28.954  44.038   6.634
 5042POPC   C3A65429  28.846  43.848   7.060
 5042POPC   C4A65430  28.822  44.064   7.444
 5042POPC   C1B65431  29.400  44.295   6.334
 5042POPC   C2B65432  29.578  44.063   6.650
 5042POPC   C3B65433  29.352  43.854   6.923
 5042POPC   C4B65434  29.133  44.269   7.068
 5043POPC   NC365435  29.317   9.330   5.066
 5043POPC   PO465436  29.101   8.700   5.379
 5043POPC   GL165437  29.274   8.958   5.686
 5043POPC   GL265438  29.071   9.239   5.694
 5043POPC   C1A65439  29.376   8.913   6.118
 5043POPC   D2A65440  29.524   8.810   6.513
 5043POPC   C3A65441  29.427   9.063   6.868
 5043POPC   C4A65442  29.377   8.913   7.301
 5043POPC   C1B65443  28.876   9.022   6.089
 5043POPC   C2B65444  29.011   8.917   6.537
 5043POPC   C3B65445  28.932   9.048   6.986
 5043POPC   C4B65446  28.936   9.114   7.451
 5044POPC   NC365447   7.927  15.712   5.230
 5044POPC   PO465448   8.434  16.091   5.402
 5044POPC   GL165449   8.131  15.897   5.674
 5044POPC   GL265450   8.244  16.110   5.921
 5044POPC   C1A65451   8.076  15.665   6.076
 5044POPC   D2A65452   8.335  15.668   6.457
 5044POPC   C3A65453   8.174  15.919   6.810
 5044POPC   C4A65454   8.202  15.690   7.169
 5044POPC   C1B65455   8.098  16.168   6.336
 5044POPC   C2B65456   8.063  16.467   6.669
 5044POPC   C3B65457   8.005  16.378   7.090
 5044POPC   C4B65458   8.264  16.127   7.388
 5045POPC   NC365459  28.906  37.796   5.083
 5045POPC   PO465460  28.628  37.381   5.555
 5045POPC   GL165461  28.254  37.338   5.805
 5045POPC   GL265462  28.350  37.655   5.984
 5045POPC   C1A65463  28.055  37.318   6.215
 5045POPC   D2A65464  28.257  37.438   6.603
 5045POPC   C3A65465  28.073  37.431   7.034
 5045POPC   C4A65466  28.254  37.786   7.220
 5045POPC   C1B65467  28.657  37.706   6.348
 5045POPC   C2B65468  28.746  37.961   6.744
 5045POPC   C3B65469  28.696  38.028   7.194
 5045POPC   C4B65470  28.423  38.145   7.571
 5046POPC   NC365471  14.611  40.538   5.312
 5046POPC   PO465472  14.655  41.213   5.411
 5046POPC   GL165473  14.514  41.044   5.833
 5046POPC   GL265474  14.453  40.667   5.797
 5046POPC   C1A65475  14.486  40.999   6.320
 5046POPC   D2A65476  14.229  41.045   6.722
 5046POPC   C3A65477  14.363  40.883   7.170
 5046POPC   C4A65478  14.268  40.897   7.629
 5046POPC   C1B65479  14.367  40.501   6.224
 5046POPC   C2B65480  14.463  40.571   6.681
 5046POPC   C3B65481  14.216  40.419   7.041
 5046POPC   C4B65482  14.321  40.396   7.496
 5047POPC   NC365483  33.801   0.710   5.211
 5047POPC   PO465484  33.636   0.137   5.508
 5047POPC   GL165485  33.741   0.320   5.875
 5047POPC   GL265486  33.893   0.619   5.830
 5047POPC   C1A65487  33.858   0.370   6.295
 5047POPC   D2A65488  33.616   0.450   6.649
 5047POPC   C3A65489  33.749   0.270   7.057
 5047POPC   C4A65490  33.634   0.218   7.511
 5047POPC   C1B65491  34.178   0.750   6.153
 5047POPC   C2B65492  34.082   0.894   6.564
 5047POPC   C3B65493  33.950   0.721   6.944
 5047POPC   C4B65494  33.983   0.583   7.380
 5048POPC   NC365495  39.656   3.892   5.503
 5048POPC   PO465496  39.743   4.508   5.184
 5048POPC   GL165497  39.725   4.456   5.628
 5048POPC   GL265498  40.106   4.412   5.724
 5048POPC   C1A65499  39.725   4.292   6.054
 5048POPC   D2A65500  39.688   4.217   6.495
 5048POPC   C3A65501  39.815   4.508   6.819
 5048POPC   C4A65502  40.174   4.467   7.072
 5048POPC   C1B65503  40.208   4.148   6.098
 5048POPC   C2B65504  40.221   4.235   6.563
 5048POPC   C3B65505  40.001   4.020   6.900
 5048POPC   C4B65506  40.195   3.984   7.300
 5049POPC   NC365507   2.830  13.876   5.439
 5049POPC   PO465508   2.322  14.318   5.364
 5049POPC   GL165509   2.456  14.107   5.725
 5049POPC   GL265510   2.780  14.315   5.712
 5049POPC   C1A65511   2.605  14.106   6.143
 5049POPC   D2A65512   2.621  14.388   6.491
 5049POPC   C3A65513   2.498  14.310   6.908
 5049POPC   C4A65514   2.612  14.604   7.258
 5049POPC   C1B65515   2.969  14.469   6.092
 5049POPC   C2B65516   3.139  14.436   6.502
 5049POPC   C3B65517   2.976  14.447   6.907
 5049POPC   C4B65518   3.124  14.574   7.305
 5050POPC   NC365519  31.320  12.264   5.543
 5050POPC   PO465520  32.095  12.448   5.586
 5050POPC   GL165521  31.783  12.327   5.811
 5050POPC   GL265522  31.789  11.992   5.786
 5050POPC   C1A65523  31.543  12.425   6.175
 5050POPC   D2A65524  31.679  12.336   6.596
 5050POPC   C3A65525  31.416  12.290   6.969
 5050POPC   C4A65526  31.550  12.218   7.397
 5050POPC   C1B65527  31.675  11.931   6.218
 5050POPC   C2B65528  31.419  11.872   6.616
 5050POPC   C3B65529  31.593  11.791   7.041
 5050POPC   C4B65530  31.876  11.835   7.404
 5051POPC   NC365531  44.180  31.860   5.401
 5051POPC   PO465532  44.687  31.393   5.272
 5051POPC   GL165533  44.467  31.496   5.642
 5051POPC   GL265534  44.608  31.827   5.721
 5051POPC   C1A65535  44.486  31.448   6.091
 5051POPC   D2A65536  44.636  31.530   6.508
 5051POPC   C3A65537  44.319  31.602   6.817
 5051POPC   C4A65538  44.233  31.357   7.181
 5051POPC   C1B65539  44.947  31.895   6.052
 5051POPC   C2B65540  44.992  31.921   6.518
 5051POPC   C3B65541  44.744  31.889   6.868
 5051POPC   C4B65542  44.676  31.620   7.203
 5052POPC   NC365543   5.674  41.876   5.363
 5052POPC   PO465544   6.271  41.588   5.588
 5052POPC   GL165545   5.921  41.705   5.786
 5052POPC   GL265546   5.600  41.575   5.761
 5052POPC   C1A65547   5.862  41.858   6.185
 5052POPC   D2A65548   6.034  41.577   6.491
 5052POPC   C3A65549   5.997  41.727   6.887
 5052POPC   C4A65550   5.962  41.589   7.279
 5052POPC   C1B65551   5.628  41.398   6.161
 5052POPC   C2B65552   5.522  41.487   6.584
 5052POPC   C3B65553   5.551  41.304   6.971
 5052POPC   C4B65554   5.696  41.032   7.254
 5053POPC   NC365555  35.014  36.801   5.626
 5053POPC   PO465556  34.405  36.900   5.414
 5053POPC   GL165557  34.411  37.156   5.787
 5053POPC   GL265558  34.777  37.234   5.860
 5053POPC   C1A65559  34.193  37.097   6.184
 5053POPC   D2A65560  34.282  36.884   6.566
 5053POPC   C3A65561  34.558  37.081   6.834
 5053POPC   C4A65562  34.515  37.187   7.259
 5053POPC   C1B65563  34.828  37.163   6.300
 5053POPC   C2B65564  35.059  37.163   6.685
 5053POPC   C3B65565  34.993  36.930   7.072
 5053POPC   C4B65566  34.685  36.622   7.162
 5054POPC   NC365567  10.295   1.705   5.385
 5054POPC   PO465568  10.923   1.955   5.539
 5054POPC   GL165569  10.770   1.705   5.863
 5054POPC   GL265570  10.416   1.838   5.868
 5054POPC   C1A65571  10.704   1.786   6.304
 5054POPC   D2A65572  10.466   2.129   6.500
 5054POPC   C3A65573  10.554   2.105   6.934
 5054POPC   C4A65574  10.752   2.074   7.317
 5054POPC   C1B65575  10.183   1.769   6.267
 5054POPC   C2B65576  10.256   1.690   6.700
 5054POPC   C3B65577  10.144   1.838   7.107
 5054POPC   C4B65578  10.248   2.175   7.356
 5055POPC   NC365579  13.928  15.086   5.306
 5055POPC   PO465580  14.558  15.012   5.270
 5055POPC   GL165581  14.462  15.345   5.634
 5055POPC   GL265582  14.760  15.364   5.857
 5055POPC   C1A65583  14.247  15.498   6.045
 5055POPC   D2A65584  14.067  15.307   6.456
 5055POPC   C3A65585  14.256  15.336   6.890
 5055POPC   C4A65586  14.217  15.137   7.335
 5055POPC   C1B65587  14.520  15.061   6.135
 5055POPC   C2B65588  14.373  14.911   6.552
 5055POPC   C3B65589  14.448  14.860   6.967
 5055POPC   C4B65590  14.702  15.188   7.165
 5056POPC   NC365591   2.260  17.207   5.425
 5056POPC   PO465592   1.868  16.633   5.490
 5056POPC   GL165593   2.131  16.793   5.839
 5056POPC   GL265594   2.040  16.465   5.953
 5056POPC   C1A65595   2.148  16.823   6.305
 5056POPC   D2A65596   1.750  16.967   6.521
 5056POPC   C3A65597   1.776  16.958   6.965
 5056POPC   C4A65598   1.764  17.047   7.393
 5056POPC   C1B65599   1.731  16.521   6.253
 5056POPC   C2B65600   1.868  16.460   6.652
 5056POPC   C3B65601   1.887  16.463   7.063
 5056POPC   C4B65602   2.107  16.697   7.339
 5057POPC   NC365603  23.308  21.399   5.462
 5057POPC   PO465604  23.994  21.361   5.447
 5057POPC   GL165605  23.862  21.200   5.839
 5057POPC   GL265606  23.540  21.012   5.761
 5057POPC   C1A65607  23.935  21.321   6.309
 5057POPC   D2A65608  23.847  21.544   6.720
 5057POPC   C3A65609  23.818  21.312   7.141
 5057POPC   C4A65610  23.872  21.373   7.595
 5057POPC   C1B65611  23.490  21.085   6.221
 5057POPC   C2B65612  23.594  21.103   6.692
 5057POPC   C3B65613  23.429  20.992   7.134
 5057POPC   C4B65614  23.474  21.076   7.621
 5058POPC   NC365615  39.170  35.022   5.422
 5058POPC   PO465616  39.314  34.361   5.418
 5058POPC   GL165617  39.538  34.559   5.745
 5058POPC   GL265618  39.492  34.914   5.803
 5058POPC   C1A65619  39.568  34.572   6.190
 5058POPC   D2A65620  39.414  34.849   6.529
 5058POPC   C3A65621  39.494  34.687   6.948
 5058POPC   C4A65622  39.453  34.689   7.394
 5058POPC   C1B65623  39.132  34.944   6.079
 5058POPC   C2B65624  38.905  34.789   6.413
 5058POPC   C3B65625  38.957  34.828   6.829
 5058POPC   C4B65626  38.862  34.873   7.246
 5059POPC   NC365627  17.897  23.356   5.229
 5059POPC   PO465628  17.403  23.887   5.395
 5059POPC   GL165629  17.552  23.711   5.750
 5059POPC   GL265630  17.901  23.628   5.689
 5059POPC   C1A65631  17.473  23.419   6.076
 5059POPC   D2A65632  17.543  23.519   6.490
 5059POPC   C3A65633  17.337  23.419   6.873
 5059POPC   C4A65634  17.471  23.486   7.268
 5059POPC   C1B65635  17.919  23.689   6.131
 5059POPC   C2B65636  17.924  23.863   6.539
 5059POPC   C3B65637  17.768  23.735   6.916
 5059POPC   C4B65638  17.829  23.876   7.293
 5060POPC   NC365639  35.150  11.926   5.388
 5060POPC   PO465640  35.633  12.234   5.499
 5060POPC   GL165641  35.490  12.071   5.846
 5060POPC   GL265642  35.142  12.153   5.845
 5060POPC   C1A65643  35.517  12.267   6.241
 5060POPC   D2A65644  35.278  12.305   6.602
 5060POPC   C3A65645  35.426  12.185   6.980
 5060POPC   C4A65646  35.761  12.282   7.269
 5060POPC   C1B65647  35.113  11.940   6.214
 5060POPC   C2B65648  34.975  11.846   6.615
 5060POPC   C3B65649  34.933  12.010   7.000
 5060POPC   C4B65650  34.896  12.232   7.348
 5061POPC   NC365651  44.182  20.089   5.437
 5061POPC   PO465652  43.587  19.772   5.511
 5061POPC   GL165653  43.858  19.877   5.808
 5061POPC   GL265654  43.979  19.550   5.775
 5061POPC   C1A65655  44.062  19.945   6.192
 5061POPC   D2A65656  44.199  19.825   6.599
 5061POPC   C3A65657  44.043  20.112   6.918
 5061POPC   C4A65658  43.807  20.063   7.291
 5061POPC   C1B65659  43.893  19.435   6.184
 5061POPC   C2B65660  43.765  19.549   6.585
 5061POPC   C3B65661  43.832  19.637   6.986
 5061POPC   C4B65662  44.248  19.698   7.134
 5062POPC   NC365663  37.857  42.481   5.468
 5062POPC   PO465664  37.230  42.309   5.410
 5062POPC   GL165665  37.490  42.217   5.770
 5062POPC   GL265666  37.868  42.110   5.803
 5062POPC   C1A65667  37.480  42.426   6.180
 5062POPC   D2A65668  37.302  42.589   6.578
 5062POPC   C3A65669  37.555  42.433   6.897
 5062POPC   C4A65670  37.635  42.100   7.172
 5062POPC   C1B65671  37.941  42.206   6.231
 5062POPC   C2B65672  37.925  42.162   6.663
 5062POPC   C3B65673  38.079  42.293   7.047
 5062POPC   C4B65674  37.886  42.662   7.191
 5063POPC   NC365675   7.323  27.917   5.516
 5063POPC   PO465676   7.728  27.465   5.246
 5063POPC   GL165677   7.660  27.546   5.709
 5063POPC   GL265678   7.514  27.230   5.823
 5063POPC   C1A65679   7.749  27.690   6.159
 5063POPC   D2A65680   7.611  27.588   6.599
 5063POPC   C3A65681   7.442  27.809   6.961
 5063POPC   C4A65682   7.679  27.868   7.321
 5063POPC   C1B65683   7.288  27.440   6.175
 5063POPC   C2B65684   7.158  27.381   6.626
 5063POPC   C3B65685   7.381  27.292   7.015
 5063POPC   C4B65686   7.519  27.380   7.470
 5064POPC   NC365687  16.655   3.260   5.162
 5064POPC   PO465688  16.783   3.934   5.331
 5064POPC   GL165689  16.826   3.544   5.610
 5064POPC   GL265690  16.540   3.379   5.729
 5064POPC   C1A65691  16.979   3.345   6.038
 5064POPC   D2A65692  17.180   3.269   6.471
 5064POPC   C3A65693  16.973   3.530   6.797
 5064POPC   C4A65694  16.979   3.545   7.253
 5064POPC   C1B65695  16.459   3.198   6.154
 5064POPC   C2B65696  16.631   3.210   6.575
 5064POPC   C3B65697  16.550   3.348   7.009
 5064POPC   C4B65698  16.501   3.500   7.450
 5065POPC   NC365699   5.224   6.857   5.541
 5065POPC   PO465700   4.950   6.231   5.362
 5065POPC   GL165701   4.895   6.531   5.734
 5065POPC   GL265702   5.116   6.428   6.020
 5065POPC   C1A65703   4.754   6.773   6.118
 5065POPC   D2A65704   4.899   6.618   6.527
 5065POPC   C3A65705   4.953   6.650   6.963
 5065POPC   C4A65706   5.227   6.338   7.122
 5065POPC   C1B65707   5.255   6.826   6.202
 5065POPC   C2B65708   5.308   6.946   6.596
 5065POPC   C3B65709   5.449   6.784   6.963
 5065POPC   C4B65710   5.282   6.825   7.363
 5066POPC   NC365711  30.253  38.211   5.578
 5066POPC   PO465712  29.761  38.633   5.320
 5066POPC   GL165713  29.867  38.513   5.759
 5066POPC   GL265714  30.166  38.677   5.847
 5066POPC   C1A65715  29.892  38.323   6.204
 5066POPC   D2A65716  30.012  38.133   6.633
 5066POPC   C3A65717  29.754  38.234   7.011
 5066POPC   C4A65718  29.749  38.455   7.455
 5066POPC   C1B65719  30.330  38.648   6.269
 5066POPC   C2B65720  30.246  38.757   6.695
 5066POPC   C3B65721  30.177  38.584   7.085
 5066POPC   C4B65722  30.178  38.226   7.313
 5067POPC   NC365723  43.573  22.224   5.143
 5067POPC   PO465724  43.040  21.865   5.398
 5067POPC   GL165725  43.201  21.943   5.794
 5067POPC   GL265726  43.366  22.264   5.708
 5067POPC   C1A65727  43.011  21.871   6.208
 5067POPC   D2A65728  42.968  22.092   6.602
 5067POPC   C3A65729  43.000  21.845   6.971
 5067POPC   C4A65730  43.199  21.889   7.365
 5067POPC   C1B65731  43.395  22.233   6.200
 5067POPC   C2B65732  43.411  22.376   6.664
 5067POPC   C3B65733  43.272  22.332   7.130
 5067POPC   C4B65734  43.418  22.247   7.632
 5068POPC   NC365735  38.090  32.500   5.445
 5068POPC   PO465736  38.441  32.015   5.364
 5068POPC   GL165737  38.263  32.122   5.794
 5068POPC   GL265738  37.988  31.902   5.833
 5068POPC   C1A65739  38.446  32.258   6.210
 5068POPC   D2A65740  38.846  32.235   6.483
 5068POPC   C3A65741  38.737  32.264   6.942
 5068POPC   C4A65742  38.415  32.460   7.264
 5068POPC   C1B65743  38.204  31.805   6.258
 5068POPC   C2B65744  38.418  31.966   6.651
 5068POPC   C3B65745  38.237  32.025   7.081
 5068POPC   C4B65746  38.296  32.008   7.578
 5069POPC   NC365747  21.890   9.360   5.491
 5069POPC   PO465748  21.893   8.718   5.284
 5069POPC   GL165749  22.057   8.907   5.687
 5069POPC   GL265750  22.404   8.866   5.707
 5069POPC   C1A65751  22.115   8.816   6.157
 5069POPC   D2A65752  22.025   9.064   6.550
 5069POPC   C3A65753  21.927   8.835   6.926
 5069POPC   C4A65754  21.994   8.876   7.357
 5069POPC   C1B65755  22.464   9.206   6.044
 5069POPC   C2B65756  22.548   9.162   6.508
 5069POPC   C3B65757  22.432   9.030   6.944
 5069POPC   C4B65758  22.360   9.253   7.323
 5070POPC   NC365759  12.383  33.153   5.548
 5070POPC   PO465760  13.019  33.375   5.352
 5070POPC   GL165761  12.995  33.091   5.765
 5070POPC   GL265762  13.013  32.709   5.820
 5070POPC   C1A65763  12.937  33.055   6.236
 5070POPC   D2A65764  12.968  33.353   6.612
 5070POPC   C3A65765  13.045  33.177   7.028
 5070POPC   C4A65766  12.857  32.861   7.292
 5070POPC   C1B65767  13.212  32.595   6.248
 5070POPC   C2B65768  13.089  32.747   6.648
 5070POPC   C3B65769  13.283  32.708   7.031
 5070POPC   C4B65770  13.199  32.507   7.392
 5071POPC   NC365771   3.332  37.149   5.499
 5071POPC   PO465772   3.805  36.715   5.307
 5071POPC   GL165773   3.615  36.731   5.705
 5071POPC   GL265774   3.873  36.930   5.858
 5071POPC   C1A65775   3.384  36.895   6.084
 5071POPC   D2A65776   3.245  37.173   6.410
 5071POPC   C3A65777   3.255  37.105   6.879
 5071POPC   C4A65778   3.353  37.422   7.214
 5071POPC   C1B65779   3.835  36.720   6.259
 5071POPC   C2B65780   3.882  36.533   6.676
 5071POPC   C3B65781   3.721  36.824   7.016
 5071POPC   C4B65782   3.884  37.162   7.243
 5072POPC   NC365783  24.603  33.051   5.423
 5072POPC   PO465784  24.127  32.523   5.387
 5072POPC   GL165785  24.228  32.668   5.826
 5072POPC   GL265786  24.266  33.055   5.838
 5072POPC   C1A65787  24.198  32.817   6.281
 5072POPC   D2A65788  24.209  33.126   6.617
 5072POPC   C3A65789  24.353  33.009   7.060
 5072POPC   C4A65790  24.350  32.761   7.463
 5072POPC   C1B65791  24.543  33.193   6.213
 5072POPC   C2B65792  24.725  33.134   6.658
 5072POPC   C3B65793  24.818  33.250   7.122
 5072POPC   C4B65794  24.675  33.140   7.559
 5073POPC   NC365795   9.559  21.169   5.486
 5073POPC   PO465796   9.272  21.843   5.547
 5073POPC   GL165797   9.472  21.539   5.837
 5073POPC   GL265798   9.737  21.757   5.858
 5073POPC   C1A65799   9.562  21.158   6.161
 5073POPC   D2A65800   9.740  21.078   6.597
 5073POPC   C3A65801   9.618  21.254   6.993
 5073POPC   C4A65802   9.451  21.091   7.381
 5073POPC   C1B65803   9.704  21.636   6.279
 5073POPC   C2B65804   9.894  21.587   6.656
 5073POPC   C3B65805   9.728  21.748   6.996
 5073POPC   C4B65806   9.713  21.643   7.376
 5074POPC   NC365807  12.490  16.158   5.604
 5074POPC   PO465808  13.131  16.272   5.351
 5074POPC   GL165809  13.217  16.133   5.768
 5074POPC   GL265810  12.930  15.893   5.759
 5074POPC   C1A65811  13.309  15.831   6.094
 5074POPC   D2A65812  13.323  15.775   6.544
 5074POPC   C3A65813  12.900  15.785   6.762
 5074POPC   C4A65814  12.897  15.860   7.209
 5074POPC   C1B65815  12.852  16.121   6.159
 5074POPC   C2B65816  12.530  16.224   6.472
 5074POPC   C3B65817  12.504  16.126   6.910
 5074POPC   C4B65818  12.420  16.011   7.339
 5075POPC   NC365819  17.152  19.329   5.395
 5075POPC   PO465820  17.627  18.948   5.258
 5075POPC   GL165821  17.398  19.000   5.700
 5075POPC   GL265822  17.294  19.343   5.876
 5075POPC   C1A65823  17.586  18.975   6.113
 5075POPC   D2A65824  17.506  18.915   6.549
 5075POPC   C3A65825  17.728  19.106   6.885
 5075POPC   C4A65826  17.679  18.901   7.280
 5075POPC   C1B65827  17.161  19.209   6.299
 5075POPC   C2B65828  17.278  19.348   6.715
 5075POPC   C3B65829  17.416  19.413   7.139
 5075POPC   C4B65830  17.122  19.131   7.219
 5076POPC   NC365831  29.547  36.387   5.321
 5076POPC   PO465832  29.977  35.912   5.132
 5076POPC   GL165833  30.032  36.068   5.570
 5076POPC   GL265834  29.725  35.997   5.749
 5076POPC   C1A65835  30.142  36.167   6.037
 5076POPC   D2A65836  30.127  35.987   6.487
 5076POPC   C3A65837  30.272  36.156   6.864
 5076POPC   C4A65838  30.204  36.327   7.274
 5076POPC   C1B65839  29.669  36.070   6.200
 5076POPC   C2B65840  29.656  36.171   6.623
 5076POPC   C3B65841  29.729  36.046   7.038
 5076POPC   C4B65842  29.462  35.973   7.427
 5077POPC   NC365843  29.273  11.039   5.128
 5077POPC   PO465844  29.351  10.547   5.581
 5077POPC   GL165845  29.087  10.467   5.895
 5077POPC   GL265846  29.268  10.610   6.129
 5077POPC   C1A65847  28.809  10.378   6.227
 5077POPC   D2A65848  28.955  10.451   6.596
 5077POPC   C3A65849  28.742  10.499   6.973
 5077POPC   C4A65850  28.644  10.421   7.396
 5077POPC   C1B65851  29.480  10.702   6.498
 5077POPC   C2B65852  29.403  10.379   6.794
 5077POPC   C3B65853  29.227  10.374   7.205
 5077POPC   C4B65854  29.400  10.308   7.588
 5078POPC   NC365855  21.511  35.466   5.430
 5078POPC   PO465856  21.137  34.988   5.604
 5078POPC   GL165857  21.368  35.317   5.894
 5078POPC   GL265858  21.374  35.705   5.841
 5078POPC   C1A65859  21.655  35.487   6.209
 5078POPC   D2A65860  21.700  35.389   6.634
 5078POPC   C3A65861  21.400  35.287   6.957
 5078POPC   C4A65862  21.554  35.318   7.384
 5078POPC   C1B65863  21.194  35.740   6.222
 5078POPC   C2B65864  21.120  35.650   6.633
 5078POPC   C3B65865  21.248  35.767   7.042
 5078POPC   C4B65866  21.088  35.518   7.338
 5079POPC   NC365867  32.710  12.307   5.632
 5079POPC   PO465868  33.122  12.853   5.384
 5079POPC   GL165869  33.117  12.634   5.730
 5079POPC   GL265870  33.360  12.371   5.784
 5079POPC   C1A65871  33.044  12.883   6.085
 5079POPC   D2A65872  33.220  13.020   6.449
 5079POPC   C3A65873  32.941  13.228   6.726
 5079POPC   C4A65874  32.941  13.209   7.150
 5079POPC   C1B65875  33.109  12.375   6.181
 5079POPC   C2B65876  32.912  12.615   6.513
 5079POPC   C3B65877  33.088  12.754   6.895
 5079POPC   C4B65878  32.960  12.484   7.205
 5080POPC   NC365879  32.075   9.724   5.297
 5080POPC   PO465880  31.452   9.882   5.126
 5080POPC   GL165881  31.784   9.936   5.637
 5080POPC   GL265882  32.002   9.633   5.793
 5080POPC   C1A65883  31.822   9.922   6.136
 5080POPC   D2A65884  32.035  10.045   6.514
 5080POPC   C3A65885  31.975   9.971   6.964
 5080POPC   C4A65886  32.325  10.071   7.229
 5080POPC   C1B65887  32.289   9.703   6.179
 5080POPC   C2B65888  32.350   9.649   6.653
 5080POPC   C3B65889  32.201   9.542   7.093
 5080POPC   C4B65890  32.035   9.332   7.467
 5081POPC   NC365891   6.003   6.617   5.331
 5081POPC   PO465892   5.486   6.498   5.692
 5081POPC   GL165893   5.783   6.721   5.894
 5081POPC   GL265894   6.068   6.516   5.814
 5081POPC   C1A65895   5.742   6.716   6.335
 5081POPC   D2A65896   5.456   6.442   6.557
 5081POPC   C3A65897   5.688   6.316   6.905
 5081POPC   C4A65898   5.670   6.442   7.321
 5081POPC   C1B65899   6.219   6.550   6.205
 5081POPC   C2B65900   6.222   6.670   6.629
 5081POPC   C3B65901   6.058   6.648   7.046
 5081POPC   C4B65902   6.184   6.906   7.435
 5082POPC   NC365903  40.171  42.685   5.414
 5082POPC   PO465904  39.669  42.226   5.452
 5082POPC   GL165905  39.924  42.365   5.761
 5082POPC   GL265906  39.915  42.695   5.859
 5082POPC   C1A65907  40.138  42.224   6.113
 5082POPC   D2A65908  40.162  42.428   6.519
 5082POPC   C3A65909  40.150  42.168   6.896
 5082POPC   C4A65910  40.198  42.361   7.277
 5082POPC   C1B65911  39.759  42.543   6.248
 5082POPC   C2B65912  39.685  42.373   6.704
 5082POPC   C3B65913  39.716  42.430   7.184
 5082POPC   C4B65914  39.779  42.247   7.639
 5083POPC   NC365915  14.275   5.350   5.461
 5083POPC   PO465916  14.385   6.003   5.387
 5083POPC   GL165917  14.505   5.752   5.755
 5083POPC   GL265918  14.159   5.692   5.833
 5083POPC   C1A65919  14.677   5.796   6.214
 5083POPC   D2A65920  14.897   5.788   6.638
 5083POPC   C3A65921  14.617   5.899   7.003
 5083POPC   C4A65922  14.256   6.066   7.226
 5083POPC   C1B65923  14.295   5.467   6.190
 5083POPC   C2B65924  14.386   5.586   6.637
 5083POPC   C3B65925  14.187   5.559   7.051
 5083POPC   C4B65926  14.130   5.616   7.514
 5084POPC   NC365927   0.766  18.489   5.689
 5084POPC   PO465928   0.196  18.630   5.342
 5084POPC   GL165929   0.219  18.458   5.786
 5084POPC   GL265930   0.405  18.680   5.998
 5084POPC   C1A65931   0.349  18.196   6.182
 5084POPC   D2A65932   0.242  17.915   6.565
 5084POPC   C3A65933   0.378  18.062   7.000
 5084POPC   C4A65934   0.339  18.036   7.464
 5084POPC   C1B65935   0.689  18.547   6.328
 5084POPC   C2B65936   0.490  18.428   6.674
 5084POPC   C3B65937   0.474  18.562   7.090
 5084POPC   C4B65938   0.756  18.300   7.263
 5085POPC   NC365939   7.573   4.964   5.439
 5085POPC   PO465940   7.577   5.550   5.784
 5085POPC   GL165941   7.343   5.198   5.873
 5085POPC   GL265942   7.499   4.846   5.925
 5085POPC   C1A65943   7.227   5.187   6.276
 5085POPC   D2A65944   7.448   4.987   6.564
 5085POPC   C3A65945   7.262   4.933   6.925
 5085POPC   C4A65946   7.325   5.244   7.181
 5085POPC   C1B65947   7.787   5.075   6.187
 5085POPC   C2B65948   7.768   5.402   6.499
 5085POPC   C3B65949   7.782   5.345   6.937
 5085POPC   C4B65950   7.755   5.454   7.378
 5086POPC   NC365951   8.686  13.967   5.249
 5086POPC   PO465952   9.327  13.639   5.418
 5086POPC   GL165953   9.110  13.674   5.765
 5086POPC   GL265954   9.066  13.361   5.894
 5086POPC   C1A65955   8.952  13.788   6.173
 5086POPC   D2A65956   8.798  13.623   6.564
 5086POPC   C3A65957   8.927  13.864   6.949
 5086POPC   C4A65958   9.126  13.833   7.391
 5086POPC   C1B65959   9.207  13.297   6.331
 5086POPC   C2B65960   9.219  13.295   6.799
 5086POPC   C3B65961   9.103  13.355   7.239
 5086POPC   C4B65962   9.341  13.428   7.657
 5087POPC   NC365963  35.312  29.728   5.473
 5087POPC   PO465964  35.145  30.430   5.482
 5087POPC   GL165965  35.359  30.077   5.850
 5087POPC   GL265966  35.520  29.683   5.906
 5087POPC   C1A65967  35.399  29.948   6.304
 5087POPC   D2A65968  35.623  29.847   6.643
 5087POPC   C3A65969  35.414  29.859   7.001
 5087POPC   C4A65970  35.643  30.040   7.328
 5087POPC   C1B65971  35.181  29.500   6.168
 5087POPC   C2B65972  35.105  29.566   6.607
 5087POPC   C3B65973  34.972  29.470   7.013
 5087POPC   C4B65974  35.242  29.528   7.370
 5088POPC   NC365975   5.635  11.758   5.343
 5088POPC   PO465976   6.085  12.199   5.369
 5088POPC   GL165977   5.888  12.131   5.743
 5088POPC   GL265978   6.213  12.195   5.872
 5088POPC   C1A65979   5.809  11.927   6.171
 5088POPC   D2A65980   5.679  12.072   6.584
 5088POPC   C3A65981   5.734  11.864   6.989
 5088POPC   C4A65982   5.539  12.118   7.309
 5088POPC   C1B65983   6.309  11.968   6.228
 5088POPC   C2B65984   6.145  11.858   6.628
 5088POPC   C3B65985   6.224  11.999   7.068
 5088POPC   C4B65986   6.005  11.984   7.487
 5089POPC   NC365987  18.680  31.807   5.462
 5089POPC   PO465988  19.264  31.507   5.323
 5089POPC   GL165989  18.994  31.471   5.721
 5089POPC   GL265990  18.994  31.829   5.881
 5089POPC   C1A65991  19.109  31.350   6.158
 5089POPC   D2A65992  19.212  31.542   6.563
 5089POPC   C3A65993  19.091  31.347   6.957
 5089POPC   C4A65994  18.980  31.515   7.377
 5089POPC   C1B65995  18.688  31.643   6.170
 5089POPC   C2B65996  18.695  31.487   6.589
 5089POPC   C3B65997  18.819  31.766   6.920
 5089POPC   C4B65998  18.663  31.923   7.270
 5090POPC   NC365999  20.326  26.101   5.221
 5090POPC   PO466000  20.648  26.606   5.511
 5090POPC   GL166001  20.640  26.783   5.927
 5090POPC   GL266002  20.881  27.051   5.911
 5090POPC   C1A66003  20.665  26.842   6.393
 5090POPC   D2A66004  20.853  26.648   6.783
 5090POPC   C3A66005  20.545  26.537   7.117
 5090POPC   C4A66006  20.306  26.867   7.244
 5090POPC   C1B66007  21.007  27.231   6.298
 5090POPC   C2B66008  21.091  27.189   6.739
 5090POPC   C3B66009  20.928  27.079   7.151
 5090POPC   C4B66010  21.020  27.130   7.599
 5091POPC   NC366011  43.231  26.279   5.539
 5091POPC   PO466012  42.852  25.652   5.566
 5091POPC   GL166013  42.803  25.879   5.934
 5091POPC   GL266014  42.772  26.204   5.793
 5091POPC   C1A66015  42.789  25.929   6.390
 5091POPC   D2A66016  43.063  26.198   6.627
 5091POPC   C3A66017  43.102  26.026   7.007
 5091POPC   C4A66018  43.414  26.133   7.299
 5091POPC   C1B66019  42.831  26.421   6.196
 5091POPC   C2B66020  42.613  26.419   6.582
 5091POPC   C3B66021  42.771  26.457   7.006
 5091POPC   C4B66022  42.929  26.291   7.422
 5092POPC   NC366023  15.522   2.704   5.626
 5092POPC   PO466024  14.883   2.942   5.266
 5092POPC   GL166025  15.041   3.000   5.706
 5092POPC   GL266026  15.048   2.695   5.859
 5092POPC   C1A66027  15.262   3.098   6.118
 5092POPC   D2A66028  15.136   3.072   6.564
 5092POPC   C3A66029  15.204   2.769   6.898
 5092POPC   C4A66030  15.278   2.882   7.335
 5092POPC   C1B66031  14.986   2.619   6.308
 5092POPC   C2B66032  14.748   2.319   6.563
 5092POPC   C3B66033  14.775   2.307   6.984
 5092POPC   C4B66034  15.038   2.435   7.282
 5093POPC   NC366035  37.826  21.669   5.261
 5093POPC   PO466036  37.528  21.088   5.374
 5093POPC   GL166037  37.656  21.414   5.685
 5093POPC   GL266038  37.930  21.660   5.763
 5093POPC   C1A66039  37.609  21.485   6.136
 5093POPC   D2A66040  37.465  21.338   6.525
 5093POPC   C3A66041  37.561  21.535   6.919
 5093POPC   C4A66042  37.603  21.449   7.337
 5093POPC   C1B66043  38.043  21.785   6.185
 5093POPC   C2B66044  37.943  21.530   6.555
 5093POPC   C3B66045  37.951  21.190   6.850
 5093POPC   C4B66046  38.081  21.292   7.247
 5094POPC   NC366047  27.852  29.201   5.432
 5094POPC   PO466048  27.224  28.869   5.391
 5094POPC   GL166049  27.292  29.217   5.740
 5094POPC   GL266050  27.649  29.311   5.881
 5094POPC   C1A66051  27.281  29.198   6.204
 5094POPC   D2A66052  27.633  29.187   6.486
 5094POPC   C3A66053  27.462  29.219   6.906
 5094POPC   C4A66054  27.595  29.052   7.275
 5094POPC   C1B66055  27.921  29.513   6.189
 5094POPC   C2B66056  28.094  29.408   6.586
 5094POPC   C3B66057  27.897  29.502   6.953
 5094POPC   C4B66058  27.624  29.555   7.300
 5095POPC   NC366059  39.059  32.249   5.464
 5095POPC   PO466060  39.737  32.503   5.470
 5095POPC   GL166061  39.480  32.314   5.852
 5095POPC   GL266062  39.139  32.112   5.945
 5095POPC   C1A66063  39.371  32.389   6.284
 5095POPC   D2A66064  39.197  32.622   6.596
 5095POPC   C3A66065  39.302  32.516   7.006
 5095POPC   C4A66066  39.001  32.543   7.310
 5095POPC   C1B66067  39.449  31.888   6.220
 5095POPC   C2B66068  39.551  32.022   6.606
 5095POPC   C3B66069  39.231  32.067   6.811
 5095POPC   C4B66070  39.204  32.051   7.230
 5096POPC   NC366071  28.393  44.318   5.435
 5096POPC   PO466072  28.613  43.626   5.517
 5096POPC   GL166073  28.560  43.979   5.803
 5096POPC   GL266074  28.200  43.976   5.781
 5096POPC   C1A66075  28.557  43.964   6.262
 5096POPC   D2A66076  28.239  43.871   6.551
 5096POPC   C3A66077  28.355  43.775   6.949
 5096POPC   C4A66078  28.450  43.533   7.304
 5096POPC   C1B66079  28.054  44.134   6.152
 5096POPC   C2B66080  28.122  44.374   6.525
 5096POPC   C3B66081  28.057  44.210   6.886
 5096POPC   C4B66082  27.897  43.943   7.219
 5097POPC   NC366083  17.160  24.353   5.424
 5097POPC   PO466084  17.831  24.534   5.447
 5097POPC   GL166085  17.652  24.239   5.771
 5097POPC   GL266086  17.407  24.447   5.882
 5097POPC   C1A66087  17.570  24.082   6.221
 5097POPC   D2A66088  17.425  23.995   6.651
 5097POPC   C3A66089  17.481  24.169   7.074
 5097POPC   C4A66090  17.240  24.422   7.366
 5097POPC   C1B66091  17.686  24.579   6.227
 5097POPC   C2B66092  17.569  24.491   6.653
 5097POPC   C3B66093  17.792  24.562   7.028
 5097POPC   C4B66094  17.660  24.746   7.398
 5098POPC   NC366095  41.279  27.708   5.431
 5098POPC   PO466096  41.977  27.920   5.467
 5098POPC   GL166097  41.831  27.633   5.804
 5098POPC   GL266098  41.478  27.623   5.885
 5098POPC   C1A66099  41.828  27.493   6.253
 5098POPC   D2A66100  41.667  27.335   6.650
 5098POPC   C3A66101  41.682  27.574   7.030
 5098POPC   C4A66102  41.770  27.813   7.446
 5098POPC   C1B66103  41.304  27.476   6.268
 5098POPC   C2B66104  41.142  27.385   6.668
 5098POPC   C3B66105  41.176  27.506   7.100
 5098POPC   C4B66106  41.453  27.426   7.462
 5099POPC   NC366107  21.009  21.125   5.592
 5099POPC   PO466108  20.336  20.967   5.571
 5099POPC   GL166109  20.579  21.170   5.901
 5099POPC   GL266110  20.516  21.522   5.905
 5099POPC   C1A66111  20.682  21.173   6.342
 5099POPC   D2A66112  20.784  21.325   6.774
 5099POPC   C3A66113  21.022  21.073   7.087
 5099POPC   C4A66114  20.798  20.956   7.526
 5099POPC   C1B66115  20.709  21.696   6.288
 5099POPC   C2B66116  20.926  21.815   6.661
 5099POPC   C3B66117  20.738  21.770   7.064
 5099POPC   C4B66118  20.792  21.419   7.340
 5100POPC   NC366119  34.106  28.019   5.095
 5100POPC   PO466120  34.632  28.154   5.419
 5100POPC   GL166121  34.648  28.327   5.844
 5100POPC   GL266122  34.918  28.150   5.966
 5100POPC   C1A66123  34.492  28.249   6.289
 5100POPC   D2A66124  34.267  28.237   6.685
 5100POPC   C3A66125  34.476  28.342   7.015
 5100POPC   C4A66126  34.733  28.227   7.322
 5100POPC   C1B66127  34.945  28.504   6.276
 5100POPC   C2B66128  34.829  28.561   6.718
 5100POPC   C3B66129  35.110  28.499   7.102
 5100POPC   C4B66130  35.096  28.525   7.563
 5101POPC   NC366131  34.924  28.498   5.412
 5101POPC   PO466132  35.597  28.390   5.505
 5101POPC   GL166133  35.429  28.245   5.851
 5101POPC   GL266134  35.212  28.542   5.835
 5101POPC   C1A66135  35.342  28.151   6.273
 5101POPC   D2A66136  35.159  28.172   6.665
 5101POPC   C3A66137  35.495  28.232   6.954
 5101POPC   C4A66138  35.436  28.148   7.413
 5101POPC   C1B66139  35.460  28.645   6.192
 5101POPC   C2B66140  35.362  28.638   6.620
 5101POPC   C3B66141  35.549  28.775   6.996
 5101POPC   C4B66142  35.555  28.645   7.410
 5102POPC   NC366143  13.460  23.865   5.485
 5102POPC   PO466144  14.033  23.471   5.405
 5102POPC   GL166145  13.838  23.655   5.757
 5102POPC   GL266146  13.521  23.530   5.874
 5102POPC   C1A66147  13.839  23.822   6.176
 5102POPC   D2A66148  13.698  23.593   6.528
 5102POPC   C3A66149  13.834  23.805   6.866
 5102POPC   C4A66150  13.735  23.866   7.299
 5102POPC   C1B66151  13.305  23.776   6.228
 5102POPC   C2B66152  13.217  23.836   6.691
 5102POPC   C3B66153  13.238  23.763   7.129
 5102POPC   C4B66154  13.268  23.928   7.549
 5103POPC   NC366155   8.294  13.117   5.318
 5103POPC   PO466156   7.771  12.739   5.500
 5103POPC   GL166157   8.096  12.836   5.785
 5103POPC   GL266158   8.400  12.677   5.638
 5103POPC   C1A66159   8.114  13.013   6.229
 5103POPC   D2A66160   8.301  13.126   6.642
 5103POPC   C3A66161   8.133  12.960   7.039
 5103POPC   C4A66162   8.030  12.544   7.233
 5103POPC   C1B66163   8.535  12.826   6.035
 5103POPC   C2B66164   8.529  12.711   6.438
 5103POPC   C3B66165   8.364  12.562   6.800
 5103POPC   C4B66166   8.532  12.617   7.203
 5104POPC   NC366167   2.579   4.364   5.433
 5104POPC   PO466168   3.081   4.670   5.193
 5104POPC   GL166169   2.897   4.612   5.709
 5104POPC   GL266170   2.815   4.252   5.855
 5104POPC   C1A66171   2.684   4.681   6.142
 5104POPC   D2A66172   2.720   4.446   6.528
 5104POPC   C3A66173   2.429   4.479   6.853
 5104POPC   C4A66174   2.647   4.484   7.213
 5104POPC   C1B66175   2.525   4.119   6.181
 5104POPC   C2B66176   2.626   3.878   6.587
 5104POPC   C3B66177   2.583   4.013   7.011
 5104POPC   C4B66178   2.414   4.101   7.457
 5105POPC   NC366179  38.978  27.206   5.128
 5105POPC   PO466180  39.127  27.815   5.439
 5105POPC   GL166181  39.109  27.817   5.871
 5105POPC   GL266182  39.447  27.863   5.971
 5105POPC   C1A66183  39.157  27.469   6.193
 5105POPC   D2A66184  39.304  27.361   6.590
 5105POPC   C3A66185  39.139  27.552   6.948
 5105POPC   C4A66186  39.224  27.607   7.396
 5105POPC   C1B66187  39.661  27.577   6.271
 5105POPC   C2B66188  39.817  27.503   6.685
 5105POPC   C3B66189  39.642  27.663   7.064
 5105POPC   C4B66190  39.523  28.084   7.256
 5106POPC   NC366191  41.826  21.766   5.508
 5106POPC   PO466192  41.364  21.284   5.253
 5106POPC   GL166193  41.339  21.249   5.733
 5106POPC   GL266194  41.665  21.348   5.837
 5106POPC   C1A66195  41.338  21.417   6.203
 5106POPC   D2A66196  41.478  21.241   6.614
 5106POPC   C3A66197  41.437  21.446   7.006
 5106POPC   C4A66198  41.574  21.282   7.403
 5106POPC   C1B66199  41.911  21.338   6.214
 5106POPC   C2B66200  41.989  21.122   6.590
 5106POPC   C3B66201  41.927  21.234   7.029
 5106POPC   C4B66202  42.025  21.011   7.434
 5107POPC   NC366203  39.793   2.427   5.617
 5107POPC   PO466204  40.046   1.928   5.207
 5107POPC   GL166205  39.995   1.829   5.684
 5107POPC   GL266206  39.644   1.854   5.715
 5107POPC   C1A66207  40.000   1.857   6.197
 5107POPC   D2A66208  40.207   2.151   6.550
 5107POPC   C3A66209  40.211   2.027   6.993
 5107POPC   C4A66210  40.018   1.676   7.261
 5107POPC   C1B66211  39.526   2.095   6.096
 5107POPC   C2B66212  39.530   1.992   6.502
 5107POPC   C3B66213  39.749   1.893   6.850
 5107POPC   C4B66214  39.617   2.080   7.224
 5108POPC   NC366215  39.766   2.336   5.106
 5108POPC   PO466216  40.251   2.779   5.289
 5108POPC   GL166217  40.129   2.834   5.733
 5108POPC   GL266218  39.778   2.899   5.840
 5108POPC   C1A66219  40.232   2.918   6.144
 5108POPC   D2A66220  40.196   2.713   6.581
 5108POPC   C3A66221  39.906   2.912   6.876
 5108POPC   C4A66222  39.995   2.923   7.291
 5108POPC   C1B66223  39.781   2.714   6.266
 5108POPC   C2B66224  39.745   2.448   6.649
 5108POPC   C3B66225  39.923   2.442   7.062
 5108POPC   C4B66226  39.785   2.503   7.483
 5109POPC   NC366227   6.691  31.114   5.451
 5109POPC   PO466228   6.901  31.869   5.490
 5109POPC   GL166229   6.704  31.636   5.845
 5109POPC   GL266230   6.802  31.280   5.919
 5109POPC   C1A66231   6.612  31.595   6.292
 5109POPC   D2A66232   6.466  31.728   6.684
 5109POPC   C3A66233   6.706  31.709   7.043
 5109POPC   C4A66234   6.303  31.586   7.200
 5109POPC   C1B66235   6.517  31.022   6.177
 5109POPC   C2B66236   6.632  30.914   6.605
 5109POPC   C3B66237   6.670  31.186   6.970
 5109POPC   C4B66238   6.599  31.222   7.417
 5110POPC   NC366239  38.674  38.186   5.412
 5110POPC   PO466240  38.503  37.524   5.465
 5110POPC   GL166241  38.455  37.609   5.869
 5110POPC   GL266242  38.758  37.462   5.932
 5110POPC   C1A66243  38.293  37.668   6.271
 5110POPC   D2A66244  38.245  37.906   6.628
 5110POPC   C3A66245  38.344  37.667   6.973
 5110POPC   C4A66246  38.621  37.841   7.243
 5110POPC   C1B66247  38.813  37.319   6.290
 5110POPC   C2B66248  38.644  37.365   6.646
 5110POPC   C3B66249  38.810  37.305   7.071
 5110POPC   C4B66250  38.785  37.319   7.535
 5111POPC   NC366251  37.033  37.961   5.591
 5111POPC   PO466252  37.238  38.420   5.132
 5111POPC   GL166253  37.078  38.611   5.578
 5111POPC   GL266254  36.718  38.505   5.702
 5111POPC   C1A66255  37.050  38.575   6.075
 5111POPC   D2A66256  36.882  38.302   6.434
 5111POPC   C3A66257  36.971  38.345   6.899
 5111POPC   C4A66258  36.789  38.201   7.288
 5111POPC   C1B66259  36.522  38.589   6.138
 5111POPC   C2B66260  36.376  38.588   6.571
 5111POPC   C3B66261  36.522  38.556   6.992
 5111POPC   C4B66262  36.815  38.729   7.305
 5112POPC   NC366263  10.835  10.664   5.035
 5112POPC   PO466264  10.469  10.814   5.500
 5112POPC   GL166265  10.428  10.675   5.936
 5112POPC   GL266266  10.685  10.422   5.923
 5112POPC   C1A66267  10.426  10.745   6.416
 5112POPC   D2A66268  10.345  10.753   6.880
 5112POPC   C3A66269  10.666  10.893   7.183
 5112POPC   C4A66270  10.649  11.059   7.603
 5112POPC   C1B66271  10.739  10.337   6.366
 5112POPC   C2B66272  10.533  10.294   6.757
 5112POPC   C3B66273  10.662  10.358   7.187
 5112POPC   C4B66274  10.603  10.168   7.608
 5113POPC   NC366275  17.956  26.626   5.558
 5113POPC   PO466276  18.605  26.899   5.446
 5113POPC   GL166277  18.383  26.852   5.809
 5113POPC   GL266278  18.347  26.513   5.924
 5113POPC   C1A66279  18.387  26.965   6.232
 5113POPC   D2A66280  18.672  27.062   6.561
 5113POPC   C3A66281  18.472  26.906   6.953
 5113POPC   C4A66282  18.110  26.995   7.247
 5113POPC   C1B66283  18.036  26.608   6.280
 5113POPC   C2B66284  18.076  26.606   6.771
 5113POPC   C3B66285  18.226  26.498   7.182
 5113POPC   C4B66286  18.453  26.378   7.573
 5114POPC   NC366287  29.360  29.622   5.119
 5114POPC   PO466288  29.233  30.171   5.452
 5114POPC   GL166289  29.049  29.878   5.752
 5114POPC   GL266290  29.278  29.644   5.857
 5114POPC   C1A66291  28.854  29.771   6.168
 5114POPC   D2A66292  28.918  30.004   6.561
 5114POPC   C3A66293  29.223  30.089   6.874
 5114POPC   C4A66294  28.999  30.071   7.226
 5114POPC   C1B66295  29.336  29.940   6.196
 5114POPC   C2B66296  29.357  29.703   6.550
 5114POPC   C3B66297  29.488  29.626   6.942
 5114POPC   C4B66298  29.380  29.752   7.346
 5115POPC   NC366299  18.893  43.129   5.373
 5115POPC   PO466300  19.569  43.007   5.223
 5115POPC   GL166301  19.374  42.993   5.723
 5115POPC   GL266302  19.028  43.094   5.862
 5115POPC   C1A66303  19.302  42.905   6.215
 5115POPC   D2A66304  18.956  43.052   6.512
 5115POPC   C3A66305  19.014  42.952   6.964
 5115POPC   C4A66306  19.251  43.073   7.339
 5115POPC   C1B66307  18.763  43.373   6.084
 5115POPC   C2B66308  18.549  43.477   6.437
 5115POPC   C3B66309  18.613  43.280   6.824
 5115POPC   C4B66310  18.862  43.403   7.182
 5116POPC   NC366311   8.210  32.347   5.490
 5116POPC   PO466312   8.709  31.950   5.739
 5116POPC   GL166313   8.404  32.161   5.983
 5116POPC   GL266314   8.017  32.107   5.933
 5116POPC   C1A66315   8.462  32.194   6.436
 5116POPC   D2A66316   8.465  31.821   6.707
 5116POPC   C3A66317   8.344  31.909   7.117
 5116POPC   C4A66318   8.315  32.291   7.294
 5116POPC   C1B66319   8.059  32.507   6.168
 5116POPC   C2B66320   8.332  32.743   6.467
 5116POPC   C3B66321   8.348  32.598   6.889
 5116POPC   C4B66322   7.921  32.537   7.097
 5117POPC   NC366323  39.167  16.588   5.271
 5117POPC   PO466324  39.578  16.984   5.500
 5117POPC   GL166325  39.271  16.869   5.795
 5117POPC   GL266326  39.205  16.565   5.768
 5117POPC   C1A66327  39.100  16.884   6.191
 5117POPC   D2A66328  39.188  17.064   6.564
 5117POPC   C3A66329  39.171  16.783   6.896
 5117POPC   C4A66330  39.136  16.944   7.274
 5117POPC   C1B66331  39.293  16.402   6.147
 5117POPC   C2B66332  39.367  16.401   6.575
 5117POPC   C3B66333  39.476  16.350   6.997
 5117POPC   C4B66334  39.368  16.510   7.352
 5118POPC   NC366335  38.965   7.929   5.483
 5118POPC   PO466336  39.445   8.417   5.478
 5118POPC   GL166337  39.216   8.245   5.823
 5118POPC   GL266338  38.847   8.272   5.848
 5118POPC   C1A66339  39.255   8.275   6.259
 5118POPC   D2A66340  39.502   8.079   6.589
 5118POPC   C3A66341  39.312   7.996   6.987
 5118POPC   C4A66342  39.297   8.131   7.422
 5118POPC   C1B66343  38.756   8.179   6.284
 5118POPC   C2B66344  38.954   8.238   6.703
 5118POPC   C3B66345  38.863   8.180   7.152
 5118POPC   C4B66346  38.865   8.360   7.586
 5119POPC   NC366347  19.296  20.381   5.226
 5119POPC   PO466348  19.950  20.658   5.303
 5119POPC   GL166349  19.754  20.771   5.694
 5119POPC   GL266350  20.012  20.641   5.845
 5119POPC   C1A66351  19.633  20.765   6.154
 5119POPC   D2A66352  19.815  20.535   6.500
 5119POPC   C3A66353  19.642  20.518   6.919
 5119POPC   C4A66354  19.652  20.776   7.290
 5119POPC   C1B66355  20.161  20.327   6.154
 5119POPC   C2B66356  20.280  20.354   6.592
 5119POPC   C3B66357  20.146  20.582   6.941
 5119POPC   C4B66358  19.983  20.401   7.343
 5120POPC   NC366359  20.069   3.143   5.545
 5120POPC   PO466360  20.092   3.729   5.388
 5120POPC   GL166361  20.407   3.559   5.729
 5120POPC   GL266362  20.718   3.745   5.862
 5120POPC   C1A66363  20.454   3.437   6.196
 5120POPC   D2A66364  20.277   3.337   6.624
 5120POPC   C3A66365  20.438   3.296   7.045
 5120POPC   C4A66366  20.856   3.190   7.234
 5120POPC   C1B66367  20.912   3.654   6.299
 5120POPC   C2B66368  20.804   3.450   6.721
 5120POPC   C3B66369  20.782   3.682   7.156
 5120POPC   C4B66370  20.960   3.670   7.600
 5121POPC   NC366371  12.822  33.789   5.323
 5121POPC   PO466372  12.393  33.548   5.780
 5121POPC   GL166373  12.615  33.836   5.962
 5121POPC   GL266374  12.932  33.910   5.834
 5121POPC   C1A66375  12.753  33.794   6.371
 5121POPC   D2A66376  12.683  33.974   6.751
 5121POPC   C3A66377  12.767  33.636   7.064
 5121POPC   C4A66378  12.549  33.264   7.273
 5121POPC   C1B66379  13.197  33.991   6.210
 5121POPC   C2B66380  13.196  33.849   6.644
 5121POPC   C3B66381  13.138  34.011   7.036
 5121POPC   C4B66382  13.075  33.937   7.454
 5122POPC   NC366383  24.980  11.411   5.345
 5122POPC   PO466384  25.571  11.599   5.536
 5122POPC   GL166385  25.216  11.469   5.812
 5122POPC   GL266386  25.056  11.130   5.795
 5122POPC   C1A66387  25.222  11.395   6.261
 5122POPC   D2A66388  25.098  11.572   6.645
 5122POPC   C3A66389  25.232  11.415   7.039
 5122POPC   C4A66390  25.033  11.567   7.422
 5122POPC   C1B66391  24.829  11.095   6.195
 5122POPC   C2B66392  25.012  11.053   6.602
 5122POPC   C3B66393  24.970  10.968   7.019
 5122POPC   C4B66394  24.826  11.105   7.424
 5123POPC   NC366395  29.111  23.207   5.153
 5123POPC   PO466396  28.824  22.670   5.390
 5123POPC   GL166397  29.117  22.871   5.705
 5123POPC   GL266398  29.126  23.260   5.690
 5123POPC   C1A66399  29.019  22.850   6.154
 5123POPC   D2A66400  28.780  22.673   6.502
 5123POPC   C3A66401  28.850  22.818   6.952
 5123POPC   C4A66402  29.179  22.706   7.235
 5123POPC   C1B66403  29.111  23.360   6.147
 5123POPC   C2B66404  29.074  23.174   6.611
 5123POPC   C3B66405  29.169  23.237   7.099
 5123POPC   C4B66406  29.296  23.098   7.534
 5124POPC   NC366407  35.352  37.994   5.504
 5124POPC   PO466408  35.159  37.254   5.487
 5124POPC   GL166409  35.338  37.540   5.773
 5124POPC   GL266410  35.654  37.423   5.877
 5124POPC   C1A66411  35.441  37.837   6.129
 5124POPC   D2A66412  35.171  38.031   6.445
 5124POPC   C3A66413  35.122  37.935   6.907
 5124POPC   C4A66414  35.406  37.797   7.274
 5124POPC   C1B66415  35.339  37.371   6.256
 5124POPC   C2B66416  35.382  37.589   6.637
 5124POPC   C3B66417  35.398  37.362   7.017
 5124POPC   C4B66418  35.548  37.338   7.440
 5125POPC   NC366419  38.147   1.714   5.608
 5125POPC   PO466420  37.512   1.736   5.315
 5125POPC   GL166421  37.688   1.891   5.751
 5125POPC   GL266422  37.598   2.213   5.857
 5125POPC   C1A66423  37.826   1.946   6.234
 5125POPC   D2A66424  37.608   2.168   6.609
 5125POPC   C3A66425  37.803   2.074   6.990
 5125POPC   C4A66426  37.987   2.406   7.186
 5125POPC   C1B66427  37.337   2.005   6.185
 5125POPC   C2B66428  37.444   1.695   6.536
 5125POPC   C3B66429  37.394   1.749   6.966
 5125POPC   C4B66430  37.316   2.167   7.112
 5126POPC   NC366431  44.752  44.493   5.250
 5126POPC   PO466432  44.239  44.896   5.208
 5126POPC   GL166433  44.512  44.809   5.615
 5126POPC   GL266434  44.517  44.477   5.753
 5126POPC   C1A66435  44.732  44.903   6.032
 5126POPC   D2A66436  44.975  44.770   6.434
 5126POPC   C3A66437  44.889  44.757   6.909
 5126POPC   C4A66438  44.600  44.875   7.263
 5126POPC   C1B66439  44.333  44.462   6.190
 5126POPC   C2B66440  44.512  44.533   6.625
 5126POPC   C3B66441  44.475  44.395   7.090
 5126POPC   C4B66442  44.382  44.497   7.549
 5127POPC   NC366443  27.237   5.606   5.147
 5127POPC   PO466444  27.759   6.055   5.347
 5127POPC   GL166445  27.518   5.895   5.719
 5127POPC   GL266446  27.765   5.749   5.972
 5127POPC   C1A66447  27.334   5.946   6.147
 5127POPC   D2A66448  27.566   5.845   6.526
 5127POPC   C3A66449  27.310   5.834   6.893
 5127POPC   C4A66450  27.296   5.912   7.319
 5127POPC   C1B66451  27.761   6.209   6.080
 5127POPC   C2B66452  27.797   6.307   6.519
 5127POPC   C3B66453  27.714   6.164   6.953
 5127POPC   C4B66454  27.824   6.168   7.397
 5128POPC   NC366455  30.247   9.221   5.423
 5128POPC   PO466456  30.980   9.032   5.389
 5128POPC   GL166457  30.749   9.024   5.846
 5128POPC   GL266458  30.391   9.015   5.877
 5128POPC   C1A66459  30.717   9.229   6.275
 5128POPC   D2A66460  30.693   9.460   6.688
 5128POPC   C3A66461  30.816   9.191   6.998
 5128POPC   C4A66462  30.491   8.991   7.175
 5128POPC   C1B66463  30.495   8.762   6.241
 5128POPC   C2B66464  30.589   8.838   6.685
 5128POPC   C3B66465  30.732   8.563   7.051
 5128POPC   C4B66466  30.971   8.412   7.448
 5129POPC   NC366467   1.902   1.554   5.420
 5129POPC   PO466468   2.318   2.169   5.390
 5129POPC   GL166469   2.222   1.797   5.732
 5129POPC   GL266470   1.833   1.756   5.878
 5129POPC   C1A66471   2.233   1.714   6.191
 5129POPC   D2A66472   2.197   1.927   6.607
 5129POPC   C3A66473   2.351   1.699   6.960
 5129POPC   C4A66474   2.196   1.690   7.369
 5129POPC   C1B66475   1.708   2.100   6.181
 5129POPC   C2B66476   1.495   2.265   6.560
 5129POPC   C3B66477   1.624   2.226   6.994
 5129POPC   C4B66478   1.521   2.453   7.363
 5130POPC   NC366479  20.042  18.719   5.395
 5130POPC   PO466480  19.504  18.329   5.507
 5130POPC   GL166481  19.831  18.472   5.790
 5130POPC   GL266482  19.610  18.749   5.841
 5130POPC   C1A66483  20.070  18.312   6.172
 5130POPC   D2A66484  19.941  18.179   6.581
 5130POPC   C3A66485  19.888  18.300   7.007
 5130POPC   C4A66486  19.878  18.078   7.419
 5130POPC   C1B66487  19.606  18.491   6.249
 5130POPC   C2B66488  19.518  18.477   6.689
 5130POPC   C3B66489  19.581  18.700   7.055
 5130POPC   C4B66490  19.746  18.576   7.435
 5131POPC   NC366491  26.523  14.626   5.416
 5131POPC   PO466492  26.844  14.150   5.164
 5131POPC   GL166493  27.008  14.400   5.575
 5131POPC   GL266494  26.930  14.751   5.699
 5131POPC   C1A66495  27.112  14.442   6.068
 5131POPC   D2A66496  26.871  14.307   6.461
 5131POPC   C3A66497  27.006  14.351   6.926
 5131POPC   C4A66498  26.818  14.184   7.335
 5131POPC   C1B66499  26.622  14.606   6.058
 5131POPC   C2B66500  26.435  14.571   6.480
 5131POPC   C3B66501  26.535  14.509   6.882
 5131POPC   C4B66502  26.413  14.494   7.301
 5132POPC   NC366503  17.172  23.461   5.465
 5132POPC   PO466504  16.526  23.443   5.188
 5132POPC   GL166505  16.700  23.674   5.606
 5132POPC   GL266506  16.995  23.902   5.708
 5132POPC   C1A66507  16.653  23.653   6.096
 5132POPC   D2A66508  16.565  23.459   6.530
 5132POPC   C3A66509  16.583  23.759   6.887
 5132POPC   C4A66510  16.332  23.978   7.203
 5132POPC   C1B66511  17.145  23.816   6.141
 5132POPC   C2B66512  17.012  23.724   6.573
 5132POPC   C3B66513  17.080  23.838   7.013
 5132POPC   C4B66514  16.973  23.584   7.344
 5133POPC   NC366515  10.808   0.786   5.410
 5133POPC   PO466516  10.184   0.643   5.382
 5133POPC   GL166517  10.247   0.474   5.794
 5133POPC   GL266518  10.586   0.544   5.865
 5133POPC   C1A66519  10.331   0.262   6.190
 5133POPC   D2A66520  10.157   0.272   6.588
 5133POPC   C3A66521  10.404   0.344   6.954
 5133POPC   C4A66522  10.136   0.396   7.307
 5133POPC   C1B66523  10.817   0.449   6.269
 5133POPC   C2B66524  11.011   0.362   6.713
 5133POPC   C3B66525  10.876   0.527   7.086
 5133POPC   C4B66526  10.568   0.737   7.270
 5134POPC   NC366527   8.821  29.814   5.317
 5134POPC   PO466528   9.186  30.280   5.556
 5134POPC   GL166529   9.002  30.151   5.936
 5134POPC   GL266530   9.303  30.004   6.092
 5134POPC   C1A66531   8.903  30.054   6.384
 5134POPC   D2A66532   9.259  30.015   6.665
 5134POPC   C3A66533   9.101  30.046   7.063
 5134POPC   C4A66534   8.866  30.246   7.390
 5134POPC   C1B66535   9.185  29.610   6.347
 5134POPC   C2B66536   9.054  29.544   6.795
 5134POPC   C3B66537   9.217  29.578   7.229
 5134POPC   C4B66538   9.195  29.529   7.698
 5135POPC   NC366539  33.930  37.160   5.503
 5135POPC   PO466540  33.426  36.712   5.494
 5135POPC   GL166541  33.664  36.899   5.844
 5135POPC   GL266542  34.019  36.756   5.836
 5135POPC   C1A66543  33.615  37.112   6.255
 5135POPC   D2A66544  33.890  37.201   6.605
 5135POPC   C3A66545  34.026  37.086   7.036
 5135POPC   C4A66546  33.802  37.088   7.440
 5135POPC   C1B66547  33.878  36.666   6.288
 5135POPC   C2B66548  33.858  36.675   6.760
 5135POPC   C3B66549  33.578  36.797   7.096
 5135POPC   C4B66550  33.227  36.685   7.360
 5136POPC   NC366551  42.977  31.946   5.439
 5136POPC   PO466552  43.346  32.565   5.356
 5136POPC   GL166553  43.383  32.263   5.756
 5136POPC   GL266554  43.266  31.896   5.847
 5136POPC   C1A66555  43.300  32.204   6.225
 5136POPC   D2A66556  42.997  32.216   6.553
 5136POPC   C3A66557  43.153  32.256   6.956
 5136POPC   C4A66558  43.251  32.313   7.400
 5136POPC   C1B66559  42.831  31.995   6.091
 5136POPC   C2B66560  42.615  31.884   6.497
 5136POPC   C3B66561  42.899  31.754   6.839
 5136POPC   C4B66562  42.988  31.889   7.242
 5137POPC   NC366563  26.831   0.550   5.435
 5137POPC   PO466564  27.183   0.062   5.647
 5137POPC   GL166565  26.809   0.190   5.872
 5137POPC   GL266566  26.706   0.510   5.926
 5137POPC   C1A66567  26.800   0.255   6.350
 5137POPC   D2A66568  27.149   0.434   6.596
 5137POPC   C3A66569  27.222   0.282   7.012
 5137POPC   C4A66570  26.883   0.382   7.268
 5137POPC   C1B66571  26.549   0.859   6.166
 5137POPC   C2B66572  26.418   0.815   6.588
 5137POPC   C3B66573  26.645   0.566   6.854
 5137POPC   C4B66574  26.687   0.839   7.187
 5138POPC   NC366575   7.838   8.126   5.215
 5138POPC   PO466576   8.383   7.980   5.317
 5138POPC   GL166577   8.180   8.162   5.679
 5138POPC   GL266578   7.830   8.084   5.756
 5138POPC   C1A66579   8.222   8.195   6.155
 5138POPC   D2A66580   8.122   8.236   6.617
 5138POPC   C3A66581   8.328   8.018   6.992
 5138POPC   C4A66582   8.435   8.224   7.395
 5138POPC   C1B66583   7.780   7.945   6.207
 5138POPC   C2B66584   7.851   7.809   6.648
 5138POPC   C3B66585   7.824   8.056   7.025
 5138POPC   C4B66586   7.971   7.991   7.420
 5139POPC   NC366587  34.391  29.344   5.405
 5139POPC   PO466588  34.856  28.914   5.213
 5139POPC   GL166589  34.724  28.970   5.674
 5139POPC   GL266590  34.377  28.948   5.760
 5139POPC   C1A66591  34.657  29.265   6.054
 5139POPC   D2A66592  34.624  29.430   6.496
 5139POPC   C3A66593  34.595  29.157   6.822
 5139POPC   C4A66594  34.523  29.248   7.229
 5139POPC   C1B66595  34.353  28.823   6.196
 5139POPC   C2B66596  34.290  28.738   6.631
 5139POPC   C3B66597  34.297  28.824   7.067
 5139POPC   C4B66598  34.707  28.762   7.203
 5140POPC   NC366599  14.417  23.372   5.627
 5140POPC   PO466600  14.759  23.913   5.381
 5140POPC   GL166601  14.653  23.884   5.831
 5140POPC   GL266602  14.304  23.766   5.915
 5140POPC   C1A66603  14.557  23.958   6.295
 5140POPC   D2A66604  14.268  23.728   6.529
 5140POPC   C3A66605  14.428  23.703   6.887
 5140POPC   C4A66606  14.248  23.900   7.190
 5140POPC   C1B66607  14.142  23.379   6.192
 5140POPC   C2B66608  14.078  23.248   6.628
 5140POPC   C3B66609  14.059  23.385   7.034
 5140POPC   C4B66610  14.410  23.424   7.318
 5141POPC   NC366611   0.140  22.220   5.625
 5141POPC   PO466612   0.520  21.755   5.221
 5141POPC   GL166613   0.727  22.033   5.611
 5141POPC   GL266614   0.561  21.871   5.811
 5141POPC   C1A66615   0.709  22.220   6.114
 5141POPC   D2A66616   0.620  22.406   6.517
 5141POPC   C3A66617   0.637  22.247   6.948
 5141POPC   C4A66618   0.297  22.316   7.231
 5141POPC   C1B66619   0.286  21.879   6.189
 5141POPC   C2B66620   0.178  22.088   6.557
 5141POPC   C3B66621   0.106  21.929   6.939
 5141POPC   C4B66622  44.890  21.771   7.258
 5142POPC   NC366623  41.338  10.988   5.411
 5142POPC   PO466624  40.809  10.756   5.331
 5142POPC   GL166625  40.878  10.634   5.753
 5142POPC   GL266626  40.692  10.820   5.961
 5142POPC   C1A66627  40.935  10.412   6.164
 5142POPC   D2A66628  40.789  10.284   6.592
 5142POPC   C3A66629  40.879  10.482   7.002
 5142POPC   C4A66630  41.017  10.678   7.402
 5142POPC   C1B66631  40.799  10.834   6.423
 5142POPC   C2B66632  40.782  10.960   6.853
 5142POPC   C3B66633  40.544  10.822   7.211
 5142POPC   C4B66634  40.521  10.788   7.663
 5143POPC   NC366635  27.372  31.821   5.442
 5143POPC   PO466636  27.603  32.520   5.211
 5143POPC   GL166637  27.540  32.332   5.662
 5143POPC   GL266638  27.661  31.995   5.809
 5143POPC   C1A66639  27.466  32.335   6.135
 5143POPC   D2A66640  27.701  32.480   6.488
 5143POPC   C3A66641  27.671  32.331   6.891
 5143POPC   C4A66642  27.484  32.368   7.304
 5143POPC   C1B66643  27.701  31.828   6.248
 5143POPC   C2B66644  27.582  31.851   6.711
 5143POPC   C3B66645  27.654  31.899   7.182
 5143POPC   C4B66646  27.592  32.003   7.632
 5144POPC   NC366647  25.051  12.924   5.454
 5144POPC   PO466648  25.605  12.579   5.451
 5144POPC   GL166649  25.426  12.820   5.791
 5144POPC   GL266650  25.330  13.165   5.825
 5144POPC   C1A66651  25.175  12.804   6.176
 5144POPC   D2A66652  25.074  12.510   6.503
 5144POPC   C3A66653  25.060  12.693   6.928
 5144POPC   C4A66654  25.457  12.748   7.165
 5144POPC   C1B66655  25.410  13.277   6.255
 5144POPC   C2B66656  25.380  13.060   6.659
 5144POPC   C3B66657  25.247  13.186   7.065
 5144POPC   C4B66658  25.308  13.422   7.445
 5145POPC   NC366659  17.015   5.834   5.432
 5145POPC   PO466660  16.326   5.612   5.510
 5145POPC   GL166661  16.625   5.874   5.797
 5145POPC   GL266662  16.919   5.688   5.906
 5145POPC   C1A66663  16.510   6.130   6.181
 5145POPC   D2A66664  16.665   6.337   6.553
 5145POPC   C3A66665  16.593   6.217   6.982
 5145POPC   C4A66666  16.754   6.084   7.373
 5145POPC   C1B66667  16.637   5.654   6.276
 5145POPC   C2B66668  16.537   5.841   6.646
 5145POPC   C3B66669  16.652   5.683   7.019
 5145POPC   C4B66670  16.982   5.448   7.134
 5146POPC   NC366671  32.473  35.132   5.259
 5146POPC   PO466672  33.193  35.073   5.416
 5146POPC   GL166673  33.033  35.258   5.820
 5146POPC   GL266674  32.704  35.101   5.761
 5146POPC   C1A66675  33.206  35.553   6.200
 5146POPC   D2A66676  33.254  35.794   6.618
 5146POPC   C3A66677  33.139  35.592   7.032
 5146POPC   C4A66678  32.874  35.693   7.443
 5146POPC   C1B66679  32.793  34.914   6.161
 5146POPC   C2B66680  32.691  34.780   6.589
 5146POPC   C3B66681  32.816  34.976   6.999
 5146POPC   C4B66682  33.061  35.193   7.342
 5147POPC   NC366683  32.556  44.449   5.500
 5147POPC   PO466684  31.959  44.563   5.047
 5147POPC   GL166685  32.039  44.659   5.553
 5147POPC   GL266686  32.313  44.905   5.642
 5147POPC   C1A66687  32.084  44.504   6.015
 5147POPC   D2A66688  32.201  44.245   6.388
 5147POPC   C3A66689  32.238  44.472   6.808
 5147POPC   C4A66690  32.060  44.666   7.183
 5147POPC   C1B66691  32.451  44.901   6.084
 5147POPC   C2B66692  32.280  44.943   6.517
 5147POPC   C3B66693  32.393  44.961   6.944
 5147POPC   C4B66694  32.579  44.642   7.219
 5148POPC   NC366695  25.713  20.656   5.466
 5148POPC   PO466696  26.272  20.255   5.274
 5148POPC   GL166697  26.120  20.530   5.731
 5148POPC   GL266698  25.992  20.795   5.863
 5148POPC   C1A66699  26.236  20.561   6.243
 5148POPC   D2A66700  26.421  20.554   6.688
 5148POPC   C3A66701  26.084  20.357   6.971
 5148POPC   C4A66702  25.790  20.056   7.168
 5148POPC   C1B66703  25.959  20.996   6.255
 5148POPC   C2B66704  26.053  20.912   6.699
 5148POPC   C3B66705  25.972  20.814   7.133
 5148POPC   C4B66706  25.774  20.985   7.491
 5149POPC   NC366707  39.928  35.268   5.359
 5149POPC   PO466708  40.080  35.866   5.406
 5149POPC   GL166709  39.863  35.613   5.779
 5149POPC   GL266710  39.858  35.248   5.856
 5149POPC   C1A66711  39.905  35.552   6.244
 5149POPC   D2A66712  40.188  35.346   6.541
 5149POPC   C3A66713  40.138  35.519   6.965
 5149POPC   C4A66714  39.944  35.476   7.362
 5149POPC   C1B66715  39.849  35.016   6.265
 5149POPC   C2B66716  39.873  34.989   6.724
 5149POPC   C3B66717  39.716  35.123   7.102
 5149POPC   C4B66718  39.654  35.109   7.566
 5150POPC   NC366719  25.985   7.529   5.334
 5150POPC   PO466720  26.550   7.067   5.622
 5150POPC   GL166721  26.398   7.173   6.052
 5150POPC   GL266722  26.094   7.444   5.993
 5150POPC   C1A66723  26.234   7.284   6.451
 5150POPC   D2A66724  25.875   7.526   6.518
 5150POPC   C3A66725  25.804   7.439   6.928
 5150POPC   C4A66726  26.119   7.351   7.266
 5150POPC   C1B66727  26.221   7.782   6.221
 5150POPC   C2B66728  26.183   7.939   6.595
 5150POPC   C3B66729  26.142   7.793   7.001
 5150POPC   C4B66730  25.732   7.848   7.225
 5151POPC   NC366731   8.808  20.503   5.351
 5151POPC   PO466732   9.240  20.844   5.567
 5151POPC   GL166733   8.979  20.615   5.836
 5151POPC   GL266734   8.773  20.285   5.791
 5151POPC   C1A66735   8.876  20.861   6.189
 5151POPC   D2A66736   8.831  21.096   6.550
 5151POPC   C3A66737   8.884  20.824   6.860
 5151POPC   C4A66738   8.796  20.897   7.245
 5151POPC   C1B66739   9.087  20.217   6.132
 5151POPC   C2B66740   9.230  20.300   6.558
 5151POPC   C3B66741   9.172  20.182   6.990
 5151POPC   C4B66742   8.946  20.415   7.284
 5152POPC   NC366743   7.154  43.287   5.410
 5152POPC   PO466744   7.724  42.802   5.490
 5152POPC   GL166745   7.452  43.055   5.773
 5152POPC   GL266746   7.454  43.433   5.797
 5152POPC   C1A66747   7.468  43.116   6.218
 5152POPC   D2A66748   7.768  42.888   6.492
 5152POPC   C3A66749   7.707  42.954   6.928
 5152POPC   C4A66750   7.411  43.001   7.318
 5152POPC   C1B66751   7.444  43.621   6.225
 5152POPC   C2B66752   7.664  43.454   6.594
 5152POPC   C3B66753   7.541  43.431   7.023
 5152POPC   C4B66754   7.474  43.488   7.476
 5153POPC   NC366755  41.210   4.131   5.369
 5153POPC   PO466756  40.649   4.558   5.414
 5153POPC   GL166757  40.650   4.340   5.812
 5153POPC   GL266758  41.009   4.376   5.816
 5153POPC   C1A66759  40.548   4.495   6.244
 5153POPC   D2A66760  40.543   4.773   6.612
 5153POPC   C3A66761  40.648   4.628   7.035
 5153POPC   C4A66762  40.973   4.387   7.258
 5153POPC   C1B66763  41.002   4.256   6.233
 5153POPC   C2B66764  40.811   4.305   6.667
 5153POPC   C3B66765  40.619   4.088   7.037
 5153POPC   C4B66766  40.671   4.028   7.518
 5154POPC   NC366767  28.838  32.390   5.514
 5154POPC   PO466768  29.243  31.772   5.436
 5154POPC   GL166769  29.004  31.971   5.762
 5154POPC   GL266770  29.178  32.293   5.880
 5154POPC   C1A66771  28.879  32.024   6.189
 5154POPC   D2A66772  29.104  32.206   6.532
 5154POPC   C3A66773  29.159  31.990   6.915
 5154POPC   C4A66774  29.283  32.186   7.306
 5154POPC   C1B66775  28.950  32.556   6.167
 5154POPC   C2B66776  28.903  32.681   6.580
 5154POPC   C3B66777  28.927  32.457   6.966
 5154POPC   C4B66778  28.902  32.541   7.385
 5155POPC   NC366779  19.574  44.944   5.163
 5155POPC   PO466780  19.906  44.518   5.579
 5155POPC   GL166781  20.063  44.535   5.944
 5155POPC   GL266782  20.210  44.868   5.830
 5155POPC   C1A66783  19.750  44.416   6.253
 5155POPC   D2A66784  19.496  44.467   6.593
 5155POPC   C3A66785  19.703  44.507   6.980
 5155POPC   C4A66786  20.090  44.479   7.178
 5155POPC   C1B66787  19.992  44.967   6.216
 5155POPC   C2B66788  19.928  44.778   6.602
 5155POPC   C3B66789  20.000  44.958   6.995
 5155POPC   C4B66790  19.684   0.140   7.239
 5156POPC   NC366791   1.532   5.424   4.950
 5156POPC   PO466792   1.302   5.005   5.388
 5156POPC   GL166793   1.063   4.971   5.758
 5156POPC   GL266794   0.981   5.293   5.874
 5156POPC   C1A66795   1.023   4.771   6.154
 5156POPC   D2A66796   1.128   4.917   6.567
 5156POPC   C3A66797   0.935   4.755   6.935
 5156POPC   C4A66798   0.956   5.028   7.295
 5156POPC   C1B66799   1.348   5.167   6.160
 5156POPC   C2B66800   1.471   5.368   6.542
 5156POPC   C3B66801   1.316   5.347   6.937
 5156POPC   C4B66802   1.374   5.299   7.348
 5157POPC   NC366803   6.121   4.622   5.563
 5157POPC   PO466804   6.224   5.253   5.377
 5157POPC   GL166805   5.937   5.095   5.726
 5157POPC   GL266806   5.699   4.827   5.884
 5157POPC   C1A66807   5.809   5.279   6.122
 5157POPC   D2A66808   5.981   5.544   6.432
 5157POPC   C3A66809   5.964   5.466   6.874
 5157POPC   C4A66810   5.964   5.158   7.235
 5157POPC   C1B66811   5.747   4.820   6.316
 5157POPC   C2B66812   5.813   5.004   6.685
 5157POPC   C3B66813   5.616   4.856   7.046
 5157POPC   C4B66814   5.681   4.594   7.374
 5158POPC   NC366815   3.970  19.520   5.381
 5158POPC   PO466816   3.383  19.925   5.261
 5158POPC   GL166817   3.298  19.749   5.690
 5158POPC   GL266818   3.653  19.714   5.808
 5158POPC   C1A66819   3.261  19.821   6.156
 5158POPC   D2A66820   3.506  19.715   6.558
 5158POPC   C3A66821   3.508  19.949   6.932
 5158POPC   C4A66822   3.173  20.137   7.143
 5158POPC   C1B66823   3.944  19.478   6.081
 5158POPC   C2B66824   4.002  19.545   6.541
 5158POPC   C3B66825   3.916  19.628   6.987
 5158POPC   C4B66826   3.959  19.682   7.430
 5159POPC   NC366827  11.027  13.498   5.478
 5159POPC   PO466828  11.657  13.640   5.373
 5159POPC   GL166829  11.459  13.523   5.766
 5159POPC   GL266830  11.386  13.834   5.808
 5159POPC   C1A66831  11.276  13.543   6.213
 5159POPC   D2A66832  11.467  13.394   6.590
 5159POPC   C3A66833  11.337  13.532   7.001
 5159POPC   C4A66834  10.978  13.631   7.254
 5159POPC   C1B66835  11.636  13.897   6.190
 5159POPC   C2B66836  11.528  13.890   6.601
 5159POPC   C3B66837  11.675  14.087   6.930
 5159POPC   C4B66838  11.689  13.968   7.302
 5160POPC   NC366839  13.382  26.509   5.566
 5160POPC   PO466840  13.392  25.864   5.289
 5160POPC   GL166841  13.433  26.013   5.745
 5160POPC   GL266842  13.735  26.244   5.839
 5160POPC   C1A66843  13.334  25.849   6.182
 5160POPC   D2A66844  13.520  25.718   6.596
 5160POPC   C3A66845  13.398  25.963   6.988
 5160POPC   C4A66846  13.518  26.041   7.441
 5160POPC   C1B66847  13.785  26.079   6.278
 5160POPC   C2B66848  13.782  26.165   6.721
 5160POPC   C3B66849  13.827  26.308   7.151
 5160POPC   C4B66850  13.820  26.422   7.595
 5161POPC   NC366851   9.577  27.616   5.565
 5161POPC   PO466852   8.975  27.599   5.265
 5161POPC   GL166853   8.987  27.683   5.698
 5161POPC   GL266854   9.149  27.343   5.745
 5161POPC   C1A66855   8.835  27.841   6.115
 5161POPC   D2A66856   8.757  27.619   6.501
 5161POPC   C3A66857   8.950  27.682   6.909
 5161POPC   C4A66858   8.840  27.380   7.249
 5161POPC   C1B66859   9.173  27.444   6.195
 5161POPC   C2B66860   9.222  27.300   6.624
 5161POPC   C3B66861   9.306  27.323   7.051
 5161POPC   C4B66862   9.274  27.114   7.445
 5162POPC   NC366863  26.236  15.314   5.425
 5162POPC   PO466864  25.618  15.335   5.498
 5162POPC   GL166865  25.887  15.164   5.819
 5162POPC   GL266866  26.245  15.021   5.835
 5162POPC   C1A66867  25.916  15.115   6.265
 5162POPC   D2A66868  25.993  15.363   6.642
 5162POPC   C3A66869  25.957  15.102   7.003
 5162POPC   C4A66870  26.112  15.157   7.467
 5162POPC   C1B66871  26.444  15.045   6.240
 5162POPC   C2B66872  26.417  15.045   6.684
 5162POPC   C3B66873  26.428  14.965   7.114
 5162POPC   C4B66874  26.577  14.983   7.515
 5163POPC   NC366875   7.751  27.017   5.337
 5163POPC   PO466876   7.345  26.551   5.379
 5163POPC   GL166877   7.299  26.726   5.777
 5163POPC   GL266878   7.023  26.955   5.753
 5163POPC   C1A66879   7.576  26.816   6.122
 5163POPC   D2A66880   7.561  27.100   6.444
 5163POPC   C3A66881   7.662  26.927   6.807
 5163POPC   C4A66882   7.697  26.951   7.224
 5163POPC   C1B66883   7.083  26.968   6.212
 5163POPC   C2B66884   7.189  26.823   6.635
 5163POPC   C3B66885   7.255  26.740   7.049
 5163POPC   C4B66886   7.210  26.944   7.414
 5164POPC   NC366887  21.999  21.100   5.453
 5164POPC   PO466888  22.341  21.650   5.086
 5164POPC   GL166889  22.176  21.588   5.553
 5164POPC   GL266890  22.475  21.595   5.751
 5164POPC   C1A66891  22.037  21.553   6.039
 5164POPC   D2A66892  21.981  21.589   6.531
 5164POPC   C3A66893  22.008  21.211   6.796
 5164POPC   C4A66894  22.402  21.018   6.985
 5164POPC   C1B66895  22.541  21.805   6.144
 5164POPC   C2B66896  22.682  21.739   6.576
 5164POPC   C3B66897  22.418  21.505   6.841
 5164POPC   C4B66898  22.124  21.521   7.197
 5165POPC   NC366899  28.673   0.711   5.551
 5165POPC   PO466900  28.074   0.409   5.354
 5165POPC   GL166901  28.145   0.313   5.789
 5165POPC   GL266902  28.510   0.382   5.922
 5165POPC   C1A66903  28.059   0.402   6.220
 5165POPC   D2A66904  28.319   0.531   6.571
 5165POPC   C3A66905  28.280   0.264   6.927
 5165POPC   C4A66906  28.531   0.131   7.261
 5165POPC   C1B66907  28.708   0.747   6.206
 5165POPC   C2B66908  28.656   0.945   6.642
 5165POPC   C3B66909  28.604   0.667   7.003
 5165POPC   C4B66910  28.804   0.576   7.387
 5166POPC   NC366911  14.800  30.331   5.402
 5166POPC   PO466912  15.006  31.026   5.428
 5166POPC   GL166913  15.098  30.827   5.814
 5166POPC   GL266914  15.237  30.504   5.766
 5166POPC   C1A66915  15.372  30.827   6.175
 5166POPC   D2A66916  15.488  30.713   6.579
 5166POPC   C3A66917  15.187  30.886   6.880
 5166POPC   C4A66918  15.357  30.823   7.310
 5166POPC   C1B66919  15.000  30.439   6.136
 5166POPC   C2B66920  15.074  30.409   6.565
 5166POPC   C3B66921  15.281  30.406   6.959
 5166POPC   C4B66922  14.953  30.541   7.248
 5167POPC   NC366923  30.263   1.017   5.421
 5167POPC   PO466924  29.882   1.568   5.479
 5167POPC   GL166925  29.754   1.227   5.746
 5167POPC   GL266926  30.052   1.149   5.852
 5167POPC   C1A66927  29.679   1.037   6.164
 5167POPC   D2A66928  29.726   0.704   6.463
 5167POPC   C3A66929  29.645   0.818   6.877
 5167POPC   C4A66930  29.759   1.045   7.245
 5167POPC   C1B66931  30.224   1.181   6.245
 5167POPC   C2B66932  29.949   1.214   6.602
 5167POPC   C3B66933  29.986   1.455   6.968
 5167POPC   C4B66934  30.140   1.357   7.364
 5168POPC   NC366935  14.227  26.635   5.309
 5168POPC   PO466936  14.509  27.234   5.452
 5168POPC   GL166937  14.397  26.995   5.822
 5168POPC   GL266938  14.343  26.635   5.799
 5168POPC   C1A66939  14.450  26.863   6.267
 5168POPC   D2A66940  14.111  26.982   6.562
 5168POPC   C3A66941  14.173  27.161   6.982
 5168POPC   C4A66942  14.434  26.972   7.324
 5168POPC   C1B66943  14.166  26.422   6.139
 5168POPC   C2B66944  14.232  26.407   6.572
 5168POPC   C3B66945  14.279  26.642   6.955
 5168POPC   C4B66946  13.977  26.779   7.271
 5169POPC   NC366947  24.648   7.391   5.161
 5169POPC   PO466948  24.321   6.906   5.377
 5169POPC   GL166949  24.415   7.285   5.606
 5169POPC   GL266950  24.071   7.327   5.614
 5169POPC   C1A66951  24.496   7.539   6.008
 5169POPC   D2A66952  24.495   7.724   6.435
 5169POPC   C3A66953  24.373   7.593   6.838
 5169POPC   C4A66954  24.583   7.470   7.206
 5169POPC   C1B66955  24.169   7.141   6.032
 5169POPC   C2B66956  24.141   7.315   6.448
 5169POPC   C3B66957  24.119   7.147   6.873
 5169POPC   C4B66958  24.100   7.329   7.254
 5170POPC   NC366959  23.172  13.850   5.423
 5170POPC   PO466960  22.522  14.026   5.562
 5170POPC   GL166961  22.732  13.717   5.857
 5170POPC   GL266962  23.104  13.684   5.901
 5170POPC   C1A66963  22.810  13.726   6.302
 5170POPC   D2A66964  23.057  13.728   6.680
 5170POPC   C3A66965  22.899  13.638   7.055
 5170POPC   C4A66966  22.577  13.885   7.178
 5170POPC   C1B66967  23.332  13.539   6.299
 5170POPC   C2B66968  23.563  13.755   6.633
 5170POPC   C3B66969  23.421  13.703   7.072
 5170POPC   C4B66970  23.233  13.348   7.340
 5171POPC   NC366971  27.383  37.861   5.582
 5171POPC   PO466972  27.453  37.241   5.477
 5171POPC   GL166973  27.662  37.314   5.847
 5171POPC   GL266974  27.813  37.631   5.874
 5171POPC   C1A66975  27.547  37.402   6.274
 5171POPC   D2A66976  27.737  37.407   6.666
 5171POPC   C3A66977  27.502  37.481   7.069
 5171POPC   C4A66978  27.203  37.714   7.347
 5171POPC   C1B66979  27.921  37.792   6.306
 5171POPC   C2B66980  28.001  37.862   6.749
 5171POPC   C3B66981  27.772  37.896   7.141
 5171POPC   C4B66982  27.863  38.024   7.557
 5172POPC   NC366983   3.706  43.758   5.445
 5172POPC   PO466984   3.064  43.950   5.377
 5172POPC   GL166985   3.330  43.910   5.771
 5172POPC   GL266986   3.633  44.077   5.827
 5172POPC   C1A66987   3.419  43.836   6.234
 5172POPC   D2A66988   3.530  43.633   6.628
 5172POPC   C3A66989   3.265  43.808   6.956
 5172POPC   C4A66990   3.011  43.532   7.212
 5172POPC   C1B66991   3.901  43.848   6.113
 5172POPC   C2B66992   4.010  43.806   6.535
 5172POPC   C3B66993   3.930  43.662   6.965
 5172POPC   C4B66994   3.846  43.817   7.400
 5173POPC   NC366995  39.292   9.587   4.912
 5173POPC   PO466996  39.143  10.070   5.395
 5173POPC   GL166997  39.146   9.958   5.809
 5173POPC   GL266998  38.932   9.711   5.835
 5173POPC   C1A66999  39.333   9.870   6.216
 5173POPC   D2A67000  39.344  10.084   6.620
 5173POPC   C3A67001  39.316   9.811   6.985
 5173POPC   C4A67002  39.418   9.424   7.185
 5173POPC   C1B67003  38.836   9.899   6.262
 5173POPC   C2B67004  38.892   9.726   6.684
 5173POPC   C3B67005  38.840   9.692   7.148
 5173POPC   C4B67006  38.911   9.977   7.504
 5174POPC   NC367007  17.068  25.389   5.416
 5174POPC   PO467008  16.405  25.324   5.329
 5174POPC   GL167009  16.598  25.170   5.680
 5174POPC   GL267010  16.723  25.462   5.804
 5174POPC   C1A67011  16.803  25.039   6.080
 5174POPC   D2A67012  16.974  25.246   6.426
 5174POPC   C3A67013  16.929  25.103   6.864
 5174POPC   C4A67014  16.767  25.242   7.269
 5174POPC   C1B67015  16.560  25.549   6.225
 5174POPC   C2B67016  16.557  25.423   6.653
 5174POPC   C3B67017  16.438  25.555   7.034
 5174POPC   C4B67018  16.207  25.624   7.399
 5175POPC   NC367019  43.792  31.700   4.792
 5175POPC   PO467020  43.985  31.440   5.423
 5175POPC   GL167021  43.850  31.372   5.821
 5175POPC   GL267022  44.111  31.175   5.870
 5175POPC   C1A67023  43.997  31.433   6.279
 5175POPC   D2A67024  44.018  31.210   6.660
 5175POPC   C3A67025  43.806  31.522   6.902
 5175POPC   C4A67026  43.829  31.593   7.305
 5175POPC   C1B67027  43.708  31.019   6.147
 5175POPC   C2B67028  43.551  30.985   6.578
 5175POPC   C3B67029  43.645  31.061   7.024
 5175POPC   C4B67030  43.610  31.126   7.465
 5176POPC   NC367031  10.857  33.850   5.665
 5176POPC   PO467032  10.218  33.646   5.481
 5176POPC   GL167033  10.393  33.729   5.884
 5176POPC   GL267034  10.427  34.097   5.887
 5176POPC   C1A67035  10.550  33.507   6.270
 5176POPC   D2A67036  10.355  33.410   6.699
 5176POPC   C3A67037  10.399  33.706   7.037
 5176POPC   C4A67038  10.435  34.040   7.286
 5176POPC   C1B67039  10.346  34.003   6.337
 5176POPC   C2B67040  10.659  33.853   6.625
 5176POPC   C3B67041  10.892  33.888   6.984
 5176POPC   C4B67042  10.955  34.102   7.347
 5177POPC   NC367043   8.721  11.555   5.492
 5177POPC   PO467044   8.117  11.175   5.286
 5177POPC   GL167045   8.159  11.366   5.758
 5177POPC   GL267046   8.319  11.657   5.806
 5177POPC   C1A67047   8.016  11.218   6.193
 5177POPC   D2A67048   7.998  11.290   6.648
 5177POPC   C3A67049   8.121  11.174   7.061
 5177POPC   C4A67050   8.533  11.082   7.237
 5177POPC   C1B67051   8.402  11.555   6.267
 5177POPC   C2B67052   8.496  11.416   6.707
 5177POPC   C3B67053   8.374  11.603   7.094
 5177POPC   C4B67054   8.335  11.472   7.522
 5178POPC   NC367055   6.857  40.475   5.395
 5178POPC   PO467056   6.855  39.882   5.258
 5178POPC   GL167057   6.652  40.067   5.656
 5178POPC   GL267058   6.853  40.265   5.851
 5178POPC   C1A67059   6.490  40.018   6.121
 5178POPC   D2A67060   6.659  40.094   6.549
 5178POPC   C3A67061   6.503  39.944   6.978
 5178POPC   C4A67062   6.615  40.107   7.416
 5178POPC   C1B67063   7.000  40.387   6.234
 5178POPC   C2B67064   6.879  40.541   6.612
 5178POPC   C3B67065   6.827  40.337   6.977
 5178POPC   C4B67066   6.950  40.522   7.319
 5179POPC   NC367067  30.323  26.592   5.376
 5179POPC   PO467068  29.826  27.001   5.387
 5179POPC   GL167069  30.085  26.929   5.702
 5179POPC   GL267070  30.051  26.604   5.804
 5179POPC   C1A67071  30.081  26.998   6.134
 5179POPC   D2A67072  29.834  26.922   6.500
 5179POPC   C3A67073  30.075  26.794   6.892
 5179POPC   C4A67074  30.100  27.067   7.277
 5179POPC   C1B67075  29.761  26.500   6.109
 5179POPC   C2B67076  29.643  26.433   6.512
 5179POPC   C3B67077  29.555  26.678   6.866
 5179POPC   C4B67078  29.734  26.719   7.278
 5180POPC   NC367079  39.609  35.920   5.456
 5180POPC   PO467080  38.931  36.158   5.445
 5180POPC   GL167081  39.205  36.012   5.774
 5180POPC   GL267082  39.278  36.289   5.979
 5180POPC   C1A67083  39.503  35.855   6.124
 5180POPC   D2A67084  39.662  35.846   6.587
 5180POPC   C3A67085  39.385  36.064   6.855
 5180POPC   C4A67086  39.320  35.994   7.282
 5180POPC   C1B67087  39.252  36.573   6.320
 5180POPC   C2B67088  39.235  36.554   6.757
 5180POPC   C3B67089  39.290  36.503   7.176
 5180POPC   C4B67090  39.217  36.399   7.589
 5181POPC   NC367091  26.088   7.082   5.657
 5181POPC   PO467092  26.188   6.466   5.240
 5181POPC   GL167093  26.036   6.507   5.704
 5181POPC   GL267094  26.278   6.685   5.913
 5181POPC   C1A67095  26.000   6.372   6.178
 5181POPC   D2A67096  26.274   6.553   6.494
 5181POPC   C3A67097  26.204   6.483   6.914
 5181POPC   C4A67098  26.014   6.297   7.228
 5181POPC   C1B67099  25.927   6.870   6.230
 5181POPC   C2B67100  25.804   7.011   6.637
 5181POPC   C3B67101  26.118   6.985   6.922
 5181POPC   C4B67102  26.132   6.811   7.332
 5182POPC   NC367103   2.435   5.470   5.247
 5182POPC   PO467104   2.321   6.082   5.583
 5182POPC   GL167105   2.094   6.002   5.919
 5182POPC   GL267106   1.804   5.807   5.746
 5182POPC   C1A67107   2.051   6.204   6.331
 5182POPC   D2A67108   1.944   6.211   6.776
 5182POPC   C3A67109   2.105   5.964   7.110
 5182POPC   C4A67110   2.461   5.949   7.399
 5182POPC   C1B67111   1.684   5.862   6.158
 5182POPC   C2B67112   1.908   5.750   6.541
 5182POPC   C3B67113   1.770   5.596   6.917
 5182POPC   C4B67114   1.650   5.711   7.309
 5183POPC   NC367115   7.834  44.092   5.442
 5183POPC   PO467116   7.272  43.729   5.395
 5183POPC   GL167117   7.335  43.965   5.754
 5183POPC   GL267118   7.651  43.905   5.877
 5183POPC   C1A67119   7.115  44.078   6.124
 5183POPC   D2A67120   7.078  43.870   6.516
 5183POPC   C3A67121   7.141  44.056   6.923
 5183POPC   C4A67122   7.460  43.910   7.194
 5183POPC   C1B67123   7.608  44.116   6.250
 5183POPC   C2B67124   7.572  43.978   6.653
 5183POPC   C3B67125   7.625  44.306   6.932
 5183POPC   C4B67126   7.836  44.212   7.300
 5184POPC   NC367127  31.099   9.360   5.698
 5184POPC   PO467128  31.686   9.477   5.428
 5184POPC   GL167129  31.559   9.160   5.801
 5184POPC   GL267130  31.268   8.903   5.814
 5184POPC   C1A67131  31.544   8.966   6.254
 5184POPC   D2A67132  31.642   9.145   6.684
 5184POPC   C3A67133  31.708   8.961   7.106
 5184POPC   C4A67134  31.596   9.083   7.534
 5184POPC   C1B67135  31.042   8.844   6.213
 5184POPC   C2B67136  31.097   8.917   6.638
 5184POPC   C3B67137  31.219   8.732   7.014
 5184POPC   C4B67138  31.435   8.619   7.386
 5185POPC   NC367139  19.875  20.257   5.513
 5185POPC   PO467140  19.676  19.717   5.162
 5185POPC   GL167141  19.815  19.757   5.627
 5185POPC   GL267142  20.141  19.588   5.696
 5185POPC   C1A67143  19.760  19.978   6.089
 5185POPC   D2A67144  19.655  20.041   6.544
 5185POPC   C3A67145  19.922  20.096   6.911
 5185POPC   C4A67146  19.629  20.023   7.258
 5185POPC   C1B67147  19.923  19.505   6.079
 5185POPC   C2B67148  19.752  19.509   6.488
 5185POPC   C3B67149  19.691  19.653   6.890
 5185POPC   C4B67150  19.954  19.610   7.234
 5186POPC   NC367151  39.625   1.497   5.289
 5186POPC   PO467152  40.228   1.318   5.472
 5186POPC   GL167153  39.896   1.297   5.730
 5186POPC   GL267154  39.933   0.938   5.719
 5186POPC   C1A67155  39.988   1.320   6.159
 5186POPC   D2A67156  40.029   1.096   6.527
 5186POPC   C3A67157  39.916   1.350   6.863
 5186POPC   C4A67158  39.887   1.131   7.230
 5186POPC   C1B67159  39.956   0.759   6.135
 5186POPC   C2B67160  39.700   0.616   6.491
 5186POPC   C3B67161  39.753   0.671   6.924
 5186POPC   C4B67162  39.567   0.682   7.305
 5187POPC   NC367163  21.043  26.356   5.495
 5187POPC   PO467164  21.638  26.304   5.487
 5187POPC   GL167165  21.486  26.042   5.838
 5187POPC   GL267166  21.128  26.113   5.948
 5187POPC   C1A67167  21.472  26.020   6.308
 5187POPC   D2A67168  21.284  26.271   6.640
 5187POPC   C3A67169  21.480  26.171   7.018
 5187POPC   C4A67170  21.728  26.331   7.400
 5187POPC   C1B67171  20.973  25.873   6.321
 5187POPC   C2B67172  20.933  25.910   6.766
 5187POPC   C3B67173  20.986  26.253   7.076
 5187POPC   C4B67174  21.231  26.241   7.444
 5188POPC   NC367175   0.458   3.224   5.439
 5188POPC   PO467176   0.116   3.762   5.583
 5188POPC   GL167177   0.375   3.567   5.861
 5188POPC   GL267178   0.719   3.598   5.769
 5188POPC   C1A67179   0.401   3.704   6.274
 5188POPC   D2A67180   0.593   3.848   6.658
 5188POPC   C3A67181   0.353   3.598   6.938
 5188POPC   C4A67182   0.426   3.287   7.239
 5188POPC   C1B67183   0.786   3.404   6.205
 5188POPC   C2B67184   0.939   3.442   6.639
 5188POPC   C3B67185   0.847   3.561   7.065
 5188POPC   C4B67186   0.835   3.486   7.536
 5189POPC   NC367187   6.691  25.545   5.047
 5189POPC   PO467188   6.561  25.095   5.588
 5189POPC   GL167189   6.764  25.118   5.959
 5189POPC   GL267190   6.455  25.273   6.087
 5189POPC   C1A67191   6.810  25.163   6.424
 5189POPC   D2A67192   6.487  25.220   6.718
 5189POPC   C3A67193   6.718  24.988   7.001
 5189POPC   C4A67194   6.815  25.045   7.441
 5189POPC   C1B67195   6.364  25.635   6.356
 5189POPC   C2B67196   6.282  25.737   6.766
 5189POPC   C3B67197   6.321  25.594   7.120
 5189POPC   C4B67198   6.287  25.177   7.222
 5190POPC   NC367199  15.823  11.824   5.165
 5190POPC   PO467200  16.027  11.208   5.476
 5190POPC   GL167201  16.052  11.149   5.888
 5190POPC   GL267202  16.189  11.472   5.915
 5190POPC   C1A67203  15.770  11.301   6.196
 5190POPC   D2A67204  15.564  11.282   6.564
 5190POPC   C3A67205  15.776  11.384   6.973
 5190POPC   C4A67206  15.785  11.269   7.417
 5190POPC   C1B67207  16.171  11.631   6.293
 5190POPC   C2B67208  16.286  11.594   6.712
 5190POPC   C3B67209  16.180  11.778   7.079
 5190POPC   C4B67210  15.970  11.868   7.412
 5191POPC   NC367211  40.351  22.887   5.382
 5191POPC   PO467212  39.696  22.875   5.371
 5191POPC   GL167213  39.829  23.068   5.800
 5191POPC   GL267214  40.212  23.106   5.857
 5191POPC   C1A67215  39.892  22.997   6.254
 5191POPC   D2A67216  40.083  22.794   6.601
 5191POPC   C3A67217  39.846  22.832   6.969
 5191POPC   C4A67218  40.033  22.688   7.356
 5191POPC   C1B67219  40.280  23.331   6.258
 5191POPC   C2B67220  40.196  23.297   6.726
 5191POPC   C3B67221  40.246  23.097   7.134
 5191POPC   C4B67222  40.243  23.277   7.579
 5192POPC   NC367223  30.911  16.148   5.412
 5192POPC   PO467224  30.514  15.606   5.453
 5192POPC   GL167225  30.549  15.886   5.769
 5192POPC   GL267226  30.898  15.937   5.870
 5192POPC   C1A67227  30.494  15.861   6.210
 5192POPC   D2A67228  30.701  15.779   6.602
 5192POPC   C3A67229  30.535  15.837   7.016
 5192POPC   C4A67230  30.608  16.181   7.245
 5192POPC   C1B67231  30.998  15.619   6.147
 5192POPC   C2B67232  31.168  15.597   6.541
 5192POPC   C3B67233  31.013  15.544   6.952
 5192POPC   C4B67234  31.009  15.855   7.253
 5193POPC   NC367235  18.546   6.823   5.360
 5193POPC   PO467236  17.970   6.461   5.534
 5193POPC   GL167237  18.336   6.582   5.771
 5193POPC   GL267238  18.440   6.934   5.847
 5193POPC   C1A67239  18.505   6.513   6.167
 5193POPC   D2A67240  18.475   6.302   6.572
 5193POPC   C3A67241  18.336   6.513   6.936
 5193POPC   C4A67242  18.522   6.487   7.355
 5193POPC   C1B67243  18.331   7.019   6.256
 5193POPC   C2B67244  18.123   6.805   6.568
 5193POPC   C3B67245  18.136   6.974   6.970
 5193POPC   C4B67246  18.469   6.964   7.243
 5194POPC   NC367247   8.263  40.022   5.232
 5194POPC   PO467248   7.749  39.563   5.239
 5194POPC   GL167249   8.073  39.686   5.604
 5194POPC   GL267250   8.318  39.984   5.734
 5194POPC   C1A67251   8.054  39.686   6.076
 5194POPC   D2A67252   7.893  39.836   6.485
 5194POPC   C3A67253   8.141  39.769   6.854
 5194POPC   C4A67254   8.134  39.767   7.289
 5194POPC   C1B67255   8.162  40.214   6.116
 5194POPC   C2B67256   8.236  40.304   6.558
 5194POPC   C3B67257   8.098  40.284   6.986
 5194POPC   C4B67258   8.371  40.213   7.312
 5195POPC   NC367259  30.998  24.467   5.323
 5195POPC   PO467260  30.458  24.792   5.477
 5195POPC   GL167261  30.719  24.770   5.830
 5195POPC   GL267262  30.778  24.410   5.831
 5195POPC   C1A67263  30.650  24.683   6.274
 5195POPC   D2A67264  30.689  24.767   6.696
 5195POPC   C3A67265  30.324  24.693   6.925
 5195POPC   C4A67266  30.430  24.731   7.339
 5195POPC   C1B67267  30.516  24.209   6.189
 5195POPC   C2B67268  30.562  24.284   6.650
 5195POPC   C3B67269  30.729  24.414   7.092
 5195POPC   C4B67270  30.586  24.254   7.521
 5196POPC   NC367271  28.883  26.542   5.459
 5196POPC   PO467272  28.252  26.971   5.502
 5196POPC   GL167273  28.480  26.780   5.836
 5196POPC   GL267274  28.828  26.859   5.890
 5196POPC   C1A67275  28.347  26.688   6.273
 5196POPC   D2A67276  28.039  26.658   6.589
 5196POPC   C3A67277  28.127  26.845   6.975
 5196POPC   C4A67278  28.163  26.975   7.406
 5196POPC   C1B67279  28.791  26.481   6.148
 5196POPC   C2B67280  28.653  26.406   6.592
 5196POPC   C3B67281  28.572  26.553   7.002
 5196POPC   C4B67282  28.633  26.938   7.211
 5197POPC   NC367283  12.295   4.104   5.455
 5197POPC   PO467284  11.746   4.538   5.472
 5197POPC   GL167285  11.913   4.209   5.806
 5197POPC   GL267286  12.225   4.258   5.946
 5197POPC   C1A67287  11.931   4.059   6.295
 5197POPC   D2A67288  12.291   4.260   6.562
 5197POPC   C3A67289  12.188   4.366   7.008
 5197POPC   C4A67290  11.785   4.137   7.080
 5197POPC   C1B67291  12.392   3.903   6.170
 5197POPC   C2B67292  12.386   3.758   6.599
 5197POPC   C3B67293  12.284   3.864   7.024
 5197POPC   C4B67294  12.136   4.042   7.440
 5198POPC   NC367295   6.214  44.745   5.490
 5198POPC   PO467296   6.871  44.529   5.508
 5198POPC   GL167297   6.776  44.793   5.874
 5198POPC   GL267298   6.469  44.627   5.906
 5198POPC   C1A67299   6.550  44.943   6.281
 5198POPC   D2A67300   6.400   0.108   6.668
 5198POPC   C3A67301   6.546  44.898   7.042
 5198POPC   C4A67302   6.715  44.641   7.400
 5198POPC   C1B67303   6.520  44.416   6.273
 5198POPC   C2B67304   6.417  44.568   6.674
 5198POPC   C3B67305   6.444  44.364   7.059
 5198POPC   C4B67306   6.719  44.040   7.206
 5199POPC   NC367307  19.147  35.146   5.226
 5199POPC   PO467308  19.812  35.272   5.454
 5199POPC   GL167309  19.796  35.493   5.839
 5199POPC   GL267310  19.939  35.211   5.965
 5199POPC   C1A67311  19.824  35.590   6.303
 5199POPC   D2A67312  19.701  35.403   6.701
 5199POPC   C3A67313  19.849  35.408   7.102
 5199POPC   C4A67314  19.678  35.651   7.434
 5199POPC   C1B67315  19.784  35.076   6.345
 5199POPC   C2B67316  20.021  35.012   6.759
 5199POPC   C3B67317  19.834  34.909   7.164
 5199POPC   C4B67318  19.818  35.126   7.568
 5200POPC   NC367319   8.000  36.820   5.376
 5200POPC   PO467320   8.602  37.197   5.404
 5200POPC   GL167321   8.431  36.920   5.697
 5200POPC   GL267322   8.154  37.156   5.760
 5200POPC   C1A67323   8.405  36.887   6.141
 5200POPC   D2A67324   8.470  37.224   6.470
 5200POPC   C3A67325   8.495  37.141   6.912
 5200POPC   C4A67326   8.374  36.846   7.249
 5200POPC   C1B67327   8.016  37.230   6.200
 5200POPC   C2B67328   7.975  37.151   6.666
 5200POPC   C3B67329   8.020  37.236   7.126
 5200POPC   C4B67330   7.791  37.072   7.479
 5201POPC   NC367331  39.419  39.300   5.437
 5201POPC   PO467332  38.784  39.235   5.420
 5201POPC   GL167333  38.899  39.144   5.858
 5201POPC   GL267334  39.232  39.109   5.864
 5201POPC   C1A67335  38.901  39.359   6.304
 5201POPC   D2A67336  38.822  39.400   6.775
 5201POPC   C3A67337  39.103  39.657   7.070
 5201POPC   C4A67338  39.581  39.631   7.119
 5201POPC   C1B67339  39.203  38.898   6.245
 5201POPC   C2B67340  39.446  38.939   6.621
 5201POPC   C3B67341  39.314  39.193   6.973
 5201POPC   C4B67342  38.949  39.153   7.225
 5202POPC   NC367343  27.414  34.520   5.411
 5202POPC   PO467344  26.748  34.498   5.382
 5202POPC   GL167345  26.710  34.521   5.814
 5202POPC   GL267346  27.061  34.591   5.830
 5202POPC   C1A67347  26.589  34.660   6.224
 5202POPC   D2A67348  26.631  34.422   6.589
 5202POPC   C3A67349  26.888  34.503   6.915
 5202POPC   C4A67350  26.689  34.346   7.236
 5202POPC   C1B67351  27.035  34.933   6.137
 5202POPC   C2B67352  26.956  34.871   6.563
 5202POPC   C3B67353  27.088  34.994   6.975
 5202POPC   C4B67354  27.137  34.722   7.318
 5203POPC   NC367355  29.626   4.726   5.578
 5203POPC   PO467356  29.802   4.056   5.508
 5203POPC   GL167357  29.847   4.297   5.888
 5203POPC   GL267358  29.960   4.653   5.960
 5203POPC   C1A67359  30.094   4.296   6.287
 5203POPC   D2A67360  30.079   4.556   6.659
 5203POPC   C3A67361  30.083   4.252   6.997
 5203POPC   C4A67362  30.351   3.972   7.229
 5203POPC   C1B67363  29.609   4.491   6.259
 5203POPC   C2B67364  29.493   4.395   6.665
 5203POPC   C3B67365  29.683   4.564   7.031
 5203POPC   C4B67366  29.828   4.441   7.473
 5204POPC   NC367367  37.153  32.400   5.126
 5204POPC   PO467368  37.456  31.923   5.509
 5204POPC   GL167369  37.513  32.098   5.913
 5204POPC   GL267370  37.750  32.387   5.838
 5204POPC   C1A67371  37.399  32.388   6.253
 5204POPC   D2A67372  37.629  32.549   6.591
 5204POPC   C3A67373  37.526  32.376   7.015
 5204POPC   C4A67374  37.379  32.204   7.436
 5204POPC   C1B67375  37.908  32.232   6.226
 5204POPC   C2B67376  37.939  32.139   6.654
 5204POPC   C3B67377  38.046  32.489   6.911
 5204POPC   C4B67378  37.898  32.671   7.280
 5205POPC   NC367379   7.069   2.248   5.496
 5205POPC   PO467380   7.505   1.742   5.344
 5205POPC   GL167381   7.595   1.970   5.736
 5205POPC   GL267382   7.596   2.334   5.742
 5205POPC   C1A67383   7.443   1.972   6.170
 5205POPC   D2A67384   7.187   1.904   6.521
 5205POPC   C3A67385   7.390   1.967   6.877
 5205POPC   C4A67386   7.161   2.099   7.207
 5205POPC   C1B67387   7.782   2.361   6.168
 5205POPC   C2B67388   7.767   2.224   6.598
 5205POPC   C3B67389   7.689   2.368   7.009
 5205POPC   C4B67390   7.718   2.166   7.385
 5206POPC   NC367391  15.955  27.587   5.084
 5206POPC   PO467392  15.707  27.516   5.663
 5206POPC   GL167393  15.932  27.751   5.913
 5206POPC   GL267394  15.675  27.916   6.074
 5206POPC   C1A67395  16.199  27.607   6.240
 5206POPC   D2A67396  16.372  27.494   6.601
 5206POPC   C3A67397  16.203  27.734   6.933
 5206POPC   C4A67398  15.898  27.686   7.267
 5206POPC   C1B67399  15.698  27.545   6.331
 5206POPC   C2B67400  15.748  27.550   6.755
 5206POPC   C3B67401  15.614  27.300   7.056
 5206POPC   C4B67402  15.566  27.335   7.483
 5207POPC   NC367403   0.013  34.586   5.476
 5207POPC   PO467404   0.583  34.877   5.478
 5207POPC   GL167405   0.570  34.594   5.836
 5207POPC   GL267406   0.276  34.378   5.889
 5207POPC   C1A67407   0.522  34.629   6.286
 5207POPC   D2A67408   0.351  34.546   6.685
 5207POPC   C3A67409   0.519  34.688   7.078
 5207POPC   C4A67410   0.637  34.728   7.521
 5207POPC   C1B67411   0.283  34.151   6.302
 5207POPC   C2B67412   0.013  34.144   6.679
 5207POPC   C3B67413   0.005  34.173   7.120
 5207POPC   C4B67414   0.308  34.333   7.382
 5208POPC   NC367415   4.716  36.151   5.478
 5208POPC   PO467416   5.405  36.061   5.542
 5208POPC   GL167417   5.157  36.014   5.889
 5208POPC   GL267418   4.907  36.272   5.934
 5208POPC   C1A67419   5.256  36.078   6.315
 5208POPC   D2A67420   5.464  35.902   6.694
 5208POPC   C3A67421   5.129  35.770   6.981
 5208POPC   C4A67422   4.877  35.855   7.364
 5208POPC   C1B67423   4.811  36.369   6.366
 5208POPC   C2B67424   5.040  36.254   6.762
 5208POPC   C3B67425   5.078  36.392   7.194
 5208POPC   C4B67426   4.812  36.346   7.563
 5209POPC   NC367427  40.644  11.426   5.363
 5209POPC   PO467428  41.246  11.450   5.390
 5209POPC   GL167429  40.999  11.224   5.763
 5209POPC   GL267430  40.628  11.319   5.853
 5209POPC   C1A67431  40.978  11.289   6.243
 5209POPC   D2A67432  40.714  11.424   6.622
 5209POPC   C3A67433  40.823  11.400   7.097
 5209POPC   C4A67434  40.986  11.657   7.445
 5209POPC   C1B67435  40.468  11.163   6.234
 5209POPC   C2B67436  40.323  11.103   6.646
 5209POPC   C3B67437  40.323  11.275   7.052
 5209POPC   C4B67438  40.463  11.262   7.460
 5210POPC   NC367439  28.881  11.747   5.487
 5210POPC   PO467440  29.188  12.283   5.504
 5210POPC   GL167441  29.105  12.104   5.889
 5210POPC   GL267442  29.266  11.792   5.818
 5210POPC   C1A67443  29.065  12.225   6.335
 5210POPC   D2A67444  29.075  12.432   6.747
 5210POPC   C3A67445  29.093  12.115   7.075
 5210POPC   C4A67446  29.177  11.746   7.417
 5210POPC   C1B67447  29.406  11.837   6.218
 5210POPC   C2B67448  29.247  11.771   6.620
 5210POPC   C3B67449  29.466  11.788   6.998
 5210POPC   C4B67450  29.625  11.973   7.355
 5211POPC   NC367451  18.626   1.636   5.530
 5211POPC   PO467452  19.206   1.277   5.443
 5211POPC   GL167453  19.298   1.064   5.837
 5211POPC   GL267454  18.954   1.055   5.891
 5211POPC   C1A67455  19.250   0.890   6.294
 5211POPC   D2A67456  19.124   1.079   6.717
 5211POPC   C3A67457  19.359   0.982   7.097
 5211POPC   C4A67458  19.640   1.146   7.459
 5211POPC   C1B67459  18.938   1.292   6.266
 5211POPC   C2B67460  18.703   1.380   6.640
 5211POPC   C3B67461  18.836   1.375   7.080
 5211POPC   C4B67462  19.170   1.343   7.414
 5212POPC   NC367463   8.600  43.889   5.403
 5212POPC   PO467464   7.969  43.662   5.577
 5212POPC   GL167465   8.255  43.836   5.831
 5212POPC   GL267466   8.530  43.564   5.801
 5212POPC   C1A67467   8.087  43.927   6.239
 5212POPC   D2A67468   8.054  44.154   6.614
 5212POPC   C3A67469   8.046  43.904   6.971
 5212POPC   C4A67470   7.951  43.702   7.372
 5212POPC   C1B67471   8.394  43.514   6.229
 5212POPC   C2B67472   8.387  43.674   6.656
 5212POPC   C3B67473   8.478  43.638   7.118
 5212POPC   C4B67474   8.357  43.345   7.434
 5213POPC   NC367475  40.503  10.437   5.417
 5213POPC   PO467476  39.876  10.609   5.545
 5213POPC   GL167477  39.958  10.467   5.929
 5213POPC   GL267478  40.312  10.479   5.901
 5213POPC   C1A67479  39.791  10.454   6.363
 5213POPC   D2A67480  39.837  10.394   6.827
 5213POPC   C3A67481  39.693  10.594   7.235
 5213POPC   C4A67482  39.777  10.629   7.707
 5213POPC   C1B67483  40.277  10.696   6.296
 5213POPC   C2B67484  40.421  10.614   6.697
 5213POPC   C3B67485  40.361  10.374   7.028
 5213POPC   C4B67486  40.157  10.447   7.393
 5214POPC   NC367487  15.360  17.106   5.377
 5214POPC   PO467488  15.387  17.770   5.211
 5214POPC   GL167489  15.215  17.503   5.685
 5214POPC   GL267490  14.915  17.504   5.909
 5214POPC   C1A67491  15.311  17.533   6.186
 5214POPC   D2A67492  15.323  17.689   6.621
 5214POPC   C3A67493  15.268  17.473   6.996
 5214POPC   C4A67494  15.226  17.528   7.420
 5214POPC   C1B67495  14.823  17.610   6.360
 5214POPC   C2B67496  14.806  17.370   6.752
 5214POPC   C3B67497  14.913  17.174   7.171
 5214POPC   C4B67498  15.029  17.114   7.620
 5215POPC   NC367499  18.443  41.380   5.532
 5215POPC   PO467500  17.880  41.680   5.506
 5215POPC   GL167501  18.135  41.724   5.843
 5215POPC   GL267502  18.489  41.825   5.821
 5215POPC   C1A67503  18.040  41.534   6.218
 5215POPC   D2A67504  17.867  41.527   6.619
 5215POPC   C3A67505  18.094  41.610   6.999
 5215POPC   C4A67506  18.153  41.237   7.192
 5215POPC   C1B67507  18.549  41.551   6.158
 5215POPC   C2B67508  18.415  41.560   6.565
 5215POPC   C3B67509  18.552  41.346   6.889
 5215POPC   C4B67510  18.575  41.579   7.230
 5216POPC   NC367511  27.462  16.833   5.308
 5216POPC   PO467512  27.953  16.379   5.233
 5216POPC   GL167513  27.778  16.507   5.676
 5216POPC   GL267514  27.408  16.520   5.726
 5216POPC   C1A67515  27.765  16.751   6.088
 5216POPC   D2A67516  27.639  16.940   6.494
 5216POPC   C3A67517  27.566  16.699   6.853
 5216POPC   C4A67518  27.721  16.639   7.247
 5216POPC   C1B67519  27.256  16.774   6.073
 5216POPC   C2B67520  27.141  16.871   6.524
 5216POPC   C3B67521  27.127  16.950   6.961
 5216POPC   C4B67522  27.215  16.677   7.295
 5217POPC   NC367523  13.486  31.425   5.393
 5217POPC   PO467524  13.886  30.903   5.619
 5217POPC   GL167525  13.768  31.345   5.836
 5217POPC   GL267526  13.413  31.423   5.909
 5217POPC   C1A67527  13.735  31.596   6.252
 5217POPC   D2A67528  13.542  31.401   6.641
 5217POPC   C3A67529  13.751  31.472   7.045
 5217POPC   C4A67530  13.868  31.864   7.147
 5217POPC   C1B67531  13.232  31.704   6.269
 5217POPC   C2B67532  13.116  31.728   6.705
 5217POPC   C3B67533  13.249  31.539   7.061
 5217POPC   C4B67534  13.402  31.142   7.230
 5218POPC   NC367535  40.349  25.417   5.485
 5218POPC   PO467536  39.934  24.882   5.482
 5218POPC   GL167537  39.986  25.176   5.781
 5218POPC   GL267538  40.296  25.052   5.871
 5218POPC   C1A67539  39.996  25.424   6.151
 5218POPC   D2A67540  39.738  25.473   6.509
 5218POPC   C3A67541  39.956  25.346   6.856
 5218POPC   C4A67542  39.848  25.412   7.252
 5218POPC   C1B67543  40.268  24.830   6.292
 5218POPC   C2B67544  40.214  24.893   6.750
 5218POPC   C3B67545  40.234  25.038   7.191
 5218POPC   C4B67546  40.364  24.943   7.666
 5219POPC   NC367547  29.650  26.554   5.462
 5219POPC   PO467548  29.066  26.998   5.453
 5219POPC   GL167549  29.312  26.773   5.758
 5219POPC   GL267550  29.583  26.967   5.865
 5219POPC   C1A67551  29.271  26.638   6.187
 5219POPC   D2A67552  28.966  26.832   6.488
 5219POPC   C3A67553  29.030  26.790   6.923
 5219POPC   C4A67554  29.244  26.571   7.243
 5219POPC   C1B67555  29.289  27.132   6.215
 5219POPC   C2B67556  29.369  27.125   6.678
 5219POPC   C3B67557  29.373  27.106   7.155
 5219POPC   C4B67558  29.343  27.347   7.550
 5220POPC   NC367559  37.298  37.169   5.534
 5220POPC   PO467560  37.813  36.888   5.120
 5220POPC   GL167561  37.767  36.982   5.686
 5220POPC   GL267562  37.679  36.671   5.881
 5220POPC   C1A67563  37.582  37.124   6.119
 5220POPC   D2A67564  37.315  36.965   6.471
 5220POPC   C3A67565  37.404  37.021   6.909
 5220POPC   C4A67566  37.519  36.861   7.310
 5220POPC   C1B67567  37.958  36.786   6.243
 5220POPC   C2B67568  37.881  36.945   6.691
 5220POPC   C3B67569  37.987  36.833   7.146
 5220POPC   C4B67570  38.015  36.930   7.625
 5221POPC   NC367571  30.160   0.205   5.589
 5221POPC   PO467572  29.815   0.794   5.434
 5221POPC   GL167573  29.844   0.611   5.847
 5221POPC   GL267574  30.192   0.660   5.833
 5221POPC   C1A67575  30.028   0.360   6.217
 5221POPC   D2A67576  29.886   0.171   6.605
 5221POPC   C3A67577  29.983   0.426   6.965
 5221POPC   C4A67578  30.007   0.278   7.376
 5221POPC   C1B67579  30.418   0.693   6.215
 5221POPC   C2B67580  30.218   0.774   6.601
 5221POPC   C3B67581  30.181   0.942   6.998
 5221POPC   C4B67582  30.190   0.823   7.438
 5222POPC   NC367583  25.720  16.808   5.377
 5222POPC   PO467584  26.309  16.451   5.399
 5222POPC   GL167585  26.026  16.545   5.743
 5222POPC   GL267586  26.060  16.900   5.775
 5222POPC   C1A67587  26.136  16.592   6.198
 5222POPC   D2A67588  26.193  16.905   6.544
 5222POPC   C3A67589  26.062  16.728   6.934
 5222POPC   C4A67590  25.788  16.470   7.172
 5222POPC   C1B67591  25.717  16.862   6.069
 5222POPC   C2B67592  25.692  16.740   6.495
 5222POPC   C3B67593  25.651  17.031   6.840
 5222POPC   C4B67594  25.719  16.976   7.281
 5223POPC   NC367595  21.557  37.729   5.399
 5223POPC   PO467596  21.626  37.105   5.406
 5223POPC   GL167597  21.410  37.373   5.758
 5223POPC   GL267598  21.562  37.736   5.906
 5223POPC   C1A67599  21.240  37.420   6.185
 5223POPC   D2A67600  21.411  37.595   6.554
 5223POPC   C3A67601  21.395  37.345   6.922
 5223POPC   C4A67602  21.062  37.381   7.187
 5223POPC   C1B67603  21.221  37.929   6.174
 5223POPC   C2B67604  21.066  37.999   6.586
 5223POPC   C3B67605  21.206  37.842   6.993
 5223POPC   C4B67606  21.565  37.984   7.251
 5224POPC   NC367607   2.753  24.122   5.448
 5224POPC   PO467608   2.699  24.794   5.418
 5224POPC   GL167609   2.778  24.555   5.746
 5224POPC   GL267610   3.098  24.525   5.625
 5224POPC   C1A67611   2.699  24.362   6.154
 5224POPC   D2A67612   2.641  24.133   6.552
 5224POPC   C3A67613   2.557  24.378   6.923
 5224POPC   C4A67614   2.821  24.503   7.259
 5224POPC   C1B67615   3.194  24.473   6.072
 5224POPC   C2B67616   3.126  24.365   6.494
 5224POPC   C3B67617   3.129  24.581   6.874
 5224POPC   C4B67618   3.278  24.782   7.270
 5225POPC   NC367619   7.677   2.970   5.164
 5225POPC   PO467620   7.306   3.397   5.538
 5225POPC   GL167621   7.297   3.550   5.898
 5225POPC   GL267622   7.605   3.381   5.954
 5225POPC   C1A67623   7.414   3.880   6.155
 5225POPC   D2A67624   7.565   3.991   6.558
 5225POPC   C3A67625   7.365   3.751   6.861
 5225POPC   C4A67626   7.130   3.671   7.228
 5225POPC   C1B67627   7.417   3.383   6.366
 5225POPC   C2B67628   7.440   3.193   6.760
 5225POPC   C3B67629   7.519   3.361   7.148
 5225POPC   C4B67630   7.747   3.426   7.517
 5226POPC   NC367631  21.947  14.876   5.256
 5226POPC   PO467632  21.493  15.315   5.293
 5226POPC   GL167633  21.599  15.220   5.747
 5226POPC   GL267634  21.396  14.991   5.963
 5226POPC   C1A67635  21.705  15.335   6.201
 5226POPC   D2A67636  21.787  15.137   6.613
 5226POPC   C3A67637  21.502  15.181   6.999
 5226POPC   C4A67638  21.289  15.355   7.366
 5226POPC   C1B67639  21.700  14.751   6.259
 5226POPC   C2B67640  21.826  14.615   6.693
 5226POPC   C3B67641  21.803  14.785   7.112
 5226POPC   C4B67642  21.509  14.889   7.483
 5227POPC   NC367643  22.087  38.084   5.287
 5227POPC   PO467644  22.569  38.549   5.383
 5227POPC   GL167645  22.345  38.498   5.811
 5227POPC   GL267646  22.147  38.187   5.800
 5227POPC   C1A67647  22.100  38.485   6.245
 5227POPC   D2A67648  21.839  38.578   6.645
 5227POPC   C3A67649  22.063  38.741   6.985
 5227POPC   C4A67650  22.371  38.493   7.164
 5227POPC   C1B67651  21.972  37.992   6.167
 5227POPC   C2B67652  22.089  38.096   6.609
 5227POPC   C3B67653  22.016  38.140   7.040
 5227POPC   C4B67654  22.096  37.851   7.371
 5228POPC   NC367655  19.714  10.663   5.464
 5228POPC   PO467656  19.899   9.995   5.568
 5228POPC   GL167657  20.026  10.361   5.820
 5228POPC   GL267658  19.780  10.602   5.961
 5228POPC   C1A67659  20.089  10.307   6.256
 5228POPC   D2A67660  19.998  10.322   6.657
 5228POPC   C3A67661  19.981  10.664   6.899
 5228POPC   C4A67662  19.984  10.403   7.246
 5228POPC   C1B67663  19.840  10.736   6.389
 5228POPC   C2B67664  19.505  10.561   6.657
 5228POPC   C3B67665  19.509  10.521   7.086
 5228POPC   C4B67666  19.731  10.825   7.314
 5229POPC   NC367667  37.090  44.533   5.461
 5229POPC   PO467668  36.625  44.761   5.215
 5229POPC   GL167669  36.743  44.796   5.738
 5229POPC   GL267670  37.109  44.813   5.872
 5229POPC   C1A67671  36.769  44.873   6.244
 5229POPC   D2A67672  37.057  44.888   6.615
 5229POPC   C3A67673  36.908  44.825   7.028
 5229POPC   C4A67674  36.576  44.526   7.073
 5229POPC   C1B67675  37.172  44.516   6.239
 5229POPC   C2B67676  37.078  44.353   6.682
 5229POPC   C3B67677  37.112  44.366   7.143
 5229POPC   C4B67678  37.109  44.171   7.556
 5230POPC   NC367679  29.314  32.223   5.385
 5230POPC   PO467680  29.999  32.012   5.337
 5230POPC   GL167681  30.019  32.231   5.757
 5230POPC   GL267682  29.676  32.187   5.787
 5230POPC   C1A67683  30.023  32.208   6.246
 5230POPC   D2A67684  29.941  32.350   6.709
 5230POPC   C3A67685  30.203  32.243   7.098
 5230POPC   C4A67686  30.198  31.943   7.468
 5230POPC   C1B67687  29.589  32.490   6.128
 5230POPC   C2B67688  29.447  32.614   6.535
 5230POPC   C3B67689  29.445  32.415   6.897
 5230POPC   C4B67690  29.743  32.369   7.245
 5231POPC   NC367691  10.877  27.072   5.540
 5231POPC   PO467692  10.494  26.523   5.527
 5231POPC   GL167693  10.566  26.725   5.910
 5231POPC   GL267694  10.495  27.058   5.903
 5231POPC   C1A67695  10.701  26.818   6.347
 5231POPC   D2A67696  10.643  27.011   6.792
 5231POPC   C3A67697  10.424  26.804   7.161
 5231POPC   C4A67698  10.548  26.876   7.622
 5231POPC   C1B67699  10.193  27.161   6.218
 5231POPC   C2B67700  10.125  27.060   6.638
 5231POPC   C3B67701  10.244  27.250   7.036
 5231POPC   C4B67702  10.190  27.186   7.459
 5232POPC   NC367703   5.287  44.546   5.173
 5232POPC   PO467704   5.935  44.594   5.160
 5232POPC   GL167705   5.858  44.536   5.779
 5232POPC   GL267706   6.042  44.349   6.044
 5232POPC   C1A67707   6.012  44.821   6.170
 5232POPC   D2A67708   5.913  44.672   6.582
 5232POPC   C3A67709   6.013  44.887   6.963
 5232POPC   C4A67710   6.151  44.706   7.338
 5232POPC   C1B67711   5.623  44.210   6.161
 5232POPC   C2B67712   5.412  44.216   6.585
 5232POPC   C3B67713   5.489  44.560   6.869
 5232POPC   C4B67714   5.667  44.532   7.270
 5233POPC   NC367715  10.388  34.450   5.502
 5233POPC   PO467716  10.474  35.062   5.280
 5233POPC   GL167717  10.526  34.874   5.763
 5233POPC   GL267718  10.679  34.561   5.909
 5233POPC   C1A67719  10.314  34.731   6.206
 5233POPC   D2A67720  10.325  34.494   6.614
 5233POPC   C3A67721  10.412  34.770   6.986
 5233POPC   C4A67722  10.789  34.951   7.162
 5233POPC   C1B67723  10.809  34.213   6.219
 5233POPC   C2B67724  10.980  34.255   6.632
 5233POPC   C3B67725  10.804  34.431   6.994
 5233POPC   C4B67726  10.645  34.495   7.408
 5234POPC   NC367727  28.048   6.770   5.573
 5234POPC   PO467728  28.583   6.465   5.365
 5234POPC   GL167729  28.475   6.500   5.789
 5234POPC   GL267730  28.489   6.845   5.852
 5234POPC   C1A67731  28.215   6.479   6.172
 5234POPC   D2A67732  28.117   6.677   6.562
 5234POPC   C3A67733  28.218   6.426   6.890
 5234POPC   C4A67734  28.559   6.530   7.187
 5234POPC   C1B67735  28.375   6.990   6.222
 5234POPC   C2B67736  28.575   6.894   6.579
 5234POPC   C3B67737  28.415   6.976   6.957
 5234POPC   C4B67738  28.439   7.133   7.342
 5235POPC   NC367739  12.505  43.468   5.550
 5235POPC   PO467740  12.799  42.933   5.318
 5235POPC   GL167741  12.929  43.147   5.711
 5235POPC   GL267742  13.204  42.913   5.735
 5235POPC   C1A67743  12.874  43.307   6.143
 5235POPC   D2A67744  12.618  43.197   6.527
 5235POPC   C3A67745  12.707  43.482   6.857
 5235POPC   C4A67746  12.833  43.615   7.252
 5235POPC   C1B67747  12.950  42.780   6.093
 5235POPC   C2B67748  12.952  42.686   6.547
 5235POPC   C3B67749  12.985  42.855   6.958
 5235POPC   C4B67750  12.719  43.108   7.239
 5236POPC   NC367751  36.842  23.712   5.429
 5236POPC   PO467752  37.456  23.743   5.722
 5236POPC   GL167753  37.061  23.615   5.886
 5236POPC   GL267754  36.779  23.884   5.901
 5236POPC   C1A67755  37.006  23.673   6.313
 5236POPC   D2A67756  37.129  23.866   6.704
 5236POPC   C3A67757  37.095  23.602   7.095
 5236POPC   C4A67758  36.821  23.578   7.499
 5236POPC   C1B67759  36.695  24.075   6.302
 5236POPC   C2B67760  36.619  23.892   6.705
 5236POPC   C3B67761  36.693  23.897   7.122
 5236POPC   C4B67762  36.471  24.008   7.451
 5237POPC   NC367763  15.225   7.532   5.357
 5237POPC   PO467764  14.777   7.140   5.544
 5237POPC   GL167765  15.204   7.236   5.786
 5237POPC   GL267766  15.314   7.597   5.848
 5237POPC   C1A67767  15.492   7.233   6.171
 5237POPC   D2A67768  15.533   7.423   6.595
 5237POPC   C3A67769  15.238   7.326   6.935
 5237POPC   C4A67770  15.217   7.380   7.388
 5237POPC   C1B67771  15.190   7.678   6.264
 5237POPC   C2B67772  15.078   7.726   6.682
 5237POPC   C3B67773  15.003   7.780   7.116
 5237POPC   C4B67774  14.818   7.700   7.538
 5238POPC   NC367775  33.598  28.775   5.506
 5238POPC   PO467776  33.765  28.106   5.398
 5238POPC   GL167777  33.712  28.353   5.805
 5238POPC   GL267778  33.974  28.620   5.849
 5238POPC   C1A67779  33.491  28.398   6.213
 5238POPC   D2A67780  33.470  28.119   6.582
 5238POPC   C3A67781  33.496  28.307   6.995
 5238POPC   C4A67782  33.550  28.634   7.330
 5238POPC   C1B67783  33.998  28.422   6.267
 5238POPC   C2B67784  33.821  28.527   6.672
 5238POPC   C3B67785  33.970  28.441   7.107
 5238POPC   C4B67786  34.135  28.093   7.322
 5239POPC   NC367787  30.506  10.066   5.616
 5239POPC   PO467788  30.673   9.408   5.534
 5239POPC   GL167789  30.553   9.547   5.888
 5239POPC   GL267790  30.835   9.788   5.902
 5239POPC   C1A67791  30.441   9.673   6.289
 5239POPC   D2A67792  30.567   9.996   6.605
 5239POPC   C3A67793  30.555   9.887   7.017
 5239POPC   C4A67794  30.433   9.494   7.155
 5239POPC   C1B67795  30.947   9.683   6.305
 5239POPC   C2B67796  31.048   9.864   6.697
 5239POPC   C3B67797  30.991   9.673   7.103
 5239POPC   C4B67798  31.176   9.855   7.429
 5240POPC   NC367799  23.932  19.288   5.541
 5240POPC   PO467800  23.502  18.821   5.463
 5240POPC   GL167801  23.590  19.039   5.847
 5240POPC   GL267802  23.944  18.936   5.914
 5240POPC   C1A67803  23.580  18.892   6.270
 5240POPC   D2A67804  23.824  18.817   6.616
 5240POPC   C3A67805  23.587  18.838   7.005
 5240POPC   C4A67806  23.591  19.026   7.421
 5240POPC   C1B67807  23.987  19.231   6.270
 5240POPC   C2B67808  24.096  19.257   6.703
 5240POPC   C3B67809  24.050  19.087   7.126
 5240POPC   C4B67810  24.059  19.152   7.598
 5241POPC   NC367811   4.141  11.607   5.540
 5241POPC   PO467812   4.394  11.068   5.331
 5241POPC   GL167813   4.357  11.187   5.743
 5241POPC   GL267814   4.561  11.505   5.803
 5241POPC   C1A67815   4.511  11.109   6.145
 5241POPC   D2A67816   4.477  11.299   6.531
 5241POPC   C3A67817   4.585  11.082   6.897
 5241POPC   C4A67818   4.326  11.089   7.246
 5241POPC   C1B67819   4.377  11.687   6.192
 5241POPC   C2B67820   4.321  11.777   6.642
 5241POPC   C3B67821   4.351  11.551   7.008
 5241POPC   C4B67822   4.744  11.501   7.208
 5242POPC   NC367823   2.771   6.398   5.082
 5242POPC   PO467824   2.885   6.818   5.601
 5242POPC   GL167825   2.884   6.612   5.971
 5242POPC   GL267826   3.113   6.379   5.976
 5242POPC   C1A67827   2.808   6.476   6.397
 5242POPC   D2A67828   2.444   6.484   6.646
 5242POPC   C3A67829   2.504   6.265   6.988
 5242POPC   C4A67830   2.532   6.464   7.366
 5242POPC   C1B67831   3.302   6.331   6.380
 5242POPC   C2B67832   3.259   6.514   6.748
 5242POPC   C3B67833   2.964   6.511   7.075
 5242POPC   C4B67834   2.993   6.367   7.509
 5243POPC   NC367835  39.880   3.086   5.384
 5243POPC   PO467836  40.057   3.759   5.320
 5243POPC   GL167837  39.979   3.506   5.711
 5243POPC   GL267838  40.281   3.320   5.776
 5243POPC   C1A67839  39.868   3.305   6.113
 5243POPC   D2A67840  40.037   3.227   6.508
 5243POPC   C3A67841  39.856   3.490   6.818
 5243POPC   C4A67842  39.574   3.573   7.156
 5243POPC   C1B67843  40.365   3.447   6.178
 5243POPC   C2B67844  40.211   3.718   6.503
 5243POPC   C3B67845  40.342   3.648   6.926
 5243POPC   C4B67846  40.134   3.412   7.242
 5244POPC   NC367847   9.123  33.605   5.486
 5244POPC   PO467848   8.594  33.967   5.199
 5244POPC   GL167849   8.818  33.995   5.633
 5244POPC   GL267850   8.742  33.680   5.811
 5244POPC   C1A67851   9.009  34.053   6.082
 5244POPC   D2A67852   8.860  34.185   6.522
 5244POPC   C3A67853   9.067  34.009   6.911
 5244POPC   C4A67854   9.134  34.163   7.352
 5244POPC   C1B67855   8.869  33.517   6.211
 5244POPC   C2B67856   9.096  33.504   6.570
 5244POPC   C3B67857   9.241  33.450   6.959
 5244POPC   C4B67858   9.194  33.662   7.341
 5245POPC   NC367859   8.025  34.184   5.481
 5245POPC   PO467860   8.150  34.849   5.354
 5245POPC   GL167861   8.203  34.796   5.808
 5245POPC   GL267862   8.107  34.468   5.900
 5245POPC   C1A67863   8.113  34.834   6.259
 5245POPC   D2A67864   8.056  34.578   6.646
 5245POPC   C3A67865   8.178  34.723   7.065
 5245POPC   C4A67866   8.371  34.470   7.396
 5245POPC   C1B67867   8.149  34.241   6.276
 5245POPC   C2B67868   8.331  34.137   6.664
 5245POPC   C3B67869   8.142  34.213   7.033
 5245POPC   C4B67870   7.854  34.365   7.314
 5246POPC   NC367871  11.936  17.027   5.268
 5246POPC   PO467872  12.332  16.496   5.330
 5246POPC   GL167873  12.195  16.553   5.766
 5246POPC   GL267874  11.862  16.671   5.833
 5246POPC   C1A67875  12.124  16.482   6.216
 5246POPC   D2A67876  11.865  16.691   6.525
 5246POPC   C3A67877  12.112  16.696   6.873
 5246POPC   C4A67878  12.262  16.465   7.213
 5246POPC   C1B67879  11.533  16.813   6.133
 5246POPC   C2B67880  11.484  17.071   6.514
 5246POPC   C3B67881  11.779  17.111   6.843
 5246POPC   C4B67882  11.909  16.987   7.241
 5247POPC   NC367883   3.112  42.297   5.359
 5247POPC   PO467884   3.770  42.579   5.341
 5247POPC   GL167885   3.598  42.356   5.715
 5247POPC   GL267886   3.563  42.659   5.880
 5247POPC   C1A67887   3.671  42.093   6.124
 5247POPC   D2A67888   3.771  42.270   6.546
 5247POPC   C3A67889   3.594  42.143   6.929
 5247POPC   C4A67890   3.718  42.219   7.362
 5247POPC   C1B67891   3.389  42.500   6.270
 5247POPC   C2B67892   3.283  42.565   6.707
 5247POPC   C3B67893   3.374  42.551   7.144
 5247POPC   C4B67894   3.305  42.688   7.590
 5248POPC   NC367895   6.053  13.306   5.266
 5248POPC   PO467896   5.724  13.786   5.525
 5248POPC   GL167897   6.010  13.611   5.768
 5248POPC   GL267898   6.132  13.905   5.959
 5248POPC   C1A67899   6.068  13.467   6.189
 5248POPC   D2A67900   6.169  13.639   6.598
 5248POPC   C3A67901   6.004  13.402   6.978
 5248POPC   C4A67902   6.060  13.478   7.418
 5248POPC   C1B67903   5.762  13.876   6.249
 5248POPC   C2B67904   5.659  13.694   6.683
 5248POPC   C3B67905   5.746  13.813   7.150
 5248POPC   C4B67906   5.653  13.746   7.622
 5249POPC   NC367907  38.092  35.416   5.397
 5249POPC   PO467908  38.697  35.146   5.472
 5249POPC   GL167909  38.405  35.245   5.795
 5249POPC   GL267910  38.518  35.561   5.829
 5249POPC   C1A67911  38.237  35.433   6.213
 5249POPC   D2A67912  38.475  35.547   6.576
 5249POPC   C3A67913  38.252  35.411   6.925
 5249POPC   C4A67914  38.301  35.553   7.327
 5249POPC   C1B67915  38.735  35.279   6.178
 5249POPC   C2B67916  38.922  35.281   6.587
 5249POPC   C3B67917  38.730  35.297   7.012
 5249POPC   C4B67918  38.759  35.320   7.485
 5250POPC   NC367919  11.043  15.833   5.370
 5250POPC   PO467920  11.665  15.927   5.648
 5250POPC   GL167921  11.261  15.883   5.846
 5250POPC   GL267922  11.032  16.142   5.788
 5250POPC   C1A67923  11.216  15.796   6.277
 5250POPC   D2A67924  11.469  15.934   6.642
 5250POPC   C3A67925  11.228  15.842   7.020
 5250POPC   C4A67926  11.211  15.827   7.488
 5250POPC   C1B67927  10.858  16.177   6.179
 5250POPC   C2B67928  11.009  16.145   6.583
 5250POPC   C3B67929  10.822  16.188   6.940
 5250POPC   C4B67930  11.016  16.257   7.314
 5251POPC   NC367931  27.981  34.660   5.551
 5251POPC   PO467932  27.340  34.968   5.527
 5251POPC   GL167933  27.511  34.816   5.917
 5251POPC   GL267934  27.587  34.492   5.890
 5251POPC   C1A67935  27.469  34.756   6.358
 5251POPC   D2A67936  27.368  34.604   6.765
 5251POPC   C3A67937  27.577  34.856   7.055
 5251POPC   C4A67938  27.946  34.771   7.290
 5251POPC   C1B67939  27.651  34.271   6.280
 5251POPC   C2B67940  27.486  34.108   6.646
 5251POPC   C3B67941  27.582  34.104   7.033
 5251POPC   C4B67942  27.566  34.412   7.293
 5252POPC   NC367943  17.914  42.937   5.424
 5252POPC   PO467944  18.466  43.280   5.227
 5252POPC   GL167945  18.370  43.095   5.674
 5252POPC   GL267946  18.624  42.834   5.730
 5252POPC   C1A67947  18.245  43.142   6.135
 5252POPC   D2A67948  18.113  43.285   6.596
 5252POPC   C3A67949  18.118  43.066   6.972
 5252POPC   C4A67950  18.413  43.167   7.271
 5252POPC   C1B67951  18.664  42.818   6.157
 5252POPC   C2B67952  18.453  42.898   6.542
 5252POPC   C3B67953  18.537  42.777   6.946
 5252POPC   C4B67954  18.715  42.751   7.360
 5253POPC   NC367955  37.962   6.498   5.275
 5253POPC   PO467956  37.908   7.198   5.460
 5253POPC   GL167957  37.816   6.804   5.703
 5253POPC   GL267958  37.528   6.936   5.861
 5253POPC   C1A67959  37.767   6.569   6.130
 5253POPC   D2A67960  37.714   6.739   6.583
 5253POPC   C3A67961  37.575   6.526   6.967
 5253POPC   C4A67962  37.817   6.328   7.378
 5253POPC   C1B67963  37.843   7.076   6.198
 5253POPC   C2B67964  37.866   7.222   6.658
 5253POPC   C3B67965  37.634   7.048   7.016
 5253POPC   C4B67966  37.639   6.799   7.374
 5254POPC   NC367967  33.616  10.190   5.268
 5254POPC   PO467968  33.759  10.827   5.521
 5254POPC   GL167969  33.654  10.673   5.907
 5254POPC   GL267970  33.665  10.346   5.797
 5254POPC   C1A67971  33.712  10.615   6.357
 5254POPC   D2A67972  33.619  10.587   6.781
 5254POPC   C3A67973  33.911  10.463   7.097
 5254POPC   C4A67974  34.255  10.719   7.210
 5254POPC   C1B67975  33.462  10.190   6.179
 5254POPC   C2B67976  33.437  10.059   6.624
 5254POPC   C3B67977  33.405  10.235   7.063
 5254POPC   C4B67978  33.512  10.600   7.375
 5255POPC   NC367979  21.556  11.200   5.367
 5255POPC   PO467980  20.942  11.104   5.416
 5255POPC   GL167981  21.184  11.403   5.697
 5255POPC   GL267982  21.347  11.144   5.843
 5255POPC   C1A67983  21.274  11.521   6.159
 5255POPC   D2A67984  21.198  11.252   6.534
 5255POPC   C3A67985  21.269  11.491   6.907
 5255POPC   C4A67986  21.405  11.449   7.331
 5255POPC   C1B67987  21.607  11.131   6.206
 5255POPC   C2B67988  21.635  10.969   6.627
 5255POPC   C3B67989  21.380  11.009   6.982
 5255POPC   C4B67990  21.112  10.730   7.189
 5256POPC   NC367991   3.564  22.447   5.008
 5256POPC   PO467992   3.073  22.088   5.455
 5256POPC   GL167993   3.282  22.089   5.829
 5256POPC   GL267994   3.485  22.329   5.872
 5256POPC   C1A67995   3.185  22.273   6.249
 5256POPC   D2A67996   3.373  22.517   6.577
 5256POPC   C3A67997   3.416  22.282   6.985
 5256POPC   C4A67998   3.761  21.992   7.123
 5256POPC   C1B67999   3.704  22.159   6.238
 5256POPC   C2B68000   3.854  22.285   6.661
 5256POPC   C3B68001   4.040  22.416   7.065
 5256POPC   C4B68002   3.911  22.440   7.517
 5257POPC   NC368003  25.956  19.819   5.333
 5257POPC   PO468004  26.284  20.082   5.790
 5257POPC   GL168005  25.886  19.894   5.854
 5257POPC   GL268006  25.845  19.519   5.791
 5257POPC   C1A68007  25.823  19.815   6.277
 5257POPC   D2A68008  25.856  19.994   6.662
 5257POPC   C3A68009  26.246  19.881   6.872
 5257POPC   C4A68010  26.373  20.018   7.267
 5257POPC   C1B68011  25.513  19.447   6.135
 5257POPC   C2B68012  25.631  19.464   6.604
 5257POPC   C3B68013  25.840  19.577   6.977
 5257POPC   C4B68014  26.232  19.482   7.207
 5258POPC   NC368015  21.977  36.931   5.190
 5258POPC   PO468016  22.611  36.931   5.382
 5258POPC   GL168017  22.222  36.937   5.649
 5258POPC   GL268018  22.110  36.631   5.798
 5258POPC   C1A68019  22.163  37.040   6.096
 5258POPC   D2A68020  22.108  36.865   6.513
 5258POPC   C3A68021  21.927  37.167   6.802
 5258POPC   C4A68022  22.130  37.109   7.183
 5258POPC   C1B68023  22.422  36.589   6.150
 5258POPC   C2B68024  22.435  36.435   6.594
 5258POPC   C3B68025  22.351  36.689   6.968
 5258POPC   C4B68026  22.057  36.636   7.334
 5259POPC   NC368027  28.506  18.723   5.538
 5259POPC   PO468028  28.332  19.213   5.068
 5259POPC   GL168029  28.367  19.249   5.564
 5259POPC   GL268030  28.725  19.239   5.675
 5259POPC   C1A68031  28.229  19.125   6.017
 5259POPC   D2A68032  28.459  18.967   6.408
 5259POPC   C3A68033  28.368  19.085   6.848
 5259POPC   C4A68034  28.350  18.975   7.291
 5259POPC   C1B68035  28.665  19.364   6.105
 5259POPC   C2B68036  28.686  19.407   6.540
 5259POPC   C3B68037  28.782  19.369   6.958
 5259POPC   C4B68038  28.444  19.498   7.176
 5260POPC   NC368039  28.449   7.821   5.476
 5260POPC   PO468040  28.305   7.146   5.499
 5260POPC   GL168041  28.403   7.445   5.841
 5260POPC   GL268042  28.071   7.575   5.944
 5260POPC   C1A68043  28.452   7.675   6.254
 5260POPC   D2A68044  28.456   7.390   6.611
 5260POPC   C3A68045  28.349   7.523   7.021
 5260POPC   C4A68046  28.464   7.615   7.472
 5260POPC   C1B68047  27.949   7.258   6.245
 5260POPC   C2B68048  28.011   7.146   6.686
 5260POPC   C3B68049  27.946   7.216   7.123
 5260POPC   C4B68050  27.945   7.116   7.553
 5261POPC   NC368051   2.849  28.354   5.215
 5261POPC   PO468052   2.787  28.995   5.171
 5261POPC   GL168053   2.792  28.682   5.612
 5261POPC   GL268054   2.862  28.281   5.722
 5261POPC   C1A68055   2.656  28.589   6.071
 5261POPC   D2A68056   2.692  28.725   6.526
 5261POPC   C3A68057   2.579  28.490   6.912
 5261POPC   C4A68058   2.966  28.325   7.030
 5261POPC   C1B68059   2.751  28.084   6.157
 5261POPC   C2B68060   2.801  28.075   6.619
 5261POPC   C3B68061   2.628  27.919   7.026
 5261POPC   C4B68062   2.309  28.019   7.332
 5262POPC   NC368063  40.342  20.116   5.388
 5262POPC   PO468064  39.895  19.567   5.341
 5262POPC   GL168065  39.930  19.670   5.789
 5262POPC   GL268066  40.084  20.003   5.825
 5262POPC   C1A68067  40.187  19.603   6.173
 5262POPC   D2A68068  40.383  19.602   6.610
 5262POPC   C3A68069  40.093  19.796   6.924
 5262POPC   C4A68070  39.965  19.769   7.392
 5262POPC   C1B68071  39.826  20.016   6.209
 5262POPC   C2B68072  39.716  20.127   6.645
 5262POPC   C3B68073  39.742  20.125   7.086
 5262POPC   C4B68074  40.140  20.239   7.256
 5263POPC   NC368075  44.045  43.785   5.509
 5263POPC   PO468076  43.337  43.656   5.465
 5263POPC   GL168077  43.615  43.788   5.834
 5263POPC   GL268078  43.876  43.544   5.944
 5263POPC   C1A68079  43.899  44.028   6.141
 5263POPC   D2A68080  43.849  43.846   6.555
 5263POPC   C3A68081  43.581  44.008   6.880
 5263POPC   C4A68082  43.653  44.062   7.343
 5263POPC   C1B68083  44.225  43.635   6.256
 5263POPC   C2B68084  44.235  43.549   6.723
 5263POPC   C3B68085  44.319  43.586   7.165
 5263POPC   C4B68086  44.007  43.544   7.469
 5264POPC   NC368087   4.212  21.095   5.295
 5264POPC   PO468088   4.031  21.756   5.390
 5264POPC   GL168089   4.243  21.495   5.705
 5264POPC   GL268090   4.562  21.638   5.746
 5264POPC   C1A68091   4.124  21.228   6.087
 5264POPC   D2A68092   3.929  21.113   6.507
 5264POPC   C3A68093   4.240  21.049   6.839
 5264POPC   C4A68094   4.304  21.124   7.285
 5264POPC   C1B68095   4.529  21.530   6.165
 5264POPC   C2B68096   4.319  21.509   6.567
 5264POPC   C3B68097   4.257  21.552   7.008
 5264POPC   C4B68098   4.537  21.584   7.374
 5265POPC   NC368099  28.025  43.569   5.490
 5265POPC   PO468100  27.938  44.233   5.399
 5265POPC   GL168101  27.727  44.229   5.773
 5265POPC   GL268102  27.686  43.866   5.823
 5265POPC   C1A68103  27.547  44.211   6.177
 5265POPC   D2A68104  27.730  44.009   6.529
 5265POPC   C3A68105  27.547  44.109   6.880
 5265POPC   C4A68106  27.411  44.356   7.195
 5265POPC   C1B68107  27.454  43.708   6.207
 5265POPC   C2B68108  27.431  43.612   6.690
 5265POPC   C3B68109  27.443  43.691   7.150
 5265POPC   C4B68110  27.507  43.536   7.561
 5266POPC   NC368111  30.817   6.762   5.509
 5266POPC   PO468112  30.869   6.084   5.376
 5266POPC   GL168113  30.851   6.323   5.786
 5266POPC   GL268114  30.526   6.483   5.823
 5266POPC   C1A68115  30.859   6.523   6.219
 5266POPC   D2A68116  30.987   6.817   6.545
 5266POPC   C3A68117  30.969   6.654   6.953
 5266POPC   C4A68118  30.739   6.698   7.289
 5266POPC   C1B68119  30.355   6.597   6.204
 5266POPC   C2B68120  30.516   6.626   6.629
 5266POPC   C3B68121  30.307   6.708   7.019
 5266POPC   C4B68122  30.204   7.082   7.184
 5267POPC   NC368123   6.265  17.032   5.310
 5267POPC   PO468124   5.930  16.492   5.424
 5267POPC   GL168125   6.069  16.698   5.823
 5267POPC   GL268126   6.168  17.061   5.800
 5267POPC   C1A68127   5.964  16.717   6.310
 5267POPC   D2A68128   6.108  16.594   6.761
 5267POPC   C3A68129   5.805  16.460   7.145
 5267POPC   C4A68130   5.572  16.370   7.592
 5267POPC   C1B68131   6.099  17.216   6.176
 5267POPC   C2B68132   6.233  17.094   6.547
 5267POPC   C3B68133   6.262  17.193   6.938
 5267POPC   C4B68134   6.102  16.890   7.211
 5268POPC   NC368135  18.070  40.578   5.067
 5268POPC   PO468136  18.426  40.046   5.432
 5268POPC   GL168137  18.361  39.882   5.812
 5268POPC   GL268138  18.470  40.220   5.930
 5268POPC   C1A68139  18.316  39.824   6.221
 5268POPC   D2A68140  18.195  40.071   6.529
 5268POPC   C3A68141  18.237  39.910   6.920
 5268POPC   C4A68142  18.166  39.909   7.319
 5268POPC   C1B68143  18.649  40.241   6.337
 5268POPC   C2B68144  18.604  40.259   6.769
 5268POPC   C3B68145  18.440  40.326   7.140
 5268POPC   C4B68146  18.689  40.322   7.520
 5269POPC   NC368147  22.523  14.440   5.312
 5269POPC   PO468148  21.849  14.429   5.345
 5269POPC   GL168149  22.095  14.326   5.722
 5269POPC   GL268150  22.286  14.640   5.714
 5269POPC   C1A68151  22.015  14.269   6.201
 5269POPC   D2A68152  22.020  14.097   6.654
 5269POPC   C3A68153  22.094  14.340   7.074
 5269POPC   C4A68154  22.333  14.308   7.500
 5269POPC   C1B68155  22.385  14.614   6.142
 5269POPC   C2B68156  22.306  14.524   6.552
 5269POPC   C3B68157  22.452  14.674   6.900
 5269POPC   C4B68158  22.298  14.782   7.271
 5270POPC   NC368159  24.668  13.607   5.546
 5270POPC   PO468160  24.151  13.284   5.614
 5270POPC   GL168161  24.269  13.564   5.903
 5270POPC   GL268162  24.317  13.901   5.810
 5270POPC   C1A68163  24.417  13.526   6.276
 5270POPC   D2A68164  24.585  13.722   6.620
 5270POPC   C3A68165  24.412  13.501   6.910
 5270POPC   C4A68166  24.530  13.563   7.289
 5270POPC   C1B68167  24.510  14.021   6.199
 5270POPC   C2B68168  24.349  14.182   6.609
 5270POPC   C3B68169  24.333  14.028   7.022
 5270POPC   C4B68170  24.317  14.159   7.439
 5271POPC   NC368171   1.165  27.501   5.419
 5271POPC   PO468172   1.687  27.965   5.545
 5271POPC   GL168173   1.406  27.688   5.864
 5271POPC   GL268174   1.252  27.339   5.903
 5271POPC   C1A68175   1.397  27.567   6.335
 5271POPC   D2A68176   1.131  27.494   6.688
 5271POPC   C3A68177   1.188  27.522   7.137
 5271POPC   C4A68178   1.178  27.296   7.541
 5271POPC   C1B68179   0.919  27.400   6.239
 5271POPC   C2B68180   0.703  27.135   6.539
 5271POPC   C3B68181   0.539  27.143   6.964
 5271POPC   C4B68182   0.300  27.247   7.357
 5272POPC   NC368183  31.472  10.224   5.409
 5272POPC   PO468184  31.329  10.870   5.401
 5272POPC   GL168185  31.361  10.586   5.764
 5272POPC   GL268186  31.722  10.516   5.750
 5272POPC   C1A68187  31.196  10.589   6.181
 5272POPC   D2A68188  31.227  10.826   6.534
 5272POPC   C3A68189  31.271  10.702   6.942
 5272POPC   C4A68190  31.350  10.523   7.353
 5272POPC   C1B68191  31.649  10.381   6.157
 5272POPC   C2B68192  31.465  10.355   6.583
 5272POPC   C3B68193  31.584  10.286   6.975
 5272POPC   C4B68194  31.655  10.102   7.391
 5273POPC   NC368195  35.496  41.234   5.411
 5273POPC   PO468196  34.991  40.831   5.257
 5273POPC   GL168197  35.218  40.891   5.660
 5273POPC   GL268198  35.038  41.195   5.787
 5273POPC   C1A68199  35.400  40.900   6.091
 5273POPC   D2A68200  35.363  40.938   6.552
 5273POPC   C3A68201  35.352  40.570   6.849
 5273POPC   C4A68202  35.550  40.542   7.237
 5273POPC   C1B68203  35.127  41.324   6.247
 5273POPC   C2B68204  34.891  41.166   6.613
 5273POPC   C3B68205  35.069  40.982   6.974
 5273POPC   C4B68206  35.537  41.020   7.070
 5274POPC   NC368207  12.100  13.804   5.354
 5274POPC   PO468208  12.150  13.113   5.280
 5274POPC   GL168209  11.965  13.385   5.697
 5274POPC   GL268210  11.923  13.762   5.807
 5274POPC   C1A68211  11.798  13.395   6.146
 5274POPC   D2A68212  11.997  13.475   6.544
 5274POPC   C3A68213  11.855  13.591   6.958
 5274POPC   C4A68214  12.071  13.464   7.349
 5274POPC   C1B68215  12.147  13.838   6.180
 5274POPC   C2B68216  12.033  13.994   6.573
 5274POPC   C3B68217  12.185  14.155   6.944
 5274POPC   C4B68218  12.254  13.930   7.295
 5275POPC   NC368219  14.822   5.874   5.329
 5275POPC   PO468220  15.474   5.701   5.247
 5275POPC   GL168221  15.377   5.733   5.689
 5275POPC   GL268222  15.029   5.805   5.804
 5275POPC   C1A68223  15.479   5.525   6.089
 5275POPC   D2A68224  15.310   5.470   6.512
 5275POPC   C3A68225  15.403   5.799   6.807
 5275POPC   C4A68226  15.219   5.831   7.216
 5275POPC   C1B68227  15.190   5.915   6.221
 5275POPC   C2B68228  15.184   6.219   6.554
 5275POPC   C3B68229  15.042   6.209   6.952
 5275POPC   C4B68230  14.865   6.160   7.387
 5276POPC   NC368231  33.932  26.144   5.432
 5276POPC   PO468232  34.339  25.522   5.463
 5276POPC   GL168233  34.048  25.596   5.883
 5276POPC   GL268234  33.825  25.930   5.895
 5276POPC   C1A68235  33.905  25.738   6.343
 5276POPC   D2A68236  33.780  26.123   6.549
 5276POPC   C3A68237  33.812  26.005   6.939
 5276POPC   C4A68238  33.909  26.185   7.283
 5276POPC   C1B68239  33.447  25.959   6.206
 5276POPC   C2B68240  33.359  25.837   6.665
 5276POPC   C3B68241  33.403  25.759   7.134
 5276POPC   C4B68242  33.389  26.039   7.497
 5277POPC   NC368243  24.137  34.524   5.356
 5277POPC   PO468244  24.808  34.471   5.358
 5277POPC   GL168245  24.566  34.621   5.717
 5277POPC   GL268246  24.454  34.301   5.841
 5277POPC   C1A68247  24.517  34.734   6.164
 5277POPC   D2A68248  24.634  34.673   6.607
 5277POPC   C3A68249  24.458  34.867   6.973
 5277POPC   C4A68250  24.579  34.856   7.409
 5277POPC   C1B68251  24.204  34.315   6.257
 5277POPC   C2B68252  24.315  34.093   6.649
 5277POPC   C3B68253  24.514  34.311   6.989
 5277POPC   C4B68254  24.176  34.515   7.193
 5278POPC   NC368255  22.382  38.973   5.427
 5278POPC   PO468256  21.745  39.074   5.173
 5278POPC   GL168257  21.972  39.250   5.623
 5278POPC   GL268258  22.091  38.953   5.841
 5278POPC   C1A68259  22.067  39.367   6.114
 5278POPC   D2A68260  22.027  39.116   6.547
 5278POPC   C3A68261  22.077  39.269   6.986
 5278POPC   C4A68262  22.066  39.631   7.227
 5278POPC   C1B68263  22.361  38.915   6.212
 5278POPC   C2B68264  22.471  38.834   6.668
 5278POPC   C3B68265  22.499  38.983   7.124
 5278POPC   C4B68266  22.579  38.779   7.547
 5279POPC   NC368267  14.533  34.012   5.346
 5279POPC   PO468268  14.712  33.474   5.503
 5279POPC   GL168269  14.519  33.754   5.815
 5279POPC   GL268270  14.170  33.677   5.901
 5279POPC   C1A68271  14.480  33.842   6.277
 5279POPC   D2A68272  14.500  33.627   6.657
 5279POPC   C3A68273  14.386  33.757   7.071
 5279POPC   C4A68274  14.626  33.660   7.435
 5279POPC   C1B68275  14.117  33.446   6.328
 5279POPC   C2B68276  14.021  33.485   6.792
 5279POPC   C3B68277  13.958  33.559   7.251
 5279POPC   C4B68278  14.103  33.671   7.707
 5280POPC   NC368279   2.571  19.047   5.571
 5280POPC   PO468280   2.713  19.607   5.166
 5280POPC   GL168281   3.001  19.346   5.535
 5280POPC   GL268282   3.047  18.950   5.678
 5280POPC   C1A68283   3.037  19.375   6.003
 5280POPC   D2A68284   2.999  19.493   6.455
 5280POPC   C3A68285   3.041  19.196   6.798
 5280POPC   C4A68286   2.806  19.198   7.189
 5280POPC   C1B68287   2.890  18.909   6.157
 5280POPC   C2B68288   2.630  19.068   6.527
 5280POPC   C3B68289   2.403  19.060   6.910
 5280POPC   C4B68290   2.457  18.788   7.244
 5281POPC   NC368291  12.970  13.853   5.435
 5281POPC   PO468292  13.129  13.251   5.501
 5281POPC   GL168293  13.010  13.532   5.875
 5281POPC   GL268294  12.761  13.823   5.892
 5281POPC   C1A68295  12.964  13.614   6.336
 5281POPC   D2A68296  13.101  13.450   6.744
 5281POPC   C3A68297  12.733  13.436   6.996
 5281POPC   C4A68298  12.566  13.281   7.396
 5281POPC   C1B68299  13.193  13.984   6.051
 5281POPC   C2B68300  13.306  13.974   6.502
 5281POPC   C3B68301  13.078  13.953   6.897
 5281POPC   C4B68302  12.771  13.858   7.262
 5282POPC   NC368303  13.724  40.078   5.329
 5282POPC   PO468304  14.202  40.328   5.382
 5282POPC   GL168305  13.978  40.226   5.809
 5282POPC   GL268306  13.703  39.953   5.840
 5282POPC   C1A68307  13.762  40.261   6.254
 5282POPC   D2A68308  13.535  40.398   6.670
 5282POPC   C3A68309  13.699  40.282   7.096
 5282POPC   C4A68310  13.563  40.307   7.556
 5282POPC   C1B68311  13.414  39.865   6.219
 5282POPC   C2B68312  13.318  39.933   6.688
 5282POPC   C3B68313  13.244  40.055   7.148
 5282POPC   C4B68314  13.166  39.961   7.603
 5283POPC   NC368315  39.304  33.215   5.376
 5283POPC   PO468316  38.860  32.700   5.426
 5283POPC   GL168317  39.108  32.723   5.829
 5283POPC   GL268318  39.452  32.834   5.831
 5283POPC   C1A68319  39.125  33.027   6.193
 5283POPC   D2A68320  38.892  33.039   6.570
 5283POPC   C3A68321  39.135  32.997   6.952
 5283POPC   C4A68322  39.104  33.149   7.346
 5283POPC   C1B68323  39.575  32.847   6.302
 5283POPC   C2B68324  39.538  33.142   6.661
 5283POPC   C3B68325  39.578  33.190   7.128
 5283POPC   C4B68326  39.459  32.803   7.393
 5284POPC   NC368327  27.657  22.485   5.359
 5284POPC   PO468328  27.329  21.862   5.411
 5284POPC   GL168329  27.527  21.918   5.830
 5284POPC   GL268330  27.593  22.285   5.855
 5284POPC   C1A68331  27.518  22.019   6.307
 5284POPC   D2A68332  27.401  22.353   6.585
 5284POPC   C3A68333  27.367  22.166   6.961
 5284POPC   C4A68334  27.568  21.790   7.043
 5284POPC   C1B68335  27.797  22.424   6.264
 5284POPC   C2B68336  27.895  22.204   6.653
 5284POPC   C3B68337  27.830  22.359   7.055
 5284POPC   C4B68338  27.996  22.496   7.476
 5285POPC   NC368339   5.775  12.560   5.420
 5285POPC   PO468340   5.636  13.134   5.149
 5285POPC   GL168341   5.898  13.075   5.703
 5285POPC   GL268342   6.070  12.704   5.829
 5285POPC   C1A68343   5.914  12.993   6.194
 5285POPC   D2A68344   6.131  13.067   6.604
 5285POPC   C3A68345   5.865  12.887   6.959
 5285POPC   C4A68346   5.496  12.655   7.172
 5285POPC   C1B68347   6.103  12.484   6.279
 5285POPC   C2B68348   6.064  12.396   6.745
 5285POPC   C3B68349   5.965  12.422   7.196
 5285POPC   C4B68350   6.217  12.449   7.579
 5286POPC   NC368351   0.905  21.992   5.132
 5286POPC   PO468352   1.478  22.242   5.471
 5286POPC   GL168353   1.217  22.034   5.840
 5286POPC   GL268354   1.204  22.290   6.089
 5286POPC   C1A68355   1.017  21.828   6.217
 5286POPC   D2A68356   1.081  22.144   6.572
 5286POPC   C3A68357   1.171  22.225   7.009
 5286POPC   C4A68358   0.981  22.505   7.300
 5286POPC   C1B68359   1.495  21.973   6.273
 5286POPC   C2B68360   1.778  21.860   6.542
 5286POPC   C3B68361   1.654  22.007   6.916
 5286POPC   C4B68362   1.484  21.921   7.285
 5287POPC   NC368363  37.290  32.421   5.608
 5287POPC   PO468364  36.779  32.135   5.196
 5287POPC   GL168365  36.877  32.110   5.642
 5287POPC   GL268366  36.547  32.077   5.805
 5287POPC   C1A68367  37.016  32.060   6.086
 5287POPC   D2A68368  36.823  32.021   6.503
 5287POPC   C3A68369  37.076  32.068   6.872
 5287POPC   C4A68370  37.124  31.802   7.214
 5287POPC   C1B68371  36.647  32.404   6.134
 5287POPC   C2B68372  36.615  32.536   6.567
 5287POPC   C3B68373  36.629  32.565   7.014
 5287POPC   C4B68374  37.003  32.443   7.206
 5288POPC   NC368375  14.663  23.004   5.269
 5288POPC   PO468376  14.024  22.773   5.490
 5288POPC   GL168377  14.177  22.938   5.867
 5288POPC   GL268378  14.545  22.984   5.916
 5288POPC   C1A68379  14.164  22.850   6.303
 5288POPC   D2A68380  14.512  22.927   6.570
 5288POPC   C3A68381  14.387  23.008   6.983
 5288POPC   C4A68382  14.126  22.986   7.358
 5288POPC   C1B68383  14.692  23.279   6.216
 5288POPC   C2B68384  14.747  23.411   6.618
 5288POPC   C3B68385  14.813  23.280   7.052
 5288POPC   C4B68386  14.658  23.001   7.416
 5289POPC   NC368387  16.431  40.266   5.401
 5289POPC   PO468388  17.114  39.964   5.452
 5289POPC   GL168389  16.818  40.185   5.738
 5289POPC   GL268390  16.544  39.991   5.835
 5289POPC   C1A68391  16.871  40.265   6.180
 5289POPC   D2A68392  16.807  40.019   6.550
 5289POPC   C3A68393  16.787  40.225   6.940
 5289POPC   C4A68394  16.915  40.175   7.371
 5289POPC   C1B68395  16.351  39.992   6.264
 5289POPC   C2B68396  16.337  39.982   6.753
 5289POPC   C3B68397  16.504  39.868   7.191
 5289POPC   C4B68398  16.518  40.011   7.628
 5290POPC   NC368399   2.925  40.228   5.492
 5290POPC   PO468400   3.099  39.655   5.255
 5290POPC   GL168401   2.960  39.759   5.725
 5290POPC   GL268402   2.845  40.027   5.953
 5290POPC   C1A68403   3.034  39.620   6.186
 5290POPC   D2A68404   2.868  39.459   6.617
 5290POPC   C3A68405   2.817  39.757   6.966
 5290POPC   C4A68406   2.899  40.112   7.230
 5290POPC   C1B68407   3.112  40.120   6.325
 5290POPC   C2B68408   2.973  40.197   6.725
 5290POPC   C3B68409   2.673  40.453   6.917
 5290POPC   C4B68410   2.926  40.767   7.120
 5291POPC   NC368411  36.399  32.338   5.376
 5291POPC   PO468412  35.869  32.677   5.469
 5291POPC   GL168413  36.024  32.364   5.763
 5291POPC   GL268414  36.290  32.566   5.827
 5291POPC   C1A68415  36.152  32.184   6.183
 5291POPC   D2A68416  36.013  31.946   6.579
 5291POPC   C3A68417  36.065  32.114   7.003
 5291POPC   C4A68418  35.879  32.005   7.428
 5291POPC   C1B68419  36.025  32.693   6.185
 5291POPC   C2B68420  36.020  32.488   6.594
 5291POPC   C3B68421  36.113  32.642   6.998
 5291POPC   C4B68422  36.178  32.435   7.394
 5292POPC   NC368423  18.304  38.711   5.096
 5292POPC   PO468424  18.257  38.408   5.671
 5292POPC   GL168425  18.364  38.555   5.975
 5292POPC   GL268426  18.508  38.852   5.876
 5292POPC   C1A68427  18.300  38.284   6.302
 5292POPC   D2A68428  17.977  38.231   6.579
 5292POPC   C3A68429  18.169  38.266   6.954
 5292POPC   C4A68430  18.605  38.260   7.116
 5292POPC   C1B68431  18.240  38.933   6.260
 5292POPC   C2B68432  18.274  38.672   6.625
 5292POPC   C3B68433  18.429  38.735   7.017
 5292POPC   C4B68434  18.147  39.027   7.162
 5293POPC   NC368435  38.414  28.957   5.470
 5293POPC   PO468436  39.125  29.166   5.530
 5293POPC   GL168437  38.744  29.168   5.808
 5293POPC   GL268438  38.479  29.449   5.825
 5293POPC   C1A68439  38.542  28.922   6.133
 5293POPC   D2A68440  38.230  28.969   6.433
 5293POPC   C3A68441  38.343  29.066   6.825
 5293POPC   C4A68442  38.548  28.917   7.171
 5293POPC   C1B68443  38.585  29.437   6.275
 5293POPC   C2B68444  38.591  29.514   6.721
 5293POPC   C3B68445  38.513  29.433   7.141
 5293POPC   C4B68446  38.853  29.322   7.341
 5294POPC   NC368447  18.136  40.424   5.567
 5294POPC   PO468448  18.519  40.949   5.374
 5294POPC   GL168449  18.308  40.917   5.795
 5294POPC   GL268450  17.960  40.907   5.932
 5294POPC   C1A68451  18.328  41.028   6.260
 5294POPC   D2A68452  18.514  40.723   6.540
 5294POPC   C3A68453  18.406  40.833   6.945
 5294POPC   C4A68454  18.609  40.783   7.293
 5294POPC   C1B68455  18.066  40.569   6.268
 5294POPC   C2B68456  18.068  40.496   6.744
 5294POPC   C3B68457  17.975  40.603   7.168
 5294POPC   C4B68458  18.144  40.841   7.490
 5295POPC   NC368459  12.924  44.305   5.198
 5295POPC   PO468460  13.058  43.635   5.409
 5295POPC   GL168461  13.049  43.758   5.864
 5295POPC   GL268462  13.073  44.133   5.874
 5295POPC   C1A68463  12.874  43.855   6.300
 5295POPC   D2A68464  12.551  44.048   6.582
 5295POPC   C3A68465  12.594  44.005   7.024
 5295POPC   C4A68466  12.982  44.102   7.251
 5295POPC   C1B68467  13.279  44.242   6.249
 5295POPC   C2B68468  13.099  44.194   6.637
 5295POPC   C3B68469  13.097  43.808   6.845
 5295POPC   C4B68470  13.325  43.748   7.244
 5296POPC   NC368471   9.134  35.249   5.204
 5296POPC   PO468472   8.510  35.479   5.279
 5296POPC   GL168473   8.804  35.452   5.654
 5296POPC   GL268474   9.097  35.226   5.724
 5296POPC   C1A68475   8.799  35.542   6.106
 5296POPC   D2A68476   8.975  35.714   6.481
 5296POPC   C3A68477   8.864  35.559   6.870
 5296POPC   C4A68478   8.753  35.399   7.265
 5296POPC   C1B68479   9.130  35.164   6.175
 5296POPC   C2B68480   9.291  35.291   6.564
 5296POPC   C3B68481   9.201  35.160   6.963
 5296POPC   C4B68482   9.431  34.942   7.251
 5297POPC   NC368483  27.564  16.159   5.354
 5297POPC   PO468484  28.033  15.674   5.442
 5297POPC   GL168485  27.836  15.979   5.765
 5297POPC   GL268486  27.461  16.021   5.847
 5297POPC   C1A68487  27.789  16.220   6.181
 5297POPC   D2A68488  27.519  16.106   6.548
 5297POPC   C3A68489  27.538  16.187   6.989
 5297POPC   C4A68490  27.926  16.169   7.221
 5297POPC   C1B68491  27.579  15.738   6.188
 5297POPC   C2B68492  27.416  15.574   6.594
 5297POPC   C3B68493  27.523  15.663   7.030
 5297POPC   C4B68494  27.689  15.787   7.443
 5298POPC   NC368495  43.735   0.710   5.119
 5298POPC   PO468496  43.699   0.132   5.425
 5298POPC   GL168497  43.878   0.291   5.827
 5298POPC   GL268498  44.050   0.621   5.763
 5298POPC   C1A68499  43.783   0.215   6.284
 5298POPC   D2A68500  43.645   0.407   6.681
 5298POPC   C3A68501  43.743   0.305   7.116
 5298POPC   C4A68502  43.761   0.640   7.450
 5298POPC   C1B68503  43.859   0.747   6.137
 5298POPC   C2B68504  44.000   0.789   6.542
 5298POPC   C3B68505  43.971   0.748   6.977
 5298POPC   C4B68506  44.220   0.847   7.358
 5299POPC   NC368507  16.462  19.142   5.097
 5299POPC   PO468508  16.947  18.822   5.425
 5299POPC   GL168509  16.853  19.057   5.806
 5299POPC   GL268510  16.500  18.956   5.860
 5299POPC   C1A68511  16.696  19.346   6.163
 5299POPC   D2A68512  16.778  19.574   6.547
 5299POPC   C3A68513  16.794  19.409   6.921
 5299POPC   C4A68514  16.621  19.255   7.255
 5299POPC   C1B68515  16.716  18.848   6.275
 5299POPC   C2B68516  16.882  18.943   6.704
 5299POPC   C3B68517  16.780  18.780   7.142
 5299POPC   C4B68518  16.809  18.936   7.595
 5300POPC   NC368519  37.005  21.774   5.328
 5300POPC   PO468520  36.492  22.263   5.405
 5300POPC   GL168521  36.740  22.229   5.814
 5300POPC   GL268522  37.053  22.026   5.812
 5300POPC   C1A68523  36.770  22.101   6.290
 5300POPC   D2A68524  36.705  22.306   6.712
 5300POPC   C3A68525  36.870  22.176   7.133
 5300POPC   C4A68526  36.804  22.219   7.599
 5300POPC   C1B68527  37.207  22.301   6.153
 5300POPC   C2B68528  37.187  22.325   6.579
 5300POPC   C3B68529  37.363  22.147   6.936
 5300POPC   C4B68530  37.298  21.868   7.253
 5301POPC   NC368531  37.668  27.991   5.448
 5301POPC   PO468532  37.632  27.376   5.632
 5301POPC   GL168533  37.886  27.479   5.943
 5301POPC   GL268534  37.904  27.831   5.889
 5301POPC   C1A68535  37.882  27.576   6.382
 5301POPC   D2A68536  37.755  27.938   6.634
 5301POPC   C3A68537  37.468  27.712   6.881
 5301POPC   C4A68538  37.706  27.390   7.107
 5301POPC   C1B68539  38.230  27.879   6.174
 5301POPC   C2B68540  38.299  28.031   6.574
 5301POPC   C3B68541  38.185  27.999   6.988
 5301POPC   C4B68542  37.835  27.872   7.194
 5302POPC   NC368543  34.073  27.144   5.344
 5302POPC   PO468544  33.843  26.583   5.295
 5302POPC   GL168545  33.997  26.745   5.682
 5302POPC   GL268546  34.033  26.435   5.863
 5302POPC   C1A68547  34.100  26.890   6.111
 5302POPC   D2A68548  34.035  26.707   6.536
 5302POPC   C3A68549  33.796  27.013   6.805
 5302POPC   C4A68550  33.728  27.003   7.262
 5302POPC   C1B68551  33.685  26.439   6.147
 5302POPC   C2B68552  33.520  26.584   6.551
 5302POPC   C3B68553  33.709  26.521   6.952
 5302POPC   C4B68554  33.522  26.505   7.354
 5303POPC   NC368555  12.753  21.060   5.310
 5303POPC   PO468556  13.167  21.621   5.290
 5303POPC   GL168557  12.858  21.452   5.651
 5303POPC   GL268558  12.904  21.631   5.974
 5303POPC   C1A68559  12.605  21.241   6.048
 5303POPC   D2A68560  12.810  21.302   6.501
 5303POPC   C3A68561  12.775  21.196   6.968
 5303POPC   C4A68562  12.789  20.980   7.411
 5303POPC   C1B68563  12.598  21.747   6.307
 5303POPC   C2B68564  12.711  21.896   6.694
 5303POPC   C3B68565  13.017  21.672   6.956
 5303POPC   C4B68566  13.008  21.418   7.348
 5304POPC   NC368567  26.283  17.680   5.392
 5304POPC   PO468568  25.869  18.127   5.561
 5304POPC   GL168569  26.177  18.112   5.890
 5304POPC   GL268570  26.256  17.745   5.899
 5304POPC   C1A68571  26.161  18.272   6.321
 5304POPC   D2A68572  25.785  18.123   6.590
 5304POPC   C3A68573  25.900  18.188   7.013
 5304POPC   C4A68574  26.284  18.458   7.112
 5304POPC   C1B68575  26.084  17.780   6.304
 5304POPC   C2B68576  26.243  17.927   6.707
 5304POPC   C3B68577  26.136  17.735   7.086
 5304POPC   C4B68578  26.283  17.760   7.508
 5305POPC   NC368579   4.280  10.667   5.102
 5305POPC   PO468580   4.820  10.283   5.445
 5305POPC   GL168581   4.419  10.312   5.700
 5305POPC   GL268582   4.302  10.653   5.658
 5305POPC   C1A68583   4.226  10.241   6.130
 5305POPC   D2A68584   4.125  10.395   6.543
 5305POPC   C3A68585   4.260  10.239   6.963
 5305POPC   C4A68586   4.158  10.352   7.371
 5305POPC   C1B68587   4.125  10.764   6.075
 5305POPC   C2B68588   4.176  10.901   6.504
 5305POPC   C3B68589   4.143  10.747   6.917
 5305POPC   C4B68590   3.908  10.789   7.277
 5306POPC   NC368591  36.446   2.675   5.539
 5306POPC   PO468592  37.070   2.630   5.246
 5306POPC   GL168593  36.940   2.770   5.711
 5306POPC   GL268594  36.644   2.868   5.941
 5306POPC   C1A68595  37.063   2.739   6.190
 5306POPC   D2A68596  37.104   2.376   6.507
 5306POPC   C3A68597  37.029   2.582   6.922
 5306POPC   C4A68598  37.075   2.717   7.350
 5306POPC   C1B68599  36.679   3.082   6.296
 5306POPC   C2B68600  36.821   2.991   6.692
 5306POPC   C3B68601  36.683   2.984   7.119
 5306POPC   C4B68602  36.759   3.057   7.567
 5307POPC   NC368603  36.996  39.150   5.436
 5307POPC   PO468604  36.444  38.926   5.470
 5307POPC   GL168605  36.655  39.013   5.850
 5307POPC   GL268606  36.806  39.335   5.876
 5307POPC   C1A68607  36.827  39.004   6.269
 5307POPC   D2A68608  36.871  38.782   6.645
 5307POPC   C3A68609  37.061  39.016   6.966
 5307POPC   C4A68610  36.913  39.267   7.308
 5307POPC   C1B68611  36.995  39.499   6.249
 5307POPC   C2B68612  36.975  39.456   6.699
 5307POPC   C3B68613  36.670  39.590   6.958
 5307POPC   C4B68614  36.422  39.523   7.287
 5308POPC   NC368615   3.779   9.941   5.353
 5308POPC   PO468616   3.124   9.775   5.332
 5308POPC   GL168617   3.426   9.668   5.691
 5308POPC   GL268618   3.700   9.466   5.577
 5308POPC   C1A68619   3.555   9.876   6.103
 5308POPC   D2A68620   3.749  10.026   6.495
 5308POPC   C3A68621   3.680   9.928   6.938
 5308POPC   C4A68622   3.850   9.942   7.357
 5308POPC   C1B68623   3.703   9.382   6.040
 5308POPC   C2B68624   3.547   9.488   6.462
 5308POPC   C3B68625   3.725   9.434   6.856
 5308POPC   C4B68626   3.804   9.447   7.284
 5309POPC   NC368627  14.799  43.286   5.442
 5309POPC   PO468628  15.463  43.168   5.556
 5309POPC   GL168629  15.130  43.211   5.829
 5309POPC   GL268630  14.945  42.930   5.815
 5309POPC   C1A68631  15.041  43.244   6.260
 5309POPC   D2A68632  15.325  43.117   6.567
 5309POPC   C3A68633  15.232  43.279   6.962
 5309POPC   C4A68634  15.161  43.039   7.334
 5309POPC   C1B68635  14.764  42.807   6.204
 5309POPC   C2B68636  14.837  42.893   6.629
 5309POPC   C3B68637  14.871  42.755   7.058
 5309POPC   C4B68638  14.682  42.916   7.459
 5310POPC   NC368639  38.956  43.690   5.540
 5310POPC   PO468640  39.598  44.003   5.449
 5310POPC   GL168641  39.422  43.788   5.823
 5310POPC   GL268642  39.095  43.882   6.008
 5310POPC   C1A68643  39.424  43.538   6.215
 5310POPC   D2A68644  39.126  43.658   6.564
 5310POPC   C3A68645  39.245  43.783   6.997
 5310POPC   C4A68646  39.030  43.909   7.362
 5310POPC   C1B68647  39.429  44.047   6.324
 5310POPC   C2B68648  39.521  44.167   6.785
 5310POPC   C3B68649  39.535  44.152   7.262
 5310POPC   C4B68650  39.516  44.254   7.740
 5311POPC   NC368651  35.206  23.863   5.361
 5311POPC   PO468652  35.771  23.731   5.512
 5311POPC   GL168653  35.459  23.908   5.828
 5311POPC   GL268654  35.137  23.720   5.836
 5311POPC   C1A68655  35.276  23.902   6.273
 5311POPC   D2A68656  35.483  23.794   6.663
 5311POPC   C3A68657  35.365  23.649   7.046
 5311POPC   C4A68658  35.538  23.285   7.229
 5311POPC   C1B68659  35.042  23.464   6.225
 5311POPC   C2B68660  35.058  23.445   6.682
 5311POPC   C3B68661  34.840  23.585   7.058
 5311POPC   C4B68662  35.042  23.391   7.399
 5312POPC   NC368663  37.244  25.397   5.267
 5312POPC   PO468664  37.912  25.404   5.478
 5312POPC   GL168665  37.546  25.247   5.680
 5312POPC   GL268666  37.451  25.577   5.737
 5312POPC   C1A68667  37.404  25.121   6.122
 5312POPC   D2A68668  37.686  25.077   6.514
 5312POPC   C3A68669  37.565  25.000   6.958
 5312POPC   C4A68670  37.796  25.144   7.336
 5312POPC   C1B68671  37.720  25.508   6.118
 5312POPC   C2B68672  37.841  25.589   6.534
 5312POPC   C3B68673  37.787  25.474   6.955
 5312POPC   C4B68674  37.995  25.612   7.359
 5313POPC   NC368675  16.013  29.347   5.398
 5313POPC   PO468676  15.693  28.788   5.545
 5313POPC   GL168677  15.883  29.098   5.848
 5313POPC   GL268678  15.792  29.458   5.913
 5313POPC   C1A68679  16.207  29.271   6.158
 5313POPC   D2A68680  16.430  29.248   6.563
 5313POPC   C3A68681  16.141  29.276   6.903
 5313POPC   C4A68682  15.979  28.974   7.157
 5313POPC   C1B68683  15.725  29.234   6.318
 5313POPC   C2B68684  15.667  29.148   6.755
 5313POPC   C3B68685  15.675  29.440   7.108
 5313POPC   C4B68686  15.640  29.386   7.580
 5314POPC   NC368687  39.834  40.271   4.974
 5314POPC   PO468688  40.021  40.838   5.285
 5314POPC   GL168689  40.096  40.924   5.748
 5314POPC   GL268690  40.268  40.633   5.890
 5314POPC   C1A68691  40.136  40.956   6.241
 5314POPC   D2A68692  40.154  40.788   6.691
 5314POPC   C3A68693  39.987  41.015   7.039
 5314POPC   C4A68694  39.855  40.872   7.452
 5314POPC   C1B68695  39.993  40.457   6.243
 5314POPC   C2B68696  39.834  40.385   6.674
 5314POPC   C3B68697  39.924  40.465   7.110
 5314POPC   C4B68698  40.081  40.424   7.547
 5315POPC   NC368699  27.773  36.280   5.455
 5315POPC   PO468700  27.449  35.822   5.132
 5315POPC   GL168701  27.438  35.859   5.643
 5315POPC   GL268702  27.346  36.186   5.777
 5315POPC   C1A68703  27.663  35.914   6.080
 5315POPC   D2A68704  27.874  36.031   6.470
 5315POPC   C3A68705  27.737  35.909   6.891
 5315POPC   C4A68706  27.399  36.034   7.198
 5315POPC   C1B68707  27.458  36.375   6.176
 5315POPC   C2B68708  27.422  36.226   6.585
 5315POPC   C3B68709  27.458  36.485   6.925
 5315POPC   C4B68710  27.524  36.665   7.325
 5316POPC   NC368711  28.346  25.718   5.365
 5316POPC   PO468712  28.008  25.107   5.529
 5316POPC   GL168713  28.297  25.208   5.857
 5316POPC   GL268714  28.481  25.500   5.808
 5316POPC   C1A68715  28.366  25.017   6.257
 5316POPC   D2A68716  28.381  24.770   6.630
 5316POPC   C3A68717  28.315  24.966   7.033
 5316POPC   C4A68718  28.219  25.180   7.421
 5316POPC   C1B68719  28.622  25.485   6.239
 5316POPC   C2B68720  28.572  25.284   6.655
 5316POPC   C3B68721  28.668  25.316   7.089
 5316POPC   C4B68722  28.688  25.646   7.385
 5317POPC   NC368723  42.489  26.540   5.466
 5317POPC   PO468724  42.120  27.088   5.338
 5317POPC   GL168725  42.370  27.067   5.740
 5317POPC   GL268726  42.088  27.201   5.918
 5317POPC   C1A68727  42.464  26.795   6.140
 5317POPC   D2A68728  42.149  26.553   6.440
 5317POPC   C3A68729  42.224  26.492   6.910
 5317POPC   C4A68730  42.246  26.790   7.274
 5317POPC   C1B68731  42.086  27.052   6.358
 5317POPC   C2B68732  42.438  26.946   6.657
 5317POPC   C3B68733  42.460  27.192   7.030
 5317POPC   C4B68734  42.151  27.468   7.220
 5318POPC   NC368735  43.344  25.534   5.532
 5318POPC   PO468736  43.060  24.918   5.459
 5318POPC   GL168737  43.195  25.049   5.886
 5318POPC   GL268738  43.109  25.402   5.968
 5318POPC   C1A68739  43.235  25.068   6.354
 5318POPC   D2A68740  43.238  25.436   6.672
 5318POPC   C3A68741  42.855  25.541   6.891
 5318POPC   C4A68742  42.740  25.288   7.237
 5318POPC   C1B68743  43.291  25.777   6.163
 5318POPC   C2B68744  43.489  25.901   6.551
 5318POPC   C3B68745  43.557  25.758   6.952
 5318POPC   C4B68746  43.253  25.569   7.215
 5319POPC   NC368747  22.007  26.090   5.357
 5319POPC   PO468748  22.591  26.037   5.341
 5319POPC   GL168749  22.361  26.031   5.774
 5319POPC   GL268750  22.004  25.908   5.830
 5319POPC   C1A68751  22.327  25.913   6.243
 5319POPC   D2A68752  22.372  26.052   6.694
 5319POPC   C3A68753  22.419  25.984   7.162
 5319POPC   C4A68754  22.292  26.366   7.431
 5319POPC   C1B68755  21.919  26.222   6.152
 5319POPC   C2B68756  21.857  26.231   6.617
 5319POPC   C3B68757  21.950  26.028   7.012
 5319POPC   C4B68758  21.959  25.585   7.166
 5320POPC   NC368759   4.987  23.987   5.544
 5320POPC   PO468760   4.969  23.331   5.492
 5320POPC   GL168761   5.184  23.585   5.806
 5320POPC   GL268762   4.826  23.683   5.900
 5320POPC   C1A68763   5.209  23.804   6.226
 5320POPC   D2A68764   5.032  23.747   6.661
 5320POPC   C3A68765   5.206  23.738   7.073
 5320POPC   C4A68766   5.356  23.397   7.304
 5320POPC   C1B68767   4.686  23.809   6.299
 5320POPC   C2B68768   4.513  24.055   6.622
 5320POPC   C3B68769   4.646  23.857   6.985
 5320POPC   C4B68770   4.746  23.628   7.334
 5321POPC   NC368771   0.219  21.324   5.421
 5321POPC   PO468772  44.592  21.383   5.242
 5321POPC   GL168773  44.644  21.421   5.708
 5321POPC   GL268774  44.687  21.066   5.832
 5321POPC   C1A68775  44.826  21.464   6.148
 5321POPC   D2A68776  44.813  21.661   6.582
 5321POPC   C3A68777  44.786  21.402   6.943
 5321POPC   C4A68778  44.648  21.344   7.402
 5321POPC   C1B68779  44.378  21.050   6.175
 5321POPC   C2B68780  44.498  21.101   6.602
 5321POPC   C3B68781  44.345  21.136   7.025
 5321POPC   C4B68782  44.182  21.149   7.458
 5322POPC   NC368783  10.097  35.229   5.473
 5322POPC   PO468784   9.510  35.499   5.253
 5322POPC   GL168785   9.628  35.303   5.702
 5322POPC   GL268786   9.853  35.554   5.826
 5322POPC   C1A68787   9.696  35.247   6.189
 5322POPC   D2A68788   9.858  35.417   6.575
 5322POPC   C3A68789  10.009  35.097   6.860
 5322POPC   C4A68790   9.931  34.935   7.276
 5322POPC   C1B68791   9.427  35.660   6.094
 5322POPC   C2B68792   9.459  35.785   6.557
 5322POPC   C3B68793   9.328  35.702   7.003
 5322POPC   C4B68794   9.273  35.456   7.371
 5323POPC   NC368795  32.985  36.848   5.405
 5323POPC   PO468796  32.773  37.404   5.740
 5323POPC   GL168797  33.116  37.056   5.856
 5323POPC   GL268798  32.896  36.760   5.907
 5323POPC   C1A68799  33.326  36.696   6.149
 5323POPC   D2A68800  33.380  36.697   6.585
 5323POPC   C3A68801  33.264  37.089   6.796
 5323POPC   C4A68802  32.902  37.229   7.053
 5323POPC   C1B68803  32.954  36.982   6.344
 5323POPC   C2B68804  32.835  36.790   6.729
 5323POPC   C3B68805  32.765  36.649   7.155
 5323POPC   C4B68806  32.682  37.001   7.465
 5324POPC   NC368807   7.801  39.142   5.072
 5324POPC   PO468808   8.261  39.218   5.494
 5324POPC   GL168809   8.290  39.290   5.867
 5324POPC   GL268810   8.058  39.079   6.025
 5324POPC   C1A68811   8.474  39.290   6.249
 5324POPC   D2A68812   8.380  39.015   6.551
 5324POPC   C3A68813   8.353  39.251   6.921
 5324POPC   C4A68814   8.353  39.309   7.313
 5324POPC   C1B68815   7.814  39.282   6.323
 5324POPC   C2B68816   7.881  39.265   6.747
 5324POPC   C3B68817   7.861  39.340   7.186
 5324POPC   C4B68818   7.795  39.164   7.591
 5325POPC   NC368819  17.496   9.840   5.501
 5325POPC   PO468820  17.385   9.367   5.181
 5325POPC   GL168821  17.434   9.403   5.741
 5325POPC   GL268822  17.265   9.709   5.940
 5325POPC   C1A68823  17.675   9.572   6.159
 5325POPC   D2A68824  17.445   9.726   6.533
 5325POPC   C3A68825  17.585   9.739   6.936
 5325POPC   C4A68826  17.811   9.377   7.085
 5325POPC   C1B68827  17.058   9.945   6.282
 5325POPC   C2B68828  17.123  10.067   6.720
 5325POPC   C3B68829  17.110   9.835   7.144
 5325POPC   C4B68830  17.172  10.029   7.603
 5326POPC   NC368831  28.390  16.462   5.343
 5326POPC   PO468832  27.905  16.968   5.450
 5326POPC   GL168833  28.184  16.824   5.802
 5326POPC   GL268834  28.508  16.992   5.862
 5326POPC   C1A68835  28.239  16.504   6.130
 5326POPC   D2A68836  28.378  16.378   6.575
 5326POPC   C3A68837  28.124  16.553   6.904
 5326POPC   C4A68838  28.225  16.626   7.317
 5326POPC   C1B68839  28.412  16.986   6.274
 5326POPC   C2B68840  28.596  17.101   6.634
 5326POPC   C3B68841  28.509  16.910   6.990
 5326POPC   C4B68842  28.440  17.080   7.377
 5327POPC   NC368843   6.691  39.545   5.505
 5327POPC   PO468844   6.429  38.996   5.440
 5327POPC   GL168845   6.658  39.089   5.798
 5327POPC   GL268846   6.864  38.826   5.907
 5327POPC   C1A68847   6.713  39.313   6.199
 5327POPC   D2A68848   6.595  39.597   6.549
 5327POPC   C3A68849   6.637  39.436   6.964
 5327POPC   C4A68850   6.363  39.179   7.151
 5327POPC   C1B68851   6.547  38.807   6.244
 5327POPC   C2B68852   6.588  39.003   6.673
 5327POPC   C3B68853   6.757  38.883   7.093
 5327POPC   C4B68854   6.512  38.805   7.478
 5328POPC   NC368855   4.531  39.022   5.356
 5328POPC   PO468856   3.968  39.395   5.151
 5328POPC   GL168857   4.137  39.302   5.625
 5328POPC   GL268858   4.009  39.055   5.830
 5328POPC   C1A68859   4.339  39.403   6.063
 5328POPC   D2A68860   4.447  39.308   6.512
 5328POPC   C3A68861   4.118  39.167   6.775
 5328POPC   C4A68862   4.052  39.189   7.210
 5328POPC   C1B68863   4.292  38.912   6.178
 5328POPC   C2B68864   4.490  38.792   6.567
 5328POPC   C3B68865   4.496  38.913   6.992
 5328POPC   C4B68866   4.331  38.777   7.370
 5329POPC   NC368867  44.662  24.477   5.371
 5329POPC   PO468868   0.063  24.873   5.738
 5329POPC   GL168869  44.753  24.592   5.912
 5329POPC   GL268870  44.884  24.269   5.821
 5329POPC   C1A68871  44.437  24.549   6.271
 5329POPC   D2A68872  44.111  24.528   6.628
 5329POPC   C3A68873  44.373  24.535   7.023
 5329POPC   C4A68874  44.791  24.483   7.167
 5329POPC   C1B68875   0.041  24.317   6.241
 5329POPC   C2B68876  44.924  24.334   6.665
 5329POPC   C3B68877   0.122  24.149   6.988
 5329POPC   C4B68878  44.989  23.975   7.339
 5330POPC   NC368879   0.933  42.292   5.365
 5330POPC   PO468880   1.442  42.673   5.135
 5330POPC   GL168881   1.350  42.613   5.661
 5330POPC   GL268882   1.375  42.269   5.863
 5330POPC   C1A68883   1.292  42.684   6.118
 5330POPC   D2A68884   1.397  42.713   6.530
 5330POPC   C3A68885   1.137  42.462   6.795
 5330POPC   C4A68886   0.881  42.532   7.159
 5330POPC   C1B68887   1.601  42.302   6.255
 5330POPC   C2B68888   1.760  42.133   6.581
 5330POPC   C3B68889   1.503  42.052   6.859
 5330POPC   C4B68890   1.225  42.147   7.189
 5331POPC   NC368891  21.795  33.931   5.543
 5331POPC   PO468892  21.120  34.055   5.459
 5331POPC   GL168893  21.362  33.956   5.809
 5331POPC   GL268894  21.446  33.603   5.742
 5331POPC   C1A68895  21.547  34.010   6.209
 5331POPC   D2A68896  21.285  33.880   6.515
 5331POPC   C3A68897  21.455  33.959   6.855
 5331POPC   C4A68898  21.291  33.936   7.230
 5331POPC   C1B68899  21.467  33.498   6.191
 5331POPC   C2B68900  21.678  33.529   6.570
 5331POPC   C3B68901  21.554  33.485   6.988
 5331POPC   C4B68902  21.450  33.506   7.438
 5332POPC   NC368903  40.364  23.882   5.474
 5332POPC   PO468904  41.074  23.774   5.450
 5332POPC   GL168905  40.790  23.804   5.789
 5332POPC   GL268906  40.556  23.530   5.828
 5332POPC   C1A68907  40.681  23.891   6.214
 5332POPC   D2A68908  40.561  24.001   6.635
 5332POPC   C3A68909  40.746  23.786   7.030
 5332POPC   C4A68910  40.963  23.800   7.441
 5332POPC   C1B68911  40.806  23.394   6.162
 5332POPC   C2B68912  40.675  23.493   6.574
 5332POPC   C3B68913  40.673  23.279   6.942
 5332POPC   C4B68914  40.688  23.330   7.361
 5333POPC   NC368915  22.766   7.908   5.561
 5333POPC   PO468916  23.341   8.284   5.397
 5333POPC   GL168917  23.128   8.186   5.828
 5333POPC   GL268918  22.801   8.298   5.962
 5333POPC   C1A68919  23.149   8.194   6.304
 5333POPC   D2A68920  23.256   8.446   6.638
 5333POPC   C3A68921  23.162   8.356   7.037
 5333POPC   C4A68922  23.288   8.559   7.393
 5333POPC   C1B68923  22.673   7.994   6.273
 5333POPC   C2B68924  22.635   8.176   6.692
 5333POPC   C3B68925  22.764   8.056   7.120
 5333POPC   C4B68926  22.773   7.840   7.530
 5334POPC   NC368927  17.740  41.240   5.440
 5334POPC   PO468928  17.092  41.427   5.336
 5334POPC   GL168929  17.373  41.434   5.741
 5334POPC   GL268930  17.489  41.783   5.843
 5334POPC   C1A68931  17.502  41.376   6.201
 5334POPC   D2A68932  17.369  41.510   6.629
 5334POPC   C3A68933  17.604  41.461   7.058
 5334POPC   C4A68934  17.700  41.710   7.422
 5334POPC   C1B68935  17.647  41.866   6.271
 5334POPC   C2B68936  17.502  42.023   6.662
 5334POPC   C3B68937  17.376  41.921   7.057
 5334POPC   C4B68938  17.185  41.833   7.467
 5335POPC   NC368939  34.861  27.504   5.502
 5335POPC   PO468940  34.216  27.572   5.186
 5335POPC   GL168941  34.482  27.815   5.734
 5335POPC   GL268942  34.218  27.717   6.036
 5335POPC   C1A68943  34.686  27.758   6.183
 5335POPC   D2A68944  34.464  27.733   6.607
 5335POPC   C3A68945  34.659  27.487   6.960
 5335POPC   C4A68946  34.726  27.663   7.368
 5335POPC   C1B68947  34.380  27.340   6.279
 5335POPC   C2B68948  34.303  27.138   6.653
 5335POPC   C3B68949  34.183  27.283   7.058
 5335POPC   C4B68950  34.207  27.604   7.350
 5336POPC   NC368951  24.538  15.522   5.400
 5336POPC   PO468952  24.188  14.865   5.458
 5336POPC   GL168953  24.417  15.141   5.747
 5336POPC   GL268954  24.267  15.474   5.838
 5336POPC   C1A68955  24.521  15.200   6.185
 5336POPC   D2A68956  24.683  15.241   6.595
 5336POPC   C3A68957  24.444  15.023   6.892
 5336POPC   C4A68958  24.700  14.945   7.247
 5336POPC   C1B68959  24.234  15.626   6.246
 5336POPC   C2B68960  24.168  15.410   6.647
 5336POPC   C3B68961  24.082  15.487   7.111
 5336POPC   C4B68962  24.114  15.492   7.583
 5337POPC   NC368963  33.334  31.417   5.399
 5337POPC   PO468964  32.701  31.124   5.464
 5337POPC   GL168965  32.972  31.218   5.820
 5337POPC   GL268966  33.282  31.084   5.813
 5337POPC   C1A68967  32.911  31.409   6.249
 5337POPC   D2A68968  32.754  31.472   6.687
 5337POPC   C3A68969  32.861  31.458   7.152
 5337POPC   C4A68970  32.731  31.753   7.508
 5337POPC   C1B68971  33.278  31.079   6.245
 5337POPC   C2B68972  33.284  31.316   6.634
 5337POPC   C3B68973  33.203  31.093   7.004
 5337POPC   C4B68974  33.308  31.184   7.435
 5338POPC   NC368975  30.439  36.836   5.265
 5338POPC   PO468976  29.765  36.903   5.295
 5338POPC   GL168977  29.727  36.863   5.708
 5338POPC   GL268978  29.824  36.522   5.756
 5338POPC   C1A68979  29.815  37.085   6.090
 5338POPC   D2A68980  29.984  37.038   6.499
 5338POPC   C3A68981  29.730  36.976   6.863
 5338POPC   C4A68982  29.648  37.194   7.264
 5338POPC   C1B68983  29.784  36.577   6.191
 5338POPC   C2B68984  30.026  36.506   6.529
 5338POPC   C3B68985  29.895  36.509   6.924
 5338POPC   C4B68986  29.926  36.748   7.284
 5339POPC   NC368987  30.306  14.476   5.417
 5339POPC   PO468988  29.713  14.316   5.491
 5339POPC   GL168989  29.927  14.527   5.803
 5339POPC   GL268990  30.119  14.235   5.866
 5339POPC   C1A68991  30.041  14.579   6.248
 5339POPC   D2A68992  30.044  14.242   6.551
 5339POPC   C3A68993  29.870  14.300   6.958
 5339POPC   C4A68994  30.056  14.613   7.213
 5339POPC   C1B68995  30.412  14.106   6.166
 5339POPC   C2B68996  30.433  13.913   6.561
 5339POPC   C3B68997  30.422  14.153   6.940
 5339POPC   C4B68998  30.333  14.186   7.356
 5340POPC   NC368999  20.565  27.105   5.513
 5340POPC   PO469000  20.404  27.871   5.363
 5340POPC   GL169001  20.412  27.579   5.743
 5340POPC   GL269002  20.740  27.546   5.742
 5340POPC   C1A69003  20.487  27.316   6.156
 5340POPC   D2A69004  20.647  27.413   6.593
 5340POPC   C3A69005  20.472  27.233   6.948
 5340POPC   C4A69006  20.178  27.344   7.295
 5340POPC   C1B69007  20.798  27.713   6.164
 5340POPC   C2B69008  20.552  27.905   6.530
 5340POPC   C3B69009  20.471  27.736   6.979
 5340POPC   C4B69010  20.658  27.475   7.382
 5341POPC   NC369011   4.517   1.613   5.405
 5341POPC   PO469012   4.028   2.189   5.402
 5341POPC   GL169013   4.169   2.188   5.821
 5341POPC   GL269014   4.357   1.893   5.806
 5341POPC   C1A69015   4.331   2.235   6.212
 5341POPC   D2A69016   4.601   2.003   6.497
 5341POPC   C3A69017   4.392   2.006   6.897
 5341POPC   C4A69018   4.558   2.002   7.322
 5341POPC   C1B69019   4.073   1.793   6.158
 5341POPC   C2B69020   3.998   1.977   6.550
 5341POPC   C3B69021   3.859   1.855   6.942
 5341POPC   C4B69022   4.036   2.028   7.298
 5342POPC   NC369023  28.412  30.668   5.300
 5342POPC   PO469024  28.398  31.204   5.617
 5342POPC   GL169025  28.143  30.991   5.934
 5342POPC   GL269026  28.219  30.689   5.769
 5342POPC   C1A69027  28.172  30.891   6.403
 5342POPC   D2A69028  28.480  30.698   6.730
 5342POPC   C3A69029  28.537  30.777   7.190
 5342POPC   C4A69030  28.485  30.648   7.646
 5342POPC   C1B69031  28.013  30.469   6.070
 5342POPC   C2B69032  28.127  30.365   6.474
 5342POPC   C3B69033  28.069  30.395   6.893
 5342POPC   C4B69034  28.308  30.337   7.256
 5343POPC   NC369035  41.920  37.092   5.157
 5343POPC   PO469036  42.342  36.649   5.386
 5343POPC   GL169037  42.400  36.784   5.792
 5343POPC   GL269038  42.607  37.042   5.836
 5343POPC   C1A69039  42.297  36.864   6.203
 5343POPC   D2A69040  42.598  36.885   6.515
 5343POPC   C3A69041  42.476  36.699   6.894
 5343POPC   C4A69042  42.605  36.776   7.279
 5343POPC   C1B69043  42.525  37.320   6.192
 5343POPC   C2B69044  42.263  37.332   6.589
 5343POPC   C3B69045  42.374  37.243   7.032
 5343POPC   C4B69046  42.771  37.261   7.265
 5344POPC   NC369047  40.810  32.833   5.199
 5344POPC   PO469048  40.376  33.272   5.480
 5344POPC   GL169049  40.597  33.287   5.877
 5344POPC   GL269050  40.819  33.001   5.843
 5344POPC   C1A69051  40.565  33.338   6.359
 5344POPC   D2A69052  40.796  33.286   6.720
 5344POPC   C3A69053  40.616  33.071   7.077
 5344POPC   C4A69054  40.688  33.024   7.531
 5344POPC   C1B69055  40.933  32.987   6.300
 5344POPC   C2B69056  40.988  32.794   6.737
 5344POPC   C3B69057  41.036  32.773   7.218
 5344POPC   C4B69058  40.921  32.569   7.620
 5345POPC   NC369059  19.227  35.693   5.514
 5345POPC   PO469060  18.847  35.064   5.563
 5345POPC   GL169061  19.025  35.315   5.808
 5345POPC   GL269062  19.372  35.231   5.713
 5345POPC   C1A69063  18.882  35.422   6.230
 5345POPC   D2A69064  18.847  35.579   6.675
 5345POPC   C3A69065  18.808  35.317   7.045
 5345POPC   C4A69066  18.976  35.433   7.438
 5345POPC   C1B69067  19.399  35.374   6.149
 5345POPC   C2B69068  19.238  35.239   6.556
 5345POPC   C3B69069  19.275  35.456   6.956
 5345POPC   C4B69070  19.402  35.213   7.276
 5346POPC   NC369071  39.351   8.851   5.524
 5346POPC   PO469072  39.085   9.335   5.229
 5346POPC   GL169073  38.980   9.176   5.714
 5346POPC   GL269074  38.981   8.767   5.815
 5346POPC   C1A69075  39.093   9.365   6.170
 5346POPC   D2A69076  39.315   9.429   6.575
 5346POPC   C3A69077  39.282   9.060   6.836
 5346POPC   C4A69078  39.009   9.105   7.170
 5346POPC   C1B69079  39.225   8.831   6.195
 5346POPC   C2B69080  39.482   8.652   6.520
 5346POPC   C3B69081  39.381   8.497   6.897
 5346POPC   C4B69082  39.184   8.595   7.246
 5347POPC   NC369083  23.182  13.026   5.254
 5347POPC   PO469084  23.763  12.645   5.165
 5347POPC   GL169085  23.617  12.664   5.654
 5347POPC   GL269086  23.475  12.387   5.856
 5347POPC   C1A69087  23.826  12.772   6.094
 5347POPC   D2A69088  24.167  12.752   6.409
 5347POPC   C3A69089  24.101  12.793   6.862
 5347POPC   C4A69090  23.878  12.770   7.262
 5347POPC   C1B69091  23.401  12.566   6.282
 5347POPC   C2B69092  23.593  12.788   6.651
 5347POPC   C3B69093  23.403  12.863   7.075
 5347POPC   C4B69094  23.405  12.510   7.384
 5348POPC   NC369095  11.763   1.005   5.612
 5348POPC   PO469096  12.405   1.113   5.551
 5348POPC   GL169097  12.202   0.959   5.899
 5348POPC   GL269098  11.991   1.257   6.004
 5348POPC   C1A69099  12.180   0.911   6.330
 5348POPC   D2A69100  12.107   1.286   6.576
 5348POPC   C3A69101  12.391   1.311   6.945
 5348POPC   C4A69102  12.573   1.561   7.255
 5348POPC   C1B69103  11.662   1.150   6.307
 5348POPC   C2B69104  11.586   1.179   6.733
 5348POPC   C3B69105  11.879   1.270   7.024
 5348POPC   C4B69106  12.134   1.027   7.317
 5349POPC   NC369107   4.438  38.296   5.316
 5349POPC   PO469108   4.108  38.837   5.355
 5349POPC   GL169109   4.361  38.668   5.714
 5349POPC   GL269110   4.265  38.321   5.798
 5349POPC   C1A69111   4.638  38.554   6.084
 5349POPC   D2A69112   4.633  38.285   6.437
 5349POPC   C3A69113   4.358  38.342   6.779
 5349POPC   C4A69114   4.418  38.308   7.209
 5349POPC   C1B69115   4.145  38.398   6.225
 5349POPC   C2B69116   3.940  38.122   6.513
 5349POPC   C3B69117   4.021  37.973   6.918
 5349POPC   C4B69118   3.867  38.150   7.264
 5350POPC   NC369119  33.609  13.080   5.404
 5350POPC   PO469120  33.896  12.468   5.365
 5350POPC   GL169121  33.772  12.694   5.745
 5350POPC   GL269122  33.819  13.064   5.879
 5350POPC   C1A69123  33.523  12.713   6.120
 5350POPC   D2A69124  33.458  12.581   6.537
 5350POPC   C3A69125  33.582  12.927   6.823
 5350POPC   C4A69126  33.693  12.822   7.235
 5350POPC   C1B69127  33.940  12.956   6.336
 5350POPC   C2B69128  34.116  12.944   6.776
 5350POPC   C3B69129  34.020  13.205   7.156
 5350POPC   C4B69130  33.949  13.108   7.585
 5351POPC   NC369131  27.208  23.883   4.988
 5351POPC   PO469132  27.653  23.574   5.341
 5351POPC   GL169133  27.717  23.463   5.784
 5351POPC   GL269134  27.429  23.252   5.897
 5351POPC   C1A69135  27.671  23.619   6.196
 5351POPC   D2A69136  27.553  23.390   6.568
 5351POPC   C3A69137  27.574  23.612   6.944
 5351POPC   C4A69138  27.631  23.695   7.351
 5351POPC   C1B69139  27.177  23.496   6.240
 5351POPC   C2B69140  27.207  23.792   6.642
 5351POPC   C3B69141  27.287  24.012   7.093
 5351POPC   C4B69142  27.478  24.182   7.490
 5352POPC   NC369143   7.156  33.490   5.498
 5352POPC   PO469144   7.454  32.885   5.617
 5352POPC   GL169145   7.206  33.120   5.881
 5352POPC   GL269146   7.463  33.333   5.885
 5352POPC   C1A69147   7.232  33.183   6.323
 5352POPC   D2A69148   7.094  32.909   6.634
 5352POPC   C3A69149   7.176  33.188   6.956
 5352POPC   C4A69150   7.164  33.178   7.393
 5352POPC   C1B69151   7.720  33.479   6.187
 5352POPC   C2B69152   7.640  33.557   6.606
 5352POPC   C3B69153   7.669  33.332   6.957
 5352POPC   C4B69154   7.622  33.396   7.352
 5353POPC   NC369155   9.064  37.445   5.463
 5353POPC   PO469156   8.684  38.032   5.439
 5353POPC   GL169157   8.820  37.794   5.806
 5353POPC   GL269158   8.615  37.464   5.865
 5353POPC   C1A69159   9.178  37.837   6.129
 5353POPC   D2A69160   9.335  37.747   6.571
 5353POPC   C3A69161   9.229  37.975   6.990
 5353POPC   C4A69162   9.025  37.946   7.438
 5353POPC   C1B69163   8.787  37.580   6.293
 5353POPC   C2B69164   8.874  37.529   6.729
 5353POPC   C3B69165   8.803  37.545   7.139
 5353POPC   C4B69166   8.490  37.319   7.410
 5354POPC   NC369167  41.652  39.606   5.421
 5354POPC   PO469168  41.430  38.851   5.421
 5354POPC   GL169169  41.599  39.158   5.700
 5354POPC   GL269170  41.244  39.294   5.640
 5354POPC   C1A69171  41.820  39.233   6.128
 5354POPC   D2A69172  41.824  39.432   6.560
 5354POPC   C3A69173  41.890  39.253   6.990
 5354POPC   C4A69174  41.632  39.116   7.371
 5354POPC   C1B69175  41.283  39.296   6.088
 5354POPC   C2B69176  41.307  39.419   6.522
 5354POPC   C3B69177  41.370  39.261   6.920
 5354POPC   C4B69178  41.148  39.127   7.280
 5355POPC   NC369179   1.101  36.395   5.519
 5355POPC   PO469180   1.647  36.025   5.512
 5355POPC   GL169181   1.399  35.936   5.866
 5355POPC   GL269182   1.052  35.932   5.757
 5355POPC   C1A69183   1.348  36.147   6.276
 5355POPC   D2A69184   1.169  36.454   6.580
 5355POPC   C3A69185   1.332  36.330   6.978
 5355POPC   C4A69186   1.443  36.206   7.402
 5355POPC   C1B69187   0.916  35.888   6.207
 5355POPC   C2B69188   1.032  35.931   6.662
 5355POPC   C3B69189   0.900  36.100   7.092
 5355POPC   C4B69190   1.018  36.001   7.560
 5356POPC   NC369191   7.590  31.563   5.484
 5356POPC   PO469192   7.140  31.071   5.536
 5356POPC   GL169193   7.310  31.311   5.889
 5356POPC   GL269194   7.230  31.656   5.839
 5356POPC   C1A69195   7.136  31.487   6.301
 5356POPC   D2A69196   7.060  31.475   6.743
 5356POPC   C3A69197   7.463  31.384   6.926
 5356POPC   C4A69198   7.533  31.265   7.343
 5356POPC   C1B69199   7.621  31.685   6.113
 5356POPC   C2B69200   7.656  31.911   6.488
 5356POPC   C3B69201   7.290  31.944   6.729
 5356POPC   C4B69202   7.286  31.819   7.123
 5357POPC   NC369203  25.887  30.330   5.343
 5357POPC   PO469204  25.670  29.777   5.346
 5357POPC   GL169205  25.892  29.949   5.733
 5357POPC   GL269206  26.212  30.134   5.718
 5357POPC   C1A69207  25.721  29.906   6.166
 5357POPC   D2A69208  25.515  30.032   6.545
 5357POPC   C3A69209  25.675  29.876   6.963
 5357POPC   C4A69210  25.769  29.946   7.428
 5357POPC   C1B69211  26.113  30.221   6.183
 5357POPC   C2B69212  26.031  30.070   6.639
 5357POPC   C3B69213  26.117  30.164   7.105
 5357POPC   C4B69214  26.267  29.913   7.512
 5358POPC   NC369215  38.513  18.618   5.535
 5358POPC   PO469216  38.054  18.131   5.475
 5358POPC   GL169217  38.237  18.257   5.866
 5358POPC   GL269218  38.590  18.181   5.843
 5358POPC   C1A69219  38.250  18.073   6.301
 5358POPC   D2A69220  38.390  17.837   6.661
 5358POPC   C3A69221  38.592  18.021   7.022
 5358POPC   C4A69222  38.294  18.280   7.280
 5358POPC   C1B69223  38.589  18.449   6.240
 5358POPC   C2B69224  38.462  18.378   6.690
 5358POPC   C3B69225  38.683  18.522   7.080
 5358POPC   C4B69226  38.481  18.701   7.462
 5359POPC   NC369227   9.753  36.842   5.316
 5359POPC   PO469228  10.225  36.612   5.642
 5359POPC   GL169229   9.888  36.816   5.870
 5359POPC   GL269230   9.506  36.765   5.804
 5359POPC   C1A69231   9.920  36.882   6.324
 5359POPC   D2A69232  10.152  36.781   6.702
 5359POPC   C3A69233   9.995  36.821   7.120
 5359POPC   C4A69234   9.647  36.582   7.215
 5359POPC   C1B69235   9.398  36.775   6.263
 5359POPC   C2B69236   9.536  36.901   6.715
 5359POPC   C3B69237   9.423  37.032   7.143
 5359POPC   C4B69238   9.245  36.773   7.509
 5360POPC   NC369239  19.896  33.969   5.526
 5360POPC   PO469240  19.450  34.403   5.301
 5360POPC   GL169241  19.619  34.310   5.756
 5360POPC   GL269242  19.612  33.959   5.951
 5360POPC   C1A69243  19.906  34.302   6.134
 5360POPC   D2A69244  19.773  34.056   6.462
 5360POPC   C3A69245  19.898  34.067   6.874
 5360POPC   C4A69246  19.489  33.906   7.041
 5360POPC   C1B69247  19.659  33.598   6.241
 5360POPC   C2B69248  19.524  33.535   6.671
 5360POPC   C3B69249  19.649  33.406   7.070
 5360POPC   C4B69250  19.943  33.724   7.251
 5361POPC   NC369251  36.687  25.860   5.409
 5361POPC   PO469252  36.825  25.177   5.309
 5361POPC   GL169253  37.016  25.238   5.710
 5361POPC   GL269254  36.950  25.593   5.769
 5361POPC   C1A69255  36.887  25.268   6.143
 5361POPC   D2A69256  37.089  25.252   6.527
 5361POPC   C3A69257  36.800  25.147   6.831
 5361POPC   C4A69258  36.751  25.265   7.234
 5361POPC   C1B69259  37.200  25.680   6.181
 5361POPC   C2B69260  37.352  25.671   6.636
 5361POPC   C3B69261  37.226  25.434   7.022
 5361POPC   C4B69262  37.124  25.516   7.463
 5362POPC   NC369263  44.296  34.564   5.112
 5362POPC   PO469264  44.726  34.250   5.553
 5362POPC   GL169265  44.761  34.395   5.944
 5362POPC   GL269266  44.756  34.732   5.894
 5362POPC   C1A69267  44.993  34.562   6.301
 5362POPC   D2A69268  44.870  34.752   6.642
 5362POPC   C3A69269  44.990  34.686   7.023
 5362POPC   C4A69270  44.613  34.860   7.179
 5362POPC   C1B69271  44.477  34.673   6.249
 5362POPC   C2B69272  44.553  34.323   6.512
 5362POPC   C3B69273  44.571  34.399   6.944
 5362POPC   C4B69274  44.486  34.198   7.335
 5363POPC   NC369275  12.409  34.697   5.252
 5363POPC   PO469276  12.587  34.179   5.345
 5363POPC   GL169277  12.628  34.321   5.774
 5363POPC   GL269278  12.639  34.678   5.832
 5363POPC   C1A69279  12.663  34.265   6.228
 5363POPC   D2A69280  13.000  34.324   6.552
 5363POPC   C3A69281  12.964  34.488   6.985
 5363POPC   C4A69282  12.961  34.444   7.456
 5363POPC   C1B69283  12.774  34.742   6.292
 5363POPC   C2B69284  12.542  34.539   6.668
 5363POPC   C3B69285  12.479  34.596   7.135
 5363POPC   C4B69286  12.614  34.811   7.551
 5364POPC   NC369287  20.429  34.161   5.205
 5364POPC   PO469288  20.813  34.719   5.172
 5364POPC   GL169289  20.777  34.633   5.669
 5364POPC   GL269290  20.474  34.659   5.787
 5364POPC   C1A69291  20.818  34.675   6.151
 5364POPC   D2A69292  20.529  34.612   6.526
 5364POPC   C3A69293  20.537  34.883   6.876
 5364POPC   C4A69294  20.637  34.581   7.171
 5364POPC   C1B69295  20.420  34.325   6.114
 5364POPC   C2B69296  20.292  34.132   6.486
 5364POPC   C3B69297  20.477  34.199   6.864
 5364POPC   C4B69298  20.300  34.118   7.255
 5365POPC   NC369299  31.876  28.699   5.308
 5365POPC   PO469300  32.597  28.598   5.351
 5365POPC   GL169301  32.463  28.348   5.670
 5365POPC   GL269302  32.121  28.347   5.626
 5365POPC   C1A69303  32.484  28.331   6.094
 5365POPC   D2A69304  32.291  28.182   6.460
 5365POPC   C3A69305  32.388  28.468   6.780
 5365POPC   C4A69306  32.557  28.330   7.151
 5365POPC   C1B69307  31.973  28.373   6.094
 5365POPC   C2B69308  31.847  28.469   6.524
 5365POPC   C3B69309  31.955  28.234   6.884
 5365POPC   C4B69310  32.103  28.119   7.282
 5366POPC   NC369311   1.986   3.728   5.336
 5366POPC   PO469312   1.566   3.382   5.483
 5366POPC   GL169313   1.750   3.328   5.863
 5366POPC   GL269314   1.600   3.053   6.016
 5366POPC   C1A69315   1.730   3.608   6.232
 5366POPC   D2A69316   1.787   3.763   6.664
 5366POPC   C3A69317   2.184   3.661   6.829
 5366POPC   C4A69318   2.225   3.705   7.224
 5366POPC   C1B69319   1.909   3.103   6.342
 5366POPC   C2B69320   1.955   3.204   6.769
 5366POPC   C3B69321   1.762   3.448   7.081
 5366POPC   C4B69322   2.034   3.277   7.345
 5367POPC   NC369323  17.707   9.127   5.414
 5367POPC   PO469324  18.156   8.609   5.397
 5367POPC   GL169325  18.247   8.976   5.712
 5367POPC   GL269326  18.417   9.324   5.688
 5367POPC   C1A69327  18.158   9.168   6.134
 5367POPC   D2A69328  18.187   8.953   6.527
 5367POPC   C3A69329  18.241   9.122   6.922
 5367POPC   C4A69330  18.497   8.979   7.282
 5367POPC   C1B69331  18.554   9.513   6.093
 5367POPC   C2B69332  18.386   9.510   6.519
 5367POPC   C3B69333  18.554   9.558   6.935
 5367POPC   C4B69334  18.324   9.461   7.292
 5368POPC   NC369335   0.375   8.085   4.895
 5368POPC   PO469336   0.707   7.974   5.394
 5368POPC   GL169337   0.637   8.099   5.856
 5368POPC   GL269338   0.657   8.458   5.925
 5368POPC   C1A69339   0.614   8.110   6.334
 5368POPC   D2A69340   0.530   7.919   6.741
 5368POPC   C3A69341   0.657   8.137   7.108
 5368POPC   C4A69342   0.433   8.005   7.466
 5368POPC   C1B69343   0.422   8.581   6.313
 5368POPC   C2B69344   0.370   8.410   6.739
 5368POPC   C3B69345   0.148   8.228   7.087
 5368POPC   C4B69346   0.170   8.432   7.461
 5369POPC   NC369347  23.400  23.262   5.299
 5369POPC   PO469348  22.914  22.775   5.489
 5369POPC   GL169349  22.798  22.749   5.948
 5369POPC   GL269350  22.651  23.048   6.089
 5369POPC   C1A69351  22.927  22.730   6.386
 5369POPC   D2A69352  22.852  23.064   6.691
 5369POPC   C3A69353  22.870  22.918   7.121
 5369POPC   C4A69354  23.148  22.891   7.479
 5369POPC   C1B69355  22.426  22.773   6.388
 5369POPC   C2B69356  22.531  22.682   6.800
 5369POPC   C3B69357  22.358  22.905   7.163
 5369POPC   C4B69358  22.604  22.925   7.560
 5370POPC   NC369359   2.341  41.665   5.433
 5370POPC   PO469360   1.795  41.151   5.395
 5370POPC   GL169361   1.858  41.516   5.719
 5370POPC   GL269362   1.784  41.906   5.694
 5370POPC   C1A69363   2.110  41.424   6.114
 5370POPC   D2A69364   1.958  41.253   6.517
 5370POPC   C3A69365   2.150  41.297   6.920
 5370POPC   C4A69366   2.127  41.495   7.363
 5370POPC   C1B69367   1.922  41.906   6.118
 5370POPC   C2B69368   2.085  41.759   6.517
 5370POPC   C3B69369   1.947  41.775   6.939
 5370POPC   C4B69370   1.681  41.852   7.269
 5371POPC   NC369371  20.365  40.914   5.486
 5371POPC   PO469372  21.016  40.858   5.434
 5371POPC   GL169373  20.870  40.675   5.809
 5371POPC   GL269374  20.499  40.643   5.879
 5371POPC   C1A69375  20.816  40.843   6.217
 5371POPC   D2A69376  20.674  41.020   6.589
 5371POPC   C3A69377  20.729  40.796   6.966
 5371POPC   C4A69378  20.761  41.104   7.300
 5371POPC   C1B69379  20.307  40.842   6.245
 5371POPC   C2B69380  20.184  40.851   6.663
 5371POPC   C3B69381  20.267  41.014   7.052
 5371POPC   C4B69382  20.218  40.718   7.374
 5372POPC   NC369383  35.224  36.113   5.235
 5372POPC   PO469384  35.634  35.844   5.700
 5372POPC   GL169385  35.353  36.115   5.875
 5372POPC   GL269386  34.996  36.161   5.811
 5372POPC   C1A69387  35.267  36.348   6.232
 5372POPC   D2A69388  35.464  36.383   6.620
 5372POPC   C3A69389  35.539  36.065   6.920
 5372POPC   C4A69390  35.480  36.179   7.329
 5372POPC   C1B69391  35.040  35.883   6.214
 5372POPC   C2B69392  35.165  35.837   6.649
 5372POPC   C3B69393  35.077  35.877   7.097
 5372POPC   C4B69394  34.996  36.098   7.495
 5373POPC   NC369395  38.002   5.392   5.586
 5373POPC   PO469396  37.915   4.719   5.547
 5373POPC   GL169397  37.854   4.975   5.863
 5373POPC   GL269398  38.172   5.015   5.918
 5373POPC   C1A69399  37.772   5.114   6.286
 5373POPC   D2A69400  37.702   4.900   6.673
 5373POPC   C3A69401  37.638   5.018   7.092
 5373POPC   C4A69402  37.930   4.864   7.382
 5373POPC   C1B69403  38.234   5.324   6.227
 5373POPC   C2B69404  38.063   5.392   6.626
 5373POPC   C3B69405  38.097   5.216   7.012
 5373POPC   C4B69406  38.100   5.359   7.439
 5374POPC   NC369407  31.051  26.842   5.478
 5374POPC   PO469408  30.482  27.021   5.352
 5374POPC   GL169409  30.604  26.760   5.748
 5374POPC   GL269410  30.898  26.575   5.882
 5374POPC   C1A69411  30.483  26.669   6.157
 5374POPC   D2A69412  30.591  26.442   6.519
 5374POPC   C3A69413  30.684  26.684   6.854
 5374POPC   C4A69414  30.532  26.803   7.244
 5374POPC   C1B69415  31.032  26.697   6.296
 5374POPC   C2B69416  31.039  27.009   6.627
 5374POPC   C3B69417  30.946  27.091   7.044
 5374POPC   C4B69418  31.066  26.708   7.248
 5375POPC   NC369419  32.034  41.958   5.342
 5375POPC   PO469420  32.497  41.385   5.448
 5375POPC   GL169421  32.281  41.446   5.854
 5375POPC   GL269422  31.941  41.323   5.840
 5375POPC   C1A69423  32.038  41.730   6.152
 5375POPC   D2A69424  31.835  41.657   6.558
 5375POPC   C3A69425  32.159  41.391   6.764
 5375POPC   C4A69426  32.318  41.423   7.171
 5375POPC   C1B69427  31.961  41.184   6.286
 5375POPC   C2B69428  31.703  41.163   6.674
 5375POPC   C3B69429  31.779  41.263   7.081
 5375POPC   C4B69430  31.829  41.700   7.183
 5376POPC   NC369431  37.568  17.155   5.400
 5376POPC   PO469432  38.052  16.657   5.299
 5376POPC   GL169433  37.896  16.678   5.757
 5376POPC   GL269434  37.650  16.936   5.845
 5376POPC   C1A69435  37.770  16.614   6.218
 5376POPC   D2A69436  37.933  16.777   6.612
 5376POPC   C3A69437  37.757  16.659   7.044
 5376POPC   C4A69438  37.942  16.838   7.418
 5376POPC   C1B69439  37.423  17.023   6.215
 5376POPC   C2B69440  37.417  16.905   6.692
 5376POPC   C3B69441  37.314  17.118   7.099
 5376POPC   C4B69442  37.341  17.023   7.553
 5377POPC   NC369443  22.502  13.492   5.449
 5377POPC   PO469444  21.775  13.533   5.544
 5377POPC   GL169445  22.152  13.568   5.809
 5377POPC   GL269446  22.104  13.232   5.895
 5377POPC   C1A69447  22.294  13.814   6.191
 5377POPC   D2A69448  22.418  13.719   6.636
 5377POPC   C3A69449  22.143  13.704   6.961
 5377POPC   C4A69450  22.086  13.904   7.329
 5377POPC   C1B69451  22.463  13.333   6.174
 5377POPC   C2B69452  22.710  13.312   6.588
 5377POPC   C3B69453  22.545  13.278   7.014
 5377POPC   C4B69454  22.304  13.435   7.342
 5378POPC   NC369455  38.809   5.349   5.325
 5378POPC   PO469456  38.764   4.616   5.355
 5378POPC   GL169457  38.634   4.830   5.763
 5378POPC   GL269458  38.640   5.193   5.798
 5378POPC   C1A69459  38.534   4.871   6.235
 5378POPC   D2A69460  38.169   4.821   6.497
 5378POPC   C3A69461  38.222   4.706   6.954
 5378POPC   C4A69462  38.446   4.963   7.295
 5378POPC   C1B69463  38.727   5.392   6.191
 5378POPC   C2B69464  38.576   5.390   6.653
 5378POPC   C3B69465  38.543   5.427   7.122
 5378POPC   C4B69466  38.591   5.395   7.591
 5379POPC   NC369467   5.064  28.914   5.431
 5379POPC   PO469468   4.857  29.475   5.392
 5379POPC   GL169469   4.933  29.225   5.822
 5379POPC   GL269470   5.288  29.018   5.857
 5379POPC   C1A69471   4.959  28.986   6.216
 5379POPC   D2A69472   5.100  28.776   6.565
 5379POPC   C3A69473   4.987  28.902   6.972
 5379POPC   C4A69474   5.013  29.111   7.347
 5379POPC   C1B69475   5.464  29.003   6.281
 5379POPC   C2B69476   5.567  29.200   6.674
 5379POPC   C3B69477   5.455  29.140   7.096
 5379POPC   C4B69478   5.444  28.868   7.473
 5380POPC   NC369479  41.256   1.726   5.473
 5380POPC   PO469480  41.852   2.086   5.498
 5380POPC   GL169481  41.594   2.127   5.854
 5380POPC   GL269482  41.279   2.304   5.773
 5380POPC   C1A69483  41.603   1.917   6.262
 5380POPC   D2A69484  41.608   1.649   6.616
 5380POPC   C3A69485  41.743   1.777   7.012
 5380POPC   C4A69486  41.463   2.062   7.171
 5380POPC   C1B69487  41.158   2.149   6.196
 5380POPC   C2B69488  41.280   2.150   6.655
 5380POPC   C3B69489  41.155   2.427   7.011
 5380POPC   C4B69490  41.105   2.371   7.467
 5381POPC   NC369491  37.797  30.525   5.403
 5381POPC   PO469492  37.621  29.919   5.321
 5381POPC   GL169493  37.644  29.786   5.737
 5381POPC   GL269494  37.765  30.110   5.831
 5381POPC   C1A69495  37.629  29.783   6.197
 5381POPC   D2A69496  37.846  29.871   6.583
 5381POPC   C3A69497  37.598  29.804   6.959
 5381POPC   C4A69498  37.550  29.889   7.395
 5381POPC   C1B69499  37.931  30.251   6.244
 5381POPC   C2B69500  38.045  30.328   6.695
 5381POPC   C3B69501  38.008  30.099   7.090
 5381POPC   C4B69502  37.920  30.208   7.519
 5382POPC   NC369503  38.787  23.660   5.421
 5382POPC   PO469504  39.445  23.768   5.452
 5382POPC   GL169505  39.183  23.576   5.731
 5382POPC   GL269506  39.388  23.689   5.983
 5382POPC   C1A69507  38.980  23.424   6.119
 5382POPC   D2A69508  39.186  23.345   6.539
 5382POPC   C3A69509  39.286  23.636   6.877
 5382POPC   C4A69510  38.983  23.746   7.198
 5382POPC   C1B69511  39.746  23.500   6.163
 5382POPC   C2B69512  39.716  23.388   6.593
 5382POPC   C3B69513  39.778  23.526   7.013
 5382POPC   C4B69514  39.465  23.509   7.345
 5383POPC   NC369515   3.393  44.282   5.354
 5383POPC   PO469516   3.433  44.928   5.408
 5383POPC   GL169517   3.531  44.912   5.819
 5383POPC   GL269518   3.566  44.576   5.846
 5383POPC   C1A69519   3.704  44.890   6.257
 5383POPC   D2A69520   3.603  44.598   6.600
 5383POPC   C3A69521   3.665  44.686   7.008
 5383POPC   C4A69522   3.409  44.792   7.311
 5383POPC   C1B69523   3.844  44.371   6.184
 5383POPC   C2B69524   4.000  44.303   6.631
 5383POPC   C3B69525   3.704  44.143   6.972
 5383POPC   C4B69526   3.656  44.323   7.404
 5384POPC   NC369527  22.724   9.525   5.360
 5384POPC   PO469528  23.197  10.020   5.472
 5384POPC   GL169529  22.990   9.861   5.801
 5384POPC   GL269530  22.651   9.785   5.799
 5384POPC   C1A69531  23.015   9.780   6.226
 5384POPC   D2A69532  22.802   9.622   6.580
 5384POPC   C3A69533  22.982   9.747   6.968
 5384POPC   C4A69534  23.133   9.637   7.388
 5384POPC   C1B69535  22.585  10.051   6.172
 5384POPC   C2B69536  22.817  10.133   6.576
 5384POPC   C3B69537  22.645  10.155   7.003
 5384POPC   C4B69538  22.724   9.955   7.382
 5385POPC   NC369539   7.198  16.982   5.187
 5385POPC   PO469540   7.518  16.320   5.302
 5385POPC   GL169541   7.485  16.712   5.559
 5385POPC   GL269542   7.128  16.809   5.655
 5385POPC   C1A69543   7.492  16.777   6.020
 5385POPC   D2A69544   7.708  16.734   6.411
 5385POPC   C3A69545   7.610  16.784   6.861
 5385POPC   C4A69546   7.530  16.522   7.215
 5385POPC   C1B69547   6.991  16.841   6.095
 5385POPC   C2B69548   7.176  16.600   6.441
 5385POPC   C3B69549   7.143  16.494   6.876
 5385POPC   C4B69550   7.028  16.731   7.243
 5386POPC   NC369551  25.962  16.135   5.419
 5386POPC   PO469552  26.417  15.754   5.407
 5386POPC   GL169553  26.078  15.741   5.744
 5386POPC   GL269554  25.695  15.796   5.702
 5386POPC   C1A69555  26.017  16.056   6.109
 5386POPC   D2A69556  26.213  16.148   6.534
 5386POPC   C3A69557  26.147  15.845   6.892
 5386POPC   C4A69558  25.831  15.970   7.185
 5386POPC   C1B69559  25.743  15.624   6.137
 5386POPC   C2B69560  25.720  15.799   6.567
 5386POPC   C3B69561  25.564  15.603   6.933
 5386POPC   C4B69562  25.782  15.478   7.277
 5387POPC   NC369563  38.998  19.481   5.391
 5387POPC   PO469564  38.335  19.846   5.526
 5387POPC   GL169565  38.440  19.640   5.893
 5387POPC   GL269566  38.569  19.943   6.044
 5387POPC   C1A69567  38.664  19.521   6.275
 5387POPC   D2A69568  38.768  19.706   6.729
 5387POPC   C3A69569  38.561  19.710   7.143
 5387POPC   C4A69570  38.226  19.634   7.472
 5387POPC   C1B69571  38.248  20.008   6.337
 5387POPC   C2B69572  38.229  19.940   6.778
 5387POPC   C3B69573  38.224  20.103   7.182
 5387POPC   C4B69574  38.469  20.390   7.433
 5388POPC   NC369575   1.289   3.779   5.408
 5388POPC   PO469576   0.934   3.198   5.466
 5388POPC   GL169577   1.159   3.356   5.850
 5388POPC   GL269578   1.356   3.659   5.875
 5388POPC   C1A69579   1.284   3.342   6.268
 5388POPC   D2A69580   1.499   3.338   6.605
 5388POPC   C3A69581   1.303   3.191   6.924
 5388POPC   C4A69582   1.298   3.379   7.304
 5388POPC   C1B69583   1.077   3.810   6.144
 5388POPC   C2B69584   1.286   3.837   6.516
 5388POPC   C3B69585   1.316   3.724   6.925
 5388POPC   C4B69586   1.155   3.870   7.329
 5389POPC   NC369587   2.885  38.078   5.278
 5389POPC   PO469588   2.969  37.436   5.370
 5389POPC   GL169589   2.679  37.678   5.621
 5389POPC   GL269590   2.578  37.375   5.785
 5389POPC   C1A69591   2.697  37.794   6.085
 5389POPC   D2A69592   2.999  37.645   6.401
 5389POPC   C3A69593   2.919  37.635   6.852
 5389POPC   C4A69594   2.787  37.869   7.216
 5389POPC   C1B69595   2.728  37.267   6.180
 5389POPC   C2B69596   2.785  37.168   6.612
 5389POPC   C3B69597   2.607  37.252   6.982
 5389POPC   C4B69598   2.857  37.359   7.300
 5390POPC   NC369599   1.667  16.173   5.435
 5390POPC   PO469600   1.134  15.658   5.413
 5390POPC   GL169601   1.428  15.689   5.728
 5390POPC   GL269602   1.306  16.024   5.759
 5390POPC   C1A69603   1.294  15.549   6.132
 5390POPC   D2A69604   1.356  15.721   6.536
 5390POPC   C3A69605   1.287  15.609   6.972
 5390POPC   C4A69606   1.124  15.881   7.266
 5390POPC   C1B69607   1.516  16.033   6.129
 5390POPC   C2B69608   1.430  16.209   6.513
 5390POPC   C3B69609   1.396  16.101   6.888
 5390POPC   C4B69610   1.589  16.092   7.210
 5391POPC   NC369611  17.896   6.827   5.814
 5391POPC   PO469612  17.310   6.551   5.720
 5391POPC   GL169613  17.540   6.460   6.055
 5391POPC   GL269614  17.747   6.239   5.930
 5391POPC   C1A69615  17.572   6.606   6.471
 5391POPC   D2A69616  17.266   6.857   6.709
 5391POPC   C3A69617  17.476   6.852   7.081
 5391POPC   C4A69618  17.468   6.610   7.417
 5391POPC   C1B69619  18.014   6.378   6.272
 5391POPC   C2B69620  17.966   6.236   6.682
 5391POPC   C3B69621  17.748   6.396   7.027
 5391POPC   C4B69622  18.002   6.631   7.329
 5392POPC   NC369623  33.488  26.671   5.551
 5392POPC   PO469624  32.800  26.981   5.514
 5392POPC   GL169625  33.051  26.879   5.849
 5392POPC   GL269626  32.761  26.720   5.993
 5392POPC   C1A69627  33.060  26.986   6.291
 5392POPC   D2A69628  32.770  26.768   6.552
 5392POPC   C3A69629  32.962  26.646   6.936
 5392POPC   C4A69630  33.327  26.857   7.006
 5392POPC   C1B69631  33.115  26.460   6.175
 5392POPC   C2B69632  33.106  26.270   6.583
 5392POPC   C3B69633  33.230  26.230   7.031
 5392POPC   C4B69634  32.974  26.308   7.431
 5393POPC   NC369635  38.605  16.096   5.202
 5393POPC   PO469636  38.285  15.742   5.587
 5393POPC   GL169637  38.297  15.747   5.987
 5393POPC   GL269638  38.425  16.082   5.968
 5393POPC   C1A69639  38.166  15.685   6.382
 5393POPC   D2A69640  38.179  15.915   6.721
 5393POPC   C3A69641  38.224  15.730   7.091
 5393POPC   C4A69642  38.284  15.928   7.469
 5393POPC   C1B69643  38.537  16.080   6.376
 5393POPC   C2B69644  38.683  15.902   6.754
 5393POPC   C3B69645  38.732  15.942   7.185
 5393POPC   C4B69646  38.722  16.191   7.549
 5394POPC   NC369647   2.574  33.548   5.132
 5394POPC   PO469648   3.038  33.901   5.430
 5394POPC   GL169649   2.667  33.736   5.629
 5394POPC   GL269650   2.568  33.999   5.849
 5394POPC   C1A69651   2.691  33.521   6.036
 5394POPC   D2A69652   2.733  33.698   6.456
 5394POPC   C3A69653   2.533  33.490   6.795
 5394POPC   C4A69654   2.669  33.641   7.189
 5394POPC   C1B69655   2.958  33.976   6.076
 5394POPC   C2B69656   3.198  34.007   6.457
 5394POPC   C3B69657   3.097  33.832   6.859
 5394POPC   C4B69658   3.030  34.038   7.250
 5395POPC   NC369659   7.558  40.725   5.325
 5395POPC   PO469660   6.854  40.880   5.190
 5395POPC   GL169661   7.103  40.788   5.667
 5395POPC   GL269662   7.081  41.017   5.891
 5395POPC   C1A69663   7.384  40.648   6.043
 5395POPC   D2A69664   7.370  40.673   6.483
 5395POPC   C3A69665   7.312  40.504   6.886
 5395POPC   C4A69666   7.669  40.521   7.122
 5395POPC   C1B69667   7.326  41.204   6.232
 5395POPC   C2B69668   7.625  41.106   6.557
 5395POPC   C3B69669   7.521  40.976   6.974
 5395POPC   C4B69670   7.245  40.919   7.358
 5396POPC   NC369671   6.382  11.107   5.205
 5396POPC   PO469672   6.912  11.253   5.560
 5396POPC   GL169673   6.606  11.304   5.860
 5396POPC   GL269674   6.298  11.180   5.730
 5396POPC   C1A69675   6.571  11.098   6.266
 5396POPC   D2A69676   6.623  11.130   6.710
 5396POPC   C3A69677   6.692  11.313   7.094
 5396POPC   C4A69678   6.721  11.246   7.544
 5396POPC   C1B69679   6.097  10.967   6.080
 5396POPC   C2B69680   5.972  10.871   6.511
 5396POPC   C3B69681   6.213  10.873   6.889
 5396POPC   C4B69682   6.284  11.052   7.294
 5397POPC   NC369683  31.898  29.473   5.374
 5397POPC   PO469684  31.459  28.940   5.286
 5397POPC   GL169685  31.393  29.135   5.713
 5397POPC   GL269686  31.725  29.200   5.764
 5397POPC   C1A69687  31.384  29.188   6.202
 5397POPC   D2A69688  31.235  29.265   6.678
 5397POPC   C3A69689  31.435  29.122   7.050
 5397POPC   C4A69690  31.331  29.114   7.488
 5397POPC   C1B69691  31.801  29.492   6.083
 5397POPC   C2B69692  31.604  29.556   6.475
 5397POPC   C3B69693  31.739  29.501   6.884
 5397POPC   C4B69694  31.753  29.424   7.305
 5398POPC   NC369695  14.633   6.717   5.445
 5398POPC   PO469696  13.934   6.622   5.399
 5398POPC   GL169697  14.272   6.435   5.724
 5398POPC   GL269698  14.620   6.272   5.753
 5398POPC   C1A69699  14.360   6.482   6.215
 5398POPC   D2A69700  14.359   6.695   6.673
 5398POPC   C3A69701  14.134   6.593   7.114
 5398POPC   C4A69702  14.169   6.835   7.537
 5398POPC   C1B69703  14.825   6.275   6.159
 5398POPC   C2B69704  14.640   6.221   6.591
 5398POPC   C3B69705  14.602   6.417   7.011
 5398POPC   C4B69706  14.588   6.827   7.181
 5399POPC   NC369707  25.438  13.657   4.909
 5399POPC   PO469708  25.088  13.435   5.434
 5399POPC   GL169709  25.076  13.618   5.851
 5399POPC   GL269710  25.398  13.684   5.841
 5399POPC   C1A69711  24.953  13.585   6.286
 5399POPC   D2A69712  24.935  13.356   6.696
 5399POPC   C3A69713  24.997  13.637   7.069
 5399POPC   C4A69714  24.928  13.762   7.520
 5399POPC   C1B69715  25.415  13.814   6.229
 5399POPC   C2B69716  25.345  13.666   6.636
 5399POPC   C3B69717  25.574  13.591   6.988
 5399POPC   C4B69718  25.614  13.843   7.348
 5400POPC   NC369719  29.287  24.870   5.663
 5400POPC   PO469720  28.827  25.384   5.415
 5400POPC   GL169721  28.879  25.167   5.795
 5400POPC   GL269722  29.172  25.326   5.916
 5400POPC   C1A69723  28.874  25.044   6.239
 5400POPC   D2A69724  28.897  24.890   6.659
 5400POPC   C3A69725  29.150  25.126   6.949
 5400POPC   C4A69726  29.109  25.292   7.355
 5400POPC   C1B69727  29.383  25.144   6.292
 5400POPC   C2B69728  29.549  25.339   6.686
 5400POPC   C3B69729  29.515  25.482   7.136
 5400POPC   C4B69730  29.495  25.541   7.636
 5401POPC   NC369731  24.235  32.149   5.647
 5401POPC   PO469732  23.531  32.268   5.407
 5401POPC   GL169733  23.750  32.280   5.774
 5401POPC   GL269734  23.751  31.918   5.791
 5401POPC   C1A69735  23.907  32.427   6.183
 5401POPC   D2A69736  24.078  32.300   6.599
 5401POPC   C3A69737  23.782  32.249   6.922
 5401POPC   C4A69738  23.631  32.390   7.306
 5401POPC   C1B69739  23.918  31.916   6.214
 5401POPC   C2B69740  24.172  31.784   6.563
 5401POPC   C3B69741  24.148  31.914   6.990
 5401POPC   C4B69742  23.888  31.889   7.361
 5402POPC   NC369743  35.647  27.090   5.422
 5402POPC   PO469744  34.931  26.923   5.433
 5402POPC   GL169745  35.158  27.095   5.784
 5402POPC   GL269746  35.409  26.874   5.802
 5402POPC   C1A69747  35.131  26.951   6.232
 5402POPC   D2A69748  35.372  26.912   6.637
 5402POPC   C3A69749  35.126  26.980   7.041
 5402POPC   C4A69750  34.938  26.669   7.309
 5402POPC   C1B69751  35.671  26.991   6.129
 5402POPC   C2B69752  35.804  26.711   6.443
 5402POPC   C3B69753  35.767  26.645   6.873
 5402POPC   C4B69754  35.626  26.969   7.147
 5403POPC   NC369755  40.555  33.717   5.532
 5403POPC   PO469756  41.194  33.633   5.612
 5403POPC   GL169757  40.937  33.932   5.865
 5403POPC   GL269758  40.615  33.767   6.033
 5403POPC   C1A69759  40.915  34.037   6.311
 5403POPC   D2A69760  40.665  33.815   6.660
 5403POPC   C3A69761  40.698  34.009   7.092
 5403POPC   C4A69762  41.017  34.255   7.301
 5403POPC   C1B69763  41.006  33.546   6.238
 5403POPC   C2B69764  41.168  33.694   6.625
 5403POPC   C3B69765  41.010  33.626   7.019
 5403POPC   C4B69766  40.715  33.519   7.336
 5404POPC   NC369767  30.058  25.024   5.420
 5404POPC   PO469768  29.418  25.288   5.459
 5404POPC   GL169769  29.706  25.273   5.829
 5404POPC   GL269770  30.085  25.239   5.869
 5404POPC   C1A69771  29.822  25.420   6.249
 5404POPC   D2A69772  30.057  25.183   6.578
 5404POPC   C3A69773  29.975  25.336   6.975
 5404POPC   C4A69774  29.946  25.438   7.414
 5404POPC   C1B69775  30.400  25.141   6.177
 5404POPC   C2B69776  30.588  25.259   6.581
 5404POPC   C3B69777  30.496  25.515   6.910
 5404POPC   C4B69778  30.402  25.215   7.199
 5405POPC   NC369779  28.876   3.114   5.486
 5405POPC   PO469780  29.332   3.633   5.632
 5405POPC   GL169781  29.118   3.798   5.981
 5405POPC   GL269782  28.789   3.905   5.872
 5405POPC   C1A69783  29.087   3.635   6.394
 5405POPC   D2A69784  29.171   3.242   6.547
 5405POPC   C3A69785  29.445   3.294   6.913
 5405POPC   C4A69786  29.441   3.600   7.211
 5405POPC   C1B69787  28.736   3.469   6.072
 5405POPC   C2B69788  28.595   3.443   6.497
 5405POPC   C3B69789  28.832   3.448   6.878
 5405POPC   C4B69790  28.971   3.442   7.301
 5406POPC   NC369791  13.225  14.377   5.312
 5406POPC   PO469792  12.561  14.067   5.391
 5406POPC   GL169793  12.817  14.301   5.702
 5406POPC   GL269794  13.120  14.449   5.804
 5406POPC   C1A69795  12.778  14.260   6.163
 5406POPC   D2A69796  12.507  14.229   6.535
 5406POPC   C3A69797  12.686  14.287   6.947
 5406POPC   C4A69798  12.589  14.318   7.363
 5406POPC   C1B69799  13.246  14.473   6.208
 5406POPC   C2B69800  13.034  14.404   6.591
 5406POPC   C3B69801  13.191  14.449   6.994
 5406POPC   C4B69802  13.093  14.242   7.341
 5407POPC   NC369803  40.193  32.785   5.535
 5407POPC   PO469804  39.712  33.133   5.130
 5407POPC   GL169805  39.792  33.162   5.611
 5407POPC   GL269806  40.091  33.165   5.863
 5407POPC   C1A69807  39.664  33.278   6.068
 5407POPC   D2A69808  39.996  33.129   6.390
 5407POPC   C3A69809  40.032  33.169   6.822
 5407POPC   C4A69810  40.110  33.060   7.232
 5407POPC   C1B69811  40.389  32.905   6.142
 5407POPC   C2B69812  40.465  32.880   6.583
 5407POPC   C3B69813  40.269  32.676   6.925
 5407POPC   C4B69814  40.435  32.618   7.350
 5408POPC   NC369815  12.231  40.076   5.376
 5408POPC   PO469816  11.654  40.512   5.374
 5408POPC   GL169817  11.828  40.305   5.752
 5408POPC   GL269818  12.194  40.341   5.809
 5408POPC   C1A69819  11.857  40.274   6.215
 5408POPC   D2A69820  12.122  40.431   6.571
 5408POPC   C3A69821  12.042  40.311   6.962
 5408POPC   C4A69822  11.839  40.016   7.206
 5408POPC   C1B69823  12.382  40.178   6.212
 5408POPC   C2B69824  12.420  40.036   6.697
 5408POPC   C3B69825  12.364  39.973   7.187
 5408POPC   C4B69826  12.534  40.089   7.613
 5409POPC   NC369827  33.184  27.252   5.511
 5409POPC   PO469828  32.827  27.767   5.457
 5409POPC   GL169829  32.981  27.592   5.853
 5409POPC   GL269830  32.780  27.318   5.928
 5409POPC   C1A69831  33.231  27.664   6.242
 5409POPC   D2A69832  33.105  27.743   6.675
 5409POPC   C3A69833  33.187  27.538   7.065
 5409POPC   C4A69834  32.870  27.533   7.394
 5409POPC   C1B69835  32.788  27.425   6.382
 5409POPC   C2B69836  32.926  27.217   6.755
 5409POPC   C3B69837  32.902  27.089   7.164
 5409POPC   C4B69838  32.754  27.085   7.576
 5410POPC   NC369839   2.389  19.976   5.573
 5410POPC   PO469840   1.767  19.680   5.434
 5410POPC   GL169841   2.012  19.698   5.791
 5410POPC   GL269842   1.922  20.031   5.817
 5410POPC   C1A69843   2.114  19.809   6.227
 5410POPC   D2A69844   1.842  19.849   6.557
 5410POPC   C3A69845   1.942  19.679   6.940
 5410POPC   C4A69846   1.931  19.572   7.353
 5410POPC   C1B69847   1.792  20.233   6.181
 5410POPC   C2B69848   1.869  20.410   6.589
 5410POPC   C3B69849   1.884  20.187   6.951
 5410POPC   C4B69850   2.223  20.003   7.190
 5411POPC   NC369851   3.394  33.849   5.136
 5411POPC   PO469852   4.006  34.088   5.257
 5411POPC   GL169853   3.661  34.080   5.619
 5411POPC   GL269854   3.469  33.777   5.697
 5411POPC   C1A69855   3.618  34.065   6.111
 5411POPC   D2A69856   3.822  34.056   6.539
 5411POPC   C3A69857   3.563  34.107   6.907
 5411POPC   C4A69858   3.526  33.965   7.324
 5411POPC   C1B69859   3.321  33.626   6.128
 5411POPC   C2B69860   3.508  33.623   6.558
 5411POPC   C3B69861   3.493  33.495   6.993
 5411POPC   C4B69862   3.174  33.544   7.299
 5412POPC   NC369863  14.065  30.184   5.433
 5412POPC   PO469864  14.667  29.832   5.372
 5412POPC   GL169865  14.464  29.812   5.778
 5412POPC   GL269866  14.382  30.117   5.833
 5412POPC   C1A69867  14.371  29.775   6.236
 5412POPC   D2A69868  14.577  29.700   6.635
 5412POPC   C3A69869  14.361  29.843   7.002
 5412POPC   C4A69870  14.189  29.983   7.388
 5412POPC   C1B69871  14.531  30.261   6.210
 5412POPC   C2B69872  14.421  30.216   6.630
 5412POPC   C3B69873  14.499  30.368   7.050
 5412POPC   C4B69874  14.666  30.141   7.375
 5413POPC   NC369875  32.123  41.138   5.365
 5413POPC   PO469876  32.137  40.455   5.359
 5413POPC   GL169877  32.404  40.615   5.696
 5413POPC   GL269878  32.200  40.882   5.838
 5413POPC   C1A69879  32.471  40.582   6.161
 5413POPC   D2A69880  32.270  40.516   6.567
 5413POPC   C3A69881  32.477  40.510   6.990
 5413POPC   C4A69882  32.499  40.649   7.448
 5413POPC   C1B69883  31.933  40.644   6.134
 5413POPC   C2B69884  31.789  40.660   6.576
 5413POPC   C3B69885  32.070  40.862   6.899
 5413POPC   C4B69886  32.110  40.960   7.326
 5414POPC   NC369887  39.535  29.372   5.449
 5414POPC   PO469888  39.628  28.638   5.314
 5414POPC   GL169889  39.536  28.892   5.731
 5414POPC   GL269890  39.200  28.809   5.917
 5414POPC   C1A69891  39.504  29.157   6.121
 5414POPC   D2A69892  39.348  29.309   6.527
 5414POPC   C3A69893  39.473  29.124   6.892
 5414POPC   C4A69894  39.395  29.262   7.305
 5414POPC   C1B69895  38.998  29.103   6.247
 5414POPC   C2B69896  38.909  29.111   6.728
 5414POPC   C3B69897  39.054  28.918   7.139
 5414POPC   C4B69898  38.837  28.844   7.581
 5415POPC   NC369899  25.765  19.073   5.475
 5415POPC   PO469900  26.377  18.965   5.362
 5415POPC   GL169901  26.161  18.908   5.765
 5415POPC   GL269902  25.851  18.663   5.808
 5415POPC   C1A69903  25.981  19.135   6.107
 5415POPC   D2A69904  25.832  19.026   6.466
 5415POPC   C3A69905  26.014  19.109   6.880
 5415POPC   C4A69906  26.306  18.960   7.208
 5415POPC   C1B69907  25.738  18.549   6.268
 5415POPC   C2B69908  25.958  18.601   6.709
 5415POPC   C3B69909  25.838  18.710   7.160
 5415POPC   C4B69910  25.686  18.675   7.621
 5416POPC   NC369911  25.228   9.357   5.465
 5416POPC   PO469912  25.123   8.701   5.517
 5416POPC   GL169913  25.183   8.987   5.876
 5416POPC   GL269914  25.498   9.162   5.887
 5416POPC   C1A69915  25.262   8.804   6.293
 5416POPC   D2A69916  25.399   8.519   6.646
 5416POPC   C3A69917  25.341   8.726   7.039
 5416POPC   C4A69918  25.151   8.795   7.469
 5416POPC   C1B69919  25.700   9.070   6.308
 5416POPC   C2B69920  25.517   9.136   6.731
 5416POPC   C3B69921  25.471   9.190   7.187
 5416POPC   C4B69922  25.496   9.163   7.651
 5417POPC   NC369923  19.414   5.191   5.346
 5417POPC   PO469924  19.881   4.915   5.734
 5417POPC   GL169925  19.729   5.303   5.922
 5417POPC   GL269926  19.407   5.248   5.867
 5417POPC   C1A69927  19.752   5.560   6.293
 5417POPC   D2A69928  19.607   5.457   6.689
 5417POPC   C3A69929  19.866   5.426   7.048
 5417POPC   C4A69930  20.054   5.343   7.440
 5417POPC   C1B69931  19.524   5.073   6.309
 5417POPC   C2B69932  19.560   4.944   6.750
 5417POPC   C3B69933  19.687   4.879   7.167
 5417POPC   C4B69934  19.543   4.668   7.546
 5418POPC   NC369935  28.342   6.029   5.351
 5418POPC   PO469936  28.353   5.489   5.817
 5418POPC   GL169937  28.488   5.911   5.827
 5418POPC   GL269938  28.173   6.075   5.831
 5418POPC   C1A69939  28.619   6.136   6.181
 5418POPC   D2A69940  28.636   5.868   6.556
 5418POPC   C3A69941  28.598   6.084   6.931
 5418POPC   C4A69942  28.298   6.061   7.250
 5418POPC   C1B69943  28.145   5.953   6.284
 5418POPC   C2B69944  28.127   5.914   6.721
 5418POPC   C3B69945  28.326   5.608   6.972
 5418POPC   C4B69946  28.191   5.578   7.390
 5419POPC   NC369947  23.655  38.452   5.403
 5419POPC   PO469948  24.264  38.326   5.264
 5419POPC   GL169949  24.040  38.428   5.737
 5419POPC   GL269950  23.765  38.215   5.845
 5419POPC   C1A69951  23.703  38.659   6.066
 5419POPC   D2A69952  23.493  38.576   6.498
 5419POPC   C3A69953  23.790  38.431   6.842
 5419POPC   C4A69954  24.086  38.585   7.136
 5419POPC   C1B69955  23.452  38.171   6.171
 5419POPC   C2B69956  23.537  38.055   6.607
 5419POPC   C3B69957  23.440  38.120   7.051
 5419POPC   C4B69958  23.340  38.276   7.453
 5420POPC   NC369959   7.737   2.936   5.679
 5420POPC   PO469960   7.248   2.599   5.252
 5420POPC   GL169961   7.244   2.698   5.733
 5420POPC   GL269962   7.225   3.018   5.920
 5420POPC   C1A69963   7.263   2.447   6.139
 5420POPC   D2A69964   7.300   2.419   6.602
 5420POPC   C3A69965   7.303   2.722   6.949
 5420POPC   C4A69966   7.336   2.538   7.357
 5420POPC   C1B69967   7.499   2.871   6.290
 5420POPC   C2B69968   7.753   2.751   6.637
 5420POPC   C3B69969   7.789   2.915   7.045
 5420POPC   C4B69970   7.587   2.954   7.427
 5421POPC   NC369971  10.677  31.841   5.415
 5421POPC   PO469972  10.347  31.197   5.457
 5421POPC   GL169973  10.323  31.428   5.852
 5421POPC   GL269974  10.584  31.692   5.909
 5421POPC   C1A69975  10.443  31.407   6.297
 5421POPC   D2A69976  10.519  31.581   6.683
 5421POPC   C3A69977  10.245  31.564   7.049
 5421POPC   C4A69978  10.242  31.479   7.532
 5421POPC   C1B69979  10.871  31.846   6.264
 5421POPC   C2B69980  10.995  31.849   6.722
 5421POPC   C3B69981  10.768  31.714   7.087
 5421POPC   C4B69982  10.640  31.330   7.287
 5422POPC   NC369983   5.829  31.009   5.325
 5422POPC   PO469984   5.703  30.363   5.500
 5422POPC   GL169985   5.824  30.685   5.762
 5422POPC   GL269986   5.520  30.911   5.755
 5422POPC   C1A69987   6.059  30.705   6.171
 5422POPC   D2A69988   6.110  30.923   6.583
 5422POPC   C3A69989   6.091  30.628   6.922
 5422POPC   C4A69990   5.941  30.564   7.345
 5422POPC   C1B69991   5.501  30.673   6.180
 5422POPC   C2B69992   5.643  30.687   6.654
 5422POPC   C3B69993   5.720  30.950   7.062
 5422POPC   C4B69994   5.736  30.993   7.540
 5423POPC   NC369995  27.367   2.791   5.103
 5423POPC   PO469996  28.115   2.827   5.117
 5423POPC   GL169997  27.830   2.775   5.668
 5423POPC   GL269998  27.527   2.711   5.748
 5423POPC   C1A69999  27.871   2.942   6.099
 5423POPC   D2A70000  27.907   2.737   6.509
 5423POPC   C3A70001  27.829   2.946   6.898
 5423POPC   C4A70002  27.574   2.824   7.252
 5423POPC   C1B70003  27.599   2.515   6.127
 5423POPC   C2B70004  27.421   2.533   6.537
 5423POPC   C3B70005  27.443   2.422   6.953
 5423POPC   C4B70006  27.056   2.494   7.144
 5424POPC   NC370007  34.876  33.391   5.389
 5424POPC   PO470008  35.412  33.030   5.526
 5424POPC   GL170009  35.325  33.100   5.922
 5424POPC   GL270010  35.029  33.268   5.846
 5424POPC   C1A70011  35.555  32.948   6.266
 5424POPC   D2A70012  35.810  32.952   6.619
 5424POPC   C3A70013  35.612  32.784   6.972
 5424POPC   C4A70014  35.419  32.946   7.323
 5424POPC   C1B70015  35.025  33.444   6.209
 5424POPC   C2B70016  35.216  33.233   6.561
 5424POPC   C3B70017  35.104  32.972   6.893
 5424POPC   C4B70018  34.935  33.128   7.256
 5425POPC   NC370019  26.579  23.118   5.324
 5425POPC   PO470020  25.999  22.822   5.282
 5425POPC   GL170021  25.982  22.679   5.705
 5425POPC   GL270022  26.233  22.822   5.910
 5425POPC   C1A70023  25.895  22.493   6.125
 5425POPC   D2A70024  25.724  22.652   6.547
 5425POPC   C3A70025  26.030  22.798   6.874
 5425POPC   C4A70026  25.958  23.017   7.304
 5425POPC   C1B70027  26.152  22.885   6.360
 5425POPC   C2B70028  26.223  23.221   6.660
 5425POPC   C3B70029  26.368  23.235   7.105
 5425POPC   C4B70030  26.264  23.382   7.539
 5426POPC   NC370031  10.651  14.357   5.320
 5426POPC   PO470032  10.000  14.390   5.274
 5426POPC   GL170033  10.200  14.424   5.710
 5426POPC   GL270034  10.563  14.537   5.790
 5426POPC   C1A70035  10.248  14.285   6.167
 5426POPC   D2A70036  10.466  14.531   6.480
 5426POPC   C3A70037  10.368  14.583   6.887
 5426POPC   C4A70038  10.221  14.227   7.113
 5426POPC   C1B70039  10.775  14.374   6.127
 5426POPC   C2B70040  10.990  14.436   6.511
 5426POPC   C3B70041  10.847  14.410   6.912
 5426POPC   C4B70042  10.698  14.645   7.248
 5427POPC   NC370043   2.992  18.180   5.302
 5427POPC   PO470044   2.545  18.637   5.342
 5427POPC   GL170045   2.790  18.427   5.715
 5427POPC   GL270046   2.558  18.136   5.834
 5427POPC   C1A70047   3.021  18.098   5.999
 5427POPC   D2A70048   2.871  17.947   6.440
 5427POPC   C3A70049   2.914  18.211   6.806
 5427POPC   C4A70050   2.658  18.323   7.170
 5427POPC   C1B70051   2.694  18.397   6.237
 5427POPC   C2B70052   2.571  18.559   6.652
 5427POPC   C3B70053   2.858  18.737   6.935
 5427POPC   C4B70054   2.962  18.725   7.362
 5428POPC   NC370055  30.214  18.268   5.491
 5428POPC   PO470056  29.553  18.446   5.466
 5428POPC   GL170057  29.777  18.270   5.780
 5428POPC   GL270058  29.783  17.928   5.747
 5428POPC   C1A70059  29.777  18.234   6.212
 5428POPC   D2A70060  29.654  18.367   6.622
 5428POPC   C3A70061  29.922  18.333   6.972
 5428POPC   C4A70062  30.192  18.506   7.300
 5428POPC   C1B70063  29.676  17.730   6.150
 5428POPC   C2B70064  29.787  17.872   6.581
 5428POPC   C3B70065  30.114  17.844   6.903
 5428POPC   C4B70066  30.055  17.985   7.314
 5429POPC   NC370067  13.588  28.856   5.418
 5429POPC   PO470068  13.997  29.367   5.570
 5429POPC   GL170069  13.706  29.140   5.899
 5429POPC   GL270070  13.464  28.863   5.913
 5429POPC   C1A70071  13.395  29.308   6.201
 5429POPC   D2A70072  13.545  29.359   6.571
 5429POPC   C3A70073  13.345  29.360   6.940
 5429POPC   C4A70074  13.664  29.332   7.209
 5429POPC   C1B70075  13.615  28.884   6.370
 5429POPC   C2B70076  13.480  28.890   6.806
 5429POPC   C3B70077  13.496  28.861   7.280
 5429POPC   C4B70078  13.487  28.783   7.741
 5430POPC   NC370079   5.150  39.679   5.577
 5430POPC   PO470080   4.994  40.271   5.547
 5430POPC   GL170081   4.876  40.026   5.930
 5430POPC   GL270082   4.739  39.693   5.893
 5430POPC   C1A70083   5.107  39.981   6.328
 5430POPC   D2A70084   5.247  39.949   6.750
 5430POPC   C3A70085   5.185  40.264   7.068
 5430POPC   C4A70086   5.071  40.272   7.513
 5430POPC   C1B70087   4.849  39.545   6.298
 5430POPC   C2B70088   4.806  39.639   6.741
 5430POPC   C3B70089   4.907  39.845   7.137
 5430POPC   C4B70090   5.277  39.820   7.460
 5431POPC   NC370091  15.363  10.280   5.260
 5431POPC   PO470092  15.071  10.948   5.415
 5431POPC   GL170093  15.159  10.707   5.788
 5431POPC   GL270094  15.361  10.402   5.767
 5431POPC   C1A70095  15.091  10.555   6.214
 5431POPC   D2A70096  15.243  10.432   6.622
 5431POPC   C3A70097  15.162  10.658   6.990
 5431POPC   C4A70098  14.991  10.626   7.359
 5431POPC   C1B70099  15.569  10.359   6.179
 5431POPC   C2B70100  15.738  10.311   6.608
 5431POPC   C3B70101  15.558  10.329   7.035
 5431POPC   C4B70102  15.441  10.438   7.471
 5432POPC   NC370103   7.021  23.903   5.510
 5432POPC   PO470104   7.533  23.498   5.322
 5432POPC   GL170105   7.655  23.698   5.774
 5432POPC   GL270106   7.332  23.733   5.905
 5432POPC   C1A70107   7.662  23.965   6.179
 5432POPC   D2A70108   7.534  23.824   6.594
 5432POPC   C3A70109   7.486  23.901   7.055
 5432POPC   C4A70110   7.691  23.549   7.326
 5432POPC   C1B70111   7.185  23.561   6.310
 5432POPC   C2B70112   7.085  23.645   6.746
 5432POPC   C3B70113   7.162  23.536   7.129
 5432POPC   C4B70114   6.920  23.565   7.429
 5433POPC   NC370115  29.484  27.312   5.407
 5433POPC   PO470116  29.345  27.913   5.159
 5433POPC   GL170117  29.092  27.608   5.568
 5433POPC   GL270118  29.328  27.465   5.844
 5433POPC   C1A70119  28.898  27.480   6.053
 5433POPC   D2A70120  29.047  27.494   6.504
 5433POPC   C3A70121  28.921  27.305   6.900
 5433POPC   C4A70122  28.948  27.573   7.256
 5433POPC   C1B70123  29.338  27.774   6.159
 5433POPC   C2B70124  29.438  27.872   6.563
 5433POPC   C3B70125  29.400  27.591   6.920
 5433POPC   C4B70126  29.399  27.814   7.298
 5434POPC   NC370127   9.581  16.745   5.322
 5434POPC   PO470128  10.168  16.877   5.512
 5434POPC   GL170129   9.897  16.566   5.758
 5434POPC   GL270130   9.526  16.581   5.842
 5434POPC   C1A70131   9.878  16.478   6.212
 5434POPC   D2A70132  10.074  16.785   6.466
 5434POPC   C3A70133   9.962  16.826   6.872
 5434POPC   C4A70134   9.792  16.752   7.261
 5434POPC   C1B70135   9.361  16.698   6.268
 5434POPC   C2B70136   9.272  16.756   6.739
 5434POPC   C3B70137   9.294  16.721   7.213
 5434POPC   C4B70138   9.427  16.864   7.637
 5435POPC   NC370139  38.667  33.116   5.422
 5435POPC   PO470140  38.090  33.316   5.483
 5435POPC   GL170141  38.326  33.105   5.831
 5435POPC   GL270142  38.701  33.101   5.924
 5435POPC   C1A70143  38.344  33.013   6.287
 5435POPC   D2A70144  38.396  33.109   6.698
 5435POPC   C3A70145  38.223  32.998   7.068
 5435POPC   C4A70146  38.271  33.268   7.413
 5435POPC   C1B70147  38.728  32.697   6.186
 5435POPC   C2B70148  38.526  32.614   6.597
 5435POPC   C3B70149  38.683  32.776   6.970
 5435POPC   C4B70150  38.651  32.918   7.379
 5436POPC   NC370151  24.603   2.981   5.620
 5436POPC   PO470152  24.969   2.510   5.492
 5436POPC   GL170153  24.693   2.524   5.852
 5436POPC   GL270154  24.347   2.529   5.692
 5436POPC   C1A70155  24.713   2.636   6.299
 5436POPC   D2A70156  24.788   2.878   6.677
 5436POPC   C3A70157  24.486   2.824   6.997
 5436POPC   C4A70158  24.618   2.944   7.381
 5436POPC   C1B70159  24.186   2.547   6.120
 5436POPC   C2B70160  24.279   2.452   6.559
 5436POPC   C3B70161  24.671   2.390   6.802
 5436POPC   C4B70162  24.935   2.604   7.122
 5437POPC   NC370163  29.824  40.182   5.655
 5437POPC   PO470164  30.330  40.584   5.555
 5437POPC   GL170165  30.088  40.630   5.907
 5437POPC   GL270166  29.740  40.667   5.839
 5437POPC   C1A70167  29.998  40.910   6.249
 5437POPC   D2A70168  29.953  40.767   6.659
 5437POPC   C3A70169  30.012  41.052   6.967
 5437POPC   C4A70170  30.318  41.043   7.290
 5437POPC   C1B70171  29.688  40.500   6.273
 5437POPC   C2B70172  29.617  40.403   6.727
 5437POPC   C3B70173  29.800  40.553   7.139
 5437POPC   C4B70174  29.852  40.449   7.616
 5438POPC   NC370175  31.882  14.387   5.551
 5438POPC   PO470176  32.501  14.641   5.629
 5438POPC   GL170177  32.285  14.337   5.879
 5438POPC   GL270178  31.983  14.101   5.958
 5438POPC   C1A70179  32.070  14.537   6.208
 5438POPC   D2A70180  31.964  14.389   6.565
 5438POPC   C3A70181  32.056  14.598   6.905
 5438POPC   C4A70182  32.093  14.314   7.230
 5438POPC   C1B70183  32.256  14.052   6.323
 5438POPC   C2B70184  32.601  13.953   6.595
 5438POPC   C3B70185  32.603  14.089   7.011
 5438POPC   C4B70186  32.492  14.057   7.447
 5439POPC   NC370187  16.549   9.379   5.642
 5439POPC   PO470188  16.734   8.760   5.353
 5439POPC   GL170189  16.767   8.959   5.787
 5439POPC   GL270190  16.987   9.223   5.937
 5439POPC   C1A70191  16.577   8.987   6.206
 5439POPC   D2A70192  16.715   8.799   6.577
 5439POPC   C3A70193  16.844   9.074   6.858
 5439POPC   C4A70194  16.735   8.948   7.256
 5439POPC   C1B70195  17.241   9.299   6.353
 5439POPC   C2B70196  17.351   9.281   6.829
 5439POPC   C3B70197  17.126   9.311   7.224
 5439POPC   C4B70198  16.954   9.575   7.552
 5440POPC   NC370199  33.146   2.362   5.314
 5440POPC   PO470200  32.588   2.816   5.203
 5440POPC   GL170201  32.893   2.641   5.630
 5440POPC   GL270202  32.827   2.383   5.788
 5440POPC   C1A70203  32.910   2.723   6.144
 5440POPC   D2A70204  33.130   2.717   6.539
 5440POPC   C3A70205  32.926   2.774   6.911
 5440POPC   C4A70206  33.110   2.859   7.246
 5440POPC   C1B70207  32.957   2.227   6.221
 5440POPC   C2B70208  32.995   2.221   6.663
 5440POPC   C3B70209  33.134   2.357   7.081
 5440POPC   C4B70210  32.846   2.471   7.412
 5441POPC   NC370211  25.535  14.870   5.475
 5441POPC   PO470212  24.877  15.201   5.438
 5441POPC   GL170213  25.186  15.136   5.768
 5441POPC   GL270214  25.110  14.823   5.954
 5441POPC   C1A70215  25.390  15.245   6.180
 5441POPC   D2A70216  25.517  15.155   6.630
 5441POPC   C3A70217  25.208  15.207   6.973
 5441POPC   C4A70218  25.041  15.647   6.998
 5441POPC   C1B70219  25.538  14.753   6.141
 5441POPC   C2B70220  25.728  14.699   6.560
 5441POPC   C3B70221  25.566  14.776   6.979
 5441POPC   C4B70222  25.548  15.041   7.363
 5442POPC   NC370223  29.427  39.711   5.445
 5442POPC   PO470224  29.378  39.095   5.468
 5442POPC   GL170225  29.333  39.355   5.842
 5442POPC   GL270226  29.052  39.597   5.800
 5442POPC   C1A70227  29.448  39.197   6.283
 5442POPC   D2A70228  29.457  39.414   6.671
 5442POPC   C3A70229  29.393  39.172   7.013
 5442POPC   C4A70230  29.258  39.250   7.391
 5442POPC   C1B70231  28.995  39.424   6.253
 5442POPC   C2B70232  28.991  39.173   6.667
 5442POPC   C3B70233  28.867  39.071   7.115
 5442POPC   C4B70234  28.758  39.371   7.479
 5443POPC   NC370235  37.266  43.551   5.479
 5443POPC   PO470236  36.898  44.100   5.371
 5443POPC   GL170237  37.044  43.900   5.802
 5443POPC   GL270238  36.898  43.568   5.818
 5443POPC   C1A70239  37.131  43.842   6.287
 5443POPC   D2A70240  37.286  43.823   6.733
 5443POPC   C3A70241  37.048  43.861   7.054
 5443POPC   C4A70242  36.713  44.038   7.190
 5443POPC   C1B70243  36.782  43.453   6.210
 5443POPC   C2B70244  36.771  43.617   6.629
 5443POPC   C3B70245  36.796  43.424   7.006
 5443POPC   C4B70246  36.603  43.365   7.373
 5444POPC   NC370247  17.531  22.616   5.200
 5444POPC   PO470248  18.184  22.941   5.266
 5444POPC   GL170249  18.201  22.921   5.742
 5444POPC   GL270250  18.244  23.257   5.868
 5444POPC   C1A70251  18.247  22.758   6.202
 5444POPC   D2A70252  18.516  22.704   6.605
 5444POPC   C3A70253  18.301  22.678   7.019
 5444POPC   C4A70254  18.494  22.629   7.410
 5444POPC   C1B70255  18.581  23.148   6.185
 5444POPC   C2B70256  18.671  23.231   6.634
 5444POPC   C3B70257  18.347  23.190   6.957
 5444POPC   C4B70258  17.922  23.276   7.106
 5445POPC   NC370259   9.210  44.238   5.451
 5445POPC   PO470260   8.974  43.598   5.407
 5445POPC   GL170261   9.025  43.871   5.748
 5445POPC   GL270262   8.753  44.029   5.865
 5445POPC   C1A70263   9.108  43.843   6.172
 5445POPC   D2A70264   8.877  43.574   6.444
 5445POPC   C3A70265   8.858  43.808   6.807
 5445POPC   C4A70266   9.048  43.765   7.180
 5445POPC   C1B70267   8.597  43.983   6.238
 5445POPC   C2B70268   8.569  44.177   6.605
 5445POPC   C3B70269   8.507  44.226   7.037
 5445POPC   C4B70270   8.348  44.049   7.393
 5446POPC   NC370271  14.948  22.216   5.432
 5446POPC   PO470272  15.589  21.890   5.381
 5446POPC   GL170273  15.335  21.996   5.786
 5446POPC   GL270274  14.976  21.847   5.793
 5446POPC   C1A70275  15.385  22.207   6.225
 5446POPC   D2A70276  15.100  22.417   6.550
 5446POPC   C3A70277  15.263  22.365   6.968
 5446POPC   C4A70278  15.547  22.022   7.113
 5446POPC   C1B70279  14.876  22.117   6.150
 5446POPC   C2B70280  14.747  22.032   6.572
 5446POPC   C3B70281  14.839  22.044   7.021
 5446POPC   C4B70282  14.650  22.145   7.419
 5447POPC   NC370283  39.880  27.017   5.393
 5447POPC   PO470284  39.771  26.348   5.503
 5447POPC   GL170285  39.805  26.673   5.800
 5447POPC   GL270286  40.137  26.735   5.755
 5447POPC   C1A70287  39.932  26.730   6.229
 5447POPC   D2A70288  40.175  26.654   6.599
 5447POPC   C3A70289  39.948  26.679   6.996
 5447POPC   C4A70290  39.931  26.570   7.443
 5447POPC   C1B70291  40.239  27.106   6.010
 5447POPC   C2B70292  40.119  27.165   6.421
 5447POPC   C3B70293  40.161  27.119   6.834
 5447POPC   C4B70294  40.355  27.124   7.221
 5448POPC   NC370295  24.310  37.009   5.481
 5448POPC   PO470296  23.556  37.095   5.447
 5448POPC   GL170297  23.851  36.870   5.728
 5448POPC   GL270298  23.714  36.595   5.887
 5448POPC   C1A70299  24.000  36.933   6.158
 5448POPC   D2A70300  23.943  37.038   6.583
 5448POPC   C3A70301  23.972  36.867   6.981
 5448POPC   C4A70302  23.792  36.879   7.401
 5448POPC   C1B70303  23.542  36.727   6.270
 5448POPC   C2B70304  23.676  36.592   6.663
 5448POPC   C3B70305  23.466  36.792   6.981
 5448POPC   C4B70306  23.275  36.823   7.340
 5449POPC   NC370307   8.873  43.150   5.358
 5449POPC   PO470308   9.373  42.802   5.569
 5449POPC   GL170309   9.045  42.957   5.824
 5449POPC   GL270310   8.987  43.323   5.872
 5449POPC   C1A70311   9.193  42.923   6.238
 5449POPC   D2A70312   9.181  43.080   6.649
 5449POPC   C3A70313   9.272  42.831   7.010
 5449POPC   C4A70314   9.146  42.962   7.416
 5449POPC   C1B70315   8.719  43.128   6.203
 5449POPC   C2B70316   8.660  43.143   6.650
 5449POPC   C3B70317   8.862  43.327   6.979
 5449POPC   C4B70318   8.871  43.368   7.442
 5450POPC   NC370319   2.501  29.102   5.531
 5450POPC   PO470320   1.964  29.434   5.197
 5450POPC   GL170321   2.037  29.293   5.667
 5450POPC   GL270322   2.070  28.938   5.828
 5450POPC   C1A70323   2.233  29.369   6.109
 5450POPC   D2A70324   2.035  29.284   6.532
 5450POPC   C3A70325   2.215  29.328   6.954
 5450POPC   C4A70326   1.958  29.321   7.339
 5450POPC   C1B70327   2.269  28.874   6.260
 5450POPC   C2B70328   2.238  28.849   6.721
 5450POPC   C3B70329   1.938  28.902   7.045
 5450POPC   C4B70330   1.952  28.842   7.495
 5451POPC   NC370331  22.115  40.651   5.441
 5451POPC   PO470332  21.846  41.273   5.433
 5451POPC   GL170333  22.090  41.072   5.820
 5451POPC   GL270334  22.335  40.796   5.852
 5451POPC   C1A70335  22.295  41.103   6.248
 5451POPC   D2A70336  22.071  41.034   6.626
 5451POPC   C3A70337  22.071  40.710   6.916
 5451POPC   C4A70338  22.021  40.860   7.311
 5451POPC   C1B70339  22.444  40.610   6.240
 5451POPC   C2B70340  22.500  40.739   6.644
 5451POPC   C3B70341  22.466  41.042   6.988
 5451POPC   C4B70342  22.659  40.943   7.373
 5452POPC   NC370343  23.795  35.340   5.333
 5452POPC   PO470344  23.169  35.459   5.530
 5452POPC   GL170345  23.536  35.513   5.768
 5452POPC   GL270346  23.755  35.195   5.846
 5452POPC   C1A70347  23.575  35.495   6.211
 5452POPC   D2A70348  23.894  35.356   6.492
 5452POPC   C3A70349  23.743  35.529   6.870
 5452POPC   C4A70350  23.744  35.375   7.277
 5452POPC   C1B70351  23.562  34.980   6.226
 5452POPC   C2B70352  23.385  34.952   6.628
 5452POPC   C3B70353  23.452  35.016   7.049
 5452POPC   C4B70354  23.320  34.940   7.481
 5453POPC   NC370355  10.676  19.338   5.108
 5453POPC   PO470356  10.330  18.938   5.661
 5453POPC   GL170357  10.387  19.176   5.970
 5453POPC   GL270358  10.188  19.461   5.857
 5453POPC   C1A70359  10.718  19.022   6.216
 5453POPC   D2A70360  10.856  18.680   6.461
 5453POPC   C3A70361  10.701  18.770   6.848
 5453POPC   C4A70362  10.615  18.944   7.233
 5453POPC   C1B70363  10.204  19.543   6.277
 5453POPC   C2B70364  10.334  19.199   6.512
 5453POPC   C3B70365  10.266  19.085   6.901
 5453POPC   C4B70366  10.236  19.316   7.273
 5454POPC   NC370367  29.414  12.677   5.573
 5454POPC   PO470368  29.056  13.247   5.448
 5454POPC   GL170369  29.095  13.043   5.859
 5454POPC   GL270370  29.014  12.658   5.894
 5454POPC   C1A70371  29.110  13.231   6.278
 5454POPC   D2A70372  29.179  13.061   6.696
 5454POPC   C3A70373  28.811  13.020   6.933
 5454POPC   C4A70374  28.760  13.135   7.347
 5454POPC   C1B70375  29.233  12.725   6.290
 5454POPC   C2B70376  29.537  12.692   6.640
 5454POPC   C3B70377  29.383  12.739   7.054
 5454POPC   C4B70378  28.995  12.648   7.242
 5455POPC   NC370379  10.454  21.149   5.541
 5455POPC   PO470380  10.112  21.796   5.484
 5455POPC   GL170381  10.238  21.548   5.838
 5455POPC   GL270382   9.955  21.304   5.839
 5455POPC   C1A70383  10.562  21.565   6.212
 5455POPC   D2A70384  10.769  21.663   6.644
 5455POPC   C3A70385  10.549  21.530   7.064
 5455POPC   C4A70386  10.469  21.479   7.540
 5455POPC   C1B70387  10.095  21.301   6.269
 5455POPC   C2B70388  10.256  20.997   6.557
 5455POPC   C3B70389  10.096  20.987   6.979
 5455POPC   C4B70390  10.080  21.328   7.252
 5456POPC   NC370391  31.524  35.260   5.138
 5456POPC   PO470392  31.912  35.500   5.625
 5456POPC   GL170393  31.565  35.547   5.854
 5456POPC   GL270394  31.460  35.245   5.788
 5456POPC   C1A70395  31.507  35.569   6.296
 5456POPC   D2A70396  31.825  35.424   6.590
 5456POPC   C3A70397  31.637  35.393   6.989
 5456POPC   C4A70398  31.225  35.552   7.120
 5456POPC   C1B70399  31.556  35.066   6.202
 5456POPC   C2B70400  31.371  35.134   6.608
 5456POPC   C3B70401  31.437  34.936   6.987
 5456POPC   C4B70402  31.485  35.063   7.367
 5457POPC   NC370403  29.320  14.569   5.555
 5457POPC   PO470404  28.740  14.288   5.441
 5457POPC   GL170405  29.005  14.201   5.821
 5457POPC   GL270406  29.098  14.542   6.002
 5457POPC   C1A70407  28.893  14.216   6.297
 5457POPC   D2A70408  29.136  14.515   6.551
 5457POPC   C3A70409  29.276  14.373   6.948
 5457POPC   C4A70410  29.100  14.135   7.281
 5457POPC   C1B70411  29.517  14.545   6.195
 5457POPC   C2B70412  29.666  14.668   6.604
 5457POPC   C3B70413  29.606  14.759   7.023
 5457POPC   C4B70414  29.539  14.500   7.372
 5458POPC   NC370415  13.256  27.128   5.371
 5458POPC   PO470416  13.794  26.728   5.501
 5458POPC   GL170417  13.807  26.756   5.942
 5458POPC   GL270418  13.457  26.731   6.009
 5458POPC   C1A70419  13.738  26.583   6.385
 5458POPC   D2A70420  13.807  26.660   6.789
 5458POPC   C3A70421  13.503  26.726   7.059
 5458POPC   C4A70422  13.364  26.554   7.409
 5458POPC   C1B70423  13.613  27.084   6.299
 5458POPC   C2B70424  13.631  27.122   6.746
 5458POPC   C3B70425  13.669  27.174   7.200
 5458POPC   C4B70426  13.296  27.072   7.404
 5459POPC   NC370427   1.795  20.910   5.265
 5459POPC   PO470428   2.152  20.364   5.499
 5459POPC   GL170429   1.895  20.563   5.807
 5459POPC   GL270430   1.790  20.912   5.778
 5459POPC   C1A70431   2.043  20.715   6.208
 5459POPC   D2A70432   2.265  20.844   6.579
 5459POPC   C3A70433   2.279  20.544   6.946
 5459POPC   C4A70434   2.057  20.460   7.338
 5459POPC   C1B70435   1.672  21.065   6.180
 5459POPC   C2B70436   1.735  20.911   6.622
 5459POPC   C3B70437   1.800  20.789   7.052
 5459POPC   C4B70438   1.719  20.747   7.565
 5460POPC   NC370439   4.512  17.209   5.247
 5460POPC   PO470440   4.104  16.631   5.311
 5460POPC   GL170441   4.283  16.453   5.711
 5460POPC   GL270442   4.477  16.142   5.679
 5460POPC   C1A70443   4.230  16.667   6.123
 5460POPC   D2A70444   4.085  16.911   6.485
 5460POPC   C3A70445   4.325  16.880   6.853
 5460POPC   C4A70446   4.135  16.913   7.248
 5460POPC   C1B70447   4.660  16.265   6.059
 5460POPC   C2B70448   4.641  16.523   6.400
 5460POPC   C3B70449   4.633  16.470   6.857
 5460POPC   C4B70450   4.434  16.512   7.240
 5461POPC   NC370451   9.137  44.869   5.531
 5461POPC   PO470452   8.769  44.319   5.450
 5461POPC   GL170453   8.900  44.509   5.815
 5461POPC   GL270454   9.199  44.362   5.950
 5461POPC   C1A70455   8.747  44.548   6.231
 5461POPC   D2A70456   8.753  44.941   6.450
 5461POPC   C3A70457   8.815  44.989   6.905
 5461POPC   C4A70458   8.798  44.738   7.282
 5461POPC   C1B70459   9.200  44.776   6.178
 5461POPC   C2B70460   9.237  44.948   6.603
 5461POPC   C3B70461   9.291  44.786   7.015
 5461POPC   C4B70462   9.288  44.984   7.393
 5462POPC   NC370463  32.813  32.274   5.272
 5462POPC   PO470464  33.350  32.542   5.424
 5462POPC   GL170465  33.092  32.416   5.734
 5462POPC   GL270466  33.060  32.065   5.687
 5462POPC   C1A70467  32.902  32.588   6.087
 5462POPC   D2A70468  32.940  32.324   6.457
 5462POPC   C3A70469  33.018  32.424   6.899
 5462POPC   C4A70470  32.772  32.188   7.180
 5462POPC   C1B70471  33.297  31.992   6.094
 5462POPC   C2B70472  33.141  31.802   6.473
 5462POPC   C3B70473  33.052  31.882   6.875
 5462POPC   C4B70474  33.185  31.851   7.279
 5463POPC   NC370475   3.610  23.424   5.218
 5463POPC   PO470476   3.144  23.902   5.337
 5463POPC   GL170477   3.473  23.647   5.649
 5463POPC   GL270478   3.300  23.330   5.738
 5463POPC   C1A70479   3.653  23.524   6.083
 5463POPC   D2A70480   3.498  23.614   6.523
 5463POPC   C3A70481   3.663  23.642   6.954
 5463POPC   C4A70482   3.749  24.027   7.217
 5463POPC   C1B70483   3.156  23.463   6.160
 5463POPC   C2B70484   3.053  23.337   6.552
 5463POPC   C3B70485   3.155  23.487   6.944
 5463POPC   C4B70486   3.267  23.769   7.259
 5464POPC   NC370487  10.222  13.715   5.479
 5464POPC   PO470488  10.884  13.958   5.451
 5464POPC   GL170489  10.862  13.784   5.881
 5464POPC   GL270490  10.638  13.478   5.885
 5464POPC   C1A70491  10.631  13.873   6.264
 5464POPC   D2A70492  10.389  14.006   6.626
 5464POPC   C3A70493  10.624  13.921   6.980
 5464POPC   C4A70494  10.695  14.132   7.332
 5464POPC   C1B70495  10.442  13.373   6.315
 5464POPC   C2B70496  10.435  13.471   6.777
 5464POPC   C3B70497  10.487  13.487   7.234
 5464POPC   C4B70498  10.320  13.294   7.613
 5465POPC   NC370499  43.228  27.207   5.379
 5465POPC   PO470500  42.929  26.648   5.573
 5465POPC   GL170501  42.964  27.039   5.837
 5465POPC   GL270502  43.328  26.998   5.825
 5465POPC   C1A70503  42.909  27.056   6.305
 5465POPC   D2A70504  42.983  26.750   6.617
 5465POPC   C3A70505  43.117  26.844   7.041
 5465POPC   C4A70506  42.774  26.882   7.309
 5465POPC   C1B70507  43.381  27.212   6.176
 5465POPC   C2B70508  43.352  27.096   6.592
 5465POPC   C3B70509  43.439  27.231   6.964
 5465POPC   C4B70510  43.469  27.091   7.398
 5466POPC   NC370511  21.727  13.996   5.495
 5466POPC   PO470512  21.133  13.761   5.546
 5466POPC   GL170513  21.440  13.724   5.924
 5466POPC   GL270514  21.776  13.851   5.986
 5466POPC   C1A70515  21.397  13.506   6.334
 5466POPC   D2A70516  21.285  13.414   6.776
 5466POPC   C3A70517  21.226  13.760   7.075
 5466POPC   C4A70518  21.156  13.812   7.553
 5466POPC   C1B70519  21.898  13.497   6.270
 5466POPC   C2B70520  21.781  13.518   6.688
 5466POPC   C3B70521  21.689  13.445   7.115
 5466POPC   C4B70522  21.620  13.759   7.389
 5467POPC   NC370523   0.854  25.629   5.200
 5467POPC   PO470524   0.254  25.666   5.481
 5467POPC   GL170525   0.489  25.542   5.848
 5467POPC   GL270526   0.303  25.829   5.981
 5467POPC   C1A70527   0.571  25.251   6.179
 5467POPC   D2A70528   0.754  25.107   6.552
 5467POPC   C3A70529   0.595  25.263   6.925
 5467POPC   C4A70530   0.467  25.110   7.307
 5467POPC   C1B70531   0.327  25.659   6.365
 5467POPC   C2B70532   0.319  25.668   6.804
 5467POPC   C3B70533   0.263  25.715   7.213
 5467POPC   C4B70534   0.219  25.513   7.582
 5468POPC   NC370535   3.750  25.224   5.380
 5468POPC   PO470536   3.343  24.750   5.194
 5468POPC   GL170537   3.369  24.961   5.695
 5468POPC   GL270538   3.481  25.323   5.822
 5468POPC   C1A70539   3.405  24.955   6.174
 5468POPC   D2A70540   3.680  25.155   6.508
 5468POPC   C3A70541   3.625  24.992   6.957
 5468POPC   C4A70542   3.638  25.146   7.404
 5468POPC   C1B70543   3.430  25.603   6.205
 5468POPC   C2B70544   3.292  25.473   6.595
 5468POPC   C3B70545   3.522  25.472   6.967
 5468POPC   C4B70546   3.470  25.647   7.340
 5469POPC   NC370547   1.431  12.229   5.450
 5469POPC   PO470548   0.778  12.111   5.344
 5469POPC   GL170549   1.063  11.975   5.715
 5469POPC   GL270550   1.376  11.789   5.732
 5469POPC   C1A70551   1.251  12.257   6.077
 5469POPC   D2A70552   1.046  12.352   6.470
 5469POPC   C3A70553   1.078  12.258   6.903
 5469POPC   C4A70554   1.378  12.308   7.229
 5469POPC   C1B70555   1.232  11.778   6.189
 5469POPC   C2B70556   1.392  11.967   6.580
 5469POPC   C3B70557   1.316  11.822   7.019
 5469POPC   C4B70558   0.912  11.745   7.237
 5470POPC   NC370559   5.332   6.061   5.591
 5470POPC   PO470560   5.994   6.150   5.332
 5470POPC   GL170561   5.942   6.015   5.787
 5470POPC   GL270562   5.806   5.672   5.790
 5470POPC   C1A70563   5.958   6.101   6.261
 5470POPC   D2A70564   6.199   5.969   6.648
 5470POPC   C3A70565   6.114   6.063   7.071
 5470POPC   C4A70566   6.069   5.691   7.308
 5470POPC   C1B70567   5.573   5.758   6.196
 5470POPC   C2B70568   5.665   5.873   6.660
 5470POPC   C3B70569   5.613   5.845   7.128
 5470POPC   C4B70570   5.740   5.990   7.550
 5471POPC   NC370571  11.096  24.302   5.336
 5471POPC   PO470572  11.328  24.892   5.270
 5471POPC   GL170573  11.295  24.655   5.692
 5471POPC   GL270574  11.157  24.319   5.830
 5471POPC   C1A70575  11.261  24.730   6.133
 5471POPC   D2A70576  10.976  24.675   6.470
 5471POPC   C3A70577  11.088  24.552   6.907
 5471POPC   C4A70578  11.205  24.686   7.333
 5471POPC   C1B70579  11.363  24.236   6.221
 5471POPC   C2B70580  11.498  24.138   6.628
 5471POPC   C3B70581  11.256  24.069   6.968
 5471POPC   C4B70582  11.092  24.206   7.318
 5472POPC   NC370583  16.393   1.119   5.379
 5472POPC   PO470584  15.700   1.448   5.404
 5472POPC   GL170585  15.738   1.162   5.773
 5472POPC   GL270586  16.082   1.008   5.776
 5472POPC   C1A70587  15.886   1.222   6.216
 5472POPC   D2A70588  15.896   1.455   6.609
 5472POPC   C3A70589  15.928   1.247   6.994
 5472POPC   C4A70590  15.836   1.371   7.392
 5472POPC   C1B70591  16.188   0.774   6.166
 5472POPC   C2B70592  16.100   0.891   6.602
 5472POPC   C3B70593  16.234   0.839   7.041
 5472POPC   C4B70594  15.948   0.839   7.454
 5473POPC   NC370595  11.598  22.362   5.166
 5473POPC   PO470596  10.944  22.351   5.505
 5473POPC   GL170597  11.055  22.152   5.902
 5473POPC   GL270598  11.290  21.855   5.836
 5473POPC   C1A70599  11.197  22.295   6.322
 5473POPC   D2A70600  11.408  22.428   6.692
 5473POPC   C3A70601  11.303  22.275   7.095
 5473POPC   C4A70602  11.508  22.369   7.505
 5473POPC   C1B70603  11.127  21.793   6.268
 5473POPC   C2B70604  11.309  21.921   6.669
 5473POPC   C3B70605  11.469  21.736   7.048
 5473POPC   C4B70606  11.359  21.886   7.431
 5474POPC   NC370607  15.799   9.804   5.631
 5474POPC   PO470608  16.371   9.605   5.285
 5474POPC   GL170609  16.304   9.845   5.747
 5474POPC   GL270610  16.276  10.210   5.749
 5474POPC   C1A70611  16.330   9.747   6.227
 5474POPC   D2A70612  16.375   9.460   6.611
 5474POPC   C3A70613  16.090   9.527   6.938
 5474POPC   C4A70614  16.092   9.476   7.346
 5474POPC   C1B70615  16.069  10.184   6.160
 5474POPC   C2B70616  16.244  10.236   6.588
 5474POPC   C3B70617  16.173  10.055   7.022
 5474POPC   C4B70618  15.783   9.893   7.223
 5475POPC   NC370619  35.752   0.793   5.322
 5475POPC   PO470620  36.015   1.447   5.245
 5475POPC   GL170621  36.104   1.324   5.713
 5475POPC   GL270622  36.014   0.993   5.903
 5475POPC   C1A70623  36.199   1.416   6.142
 5475POPC   D2A70624  36.267   1.408   6.587
 5475POPC   C3A70625  36.120   1.088   6.856
 5475POPC   C4A70626  36.124   1.187   7.285
 5475POPC   C1B70627  36.221   0.910   6.319
 5475POPC   C2B70628  36.389   0.659   6.694
 5475POPC   C3B70629  36.431   0.740   7.155
 5475POPC   C4B70630  36.180   0.789   7.547
 5476POPC   NC370631  39.123  18.710   5.311
 5476POPC   PO470632  39.415  19.282   5.237
 5476POPC   GL170633  39.338  19.201   5.705
 5476POPC   GL270634  39.223  18.898   5.786
 5476POPC   C1A70635  39.118  19.256   6.156
 5476POPC   D2A70636  38.940  19.266   6.608
 5476POPC   C3A70637  39.138  19.402   7.003
 5476POPC   C4A70638  39.311  19.170   7.367
 5476POPC   C1B70639  39.104  18.723   6.188
 5476POPC   C2B70640  39.213  18.862   6.613
 5476POPC   C3B70641  39.086  18.841   7.060
 5476POPC   C4B70642  39.256  18.635   7.464
 5477POPC   NC370643   6.781   7.115   5.392
 5477POPC   PO470644   6.500   7.717   5.411
 5477POPC   GL170645   6.534   7.456   5.727
 5477POPC   GL270646   6.849   7.568   5.825
 5477POPC   C1A70647   6.397   7.506   6.165
 5477POPC   D2A70648   6.472   7.705   6.595
 5477POPC   C3A70649   6.592   7.357   6.881
 5477POPC   C4A70650   6.710   7.219   7.286
 5477POPC   C1B70651   6.849   7.724   6.238
 5477POPC   C2B70652   6.963   7.643   6.662
 5477POPC   C3B70653   7.042   7.548   7.077
 5477POPC   C4B70654   7.076   7.569   7.519
 5478POPC   NC370655  28.029  23.782   5.518
 5478POPC   PO470656  28.660  23.545   5.539
 5478POPC   GL170657  28.645  23.495   5.932
 5478POPC   GL270658  28.467  23.819   5.955
 5478POPC   C1A70659  28.721  23.622   6.356
 5478POPC   D2A70660  28.451  23.556   6.687
 5478POPC   C3A70661  28.571  23.828   7.016
 5478POPC   C4A70662  28.716  23.841   7.426
 5478POPC   C1B70663  28.192  23.596   6.223
 5478POPC   C2B70664  27.962  23.708   6.607
 5478POPC   C3B70665  28.068  23.660   7.036
 5478POPC   C4B70666  28.264  23.646   7.403
 5479POPC   NC370667  36.714  28.283   5.372
 5479POPC   PO470668  37.031  28.856   5.241
 5479POPC   GL170669  36.969  28.618   5.680
 5479POPC   GL270670  37.094  28.263   5.749
 5479POPC   C1A70671  36.799  28.468   6.107
 5479POPC   D2A70672  36.815  28.567   6.585
 5479POPC   C3A70673  36.893  28.419   7.035
 5479POPC   C4A70674  36.801  28.397   7.518
 5479POPC   C1B70675  37.228  28.160   6.206
 5479POPC   C2B70676  37.177  28.110   6.689
 5479POPC   C3B70677  37.319  28.147   7.146
 5479POPC   C4B70678  37.255  28.168   7.608
 5480POPC   NC370679  22.954   7.144   5.346
 5480POPC   PO470680  23.166   7.706   5.635
 5480POPC   GL170681  22.949   7.608   5.945
 5480POPC   GL270682  22.728   7.367   5.793
 5480POPC   C1A70683  23.043   7.638   6.357
 5480POPC   D2A70684  22.968   7.810   6.713
 5480POPC   C3A70685  22.893   7.581   7.076
 5480POPC   C4A70686  23.180   7.540   7.420
 5480POPC   C1B70687  22.846   7.186   6.203
 5480POPC   C2B70688  22.876   7.228   6.645
 5480POPC   C3B70689  23.015   7.108   7.040
 5480POPC   C4B70690  22.733   7.158   7.367
 5481POPC   NC370691   9.161  30.757   5.420
 5481POPC   PO470692   8.539  30.474   5.274
 5481POPC   GL170693   8.674  30.529   5.750
 5481POPC   GL270694   8.909  30.820   5.848
 5481POPC   C1A70695   8.757  30.533   6.241
 5481POPC   D2A70696   8.991  30.503   6.677
 5481POPC   C3A70697   8.824  30.680   7.117
 5481POPC   C4A70698   8.668  30.653   7.602
 5481POPC   C1B70699   9.069  31.026   6.228
 5481POPC   C2B70700   9.317  30.971   6.600
 5481POPC   C3B70701   9.461  30.639   6.865
 5481POPC   C4B70702   9.323  30.475   7.258
 5482POPC   NC370703  42.784  38.355   5.437
 5482POPC   PO470704  43.064  38.842   5.520
 5482POPC   GL170705  43.401  38.720   5.835
 5482POPC   GL270706  43.438  38.351   5.956
 5482POPC   C1A70707  43.291  38.747   6.276
 5482POPC   D2A70708  43.050  38.550   6.615
 5482POPC   C3A70709  43.274  38.539   7.011
 5482POPC   C4A70710  43.417  38.887   7.288
 5482POPC   C1B70711  43.029  38.192   6.156
 5482POPC   C2B70712  42.777  38.131   6.538
 5482POPC   C3B70713  42.956  38.105   6.945
 5482POPC   C4B70714  42.721  38.126   7.309
 5483POPC   NC370715  16.209  31.076   5.638
 5483POPC   PO470716  16.662  31.458   5.264
 5483POPC   GL170717  16.491  31.540   5.753
 5483POPC   GL270718  16.424  31.249   6.056
 5483POPC   C1A70719  16.767  31.607   6.136
 5483POPC   D2A70720  16.907  31.571   6.572
 5483POPC   C3A70721  16.705  31.578   6.971
 5483POPC   C4A70722  16.923  31.769   7.319
 5483POPC   C1B70723  16.806  31.066   6.277
 5483POPC   C2B70724  17.057  31.083   6.643
 5483POPC   C3B70725  16.893  31.033   7.025
 5483POPC   C4B70726  16.576  31.193   7.282
 5484POPC   NC370727  32.077  30.122   5.291
 5484POPC   PO470728  32.464  29.585   5.330
 5484POPC   GL170729  32.343  29.905   5.679
 5484POPC   GL270730  31.988  30.009   5.794
 5484POPC   C1A70731  32.401  29.928   6.135
 5484POPC   D2A70732  32.585  30.053   6.528
 5484POPC   C3A70733  32.428  29.952   6.898
 5484POPC   C4A70734  32.193  29.613   7.122
 5484POPC   C1B70735  32.046  30.295   6.198
 5484POPC   C2B70736  32.188  30.404   6.619
 5484POPC   C3B70737  32.099  30.388   7.064
 5484POPC   C4B70738  32.188  30.071   7.317
 5485POPC   NC370739   6.925   8.081   5.465
 5485POPC   PO470740   6.568   8.550   5.179
 5485POPC   GL170741   6.433   8.305   5.639
 5485POPC   GL270742   6.627   8.056   5.871
 5485POPC   C1A70743   6.329   8.386   6.137
 5485POPC   D2A70744   6.497   8.442   6.603
 5485POPC   C3A70745   6.495   8.100   6.940
 5485POPC   C4A70746   6.218   8.007   7.283
 5485POPC   C1B70747   6.845   8.234   6.262
 5485POPC   C2B70748   6.966   8.148   6.701
 5485POPC   C3B70749   6.983   8.082   7.153
 5485POPC   C4B70750   7.003   8.490   7.410
 5486POPC   NC370751  22.705  43.692   5.106
 5486POPC   PO470752  23.103  43.558   5.621
 5486POPC   GL170753  23.037  43.882   5.871
 5486POPC   GL270754  23.324  44.123   5.852
 5486POPC   C1A70755  22.894  43.813   6.274
 5486POPC   D2A70756  23.127  43.676   6.607
 5486POPC   C3A70757  22.970  43.884   6.931
 5486POPC   C4A70758  22.882  43.843   7.334
 5486POPC   C1B70759  23.304  44.138   6.310
 5486POPC   C2B70760  23.355  44.191   6.778
 5486POPC   C3B70761  23.339  44.068   7.233
 5486POPC   C4B70762  23.291  44.165   7.663
 5487POPC   NC370763   7.931   1.622   5.491
 5487POPC   PO470764   8.362   1.189   5.189
 5487POPC   GL170765   8.363   1.307   5.642
 5487POPC   GL270766   8.090   1.207   5.757
 5487POPC   C1A70767   8.437   1.383   6.117
 5487POPC   D2A70768   8.185   1.435   6.506
 5487POPC   C3A70769   8.327   1.480   6.944
 5487POPC   C4A70770   8.320   1.293   7.358
 5487POPC   C1B70771   7.833   1.324   6.103
 5487POPC   C2B70772   7.730   1.209   6.506
 5487POPC   C3B70773   7.805   1.336   6.909
 5487POPC   C4B70774   7.814   1.302   7.329
 5488POPC   NC370775  17.870   5.991   5.497
 5488POPC   PO470776  18.440   5.626   5.385
 5488POPC   GL170777  18.415   5.784   5.809
 5488POPC   GL270778  18.233   6.086   5.872
 5488POPC   C1A70779  18.537   5.907   6.247
 5488POPC   D2A70780  18.638   5.790   6.682
 5488POPC   C3A70781  18.619   6.079   7.039
 5488POPC   C4A70782  18.585   6.012   7.514
 5488POPC   C1B70783  18.025   5.878   6.251
 5488POPC   C2B70784  17.894   5.709   6.665
 5488POPC   C3B70785  17.906   5.875   7.081
 5488POPC   C4B70786  18.164   6.150   7.228
 5489POPC   NC370787  24.922  19.153   5.501
 5489POPC   PO470788  24.214  18.922   5.487
 5489POPC   GL170789  24.412  19.240   5.721
 5489POPC   GL270790  24.628  19.014   5.866
 5489POPC   C1A70791  24.465  19.434   6.134
 5489POPC   D2A70792  24.617  19.260   6.534
 5489POPC   C3A70793  24.513  19.384   6.962
 5489POPC   C4A70794  24.508  19.178   7.363
 5489POPC   C1B70795  24.375  18.921   6.192
 5489POPC   C2B70796  24.339  18.802   6.583
 5489POPC   C3B70797  24.531  18.856   6.949
 5489POPC   C4B70798  24.419  18.658   7.307
 5490POPC   NC370799  26.662  20.126   5.532
 5490POPC   PO470800  27.070  19.655   5.342
 5490POPC   GL170801  27.050  19.697   5.777
 5490POPC   GL270802  27.099  20.032   5.829
 5490POPC   C1A70803  26.959  19.719   6.232
 5490POPC   D2A70804  26.883  19.536   6.643
 5490POPC   C3A70805  26.780  19.729   7.076
 5490POPC   C4A70806  26.750  19.739   7.556
 5490POPC   C1B70807  27.159  20.189   6.233
 5490POPC   C2B70808  27.228  19.969   6.656
 5490POPC   C3B70809  27.180  20.085   7.095
 5490POPC   C4B70810  26.837  20.184   7.362
 5491POPC   NC370811   5.823  31.680   5.460
 5491POPC   PO470812   6.232  31.190   5.423
 5491POPC   GL170813   5.940  31.205   5.800
 5491POPC   GL270814   5.670  31.468   5.881
 5491POPC   C1A70815   5.762  31.129   6.228
 5491POPC   D2A70816   5.677  31.467   6.516
 5491POPC   C3A70817   6.034  31.418   6.795
 5491POPC   C4A70818   6.189  31.095   7.134
 5491POPC   C1B70819   5.481  31.818   6.141
 5491POPC   C2B70820   5.395  31.946   6.584
 5491POPC   C3B70821   5.532  31.729   6.967
 5491POPC   C4B70822   5.791  31.463   7.233
 5492POPC   NC370823  19.090  29.572   5.484
 5492POPC   PO470824  19.500  29.032   5.481
 5492POPC   GL170825  19.229  29.048   5.824
 5492POPC   GL270826  18.860  29.157   5.832
 5492POPC   C1A70827  19.187  29.157   6.238
 5492POPC   D2A70828  19.196  29.267   6.646
 5492POPC   C3A70829  18.933  29.038   6.881
 5492POPC   C4A70830  18.836  28.994   7.294
 5492POPC   C1B70831  18.785  29.473   6.208
 5492POPC   C2B70832  18.805  29.605   6.668
 5492POPC   C3B70833  18.616  29.420   7.065
 5492POPC   C4B70834  18.406  28.974   7.043
 5493POPC   NC370835  36.213  42.489   5.279
 5493POPC   PO470836  35.852  41.951   5.404
 5493POPC   GL170837  36.048  42.239   5.733
 5493POPC   GL270838  35.927  42.615   5.694
 5493POPC   C1A70839  35.983  42.187   6.198
 5493POPC   D2A70840  35.875  41.989   6.605
 5493POPC   C3A70841  36.025  42.195   6.978
 5493POPC   C4A70842  36.262  41.996   7.304
 5493POPC   C1B70843  36.188  42.669   6.057
 5493POPC   C2B70844  36.129  42.587   6.500
 5493POPC   C3B70845  36.380  42.663   6.864
 5493POPC   C4B70846  36.425  42.457   7.254
 5494POPC   NC370847  33.585  18.110   5.428
 5494POPC   PO470848  34.214  18.145   5.456
 5494POPC   GL170849  33.938  18.238   5.805
 5494POPC   GL270850  33.702  18.529   5.829
 5494POPC   C1A70851  33.916  18.294   6.256
 5494POPC   D2A70852  33.589  18.107   6.560
 5494POPC   C3A70853  33.740  18.004   6.977
 5494POPC   C4A70854  34.077  18.033   7.284
 5494POPC   C1B70855  33.463  18.528   6.258
 5494POPC   C2B70856  33.504  18.577   6.735
 5494POPC   C3B70857  33.567  18.433   7.192
 5494POPC   C4B70858  33.346  18.385   7.591
 5495POPC   NC370859  36.177  14.244   5.272
 5495POPC   PO470860  36.226  13.488   5.194
 5495POPC   GL170861  36.118  13.624   5.646
 5495POPC   GL270862  36.320  13.901   5.794
 5495POPC   C1A70863  35.966  13.548   6.093
 5495POPC   D2A70864  36.177  13.469   6.499
 5495POPC   C3A70865  36.030  13.610   6.921
 5495POPC   C4A70866  36.029  13.447   7.310
 5495POPC   C1B70867  36.119  14.027   6.206
 5495POPC   C2B70868  36.235  13.965   6.631
 5495POPC   C3B70869  36.300  14.089   7.048
 5495POPC   C4B70870  36.405  13.972   7.454
 5496POPC   NC370871  31.800  39.014   5.480
 5496POPC   PO470872  31.119  39.098   5.488
 5496POPC   GL170873  31.248  39.209   5.919
 5496POPC   GL270874  31.609  39.100   5.947
 5496POPC   C1A70875  31.449  39.346   6.330
 5496POPC   D2A70876  31.652  39.172   6.650
 5496POPC   C3A70877  31.413  39.271   6.985
 5496POPC   C4A70878  31.569  39.532   7.293
 5496POPC   C1B70879  31.931  39.022   6.248
 5496POPC   C2B70880  31.985  38.763   6.621
 5496POPC   C3B70881  31.746  38.827   7.006
 5496POPC   C4B70882  31.804  39.088   7.332
 5497POPC   NC370883  13.329  22.271   5.052
 5497POPC   PO470884  13.592  21.946   5.592
 5497POPC   GL170885  13.627  22.282   5.896
 5497POPC   GL270886  13.299  22.330   5.915
 5497POPC   C1A70887  13.908  22.364   6.279
 5497POPC   D2A70888  13.979  22.137   6.673
 5497POPC   C3A70889  13.761  22.257   7.043
 5497POPC   C4A70890  13.729  22.080   7.429
 5497POPC   C1B70891  13.384  22.272   6.330
 5497POPC   C2B70892  13.546  22.494   6.655
 5497POPC   C3B70893  13.359  22.545   7.066
 5497POPC   C4B70894  13.430  22.522   7.494
 5498POPC   NC370895  16.790  31.868   5.450
 5498POPC   PO470896  17.078  32.494   5.529
 5498POPC   GL170897  16.896  32.317   5.895
 5498POPC   GL270898  17.020  31.983   5.889
 5498POPC   C1A70899  16.558  32.090   6.121
 5498POPC   D2A70900  16.465  31.845   6.500
 5498POPC   C3A70901  16.717  32.065   6.825
 5498POPC   C4A70902  16.626  32.181   7.263
 5498POPC   C1B70903  17.034  32.037   6.335
 5498POPC   C2B70904  17.137  32.327   6.647
 5498POPC   C3B70905  17.087  32.322   7.093
 5498POPC   C4B70906  17.150  32.189   7.505
 5499POPC   NC370907   3.976  32.896   5.403
 5499POPC   PO470908   4.480  33.324   5.237
 5499POPC   GL170909   4.267  33.234   5.693
 5499POPC   GL270910   4.207  32.880   5.853
 5499POPC   C1A70911   4.361  33.213   6.191
 5499POPC   D2A70912   4.506  32.906   6.536
 5499POPC   C3A70913   4.427  33.020   6.978
 5499POPC   C4A70914   4.353  33.045   7.445
 5499POPC   C1B70915   3.961  32.815   6.266
 5499POPC   C2B70916   4.004  32.856   6.751
 5499POPC   C3B70917   3.956  33.200   7.123
 5499POPC   C4B70918   3.874  33.087   7.600
 5500POPC   NC370919  32.894  25.879   5.312
 5500POPC   PO470920  33.479  25.964   5.511
 5500POPC   GL170921  33.098  25.999   5.807
 5500POPC   GL270922  32.768  26.210   5.837
 5500POPC   C1A70923  32.919  25.926   6.224
 5500POPC   D2A70924  32.632  25.863   6.535
 5500POPC   C3A70925  32.868  25.896   6.872
 5500POPC   C4A70926  32.895  25.845   7.280
 5500POPC   C1B70927  32.636  26.334   6.304
 5500POPC   C2B70928  32.599  26.335   6.766
 5500POPC   C3B70929  32.506  26.157   7.153
 5500POPC   C4B70930  32.495  26.193   7.607
 5501POPC   NC370931  35.979   0.081   5.688
 5501POPC   PO470932  36.048  44.604   5.219
 5501POPC   GL170933  36.243  44.628   5.728
 5501POPC   GL270934  36.290  44.896   6.037
 5501POPC   C1A70935  36.076  44.485   6.207
 5501POPC   D2A70936  36.131  44.665   6.632
 5501POPC   C3A70937  36.009  44.465   6.991
 5501POPC   C4A70938  36.213  44.163   7.228
 5501POPC   C1B70939  35.905   0.006   6.333
 5501POPC   C2B70940  35.683  44.888   6.751
 5501POPC   C3B70941  35.732  44.938   7.193
 5501POPC   C4B70942  35.975  44.940   7.589
 5502POPC   NC370943  42.071   4.063   5.268
 5502POPC   PO470944  41.521   4.508   5.420
 5502POPC   GL170945  41.522   4.351   5.784
 5502POPC   GL270946  41.587   4.023   5.708
 5502POPC   C1A70947  41.433   4.503   6.182
 5502POPC   D2A70948  41.343   4.310   6.601
 5502POPC   C3A70949  41.399   4.523   6.953
 5502POPC   C4A70950  41.687   4.673   7.214
 5502POPC   C1B70951  41.467   3.987   6.148
 5502POPC   C2B70952  41.737   4.002   6.513
 5502POPC   C3B70953  41.640   3.985   6.949
 5502POPC   C4B70954  41.462   4.192   7.324
 5503POPC   NC370955   4.388  22.070   5.431
 5503POPC   PO470956   3.692  22.303   5.424
 5503POPC   GL170957   3.934  22.114   5.749
 5503POPC   GL270958   4.134  22.385   5.795
 5503POPC   C1A70959   4.181  21.917   6.079
 5503POPC   D2A70960   4.482  21.999   6.415
 5503POPC   C3A70961   4.294  22.026   6.820
 5503POPC   C4A70962   4.255  21.998   7.276
 5503POPC   C1B70963   4.233  22.441   6.250
 5503POPC   C2B70964   4.488  22.479   6.635
 5503POPC   C3B70965   4.542  22.393   7.091
 5503POPC   C4B70966   4.353  22.625   7.447
 5504POPC   NC370967  10.264  36.208   5.401
 5504POPC   PO470968  10.829  36.500   5.411
 5504POPC   GL170969  10.556  36.273   5.835
 5504POPC   GL270970  10.196  36.092   5.879
 5504POPC   C1A70971  10.553  36.006   6.251
 5504POPC   D2A70972  10.769  36.013   6.672
 5504POPC   C3A70973  10.537  35.995   7.047
 5504POPC   C4A70974  10.508  36.230   7.429
 5504POPC   C1B70975  10.177  36.345   6.262
 5504POPC   C2B70976  10.315  36.296   6.666
 5504POPC   C3B70977  10.060  36.307   7.009
 5504POPC   C4B70978  10.093  35.992   7.279
 5505POPC   NC370979  21.177  30.228   5.155
 5505POPC   PO470980  21.615  29.902   5.514
 5505POPC   GL170981  21.416  29.896   5.880
 5505POPC   GL270982  21.215  30.192   5.823
 5505POPC   C1A70983  21.526  29.978   6.301
 5505POPC   D2A70984  21.372  29.857   6.698
 5505POPC   C3A70985  21.541  29.885   7.099
 5505POPC   C4A70986  21.248  29.834   7.453
 5505POPC   C1B70987  21.172  30.352   6.255
 5505POPC   C2B70988  21.035  30.233   6.679
 5505POPC   C3B70989  21.145  30.235   7.134
 5505POPC   C4B70990  21.342  30.421   7.528
 5506POPC   NC370991  16.069  34.175   5.424
 5506POPC   PO470992  15.700  34.656   5.365
 5506POPC   GL170993  15.788  34.450   5.795
 5506POPC   GL270994  16.134  34.511   5.823
 5506POPC   C1A70995  15.898  34.520   6.274
 5506POPC   D2A70996  15.904  34.321   6.719
 5506POPC   C3A70997  15.900  34.492   7.152
 5506POPC   C4A70998  15.799  34.251   7.518
 5506POPC   C1B70999  16.415  34.409   6.197
 5506POPC   C2B71000  16.424  34.287   6.666
 5506POPC   C3B71001  16.441  34.484   7.097
 5506POPC   C4B71002  16.532  34.846   7.391
 5507POPC   NC371003  30.966  15.377   5.466
 5507POPC   PO471004  30.562  14.845   5.478
 5507POPC   GL171005  30.691  15.086   5.802
 5507POPC   GL271006  31.011  14.918   5.807
 5507POPC   C1A71007  30.559  15.338   6.166
 5507POPC   D2A71008  30.730  15.277   6.591
 5507POPC   C3A71009  30.503  15.321   6.960
 5507POPC   C4A71010  30.694  15.392   7.318
 5507POPC   C1B71011  30.974  15.034   6.219
 5507POPC   C2B71012  30.959  14.824   6.610
 5507POPC   C3B71013  30.946  15.024   7.022
 5507POPC   C4B71014  31.012  14.978   7.469
 5508POPC   NC371015  13.928  32.595   5.517
 5508POPC   PO471016  13.641  31.963   5.376
 5508POPC   GL171017  13.686  31.878   5.818
 5508POPC   GL271018  13.832  32.200   5.825
 5508POPC   C1A71019  13.571  32.099   6.260
 5508POPC   D2A71020  13.587  31.950   6.703
 5508POPC   C3A71021  13.549  32.243   7.067
 5508POPC   C4A71022  13.645  32.210   7.478
 5508POPC   C1B71023  14.064  32.013   6.126
 5508POPC   C2B71024  14.077  31.993   6.521
 5508POPC   C3B71025  14.022  32.262   6.839
 5508POPC   C4B71026  14.087  32.339   7.257
 5509POPC   NC371027  10.493  11.942   5.397
 5509POPC   PO471028  10.781  12.459   5.615
 5509POPC   GL171029  10.465  12.454   5.923
 5509POPC   GL271030  10.401  12.102   5.910
 5509POPC   C1A71031  10.332  12.429   6.381
 5509POPC   D2A71032  10.266  12.064   6.673
 5509POPC   C3A71033  10.500  12.019   7.087
 5509POPC   C4A71034  10.410  12.048   7.570
 5509POPC   C1B71035  10.713  12.128   6.259
 5509POPC   C2B71036  10.867  12.081   6.705
 5509POPC   C3B71037  10.944  11.790   7.057
 5509POPC   C4B71038  10.878  11.895   7.477
 5510POPC   NC371039  39.554  16.277   5.458
 5510POPC   PO471040  40.167  16.176   5.466
 5510POPC   GL171041  39.975  16.116   5.857
 5510POPC   GL271042  39.631  16.084   5.923
 5510POPC   C1A71043  40.111  15.964   6.281
 5510POPC   D2A71044  40.176  15.963   6.749
 5510POPC   C3A71045  39.799  15.896   6.998
 5510POPC   C4A71046  39.661  15.526   7.214
 5510POPC   C1B71047  39.784  16.347   6.280
 5510POPC   C2B71048  39.888  16.378   6.700
 5510POPC   C3B71049  39.976  16.363   7.129
 5510POPC   C4B71050  40.330  16.093   7.241
 5511POPC   NC371051  36.109  20.400   5.490
 5511POPC   PO471052  36.165  19.905   5.872
 5511POPC   GL171053  36.179  20.353   6.009
 5511POPC   GL271054  36.361  20.642   5.860
 5511POPC   C1A71055  36.109  20.650   6.355
 5511POPC   D2A71056  35.953  20.823   6.754
 5511POPC   C3A71057  36.049  20.530   7.083
 5511POPC   C4A71058  36.249  20.159   7.155
 5511POPC   C1B71059  36.450  20.991   6.149
 5511POPC   C2B71060  36.554  20.907   6.585
 5511POPC   C3B71061  36.380  20.905   7.027
 5511POPC   C4B71062  36.041  21.050   7.337
 5512POPC   NC371063  28.589  13.286   5.420
 5512POPC   PO471064  28.178  12.768   5.443
 5512POPC   GL171065  28.268  12.830   5.851
 5512POPC   GL271066  28.472  13.143   5.904
 5512POPC   C1A71067  28.268  12.678   6.269
 5512POPC   D2A71068  28.529  12.646   6.659
 5512POPC   C3A71069  28.296  12.692   7.042
 5512POPC   C4A71070  28.489  12.717   7.453
 5512POPC   C1B71071  28.115  13.174   6.199
 5512POPC   C2B71072  28.160  13.047   6.642
 5512POPC   C3B71073  28.319  13.206   7.061
 5512POPC   C4B71074  28.290  13.243   7.515
 5513POPC   NC371075  16.153  14.340   5.036
 5513POPC   PO471076  15.820  14.308   5.371
 5513POPC   GL171077  15.868  14.518   5.798
 5513POPC   GL271078  16.188  14.365   5.910
 5513POPC   C1A71079  15.917  14.590   6.284
 5513POPC   D2A71080  16.151  14.378   6.652
 5513POPC   C3A71081  15.926  14.312   7.048
 5513POPC   C4A71082  15.515  14.226   7.240
 5513POPC   C1B71083  15.923  14.091   6.172
 5513POPC   C2B71084  16.007  13.893   6.568
 5513POPC   C3B71085  16.150  13.864   6.991
 5513POPC   C4B71086  15.904  13.844   7.363
 5514POPC   NC371087  39.955  40.423   5.492
 5514POPC   PO471088  39.982  39.853   5.077
 5514POPC   GL171089  39.987  39.827   5.600
 5514POPC   GL271090  40.141  40.097   5.846
 5514POPC   C1A71091  39.961  39.716   6.104
 5514POPC   D2A71092  40.129  39.986   6.481
 5514POPC   C3A71093  40.018  39.943   6.944
 5514POPC   C4A71094  39.876  39.985   7.364
 5514POPC   C1B71095  40.463  40.244   6.145
 5514POPC   C2B71096  40.477  40.433   6.498
 5514POPC   C3B71097  40.354  40.320   6.859
 5514POPC   C4B71098  40.386  40.163   7.252
 5515POPC   NC371099  23.469  37.550   5.489
 5515POPC   PO471100  22.787  37.734   5.454
 5515POPC   GL171101  22.805  37.568   5.843
 5515POPC   GL271102  23.133  37.487   5.850
 5515POPC   C1A71103  22.747  37.609   6.262
 5515POPC   D2A71104  22.598  37.827   6.611
 5515POPC   C3A71105  22.760  37.584   6.932
 5515POPC   C4A71106  22.930  37.585   7.297
 5515POPC   C1B71107  23.268  37.666   6.228
 5515POPC   C2B71108  23.121  37.769   6.601
 5515POPC   C3B71109  23.289  37.643   6.924
 5515POPC   C4B71110  23.428  37.660   7.306
 5516POPC   NC371111  15.450  30.822   5.429
 5516POPC   PO471112  16.133  30.484   5.448
 5516POPC   GL171113  15.815  30.618   5.759
 5516POPC   GL271114  15.787  30.933   5.914
 5516POPC   C1A71115  15.770  30.464   6.196
 5516POPC   D2A71116  16.053  30.254   6.521
 5516POPC   C3A71117  16.034  30.354   6.968
 5516POPC   C4A71118  15.816  30.648   7.230
 5516POPC   C1B71119  15.899  30.976   6.346
 5516POPC   C2B71120  15.933  30.880   6.787
 5516POPC   C3B71121  16.074  31.078   7.190
 5516POPC   C4B71122  15.866  31.038   7.595
 5517POPC   NC371123  14.176   1.591   5.378
 5517POPC   PO471124  14.639   2.140   5.389
 5517POPC   GL171125  14.385   2.011   5.663
 5517POPC   GL271126  14.578   1.707   5.687
 5517POPC   C1A71127  14.356   1.888   6.099
 5517POPC   D2A71128  14.451   1.759   6.475
 5517POPC   C3A71129  14.336   2.064   6.771
 5517POPC   C4A71130  14.312   2.122   7.175
 5517POPC   C1B71131  14.826   1.644   6.074
 5517POPC   C2B71132  14.962   1.863   6.470
 5517POPC   C3B71133  14.775   1.812   6.880
 5517POPC   C4B71134  14.837   1.934   7.332
 5518POPC   NC371135  20.485   6.402   5.167
 5518POPC   PO471136  20.927   6.913   5.193
 5518POPC   GL171137  20.773   6.692   5.673
 5518POPC   GL271138  20.403   6.571   5.699
 5518POPC   C1A71139  20.703   6.752   6.197
 5518POPC   D2A71140  20.694   6.934   6.669
 5518POPC   C3A71141  20.662   6.701   7.069
 5518POPC   C4A71142  20.688   6.465   7.439
 5518POPC   C1B71143  20.251   6.499   6.146
 5518POPC   C2B71144  20.447   6.455   6.571
 5518POPC   C3B71145  20.539   6.219   6.934
 5518POPC   C4B71146  20.275   6.221   7.259
 5519POPC   NC371147  13.755  25.600   5.147
 5519POPC   PO471148  13.476  25.023   5.422
 5519POPC   GL171149  13.570  25.114   5.839
 5519POPC   GL271150  13.882  25.217   5.926
 5519POPC   C1A71151  13.453  25.331   6.204
 5519POPC   D2A71152  13.309  25.164   6.573
 5519POPC   C3A71153  13.619  25.157   6.828
 5519POPC   C4A71154  13.516  25.485   7.065
 5519POPC   C1B71155  13.798  24.950   6.300
 5519POPC   C2B71156  13.905  24.668   6.629
 5519POPC   C3B71157  14.023  24.763   7.026
 5519POPC   C4B71158  13.948  25.176   7.224
 5520POPC   NC371159  37.720  25.798   5.300
 5520POPC   PO471160  37.831  26.400   5.544
 5520POPC   GL171161  37.655  26.061   5.754
 5520POPC   GL271162  37.908  25.824   5.769
 5520POPC   C1A71163  37.524  26.084   6.183
 5520POPC   D2A71164  37.434  26.474   6.449
 5520POPC   C3A71165  37.350  26.457   6.897
 5520POPC   C4A71166  37.445  26.314   7.311
 5520POPC   C1B71167  38.015  25.919   6.182
 5520POPC   C2B71168  37.872  26.143   6.554
 5520POPC   C3B71169  37.832  25.984   6.963
 5520POPC   C4B71170  37.529  25.796   7.260
 5521POPC   NC371171  14.691  13.662   5.477
 5521POPC   PO471172  14.050  13.488   5.466
 5521POPC   GL171173  14.266  13.546   5.822
 5521POPC   GL271174  14.492  13.268   5.762
 5521POPC   C1A71175  14.315  13.767   6.239
 5521POPC   D2A71176  14.573  13.882   6.593
 5521POPC   C3A71177  14.348  13.937   6.975
 5521POPC   C4A71178  14.010  13.729   7.157
 5521POPC   C1B71179  14.449  13.258   6.216
 5521POPC   C2B71180  14.385  13.216   6.660
 5521POPC   C3B71181  14.402  13.434   7.046
 5521POPC   C4B71182  14.695  13.490   7.324
 5522POPC   NC371183  23.012  33.397   5.392
 5522POPC   PO471184  22.671  32.767   5.513
 5522POPC   GL171185  22.911  32.773   5.888
 5522POPC   GL271186  23.220  32.986   5.797
 5522POPC   C1A71187  22.679  32.901   6.237
 5522POPC   D2A71188  22.707  33.136   6.584
 5522POPC   C3A71189  22.928  32.997   6.922
 5522POPC   C4A71190  22.829  33.236   7.302
 5522POPC   C1B71191  23.121  33.204   6.220
 5522POPC   C2B71192  23.139  33.416   6.656
 5522POPC   C3B71193  23.314  33.291   7.036
 5522POPC   C4B71194  23.441  32.851   7.083
 5523POPC   NC371195  26.458  20.681   5.378
 5523POPC   PO471196  27.085  20.398   5.427
 5523POPC   GL171197  26.944  20.531   5.852
 5523POPC   GL271198  26.600  20.595   5.866
 5523POPC   C1A71199  26.854  20.621   6.307
 5523POPC   D2A71200  27.113  20.476   6.649
 5523POPC   C3A71201  26.923  20.552   6.989
 5523POPC   C4A71202  27.012  20.640   7.375
 5523POPC   C1B71203  26.502  20.982   6.123
 5523POPC   C2B71204  26.531  21.108   6.567
 5523POPC   C3B71205  26.464  20.968   7.020
 5523POPC   C4B71206  26.474  20.553   7.238
 5524POPC   NC371207  43.146  28.823   5.112
 5524POPC   PO471208  43.222  29.294   5.591
 5524POPC   GL171209  43.211  29.065   5.961
 5524POPC   GL271210  42.886  28.915   5.980
 5524POPC   C1A71211  43.153  29.114   6.401
 5524POPC   D2A71212  42.827  29.049   6.635
 5524POPC   C3A71213  42.982  28.919   7.040
 5524POPC   C4A71214  43.364  29.190   7.201
 5524POPC   C1B71215  42.855  29.392   6.111
 5524POPC   C2B71216  42.872  29.557   6.537
 5524POPC   C3B71217  42.941  29.434   6.969
 5524POPC   C4B71218  42.898  29.286   7.389
 5525POPC   NC371219   4.107  20.366   5.473
 5525POPC   PO471220   4.592  20.893   5.511
 5525POPC   GL171221   4.475  20.795   5.925
 5525POPC   GL271222   4.409  20.433   5.988
 5525POPC   C1A71223   4.336  20.820   6.350
 5525POPC   D2A71224   4.113  20.564   6.654
 5525POPC   C3A71225   4.180  20.606   7.093
 5525POPC   C4A71226   3.884  20.863   7.307
 5525POPC   C1B71227   4.461  20.256   6.424
 5525POPC   C2B71228   4.604  20.179   6.875
 5525POPC   C3B71229   4.763  20.293   7.307
 5525POPC   C4B71230   4.684  20.341   7.777
 5526POPC   NC371231  21.580  22.565   5.536
 5526POPC   PO471232  21.069  22.217   5.249
 5526POPC   GL171233  21.319  22.137   5.694
 5526POPC   GL271234  21.270  21.853   5.912
 5526POPC   C1A71235  21.425  22.256   6.188
 5526POPC   D2A71236  21.162  22.279   6.585
 5526POPC   C3A71237  21.287  22.092   6.973
 5526POPC   C4A71238  21.669  22.301   7.110
 5526POPC   C1B71239  21.579  21.769   6.238
 5526POPC   C2B71240  21.678  21.987   6.621
 5526POPC   C3B71241  21.724  21.783   7.008
 5526POPC   C4B71242  21.563  21.875   7.376
 5527POPC   NC371243   3.602   2.009   5.289
 5527POPC   PO471244   4.054   1.568   5.479
 5527POPC   GL171245   3.776   1.875   5.750
 5527POPC   GL271246   3.658   2.272   5.744
 5527POPC   C1A71247   3.551   1.784   6.131
 5527POPC   D2A71248   3.528   1.726   6.569
 5527POPC   C3A71249   3.318   1.994   6.893
 5527POPC   C4A71250   3.495   1.932   7.305
 5527POPC   C1B71251   3.782   2.239   6.167
 5527POPC   C2B71252   3.595   2.289   6.596
 5527POPC   C3B71253   3.704   2.348   7.051
 5527POPC   C4B71254   3.454   2.408   7.451
 5528POPC   NC371255  12.695   0.773   5.410
 5528POPC   PO471256  12.905   0.099   5.165
 5528POPC   GL171257  12.816   0.292   5.637
 5528POPC   GL271258  13.064   0.233   5.914
 5528POPC   C1A71259  12.650   0.488   6.070
 5528POPC   D2A71260  12.968   0.544   6.401
 5528POPC   C3A71261  12.965   0.627   6.820
 5528POPC   C4A71262  12.640   0.596   7.122
 5528POPC   C1B71263  13.324   0.174   6.299
 5528POPC   C2B71264  13.284   0.192   6.738
 5528POPC   C3B71265  13.071   0.259   7.145
 5528POPC   C4B71266  13.230   0.293   7.582
 5529POPC   NC371267  22.063   5.521   5.552
 5529POPC   PO471268  22.326   4.975   5.440
 5529POPC   GL171269  22.213   5.148   5.874
 5529POPC   GL271270  22.400   5.452   5.953
 5529POPC   C1A71271  22.156   5.134   6.327
 5529POPC   D2A71272  21.812   5.147   6.636
 5529POPC   C3A71273  21.933   5.223   7.093
 5529POPC   C4A71274  22.330   5.034   7.271
 5529POPC   C1B71275  22.351   5.597   6.388
 5529POPC   C2B71276  22.299   5.385   6.765
 5529POPC   C3B71277  22.334   5.540   7.177
 5529POPC   C4B71278  22.410   5.429   7.629
 5530POPC   NC371279  15.079  29.661   5.227
 5530POPC   PO471280  15.296  30.316   5.268
 5530POPC   GL171281  15.121  30.003   5.626
 5530POPC   GL271282  15.328  29.725   5.758
 5530POPC   C1A71283  14.907  29.911   6.044
 5530POPC   D2A71284  15.052  29.904   6.486
 5530POPC   C3A71285  14.887  30.050   6.900
 5530POPC   C4A71286  15.161  30.053   7.285
 5530POPC   C1B71287  15.360  29.592   6.186
 5530POPC   C2B71288  15.494  29.618   6.606
 5530POPC   C3B71289  15.233  29.668   6.938
 5530POPC   C4B71290  15.210  29.544   7.356
 5531POPC   NC371291  39.472  42.066   5.056
 5531POPC   PO471292  39.053  42.460   5.388
 5531POPC   GL171293  39.224  42.311   5.770
 5531POPC   GL271294  38.893  42.346   5.897
 5531POPC   C1A71295  39.323  42.318   6.209
 5531POPC   D2A71296  39.203  42.506   6.621
 5531POPC   C3A71297  39.221  42.328   7.029
 5531POPC   C4A71298  39.451  42.029   7.284
 5531POPC   C1B71299  38.840  42.255   6.331
 5531POPC   C2B71300  38.812  42.119   6.733
 5531POPC   C3B71301  38.698  42.361   7.052
 5531POPC   C4B71302  38.847  42.540   7.420
 5532POPC   NC371303  44.024  27.410   5.400
 5532POPC   PO471304  43.860  27.997   5.169
 5532POPC   GL171305  43.656  27.932   5.643
 5532POPC   GL271306  43.925  27.748   5.786
 5532POPC   C1A71307  43.543  27.747   6.118
 5532POPC   D2A71308  43.642  27.510   6.487
 5532POPC   C3A71309  43.769  27.612   6.871
 5532POPC   C4A71310  43.884  27.299   7.213
 5532POPC   C1B71311  44.057  27.711   6.207
 5532POPC   C2B71312  44.165  27.483   6.570
 5532POPC   C3B71313  44.265  27.557   7.019
 5532POPC   C4B71314  43.979  27.808   7.284
 5533POPC   NC371315  39.437  21.657   5.171
 5533POPC   PO471316  39.149  21.115   5.435
 5533POPC   GL171317  39.232  21.229   5.877
 5533POPC   GL271318  39.072  21.545   5.992
 5533POPC   C1A71319  39.482  21.079   6.224
 5533POPC   D2A71320  39.465  20.873   6.639
 5533POPC   C3A71321  39.353  21.177   6.962
 5533POPC   C4A71322  39.328  21.136   7.433
 5533POPC   C1B71323  39.351  21.607   6.341
 5533POPC   C2B71324  39.330  21.669   6.782
 5533POPC   C3B71325  39.101  21.767   7.184
 5533POPC   C4B71326  39.134  21.562   7.591
 5534POPC   NC371327  20.704  11.779   5.080
 5534POPC   PO471328  20.254  12.195   5.190
 5534POPC   GL171329  20.427  12.055   5.679
 5534POPC   GL271330  20.746  11.899   5.767
 5534POPC   C1A71331  20.596  12.105   6.200
 5534POPC   D2A71332  20.871  12.172   6.617
 5534POPC   C3A71333  20.754  12.203   7.079
 5534POPC   C4A71334  20.853  12.536   7.405
 5534POPC   C1B71335  20.770  11.625   6.136
 5534POPC   C2B71336  20.928  11.683   6.528
 5534POPC   C3B71337  20.762  11.708   6.910
 5534POPC   C4B71338  20.869  11.627   7.309
 5535POPC   NC371339  10.814  32.577   5.406
 5535POPC   PO471340  10.334  32.160   5.375
 5535POPC   GL171341  10.404  32.158   5.785
 5535POPC   GL271342  10.120  31.953   5.915
 5535POPC   C1A71343  10.655  32.351   6.107
 5535POPC   D2A71344  10.505  32.553   6.487
 5535POPC   C3A71345  10.705  32.549   6.889
 5535POPC   C4A71346  10.583  32.450   7.305
 5535POPC   C1B71347  10.379  31.964   6.298
 5535POPC   C2B71348  10.513  32.084   6.726
 5535POPC   C3B71349  10.346  32.037   7.158
 5535POPC   C4B71350  10.499  31.926   7.560
 5536POPC   NC371351  21.297  31.868   5.526
 5536POPC   PO471352  21.634  31.182   5.517
 5536POPC   GL171353  21.270  31.315   5.720
 5536POPC   GL271354  21.417  31.603   5.931
 5536POPC   C1A71355  21.042  31.326   6.117
 5536POPC   D2A71356  21.159  31.523   6.509
 5536POPC   C3A71357  21.197  31.322   6.922
 5536POPC   C4A71358  21.586  31.378   7.162
 5536POPC   C1B71359  21.397  31.904   6.272
 5536POPC   C2B71360  21.313  32.008   6.709
 5536POPC   C3B71361  21.367  31.850   7.143
 5536POPC   C4B71362  21.577  31.723   7.568
 5537POPC   NC371363  34.096  43.176   5.051
 5537POPC   PO471364  33.776  42.751   5.535
 5537POPC   GL171365  33.809  42.988   5.908
 5537POPC   GL271366  33.564  43.282   5.895
 5537POPC   C1A71367  34.077  42.866   6.262
 5537POPC   D2A71368  34.136  42.704   6.686
 5537POPC   C3A71369  34.113  42.955   7.013
 5537POPC   C4A71370  34.050  43.256   7.294
 5537POPC   C1B71371  33.801  43.446   6.227
 5537POPC   C2B71372  33.939  43.236   6.592
 5537POPC   C3B71373  33.645  43.138   6.900
 5537POPC   C4B71374  33.603  43.033   7.315
 5538POPC   NC371375  13.580   2.538   5.191
 5538POPC   PO471376  13.685   1.840   5.374
 5538POPC   GL171377  13.851   2.105   5.721
 5538POPC   GL271378  13.958   1.796   5.814
 5538POPC   C1A71379  13.903   2.107   6.211
 5538POPC   D2A71380  13.959   2.363   6.585
 5538POPC   C3A71381  13.826   2.145   6.966
 5538POPC   C4A71382  13.576   2.007   7.310
 5538POPC   C1B71383  13.562   1.743   6.068
 5538POPC   C2B71384  13.321   1.689   6.442
 5538POPC   C3B71385  13.442   1.764   6.866
 5538POPC   C4B71386  13.411   1.536   7.256
 5539POPC   NC371387  28.432  18.051   5.354
 5539POPC   PO471388  28.057  18.607   5.560
 5539POPC   GL171389  28.282  18.331   5.845
 5539POPC   GL271390  28.214  17.952   5.804
 5539POPC   C1A71391  28.296  18.503   6.282
 5539POPC   D2A71392  28.117  18.656   6.687
 5539POPC   C3A71393  28.385  18.528   7.035
 5539POPC   C4A71394  28.721  18.484   7.351
 5539POPC   C1B71395  28.352  17.995   6.241
 5539POPC   C2B71396  28.246  18.140   6.676
 5539POPC   C3B71397  28.359  17.942   7.052
 5539POPC   C4B71398  28.773  17.722   7.036
 5540POPC   NC371399   5.569  29.916   5.544
 5540POPC   PO471400   6.216  29.803   5.533
 5540POPC   GL171401   5.937  29.782   5.892
 5540POPC   GL271402   5.818  30.147   5.957
 5540POPC   C1A71403   5.915  29.814   6.352
 5540POPC   D2A71404   5.931  30.214   6.601
 5540POPC   C3A71405   5.945  30.136   7.049
 5540POPC   C4A71406   5.959  29.761   7.302
 5540POPC   C1B71407   5.457  29.987   6.206
 5540POPC   C2B71408   5.468  29.707   6.596
 5540POPC   C3B71409   5.525  29.680   7.045
 5540POPC   C4B71410   5.456  30.089   7.265
 5541POPC   NC371411  30.019  16.648   5.312
 5541POPC   PO471412  29.459  16.732   5.653
 5541POPC   GL171413  29.815  16.634   5.894
 5541POPC   GL271414  30.176  16.666   5.796
 5541POPC   C1A71415  29.718  16.655   6.321
 5541POPC   D2A71416  29.812  17.008   6.595
 5541POPC   C3A71417  29.740  16.883   6.993
 5541POPC   C4A71418  29.675  16.455   7.101
 5541POPC   C1B71419  30.183  16.836   6.205
 5541POPC   C2B71420  30.133  16.625   6.608
 5541POPC   C3B71421  30.231  16.748   6.973
 5541POPC   C4B71422  30.290  16.982   7.327
 5542POPC   NC371423  19.271   7.644   5.513
 5542POPC   PO471424  18.783   7.215   5.448
 5542POPC   GL171425  18.940   7.369   5.815
 5542POPC   GL271426  19.278   7.227   5.910
 5542POPC   C1A71427  18.845   7.541   6.210
 5542POPC   D2A71428  18.650   7.590   6.620
 5542POPC   C3A71429  18.746   7.199   6.843
 5542POPC   C4A71430  19.073   7.266   7.146
 5542POPC   C1B71431  19.356   6.949   6.300
 5542POPC   C2B71432  19.257   6.918   6.774
 5542POPC   C3B71433  19.470   6.965   7.197
 5542POPC   C4B71434  19.309   7.098   7.616
 5543POPC   NC371435  17.329  33.262   5.467
 5543POPC   PO471436  17.901  33.624   5.312
 5543POPC   GL171437  17.646  33.727   5.693
 5543POPC   GL271438  17.529  33.444   5.901
 5543POPC   C1A71439  17.559  33.924   6.106
 5543POPC   D2A71440  17.496  33.697   6.490
 5543POPC   C3A71441  17.516  33.940   6.843
 5543POPC   C4A71442  17.515  34.024   7.256
 5543POPC   C1B71443  17.236  33.249   6.191
 5543POPC   C2B71444  17.138  33.350   6.607
 5543POPC   C3B71445  17.393  33.407   6.967
 5543POPC   C4B71446  17.113  33.286   7.297
 5544POPC   NC371447  20.947  43.553   5.569
 5544POPC   PO471448  21.295  44.129   5.429
 5544POPC   GL171449  21.271  43.985   5.812
 5544POPC   GL271450  21.504  43.763   5.794
 5544POPC   C1A71451  21.494  44.059   6.221
 5544POPC   D2A71452  21.609  43.875   6.652
 5544POPC   C3A71453  21.485  44.155   6.998
 5544POPC   C4A71454  21.298  44.195   7.437
 5544POPC   C1B71455  21.304  43.581   6.146
 5544POPC   C2B71456  21.299  43.450   6.562
 5544POPC   C3B71457  21.305  43.533   7.007
 5544POPC   C4B71458  21.552  43.755   7.282
 5545POPC   NC371459  12.349  30.405   5.403
 5545POPC   PO471460  12.276  31.143   5.391
 5545POPC   GL171461  12.198  30.837   5.751
 5545POPC   GL271462  11.841  30.771   5.810
 5545POPC   C1A71463  12.196  30.686   6.212
 5545POPC   D2A71464  12.061  30.764   6.655
 5545POPC   C3A71465  12.386  30.556   6.888
 5545POPC   C4A71466  12.390  30.320   7.245
 5545POPC   C1B71467  11.687  30.736   6.252
 5545POPC   C2B71468  11.526  30.541   6.623
 5545POPC   C3B71469  11.620  30.653   7.014
 5545POPC   C4B71470  12.022  30.742   7.189
 5546POPC   NC371471   5.308  38.145   5.340
 5546POPC   PO471472   4.798  38.610   5.368
 5546POPC   GL171473   5.020  38.433   5.708
 5546POPC   GL271474   5.365  38.498   5.820
 5546POPC   C1A71475   5.035  38.205   6.105
 5546POPC   D2A71476   5.120  38.124   6.533
 5546POPC   C3A71477   4.893  38.241   6.903
 5546POPC   C4A71478   5.209  38.294   7.225
 5546POPC   C1B71479   5.141  38.708   6.130
 5546POPC   C2B71480   4.990  38.640   6.522
 5546POPC   C3B71481   5.212  38.663   6.884
 5546POPC   C4B71482   5.415  38.798   7.277
 5547POPC   NC371483  42.597  20.593   5.038
 5547POPC   PO471484  43.144  20.521   5.401
 5547POPC   GL171485  43.195  20.530   5.806
 5547POPC   GL271486  42.942  20.289   5.877
 5547POPC   C1A71487  43.267  20.736   6.188
 5547POPC   D2A71488  43.289  20.643   6.628
 5547POPC   C3A71489  43.033  20.885   6.872
 5547POPC   C4A71490  42.787  20.797   7.227
 5547POPC   C1B71491  43.163  20.232   6.284
 5547POPC   C2B71492  43.046  20.197   6.717
 5547POPC   C3B71493  43.096  20.403   7.089
 5547POPC   C4B71494  43.358  20.300   7.397
 5548POPC   NC371495  31.146  29.384   5.308
 5548POPC   PO471496  31.659  29.867   5.247
 5548POPC   GL171497  31.477  29.830   5.682
 5548POPC   GL271498  31.446  30.168   5.866
 5548POPC   C1A71499  31.267  29.734   6.092
 5548POPC   D2A71500  31.253  30.091   6.432
 5548POPC   C3A71501  31.413  29.896   6.794
 5548POPC   C4A71502  31.288  29.617   7.156
 5548POPC   C1B71503  31.680  29.977   6.188
 5548POPC   C2B71504  31.993  29.885   6.479
 5548POPC   C3B71505  31.925  29.972   6.864
 5548POPC   C4B71506  31.698  29.931   7.220
 5549POPC   NC371507  25.024  19.948   5.398
 5549POPC   PO471508  25.618  19.499   5.322
 5549POPC   GL171509  25.414  19.765   5.662
 5549POPC   GL271510  25.087  19.647   5.822
 5549POPC   C1A71511  25.397  20.003   6.070
 5549POPC   D2A71512  25.367  20.138   6.526
 5549POPC   C3A71513  25.389  19.838   6.846
 5549POPC   C4A71514  25.350  19.688   7.245
 5549POPC   C1B71515  24.917  19.682   6.256
 5549POPC   C2B71516  24.872  19.688   6.719
 5549POPC   C3B71517  24.937  19.942   7.069
 5549POPC   C4B71518  24.929  20.104   7.489
 5550POPC   NC371519   3.532   4.575   5.398
 5550POPC   PO471520   3.802   3.988   5.524
 5550POPC   GL171521   3.649   4.181   5.869
 5550POPC   GL271522   3.318   4.264   5.771
 5550POPC   C1A71523   3.612   4.200   6.320
 5550POPC   D2A71524   3.932   4.197   6.659
 5550POPC   C3A71525   3.794   4.454   7.014
 5550POPC   C4A71526   3.474   4.254   7.235
 5550POPC   C1B71527   3.157   4.436   6.175
 5550POPC   C2B71528   3.238   4.548   6.598
 5550POPC   C3B71529   3.068   4.379   6.964
 5550POPC   C4B71530   3.082   4.575   7.413
 5551POPC   NC371531  16.531  10.040   5.335
 5551POPC   PO471532  16.972   9.556   5.557
 5551POPC   GL171533  16.767   9.715   5.928
 5551POPC   GL271534  16.781  10.019   5.787
 5551POPC   C1A71535  16.780   9.507   6.314
 5551POPC   D2A71536  16.956   9.566   6.720
 5551POPC   C3A71537  16.666   9.527   7.056
 5551POPC   C4A71538  16.508   9.793   7.358
 5551POPC   C1B71539  16.605  10.170   6.168
 5551POPC   C2B71540  16.635   9.932   6.585
 5551POPC   C3B71541  16.692  10.076   6.991
 5551POPC   C4B71542  16.734  10.278   7.403
 5552POPC   NC371543  28.431  22.419   5.512
 5552POPC   PO471544  27.896  22.103   5.304
 5552POPC   GL171545  28.070  22.074   5.762
 5552POPC   GL271546  28.094  22.434   5.875
 5552POPC   C1A71547  28.316  21.835   6.133
 5552POPC   D2A71548  28.344  21.951   6.585
 5552POPC   C3A71549  28.593  21.799   6.913
 5552POPC   C4A71550  28.538  21.634   7.291
 5552POPC   C1B71551  28.355  22.333   6.252
 5552POPC   C2B71552  28.371  22.452   6.692
 5552POPC   C3B71553  28.303  22.219   7.020
 5552POPC   C4B71554  28.344  22.094   7.404
 5553POPC   NC371555  16.746  41.214   5.550
 5553POPC   PO471556  16.876  40.573   5.350
 5553POPC   GL171557  16.809  40.713   5.772
 5553POPC   GL271558  16.456  40.842   5.776
 5553POPC   C1A71559  16.747  40.809   6.229
 5553POPC   D2A71560  16.487  40.954   6.583
 5553POPC   C3A71561  16.666  40.848   6.975
 5553POPC   C4A71562  16.993  40.626   7.183
 5553POPC   C1B71563  16.424  40.454   6.027
 5553POPC   C2B71564  16.458  40.432   6.496
 5553POPC   C3B71565  16.338  40.459   6.935
 5553POPC   C4B71566  16.521  40.485   7.319
 5554POPC   NC371567  37.668  34.295   5.145
 5554POPC   PO471568  37.851  34.943   5.459
 5554POPC   GL171569  37.777  34.695   5.839
 5554POPC   GL271570  38.008  34.397   5.839
 5554POPC   C1A71571  37.601  34.618   6.280
 5554POPC   D2A71572  37.422  34.302   6.573
 5554POPC   C3A71573  37.548  34.386   6.982
 5554POPC   C4A71574  37.473  34.760   7.201
 5554POPC   C1B71575  38.110  34.462   6.284
 5554POPC   C2B71576  38.005  34.390   6.726
 5554POPC   C3B71577  37.988  34.599   7.139
 5554POPC   C4B71578  37.763  34.413   7.496
 5555POPC   NC371579   2.837   3.415   5.348
 5555POPC   PO471580   2.374   3.974   5.314
 5555POPC   GL171581   2.637   3.761   5.757
 5555POPC   GL271582   2.925   3.446   5.835
 5555POPC   C1A71583   2.931   3.810   6.166
 5555POPC   D2A71584   2.986   3.493   6.520
 5555POPC   C3A71585   2.966   3.632   6.968
 5555POPC   C4A71586   2.711   3.677   7.364
 5555POPC   C1B71587   2.609   3.377   6.160
 5555POPC   C2B71588   2.479   3.301   6.592
 5555POPC   C3B71589   2.530   3.294   7.049
 5555POPC   C4B71590   2.921   3.244   7.311
 5556POPC   NC371591  22.640  20.691   5.236
 5556POPC   PO471592  22.971  20.240   5.551
 5556POPC   GL171593  22.874  20.418   5.885
 5556POPC   GL271594  22.783  20.741   5.780
 5556POPC   C1A71595  23.091  20.388   6.276
 5556POPC   D2A71596  23.348  20.306   6.619
 5556POPC   C3A71597  23.117  20.372   6.971
 5556POPC   C4A71598  22.842  20.393   7.337
 5556POPC   C1B71599  23.015  20.885   6.182
 5556POPC   C2B71600  23.163  20.809   6.640
 5556POPC   C3B71601  22.930  20.838   7.067
 5556POPC   C4B71602  23.003  21.127   7.433
 5557POPC   NC371603  43.601  32.534   4.942
 5557POPC   PO471604  43.734  31.941   5.282
 5557POPC   GL171605  43.795  31.903   5.759
 5557POPC   GL271606  44.119  31.784   5.899
 5557POPC   C1A71607  43.819  32.162   6.151
 5557POPC   D2A71608  43.651  32.516   6.428
 5557POPC   C3A71609  43.628  32.397   6.838
 5557POPC   C4A71610  43.730  32.397   7.253
 5557POPC   C1B71611  44.271  31.885   6.301
 5557POPC   C2B71612  43.956  31.900   6.585
 5557POPC   C3B71613  43.975  32.028   6.989
 5557POPC   C4B71614  44.246  31.879   7.264
 5558POPC   NC371615  14.345  17.062   5.477
 5558POPC   PO471616  14.514  16.404   5.452
 5558POPC   GL171617  14.531  16.672   5.764
 5558POPC   GL271618  14.188  16.624   5.864
 5558POPC   C1A71619  14.572  16.942   6.106
 5558POPC   D2A71620  14.446  17.042   6.530
 5558POPC   C3A71621  14.565  16.896   6.915
 5558POPC   C4A71622  14.562  16.867   7.357
 5558POPC   C1B71623  14.388  16.512   6.283
 5558POPC   C2B71624  14.496  16.421   6.699
 5558POPC   C3B71625  14.312  16.471   7.095
 5558POPC   C4B71626  14.156  16.600   7.500
 5559POPC   NC371627  30.678   1.860   5.436
 5559POPC   PO471628  30.298   2.394   5.363
 5559POPC   GL171629  30.403   2.196   5.769
 5559POPC   GL271630  30.259   1.864   5.897
 5559POPC   C1A71631  30.778   2.240   6.011
 5559POPC   D2A71632  30.928   2.076   6.393
 5559POPC   C3A71633  30.975   2.180   6.820
 5559POPC   C4A71634  30.950   1.837   7.101
 5559POPC   C1B71635  30.385   2.108   6.304
 5559POPC   C2B71636  30.500   2.316   6.697
 5559POPC   C3B71637  30.597   2.239   7.186
 5559POPC   C4B71638  30.436   2.263   7.659
 5560POPC   NC371639  17.369  17.806   5.516
 5560POPC   PO471640  17.215  17.200   5.598
 5560POPC   GL171641  17.438  17.464   5.889
 5560POPC   GL271642  17.800  17.432   5.885
 5560POPC   C1A71643  17.518  17.642   6.283
 5560POPC   D2A71644  17.777  17.526   6.628
 5560POPC   C3A71645  17.715  17.807   6.962
 5560POPC   C4A71646  17.318  17.913   7.116
 5560POPC   C1B71647  17.674  17.144   6.251
 5560POPC   C2B71648  17.483  17.118   6.689
 5560POPC   C3B71649  17.509  17.359   7.107
 5560POPC   C4B71650  17.729  17.432   7.524
 5561POPC   NC371651   9.864  31.273   5.542
 5561POPC   PO471652   9.603  31.889   5.571
 5561POPC   GL171653   9.584  31.545   5.866
 5561POPC   GL271654   9.368  31.212   5.765
 5561POPC   C1A71655   9.919  31.537   6.173
 5561POPC   D2A71656  10.035  31.713   6.575
 5561POPC   C3A71657   9.760  31.684   6.918
 5561POPC   C4A71658   9.776  31.517   7.335
 5561POPC   C1B71659   9.580  31.102   6.148
 5561POPC   C2B71660   9.754  31.241   6.540
 5561POPC   C3B71661   9.702  31.159   6.943
 5561POPC   C4B71662   9.487  31.092   7.301
 5562POPC   NC371663  18.216  37.165   5.456
 5562POPC   PO471664  18.400  36.498   5.389
 5562POPC   GL171665  18.298  36.685   5.808
 5562POPC   GL271666  18.091  36.997   5.905
 5562POPC   C1A71667  18.386  36.799   6.248
 5562POPC   D2A71668  18.426  37.090   6.604
 5562POPC   C3A71669  18.301  36.861   6.975
 5562POPC   C4A71670  18.192  36.455   7.056
 5562POPC   C1B71671  18.035  37.249   6.311
 5562POPC   C2B71672  17.932  37.176   6.782
 5562POPC   C3B71673  17.986  37.161   7.254
 5562POPC   C4B71674  17.911  37.259   7.717
 5563POPC   NC371675  13.685  23.123   5.436
 5563POPC   PO471676  13.221  22.619   5.328
 5563POPC   GL171677  13.435  22.766   5.708
 5563POPC   GL271678  13.289  23.051   5.835
 5563POPC   C1A71679  13.579  22.752   6.166
 5563POPC   D2A71680  13.630  23.002   6.563
 5563POPC   C3A71681  13.771  22.869   6.967
 5563POPC   C4A71682  13.605  22.980   7.356
 5563POPC   C1B71683  13.315  23.238   6.235
 5563POPC   C2B71684  13.252  23.344   6.649
 5563POPC   C3B71685  13.549  23.383   7.021
 5563POPC   C4B71686  13.482  23.469   7.496
 5564POPC   NC371687  34.581  34.027   5.253
 5564POPC   PO471688  34.495  33.523   5.613
 5564POPC   GL171689  34.686  33.745   5.892
 5564POPC   GL271690  34.792  34.073   5.771
 5564POPC   C1A71691  34.378  34.015   6.117
 5564POPC   D2A71692  34.397  34.161   6.529
 5564POPC   C3A71693  34.404  33.859   6.845
 5564POPC   C4A71694  34.360  33.965   7.256
 5564POPC   C1B71695  34.870  34.074   6.243
 5564POPC   C2B71696  34.874  34.043   6.667
 5564POPC   C3B71697  34.857  33.975   7.072
 5564POPC   C4B71698  34.847  34.225   7.386
 5565POPC   NC371699  44.241  33.286   5.312
 5565POPC   PO471700  43.767  32.872   5.213
 5565POPC   GL171701  43.799  33.043   5.652
 5565POPC   GL271702  44.112  33.160   5.806
 5565POPC   C1A71703  43.797  32.864   6.081
 5565POPC   D2A71704  43.968  32.948   6.511
 5565POPC   C3A71705  43.695  32.907   6.879
 5565POPC   C4A71706  43.862  32.883   7.301
 5565POPC   C1B71707  44.288  33.290   6.207
 5565POPC   C2B71708  44.220  33.466   6.611
 5565POPC   C3B71709  44.130  33.221   6.978
 5565POPC   C4B71710  44.092  33.310   7.409
 5566POPC   NC371711  29.829  42.833   5.388
 5566POPC   PO471712  30.308  43.152   5.487
 5566POPC   GL171713  30.287  43.083   5.934
 5566POPC   GL271714  29.968  42.999   5.876
 5566POPC   C1A71715  30.110  43.299   6.329
 5566POPC   D2A71716  29.871  43.109   6.684
 5566POPC   C3A71717  29.909  43.066   7.138
 5566POPC   C4A71718  30.096  43.262   7.484
 5566POPC   C1B71719  29.885  42.806   6.264
 5566POPC   C2B71720  29.540  42.758   6.572
 5566POPC   C3B71721  29.584  42.691   7.020
 5566POPC   C4B71722  29.501  42.676   7.459
 5567POPC   NC371723  20.974  43.910   5.183
 5567POPC   PO471724  20.388  43.696   5.411
 5567POPC   GL171725  20.530  43.669   5.826
 5567POPC   GL271726  20.754  43.994   5.767
 5567POPC   C1A71727  20.537  43.626   6.294
 5567POPC   D2A71728  20.265  43.710   6.684
 5567POPC   C3A71729  20.520  43.705   7.076
 5567POPC   C4A71730  20.952  43.861   7.220
 5567POPC   C1B71731  20.394  44.105   6.033
 5567POPC   C2B71732  20.204  44.231   6.425
 5567POPC   C3B71733  20.384  44.219   6.838
 5567POPC   C4B71734  20.544  44.194   7.256
 5568POPC   NC371735  44.725  39.766   5.703
 5568POPC   PO471736  44.519  39.242   5.362
 5568POPC   GL171737  44.476  39.316   5.790
 5568POPC   GL271738  44.739  39.101   5.848
 5568POPC   C1A71739  44.484  39.432   6.228
 5568POPC   D2A71740  44.398  39.239   6.609
 5568POPC   C3A71741  44.491  39.511   6.916
 5568POPC   C4A71742  44.871  39.612   7.080
 5568POPC   C1B71743  44.676  38.945   6.271
 5568POPC   C2B71744  44.793  38.921   6.712
 5568POPC   C3B71745  44.737  39.111   7.090
 5568POPC   C4B71746  44.596  38.947   7.436
 5569POPC   NC371747   1.113   1.330   5.426
 5569POPC   PO471748   1.766   1.094   5.428
 5569POPC   GL171749   1.514   1.323   5.824
 5569POPC   GL271750   1.151   1.496   5.879
 5569POPC   C1A71751   1.365   1.383   6.304
 5569POPC   D2A71752   1.520   1.247   6.686
 5569POPC   C3A71753   1.261   1.238   7.034
 5569POPC   C4A71754   1.323   1.263   7.494
 5569POPC   C1B71755   0.863   1.527   6.216
 5569POPC   C2B71756   0.885   1.266   6.613
 5569POPC   C3B71757   0.775   1.411   6.993
 5569POPC   C4B71758   1.029   1.634   7.261
 5570POPC   NC371759   6.453  34.705   5.424
 5570POPC   PO471760   7.142  34.647   5.365
 5570POPC   GL171761   6.868  34.602   5.726
 5570POPC   GL271762   6.687  34.901   5.839
 5570POPC   C1A71763   6.878  34.616   6.195
 5570POPC   D2A71764   6.821  34.827   6.569
 5570POPC   C3A71765   6.677  34.619   6.926
 5570POPC   C4A71766   6.966  34.436   7.202
 5570POPC   C1B71767   6.455  35.005   6.255
 5570POPC   C2B71768   6.373  35.046   6.742
 5570POPC   C3B71769   6.276  34.845   7.184
 5570POPC   C4B71770   6.336  34.921   7.665
 5571POPC   NC371771  42.564  44.161   5.547
 5571POPC   PO471772  41.933  44.038   5.339
 5571POPC   GL171773  42.043  44.029   5.792
 5571POPC   GL271774  42.326  43.819   5.857
 5571POPC   C1A71775  41.976  43.935   6.245
 5571POPC   D2A71776  41.834  43.937   6.670
 5571POPC   C3A71777  42.118  43.847   6.989
 5571POPC   C4A71778  42.087  43.561   7.328
 5571POPC   C1B71779  42.420  44.153   6.181
 5571POPC   C2B71780  42.503  43.977   6.604
 5571POPC   C3B71781  42.612  43.721   6.973
 5571POPC   C4B71782  42.482  43.878   7.381
 5572POPC   NC371783  10.082  33.220   5.630
 5572POPC   PO471784   9.469  33.330   5.307
 5572POPC   GL171785   9.557  33.100   5.690
 5572POPC   GL271786   9.643  33.428   5.785
 5572POPC   C1A71787   9.720  32.988   6.131
 5572POPC   D2A71788  10.011  32.811   6.447
 5572POPC   C3A71789   9.825  32.792   6.818
 5572POPC   C4A71790   9.631  32.700   7.177
 5572POPC   C1B71791   9.378  33.507   6.105
 5572POPC   C2B71792   9.608  33.399   6.468
 5572POPC   C3B71793   9.725  33.300   6.890
 5572POPC   C4B71794   9.546  33.235   7.322
 5573POPC   NC371795  22.995  15.320   5.303
 5573POPC   PO471796  22.617  15.050   5.714
 5573POPC   GL171797  22.923  15.323   5.846
 5573POPC   GL271798  23.240  15.480   5.734
 5573POPC   C1A71799  22.857  15.456   6.259
 5573POPC   D2A71800  22.649  15.514   6.648
 5573POPC   C3A71801  22.729  15.116   6.855
 5573POPC   C4A71802  22.760  14.947   7.260
 5573POPC   C1B71803  23.337  15.286   6.141
 5573POPC   C2B71804  23.145  15.072   6.478
 5573POPC   C3B71805  23.289  15.086   6.889
 5573POPC   C4B71806  23.226  15.114   7.316
 5574POPC   NC371807  44.906  21.746   5.153
 5574POPC   PO471808  44.727  22.333   5.414
 5574POPC   GL171809  44.631  21.997   5.725
 5574POPC   GL271810  44.280  22.140   5.742
 5574POPC   C1A71811  44.749  21.979   6.184
 5574POPC   D2A71812  44.718  22.329   6.508
 5574POPC   C3A71813  44.901  22.412   6.929
 5574POPC   C4A71814  44.818  22.256   7.371
 5574POPC   C1B71815  44.259  22.110   6.201
 5574POPC   C2B71816  44.371  21.962   6.609
 5574POPC   C3B71817  44.494  22.108   6.985
 5574POPC   C4B71818  44.311  22.143   7.383
 5575POPC   NC371819  43.491  20.866   5.393
 5575POPC   PO471820  44.152  20.578   5.333
 5575POPC   GL171821  43.878  20.651   5.691
 5575POPC   GL271822  43.660  20.350   5.652
 5575POPC   C1A71823  43.796  20.845   6.120
 5575POPC   D2A71824  43.773  20.769   6.592
 5575POPC   C3A71825  43.926  20.837   7.037
 5575POPC   C4A71826  44.074  20.483   7.281
 5575POPC   C1B71827  43.642  20.342   6.108
 5575POPC   C2B71828  43.648  20.233   6.567
 5575POPC   C3B71829  43.616  20.425   6.971
 5575POPC   C4B71830  43.420  20.778   7.203
 5576POPC   NC371831  33.125  37.548   5.495
 5576POPC   PO471832  32.630  38.067   5.400
 5576POPC   GL171833  32.853  37.910   5.787
 5576POPC   GL271834  33.231  37.955   5.826
 5576POPC   C1A71835  32.924  37.818   6.246
 5576POPC   D2A71836  33.054  37.542   6.602
 5576POPC   C3A71837  33.032  37.745   7.004
 5576POPC   C4A71838  32.724  37.849   7.285
 5576POPC   C1B71839  33.440  37.834   6.234
 5576POPC   C2B71840  33.415  37.966   6.699
 5576POPC   C3B71841  33.493  37.880   7.152
 5576POPC   C4B71842  33.434  37.415   7.184
 5577POPC   NC371843  14.948  27.112   5.471
 5577POPC   PO471844  15.348  26.611   5.434
 5577POPC   GL171845  15.234  26.851   5.807
 5577POPC   GL271846  14.898  26.935   5.932
 5577POPC   C1A71847  15.336  27.131   6.151
 5577POPC   D2A71848  15.478  27.103   6.574
 5577POPC   C3A71849  15.312  26.791   6.839
 5577POPC   C4A71850  15.397  26.888   7.266
 5577POPC   C1B71851  14.988  26.631   6.231
 5577POPC   C2B71852  14.741  26.603   6.602
 5577POPC   C3B71853  14.721  26.898   6.917
 5577POPC   C4B71854  14.905  26.781   7.314
 5578POPC   NC371855  37.985  20.956   5.438
 5578POPC   PO471856  37.574  20.395   5.179
 5578POPC   GL171857  37.647  20.602   5.615
 5578POPC   GL271858  37.872  20.381   5.781
 5578POPC   C1A71859  37.736  20.886   6.031
 5578POPC   D2A71860  37.663  20.835   6.515
 5578POPC   C3A71861  37.457  20.994   6.914
 5578POPC   C4A71862  37.725  20.949   7.285
 5578POPC   C1B71863  37.975  20.452   6.208
 5578POPC   C2B71864  37.871  20.363   6.612
 5578POPC   C3B71865  37.934  20.618   6.947
 5578POPC   C4B71866  37.906  20.468   7.344
 5579POPC   NC371867   2.186  25.837   5.353
 5579POPC   PO471868   1.684  26.348   5.370
 5579POPC   GL171869   1.954  26.154   5.717
 5579POPC   GL271870   1.876  25.809   5.824
 5579POPC   C1A71871   2.124  26.118   6.151
 5579POPC   D2A71872   2.142  26.328   6.565
 5579POPC   C3A71873   2.290  26.147   6.969
 5579POPC   C4A71874   2.216  26.311   7.375
 5579POPC   C1B71875   1.776  25.752   6.251
 5579POPC   C2B71876   2.041  25.833   6.612
 5579POPC   C3B71877   2.082  25.673   7.020
 5579POPC   C4B71878   1.970  25.812   7.422
 5580POPC   NC371879  21.859  12.763   5.214
 5580POPC   PO471880  22.415  13.032   5.548
 5580POPC   GL171881  22.454  12.838   5.954
 5580POPC   GL271882  22.139  12.701   5.820
 5580POPC   C1A71883  22.492  12.881   6.418
 5580POPC   D2A71884  22.195  13.213   6.609
 5580POPC   C3A71885  22.059  13.095   7.008
 5580POPC   C4A71886  22.371  12.782   7.157
 5580POPC   C1B71887  22.025  12.867   6.232
 5580POPC   C2B71888  22.047  12.699   6.646
 5580POPC   C3B71889  21.823  12.642   7.013
 5580POPC   C4B71890  21.932  12.560   7.442
 5581POPC   NC371891   9.456  23.856   5.468
 5581POPC   PO471892  10.061  24.023   5.525
 5581POPC   GL171893   9.812  23.889   5.866
 5581POPC   GL271894   9.901  23.583   5.943
 5581POPC   C1A71895   9.702  23.832   6.319
 5581POPC   D2A71896   9.904  23.816   6.729
 5581POPC   C3A71897   9.553  23.751   7.061
 5581POPC   C4A71898   9.579  23.650   7.502
 5581POPC   C1B71899   9.907  23.369   6.322
 5581POPC   C2B71900   9.578  23.448   6.652
 5581POPC   C3B71901   9.879  23.362   6.968
 5581POPC   C4B71902  10.045  23.320   7.365
 5582POPC   NC371903  10.688  22.727   5.364
 5582POPC   PO471904  10.380  23.218   5.309
 5582POPC   GL171905  10.554  23.156   5.732
 5582POPC   GL271906  10.333  23.324   5.950
 5582POPC   C1A71907  10.739  23.084   6.177
 5582POPC   D2A71908  10.554  23.124   6.594
 5582POPC   C3A71909  10.675  22.912   6.978
 5582POPC   C4A71910  10.575  23.168   7.345
 5582POPC   C1B71911  10.227  22.959   6.153
 5582POPC   C2B71912  10.148  22.797   6.565
 5582POPC   C3B71913  10.159  22.930   7.001
 5582POPC   C4B71914  10.201  22.851   7.444
 5583POPC   NC371915   4.558  15.302   5.452
 5583POPC   PO471916   4.214  14.751   5.592
 5583POPC   GL171917   4.189  15.142   5.842
 5583POPC   GL271918   3.920  15.377   5.798
 5583POPC   C1A71919   4.304  15.316   6.253
 5583POPC   D2A71920   4.507  15.430   6.654
 5583POPC   C3A71921   4.483  15.043   6.918
 5583POPC   C4A71922   4.418  14.914   7.356
 5583POPC   C1B71923   3.858  15.516   6.224
 5583POPC   C2B71924   3.964  15.361   6.679
 5583POPC   C3B71925   4.101  15.351   7.138
 5583POPC   C4B71926   3.934  15.363   7.583
 5584POPC   NC371927  12.286  32.014   5.304
 5584POPC   PO471928  12.048  32.665   5.283
 5584POPC   GL171929  12.200  32.405   5.646
 5584POPC   GL271930  11.962  32.142   5.713
 5584POPC   C1A71931  12.296  32.283   6.097
 5584POPC   D2A71932  12.084  32.360   6.507
 5584POPC   C3A71933  12.252  32.232   6.910
 5584POPC   C4A71934  12.272  32.292   7.341
 5584POPC   C1B71935  11.881  31.996   6.162
 5584POPC   C2B71936  11.939  31.828   6.606
 5584POPC   C3B71937  11.896  31.924   7.081
 5584POPC   C4B71938  11.889  32.004   7.531
 5585POPC   NC371939   4.690   9.834   5.472
 5585POPC   PO471940   4.094   9.601   5.270
 5585POPC   GL171941   4.154   9.686   5.733
 5585POPC   GL271942   4.448   9.839   5.911
 5585POPC   C1A71943   4.057   9.717   6.203
 5585POPC   D2A71944   4.221   9.892   6.591
 5585POPC   C3A71945   4.169   9.726   7.018
 5585POPC   C4A71946   4.420   9.881   7.378
 5585POPC   C1B71947   4.581   9.654   6.317
 5585POPC   C2B71948   4.684   9.386   6.647
 5585POPC   C3B71949   4.585   9.436   7.066
 5585POPC   C4B71950   4.870   9.626   7.282
 5586POPC   NC371951  10.928  15.038   5.249
 5586POPC   PO471952  11.369  15.522   5.259
 5586POPC   GL171953  11.183  15.396   5.671
 5586POPC   GL271954  10.914  15.129   5.776
 5586POPC   C1A71955  11.260  15.308   6.112
 5586POPC   D2A71956  10.998  15.338   6.487
 5586POPC   C3A71957  11.243  15.333   6.867
 5586POPC   C4A71958  11.573  15.037   7.019
 5586POPC   C1B71959  11.000  14.868   6.179
 5586POPC   C2B71960  11.255  14.875   6.586
 5586POPC   C3B71961  11.099  14.875   7.040
 5586POPC   C4B71962  11.043  15.179   7.348
 5587POPC   NC371963  30.154  15.951   5.376
 5587POPC   PO471964  29.623  16.348   5.276
 5587POPC   GL171965  29.722  16.164   5.711
 5587POPC   GL271966  30.091  16.170   5.815
 5587POPC   C1A71967  29.798  16.089   6.201
 5587POPC   D2A71968  29.726  16.226   6.644
 5587POPC   C3A71969  29.781  15.939   7.014
 5587POPC   C4A71970  30.080  15.592   7.094
 5587POPC   C1B71971  30.263  16.331   6.191
 5587POPC   C2B71972  30.372  16.176   6.611
 5587POPC   C3B71973  30.172  16.252   6.994
 5587POPC   C4B71974  30.098  16.494   7.387
 5588POPC   NC371975   8.976  34.225   5.174
 5588POPC   PO471976   9.074  34.821   5.396
 5588POPC   GL171977   8.866  34.529   5.683
 5588POPC   GL271978   8.800  34.822   5.875
 5588POPC   C1A71979   8.608  34.399   6.074
 5588POPC   D2A71980   8.556  34.636   6.479
 5588POPC   C3A71981   8.631  34.470   6.905
 5588POPC   C4A71982   8.645  34.108   7.169
 5588POPC   C1B71983   9.027  34.650   6.218
 5588POPC   C2B71984   9.085  34.757   6.635
 5588POPC   C3B71985   9.131  34.589   7.032
 5588POPC   C4B71986   8.860  34.586   7.370
 5589POPC   NC371987   9.849   0.947   5.450
 5589POPC   PO471988   9.847   1.585   5.384
 5589POPC   GL171989   9.672   1.331   5.739
 5589POPC   GL271990  10.002   1.276   5.818
 5589POPC   C1A71991   9.581   1.034   6.111
 5589POPC   D2A71992   9.496   1.172   6.553
 5589POPC   C3A71993   9.696   1.024   6.932
 5589POPC   C4A71994   9.615   1.117   7.346
 5589POPC   C1B71995   9.971   1.310   6.250
 5589POPC   C2B71996  10.067   1.219   6.636
 5589POPC   C3B71997  10.215   1.309   7.043
 5589POPC   C4B71998  10.025   1.461   7.430
 5590POPC   NC371999  41.830  21.026   5.262
 5590POPC   PO472000  41.462  20.523   5.429
 5590POPC   GL172001  41.621  20.790   5.748
 5590POPC   GL272002  41.812  20.483   5.826
 5590POPC   C1A72003  41.549  20.948   6.193
 5590POPC   D2A72004  41.618  20.752   6.615
 5590POPC   C3A72005  41.507  20.908   7.027
 5590POPC   C4A72006  41.585  20.779   7.446
 5590POPC   C1B72007  41.649  20.422   6.217
 5590POPC   C2B72008  41.704  20.241   6.614
 5590POPC   C3B72009  41.631  20.401   7.011
 5590POPC   C4B72010  41.875  20.394   7.360
 5591POPC   NC372011  32.739  12.635   5.192
 5591POPC   PO472012  33.071  12.072   5.467
 5591POPC   GL172013  33.054  11.952   5.874
 5591POPC   GL272014  32.748  11.756   5.846
 5591POPC   C1A72015  33.263  11.893   6.296
 5591POPC   D2A72016  33.151  11.704   6.705
 5591POPC   C3A72017  33.153  12.009   7.061
 5591POPC   C4A72018  33.155  12.013   7.510
 5591POPC   C1B72019  32.692  12.047   6.212
 5591POPC   C2B72020  32.817  12.078   6.611
 5591POPC   C3B72021  32.692  11.807   6.933
 5591POPC   C4B72022  32.667  12.062   7.273
 5592POPC   NC372023  35.316  42.197   5.612
 5592POPC   PO472024  35.483  42.814   5.458
 5592POPC   GL172025  35.434  42.631   5.868
 5592POPC   GL272026  35.119  42.677   5.961
 5592POPC   C1A72027  35.464  42.322   6.226
 5592POPC   D2A72028  35.583  42.411   6.621
 5592POPC   C3A72029  35.491  42.161   6.956
 5592POPC   C4A72030  35.646  42.208   7.357
 5592POPC   C1B72031  34.942  42.360   6.247
 5592POPC   C2B72032  35.074  42.248   6.638
 5592POPC   C3B72033  35.117  42.504   7.009
 5592POPC   C4B72034  35.116  42.216   7.329
 5593POPC   NC372035   6.090  26.064   5.294
 5593POPC   PO472036   5.475  25.862   5.388
 5593POPC   GL172037   5.723  26.158   5.671
 5593POPC   GL272038   6.046  25.951   5.780
 5593POPC   C1A72039   5.766  26.222   6.125
 5593POPC   D2A72040   5.640  25.914   6.456
 5593POPC   C3A72041   5.796  25.937   6.889
 5593POPC   C4A72042   5.620  26.034   7.303
 5593POPC   C1B72043   6.292  26.100   6.119
 5593POPC   C2B72044   6.113  26.128   6.507
 5593POPC   C3B72045   6.229  26.239   6.931
 5593POPC   C4B72046   6.130  26.027   7.309
 5594POPC   NC372047  11.529   3.884   5.430
 5594POPC   PO472048  11.444   3.162   5.464
 5594POPC   GL172049  11.284   3.487   5.709
 5594POPC   GL272050  11.434   3.265   5.965
 5594POPC   C1A72051  11.147   3.617   6.145
 5594POPC   D2A72052  10.966   3.550   6.561
 5594POPC   C3A72053  11.063   3.659   6.994
 5594POPC   C4A72054  11.392   3.759   7.246
 5594POPC   C1B72055  11.317   3.186   6.392
 5594POPC   C2B72056  11.450   3.408   6.756
 5594POPC   C3B72057  11.470   3.273   7.133
 5594POPC   C4B72058  11.105   3.163   7.266
 5595POPC   NC372059   8.410  30.101   5.502
 5595POPC   PO472060   7.918  29.678   5.547
 5595POPC   GL172061   8.159  29.857   5.895
 5595POPC   GL272062   8.524  29.920   5.943
 5595POPC   C1A72063   8.243  29.647   6.271
 5595POPC   D2A72064   8.195  29.378   6.588
 5595POPC   C3A72065   8.106  29.596   6.940
 5595POPC   C4A72066   8.339  29.902   7.214
 5595POPC   C1B72067   8.392  30.141   6.292
 5595POPC   C2B72068   8.440  29.947   6.675
 5595POPC   C3B72069   8.629  30.221   6.931
 5595POPC   C4B72070   8.396  30.401   7.239
 5596POPC   NC372071   0.954  43.881   5.422
 5596POPC   PO472072   1.566  43.583   5.518
 5596POPC   GL172073   1.387  43.881   5.821
 5596POPC   GL272074   1.664  44.115   5.946
 5596POPC   C1A72075   1.071  43.755   6.158
 5596POPC   D2A72076   1.073  43.574   6.596
 5596POPC   C3A72077   1.306  43.794   6.924
 5596POPC   C4A72078   1.177  44.047   7.297
 5596POPC   C1B72079   1.528  43.920   6.338
 5596POPC   C2B72080   1.759  43.999   6.707
 5596POPC   C3B72081   1.643  44.140   7.120
 5596POPC   C4B72082   1.598  44.198   7.583
 5597POPC   NC372083   2.410   0.907   5.544
 5597POPC   PO472084   2.927   1.433   5.350
 5597POPC   GL172085   2.774   1.300   5.736
 5597POPC   GL272086   2.804   0.931   5.840
 5597POPC   C1A72087   2.731   1.567   6.107
 5597POPC   D2A72088   2.574   1.485   6.535
 5597POPC   C3A72089   2.861   1.440   6.904
 5597POPC   C4A72090   2.682   1.448   7.292
 5597POPC   C1B72091   2.766   1.076   6.238
 5597POPC   C2B72092   2.819   0.993   6.646
 5597POPC   C3B72093   2.580   1.034   7.016
 5597POPC   C4B72094   2.637   0.949   7.432
 5598POPC   NC372095  36.775  16.639   5.413
 5598POPC   PO472096  37.434  16.710   5.452
 5598POPC   GL172097  37.184  16.681   5.845
 5598POPC   GL272098  36.869  16.447   5.898
 5598POPC   C1A72099  37.159  16.575   6.297
 5598POPC   D2A72100  36.834  16.550   6.620
 5598POPC   C3A72101  36.933  16.777   6.965
 5598POPC   C4A72102  37.254  16.631   7.239
 5598POPC   C1B72103  36.544  16.357   6.246
 5598POPC   C2B72104  36.363  16.364   6.670
 5598POPC   C3B72105  36.566  16.321   7.074
 5598POPC   C4B72106  36.714  16.592   7.401
 5599POPC   NC372107  39.923  32.708   5.096
 5599POPC   PO472108  40.259  32.322   5.595
 5599POPC   GL172109  40.003  32.404   5.914
 5599POPC   GL272110  39.923  32.705   5.961
 5599POPC   C1A72111  39.862  32.181   6.239
 5599POPC   D2A72112  40.065  32.102   6.620
 5599POPC   C3A72113  39.877  32.185   7.014
 5599POPC   C4A72114  40.160  32.133   7.337
 5599POPC   C1B72115  40.034  32.622   6.389
 5599POPC   C2B72116  39.730  32.516   6.654
 5599POPC   C3B72117  39.758  32.737   6.983
 5599POPC   C4B72118  39.930  32.610   7.354
 5600POPC   NC372119  10.337  16.454   5.457
 5600POPC   PO472120  10.649  17.103   5.370
 5600POPC   GL172121  10.622  16.914   5.846
 5600POPC   GL272122  10.269  16.869   5.994
 5600POPC   C1A72123  10.583  16.977   6.354
 5600POPC   D2A72124  10.426  16.999   6.768
 5600POPC   C3A72125  10.527  16.658   7.058
 5600POPC   C4A72126  10.740  16.930   7.301
 5600POPC   C1B72127  10.438  16.504   6.228
 5600POPC   C2B72128  10.341  16.371   6.668
 5600POPC   C3B72129  10.096  16.371   7.075
 5600POPC   C4B72130  10.214  16.566   7.496
 5601POPC   NC372131   0.455  12.443   5.405
 5601POPC   PO472132   0.208  11.896   5.524
 5601POPC   GL172133   0.546  11.999   5.825
 5601POPC   GL272134   0.707  12.321   5.829
 5601POPC   C1A72135   0.784  11.979   6.217
 5601POPC   D2A72136   0.893  11.830   6.655
 5601POPC   C3A72137   0.575  11.998   6.960
 5601POPC   C4A72138   0.415  12.015   7.391
 5601POPC   C1B72139   0.598  12.461   6.260
 5601POPC   C2B72140   0.639  12.493   6.749
 5601POPC   C3B72141   0.504  12.518   7.202
 5601POPC   C4B72142   0.545  12.470   7.670
 5602POPC   NC372143  33.489  29.572   5.541
 5602POPC   PO472144  33.959  29.083   5.486
 5602POPC   GL172145  33.901  29.147   5.883
 5602POPC   GL272146  34.143  29.422   5.854
 5602POPC   C1A72147  33.795  28.908   6.262
 5602POPC   D2A72148  33.602  29.061   6.625
 5602POPC   C3A72149  33.799  28.938   7.004
 5602POPC   C4A72150  33.684  29.138   7.365
 5602POPC   C1B72151  34.168  29.305   6.285
 5602POPC   C2B72152  34.105  29.202   6.697
 5602POPC   C3B72153  34.048  29.396   7.085
 5602POPC   C4B72154  34.225  29.683   7.375
 5603POPC   NC372155  22.946  29.418   5.315
 5603POPC   PO472156  23.289  28.925   5.438
 5603POPC   GL172157  23.187  29.156   5.804
 5603POPC   GL272158  23.257  29.523   5.759
 5603POPC   C1A72159  22.960  29.031   6.205
 5603POPC   D2A72160  22.681  29.123   6.571
 5603POPC   C3A72161  22.720  28.918   6.999
 5603POPC   C4A72162  22.997  28.953   7.374
 5603POPC   C1B72163  23.158  29.498   6.203
 5603POPC   C2B72164  23.166  29.270   6.608
 5603POPC   C3B72165  22.989  29.350   7.021
 5603POPC   C4B72166  23.270  29.401   7.366
 5604POPC   NC372167  23.982  11.358   5.298
 5604POPC   PO472168  23.373  11.626   5.309
 5604POPC   GL172169  23.450  11.406   5.685
 5604POPC   GL272170  23.771  11.353   5.782
 5604POPC   C1A72171  23.387  11.250   6.106
 5604POPC   D2A72172  23.526  11.398   6.492
 5604POPC   C3A72173  23.584  11.213   6.866
 5604POPC   C4A72174  23.593  11.123   7.288
 5604POPC   C1B72175  23.958  11.527   6.175
 5604POPC   C2B72176  24.026  11.459   6.635
 5604POPC   C3B72177  24.002  11.430   7.109
 5604POPC   C4B72178  23.968  11.741   7.453
 5605POPC   NC372179  14.689  19.736   5.449
 5605POPC   PO472180  14.105  20.081   5.477
 5605POPC   GL172181  14.365  19.957   5.777
 5605POPC   GL272182  14.635  20.182   5.677
 5605POPC   C1A72183  14.432  19.754   6.173
 5605POPC   D2A72184  14.272  19.882   6.568
 5605POPC   C3A72185  14.063  19.631   6.858
 5605POPC   C4A72186  14.369  19.682   7.160
 5605POPC   C1B72187  14.594  20.255   6.115
 5605POPC   C2B72188  14.636  20.277   6.567
 5605POPC   C3B72189  14.654  20.114   7.018
 5605POPC   C4B72190  14.632  20.165   7.519
 5606POPC   NC372191   1.606   5.303   5.565
 5606POPC   PO472192   2.151   5.107   5.139
 5606POPC   GL172193   2.120   5.202   5.637
 5606POPC   GL272194   2.250   5.531   5.730
 5606POPC   C1A72195   2.186   5.002   6.113
 5606POPC   D2A72196   2.373   4.886   6.556
 5606POPC   C3A72197   2.092   4.878   6.930
 5606POPC   C4A72198   1.817   5.131   7.149
 5606POPC   C1B72199   1.996   5.469   6.104
 5606POPC   C2B72200   1.971   5.243   6.506
 5606POPC   C3B72201   2.233   5.356   6.817
 5606POPC   C4B72202   2.188   5.476   7.222
 5607POPC   NC372203  16.832  29.159   5.459
 5607POPC   PO472204  16.208  28.967   5.235
 5607POPC   GL172205  16.373  29.060   5.710
 5607POPC   GL272206  16.483  29.411   5.761
 5607POPC   C1A72207  16.570  28.916   6.163
 5607POPC   D2A72208  16.683  28.785   6.616
 5607POPC   C3A72209  16.565  28.998   7.023
 5607POPC   C4A72210  16.392  28.848   7.445
 5607POPC   C1B72211  16.727  29.457   6.171
 5607POPC   C2B72212  16.703  29.669   6.601
 5607POPC   C3B72213  16.958  29.621   6.931
 5607POPC   C4B72214  16.996  29.318   7.192
 5608POPC   NC372215   3.097   2.723   5.315
 5608POPC   PO472216   2.479   3.021   5.295
 5608POPC   GL172217   2.785   2.963   5.650
 5608POPC   GL272218   2.750   2.599   5.727
 5608POPC   C1A72219   2.922   2.962   6.089
 5608POPC   D2A72220   2.813   2.826   6.507
 5608POPC   C3A72221   2.935   2.998   6.868
 5608POPC   C4A72222   2.700   2.814   7.217
 5608POPC   C1B72223   2.827   2.457   6.165
 5608POPC   C2B72224   3.027   2.335   6.587
 5608POPC   C3B72225   2.900   2.398   7.029
 5608POPC   C4B72226   2.922   2.411   7.505
 5609POPC   NC372227  37.794   0.912   5.367
 5609POPC   PO472228  37.381   0.365   5.372
 5609POPC   GL172229  37.543   0.562   5.722
 5609POPC   GL272230  37.193   0.607   5.784
 5609POPC   C1A72231  37.681   0.458   6.157
 5609POPC   D2A72232  37.943   0.273   6.493
 5609POPC   C3A72233  37.791   0.384   6.914
 5609POPC   C4A72234  38.035   0.348   7.275
 5609POPC   C1B72235  37.213   0.688   6.209
 5609POPC   C2B72236  37.449   0.706   6.594
 5609POPC   C3B72237  37.346   0.716   7.038
 5609POPC   C4B72238  37.425   0.512   7.430
 5610POPC   NC372239  38.695   9.996   5.465
 5610POPC   PO472240  38.238   9.522   5.299
 5610POPC   GL172241  38.466   9.562   5.705
 5610POPC   GL272242  38.434   9.889   5.895
 5610POPC   C1A72243  38.587   9.475   6.128
 5610POPC   D2A72244  38.407   9.660   6.456
 5610POPC   C3A72245  38.404   9.610   6.873
 5610POPC   C4A72246  38.371   9.519   7.304
 5610POPC   C1B72247  38.380  10.128   6.267
 5610POPC   C2B72248  38.532  10.089   6.691
 5610POPC   C3B72249  38.482  10.086   7.113
 5610POPC   C4B72250  38.408   9.968   7.506
 5611POPC   NC372251   7.539  24.733   5.307
 5611POPC   PO472252   7.044  24.362   5.442
 5611POPC   GL172253   7.352  24.370   5.748
 5611POPC   GL272254   7.358  24.734   5.822
 5611POPC   C1A72255   7.218  24.213   6.152
 5611POPC   D2A72256   7.107  24.112   6.564
 5611POPC   C3A72257   7.266  24.367   6.895
 5611POPC   C4A72258   7.421  24.362   7.308
 5611POPC   C1B72259   7.231  24.726   6.270
 5611POPC   C2B72260   7.138  24.858   6.693
 5611POPC   C3B72261   7.194  24.817   7.140
 5611POPC   C4B72262   7.188  24.750   7.621
 5612POPC   NC372263  36.442  44.353   5.311
 5612POPC   PO472264  36.056  43.736   5.368
 5612POPC   GL172265  36.066  43.856   5.791
 5612POPC   GL272266  36.409  43.720   5.827
 5612POPC   C1A72267  35.882  43.987   6.193
 5612POPC   D2A72268  36.103  44.103   6.579
 5612POPC   C3A72269  35.902  43.913   6.904
 5612POPC   C4A72270  35.683  44.057   7.219
 5612POPC   C1B72271  36.327  43.705   6.262
 5612POPC   C2B72272  36.215  43.590   6.657
 5612POPC   C3B72273  36.373  43.700   7.049
 5612POPC   C4B72274  36.377  43.774   7.532
 5613POPC   NC372275  28.315  33.238   5.661
 5613POPC   PO472276  28.509  32.661   5.356
 5613POPC   GL172277  28.308  32.710   5.746
 5613POPC   GL272278  27.929  32.697   5.678
 5613POPC   C1A72279  28.503  32.860   6.171
 5613POPC   D2A72280  28.576  33.098   6.557
 5613POPC   C3A72281  28.711  32.971   6.963
 5613POPC   C4A72282  28.482  32.803   7.275
 5613POPC   C1B72283  27.949  32.772   6.118
 5613POPC   C2B72284  28.180  32.630   6.480
 5613POPC   C3B72285  28.209  32.875   6.836
 5613POPC   C4B72286  28.069  33.085   7.160
 5614POPC   NC372287   9.280  13.176   5.395
 5614POPC   PO472288   8.684  12.852   5.256
 5614POPC   GL172289   8.864  12.952   5.641
 5614POPC   GL272290   8.619  13.199   5.711
 5614POPC   C1A72291   9.041  12.868   6.080
 5614POPC   D2A72292   9.035  12.604   6.453
 5614POPC   C3A72293   9.145  12.779   6.845
 5614POPC   C4A72294   9.016  12.819   7.250
 5614POPC   C1B72295   8.649  13.301   6.181
 5614POPC   C2B72296   8.809  13.100   6.569
 5614POPC   C3B72297   8.671  13.068   6.994
 5614POPC   C4B72298   8.678  13.144   7.443
 5615POPC   NC372299  21.929  10.066   5.100
 5615POPC   PO472300  22.278   9.625   5.456
 5615POPC   GL172301  22.141   9.817   5.844
 5615POPC   GL272302  21.820   9.914   5.912
 5615POPC   C1A72303  22.238   9.674   6.266
 5615POPC   D2A72304  22.375   9.884   6.634
 5615POPC   C3A72305  22.455   9.655   7.015
 5615POPC   C4A72306  22.266   9.745   7.426
 5615POPC   C1B72307  21.720   9.737   6.313
 5615POPC   C2B72308  21.802   9.612   6.725
 5615POPC   C3B72309  21.939   9.344   7.047
 5615POPC   C4B72310  21.897   9.347   7.494
 5616POPC   NC372311  32.619  15.048   5.427
 5616POPC   PO472312  31.960  15.124   5.287
 5616POPC   GL172313  32.199  15.229   5.664
 5616POPC   GL272314  32.203  15.557   5.763
 5616POPC   C1A72315  32.343  15.176   6.118
 5616POPC   D2A72316  32.290  14.909   6.501
 5616POPC   C3A72317  32.323  15.058   6.922
 5616POPC   C4A72318  32.291  14.838   7.326
 5616POPC   C1B72319  31.962  15.543   6.152
 5616POPC   C2B72320  32.156  15.579   6.566
 5616POPC   C3B72321  32.044  15.512   7.007
 5616POPC   C4B72322  32.354  15.368   7.337
 5617POPC   NC372323  34.985  13.155   5.352
 5617POPC   PO472324  34.454  12.832   5.372
 5617POPC   GL172325  34.740  12.875   5.712
 5617POPC   GL272326  34.837  12.559   5.815
 5617POPC   C1A72327  34.806  13.002   6.146
 5617POPC   D2A72328  34.568  12.798   6.480
 5617POPC   C3A72329  34.641  12.868   6.912
 5617POPC   C4A72330  34.328  12.816   7.223
 5617POPC   C1B72331  35.069  12.564   6.204
 5617POPC   C2B72332  35.077  12.781   6.607
 5617POPC   C3B72333  35.048  12.558   6.989
 5617POPC   C4B72334  35.301  12.507   7.346
 5618POPC   NC372335  30.471  23.566   5.407
 5618POPC   PO472336  30.681  24.142   5.364
 5618POPC   GL172337  30.585  23.935   5.740
 5618POPC   GL272338  30.849  23.698   5.730
 5618POPC   C1A72339  30.514  23.707   6.133
 5618POPC   D2A72340  30.325  23.822   6.554
 5618POPC   C3A72341  30.454  23.686   6.964
 5618POPC   C4A72342  30.466  23.793   7.395
 5618POPC   C1B72343  30.965  23.976   6.079
 5618POPC   C2B72344  30.841  23.886   6.494
 5618POPC   C3B72345  30.874  23.960   6.919
 5618POPC   C4B72346  31.006  24.043   7.312
 5619POPC   NC372347  20.083   9.237   5.409
 5619POPC   PO472348  19.544   8.784   5.467
 5619POPC   GL172349  19.695   9.027   5.770
 5619POPC   GL272350  20.020   8.885   5.775
 5619POPC   C1A72351  19.706   8.838   6.189
 5619POPC   D2A72352  19.561   8.883   6.596
 5619POPC   C3A72353  19.699   9.034   6.974
 5619POPC   C4A72354  19.534   9.038   7.401
 5619POPC   C1B72355  20.212   8.953   6.169
 5619POPC   C2B72356  20.101   8.841   6.591
 5619POPC   C3B72357  20.211   9.060   6.963
 5619POPC   C4B72358  20.047   9.086   7.401
 5620POPC   NC372359  28.267  34.739   5.040
 5620POPC   PO472360  28.325  34.942   5.694
 5620POPC   GL172361  28.346  34.548   5.909
 5620POPC   GL272362  28.052  34.291   5.918
 5620POPC   C1A72363  28.497  34.586   6.327
 5620POPC   D2A72364  28.349  34.369   6.678
 5620POPC   C3A72365  28.368  34.663   7.004
 5620POPC   C4A72366  28.642  34.775   7.306
 5620POPC   C1B72367  27.966  34.679   6.208
 5620POPC   C2B72368  27.930  34.833   6.625
 5620POPC   C3B72369  27.864  34.489   6.848
 5620POPC   C4B72370  28.067  34.274   7.134
 5621POPC   NC372371   4.720   5.751   5.417
 5621POPC   PO472372   5.336   5.525   5.586
 5621POPC   GL172373   5.012   5.718   5.837
 5621POPC   GL272374   4.840   6.034   5.832
 5621POPC   C1A72375   4.966   5.773   6.256
 5621POPC   D2A72376   5.226   5.622   6.573
 5621POPC   C3A72377   5.116   5.822   6.955
 5621POPC   C4A72378   4.812   5.688   7.247
 5621POPC   C1B72379   4.693   6.248   6.219
 5621POPC   C2B72380   4.736   6.098   6.666
 5621POPC   C3B72381   4.754   6.181   7.117
 5621POPC   C4B72382   4.604   6.123   7.520
 5622POPC   NC372383  38.778   6.107   5.545
 5622POPC   PO472384  38.420   5.544   5.498
 5622POPC   GL172385  38.502   5.759   5.882
 5622POPC   GL272386  38.326   6.084   5.868
 5622POPC   C1A72387  38.452   5.805   6.358
 5622POPC   D2A72388  38.352   6.023   6.766
 5622POPC   C3A72389  38.205   5.793   7.113
 5622POPC   C4A72390  38.330   5.825   7.532
 5622POPC   C1B72391  38.580   6.261   6.157
 5622POPC   C2B72392  38.771   6.202   6.548
 5622POPC   C3B72393  38.786   6.324   6.997
 5622POPC   C4B72394  38.765   6.156   7.413
 5623POPC   NC372395  24.546  12.169   5.142
 5623POPC   PO472396  24.065  12.303   5.560
 5623POPC   GL172397  24.278  12.427   5.902
 5623POPC   GL272398  24.615  12.357   5.812
 5623POPC   C1A72399  24.338  12.256   6.306
 5623POPC   D2A72400  24.296  11.841   6.429
 5623POPC   C3A72401  24.350  11.782   6.867
 5623POPC   C4A72402  24.345  12.019   7.203
 5623POPC   C1B72403  24.834  12.173   6.170
 5623POPC   C2B72404  24.757  12.033   6.595
 5623POPC   C3B72405  24.939  12.178   6.982
 5623POPC   C4B72406  24.789  12.280   7.408
 5624W        W72407  23.777  16.739   4.231
 5625W        W72408  21.210   5.050   1.005
 5626W        W72409  36.250  30.538  11.625
 5627W        W72410  11.793  44.124  14.999
 5628W        W72411  40.540  19.113  14.105
 5629W        W72412   6.114   6.202  12.481
 5630W        W72413  21.067  19.540   4.179
 5631W        W72414   7.892  44.062  12.997
 5632W        W72415  23.065  28.953  12.902
 5633W        W72416   5.904  16.640   3.192
 5634W        W72417  24.481  41.472   5.046
 5635W        W72418  15.545  35.110  13.361
 5636W        W72419  30.485  25.825   1.840
 5637W        W72420  15.994  40.001  11.401
 5638W        W72421  40.417  36.398   4.581
 5639W        W72422  38.004   9.844  11.995
 5640W        W72423  42.738  30.921   0.939
 5641W        W72424  28.598  26.146   4.250
 5642W        W72425   8.252  22.004   2.427
 5643W        W72426  32.418   4.946  12.921
 5644W        W72427  44.730   7.710  11.975
 5645W        W72428  22.664   9.120  12.358
 5646W        W72429  42.283  40.780   2.884
 5647W        W72430  44.421   2.763   1.305
 5648W        W72431  30.686  27.442   0.367
 5649W        W72432   5.425  10.695  14.039
 5650W        W72433  35.918  32.755   0.070
 5651W        W72434   0.762  35.909   0.407
 5652W        W72435  31.689   6.921   4.661
 5653W        W72436  25.944  21.990   0.569
 5654W        W72437  39.018  10.126   1.358
 5655W        W72438   7.771  31.309   1.286
 5656W        W72439   0.675  26.820  10.445
 5657W        W72440   2.308  33.926   2.689
 5658W        W72441  27.115   4.911   2.107
 5659W        W72442   9.882   3.408   2.776
 5660W        W72443   1.816  22.222  10.917
 5661W        W72444   4.701  25.655  14.278
 5662W        W72445  12.171  10.231   0.784
 5663W        W72446  13.603  29.690  12.416
 5664W        W72447  40.376  26.468  13.587
 5665W        W72448  26.523  12.687   4.082
 5666W        W72449  12.378  15.616   2.376
 5667W        W72450  44.264  40.526  14.562
 5668W        W72451  39.305  25.061  13.771
 5669W        W72452   3.495  44.575  12.946
 5670W        W72453   8.711  44.427  14.859
 5671W        W72454  43.512  44.984  11.427
 5672W        W72455  12.073  44.565  11.168
 5673W        W72456  41.457   1.700  12.539
 5674W        W72457  32.071  41.410   2.650
 5675W        W72458  10.681  19.528   1.943
 5676W        W72459   6.287  26.749   2.183
 5677W        W72460   1.297  18.695   0.987
 5678W        W72461  34.625  35.126  13.977
 5679W        W72462  13.712   0.527   0.298
 5680W        W72463  11.262   7.871   0.100
 5681W        W72464  43.085   8.491  14.910
 5682W        W72465  38.542   4.166   4.416
 5683W        W72466  35.645  24.193  14.904
 5684W        W72467   1.806   4.529  11.456
 5685W        W72468  15.589   4.957  13.327
 5686W        W72469   6.789  24.152   4.097
 5687W        W72470  35.962  10.661   0.448
 5688W        W72471  25.068  43.786  12.811
 5689W        W72472  10.412  22.143  14.994
 5690W        W72473  35.823  27.539   1.800
 5691W        W72474  28.539  22.929  12.040
 5692W        W72475  16.589  22.543   0.834
 5693W        W72476  42.584  28.090  13.722
 5694W        W72477   6.244  22.014  11.932
 5695W        W72478  41.933   7.268  12.984
 5696W        W72479  24.489  21.119  10.647
 5697W        W72480  29.700  20.239   0.977
 5698W        W72481  39.504  35.037  11.088
 5699W        W72482  13.584  24.343   0.873
 5700W        W72483  32.609  19.715   2.511
 5701W        W72484  37.053  28.873  11.118
 5702W        W72485  11.930  12.731   2.866
 5703W        W72486  36.901  26.552  11.122
 5704W        W72487  34.776  19.723  11.696
 5705W        W72488   1.687  30.556  12.475
 5706W        W72489  42.280   2.025  11.379
 5707W        W72490  23.051   8.643   0.917
 5708W        W72491  13.226  23.780   2.852
 5709W        W72492   6.903  29.647   4.898
 5710W        W72493  23.793  10.390  13.368
 5711W        W72494   5.661   5.371   0.392
 5712W        W72495  24.871  25.578  11.382
 5713W        W72496   5.215  19.370  14.459
 5714W        W72497  10.199  22.882  14.330
 5715W        W72498  41.323  20.972  12.140
 5716W        W72499  44.402   9.043   2.371
 5717W        W72500  16.457  10.612   3.334
 5718W        W72501  17.372  27.465  12.507
 5719W        W72502   9.580  17.048  14.760
 5720W        W72503   8.753  29.895   1.002
 5721W        W72504   5.358  24.248  14.996
 5722W        W72505  24.951   9.067   1.700
 5723W        W72506   9.816   7.957   3.090
 5724W        W72507  36.713   9.387   1.498
 5725W        W72508   8.421   3.840  13.016
 5726W        W72509  29.157  19.285  13.142
 5727W        W72510   6.569  14.408  10.452
 5728W        W72511  35.037  29.457   0.679
 5729W        W72512  20.339   9.121   0.297
 5730W        W72513  38.985   2.512   4.135
 5731W        W72514  34.997  33.176  14.893
 5732W        W72515  44.392  12.334  13.321
 5733W        W72516  30.626  16.697   4.024
 5734W        W72517  21.117  29.927   0.794
 5735W        W72518   2.113  28.831  10.322
 5736W        W72519  24.656   9.193  12.192
 5737W        W72520  23.146  36.878   4.874
 5738W        W72521  18.051  32.941   0.363
 5739W        W72522  44.167  39.200   4.428
 5740W        W72523  23.982  38.420  12.530
 5741W        W72524   4.063  13.686  12.466
 5742W        W72525  24.399  10.996   4.301
 5743W        W72526  39.433  28.337  12.364
 5744W        W72527  31.127  41.961   0.315
 5745W        W72528   8.836   5.714   1.276
 5746W        W72529  21.614  35.921   4.644
 5747W        W72530  19.710  35.337   0.297
 5748W        W72531  18.020   0.474  12.472
 5749W        W72532   3.655  37.595  11.143
 5750W        W72533   8.085   7.131   4.095
 5751W        W72534  32.488  32.576   0.328
 5752W        W72535  43.780  10.233  13.478
 5753W        W72536  43.771  18.117   1.505
 5754W        W72537  39.118  38.363  12.040
 5755W        W72538  21.109  17.642  11.482
 5756W        W72539  37.765  18.284  13.078
 5757W        W72540  27.726   3.413   3.125
 5758W        W72541  39.728  14.158   4.969
 5759W        W72542  30.528  14.141  10.749
 5760W        W72543   1.893   4.771   3.746
 5761W        W72544  21.230  34.845  13.530
 5762W        W72545  31.047  44.563  13.402
 5763W        W72546  26.475  33.655  11.871
 5764W        W72547  14.281  43.401  13.953
 5765W        W72548  20.124  18.462   2.265
 5766W        W72549   8.109  30.627  10.864
 5767W        W72550  23.798  24.213  14.845
 5768W        W72551  35.794  38.495  12.460
 5769W        W72552  33.094   1.201   0.885
 5770W        W72553  12.907   2.439  11.131
 5771W        W72554  43.385  18.061   1.147
 5772W        W72555  38.701  19.699   0.778
 5773W        W72556  11.101  19.745  14.596
 5774W        W72557  20.012  14.438   0.189
 5775W        W72558  20.884   9.481   0.929
 5776W        W72559  22.820  33.329   0.940
 5777W        W72560  37.118  31.322  12.032
 5778W        W72561  18.877  39.168   2.285
 5779W        W72562   4.021  23.596   2.403
 5780W        W72563  30.142   3.423  14.483
 5781W        W72564  20.135  12.301  12.591
 5782W        W72565   3.873   5.235  12.776
 5783W        W72566  13.230   2.914   5.049
 5784W        W72567  13.665  14.204   4.751
 5785W        W72568  11.768  16.166  14.853
 5786W        W72569   5.396  38.061  14.433
 5787W        W72570  21.315  29.137   2.649
 5788W        W72571  27.520  34.488  12.706
 5789W        W72572  11.523  16.611   2.758
 5790W        W72573  42.755  18.236   3.287
 5791W        W72574   6.411  20.983   4.164
 5792W        W72575  32.603  30.039  13.423
 5793W        W72576  27.641   4.962   3.740
 5794W        W72577   3.270  28.034   3.729
 5795W        W72578  18.701  34.535   4.421
 5796W        W72579  23.015  13.347  11.573
 5797W        W72580  19.475  13.067   3.727
 5798W        W72581  10.961   8.185   3.219
 5799W        W72582  30.213  26.137  11.062
 5800W        W72583  34.656   2.035   4.638
 5801W        W72584  36.448  23.058   4.055
 5802W        W72585   7.229   6.800   4.389
 5803W        W72586   2.250  24.692   3.682
 5804W        W72587  43.384  31.550  13.320
 5805W        W72588   9.913  12.556   4.934
 5806W        W72589   6.686   6.378   1.792
 5807W        W72590  28.831  13.402  11.927
 5808W        W72591  18.177  17.133  12.687
 5809W        W72592  20.685  25.088  10.563
 5810W        W72593  22.018  20.562   4.717
 5811W        W72594  32.861  32.584  14.887
 5812W        W72595  24.071  17.677  11.978
 5813W        W72596   6.689   0.023   3.428
 5814W        W72597  10.397   6.278  14.847
 5815W        W72598   5.318  34.087  11.671
 5816W        W72599  13.773  43.919  13.309
 5817W        W72600  30.673  16.096   0.857
 5818W        W72601  38.903  26.197  10.822
 5819W        W72602  37.369  23.448  13.944
 5820W        W72603  38.461  13.331  14.921
 5821W        W72604  11.114  29.229  14.786
 5822W        W72605  10.783  13.022   2.319
 5823W        W72606  36.126  18.468   0.348
 5824W        W72607  24.060  11.061   0.004
 5825W        W72608  44.066  38.459  13.355
 5826W        W72609  10.804  29.797   3.473
 5827W        W72610  20.219  19.331   3.661
 5828W        W72611  30.918  12.334  11.564
 5829W        W72612  19.259  20.113   2.421
 5830W        W72613  25.648  22.700  14.475
 5831W        W72614   2.870  18.510   1.238
 5832W        W72615  44.514   3.833   0.823
 5833W        W72616  36.779  20.105   0.884
 5834W        W72617   8.136  24.555  11.474
 5835W        W72618   3.400   1.571   3.357
 5836W        W72619   5.922  25.864   3.632
 5837W        W72620   1.167  13.670  11.119
 5838W        W72621   4.301  42.984  12.203
 5839W        W72622  34.654  37.299  11.957
 5840W        W72623  44.683  31.138   3.343
 5841W        W72624  26.958  17.227  12.992
 5842W        W72625  22.155  44.398  10.712
 5843W        W72626  14.230  11.705   4.219
 5844W        W72627  38.621  36.787   1.773
 5845W        W72628  44.490  13.213  14.389
 5846W        W72629  42.845  24.467   0.367
 5847W        W72630  36.309  26.048   3.383
 5848W        W72631  24.702  16.513  14.728
 5849W        W72632   5.743   2.966  12.445
 5850W        W72633  30.236  18.729  14.268
 5851W        W72634  31.509   2.793   1.107
 5852W        W72635   6.158  43.340  11.149
 5853W        W72636  30.111  23.824  13.001
 5854W        W72637  29.567  37.436  14.397
 5855W        W72638  38.433  34.962  10.732
 5856W        W72639  36.509  31.232  11.165
 5857W        W72640   6.780   5.463   4.632
 5858W        W72641  42.868  19.126   2.899
 5859W        W72642   5.196   5.796   0.879
 5860W        W72643   3.134  22.759  12.661
 5861W        W72644  44.971  28.452   2.296
 5862W        W72645  38.572  25.567   4.045
 5863W        W72646  44.531  42.787   0.768
 5864W        W72647  31.434  23.498  12.971
 5865W        W72648  43.098   2.043  13.297
 5866W        W72649  37.782  19.505   1.217
 5867W        W72650  29.976  31.689   3.640
 5868W        W72651  33.405  42.984   2.259
 5869W        W72652  16.249  33.108  14.990
 5870W        W72653  28.548  38.815  10.269
 5871W        W72654  30.589  26.585  13.065
 5872W        W72655  36.827  20.011   3.264
 5873W        W72656  32.678   4.274   0.836
 5874W        W72657  30.912   4.278   1.719
 5875W        W72658  29.051   0.716   1.364
 5876W        W72659  30.586  16.826   2.581
 5877W        W72660  32.163  18.987   2.324
 5878W        W72661  43.021  31.813  13.603
 5879W        W72662   9.127  40.243   3.649
 5880W        W72663  28.953  11.894   0.363
 5881W        W72664  10.471  14.359   2.793
 5882W        W72665  32.539   8.838  12.939
 5883W        W72666  36.020  31.637  13.767
 5884W        W72667  33.361  35.604   1.325
 5885W        W72668   3.501   5.774  14.285
 5886W        W72669  34.185  27.553  11.070
 5887W        W72670  19.182   0.880  12.974
 5888W        W72671  19.532  38.843  10.638
 5889W        W72672  19.954  42.230  14.766
 5890W        W72673  30.827  17.787   1.315
 5891W        W72674  11.622   5.848   3.672
 5892W        W72675   5.753  13.007  12.492
 5893W        W72676   6.281  18.487  12.528
 5894W        W72677  39.909  21.978   4.521
 5895W        W72678   2.770  14.922  11.583
 5896W        W72679   4.158  24.627  12.417
 5897W        W72680  34.700  25.012   2.307
 5898W        W72681  44.460   8.424  12.106
 5899W        W72682  27.474  13.532   0.045
 5900W        W72683  44.156  33.441   4.619
 5901W        W72684  33.696  16.773  12.634
 5902W        W72685  29.975  33.534   2.755
 5903W        W72686  41.351  33.123   0.704
 5904W        W72687  28.079  35.190   0.946
 5905W        W72688   4.912  39.780  11.348
 5906W        W72689  14.795  23.672   4.881
 5907W        W72690  18.556   1.803   3.863
 5908W        W72691  22.946   9.144   3.726
 5909W        W72692  36.581  11.892  11.437
 5910W        W72693   3.506  33.425   2.265
 5911W        W72694  28.853  15.213  10.682
 5912W        W72695  19.886  28.086  12.727
 5913W        W72696  19.589  26.358   3.773
 5914W        W72697  19.069   0.305   2.016
 5915W        W72698   1.212   1.719  11.071
 5916W        W72699  32.826  42.560   3.141
 5917W        W72700  27.213  41.856  12.971
 5918W        W72701  30.876  19.868   4.021
 5919W        W72702  35.310  13.634   0.887
 5920W        W72703  11.554  17.744   2.803
 5921W        W72704  40.123  30.480  11.115
 5922W        W72705   9.082  33.399  13.742
 5923W        W72706   8.885  39.441  11.142
 5924W        W72707  44.733  18.632  11.250
 5925W        W72708  28.640   0.815   0.058
 5926W        W72709   1.742  34.871  10.715
 5927W        W72710  26.130  43.056  12.115
 5928W        W72711  22.833  19.944  11.097
 5929W        W72712  30.841   9.346   3.717
 5930W        W72713  39.514  30.089   4.196
 5931W        W72714  42.423  15.868   3.005
 5932W        W72715  25.445  44.019  11.945
 5933W        W72716  34.560  39.406  14.309
 5934W        W72717  40.544  21.221  14.330
 5935W        W72718  26.500  36.877   3.796
 5936W        W72719  39.236  21.223   2.683
 5937W        W72720  26.698   9.268   4.756
 5938W        W72721  18.339  22.824  11.967
 5939W        W72722  17.115  17.218  14.515
 5940W        W72723  33.179   1.718   1.394
 5941W        W72724  31.394  21.129  14.942
 5942W        W72725   0.402  27.574  10.463
 5943W        W72726  23.795  12.673   1.323
 5944W        W72727  43.082  26.085  12.971
 5945W        W72728  22.717   1.900   4.496
 5946W        W72729   1.339  25.008  14.053
 5947W        W72730  22.179  37.035  12.607
 5948W        W72731  26.426  28.568  11.208
 5949W        W72732   7.338  22.481  14.981
 5950W        W72733  24.317  22.136  13.884
 5951W        W72734  30.268   0.756  10.810
 5952W        W72735  37.931  10.891  14.323
 5953W        W72736  22.609  22.241  10.965
 5954W        W72737  20.656   8.616  12.643
 5955W        W72738  29.191  24.950  10.708
 5956W        W72739   1.542  12.587   0.196
 5957W        W72740  28.318   0.046   0.723
 5958W        W72741  22.312   0.709   3.684
 5959W        W72742  32.846   3.888  11.993
 5960W        W72743   7.726  14.352  12.004
 5961W        W72744  43.269   2.355  10.595
 5962W        W72745  17.005  37.822  10.610
 5963W        W72746  43.382  23.327  13.881
 5964W        W72747  23.859   1.262   0.327
 5965W        W72748  10.288  29.091  10.625
 5966W        W72749  10.113  25.635   1.669
 5967W        W72750  38.090  27.140   0.740
 5968W        W72751  32.156  10.793  11.067
 5969W        W72752  13.572   7.399  12.308
 5970W        W72753   1.666  36.899   3.096
 5971W        W72754   3.694  12.663   1.902
 5972W        W72755  23.788  14.640  12.408
 5973W        W72756  34.868  19.828  14.118
 5974W        W72757  35.441  41.818  14.872
 5975W        W72758  33.160   7.732   1.101
 5976W        W72759  21.562  37.452  10.617
 5977W        W72760  16.678  21.638  12.801
 5978W        W72761  29.701   0.327   0.827
 5979W        W72762  12.082  30.450  13.856
 5980W        W72763  33.270  44.775   4.200
 5981W        W72764   9.625  28.777  12.546
 5982W        W72765  13.611  13.372  14.893
 5983W        W72766  25.214  38.060   0.974
 5984W        W72767  33.557  34.398   2.464
 5985W        W72768  15.336  13.368  11.028
 5986W        W72769  33.495  43.835  11.343
 5987W        W72770  23.318  41.411   4.076
 5988W        W72771   2.010  37.424   3.734
 5989W        W72772   6.218  25.702   3.231
 5990W        W72773  43.510  23.678  12.940
 5991W        W72774  18.669  15.304  14.096
 5992W        W72775   3.366  24.172  12.593
 5993W        W72776  26.445  42.036   1.451
 5994W        W72777   4.801  18.662   4.586
 5995W        W72778  33.357  31.979   2.716
 5996W        W72779   6.142  36.033   4.335
 5997W        W72780  25.245  42.823   4.459
 5998W        W72781  40.309  42.331  14.739
 5999W        W72782   3.929  21.954   1.917
 6000W        W72783  35.556  34.799  11.355
 6001W        W72784  11.824  40.968  11.219
 6002W        W72785  22.056  10.685   3.642
 6003W        W72786  26.816   6.427   2.447
 6004W        W72787  21.603  27.983  10.483
 6005W        W72788   3.767  35.392   1.542
 6006W        W72789  36.328  35.953   4.062
 6007W        W72790  25.101  17.706   3.098
 6008W        W72791  39.438   2.315  10.747
 6009W        W72792  44.316  40.616   2.172
 6010W        W72793  22.786  38.888  10.343
 6011W        W72794  21.072  43.092  14.779
 6012W        W72795  21.362  21.938   2.186
 6013W        W72796  12.312  14.301  11.414
 6014W        W72797  20.980  32.084  10.632
 6015W        W72798  32.030  34.268  10.758
 6016W        W72799   2.652   7.128  11.580
 6017W        W72800  32.397  18.354  14.821
 6018W        W72801  10.225  21.232   2.817
 6019W        W72802  41.333  34.403   3.214
 6020W        W72803  23.434  33.722  11.529
 6021W        W72804  11.077  34.566  14.988
 6022W        W72805  35.329  29.112   3.678
 6023W        W72806  32.329  38.094   2.868
 6024W        W72807  32.525  13.748  11.994
 6025W        W72808  17.381  24.261  12.493
 6026W        W72809  34.173  26.790   3.258
 6027W        W72810  30.000  43.108   3.539
 6028W        W72811   0.256  27.189   1.206
 6029W        W72812   7.877  42.189  13.543
 6030W        W72813  22.193  16.730  11.625
 6031W        W72814  31.726  41.020  13.089
 6032W        W72815   8.128  30.982  10.470
 6033W        W72816  27.262   6.567   0.363
 6034W        W72817   5.359   8.333  14.208
 6035W        W72818  26.943  21.819  11.631
 6036W        W72819  37.059  14.276  11.130
 6037W        W72820  12.054  12.230  11.937
 6038W        W72821  12.110  40.026  12.981
 6039W        W72822  24.068   9.396   1.690
 6040W        W72823  35.085  23.989  14.506
 6041W        W72824  12.225  30.445   3.599
 6042W        W72825  41.990  25.218   3.330
 6043W        W72826  43.262  44.367  14.992
 6044W        W72827   1.760  23.686   3.780
 6045W        W72828  32.509   9.153  14.868
 6046W        W72829  36.985  36.360  14.414
 6047W        W72830  24.841  31.571  13.777
 6048W        W72831  40.245  30.698   3.832
 6049W        W72832  41.806  37.475   4.136
 6050W        W72833  30.636  23.236  10.701
 6051W        W72834  44.690  31.017  14.321
 6052W        W72835  28.396   5.674  14.399
 6053W        W72836  33.836  32.354  14.891
 6054W        W72837  38.473  27.837   3.094
 6055W        W72838  43.013  22.645  11.238
 6056W        W72839   3.290   1.926  14.153
 6057W        W72840  42.293  11.950   3.765
 6058W        W72841   4.937   1.213  10.702
 6059W        W72842  33.362  39.228   3.720
 6060W        W72843  22.907  40.514  13.981
 6061W        W72844   2.793  15.382   1.243
 6062W        W72845  18.566  15.814  12.392
 6063W        W72846   8.443  17.568  11.993
 6064W        W72847  19.639  20.631   1.733
 6065W        W72848  10.583  15.595  12.992
 6066W        W72849  22.042   2.915  14.280
 6067W        W72850  24.585   3.019  12.101
 6068W        W72851  40.767  22.014   3.628
 6069W        W72852  21.023  15.622  10.272
 6070W        W72853  15.322  27.241  14.443
 6071W        W72854  29.076  15.941   2.148
 6072W        W72855  18.552  28.392  11.565
 6073W        W72856   8.886  40.624  14.569
 6074W        W72857  19.854  31.611  11.113
 6075W        W72858  29.401  16.003  13.522
 6076W        W72859  21.317   9.872  11.258
 6077W        W72860  22.647  20.788   0.325
 6078W        W72861  12.089  25.500   1.886
 6079W        W72862  19.367  13.659   4.538
 6080W        W72863   8.483  33.520  12.961
 6081W        W72864  10.827  12.500  10.586
 6082W        W72865  15.393  24.990  11.275
 6083W        W72866   2.736  15.816  12.042
 6084W        W72867  38.039  16.231  13.283
 6085W        W72868  26.683  25.607   3.127
 6086W        W72869  13.119  30.861  10.672
 6087W        W72870  22.813  39.097   2.338
 6088W        W72871  41.539  28.673   3.232
 6089W        W72872  17.480  11.250  13.559
 6090W        W72873  17.529  36.393   0.515
 6091W        W72874  36.589  32.853   2.869
 6092W        W72875  29.483  38.251   2.631
 6093W        W72876   4.820   2.193  11.572
 6094W        W72877  23.753  19.846  12.885
 6095W        W72878  32.386  14.149  14.985
 6096W        W72879  24.231  32.648  14.420
 6097W        W72880   5.857  16.720  14.564
 6098W        W72881  21.159  34.136   0.003
 6099W        W72882  32.353  27.505  11.582
 6100W        W72883  14.041  34.350  11.524
 6101W        W72884  17.192  12.912  10.542
 6102W        W72885  22.292  19.564  13.994
 6103W        W72886   1.822  32.963  14.320
 6104W        W72887   0.387  40.677  13.211
 6105W        W72888  16.211  24.938  11.846
 6106W        W72889  40.852  44.494  11.682
 6107W        W72890  34.060  38.717  14.335
 6108W        W72891  31.650  30.382   2.325
 6109W        W72892  37.677  14.970   0.992
 6110W        W72893   6.827  41.886   3.816
 6111W        W72894  37.849  16.603   0.257
 6112W        W72895   7.738  27.705  14.841
 6113W        W72896  34.616   0.270  11.268
 6114W        W72897  44.644  33.953  11.988
 6115W        W72898  28.637  30.955  12.478
 6116W        W72899  11.209  25.452   0.924
 6117W        W72900  44.859   0.324   2.247
 6118W        W72901  39.339  36.897   1.975
 6119W        W72902  40.368  34.498   4.298
 6120W        W72903  25.450   1.984   2.711
 6121W        W72904  18.173  11.845  12.524
 6122W        W72905  34.021  16.064  12.876
 6123W        W72906   8.336  44.290   0.208
 6124W        W72907  18.900  15.249  11.137
 6125W        W72908   7.197  37.444   4.053
 6126W        W72909  31.788  19.499  12.527
 6127W        W72910  40.957  38.615  10.754
 6128W        W72911   6.792  21.704   2.318
 6129W        W72912   3.507   4.190   0.304
 6130W        W72913   0.077  15.597   1.420
 6131W        W72914  11.989  21.619  11.565
 6132W        W72915  10.194  20.971  13.944
 6133W        W72916  43.864  16.841   3.696
 6134W        W72917  14.610  34.397  13.450
 6135W        W72918  24.435  39.428  10.627
 6136W        W72919   0.718  14.633   5.060
 6137W        W72920  33.063  19.505   2.225
 6138W        W72921  26.385  15.938  14.750
 6139W        W72922  33.678  38.431   3.826
 6140W        W72923   0.089   5.555  14.201
 6141W        W72924  29.881   0.043  12.637
 6142W        W72925  32.587  18.766   2.107
 6143W        W72926  19.390  11.576   0.077
 6144W        W72927  10.102  10.247   2.794
 6145W        W72928  19.120  13.532   5.001
 6146W        W72929  38.942  33.401  14.025
 6147W        W72930  25.527   0.047   4.559
 6148W        W72931  18.963   4.135   1.859
 6149W        W72932  28.001   4.539  14.907
 6150W        W72933  14.685  23.126  10.738
 6151W        W72934  12.435  25.965   3.228
 6152W        W72935  13.032  23.891  12.609
 6153W        W72936  31.747  25.096   1.248
 6154W        W72937  32.582  35.847   2.329
 6155W        W72938  10.232  43.788   0.266
 6156W        W72939  30.722  18.006  12.456
 6157W        W72940  11.356   5.401  10.677
 6158W        W72941  27.612  22.410  11.652
 6159W        W72942  33.599  16.776  14.622
 6160W        W72943  32.663  38.260  12.291
 6161W        W72944  21.909   6.912   9.403
 6162W        W72945   2.343  14.038  11.544
 6163W        W72946  25.074  41.886  13.711
 6164W        W72947  31.602   6.485   3.666
 6165W        W72948  11.904   1.787  10.761
 6166W        W72949  11.924  16.708  11.595
 6167W        W72950  11.594  16.101  14.036
 6168W        W72951  18.108  16.548   4.225
 6169W        W72952  27.614  13.567  12.100
 6170W        W72953   8.877  19.801   1.628
 6171W        W72954  12.263  19.101   0.743
 6172W        W72955  35.508  41.926   2.422
 6173W        W72956  38.404   7.324   0.631
 6174W        W72957  30.142  35.202  10.794
 6175W        W72958  10.475  24.103  12.553
 6176W        W72959  20.754  24.998  13.676
 6177W        W72960  21.182  34.798  11.152
 6178W        W72961  41.540  36.857   4.268
 6179W        W72962   2.760  10.697  12.539
 6180W        W72963   9.725  24.285   2.360
 6181W        W72964   0.262  39.381  12.777
 6182W        W72965  44.182  42.035  10.459
 6183W        W72966  16.650  14.215  11.977
 6184W        W72967  23.043  12.272   0.702
 6185W        W72968  37.557  13.099  14.779
 6186W        W72969  20.978   9.713  11.615
 6187W        W72970   5.914  44.043   4.472
 6188W        W72971  41.234   9.738  11.414
 6189W        W72972  24.593  13.248   1.408
 6190W        W72973  17.588   9.221  13.278
 6191W        W72974  23.203  37.152  11.457
 6192W        W72975  35.139  40.158   3.305
 6193W        W72976  29.191  22.234   4.115
 6194W        W72977  40.983   2.778  10.759
 6195W        W72978  14.484  33.517  13.954
 6196W        W72979  27.157  16.742  13.052
 6197W        W72980   7.268  41.424  13.278
 6198W        W72981  37.033  34.650   2.396
 6199W        W72982  28.480   4.806  11.962
 6200W        W72983  10.569  38.031   2.798
 6201W        W72984  27.472  28.509  13.385
 6202W        W72985  10.115  20.612   0.567
 6203W        W72986   5.058  15.673  13.076
 6204W        W72987  28.482  26.944   0.515
 6205W        W72988  29.458  40.421   0.463
 6206W        W72989  43.794  38.409  13.808
 6207W        W72990  42.217  32.624   0.842
 6208W        W72991  21.307  22.597  11.000
 6209W        W72992   6.163   0.502  11.027
 6210W        W72993  41.768  28.783   1.897
 6211W        W72994  29.398  36.506   0.968
 6212W        W72995  40.955  32.543  14.126
 6213W        W72996  12.504  36.244  13.705
 6214W        W72997   4.959  23.266   3.252
 6215W        W72998   6.937   0.751   0.498
 6216W        W72999   9.612   0.462   0.698
 6217W        W73000  24.425  40.096   4.042
 6218W        W73001  43.435  15.115  13.413
 6219W        W73002  29.137  12.104   4.583
 6220W        W73003  17.571   8.279   1.439
 6221W        W73004  36.458   4.488   3.590
 6222W        W73005  14.265  42.865   0.753
 6223W        W73006  39.614  29.966  14.688
 6224W        W73007  32.850   3.636  12.462
 6225W        W73008  42.280  43.819   4.559
 6226W        W73009  19.876   0.874  13.967
 6227W        W73010  26.426   5.205   3.414
 6228W        W73011  42.527   3.853  11.207
 6229W        W73012  42.372  26.158   0.860
 6230W        W73013  29.098   3.534  12.468
 6231W        W73014  44.346  27.432   4.648
 6232W        W73015  33.538   5.218  13.049
 6233W        W73016  31.392  20.531  12.092
 6234W        W73017  13.314  38.560  11.844
 6235W        W73018   6.192  23.020   3.729
 6236W        W73019  10.780  12.812  11.982
 6237W        W73020   0.097  10.737   3.683
 6238W        W73021  42.298  38.925  12.542
 6239W        W73022  16.723  35.764  10.335
 6240W        W73023  14.684  38.870   2.851
 6241W        W73024   4.737   6.930  13.475
 6242W        W73025  18.564   7.879   4.502
 6243W        W73026  38.999  26.229   3.684
 6244W        W73027  22.593   9.920   3.798
 6245W        W73028  13.792  13.858  13.081
 6246W        W73029  16.745  15.365   2.527
 6247W        W73030  10.190  31.683  13.871
 6248W        W73031  23.928  39.360   0.001
 6249W        W73032  19.324  44.307  12.514
 6250W        W73033  37.861  15.268  14.256
 6251W        W73034  15.013  18.356  11.221
 6252W        W73035  29.226  23.655  10.694
 6253W        W73036  44.466  24.167   0.962
 6254W        W73037  25.587  13.520  11.573
 6255W        W73038  10.398  25.599   1.221
 6256W        W73039  44.965   6.315   2.427
 6257W        W73040  28.099  12.280   2.228
 6258W        W73041  18.251  23.011   4.759
 6259W        W73042  29.653  17.047   3.338
 6260W        W73043  37.007  16.790  13.159
 6261W        W73044  20.120   9.963  14.806
 6262W        W73045  32.117  31.021  10.703
 6263W        W73046  14.046  21.014   4.707
 6264W        W73047  44.363  34.286  13.624
 6265W        W73048   8.411   7.404  13.596
 6266W        W73049  10.857  36.387  12.687
 6267W        W73050  12.432  27.364  12.031
 6268W        W73051  18.950  10.084   5.343
 6269W        W73052  25.647  33.420   4.228
 6270W        W73053  37.340  10.364   0.489
 6271W        W73054  31.555  16.345   2.332
 6272W        W73055  34.383   8.342   4.099
 6273W        W73056  38.027   1.476   1.389
 6274W        W73057  17.503   7.861  13.076
 6275W        W73058   4.093   9.677  11.509
 6276W        W73059  41.304  27.008  14.758
 6277W        W73060  25.953   7.188  13.048
 6278W        W73061  34.887  17.500   2.837
 6279W        W73062  33.848   7.252   0.006
 6280W        W73063  42.205  13.304  11.276
 6281W        W73064  33.916  22.697  12.957
 6282W        W73065  38.623  11.188   2.731
 6283W        W73066  27.891  24.572   0.267
 6284W        W73067  18.628  39.283  11.926
 6285W        W73068   2.987  13.540  12.071
 6286W        W73069  37.099  38.594  14.952
 6287W        W73070  20.661  32.378   4.197
 6288W        W73071   1.528  25.509   2.268
 6289W        W73072  14.291  32.514   0.528
 6290W        W73073  10.205  44.733  13.960
 6291W        W73074  25.720  38.949   0.815
 6292W        W73075   5.973   9.368   0.796
 6293W        W73076   0.295  19.229   4.130
 6294W        W73077  25.005  41.883  12.376
 6295W        W73078  38.067  15.438   4.206
 6296W        W73079   9.093  15.597   4.119
 6297W        W73080  39.912  33.467   4.721
 6298W        W73081  15.700   8.686   1.150
 6299W        W73082  37.854  17.013  14.942
 6300W        W73083  27.403  23.716   1.782
 6301W        W73084  26.827  37.947   5.056
 6302W        W73085   4.712   3.500   4.646
 6303W        W73086  31.892  30.550  14.095
 6304W        W73087  39.820  37.068   0.835
 6305W        W73088  41.666  12.081  10.239
 6306W        W73089  37.851   4.575  14.852
 6307W        W73090  44.011  44.406   1.446
 6308W        W73091  34.204   3.843   1.762
 6309W        W73092  30.991  41.524   4.505
 6310W        W73093  17.227  25.964   0.585
 6311W        W73094  10.790  22.667  11.214
 6312W        W73095  43.066   9.301   4.513
 6313W        W73096  12.617  21.814   1.864
 6314W        W73097  19.723  13.151  12.471
 6315W        W73098   9.251  35.331  13.327
 6316W        W73099  24.102   1.648  13.280
 6317W        W73100   5.502  25.239  14.142
 6318W        W73101  38.148  37.799  13.993
 6319W        W73102  42.309  15.528   0.612
 6320W        W73103  27.201  24.079   0.596
 6321W        W73104   4.206  29.047  10.871
 6322W        W73105   3.429  12.727  12.135
 6323W        W73106  19.211   9.326  14.819
 6324W        W73107  29.858  41.360  12.645
 6325W        W73108  11.611  13.173   1.018
 6326W        W73109  12.797  15.440   2.108
 6327W        W73110  38.479   4.967  11.073
 6328W        W73111   4.213   4.587   4.032
 6329W        W73112  25.265  29.765  12.923
 6330W        W73113  29.069  31.879   0.898
 6331W        W73114  43.369  16.515   2.807
 6332W        W73115  18.059  26.679  11.010
 6333W        W73116   1.291  32.584   1.935
 6334W        W73117  17.047  19.399   2.011
 6335W        W73118  37.931  31.515   4.568
 6336W        W73119  26.128  43.225  10.661
 6337W        W73120   9.067  34.501   2.579
 6338W        W73121  20.225  14.353   0.659
 6339W        W73122  41.338   6.724   2.775
 6340W        W73123  15.424  23.128   1.714
 6341W        W73124  23.266   8.358  10.773
 6342W        W73125  32.994  40.393   2.675
 6343W        W73126  39.054  26.455  12.841
 6344W        W73127  36.613  33.953   2.905
 6345W        W73128  19.345  28.005  11.048
 6346W        W73129  14.392   5.167   1.335
 6347W        W73130   9.941  43.705  11.668
 6348W        W73131   8.231  26.009   1.469
 6349W        W73132  44.400  19.043  10.195
 6350W        W73133  31.662  41.939   4.825
 6351W        W73134  22.025  39.887   2.647
 6352W        W73135  28.202  32.525   3.190
 6353W        W73136  31.083  37.644  14.546
 6354W        W73137  32.728  39.900   4.515
 6355W        W73138  19.254   6.937  12.775
 6356W        W73139   6.790  20.991   0.946
 6357W        W73140  31.041   1.973   3.132
 6358W        W73141  31.533  40.377   1.418
 6359W        W73142  33.567  10.104  11.951
 6360W        W73143  36.492  29.342  13.472
 6361W        W73144   8.195   7.283  14.813
 6362W        W73145   5.447  32.472  13.877
 6363W        W73146  23.964   8.189   0.180
 6364W        W73147  37.303  19.664   1.921
 6365W        W73148  19.367  43.957   3.207
 6366W        W73149   2.752  32.633  12.837
 6367W        W73150  24.991  36.899   1.900
 6368W        W73151  34.897  15.574  11.719
 6369W        W73152  33.027  28.457  11.204
 6370W        W73153  13.313  17.680   0.434
 6371W        W73154  35.272   8.635   9.954
 6372W        W73155  17.251  34.019  14.493
 6373W        W73156   4.762  37.887  12.938
 6374W        W73157  32.277  14.160   4.553
 6375W        W73158  43.394  21.262   2.306
 6376W        W73159   2.966  19.141  12.641
 6377W        W73160   5.398  44.848  10.936
 6378W        W73161  25.624  20.844   0.860
 6379W        W73162   4.208  16.341  12.176
 6380W        W73163  29.648  39.271  11.959
 6381W        W73164   1.751  10.992   0.130
 6382W        W73165  39.449  22.667   1.305
 6383W        W73166   6.791  23.676   1.949
 6384W        W73167  29.499   7.373   1.878
 6385W        W73168  43.442   5.649   1.882
 6386W        W73169  18.680   8.732   1.232
 6387W        W73170  26.284   4.786  10.296
 6388W        W73171  12.053  20.059  12.107
 6389W        W73172  31.569   4.936  12.021
 6390W        W73173  26.894  36.163  10.681
 6391W        W73174  33.344  28.663   0.755
 6392W        W73175   0.425  11.276  11.132
 6393W        W73176  41.732   4.903  10.536
 6394W        W73177  41.516  16.669  14.136
 6395W        W73178   8.130  28.074   0.884
 6396W        W73179  21.052  40.308   1.311
 6397W        W73180   3.458  14.417  10.106
 6398W        W73181  15.835  43.522  10.880
 6399W        W73182  26.712  27.422  12.113
 6400W        W73183  43.003  13.409   2.425
 6401W        W73184  30.615  27.736  14.478
 6402W        W73185  21.528  23.939   3.258
 6403W        W73186  20.734  38.111  11.310
 6404W        W73187   1.030  19.617   0.414
 6405W        W73188  18.815   3.178   9.992
 6406W        W73189  17.582  23.475  13.855
 6407W        W73190   7.855   9.845   0.908
 6408W        W73191  13.827   2.616  12.125
 6409W        W73192   4.212  20.040   1.866
 6410W        W73193  13.213   2.309   2.850
 6411W        W73194   8.642   4.101   3.240
 6412W        W73195  37.039  30.029  13.254
 6413W        W73196   2.745  44.794  13.969
 6414W        W73197  33.637  35.507  14.347
 6415W        W73198   1.365   4.462   4.600
 6416W        W73199  37.449  40.843   1.204
 6417W        W73200  19.973   5.800   1.312
 6418W        W73201   1.063  27.973   0.496
 6419W        W73202  22.633  22.720  14.437
 6420W        W73203  38.800  25.763  11.616
 6421W        W73204  42.977  12.586   3.055
 6422W        W73205  20.126  10.669  12.524
 6423W        W73206  44.906  13.182   4.678
 6424W        W73207  16.130  26.952  14.756
 6425W        W73208  18.652  18.868  12.561
 6426W        W73209  24.199  36.649   3.749
 6427W        W73210  13.299  41.938   0.714
 6428W        W73211  11.364  27.059  13.197
 6429W        W73212  11.601  32.346   0.747
 6430W        W73213  44.053  35.054  11.135
 6431W        W73214  42.905  13.496   0.863
 6432W        W73215   3.233  34.892  13.881
 6433W        W73216   3.305  42.606  12.995
 6434W        W73217  13.286   7.157  11.540
 6435W        W73218  23.770  37.950  10.525
 6436W        W73219  42.378  30.598   3.915
 6437W        W73220  12.626  28.020  13.425
 6438W        W73221  43.779  39.959  10.827
 6439W        W73222  32.162  39.862   2.778
 6440W        W73223  39.041   9.794   2.818
 6441W        W73224   1.805  16.297   3.645
 6442W        W73225  25.750  10.764   1.888
 6443W        W73226  35.829  17.531  14.700
 6444W        W73227   1.761   0.971   0.468
 6445W        W73228  15.816  31.151   2.491
 6446W        W73229  11.209  41.061  11.676
 6447W        W73230  25.172  14.669  14.232
 6448W        W73231  12.762  12.758  14.483
 6449W        W73232  27.624   5.461   3.880
 6450W        W73233  16.225   6.305   1.658
 6451W        W73234   5.813  11.784   1.913
 6452W        W73235   6.412  44.309  12.872
 6453W        W73236  11.402   4.946  12.978
 6454W        W73237  35.685  11.813  11.071
 6455W        W73238  15.107  15.103  10.711
 6456W        W73239  40.860   9.376   2.139
 6457W        W73240  38.826  33.623   2.347
 6458W        W73241  37.091   5.706   3.727
 6459W        W73242  43.626   0.896   4.289
 6460W        W73243  43.352  21.289   5.112
 6461W        W73244  23.194  24.547  12.601
 6462W        W73245   4.289  13.654   0.896
 6463W        W73246   6.703   3.703   1.870
 6464W        W73247  39.084  36.522   4.176
 6465W        W73248  32.131  15.541   3.706
 6466W        W73249   8.181   2.469   0.443
 6467W        W73250  40.026  18.025  12.422
 6468W        W73251   1.619  34.913   0.486
 6469W        W73252  35.127   8.358  12.001
 6470W        W73253  43.463   4.270  14.472
 6471W        W73254  16.666  42.651  14.897
 6472W        W73255   7.253  29.655  10.884
 6473W        W73256  23.517  38.819  11.543
 6474W        W73257  20.064   2.813  12.486
 6475W        W73258  21.908  12.478  13.578
 6476W        W73259   6.136   6.279  14.879
 6477W        W73260  18.032  16.376  11.987
 6478W        W73261  18.219  25.924   0.915
 6479W        W73262   4.268  30.560   0.371
 6480W        W73263  11.912  29.500   2.355
 6481W        W73264  33.174  11.853  13.340
 6482W        W73265   7.683  19.541  10.688
 6483W        W73266  36.478  28.370   2.851
 6484W        W73267  35.957  20.953   2.788
 6485W        W73268  21.473   0.505  11.697
 6486W        W73269   2.217  42.002  11.604
 6487W        W73270  19.142  11.448  12.041
 6488W        W73271  44.577  16.288   1.282
 6489W        W73272  24.844  22.366  12.069
 6490W        W73273   1.523  37.896  13.933
 6491W        W73274  17.060  42.564   1.740
 6492W        W73275   5.275  29.608   0.487
 6493W        W73276  29.766  14.075  11.079
 6494W        W73277  10.610   3.319   0.189
 6495W        W73278   5.281  11.784  11.693
 6496W        W73279   1.427  40.268   2.644
 6497W        W73280  37.380  23.468   0.282
 6498W        W73281   5.351  43.180   3.267
 6499W        W73282  25.525  37.507  12.462
 6500W        W73283   4.675  24.695   4.106
 6501W        W73284  16.135  39.124  11.356
 6502W        W73285   9.092   5.135   1.392
 6503W        W73286   4.802  37.305  13.729
 6504W        W73287   9.520  23.862  10.741
 6505W        W73288  16.258   0.238  10.771
 6506W        W73289  18.501  18.310   4.334
 6507W        W73290   8.337  44.258  12.683
 6508W        W73291  22.685  36.602   4.963
 6509W        W73292  31.361  17.817  11.152
 6510W        W73293  29.714  40.858   4.072
 6511W        W73294  36.310  25.341  13.430
 6512W        W73295  41.829  24.956   0.242
 6513W        W73296  37.167  42.410  10.973
 6514W        W73297  18.802  35.020   0.775
 6515W        W73298  20.360  27.910  11.982
 6516W        W73299   8.252   1.677   4.202
 6517W        W73300  12.716  15.302  11.932
 6518W        W73301  44.967   4.719   4.403
 6519W        W73302  40.078   6.376   1.933
 6520W        W73303  16.309  22.653  11.013
 6521W        W73304   8.683  17.752  12.899
 6522W        W73305   2.232  38.784  13.532
 6523W        W73306  31.032  28.651  14.265
 6524W        W73307  40.646  23.210  12.500
 6525W        W73308  39.517  10.185   0.634
 6526W        W73309  32.042  34.927  13.524
 6527W        W73310  10.837  31.655  11.529
 6528W        W73311  28.144  15.372  14.972
 6529W        W73312  27.932  41.207   3.078
 6530W        W73313  37.992  42.575   3.574
 6531W        W73314  40.748  41.945  10.566
 6532W        W73315  29.516  22.287  10.772
 6533W        W73316  33.518  37.511  12.602
 6534W        W73317  31.537  24.547   2.795
 6535W        W73318  12.155  20.631  12.944
 6536W        W73319  17.038  18.046  14.975
 6537W        W73320  23.105  14.001  12.894
 6538W        W73321  26.618  41.771   1.866
 6539W        W73322  29.698   0.745   2.617
 6540W        W73323  23.488   2.115  12.142
 6541W        W73324  37.619  12.859  12.530
 6542W        W73325  17.768   6.735  14.774
 6543W        W73326  18.047  20.307  14.708
 6544W        W73327   6.790  24.506  11.052
 6545W        W73328  29.529  29.690   0.992
 6546W        W73329  24.585   4.981  12.292
 6547W        W73330  31.883   4.733  13.499
 6548W        W73331  17.076  24.202   2.708
 6549W        W73332  44.919   2.240   2.279
 6550W        W73333  36.717   0.778  10.781
 6551W        W73334  38.663  13.763  10.712
 6552W        W73335   7.801  39.813   0.414
 6553W        W73336  19.685  37.545  14.947
 6554W        W73337  39.203  10.727  11.362
 6555W        W73338  23.073  13.806   2.389
 6556W        W73339   0.334  33.884   4.512
 6557W        W73340  26.965  44.504  11.245
 6558W        W73341  12.081  15.691  11.317
 6559W        W73342  38.325  12.136  11.631
 6560W        W73343  16.020   7.785   3.433
 6561W        W73344  34.495  28.629  10.617
 6562W        W73345  29.431  14.600  12.166
 6563W        W73346  27.168  15.835  11.480
 6564W        W73347   3.901  41.942   3.230
 6565W        W73348  22.118   0.319   9.673
 6566W        W73349  40.768   7.634  14.681
 6567W        W73350   7.609  16.116   2.295
 6568W        W73351  13.223  23.713  14.777
 6569W        W73352  37.532  38.386  13.017
 6570W        W73353  33.526  41.261   4.746
 6571W        W73354  26.134   8.741  13.970
 6572W        W73355  30.947  25.453   4.570
 6573W        W73356  10.225  44.077  10.099
 6574W        W73357  13.264   1.533  10.285
 6575W        W73358  33.931  31.106   3.735
 6576W        W73359  35.919   4.945   0.724
 6577W        W73360  30.755  40.319   4.918
 6578W        W73361  34.880  38.294  12.891
 6579W        W73362  10.958  27.516   0.277
 6580W        W73363  10.201  15.923   1.393
 6581W        W73364  14.069  44.477   4.945
 6582W        W73365  28.267  17.748  12.926
 6583W        W73366  35.375  11.650  14.566
 6584W        W73367  16.647   8.171  11.632
 6585W        W73368  42.510  43.192  11.938
 6586W        W73369   6.537  22.834  14.474
 6587W        W73370  27.603  13.692   2.289
 6588W        W73371  28.024  22.083   3.850
 6589W        W73372   1.786  42.836   4.572
 6590W        W73373  33.968  38.352   4.777
 6591W        W73374  19.273   6.352  11.169
 6592W        W73375   1.722  17.924   3.242
 6593W        W73376  11.561  39.929  13.839
 6594W        W73377  21.775  29.928   3.828
 6595W        W73378  24.945  34.611   3.895
 6596W        W73379  29.586  37.827   1.872
 6597W        W73380   1.293  15.034   2.775
 6598W        W73381  31.813  37.329   2.869
 6599W        W73382   6.168   4.271  13.291
 6600W        W73383  39.341   0.472  11.052
 6601W        W73384  21.967  18.010  11.159
 6602W        W73385  36.034   4.129  11.017
 6603W        W73386   0.056   9.858   3.752
 6604W        W73387  20.712  23.637   3.803
 6605W        W73388   3.160  24.999   3.218
 6606W        W73389  11.461   5.606  13.436
 6607W        W73390  41.837   7.730   0.734
 6608W        W73391  34.639  33.580  14.874
 6609W        W73392  27.098  34.922   2.389
 6610W        W73393  24.041  33.144  12.075
 6611W        W73394  19.035  33.415  14.048
 6612W        W73395   0.386  41.084   0.108
 6613W        W73396  39.363  28.212  14.223
 6614W        W73397   5.032  41.013   4.893
 6615W        W73398  11.108  42.795  13.806
 6616W        W73399  21.540  33.335  10.644
 6617W        W73400  36.569  23.254  12.122
 6618W        W73401  39.827  35.953  13.738
 6619W        W73402  36.957  18.644  10.989
 6620W        W73403  42.315  31.024   4.733
 6621W        W73404   6.580  25.642  14.395
 6622W        W73405  19.728  15.762  11.953
 6623W        W73406   7.406  28.498   3.319
 6624W        W73407  38.123   4.490   2.178
 6625W        W73408  20.214   7.832  12.199
 6626W        W73409  43.192  34.885   2.722
 6627W        W73410   3.376  37.373   2.916
 6628W        W73411   8.055  44.071   4.110
 6629W        W73412  24.985  44.294  11.946
 6630W        W73413  28.448   5.747   4.448
 6631W        W73414  44.243  18.017   0.972
 6632W        W73415   6.720  29.104   0.281
 6633W        W73416  40.418  27.735   1.399
 6634W        W73417  32.396  16.153  12.214
 6635W        W73418  37.582   3.298  13.468
 6636W        W73419  20.494  40.202   3.178
 6637W        W73420  36.060  39.662   1.709
 6638W        W73421  27.927  33.524   0.760
 6639W        W73422  13.693  13.611   0.361
 6640W        W73423  12.252   3.787   0.893
 6641W        W73424  19.135  16.639  12.590
 6642W        W73425  37.040  25.787   4.545
 6643W        W73426  18.762  26.105   3.143
 6644W        W73427  15.367  12.480  14.736
 6645W        W73428  37.953   3.804   0.024
 6646W        W73429  42.997  32.693   0.324
 6647W        W73430  33.552   9.379   0.831
 6648W        W73431  11.057  32.782   2.195
 6649W        W73432  42.412   3.863  13.366
 6650W        W73433  27.270   7.973   3.594
 6651W        W73434  15.651   3.894   1.246
 6652W        W73435  23.690  14.579  10.762
 6653W        W73436  14.835   5.369   4.266
 6654W        W73437  23.520  29.797   1.815
 6655W        W73438   0.477  41.947   0.730
 6656W        W73439  17.243  34.051   0.485
 6657W        W73440  13.488  17.004   4.995
 6658W        W73441  36.082   3.736   5.042
 6659W        W73442  27.437   5.132   0.348
 6660W        W73443  27.072   6.824   3.733
 6661W        W73444   4.974  27.272   4.848
 6662W        W73445  16.724  37.672  11.019
 6663W        W73446  13.245  42.525  11.193
 6664W        W73447   4.309  41.161  10.715
 6665W        W73448  12.724  26.986  10.643
 6666W        W73449  38.147  20.496  12.462
 6667W        W73450   1.212  42.870  12.988
 6668W        W73451   1.792  41.027   1.753
 6669W        W73452   5.793  44.848  14.371
 6670W        W73453  26.548  43.923  10.931
 6671W        W73454  32.149  33.771  10.878
 6672W        W73455  38.964   5.623   3.306
 6673W        W73456  29.928   7.883   3.707
 6674W        W73457  24.228   8.057  11.675
 6675W        W73458  12.545  38.959   0.899
 6676W        W73459  29.677  43.277  12.618
 6677W        W73460   6.458   1.431   3.645
 6678W        W73461  29.497   0.144   0.358
 6679W        W73462   1.145  28.657  12.002
 6680W        W73463  26.146  38.041   4.576
 6681W        W73464  31.471  30.153   2.787
 6682W        W73465  20.822  24.720  12.505
 6683W        W73466   2.470  24.213   1.636
 6684W        W73467   7.586  24.699  10.452
 6685W        W73468  24.681  23.579   0.511
 6686W        W73469   6.864   8.799  13.502
 6687W        W73470  40.851  33.972  11.661
 6688W        W73471  26.615  13.705  13.415
 6689W        W73472  18.982  37.961  14.360
 6690W        W73473  44.318  44.209   4.779
 6691W        W73474  37.731  21.300  10.449
 6692W        W73475  20.833   2.346   4.805
 6693W        W73476  21.771  13.731   1.338
 6694W        W73477  40.265  27.697  13.809
 6695W        W73478  18.612  23.369   0.953
 6696W        W73479  28.611  40.744  11.850
 6697W        W73480  28.121  34.456  10.777
 6698W        W73481  15.452   1.013   3.788
 6699W        W73482  35.078   1.460  12.039
 6700W        W73483  21.820  16.137   1.081
 6701W        W73484   1.024  18.236  11.142
 6702W        W73485  30.483  23.124  14.751
 6703W        W73486  40.060  14.710   1.737
 6704W        W73487  33.598  35.005  12.654
 6705W        W73488  14.281  29.392  10.749
 6706W        W73489  12.692   2.219   3.642
 6707W        W73490   8.387  15.293  14.485
 6708W        W73491  12.415   1.581   1.319
 6709W        W73492  23.608  26.538   3.474
 6710W        W73493  24.298   5.968  10.105
 6711W        W73494  19.132  19.739  11.155
 6712W        W73495  17.143  11.077  11.262
 6713W        W73496  22.490  21.183   5.277
 6714W        W73497  16.707  37.872   2.771
 6715W        W73498  23.995  35.979  13.766
 6716W        W73499  35.375  27.532  14.826
 6717W        W73500   3.787  37.467   2.636
 6718W        W73501  40.501  22.823  11.557
 6719W        W73502  28.148  28.526  13.864
 6720W        W73503  36.025  19.043  13.329
 6721W        W73504   9.856  19.072  11.965
 6722W        W73505  29.935  19.048   2.855
 6723W        W73506   7.650   8.390  11.574
 6724W        W73507  28.241  11.899   4.529
 6725W        W73508  24.192  33.722  14.248
 6726W        W73509  33.102  19.326  11.987
 6727W        W73510   7.483   9.330   0.334
 6728W        W73511  25.176  36.801   4.119
 6729W        W73512   3.499  40.019  12.449
 6730W        W73513  31.870  19.172   1.895
 6731W        W73514  16.115  26.489   2.246
 6732W        W73515  25.182  10.967  12.145
 6733W        W73516  21.086   6.258  12.853
 6734W        W73517  44.541   0.563   5.063
 6735W        W73518  22.747  40.927   3.240
 6736W        W73519  33.989  34.287   2.194
 6737W        W73520   8.683  42.122  12.492
 6738W        W73521  28.735  23.183   2.674
 6739W        W73522  24.668  13.288   2.441
 6740W        W73523  34.178   9.199   0.250
 6741W        W73524  39.459  14.599  14.715
 6742W        W73525  25.294  38.620  14.507
 6743W        W73526  14.791  24.752   4.093
 6744W        W73527   7.704  19.139   1.664
 6745W        W73528  17.205  23.424  12.509
 6746W        W73529  41.460  38.302   4.681
 6747W        W73530  39.972   7.614  11.792
 6748W        W73531  18.687  14.634   3.720
 6749W        W73532  12.293  13.264  11.454
 6750W        W73533  29.137  10.608   0.749
 6751W        W73534  36.510   5.973   1.592
 6752W        W73535  36.370  31.846   3.086
 6753W        W73536   5.437  17.068   0.286
 6754W        W73537  32.217   7.070   5.560
 6755W        W73538  17.217   0.470  12.269
 6756W        W73539   9.926  26.133   1.843
 6757W        W73540   8.211  23.526  14.335
 6758W        W73541   8.289   7.466  11.590
 6759W        W73542  39.851  23.069   3.817
 6760W        W73543  40.009  29.196   0.205
 6761W        W73544  10.697  21.747  12.130
 6762W        W73545  12.261  31.109   3.294
 6763W        W73546  23.627  26.288   2.066
 6764W        W73547  23.716   6.520   5.094
 6765W        W73548  38.367  36.028   4.501
 6766W        W73549  10.416  12.367  14.876
 6767W        W73550  27.030   1.418   2.615
 6768W        W73551  34.820  22.631   0.277
 6769W        W73552  25.095  12.243  11.662
 6770W        W73553  37.886  15.564   1.113
 6771W        W73554   6.259  38.854  14.007
 6772W        W73555  44.444   4.613   1.302
 6773W        W73556   7.695   9.341   4.561
 6774W        W73557   1.602  34.542   4.169
 6775W        W73558  15.133  35.833   5.022
 6776W        W73559  33.626  44.850   1.227
 6777W        W73560   6.706  31.273  14.199
 6778W        W73561  18.604  35.825   0.259
 6779W        W73562  36.097   5.950  11.968
 6780W        W73563  37.988  23.461  12.063
 6781W        W73564   7.806  19.757   0.108
 6782W        W73565  42.406  40.556  14.548
 6783W        W73566   9.757   4.916   1.748
 6784W        W73567   5.254  29.724  12.616
 6785W        W73568  20.907  33.350  10.935
 6786W        W73569  19.343  21.346   0.412
 6787W        W73570  41.558   4.183   4.397
 6788W        W73571  32.027  19.670   4.633
 6789W        W73572  12.670  37.121  13.335
 6790W        W73573  20.575  13.097  12.831
 6791W        W73574  18.573  33.002  10.626
 6792W        W73575  27.439  30.976   0.298
 6793W        W73576  23.619  22.608  13.250
 6794W        W73577  20.357  34.226   4.262
 6795W        W73578  44.767  40.866   2.208
 6796W        W73579  11.777  30.936  14.949
 6797W        W73580   6.410  33.067   1.349
 6798W        W73581  31.040   2.168   3.601
 6799W        W73582   7.482   8.340  12.479
 6800W        W73583   9.106  17.574   4.917
 6801W        W73584  10.763  41.264  14.903
 6802W        W73585  30.319  15.674  13.889
 6803W        W73586   8.785  10.093   0.773
 6804W        W73587  27.718  38.003  12.904
 6805W        W73588  40.246   9.810  11.042
 6806W        W73589  38.548  16.259  13.130
 6807W        W73590  44.001   8.653   2.748
 6808W        W73591  40.562  41.892   1.624
 6809W        W73592  43.275   5.773  14.448
 6810W        W73593  10.265  41.265  10.783
 6811W        W73594  30.992  16.161  11.647
 6812W        W73595  16.890   4.564  12.075
 6813W        W73596  15.245  44.402   1.705
 6814W        W73597   4.691  32.053   4.657
 6815W        W73598  18.957  31.066  14.577
 6816W        W73599  33.457  42.267   4.578
 6817W        W73600  14.755  31.727   0.213
 6818W        W73601   9.521  23.735   3.127
 6819W        W73602   8.720  33.413   2.838
 6820W        W73603  25.374  16.689  11.327
 6821W        W73604  24.089   8.910  10.689
 6822W        W73605  25.149   1.222   4.302
 6823W        W73606  14.281  26.449   2.295
 6824W        W73607  37.159  40.681  14.982
 6825W        W73608   1.263  37.545   1.213
 6826W        W73609  20.706  32.373  13.029
 6827W        W73610   2.559   3.877   3.664
 6828W        W73611  32.935   6.761  13.555
 6829W        W73612   3.131   7.157  11.327
 6830W        W73613   5.681  24.490   1.253
 6831W        W73614  11.836  39.521  14.068
 6832W        W73615  19.511   0.477   4.946
 6833W        W73616  41.421  33.382  13.795
 6834W        W73617  24.521  29.383  14.042
 6835W        W73618   0.046  33.537  11.096
 6836W        W73619  41.278  12.661  13.407
 6837W        W73620  34.756  41.279  10.955
 6838W        W73621  19.451   1.949  10.279
 6839W        W73622  36.840  26.040  13.668
 6840W        W73623  15.135  34.378  13.417
 6841W        W73624  19.348   4.970   2.223
 6842W        W73625  36.617  22.515  10.190
 6843W        W73626  42.515  36.926   2.144
 6844W        W73627  31.474   3.546  14.874
 6845W        W73628  32.027  15.141  14.019
 6846W        W73629  32.066  10.889  12.488
 6847W        W73630   8.208  14.200  11.902
 6848W        W73631   4.967   6.199   4.632
 6849W        W73632  44.710  18.300  11.668
 6850W        W73633  18.516   8.907  14.827
 6851W        W73634   8.789  32.962  13.884
 6852W        W73635  16.698  33.964  11.907
 6853W        W73636  25.032  41.778   1.313
 6854W        W73637  27.540  10.352   1.480
 6855W        W73638  21.547  22.577   0.741
 6856W        W73639  27.521  16.662  13.950
 6857W        W73640  16.200  28.669  11.650
 6858W        W73641  42.164  19.895   0.343
 6859W        W73642  24.592  18.234  12.598
 6860W        W73643  25.561  41.315  12.682
 6861W        W73644  31.504  34.199   1.346
 6862W        W73645  28.479  22.230   3.610
 6863W        W73646  23.209  33.064  10.792
 6864W        W73647  27.216  16.646   2.674
 6865W        W73648  15.700   8.839  14.146
 6866W        W73649  29.098  12.200  10.390
 6867W        W73650  12.791  31.995   1.014
 6868W        W73651  32.473   8.573  12.472
 6869W        W73652  41.823  14.659   0.220
 6870W        W73653  44.376   1.350  12.124
 6871W        W73654  19.212  15.862  11.919
 6872W        W73655  33.905  37.089  10.404
 6873W        W73656  21.279   5.680   1.637
 6874W        W73657  20.616  33.644  11.257
 6875W        W73658  11.000   1.405   1.209
 6876W        W73659  29.785  34.136  12.025
 6877W        W73660  43.356  23.844   0.758
 6878W        W73661  44.805  39.785   3.693
 6879W        W73662   3.840  18.167  12.352
 6880W        W73663  23.436  20.253   3.597
 6881W        W73664   5.840  26.475  13.034
 6882W        W73665  34.499  19.059  14.556
 6883W        W73666  17.269  13.419  10.646
 6884W        W73667  24.074  22.059   0.422
 6885W        W73668  25.604   4.028   2.864
 6886W        W73669  14.363  43.389  13.100
 6887W        W73670   4.620  23.561  14.722
 6888W        W73671  30.890  27.522  11.458
 6889W        W73672   4.973  41.121   2.691
 6890W        W73673   4.391  42.030  11.261
 6891W        W73674  30.229  39.921   4.827
 6892W        W73675   3.184  28.560   3.815
 6893W        W73676  38.923  21.597  12.744
 6894W        W73677  37.628  37.465  12.175
 6895W        W73678   9.725  42.080  12.437
 6896W        W73679  25.861  32.959   2.342
 6897W        W73680   9.745  35.965  10.311
 6898W        W73681  43.603  10.684  10.932
 6899W        W73682  31.561   8.672   2.549
 6900W        W73683  17.054  44.968  10.963
 6901W        W73684  32.981   6.913  12.497
 6902W        W73685  15.201  33.609   4.269
 6903W        W73686  29.258  27.240  12.664
 6904W        W73687  42.273  40.887  10.680
 6905W        W73688  43.404   6.808  12.576
 6906W        W73689   2.145  42.127  13.804
 6907W        W73690  40.955   3.719  12.356
 6908W        W73691   9.964  28.505   1.813
 6909W        W73692  29.581  18.689   2.828
 6910W        W73693  11.393  15.084  12.222
 6911W        W73694  25.443   2.950   0.330
 6912W        W73695  39.968  32.715   1.239
 6913W        W73696   4.731  43.306   2.685
 6914W        W73697  20.414   7.253   4.563
 6915W        W73698   9.275  42.823   4.538
 6916W        W73699  17.377  29.506  10.580
 6917W        W73700  44.716   1.526   2.740
 6918W        W73701  19.679  16.653  12.495
 6919W        W73702  10.356  33.218   3.833
 6920W        W73703  43.271   3.577   2.050
 6921W        W73704  13.791  10.506   0.348
 6922W        W73705  37.913  41.349   4.534
 6923W        W73706  16.484  27.362   1.825
 6924W        W73707  20.512  29.071   4.294
 6925W        W73708  19.068  19.648   2.218
 6926W        W73709   5.670  22.553  12.278
 6927W        W73710  15.245   3.954   1.596
 6928W        W73711   4.439  37.468  12.935
 6929W        W73712  14.705  33.574   4.494
 6930W        W73713  10.387   7.272  13.931
 6931W        W73714  23.653  35.557   4.858
 6932W        W73715  24.596  16.800  12.918
 6933W        W73716  32.475  20.115  12.350
 6934W        W73717  23.564  35.894  11.969
 6935W        W73718  26.159  38.470   0.748
 6936W        W73719  37.154  38.801  12.977
 6937W        W73720  35.115  24.221  14.961
 6938W        W73721  16.580  21.214   2.267
 6939W        W73722  15.627   7.392   0.299
 6940W        W73723   4.025  36.953   3.201
 6941W        W73724  16.043  37.055   2.254
 6942W        W73725  43.032  25.512   1.192
 6943W        W73726  28.266  41.801   0.907
 6944W        W73727  24.261  20.317  13.389
 6945W        W73728   1.570  36.866   0.757
 6946W        W73729  39.773  31.376   4.389
 6947W        W73730  39.030  43.880   1.918
 6948W        W73731  17.956  22.496   0.600
 6949W        W73732  31.545  19.509   4.544
 6950W        W73733   8.139   6.123  14.057
 6951W        W73734   6.635  40.476   1.369
 6952W        W73735  33.967  10.856   0.912
 6953W        W73736  40.831  42.959   0.339
 6954W        W73737  24.518  21.995   2.738
 6955W        W73738  28.216  14.302   4.242
 6956W        W73739   1.174  25.409  14.446
 6957W        W73740   3.571  23.740   2.857
 6958W        W73741  40.434  10.432  12.480
 6959W        W73742  26.069  13.806   2.354
 6960W        W73743  35.690   3.418   1.698
 6961W        W73744   8.362  13.750   2.200
 6962W        W73745  42.284  44.903  13.514
 6963W        W73746  42.992  33.250   5.004
 6964W        W73747  43.275   7.229   2.154
 6965W        W73748  20.031  35.544   2.332
 6966W        W73749  34.004  42.822  11.110
 6967W        W73750  24.735   8.042  12.988
 6968W        W73751   5.990  43.022   2.548
 6969W        W73752  19.994  31.107   4.527
 6970W        W73753   7.823  34.545   0.540
 6971W        W73754  40.190   1.231   3.691
 6972W        W73755  40.856  43.062   5.083
 6973W        W73756  39.499   4.823  14.537
 6974W        W73757  35.723  21.220  14.286
 6975W        W73758  25.533  21.093  12.633
 6976W        W73759  44.926   2.955  10.485
 6977W        W73760  35.831  37.331   4.222
 6978W        W73761  20.792  42.571  10.377
 6979W        W73762  24.058   8.215   3.636
 6980W        W73763  36.113  30.914  10.429
 6981W        W73764  41.948  27.456  10.680
 6982W        W73765  23.542  14.326  13.146
 6983W        W73766   5.185  14.665   3.544
 6984W        W73767  26.673  42.739   0.378
 6985W        W73768   4.812   5.646  13.080
 6986W        W73769   1.257   1.780   0.485
 6987W        W73770  21.719  23.977  13.844
 6988W        W73771  33.313  22.889   3.272
 6989W        W73772   0.317  36.518   2.649
 6990W        W73773  44.038  26.690   4.037
 6991W        W73774  22.598  32.466   3.285
 6992W        W73775   5.005  32.746  14.107
 6993W        W73776   7.190   2.218  11.869
 6994W        W73777   1.880  14.967   3.176
 6995W        W73778  43.729  44.856  13.829
 6996W        W73779  11.075  17.139   1.304
 6997W        W73780  28.430  17.976  11.530
 6998W        W73781  17.818  28.364   4.079
 6999W        W73782   9.287  30.761  13.286
 7000W        W73783  33.335  26.985   3.145
 7001W        W73784  41.927  31.023   1.311
 7002W        W73785   3.713  36.398   4.364
 7003W        W73786  36.269  13.745   4.327
 7004W        W73787  25.059  35.342   2.618
 7005W        W73788  34.581  19.273  12.052
 7006W        W73789  35.787  33.518  11.073
 7007W        W73790  34.363   9.374  10.473
 7008W        W73791   0.842  27.446   0.480
 7009W        W73792  35.093   5.835   0.036
 7010W        W73793  34.016   2.215   0.888
 7011W        W73794  30.958  31.015  12.606
 7012W        W73795  26.077  44.996   2.232
 7013W        W73796  44.251   2.877  10.990
 7014W        W73797  34.961  28.959  11.633
 7015W        W73798  38.302  19.169   3.695
 7016W        W73799  20.539  25.223   2.698
 7017W        W73800   5.489   0.706  12.029
 7018W        W73801  41.990  19.419   1.553
 7019W        W73802  23.478  17.067  11.529
 7020W        W73803  33.609  15.149   2.119
 7021W        W73804   5.363   9.374   2.406
 7022W        W73805   1.850   7.732   4.930
 7023W        W73806   8.730  11.673  11.012
 7024W        W73807  33.213   2.934  12.000
 7025W        W73808  33.925  41.719  14.926
 7026W        W73809  17.150   6.873  11.559
 7027W        W73810  23.635  28.719  10.946
 7028W        W73811  18.217  34.682  11.925
 7029W        W73812   7.358  32.923   3.752
 7030W        W73813  19.219  39.660  14.605
 7031W        W73814   0.918  30.914  12.873
 7032W        W73815  27.610  19.014   1.345
 7033W        W73816   3.683   5.400   1.769
 7034W        W73817  42.416  35.656  11.212
 7035W        W73818  39.867  17.030  11.813
 7036W        W73819  29.614   7.502  13.417
 7037W        W73820  13.297   7.200  10.626
 7038W        W73821  23.893   2.758   3.438
 7039W        W73822  10.947  31.794   4.579
 7040W        W73823  12.062   3.752   3.242
 7041W        W73824  35.240  37.786  14.008
 7042W        W73825  35.408   9.124  12.524
 7043W        W73826  20.826  12.363   4.104
 7044W        W73827   8.037  12.555  11.587
 7045W        W73828  38.278  20.809   3.246
 7046W        W73829  29.959  41.874   5.578
 7047W        W73830  19.845  26.236  11.658
 7048W        W73831  22.876  42.065  14.674
 7049W        W73832  20.315  42.367  11.568
 7050W        W73833   6.000   6.697  11.111
 7051W        W73834  39.068  22.261   4.114
 7052W        W73835  41.358  40.492   1.514
 7053W        W73836  11.566   1.365   2.840
 7054W        W73837  15.072   1.812   4.353
 7055W        W73838  17.644  22.068  11.153
 7056W        W73839  21.069   0.789  12.073
 7057W        W73840  17.724  10.387  14.482
 7058W        W73841  41.464  26.923  11.104
 7059W        W73842  17.589   7.141   1.901
 7060W        W73843   4.624  12.175   1.325
 7061W        W73844  27.777  42.977   3.444
 7062W        W73845  23.011  35.478  14.062
 7063W        W73846  35.753  16.666   2.292
 7064W        W73847  40.492  39.891   1.783
 7065W        W73848  31.569   2.812  11.182
 7066W        W73849  38.525   8.639  12.600
 7067W        W73850  24.419   2.809   3.556
 7068W        W73851  22.019  23.779  11.935
 7069W        W73852  30.566  28.901   0.357
 7070W        W73853  14.862  29.545   4.775
 7071W        W73854  27.512  10.497   0.967
 7072W        W73855   5.701   2.055  12.169
 7073W        W73856  23.738  33.404  14.298
 7074W        W73857  25.067  31.353   5.073
 7075W        W73858   8.908  37.031  11.112
 7076W        W73859   8.208  26.594   4.123
 7077W        W73860   2.371  24.299   1.123
 7078W        W73861   1.403  22.219   3.552
 7079W        W73862  41.526   5.970   0.731
 7080W        W73863  41.687  13.397  11.680
 7081W        W73864  13.170  41.588  11.469
 7082W        W73865   7.555  13.716   3.952
 7083W        W73866   2.062  13.200  14.567
 7084W        W73867  15.477  13.332   0.690
 7085W        W73868  34.081  11.705  10.952
 7086W        W73869  31.057  11.802  13.526
 7087W        W73870   3.522  13.232  13.288
 7088W        W73871  36.325   0.000   1.412
 7089W        W73872  38.441  38.989   3.102
 7090W        W73873  33.233  20.097  11.764
 7091W        W73874  22.081  11.631  11.920
 7092W        W73875  33.326   9.951  11.253
 7093W        W73876  32.324  10.734  14.798
 7094W        W73877   7.094  37.950  11.590
 7095W        W73878  12.277   4.713  13.936
 7096W        W73879  10.886   9.077   4.557
 7097W        W73880  40.372  32.842  14.483
 7098W        W73881  31.151  43.642   1.292
 7099W        W73882  23.176  44.627  13.490
 7100W        W73883   5.514  23.460  11.717
 7101W        W73884  13.820   9.322  11.122
 7102W        W73885  42.489  11.070   2.680
 7103W        W73886  30.155  22.501  11.396
 7104W        W73887  14.364   4.731   0.926
 7105W        W73888   6.768  42.186   1.763
 7106W        W73889  28.071   0.009   2.651
 7107W        W73890  25.605  16.812   3.733
 7108W        W73891  44.964   1.823   4.027
 7109W        W73892  30.451  24.462  13.809
 7110W        W73893  10.158  14.973  12.658
 7111W        W73894   6.864  28.100   4.568
 7112W        W73895   0.715  14.497  14.056
 7113W        W73896  33.922  23.720  10.660
 7114W        W73897  22.510  39.901  14.246
 7115W        W73898  29.109   3.877  14.954
 7116W        W73899  42.209   3.899   3.586
 7117W        W73900   8.533  27.122  10.707
 7118W        W73901  11.264   3.070  14.452
 7119W        W73902  23.443  35.476  14.341
 7120W        W73903   7.636  18.285  11.958
 7121W        W73904  29.748  42.972   0.579
 7122W        W73905  38.039  36.558  12.515
 7123W        W73906   6.826  20.179   2.239
 7124W        W73907   4.728   9.761   0.412
 7125W        W73908  18.968   0.987  11.516
 7126W        W73909  44.159  14.879   2.254
 7127W        W73910  26.024  29.103   4.711
 7128W        W73911  39.959   0.200  13.027
 7129W        W73912  23.714  12.451  14.953
 7130W        W73913  42.811   4.224  10.998
 7131W        W73914  18.282  29.130   3.257
 7132W        W73915  38.541  23.099   2.211
 7133W        W73916  24.698  35.299   3.345
 7134W        W73917  36.398  44.713   4.240
 7135W        W73918   3.979  43.964   0.013
 7136W        W73919  40.053  10.084  14.304
 7137W        W73920   6.223  37.447  10.405
 7138W        W73921  38.907  31.458   4.290
 7139W        W73922  13.858  36.517   0.741
 7140W        W73923  37.307  34.844   3.046
 7141W        W73924  33.921  34.866  10.751
 7142W        W73925   9.104  14.000   1.776
 7143W        W73926  41.054  24.645  12.126
 7144W        W73927  24.237   8.344   1.289
 7145W        W73928  17.058  16.274   2.241
 7146W        W73929  22.200  12.870  13.340
 7147W        W73930  29.512  21.190   2.399
 7148W        W73931  42.263  31.674  12.084
 7149W        W73932  33.571  33.129   4.089
 7150W        W73933   3.217  33.446  10.483
 7151W        W73934  23.040  19.179  13.482
 7152W        W73935  13.095  18.131   0.223
 7153W        W73936  13.610   1.885  13.992
 7154W        W73937  28.180  35.929   1.686
 7155W        W73938  40.103   4.241  14.858
 7156W        W73939   7.425  27.726  12.018
 7157W        W73940  44.366   3.912   2.831
 7158W        W73941  21.545  34.707   4.781
 7159W        W73942  39.324  18.464   0.035
 7160W        W73943  31.161   1.242  11.129
 7161W        W73944   3.709  43.510  11.179
 7162W        W73945   0.477  28.593   2.243
 7163W        W73946   2.831  16.181  10.937
 7164W        W73947  11.451  29.773  13.845
 7165W        W73948  39.843  12.348   4.707
 7166W        W73949   9.305  37.077   4.478
 7167W        W73950  22.016  15.981   1.639
 7168W        W73951  35.958  27.013  12.370
 7169W        W73952  30.233  38.282   3.261
 7170W        W73953  41.489  28.375   0.572
 7171W        W73954  28.036   4.665  10.714
 7172W        W73955  43.335  33.362  12.720
 7173W        W73956   3.377  27.489  13.038
 7174W        W73957  36.664   6.935   1.323
 7175W        W73958   6.889  37.438   1.248
 7176W        W73959   8.701  23.932   2.736
 7177W        W73960  34.289   2.263   2.074
 7178W        W73961  39.977   2.100  14.766
 7179W        W73962  43.843  12.101   1.181
 7180W        W73963  41.441  22.749  11.513
 7181W        W73964  35.875  15.237   2.815
 7182W        W73965  24.614  38.306  11.221
 7183W        W73966  13.682  30.421   0.751
 7184W        W73967  36.154   8.324   1.817
 7185W        W73968  32.498   5.297   4.880
 7186W        W73969  34.823  24.363   5.120
 7187W        W73970   0.260  23.259   0.596
 7188W        W73971  30.734  28.901   4.511
 7189W        W73972  23.088  15.716   4.960
 7190W        W73973  30.429  24.524   4.656
 7191W        W73974  22.497   0.788  10.678
 7192W        W73975  42.773  16.333   0.371
 7193W        W73976  32.961  34.406  11.205
 7194W        W73977   0.569  29.488  10.572
 7195W        W73978  35.477  13.994  14.271
 7196W        W73979   5.739  32.470  12.376
 7197W        W73980   3.699  39.472   4.183
 7198W        W73981  35.629  29.752   0.125
 7199W        W73982  37.782  12.114   2.399
 7200W        W73983   0.768  41.214   3.633
 7201W        W73984   0.344  23.591   1.623
 7202W        W73985  18.704  20.215  13.104
 7203W        W73986  19.257  34.324  10.914
 7204W        W73987  16.635  26.692   0.454
 7205W        W73988   8.655   3.313   3.802
 7206W        W73989  11.664   2.890   3.116
 7207W        W73990  35.698   7.475  11.163
 7208W        W73991  33.470   5.911  11.897
 7209W        W73992  39.878  29.519  10.586
 7210W        W73993  16.758  18.822  13.856
 7211W        W73994  27.183  38.806  14.878
 7212W        W73995  41.249  12.840  11.156
 7213W        W73996  27.022  10.401   0.708
 7214W        W73997  40.397   7.844   1.163
 7215W        W73998  34.271  13.624   3.615
 7216W        W73999  41.435  32.890  13.918
 7217W        W74000  35.313   8.119  12.536
 7218W        W74001  35.512   9.201   4.585
 7219W        W74002  37.210  10.283  14.989
 7220W        W74003  19.731  32.496   0.217
 7221W        W74004  43.181  17.166   5.346
 7222W        W74005   6.343  34.877   4.935
 7223W        W74006  26.498   7.841  12.133
 7224W        W74007   3.392  12.316  10.374
 7225W        W74008  15.351  12.085   2.438
 7226W        W74009  32.402  26.019   3.209
 7227W        W74010  33.555  28.049   3.758
 7228W        W74011   5.241  31.575   0.490
 7229W        W74012  19.045  26.076  12.399
 7230W        W74013  42.009  28.481   3.165
 7231W        W74014  40.521   5.902   3.201
 7232W        W74015  16.701  38.776   3.664
 7233W        W74016   8.911  22.999   4.584
 7234W        W74017  23.487  38.812   0.275
 7235W        W74018  12.404   6.360   0.928
 7236W        W74019   3.340  41.289  13.348
 7237W        W74020  21.373  13.256   0.486
 7238W        W74021  16.392  18.279   0.267
 7239W        W74022  15.826  13.061  11.350
 7240W        W74023  43.262  12.870  14.263
 7241W        W74024   4.705  22.269   0.342
 7242W        W74025   5.581  31.332  11.943
 7243W        W74026  23.064   4.653  12.125
 7244W        W74027   4.236  32.956   3.797
 7245W        W74028  36.494  14.127   1.716
 7246W        W74029  31.408  10.110  11.114
 7247W        W74030   0.889   0.871   2.182
 7248W        W74031  33.093  38.019   1.538
 7249W        W74032  27.610  44.705  11.985
 7250W        W74033  31.286  28.164  13.421
 7251W        W74034  10.370  38.499  11.221
 7252W        W74035  40.118  34.344   2.328
 7253W        W74036   4.925   3.430  14.504
 7254W        W74037  19.772  13.787   1.020
 7255W        W74038  14.517  29.042   0.387
 7256W        W74039  40.783  28.556   0.955
 7257W        W74040  16.785  26.947  13.407
 7258W        W74041  13.665  11.985   2.749
 7259W        W74042   9.422  43.811  11.681
 7260W        W74043   0.766  32.108  11.200
 7261W        W74044  15.184  19.194   1.862
 7262W        W74045  20.741  15.668  11.580
 7263W        W74046  43.044  26.015  13.914
 7264W        W74047  43.058  18.335  12.751
 7265W        W74048  38.365  26.567   3.728
 7266W        W74049   7.532   6.052   1.600
 7267W        W74050  16.892  27.492   2.637
 7268W        W74051  15.285  31.603   1.893
 7269W        W74052  21.544   2.675   2.593
 7270W        W74053   2.311  22.100  13.580
 7271W        W74054   9.716  39.752  12.702
 7272W        W74055  12.437  24.084   3.191
 7273W        W74056  15.095  10.408   3.356
 7274W        W74057  40.113  39.503  14.269
 7275W        W74058  31.715   0.991   3.602
 7276W        W74059  28.110  32.608  11.994
 7277W        W74060  27.619  25.738  13.131
 7278W        W74061   7.973   0.853  12.108
 7279W        W74062  16.385  32.226  13.145
 7280W        W74063  38.018  33.014  13.803
 7281W        W74064   3.630  14.075   3.489
 7282W        W74065  11.236   2.872   3.413
 7283W        W74066  21.155  35.591  13.146
 7284W        W74067  37.289  18.669  12.008
 7285W        W74068  23.428  17.126  13.879
 7286W        W74069  35.325   8.220  11.533
 7287W        W74070   9.233  40.860  13.560
 7288W        W74071   0.446  20.999   2.695
 7289W        W74072  11.299  31.088   3.063
 7290W        W74073  15.211  19.151   0.441
 7291W        W74074  13.299  44.953  11.990
 7292W        W74075  40.517  25.957  13.558
 7293W        W74076   1.548  28.340  12.120
 7294W        W74077   1.356   2.206  12.059
 7295W        W74078  37.027  37.107  11.981
 7296W        W74079  41.235   6.761  10.607
 7297W        W74080   4.284  18.960  13.042
 7298W        W74081  23.476  37.314   4.189
 7299W        W74082  27.423  24.233   2.398
 7300W        W74083  13.163  44.026   1.498
 7301W        W74084   8.071  21.576   0.527
 7302W        W74085   6.084  27.996  13.926
 7303W        W74086  32.926   9.850   2.330
 7304W        W74087  37.575  42.812   1.816
 7305W        W74088  10.612   1.020   4.049
 7306W        W74089  12.675  27.088   0.908
 7307W        W74090  14.382  35.445   1.895
 7308W        W74091   7.878  29.051  14.013
 7309W        W74092  39.941  15.090  14.112
 7310W        W74093   3.336  43.337  14.802
 7311W        W74094  39.906  43.965  13.418
 7312W        W74095  13.700   9.102   1.036
 7313W        W74096  17.335  21.561   4.182
 7314W        W74097  30.050  20.606   2.815
 7315W        W74098  34.601  14.254   4.949
 7316W        W74099  18.049  36.842  11.963
 7317W        W74100  39.963  28.334   0.997
 7318W        W74101  14.861  19.649   1.884
 7319W        W74102  36.819  34.867   4.572
 7320W        W74103  15.359  41.750   0.792
 7321W        W74104  10.731  33.637   2.284
 7322W        W74105   6.150  24.492   2.341
 7323W        W74106  35.012  36.393  10.769
 7324W        W74107  16.380  16.148   3.806
 7325W        W74108   1.172   8.833   1.830
 7326W        W74109  44.632  13.740  13.916
 7327W        W74110  24.499   8.773  14.955
 7328W        W74111  22.624  42.091  13.488
 7329W        W74112  28.068   6.503   1.232
 7330W        W74113   8.178   0.198  14.761
 7331W        W74114  20.134  12.578  12.164
 7332W        W74115   8.319   5.033  14.819
 7333W        W74116  36.344  18.528  11.045
 7334W        W74117   2.463  36.763   0.668
 7335W        W74118  26.218   2.836   0.640
 7336W        W74119  40.402  32.018   2.869
 7337W        W74120   7.319  42.105  12.046
 7338W        W74121  26.932  11.325   2.135
 7339W        W74122  13.841  44.498   3.635
 7340W        W74123  30.906  31.416   2.748
 7341W        W74124  43.336  24.062   4.836
 7342W        W74125  37.050  19.010  11.673
 7343W        W74126   4.214  29.689   1.813
 7344W        W74127  12.222  16.178   3.623
 7345W        W74128  43.369  37.552   0.281
 7346W        W74129  21.162  13.583   0.856
 7347W        W74130  41.744  44.674  12.570
 7348W        W74131  17.566  23.754  14.297
 7349W        W74132   3.146   4.368  13.604
 7350W        W74133  39.876  44.800  11.110
 7351W        W74134   0.324  16.611  14.085
 7352W        W74135  20.249  16.470  13.975
 7353W        W74136   4.926  21.604  13.009
 7354W        W74137  40.756  33.273  13.012
 7355W        W74138  32.128  35.506  10.524
 7356W        W74139   0.761  12.600  14.141
 7357W        W74140  32.615  34.772  11.039
 7358W        W74141   4.485  25.948  12.038
 7359W        W74142  39.038  19.298  12.598
 7360W        W74143  25.433  23.127   3.175
 7361W        W74144  17.150  29.967   2.727
 7362W        W74145  27.629  23.566  12.808
 7363W        W74146  23.305   3.336   1.374
 7364W        W74147  26.627   9.832  12.690
 7365W        W74148  28.096  13.070  13.686
 7366W        W74149  42.224  35.663  13.521
 7367W        W74150  37.406  34.557  11.485
 7368W        W74151  36.593  39.775  12.151
 7369W        W74152  11.313   6.965  12.996
 7370W        W74153  30.158  17.763  14.844
 7371W        W74154  28.066  26.422   2.734
 7372W        W74155  26.563  10.297  12.948
 7373W        W74156   2.899   4.775   1.851
 7374W        W74157  21.228  38.270   3.606
 7375W        W74158   0.550  44.680   0.661
 7376W        W74159  30.812  41.505  11.519
 7377W        W74160   4.140  28.590  13.101
 7378W        W74161   4.427  15.505  12.433
 7379W        W74162  11.020   7.482  13.501
 7380W        W74163   0.739  28.711   2.670
 7381W        W74164  14.247   4.341  14.512
 7382W        W74165  38.270  26.877  14.898
 7383W        W74166  34.061   8.452   3.697
 7384W        W74167   5.792  19.622   0.844
 7385W        W74168  27.481  43.352   4.375
 7386W        W74169  38.915  40.915   4.544
 7387W        W74170  36.116   7.482  14.571
 7388W        W74171   0.763  42.811  10.026
 7389W        W74172  42.794  20.749  14.550
 7390W        W74173  33.804  41.822  12.683
 7391W        W74174   8.069  30.922   3.632
 7392W        W74175  15.875  13.835  14.782
 7393W        W74176  31.045  30.045  11.001
 7394W        W74177  19.458  39.856  13.292
 7395W        W74178  19.668  25.234  13.501
 7396W        W74179   8.803   5.673  14.301
 7397W        W74180  29.824  21.646  14.521
 7398W        W74181  38.506  22.423   0.819
 7399W        W74182  20.003   5.281  12.525
 7400W        W74183  38.533  15.292  12.978
 7401W        W74184   0.412  34.340  13.528
 7402W        W74185  24.262   2.367  11.678
 7403W        W74186  36.815  17.191  12.874
 7404W        W74187  31.403  11.168   4.092
 7405W        W74188   7.761  14.336   0.559
 7406W        W74189  39.216  43.819   4.777
 7407W        W74190   5.726  30.525  11.617
 7408W        W74191   3.732  21.704   2.819
 7409W        W74192  36.818   3.716  11.433
 7410W        W74193  39.398  13.268   4.799
 7411W        W74194  10.444  24.366  11.760
 7412W        W74195   7.616  28.656   3.785
 7413W        W74196  17.272  26.306   0.975
 7414W        W74197  40.106  16.409  12.957
 7415W        W74198  26.753  27.078  13.843
 7416W        W74199  29.196   7.718  11.994
 7417W        W74200  39.014   0.974  12.589
 7418W        W74201  42.102  19.838   3.745
 7419W        W74202   7.908   6.407   0.785
 7420W        W74203   5.256   1.071  14.940
 7421W        W74204  33.487  16.181   0.223
 7422W        W74205  31.641   9.681  13.945
 7423W        W74206   6.430  13.705   3.124
 7424W        W74207   5.678  18.300   2.333
 7425W        W74208   1.936  20.370   1.644
 7426W        W74209  22.774  19.094  10.150
 7427W        W74210  23.970  13.622   4.520
 7428W        W74211  34.589   6.690  12.512
 7429W        W74212  42.853  23.188   4.222
 7430W        W74213   2.263  25.946  14.826
 7431W        W74214  19.141   1.745  13.722
 7432W        W74215   0.359  25.575  13.985
 7433W        W74216  12.872  18.569   1.870
 7434W        W74217   2.471  38.745   4.478
 7435W        W74218   5.445  30.432  12.853
 7436W        W74219   7.214   7.245   4.640
 7437W        W74220   7.166  31.554   0.389
 7438W        W74221   4.891  22.628  13.910
 7439W        W74222  21.763  38.837   3.132
 7440W        W74223  14.151   4.129   4.634
 7441W        W74224   5.706  10.525  11.816
 7442W        W74225  24.653  38.393  13.916
 7443W        W74226   5.893   6.305  10.759
 7444W        W74227   1.541  19.189   3.647
 7445W        W74228   8.875   5.759   2.669
 7446W        W74229  30.272  12.829   4.062
 7447W        W74230  17.336  31.664   3.289
 7448W        W74231  17.011  41.991  12.416
 7449W        W74232  36.785  11.975  13.940
 7450W        W74233  35.496  13.271  11.908
 7451W        W74234  14.174  16.356  11.892
 7452W        W74235  12.273   9.879  11.367
 7453W        W74236  35.782  34.537   0.702
 7454W        W74237   2.547  31.773  12.607
 7455W        W74238  28.944  37.467   0.796
 7456W        W74239   7.985  26.502  11.532
 7457W        W74240  14.008  30.874   1.649
 7458W        W74241  34.746   5.610  13.286
 7459W        W74242  12.182  44.841   3.127
 7460W        W74243  14.121  19.573   2.224
 7461W        W74244  33.828   1.691  14.573
 7462W        W74245  34.434  31.822   3.732
 7463W        W74246  43.883  13.365   2.264
 7464W        W74247  44.652  39.755  14.425
 7465W        W74248  44.480  12.591   4.277
 7466W        W74249  21.456  31.578   5.150
 7467W        W74250  31.331  36.607   3.178
 7468W        W74251  33.296  14.088  13.431
 7469W        W74252   0.513  31.544   0.990
 7470W        W74253   9.583  44.414  11.049
 7471W        W74254  26.088  24.949   2.613
 7472W        W74255  19.999  20.083  13.932
 7473W        W74256  20.773  38.908  10.718
 7474W        W74257  44.496   4.449  10.260
 7475W        W74258  43.457  10.184  13.888
 7476W        W74259   6.615   4.081   0.473
 7477W        W74260  23.556  42.744  10.216
 7478W        W74261  35.272  16.292   0.206
 7479W        W74262   0.512  42.956   3.248
 7480W        W74263   2.599  14.749  13.474
 7481W        W74264   0.416  37.828   3.621
 7482W        W74265  40.925  27.705  14.470
 7483W        W74266  44.548   3.270  10.102
 7484W        W74267  44.431  27.386  13.922
 7485W        W74268  28.701   2.237  14.828
 7486W        W74269  35.015  12.909  11.035
 7487W        W74270  34.891  24.099   2.882
 7488W        W74271  27.742  26.506   0.950
 7489W        W74272  32.070  32.983   2.271
 7490W        W74273  35.383  32.873  12.018
 7491W        W74274   7.121  44.335   1.764
 7492W        W74275   8.947   0.082  13.094
 7493W        W74276  15.059  21.993  13.586
 7494W        W74277  32.950  16.207  10.552
 7495W        W74278  20.561  37.159  11.173
 7496W        W74279  40.046   6.432   0.434
 7497W        W74280  29.102  44.960  12.118
 7498W        W74281   4.976  39.860  10.410
 7499W        W74282  43.937  32.418   2.277
 7500W        W74283  28.416  11.295  12.566
 7501W        W74284  11.861  17.663   1.402
 7502W        W74285   6.703  32.906   4.149
 7503W        W74286   1.483  40.760  14.428
 7504W        W74287   1.328   9.969   4.151
 7505W        W74288  42.792   2.833   2.854
 7506W        W74289  20.307  12.264  13.957
 7507W        W74290   3.754   9.831   4.831
 7508W        W74291   8.823   9.606  12.475
 7509W        W74292  42.742  43.553   0.829
 7510W        W74293  23.477  33.531   3.775
 7511W        W74294  15.038   8.710   1.750
 7512W        W74295  38.941  44.051   1.387
 7513W        W74296  25.455  34.992  11.555
 7514W        W74297  37.957  22.212  12.460
 7515W        W74298   9.184  34.329   1.250
 7516W        W74299  16.193  22.518  12.989
 7517W        W74300  42.571  12.776   0.383
 7518W        W74301  43.370  28.257  11.408
 7519W        W74302  28.624  26.044   0.145
 7520W        W74303  37.578   1.065  10.590
 7521W        W74304  33.494  38.004   0.239
 7522W        W74305  34.411  16.709   2.939
 7523W        W74306  19.239  28.550  11.014
 7524W        W74307  30.617  17.089  14.397
 7525W        W74308  31.881  27.566   4.944
 7526W        W74309   8.607  18.677  13.522
 7527W        W74310  16.640   1.879  14.039
 7528W        W74311  39.543  31.831  10.484
 7529W        W74312  29.887   1.709  11.113
 7530W        W74313  41.501  25.972   3.630
 7531W        W74314  12.760   9.938   3.209
 7532W        W74315  11.260  35.892  12.104
 7533W        W74316  14.358  31.396  13.405
 7534W        W74317  17.504  25.991  14.753
 7535W        W74318   9.142   4.822  13.424
 7536W        W74319  18.111  28.903  13.129
 7537W        W74320  31.079  37.301   1.719
 7538W        W74321  20.505  17.265  11.991
 7539W        W74322  15.665  29.215  14.884
 7540W        W74323   0.917  15.364   1.234
 7541W        W74324  23.569  43.248  10.356
 7542W        W74325  12.198  12.527   1.270
 7543W        W74326  29.936  27.537  14.906
 7544W        W74327  33.964  13.193  12.994
 7545W        W74328   1.330  11.838   4.153
 7546W        W74329  26.984   8.652   2.835
 7547W        W74330  44.968   5.727   0.074
 7548W        W74331  19.762  21.970  10.545
 7549W        W74332   6.403  43.978  10.948
 7550W        W74333  36.471  38.507   0.893
 7551W        W74334  37.047  40.482   0.443
 7552W        W74335  21.508  13.950  13.459
 7553W        W74336  40.857   4.382   0.432
 7554W        W74337  17.834  33.896   1.345
 7555W        W74338   3.290  19.100  14.626
 7556W        W74339  40.413  27.046   2.046
 7557W        W74340   8.161   7.249   2.828
 7558W        W74341  35.908   3.191  10.997
 7559W        W74342  19.006  25.903  11.635
 7560W        W74343  40.917  26.052   2.187
 7561W        W74344  39.800  34.615  12.858
 7562W        W74345  16.673  17.571  13.364
 7563W        W74346  23.226  17.119  14.367
 7564W        W74347  12.597  18.550   1.421
 7565W        W74348  10.440  24.134  10.350
 7566W        W74349  33.419  39.759  14.849
 7567W        W74350  15.800  13.159   5.017
 7568W        W74351  33.493   9.703   0.312
 7569W        W74352  19.137  10.773   2.097
 7570W        W74353   2.470  13.218  11.493
 7571W        W74354  24.016  19.228  11.723
 7572W        W74355  28.542  43.573   2.206
 7573W        W74356  34.439  30.225  12.522
 7574W        W74357  32.836   2.584   3.353
 7575W        W74358   1.416  36.496   3.356
 7576W        W74359  42.562   7.882   1.848
 7577W        W74360  33.354  15.651  11.546
 7578W        W74361  31.353  23.698   2.342
 7579W        W74362   2.756  19.786   3.758
 7580W        W74363  14.319   1.361   3.950
 7581W        W74364  25.188  14.905  13.717
 7582W        W74365  13.299   8.844   2.605
 7583W        W74366  15.188  11.436   1.754
 7584W        W74367   8.078  44.298   1.807
 7585W        W74368  32.235  33.613  11.388
 7586W        W74369  32.118   7.158  14.073
 7587W        W74370  33.818  18.988   4.738
 7588W        W74371  10.773  28.222  13.703
 7589W        W74372  21.713  20.474   2.359
 7590W        W74373  28.354  29.874   0.424
 7591W        W74374  17.019  25.044  13.390
 7592W        W74375  41.830   3.718  10.620
 7593W        W74376   0.488  25.471   0.123
 7594W        W74377   2.854  11.029  13.419
 7595W        W74378  40.537  20.486  14.893
 7596W        W74379  18.079  39.770   0.737
 7597W        W74380  12.727  36.519   2.751
 7598W        W74381  34.290  19.250   2.331
 7599W        W74382   1.956   4.849  14.767
 7600W        W74383  27.020  33.292   4.928
 7601W        W74384  10.589  25.513   2.652
 7602W        W74385   5.784  19.787   4.741
 7603W        W74386  21.031  19.506  14.377
 7604W        W74387  16.666   3.824   2.636
 7605W        W74388  38.455  27.435   2.299
 7606W        W74389   6.899  41.302   3.780
 7607W        W74390  10.284  12.200   2.634
 7608W        W74391  12.146  43.072  10.264
 7609W        W74392  39.487   9.051   5.059
 7610W        W74393  40.291  28.229   3.657
 7611W        W74394   4.978  36.598   1.437
 7612W        W74395  27.012  22.279  13.385
 7613W        W74396  44.225  28.513  14.543
 7614W        W74397   2.680   6.382   4.227
 7615W        W74398  31.711  19.781   2.578
 7616W        W74399  36.611  44.577   1.234
 7617W        W74400  35.351   0.810  11.512
 7618W        W74401  12.093  13.574  10.573
 7619W        W74402  28.674  38.722   2.495
 7620W        W74403  13.176  41.955  14.704
 7621W        W74404   6.139  20.805   4.900
 7622W        W74405  20.284  17.085   1.222
 7623W        W74406  15.776  38.053  14.888
 7624W        W74407  32.792   8.168  12.532
 7625W        W74408  33.439  39.254   2.975
 7626W        W74409  14.361  20.622   0.669
 7627W        W74410  10.384  28.822  14.204
 7628W        W74411  38.986   6.692  10.377
 7629W        W74412  15.642  22.273   0.839
 7630W        W74413  29.945  10.129  14.047
 7631W        W74414  29.993   4.859   2.720
 7632W        W74415   0.162   5.878  11.357
 7633W        W74416  24.155   2.185  13.486
 7634W        W74417  10.383  37.811  14.958
 7635W        W74418  18.596  22.036   0.381
 7636W        W74419   7.645  26.392   4.853
 7637W        W74420  37.712  20.616   4.072
 7638W        W74421  27.143  35.536  14.900
 7639W        W74422   4.991  26.332   1.797
 7640W        W74423  30.882   8.317   2.278
 7641W        W74424  31.069   7.200  13.881
 7642W        W74425   0.232   0.886   0.365
 7643W        W74426  43.722  33.497  13.226
 7644W        W74427  12.966  30.817  14.342
 7645W        W74428  33.220  20.598  13.876
 7646W        W74429  20.107   2.244   0.853
 7647W        W74430  14.681  10.634  11.184
 7648W        W74431  30.472   8.182   4.550
 7649W        W74432   8.905  33.294  12.047
 7650W        W74433  36.018   4.646   0.322
 7651W        W74434   1.514  33.122   4.187
 7652W        W74435  39.324  27.925  13.790
 7653W        W74436  15.138  16.574   4.357
 7654W        W74437   6.719  26.759  14.925
 7655W        W74438  21.731  11.422   0.520
 7656W        W74439  26.604   0.451  12.875
 7657W        W74440  12.786  23.393  14.965
 7658W        W74441   9.922  23.205  12.403
 7659W        W74442  10.037   3.211  12.878
 7660W        W74443  39.934   6.336  12.649
 7661W        W74444  26.573  22.439   2.337
 7662W        W74445  22.009  38.370   1.294
 7663W        W74446  41.998  17.669   2.185
 7664W        W74447  12.906  43.193   4.876
 7665W        W74448  30.432  42.218   4.594
 7666W        W74449  32.006  40.039  14.700
 7667W        W74450  36.155  25.611  11.748
 7668W        W74451  18.405  20.179   2.803
 7669W        W74452  17.065  32.091  12.625
 7670W        W74453  41.404  21.130   2.275
 7671W        W74454  26.043  14.292   4.605
 7672W        W74455  11.447  23.524  10.352
 7673W        W74456   0.747  31.519   3.953
 7674W        W74457  44.823  31.436  13.973
 7675W        W74458  15.715  21.831  11.960
 7676W        W74459  24.465  25.500   1.333
 7677W        W74460   0.473  11.164   1.782
 7678W        W74461  30.613  44.740  12.644
 7679W        W74462  21.951  27.565  11.095
 7680W        W74463   0.989  32.350  11.806
 7681W        W74464  10.601  22.029   4.501
 7682W        W74465  44.462  18.992   2.148
 7683W        W74466  31.872  33.856   0.758
 7684W        W74467  17.170  14.815   2.143
 7685W        W74468  32.880  32.493   1.559
 7686W        W74469  19.199  11.730  14.634
 7687W        W74470  31.362   7.798   2.811
 7688W        W74471  15.098  37.909   1.558
 7689W        W74472  33.612  39.307   0.467
 7690W        W74473  37.931  11.847   1.390
 7691W        W74474  14.695   2.548  14.846
 7692W        W74475  27.916  15.219   0.432
 7693W        W74476   0.804   2.357   2.780
 7694W        W74477   6.073   1.776  11.428
 7695W        W74478  40.775  43.832   4.516
 7696W        W74479  22.089  19.537   4.715
 7697W        W74480  23.331  42.608   3.616
 7698W        W74481  42.987   8.672   1.800
 7699W        W74482  14.513   7.205  12.024
 7700W        W74483  35.907  24.643  10.884
 7701W        W74484   1.402  18.627  12.808
 7702W        W74485  28.440  11.313   3.788
 7703W        W74486  15.304  44.364   2.739
 7704W        W74487  22.480  28.116  10.110
 7705W        W74488   8.756  13.598   1.868
 7706W        W74489  44.065  35.533  13.825
 7707W        W74490  32.186   1.311   0.029
 7708W        W74491   3.442  21.785  12.460
 7709W        W74492   6.012  33.312   3.681
 7710W        W74493  41.352   3.942  12.020
 7711W        W74494  30.822  20.541   3.257
 7712W        W74495  15.875   7.852   1.288
 7713W        W74496  44.889  26.521  13.751
 7714W        W74497  38.908  12.362  10.610
 7715W        W74498  18.372   4.099  13.938
 7716W        W74499  29.359   1.902   1.343
 7717W        W74500  22.988   5.949   3.221
 7718W        W74501  31.577  29.141  10.434
 7719W        W74502  36.869   4.074   2.810
 7720W        W74503  36.354  25.846  13.480
 7721W        W74504  27.872   2.527   2.722
 7722W        W74505  23.657  39.097   2.512
 7723W        W74506  17.106   6.411   3.226
 7724W        W74507   9.319  34.156   4.676
 7725W        W74508  21.542  23.922   4.115
 7726W        W74509  33.276  24.883  10.264
 7727W        W74510  18.573  17.737   0.441
 7728W        W74511  15.823  27.624   1.353
 7729W        W74512  25.671  11.794   3.798
 7730W        W74513  40.945  11.353  13.400
 7731W        W74514  13.937  39.806  12.378
 7732W        W74515  42.837  34.493  12.065
 7733W        W74516  21.034  39.452   4.280
 7734W        W74517  28.020  15.829   2.843
 7735W        W74518  15.854  27.235   4.398
 7736W        W74519   8.158  44.096   0.883
 7737W        W74520  32.446  31.199  11.082
 7738W        W74521  21.637  19.345  13.487
 7739W        W74522  37.723  11.652   3.342
 7740W        W74523  17.288   7.872  13.571
 7741W        W74524  38.900  32.986   4.621
 7742W        W74525  32.166   4.614  11.159
 7743W        W74526  31.477  33.565  13.421
 7744W        W74527  36.045  34.899  11.221
 7745W        W74528  31.551  42.547  14.851
 7746W        W74529  38.787  44.502   0.795
 7747W        W74530  11.542   6.947   3.606
 7748W        W74531   2.462  17.646  13.488
 7749W        W74532   9.587   9.281  12.411
 7750W        W74533  35.621  32.392   4.050
 7751W        W74534   6.694  20.426  13.808
 7752W        W74535   2.135  25.287  13.568
 7753W        W74536   7.215  15.230  11.174
 7754W        W74537  25.067  36.728  12.538
 7755W        W74538  34.977  42.212  13.887
 7756W        W74539  40.094  22.157  13.312
 7757W        W74540   3.335  37.341   0.983
 7758W        W74541  19.534   0.309   1.796
 7759W        W74542  40.278  27.189  14.798
 7760W        W74543  43.763  17.663  13.830
 7761W        W74544   1.714   7.162  13.802
 7762W        W74545  28.962   5.265   0.342
 7763W        W74546  37.344  43.327   2.769
 7764W        W74547  17.507  16.628   3.660
 7765W        W74548   9.939  19.561  14.893
 7766W        W74549  13.286  16.875   1.137
 7767W        W74550  41.980  15.881   0.772
 7768W        W74551  34.085  38.789  11.360
 7769W        W74552  28.958  19.950  10.990
 7770W        W74553  12.836  24.731   1.272
 7771W        W74554  23.342  41.295  13.602
 7772W        W74555  30.329   6.212  14.542
 7773W        W74556  36.914  19.208  14.793
 7774W        W74557  22.505  16.778   3.322
 7775W        W74558  16.978  44.966  10.007
 7776W        W74559  25.230   2.322   1.893
 7777W        W74560  20.764  28.667  11.800
 7778W        W74561  43.754  27.889   1.368
 7779W        W74562  16.874  19.085  15.000
 7780W        W74563   3.391  21.731  11.093
 7781W        W74564  23.865  29.676  11.082
 7782W        W74565  35.733   2.799   2.867
 7783W        W74566  30.694   1.105   4.571
 7784W        W74567   5.135  35.628  10.228
 7785W        W74568  20.673  30.030   2.453
 7786W        W74569   4.737  43.321  12.375
 7787W        W74570   0.032   1.655   3.162
 7788W        W74571  27.170   0.743  14.022
 7789W        W74572  15.869   0.580   3.229
 7790W        W74573  31.811   0.013   1.574
 7791W        W74574  15.184  19.593   1.462
 7792W        W74575   4.362  25.125  10.943
 7793W        W74576   0.547  11.771   2.734
 7794W        W74577  22.630  39.823   0.235
 7795W        W74578  36.704  40.517  11.637
 7796W        W74579  36.451  22.137  13.977
 7797W        W74580  42.350  42.479   0.186
 7798W        W74581  32.992  12.870  11.512
 7799W        W74582   6.657  33.914   1.323
 7800W        W74583  13.131  10.295   3.858
 7801W        W74584   1.792  38.871  13.047
 7802W        W74585  41.921  19.489  12.525
 7803W        W74586  15.640  35.693   4.886
 7804W        W74587  32.416  42.965  13.449
 7805W        W74588  17.270  35.155  10.964
 7806W        W74589  16.900  16.187   4.025
 7807W        W74590  12.075  33.884  11.575
 7808W        W74591  15.733  18.135  11.998
 7809W        W74592  28.949  25.391   1.757
 7810W        W74593  21.302   0.407  14.286
 7811W        W74594  24.184  25.775   1.795
 7812W        W74595  27.811  40.088   1.790
 7813W        W74596  11.358  29.515   1.150
 7814W        W74597  13.153  31.422   1.864
 7815W        W74598  38.322  17.238  14.944
 7816W        W74599  13.171  35.071  10.658
 7817W        W74600   4.579  12.336   4.686
 7818W        W74601  21.238  27.027   0.482
 7819W        W74602  20.085   7.723   0.906
 7820W        W74603   5.636  21.155   0.065
 7821W        W74604  15.142  37.443  11.172
 7822W        W74605   4.406  28.249  12.401
 7823W        W74606  17.442  22.425   0.446
 7824W        W74607  40.972  43.709  13.405
 7825W        W74608   1.819  37.503  12.327
 7826W        W74609  19.555   6.642   1.925
 7827W        W74610   6.877  27.925   1.389
 7828W        W74611   7.127  17.791   1.453
 7829W        W74612   5.959   4.752  13.489
 7830W        W74613  43.413   9.628  14.927
 7831W        W74614  18.119  37.334   3.558
 7832W        W74615   7.737  24.524   1.272
 7833W        W74616  17.843  41.055  12.570
 7834W        W74617  12.793  19.824   0.284
 7835W        W74618  31.955   6.779  12.496
 7836W        W74619  42.427  39.649  12.236
 7837W        W74620  43.098  38.982  10.716
 7838W        W74621  36.471  16.998  11.058
 7839W        W74622  26.983  41.840  13.645
 7840W        W74623   0.859  40.527   2.519
 7841W        W74624  14.651  37.525   0.143
 7842W        W74625  37.805  34.920   2.860
 7843W        W74626  30.740  41.043  13.634
 7844W        W74627  11.044  11.806  13.913
 7845W        W74628  31.715  30.777  11.117
 7846W        W74629  33.525  41.193  10.698
 7847W        W74630   5.163  30.079  10.714
 7848W        W74631   7.963  33.671  12.911
 7849W        W74632  25.278  30.698   4.492
 7850W        W74633  23.552  30.854  13.105
 7851W        W74634  40.034  37.757   1.442
 7852W        W74635  18.794   9.726   1.315
 7853W        W74636   4.576  13.557  12.529
 7854W        W74637  13.674  30.520  11.467
 7855W        W74638  34.987  40.663   3.305
 7856W        W74639  39.454   1.496  10.808
 7857W        W74640  31.673  37.469   4.624
 7858W        W74641  16.333  22.694   1.282
 7859W        W74642  27.922  25.090  11.747
 7860W        W74643  40.923  28.643  11.098
 7861W        W74644   0.060  29.481  10.685
 7862W        W74645  28.445  34.977   2.331
 7863W        W74646  17.242  16.185  12.577
 7864W        W74647  18.885  44.671  11.383
 7865W        W74648  31.828  17.205  12.902
 7866W        W74649  26.386  14.146  13.552
 7867W        W74650  22.082  18.542   0.684
 7868W        W74651  14.191   3.747  12.379
 7869W        W74652  17.808  17.900  12.538
 7870W        W74653  30.960   0.552  12.454
 7871W        W74654  30.569   2.828  14.876
 7872W        W74655  20.513  19.188  11.920
 7873W        W74656  38.267   3.922   3.173
 7874W        W74657   4.447  10.578   3.603
 7875W        W74658  32.560  27.109   4.549
 7876W        W74659  19.681  12.656  10.514
 7877W        W74660  25.100  11.690   4.608
 7878W        W74661  27.505   2.200   3.647
 7879W        W74662   1.744  40.664  13.710
 7880W        W74663  20.906  23.622  14.945
 7881W        W74664  34.891  40.506  13.372
 7882W        W74665  36.582  29.360   3.273
 7883W        W74666   3.396  36.869   0.784
 7884W        W74667  37.975  41.524   0.241
 7885W        W74668  41.599  23.419   2.085
 7886W        W74669  35.070  39.923  14.859
 7887W        W74670   6.152   4.480   1.345
 7888W        W74671  40.339   6.410   1.423
 7889W        W74672  16.033   3.148  11.797
 7890W        W74673   0.230  18.301   4.107
 7891W        W74674  34.507  41.483  11.733
 7892W        W74675   2.319  23.626   0.910
 7893W        W74676  10.361  24.232  14.952
 7894W        W74677  23.118   0.234   1.031
 7895W        W74678  31.570  32.607   3.120
 7896W        W74679  13.189   9.596  10.996
 7897W        W74680  18.299  11.568  13.368
 7898W        W74681  36.062  14.645  14.735
 7899W        W74682  18.666   0.059   0.761
 7900W        W74683  13.312  36.938  11.675
 7901W        W74684  42.245   4.923  10.578
 7902W        W74685  17.585  27.610  12.056
 7903W        W74686  38.460  13.865   1.699
 7904W        W74687   0.508  22.828   0.678
 7905W        W74688   2.021  39.567  10.801
 7906W        W74689  34.877  33.664   2.614
 7907W        W74690  43.095  31.891   3.637
 7908W        W74691  21.054  41.096   0.904
 7909W        W74692   4.289  23.803   1.732
 7910W        W74693   8.320  23.283  11.008
 7911W        W74694   8.323  39.783  12.533
 7912W        W74695  17.813  26.822   4.194
 7913W        W74696  17.117  41.300   1.449
 7914W        W74697  22.584  37.940  11.645
 7915W        W74698  44.287  37.460   0.747
 7916W        W74699   4.880  26.833   1.942
 7917W        W74700  41.617  23.523  10.398
 7918W        W74701  42.794  13.277   1.328
 7919W        W74702  15.917  12.923   2.650
 7920W        W74703  44.257  25.220  10.777
 7921W        W74704  13.462  26.830   3.237
 7922W        W74705  33.616  25.669   2.741
 7923W        W74706   7.423  26.374   3.970
 7924W        W74707  34.117  10.771  12.010
 7925W        W74708  10.318  27.603  10.702
 7926W        W74709  35.504  27.456   3.156
 7927W        W74710  32.610   3.062  11.150
 7928W        W74711  18.335  25.839  14.595
 7929W        W74712  23.668  18.763   3.721
 7930W        W74713   4.361  42.534  11.125
 7931W        W74714  29.299  33.354   1.774
 7932W        W74715  42.564   9.717   0.445
 7933W        W74716  41.441  22.963   2.846
 7934W        W74717  26.197  17.360   1.794
 7935W        W74718  13.893  25.481   0.175
 7936W        W74719  15.036  29.194   2.779
 7937W        W74720  33.016  26.761   1.804
 7938W        W74721  42.932  10.871  10.307
 7939W        W74722  32.234  42.997  14.399
 7940W        W74723  42.542  12.473   3.362
 7941W        W74724   4.918  39.456   1.825
 7942W        W74725   8.278  37.731  12.861
 7943W        W74726  15.162  22.422  13.303
 7944W        W74727  33.481   1.299   3.801
 7945W        W74728  36.334   7.642  11.704
 7946W        W74729  29.348  43.085  10.692
 7947W        W74730   0.237   5.942  13.490
 7948W        W74731  24.746  10.797  10.622
 7949W        W74732  17.403  25.688  11.509
 7950W        W74733  33.312  16.529  12.387
 7951W        W74734   1.372   5.552   1.665
 7952W        W74735   5.651  10.420   3.887
 7953W        W74736  16.315   8.497  14.030
 7954W        W74737  16.089  19.634   2.936
 7955W        W74738  29.905   2.450   4.802
 7956W        W74739  42.601  23.711  12.044
 7957W        W74740  34.125  36.426   0.518
 7958W        W74741  20.605  34.259  11.569
 7959W        W74742  17.422  42.591  12.993
 7960W        W74743  19.425  24.306   3.366
 7961W        W74744  19.219  28.633  12.624
 7962W        W74745  28.608  23.476   3.428
 7963W        W74746  15.062   1.594  10.769
 7964W        W74747  37.420  19.015  11.289
 7965W        W74748  19.500  25.052  11.857
 7966W        W74749  23.999  35.521   1.647
 7967W        W74750  44.080   4.828   4.791
 7968W        W74751  14.128  40.034   4.592
 7969W        W74752  26.421  40.861  11.245
 7970W        W74753  14.126   9.420   4.052
 7971W        W74754  28.204  34.548  10.262
 7972W        W74755  11.818   1.048   4.545
 7973W        W74756   2.879  42.635  13.290
 7974W        W74757  37.368  19.165   1.831
 7975W        W74758  11.443  28.154  12.692
 7976W        W74759  36.479  44.595  11.579
 7977W        W74760  20.500   5.651   3.177
 7978W        W74761  29.188  27.011  14.847
 7979W        W74762  13.004   1.703  10.714
 7980W        W74763  26.879  40.478   2.718
 7981W        W74764  44.852  13.151   0.277
 7982W        W74765  24.656  32.317  14.354
 7983W        W74766  43.267  27.106  13.614
 7984W        W74767   2.270   2.275  12.011
 7985W        W74768   5.337  16.338  13.278
 7986W        W74769  24.172  44.970   1.793
 7987W        W74770   3.425  28.459   0.031
 7988W        W74771  43.369  43.907   0.267
 7989W        W74772  10.831   8.011  12.303
 7990W        W74773  37.535  18.211  12.172
 7991W        W74774  39.466  34.766   3.797
 7992W        W74775  23.839  39.410  12.540
 7993W        W74776  33.156   6.393  13.240
 7994W        W74777  15.602  31.107  12.101
 7995W        W74778  38.553  40.348  10.978
 7996W        W74779  38.027  13.097   2.250
 7997W        W74780  22.212  12.361  12.165
 7998W        W74781  15.352  22.563  10.526
 7999W        W74782  38.970  41.379  12.638
 8000W        W74783  10.520  34.774   0.802
 8001W        W74784  44.210  14.052  13.863
 8002W        W74785  20.515  43.514  13.021
 8003W        W74786  16.160  27.475   4.060
 8004W        W74787  40.870  26.073  10.322
 8005W        W74788   8.982   4.303  11.641
 8006W        W74789  43.752  41.263   2.564
 8007W        W74790  38.995  36.122  12.422
 8008W        W74791  32.637  32.436   4.141
 8009W        W74792   4.251  24.754   1.965
 8010W        W74793  25.016  39.063   4.540
 8011W        W74794   5.883   8.214   4.632
 8012W        W74795   7.385   7.336   3.285
 8013W        W74796  21.028  31.148  13.392
 8014W        W74797  31.365  14.157  10.406
 8015W        W74798  34.132  19.832   0.685
 8016W        W74799  14.208  40.525  13.689
 8017W        W74800  33.548  22.692  14.351
 8018W        W74801  30.834  37.445  12.236
 8019W        W74802  19.875  16.436   4.782
 8020W        W74803  14.158   8.181  11.715
 8021W        W74804   6.719  14.028   2.683
 8022W        W74805  27.235  38.099  11.653
 8023W        W74806  18.807  15.880  14.310
 8024W        W74807  16.506   5.126   2.483
 8025W        W74808   6.438  22.633   2.391
 8026W        W74809   9.128  32.476   0.307
 8027W        W74810   7.310  22.174   4.233
 8028W        W74811  35.121  44.670  12.597
 8029W        W74812  15.307   3.751  13.341
 8030W        W74813  33.012  41.455  13.120
 8031W        W74814  44.383  13.080   3.217
 8032W        W74815  18.742  21.778  12.247
 8033W        W74816   9.644  42.059   4.872
 8034W        W74817  15.791  25.481   3.696
 8035W        W74818  40.344  16.386   2.011
 8036W        W74819  18.558  35.464  10.689
 8037W        W74820  35.980  31.106   0.710
 8038W        W74821  18.302  38.437   3.167
 8039W        W74822  28.360   9.261  11.149
 8040W        W74823  34.055  33.110   0.360
 8041W        W74824  28.958  41.052   4.272
 8042W        W74825  24.063  31.623   1.792
 8043W        W74826  30.270  10.316   4.610
 8044W        W74827  16.855  23.442   4.683
 8045W        W74828  15.890  28.241   4.118
 8046W        W74829   1.753  40.162  14.852
 8047W        W74830   6.226  37.920   2.099
 8048W        W74831  24.616  33.573   1.873
 8049W        W74832  17.514  39.497   4.038
 8050W        W74833  32.548  33.363  12.173
 8051W        W74834  32.323  37.877  13.450
 8052W        W74835  43.562  25.895  13.169
 8053W        W74836   5.733  22.416  13.896
 8054W        W74837  43.815   4.259  11.024
 8055W        W74838  36.098  37.402  10.876
 8056W        W74839  32.260  31.202  11.579
 8057W        W74840  31.900  18.295   3.966
 8058W        W74841  43.260  35.027   1.820
 8059W        W74842  14.728   3.288   0.461
 8060W        W74843   4.208  34.870   4.711
 8061W        W74844  42.029  25.978   4.925
 8062W        W74845  17.646   1.450   3.899
 8063W        W74846  40.499  10.153   1.840
 8064W        W74847   9.456  33.874   1.161
 8065W        W74848  29.179   7.423  11.557
 8066W        W74849   1.818  43.365   3.394
 8067W        W74850  36.077  41.711   1.780
 8068W        W74851   7.867  13.331  12.036
 8069W        W74852  10.938  20.180   2.104
 8070W        W74853  32.851  41.652   5.178
 8071W        W74854   9.673   6.501  14.777
 8072W        W74855  35.138  27.968   5.529
 8073W        W74856   1.565   8.205   4.689
 8074W        W74857  39.292  14.197   0.294
 8075W        W74858  15.021  14.356  12.031
 8076W        W74859  13.404  42.175   4.165
 8077W        W74860  29.718  22.224  14.952
 8078W        W74861   9.737  19.002   3.354
 8079W        W74862  17.227  22.364  11.124
 8080W        W74863   9.344  20.894   1.263
 8081W        W74864  43.987  17.724   4.592
 8082W        W74865  23.841  13.727   1.170
 8083W        W74866  11.365  29.211  13.868
 8084W        W74867  35.491  18.689   9.801
 8085W        W74868  34.001   7.418   1.543
 8086W        W74869   6.313  41.610  11.636
 8087W        W74870  12.471  38.307  10.256
 8088W        W74871  36.506  28.169   0.588
 8089W        W74872  35.814   1.093  13.083
 8090W        W74873  22.971  43.411   3.400
 8091W        W74874  25.325   9.744   2.850
 8092W        W74875   3.748  13.706  13.111
 8093W        W74876  33.831   4.356  12.512
 8094W        W74877  36.409  37.170  13.086
 8095W        W74878   3.993  20.374   3.298
 8096W        W74879  31.627  33.610   1.790
 8097W        W74880  24.674  24.132  11.917
 8098W        W74881  13.715   4.288  11.842
 8099W        W74882   5.735  15.649   4.321
 8100W        W74883  19.985   5.491  12.042
 8101W        W74884  28.428  25.575   2.596
 8102W        W74885  17.582  39.469   0.815
 8103W        W74886   5.416  27.475  11.700
 8104W        W74887  26.063  34.587   0.879
 8105W        W74888  28.131  25.180  10.637
 8106W        W74889  44.919   1.706   2.293
 8107W        W74890   7.181  39.599  13.520
 8108W        W74891  13.610  33.495  10.445
 8109W        W74892  23.145  22.569   4.616
 8110W        W74893   2.168  12.785   4.638
 8111W        W74894  14.744  20.749   1.849
 8112W        W74895  22.029   9.499  11.576
 8113W        W74896  22.430  17.425  14.062
 8114W        W74897  20.876  37.117   3.263
 8115W        W74898  43.389  26.864   1.496
 8116W        W74899  14.264  21.314   1.411
 8117W        W74900   3.271  23.227   3.673
 8118W        W74901  33.628  17.122   3.183
 8119W        W74902  35.396   5.366   3.653
 8120W        W74903   9.588  25.633  10.801
 8121W        W74904  36.150   7.800  13.579
 8122W        W74905  30.814   0.540  13.302
 8123W        W74906  26.460  13.156  11.225
 8124W        W74907  12.309  22.687   2.738
 8125W        W74908  15.873  39.617  14.077
 8126W        W74909   9.715  12.837   3.801
 8127W        W74910  22.483  35.112  13.027
 8128W        W74911  14.129  39.997  10.784
 8129W        W74912   0.275  26.485   3.727
 8130W        W74913  29.727  16.719  11.521
 8131W        W74914  27.375  21.058   0.242
 8132W        W74915  26.774  25.651  14.967
 8133W        W74916  25.976  17.663  11.642
 8134W        W74917  34.715   8.479   3.258
 8135W        W74918   5.774  41.305  12.433
 8136W        W74919  43.710   9.186   1.903
 8137W        W74920  11.625  28.971   1.478
 8138W        W74921  21.076  32.937   0.707
 8139W        W74922  21.789   0.211  13.012
 8140W        W74923  42.407  25.619  12.266
 8141W        W74924  14.311  32.686   1.804
 8142W        W74925  17.675  26.869  10.647
 8143W        W74926  17.753   2.381   4.204
 8144W        W74927  39.316  34.042   4.513
 8145W        W74928  28.030   4.209  11.671
 8146W        W74929  15.311  13.736  13.781
 8147W        W74930   0.899  27.581  10.620
 8148W        W74931  35.517  32.665  11.554
 8149W        W74932  20.480  24.122  10.426
 8150W        W74933  41.436  11.629   3.354
 8151W        W74934   3.628   1.887   1.700
 8152W        W74935  44.116  13.234   0.820
 8153W        W74936  33.249   8.407   4.113
 8154W        W74937   1.411   5.999  13.897
 8155W        W74938  32.022  27.670   0.533
 8156W        W74939  33.100  26.791   4.192
 8157W        W74940   8.327  23.194  11.539
 8158W        W74941  37.019  22.700   2.107
 8159W        W74942  32.225   2.270  11.024
 8160W        W74943  22.939  26.504  10.981
 8161W        W74944   9.563  25.704   2.890
 8162W        W74945  23.527  33.976   0.815
 8163W        W74946  13.021  20.348  11.174
 8164W        W74947  42.265   6.205  12.529
 8165W        W74948   0.854  10.640   3.262
 8166W        W74949   7.891  35.985  13.034
 8167W        W74950   9.677  14.739   4.324
 8168W        W74951  35.141   4.186  11.942
 8169W        W74952  23.500   1.877  10.666
 8170W        W74953  13.647   2.924  14.029
 8171W        W74954   4.765  22.453   3.658
 8172W        W74955   4.344  37.725   1.203
 8173W        W74956   5.014  35.640  13.018
 8174W        W74957   7.751   4.116  12.886
 8175W        W74958  39.805   9.929   3.767
 8176W        W74959  17.289  32.755  10.914
 8177W        W74960  14.718  22.758   0.747
 8178W        W74961  26.082  26.605  13.359
 8179W        W74962  31.498  29.198  11.903
 8180W        W74963  39.985  27.005  14.393
 8181W        W74964   7.567  38.789  11.113
 8182W        W74965  10.741  27.470   2.511
 8183W        W74966  39.583   4.274  12.130
 8184W        W74967  16.823   5.804   0.569
 8185W        W74968  10.375   9.908   1.827
 8186W        W74969  16.873  28.646  10.824
 8187W        W74970  44.278  17.988  11.677
 8188W        W74971  35.371  38.145   2.067
 8189W        W74972  24.146  38.757   4.950
 8190W        W74973  20.299  19.815   0.916
 8191W        W74974  27.901  39.203   3.703
 8192W        W74975   4.283  18.134  11.266
 8193W        W74976  21.232  25.603  10.248
 8194W        W74977  11.311  11.816  13.471
 8195W        W74978  41.856  14.124  11.159
 8196W        W74979   5.791  38.100   3.056
 8197W        W74980   4.667  20.650  13.655
 8198W        W74981  20.776  21.477  11.865
 8199W        W74982   3.806   7.180   2.777
 8200W        W74983  36.025  38.220   0.826
 8201W        W74984   1.944  41.750   0.846
 8202W        W74985  19.092  12.654   1.136
 8203W        W74986  18.052  33.800  11.380
 8204W        W74987  36.998  44.288  12.514
 8205W        W74988  24.711  23.497  12.520
 8206W        W74989   6.388  35.854   2.260
 8207W        W74990  37.384  35.009   2.538
 8208W        W74991   6.811  27.889   2.779
 8209W        W74992   9.638  31.046   4.039
 8210W        W74993  17.413  13.155  10.137
 8211W        W74994  17.721  36.843  11.080
 8212W        W74995  37.912   1.524   0.020
 8213W        W74996   1.725  32.017   2.733
 8214W        W74997  31.149  25.582  12.035
 8215W        W74998  27.463  40.482   1.816
 8216W        W74999  37.546  28.440   3.701
 8217W        W75000  28.431  37.509   0.850
 8218W        W75001  30.030  36.191  10.829
 8219W        W75002  35.617  34.429  14.535
 8220W        W75003  35.010  20.602  13.369
 8221W        W75004  15.755  11.764   2.250
 8222W        W75005  33.040  13.458   0.903
 8223W        W75006  21.652  30.095  13.885
 8224W        W75007  26.723   9.880   2.768
 8225W        W75008  10.211  27.488   2.630
 8226W        W75009  21.706  14.291   3.107
 8227W        W75010  24.472  38.497   2.484
 8228W        W75011  29.726  28.206   4.915
 8229W        W75012  21.869  34.280   3.191
 8230W        W75013  34.122  15.175  11.589
 8231W        W75014   5.169  37.520   1.744
 8232W        W75015   8.659  10.335  13.912
 8233W        W75016  39.108  28.075   0.567
 8234W        W75017  37.802  38.651  12.655
 8235W        W75018  16.874   5.339  11.704
 8236W        W75019  21.700   0.242  10.722
 8237W        W75020  41.630  24.515   4.465
 8238W        W75021  29.504  36.499  12.450
 8239W        W75022  11.383   1.959   4.691
 8240W        W75023  14.803   0.926   0.691
 8241W        W75024  21.266  44.586  13.370
 8242W        W75025  31.810   2.316  14.401
 8243W        W75026  27.260   4.250  12.338
 8244W        W75027   8.287  40.421   1.802
 8245W        W75028  27.565  39.277   5.163
 8246W        W75029  35.991  34.982   0.904
 8247W        W75030  40.066  29.252   0.769
 8248W        W75031  28.494   1.776   5.039
 8249W        W75032   2.977  27.894  14.335
 8250W        W75033  40.824  19.456  13.482
 8251W        W75034  37.826  43.475   2.675
 8252W        W75035  21.030   3.130  11.688
 8253W        W75036   2.813   4.260   1.854
 8254W        W75037   9.919  26.521  11.592
 8255W        W75038  25.518  37.691   1.742
 8256W        W75039  41.303  34.044   0.417
 8257W        W75040  30.512  41.787  13.423
 8258W        W75041   7.186   0.862   1.934
 8259W        W75042  11.748  21.617   1.755
 8260W        W75043  16.515   0.336  13.514
 8261W        W75044  18.620  18.112  14.226
 8262W        W75045   4.387  27.490   2.836
 8263W        W75046  37.589  37.477  14.469
 8264W        W75047  25.988  35.471   2.652
 8265W        W75048  14.042   2.603   1.736
 8266W        W75049  24.211   7.235  14.919
 8267W        W75050  30.969  37.090   0.407
 8268W        W75051  11.657  18.560   1.247
 8269W        W75052  11.412  11.372   4.081
 8270W        W75053  41.825  12.684   2.652
 8271W        W75054  37.430  35.035  10.616
 8272W        W75055   6.378   6.476   1.379
 8273W        W75056  18.915  34.927   4.169
 8274W        W75057  12.280  10.905  12.406
 8275W        W75058  18.631   3.851   2.169
 8276W        W75059  39.169  27.718  14.251
 8277W        W75060  23.770  27.249  13.463
 8278W        W75061   5.982  17.485   3.642
 8279W        W75062  16.165  39.346   4.432
 8280W        W75063  21.732   4.644   4.463
 8281W        W75064  17.240  41.885   2.783
 8282W        W75065   7.777  37.793  14.479
 8283W        W75066  31.418  19.748  13.445
 8284W        W75067  39.268  31.612   3.511
 8285W        W75068  13.734  44.794  13.081
 8286W        W75069   4.633  41.822  10.381
 8287W        W75070   7.856  34.563   4.569
 8288W        W75071  22.978  39.283   3.173
 8289W        W75072  25.435  40.042   2.686
 8290W        W75073  36.919  34.831   3.770
 8291W        W75074  19.680  41.659   4.178
 8292W        W75075  17.056  39.436  12.076
 8293W        W75076  23.553  22.271   3.782
 8294W        W75077  18.320  26.655  11.461
 8295W        W75078  38.964   2.001   4.425
 8296W        W75079   3.557  42.099   0.114
 8297W        W75080  42.383  15.131  14.856
 8298W        W75081   8.260  33.809  14.996
 8299W        W75082   9.319  14.821   1.318
 8300W        W75083  38.580  35.780  10.054
 8301W        W75084  33.850   6.469   2.625
 8302W        W75085  25.871  11.911   3.357
 8303W        W75086  16.091  10.405   0.304
 8304W        W75087  44.990  22.581   1.471
 8305W        W75088  37.716  28.624   4.783
 8306W        W75089  13.170  17.267  10.827
 8307W        W75090  28.105   0.123  14.937
 8308W        W75091  10.138  29.469  11.987
 8309W        W75092  25.929  32.593  12.540
 8310W        W75093  36.517  11.231   1.603
 8311W        W75094  38.808  24.456   3.272
 8312W        W75095  13.229  17.718   2.927
 8313W        W75096  12.207   0.881  14.206
 8314W        W75097  15.704  38.479  11.506
 8315W        W75098  32.639  32.949  11.237
 8316W        W75099  19.473   2.452   4.506
 8317W        W75100  29.381  44.409   0.858
 8318W        W75101   1.584  40.095   1.430
 8319W        W75102  28.217  11.228   0.495
 8320W        W75103  19.071  32.420   4.576
 8321W        W75104   2.794  39.588   2.181
 8322W        W75105  27.997  34.919   4.630
 8323W        W75106  30.004  32.426  11.684
 8324W        W75107  26.394   7.367  10.683
 8325W        W75108   6.102  11.251   3.360
 8326W        W75109  31.579  32.928  12.754
 8327W        W75110  21.237  24.086   0.975
 8328W        W75111  37.045   7.870  13.270
 8329W        W75112   4.843  41.729  13.995
 8330W        W75113   3.646  24.620  14.902
 8331W        W75114  10.253  27.995   1.869
 8332W        W75115  25.723   8.297  14.978
 8333W        W75116  11.588  34.617  12.062
 8334W        W75117   6.745  37.413   4.287
 8335W        W75118   7.258  15.357  13.703
 8336W        W75119   1.923  12.315   4.610
 8337W        W75120  40.478  12.211   2.309
 8338W        W75121  20.051  32.352   1.016
 8339W        W75122   0.935  23.454  11.220
 8340W        W75123  18.529   7.139   4.144
 8341W        W75124  28.082  24.789   4.216
 8342W        W75125  12.795  42.821   1.432
 8343W        W75126   4.898  13.722   3.171
 8344W        W75127   8.193  43.846  10.979
 8345W        W75128  22.046  38.363   3.572
 8346W        W75129   8.645   3.847   2.226
 8347W        W75130   9.293  43.267  14.856
 8348W        W75131  41.678  26.836  11.589
 8349W        W75132  17.574  18.480  11.502
 8350W        W75133  37.743   0.903  13.946
 8351W        W75134  37.098   1.319   4.126
 8352W        W75135  22.173  17.239   2.303
 8353W        W75136  40.277   7.018   2.398
 8354W        W75137  18.556   3.887   1.159
 8355W        W75138  22.124   0.475  14.764
 8356W        W75139  31.864  20.226  14.761
 8357W        W75140  38.149  43.583  12.033
 8358W        W75141  10.520  42.498  12.553
 8359W        W75142  17.654   2.201   1.240
 8360W        W75143   1.842  37.853   1.592
 8361W        W75144  29.644   6.598   1.278
 8362W        W75145   8.108  14.587   2.848
 8363W        W75146  34.135  39.535  10.729
 8364W        W75147  34.153  28.996   0.394
 8365W        W75148  39.371  23.771   2.068
 8366W        W75149  41.853  12.606  14.262
 8367W        W75150  14.897  30.949  12.938
 8368W        W75151  31.501  14.455   1.498
 8369W        W75152   0.656  32.572  10.803
 8370W        W75153  28.279  19.714  11.895
 8371W        W75154  11.389   7.249  11.579
 8372W        W75155  33.115   1.258  10.825
 8373W        W75156  29.665   3.010  14.241
 8374W        W75157  10.277   8.440   3.652
 8375W        W75158   8.408  25.385  14.233
 8376W        W75159  15.590  19.581  14.332
 8377W        W75160   2.896  24.266  10.728
 8378W        W75161  38.366  38.029  14.414
 8379W        W75162  25.947  29.914  12.425
 8380W        W75163  30.605  18.123  14.389
 8381W        W75164  41.898   0.915  11.967
 8382W        W75165  17.510   1.383  13.840
 8383W        W75166   5.183  40.227   1.836
 8384W        W75167   3.300  30.475  14.603
 8385W        W75168   7.349  24.161  11.651
 8386W        W75169  10.871  36.552   1.864
 8387W        W75170  23.984   2.799   2.734
 8388W        W75171  32.912  14.137   0.080
 8389W        W75172  15.446  43.060   5.054
 8390W        W75173  33.430  15.121   1.628
 8391W        W75174  24.125  41.884   3.819
 8392W        W75175  39.109  44.964  11.630
 8393W        W75176  23.358  42.194  14.441
 8394W        W75177   5.777  39.652   2.407
 8395W        W75178   3.766   4.389   1.733
 8396W        W75179  13.252   0.664  13.270
 8397W        W75180   4.501  13.605  11.163
 8398W        W75181  10.819  24.093   0.874
 8399W        W75182  10.109  10.423  10.719
 8400W        W75183   4.307  16.358   0.281
 8401W        W75184   1.108  15.146   2.004
 8402W        W75185   3.827  24.425  10.788
 8403W        W75186  31.706  35.497   1.723
 8404W        W75187  15.886  38.608  13.929
 8405W        W75188  20.983  21.751   1.318
 8406W        W75189  32.478   3.554  13.949
 8407W        W75190  22.522  33.517  13.170
 8408W        W75191  32.002  35.655  11.866
 8409W        W75192  41.062   0.794  14.775
 8410W        W75193  18.509  22.999   1.890
 8411W        W75194  26.265  25.540  11.707
 8412W        W75195  42.897   3.141   4.788
 8413W        W75196  21.242  27.459  14.495
 8414W        W75197  40.061  18.683  12.827
 8415W        W75198   5.940  41.514  11.991
 8416W        W75199  24.284  23.917  14.355
 8417W        W75200  25.241   1.563  12.537
 8418W        W75201  31.028  40.120   0.413
 8419W        W75202  39.775  28.876  14.242
 8420W        W75203  27.860  26.007  12.142
 8421W        W75204   5.800   8.762   3.642
 8422W        W75205   8.808  40.843   3.391
 8423W        W75206  19.456  32.776  14.866
 8424W        W75207  27.958  25.223  14.429
 8425W        W75208   7.879  30.686   2.667
 8426W        W75209   9.215  38.346   2.756
 8427W        W75210  41.578   0.687  12.591
 8428W        W75211   2.019  34.650  13.919
 8429W        W75212  11.172  16.609   0.533
 8430W        W75213  26.906  15.090   3.838
 8431W        W75214  26.706  13.706  11.997
 8432W        W75215  18.638   1.239   4.165
 8433W        W75216  24.700  12.767   2.195
 8434W        W75217  18.186  29.679  11.692
 8435W        W75218  42.096   0.867   2.052
 8436W        W75219  24.381  10.866   3.562
 8437W        W75220  38.777  13.604  10.239
 8438W        W75221  37.475  40.890   3.200
 8439W        W75222   6.521   9.337   3.697
 8440W        W75223   2.766  39.691  12.478
 8441W        W75224  12.278  21.460  14.783
 8442W        W75225  28.612  31.434   0.895
 8443W        W75226  36.840   9.601  12.931
 8444W        W75227  24.688  42.363  11.941
 8445W        W75228  39.130   2.098  11.589
 8446W        W75229   3.052  32.644  10.904
 8447W        W75230  17.006   7.754  13.135
 8448W        W75231  36.734  30.470  12.403
 8449W        W75232   4.185  27.347  11.476
 8450W        W75233   1.841  38.400   2.288
 8451W        W75234   7.844  20.482  12.974
 8452W        W75235  20.588  29.435   0.339
 8453W        W75236  43.554  10.325   3.250
 8454W        W75237  16.535  42.202  12.404
 8455W        W75238  27.588   7.671  11.168
 8456W        W75239  37.959   9.630  12.948
 8457W        W75240   1.815  39.746  12.728
 8458W        W75241   7.445  26.600  10.296
 8459W        W75242  38.516  32.479   1.607
 8460W        W75243  38.764  26.933  13.976
 8461W        W75244  28.182  24.486  11.715
 8462W        W75245  36.504  19.962  12.937
 8463W        W75246  13.232  36.869  12.668
 8464W        W75247   5.394  38.427   1.019
 8465W        W75248  35.983  23.041   2.918
 8466W        W75249   8.775  36.913   0.011
 8467W        W75250   6.397  22.111   4.388
 8468W        W75251  11.204  10.180  14.100
 8469W        W75252  20.447  11.992   1.259
 8470W        W75253  34.293  36.472  11.846
 8471W        W75254  28.362  35.020  11.975
 8472W        W75255  14.820  15.705   2.898
 8473W        W75256  21.485  30.460  13.102
 8474W        W75257   0.959  31.077  12.378
 8475W        W75258  11.757  18.393   3.578
 8476W        W75259   4.724  18.129  14.452
 8477W        W75260  22.009  12.223   3.126
 8478W        W75261  35.519  22.669  12.582
 8479W        W75262   7.359  38.856   5.141
 8480W        W75263   2.860  33.963   0.178
 8481W        W75264  21.812  36.671  12.586
 8482W        W75265  10.738  44.417  10.616
 8483W        W75266  44.725  30.449   4.612
 8484W        W75267   1.354  16.069  11.212
 8485W        W75268  43.793  11.286   3.607
 8486W        W75269  44.654  39.927  12.921
 8487W        W75270  23.121  37.388   1.309
 8488W        W75271   0.341  21.975   0.333
 8489W        W75272  18.363   3.497  12.024
 8490W        W75273  10.813  11.198  10.668
 8491W        W75274  17.180  41.653   3.798
 8492W        W75275  26.943  14.935  14.353
 8493W        W75276   3.887  25.816  14.926
 8494W        W75277  15.663  36.625   1.079
 8495W        W75278  32.872  13.833   1.262
 8496W        W75279  33.833  40.519  12.598
 8497W        W75280   1.132   9.057  14.898
 8498W        W75281  41.380  34.915  10.811
 8499W        W75282  17.324  38.844   4.502
 8500W        W75283  35.869   5.462  12.050
 8501W        W75284   6.645  40.320  10.601
 8502W        W75285  15.450  33.122  13.814
 8503W        W75286   2.520   0.690   3.784
 8504W        W75287  22.609   3.527  13.931
 8505W        W75288  39.626  14.838  10.735
 8506W        W75289  42.909  12.827  12.399
 8507W        W75290   4.745  36.493  11.325
 8508W        W75291  18.512  39.792   3.498
 8509W        W75292  25.040  28.147   3.722
 8510W        W75293  38.879  20.115   1.003
 8511W        W75294  18.358  43.500   0.227
 8512W        W75295  38.503  20.380   3.565
 8513W        W75296   8.579  29.234   3.765
 8514W        W75297  19.233  13.954  14.767
 8515W        W75298  12.839  40.454  12.107
 8516W        W75299   1.736   2.005  12.363
 8517W        W75300  36.968  34.118   2.526
 8518W        W75301   3.417   6.418  11.594
 8519W        W75302  31.367  19.211  14.931
 8520W        W75303  16.524  42.275  11.790
 8521W        W75304   8.482   1.169  12.548
 8522W        W75305  40.246  21.337   5.142
 8523W        W75306  43.351  40.491   2.178
 8524W        W75307  18.747  18.744  13.044
 8525W        W75308  44.496  10.582  14.866
 8526W        W75309  20.641  11.564  12.621
 8527W        W75310  39.565  36.483   0.074
 8528W        W75311  43.879  44.504  13.018
 8529W        W75312  21.145  14.584   2.665
 8530W        W75313   9.891  36.526   1.886
 8531W        W75314   4.404  15.114   1.872
 8532W        W75315  34.428  12.180  12.397
 8533W        W75316  43.334  39.982  14.470
 8534W        W75317  23.440  20.230   4.523
 8535W        W75318  31.343  26.977   5.064
 8536W        W75319   1.996  44.708  14.813
 8537W        W75320  11.734  36.133  12.878
 8538W        W75321  25.408   0.396   4.171
 8539W        W75322   6.814  14.552   2.634
 8540W        W75323  43.055  10.239  11.636
 8541W        W75324  24.895  28.366  14.961
 8542W        W75325  44.900  36.098  14.580
 8543W        W75326  43.586   9.736  12.952
 8544W        W75327   9.690   7.799  11.757
 8545W        W75328  34.595  41.097  11.413
 8546W        W75329  34.781  37.691  14.969
 8547W        W75330  34.571  43.279   3.263
 8548W        W75331  11.228  35.134   3.658
 8549W        W75332  37.464  43.224   5.141
 8550W        W75333   6.396  36.958  12.600
 8551W        W75334  23.691   6.856   0.395
 8552W        W75335  27.883   5.686  10.757
 8553W        W75336  29.498  42.077  10.719
 8554W        W75337  36.452  22.093   4.642
 8555W        W75338   1.880  37.623  11.820
 8556W        W75339  39.978  22.326   3.145
 8557W        W75340  15.517  40.906  11.592
 8558W        W75341  38.558  30.737  13.370
 8559W        W75342  39.845  10.012  11.441
 8560W        W75343  19.075  36.389   1.348
 8561W        W75344  11.975  10.389  10.283
 8562W        W75345  14.188   0.988  13.893
 8563W        W75346  28.526  14.177   3.793
 8564W        W75347  41.365   8.707   4.013
 8565W        W75348  25.047  31.347   2.248
 8566W        W75349  39.621   3.588  12.454
 8567W        W75350  23.075  20.015  11.542
 8568W        W75351  15.263  14.734  14.235
 8569W        W75352  34.457  27.032  12.000
 8570W        W75353  13.312   8.311  14.234
 8571W        W75354  38.349  22.533  13.892
 8572W        W75355   4.315  29.155  10.384
 8573W        W75356   2.368  18.578   1.861
 8574W        W75357  21.992   2.815   2.843
 8575W        W75358  41.774   8.666  11.689
 8576W        W75359  41.769  17.988   3.411
 8577W        W75360  12.404  23.236   0.815
 8578W        W75361  16.263   3.805   3.004
 8579W        W75362  31.499  29.324   4.931
 8580W        W75363  34.871  25.448  14.388
 8581W        W75364  30.177  37.753   3.309
 8582W        W75365  24.712  19.026   4.070
 8583W        W75366  43.476  39.962   2.223
 8584W        W75367  23.072   5.994  10.615
 8585W        W75368  20.487  14.121  12.037
 8586W        W75369  14.319   2.227  13.010
 8587W        W75370  13.099  41.943   1.184
 8588W        W75371  21.020  19.569   0.223
 8589W        W75372   0.400  34.676   0.817
 8590W        W75373  22.827  16.122   1.323
 8591W        W75374  24.609  11.067   1.231
 8592W        W75375   1.818   5.264  14.486
 8593W        W75376   3.801  35.570   3.821
 8594W        W75377   9.579  11.143   1.678
 8595W        W75378   9.129  14.587   2.794
 8596W        W75379  18.578  18.221  11.497
 8597W        W75380  19.775   0.522   1.368
 8598W        W75381  19.132   0.305   4.210
 8599W        W75382  24.806  44.547   3.079
 8600W        W75383   8.903  41.175  11.575
 8601W        W75384  23.911  40.020   2.352
 8602W        W75385   5.357  42.858   0.873
 8603W        W75386  26.840  42.960  11.063
 8604W        W75387  20.511   9.094   2.259
 8605W        W75388  10.960  25.650   3.142
 8606W        W75389  12.424   6.661  11.123
 8607W        W75390  28.626  32.655   0.236
 8608W        W75391  17.210  22.104  10.658
 8609W        W75392   8.412   5.804  10.444
 8610W        W75393  35.453  12.081   4.854
 8611W        W75394  15.569  39.842   0.853
 8612W        W75395  21.804  22.475  14.831
 8613W        W75396  26.611   8.649  14.141
 8614W        W75397  37.546  24.993  11.455
 8615W        W75398  14.822  26.018  14.424
 8616W        W75399  42.929  39.661  12.485
 8617W        W75400   8.111  16.459   0.272
 8618W        W75401  18.768  41.026   3.259
 8619W        W75402  29.643  36.408   2.351
 8620W        W75403   5.657  29.918  12.858
 8621W        W75404  25.265  39.507   0.356
 8622W        W75405  44.480  17.881   3.227
 8623W        W75406  35.067  25.975   2.793
 8624W        W75407  36.099  27.076   0.920
 8625W        W75408  27.050  13.632  14.759
 8626W        W75409   0.874  42.911  14.309
 8627W        W75410  18.786   6.344  13.259
 8628W        W75411   6.128   3.771  12.512
 8629W        W75412  41.944   9.217  12.500
 8630W        W75413   6.193  30.644  14.462
 8631W        W75414  27.492  34.850  13.463
 8632W        W75415  44.392   5.832  12.469
 8633W        W75416  20.706   3.688   3.322
 8634W        W75417  38.912  34.841  10.931
 8635W        W75418   7.766  23.118  10.643
 8636W        W75419  11.305  31.351   4.435
 8637W        W75420   0.354  12.834   0.183
 8638W        W75421  28.842  11.138   4.783
 8639W        W75422  28.326  21.037  13.007
 8640W        W75423  33.814  40.033   1.702
 8641W        W75424   1.596  13.461  11.641
 8642W        W75425  32.578  29.176  13.382
 8643W        W75426   0.957   4.747   3.550
 8644W        W75427  19.183  18.424  12.174
 8645W        W75428   9.770   7.184  12.409
 8646W        W75429  10.835  13.405  12.922
 8647W        W75430   4.582  39.089  12.055
 8648W        W75431   7.949  19.616  12.487
 8649W        W75432  14.167  32.980   1.417
 8650W        W75433   8.796  42.097  14.750
 8651W        W75434  23.443  23.479  13.043
 8652W        W75435  34.833  17.436  14.315
 8653W        W75436  36.418   9.937  12.854
 8654W        W75437  26.962  16.112   0.745
 8655W        W75438   8.232  14.205  13.902
 8656W        W75439   4.551  44.545  11.791
 8657W        W75440  15.034   7.710  11.671
 8658W        W75441  32.990  23.728   3.768
 8659W        W75442  30.300   0.580  13.377
 8660W        W75443  28.450  25.122   3.306
 8661W        W75444  32.153  10.732  14.319
 8662W        W75445  27.287  34.593   1.506
 8663W        W75446  31.938  29.992  11.524
 8664W        W75447  30.215  21.574   1.994
 8665W        W75448  10.342  25.636   0.318
 8666W        W75449  23.636  21.167   2.698
 8667W        W75450  44.346  42.022   4.902
 8668W        W75451  44.207   8.902  11.296
 8669W        W75452  31.551  29.551   3.619
 8670W        W75453  35.982  11.070   2.367
 8671W        W75454  14.345  38.912   5.386
 8672W        W75455  36.534  30.045  14.723
 8673W        W75456  31.430   0.079  14.777
 8674W        W75457  18.280   6.798  13.061
 8675W        W75458  36.540  31.013  10.710
 8676W        W75459  15.790  30.179   2.137
 8677W        W75460  34.817  34.183  13.443
 8678W        W75461   3.365   8.920   1.409
 8679W        W75462  29.442   8.851  13.404
 8680W        W75463  10.620   6.728  10.770
 8681W        W75464   3.782  30.527  10.504
 8682W        W75465  18.541   4.867  12.670
 8683W        W75466   3.986  37.690  12.851
 8684W        W75467  44.905  18.105   1.788
 8685W        W75468  31.068  17.722   4.272
 8686W        W75469  43.930  41.876   2.566
 8687W        W75470  42.812  14.396  14.324
 8688W        W75471  35.883   8.777  12.022
 8689W        W75472  29.306   3.942  13.143
 8690W        W75473  41.866  28.729   2.744
 8691W        W75474  11.541  43.634   0.062
 8692W        W75475  42.856  10.878   2.312
 8693W        W75476  30.088  40.959   3.703
 8694W        W75477  15.354  14.646  13.300
 8695W        W75478  20.676  28.537  13.386
 8696W        W75479  12.706  30.642  12.620
 8697W        W75480  37.084  30.991   0.938
 8698W        W75481  24.015  14.447  13.349
 8699W        W75482  23.137  27.309  13.972
 8700W        W75483   1.471   4.109   1.720
 8701W        W75484  17.782  28.104  12.154
 8702W        W75485   0.835  41.348  14.999
 8703W        W75486   8.710  11.872  14.021
 8704W        W75487  41.832   2.283   3.265
 8705W        W75488  32.495  43.099   4.297
 8706W        W75489  36.567   4.298  12.520
 8707W        W75490  25.538   4.366  10.496
 8708W        W75491  15.237  36.463  12.345
 8709W        W75492  31.440  31.689  13.923
 8710W        W75493  34.104  18.720  14.310
 8711W        W75494  20.664  20.098  13.473
 8712W        W75495  42.911  39.010   4.464
 8713W        W75496  29.460  37.890   3.827
 8714W        W75497  40.949  37.453  13.587
 8715W        W75498  35.527  36.321   2.431
 8716W        W75499  34.909  31.584  12.967
 8717W        W75500  42.548  34.001   0.855
 8718W        W75501  32.458   8.743   4.205
 8719W        W75502  19.081   0.479   2.884
 8720W        W75503  11.175  20.755   2.302
 8721W        W75504  40.988  41.488   0.961
 8722W        W75505  43.805  35.515   3.614
 8723W        W75506   7.955  30.802   4.770
 8724W        W75507  32.234  14.875  13.383
 8725W        W75508  15.107  29.930   2.813
 8726W        W75509  44.270  15.684   1.794
 8727W        W75510  15.737  30.002   4.071
 8728W        W75511  25.742  17.813  13.019
 8729W        W75512  22.666  25.255  11.605
 8730W        W75513  20.896  16.701   4.072
 8731W        W75514  28.912  23.338   2.211
 8732W        W75515  42.256  14.220  13.736
 8733W        W75516  26.732  31.710  12.075
 8734W        W75517  40.898  13.670   0.515
 8735W        W75518  13.881  39.927   1.956
 8736W        W75519  13.801   7.015  12.577
 8737W        W75520  34.931  23.016   4.544
 8738W        W75521  39.874  25.433  14.247
 8739W        W75522   0.216   3.775  14.778
 8740W        W75523  21.751  30.027  11.957
 8741W        W75524   6.446  35.084  11.517
 8742W        W75525  21.658  29.021  13.936
 8743W        W75526  17.302  18.504   1.127
 8744W        W75527  18.318  33.470  12.623
 8745W        W75528  42.303   0.252   3.679
 8746W        W75529  38.037  34.916  13.106
 8747W        W75530   7.637  38.754  14.062
 8748W        W75531  30.098  42.026   0.312
 8749W        W75532   2.337   2.717   4.781
 8750W        W75533  22.865  27.296  13.527
 8751W        W75534  12.209  20.732   2.448
 8752W        W75535  13.083  22.731  14.852
 8753W        W75536  14.816  14.888   0.405
 8754W        W75537  33.059  40.055  10.403
 8755W        W75538  20.985  14.203  11.988
 8756W        W75539  30.930  35.594   2.360
 8757W        W75540  14.106  11.569  10.681
 8758W        W75541  35.857  36.418  14.485
 8759W        W75542  10.593  15.079  10.668
 8760W        W75543  18.033   3.802   4.824
 8761W        W75544  38.153   5.729  12.454
 8762W        W75545  36.314  35.888   1.333
 8763W        W75546  41.346  29.328   4.961
 8764W        W75547  13.824   5.779  11.239
 8765W        W75548  19.913   6.784  11.652
 8766W        W75549  31.670  20.782   2.452
 8767W        W75550   7.301  44.025   1.082
 8768W        W75551  22.282  12.264   1.338
 8769W        W75552   4.480  16.360  13.493
 8770W        W75553  39.083   6.768  13.569
 8771W        W75554  39.315  41.313  14.870
 8772W        W75555  31.108   0.708  11.127
 8773W        W75556  14.081  12.110   3.353
 8774W        W75557  30.516   3.920   1.375
 8775W        W75558  29.119  16.760  13.433
 8776W        W75559  39.443  22.252   4.484
 8777W        W75560  40.889   6.478   2.587
 8778W        W75561  11.213  41.806   2.782
 8779W        W75562   7.943  23.745  14.724
 8780W        W75563  23.777  42.416   2.137
 8781W        W75564  30.049  39.387   1.102
 8782W        W75565   5.420  13.292  12.775
 8783W        W75566  41.025  41.025  14.845
 8784W        W75567   8.708  42.212   4.154
 8785W        W75568  35.717  40.532   0.440
 8786W        W75569  13.513  21.216  14.599
 8787W        W75570  43.489  35.081   1.287
 8788W        W75571  38.514  32.538  11.944
 8789W        W75572  40.996  37.294   1.471
 8790W        W75573  21.750  36.391   1.830
 8791W        W75574  28.034   9.438   3.708
 8792W        W75575  11.829  16.169  11.427
 8793W        W75576   4.935  28.018   3.997
 8794W        W75577  26.668  12.156   0.756
 8795W        W75578  30.517  31.793   3.621
 8796W        W75579  44.873  33.518  13.409
 8797W        W75580  18.619  44.926  14.958
 8798W        W75581  31.551  37.832   2.320
 8799W        W75582  37.088   0.478   2.274
 8800W        W75583  32.957  14.552  11.955
 8801W        W75584   5.973  24.473  14.298
 8802W        W75585  27.139  12.979   4.562
 8803W        W75586  24.476  38.296   3.427
 8804W        W75587  28.052  15.181   0.935
 8805W        W75588  26.689  19.670  11.930
 8806W        W75589  23.115  43.843  11.047
 8807W        W75590  24.630  39.052  11.680
 8808W        W75591  40.405  41.873  11.522
 8809W        W75592   4.088   1.431   2.296
 8810W        W75593  16.363  25.629   1.363
 8811W        W75594  36.534  29.233  10.957
 8812W        W75595  27.723  13.713   1.359
 8813W        W75596  11.912  27.929   4.476
 8814W        W75597  39.060  12.236  13.264
 8815W        W75598  38.363  33.535   1.251
 8816W        W75599  14.501  13.794   4.949
 8817W        W75600  21.988  40.571   3.629
 8818W        W75601  23.130   9.829  11.667
 8819W        W75602  36.109  35.458   3.160
 8820W        W75603  19.542  44.584   3.296
 8821W        W75604  41.303  40.978   4.563
 8822W        W75605  43.789  27.784  12.054
 8823W        W75606  13.401   5.429  11.614
 8824W        W75607  37.111  24.542   0.314
 8825W        W75608  40.383   2.257   4.506
 8826W        W75609  22.305  10.262   4.812
 8827W        W75610   1.078  31.107  11.892
 8828W        W75611  25.333  17.239  12.466
 8829W        W75612   2.784  32.330   2.764
 8830W        W75613   0.179  32.871   4.116
 8831W        W75614   0.149  43.487   2.868
 8832W        W75615  37.353  36.762   0.146
 8833W        W75616  16.358  16.720  13.945
 8834W        W75617  23.959  18.143  11.091
 8835W        W75618   4.486  29.561  12.142
 8836W        W75619  44.724  20.790  11.952
 8837W        W75620  22.553  42.288   4.635
 8838W        W75621  33.329  34.830  13.612
 8839W        W75622  26.241  20.545   3.675
 8840W        W75623  22.237   4.266  12.063
 8841W        W75624  16.130  21.245   1.717
 8842W        W75625  13.048  19.753   4.543
 8843W        W75626   9.702  32.361  10.881
 8844W        W75627  44.619   7.881  11.481
 8845W        W75628  33.514  38.910  10.273
 8846W        W75629  18.480  39.833  11.625
 8847W        W75630  31.541   9.397  11.590
 8848W        W75631  26.743  13.861   2.806
 8849W        W75632  10.795  16.626   3.338
 8850W        W75633  29.500  21.860   0.265
 8851W        W75634  10.693  12.228   3.829
 8852W        W75635  37.602  35.615  12.829
 8853W        W75636   4.950   9.536   1.804
 8854W        W75637  24.966  19.650   0.987
 8855W        W75638  24.986  40.897   3.515
 8856W        W75639  37.447  11.123   3.060
 8857W        W75640  23.417  22.249   9.938
 8858W        W75641   1.092  25.729   1.267
 8859W        W75642  11.239  29.940  10.656
 8860W        W75643  33.899  44.480  12.256
 8861W        W75644  15.401  21.714  11.120
 8862W        W75645  18.592  15.103   1.012
 8863W        W75646  43.398  42.564   4.158
 8864W        W75647  38.097  16.125   1.248
 8865W        W75648  13.434   6.991  11.056
 8866W        W75649   7.320  25.150  13.431
 8867W        W75650  35.437   8.146   2.153
 8868W        W75651  38.340  25.932  14.292
 8869W        W75652  41.049  27.512   2.203
 8870W        W75653   9.159  16.249  12.933
 8871W        W75654  16.808   0.568   1.255
 8872W        W75655  40.277   9.198   4.053
 8873W        W75656  23.365   4.877  12.492
 8874W        W75657  18.560  16.708   3.440
 8875W        W75658  12.051  31.576  11.891
 8876W        W75659  13.204  10.098  11.052
 8877W        W75660  10.348  40.794   3.600
 8878W        W75661  22.652  40.959   3.760
 8879W        W75662  35.561   8.391   2.889
 8880W        W75663  28.186  35.784   4.102
 8881W        W75664  28.216  11.748   1.292
 8882W        W75665  40.025  11.624  14.236
 8883W        W75666  27.631  32.530  13.396
 8884W        W75667  18.149  37.595  11.139
 8885W        W75668  12.992  26.108  14.326
 8886W        W75669  22.149   4.014  14.293
 8887W        W75670   9.631  37.940   4.553
 8888W        W75671  34.442  24.539   4.702
 8889W        W75672  21.216  20.028   1.804
 8890W        W75673  33.933   5.937   2.632
 8891W        W75674  17.803  12.145  11.622
 8892W        W75675  22.575  44.258   0.257
 8893W        W75676  23.548   6.130  10.469
 8894W        W75677   0.522  34.385   4.506
 8895W        W75678  21.149  37.549   0.809
 8896W        W75679  39.307  19.274   1.355
 8897W        W75680  13.290  30.983  14.916
 8898W        W75681  16.318   3.929  13.615
 8899W        W75682   3.376  37.657   0.545
 8900W        W75683   4.818   0.187  10.546
 8901W        W75684   8.116  13.630  12.411
 8902W        W75685  17.591  37.885   0.523
 8903W        W75686   3.581  11.143   0.147
 8904W        W75687  18.137  26.148   1.487
 8905W        W75688  38.895  11.628   4.655
 8906W        W75689  28.620  25.559   2.121
 8907W        W75690  32.493  40.987  13.875
 8908W        W75691  27.424  44.522  11.507
 8909W        W75692  37.547  19.173  14.035
 8910W        W75693   8.996  30.669   1.135
 8911W        W75694  20.494  40.081   2.674
 8912W        W75695  39.019  13.460  11.874
 8913W        W75696  35.573  39.871   3.633
 8914W        W75697  16.617   7.867   4.684
 8915W        W75698  39.961   2.478  13.256
 8916W        W75699  20.504  42.897  13.066
 8917W        W75700  32.619  33.615   0.532
 8918W        W75701   8.820   7.256  12.887
 8919W        W75702   3.980  27.761   0.678
 8920W        W75703  24.475  15.441   1.787
 8921W        W75704  34.042  28.973  11.712
 8922W        W75705  33.354  12.486  11.557
 8923W        W75706  33.433  31.550  12.364
 8924W        W75707   8.589  25.938  12.011
 8925W        W75708  27.026  22.260   4.931
 8926W        W75709  29.048  11.205   1.472
 8927W        W75710  17.125  31.589   1.424
 8928W        W75711  34.884  15.523  14.750
 8929W        W75712  39.323  32.577  13.166
 8930W        W75713  21.015  19.493   1.380
 8931W        W75714  27.780  31.667   1.268
 8932W        W75715  22.326  43.742   4.749
 8933W        W75716  42.073  21.482  10.596
 8934W        W75717   5.699  28.902  14.731
 8935W        W75718  16.849  34.997  12.252
 8936W        W75719  21.738   2.217   2.694
 8937W        W75720   3.417  38.875  13.578
 8938W        W75721  14.877  24.485   2.343
 8939W        W75722  37.469   0.203   1.490
 8940W        W75723  32.853  39.075  11.990
 8941W        W75724  20.229   6.779  11.229
 8942W        W75725  21.040  10.232  11.478
 8943W        W75726  19.786   0.772   0.880
 8944W        W75727  14.150  19.096  14.055
 8945W        W75728  38.037   9.618  11.100
 8946W        W75729  21.725  30.569  11.589
 8947W        W75730  19.438  25.059   3.847
 8948W        W75731  41.558   9.577   3.826
 8949W        W75732  44.449   6.977  11.683
 8950W        W75733  32.303  42.939  10.208
 8951W        W75734  29.548  36.553   3.200
 8952W        W75735  20.536  36.425  10.713
 8953W        W75736  30.667  37.482   4.684
 8954W        W75737  38.047   9.342  14.509
 8955W        W75738  41.257  42.351   0.815
 8956W        W75739  26.181  21.012  13.868
 8957W        W75740  38.668   7.122  10.060
 8958W        W75741   9.625  21.654  14.217
 8959W        W75742  12.390  22.988   0.344
 8960W        W75743  22.024   9.791   4.662
 8961W        W75744  30.972  13.644   3.420
 8962W        W75745   7.193   1.206  12.880
 8963W        W75746   0.838  41.290  12.968
 8964W        W75747  42.344  26.655   3.378
 8965W        W75748   9.361  22.762   4.766
 8966W        W75749   3.715  29.185   3.393
 8967W        W75750  44.723   8.383   0.783
 8968W        W75751  12.125  34.371   0.845
 8969W        W75752  13.439  33.601  13.965
 8970W        W75753  24.110  37.495   3.663
 8971W        W75754  14.240  22.982  14.235
 8972W        W75755  11.029  36.880  12.876
 8973W        W75756   0.841  41.484  12.143
 8974W        W75757   0.730  32.197   1.298
 8975W        W75758  22.458   7.803   0.717
 8976W        W75759  28.060  30.462   4.938
 8977W        W75760   4.812   3.218   0.924
 8978W        W75761  43.309  34.918  14.929
 8979W        W75762  31.149  36.338  14.938
 8980W        W75763  16.809  32.467  12.329
 8981W        W75764  17.523   5.280   0.006
 8982W        W75765  32.210  43.695   0.419
 8983W        W75766  11.237   2.256   4.265
 8984W        W75767  36.535  14.301  11.045
 8985W        W75768  42.976  27.832  13.964
 8986W        W75769  21.553  22.658   3.549
 8987W        W75770  23.536  20.843   2.298
 8988W        W75771  10.767  43.487  10.623
 8989W        W75772  17.695  21.495   0.270
 8990W        W75773  29.942  17.700  12.399
 8991W        W75774  17.966   3.743  12.226
 8992W        W75775  11.308  25.554  14.517
 8993W        W75776  42.208  28.172   1.271
 8994W        W75777  34.419  44.733  10.639
 8995W        W75778   4.018  13.308  13.331
 8996W        W75779  32.925  13.097   2.589
 8997W        W75780   7.428   4.834  11.544
 8998W        W75781  22.982  42.306   4.355
 8999W        W75782  36.643  33.343   2.721
 9000W        W75783  40.918  27.979  10.406
 9001W        W75784  19.551  39.166   4.979
 9002W        W75785  42.424  25.760  14.398
 9003W        W75786   8.297  13.202   3.774
 9004W        W75787  16.258  32.051  11.560
 9005W        W75788  18.043   8.420   4.611
 9006W        W75789  28.093  44.524   3.575
 9007W        W75790   9.884  33.007   3.680
 9008W        W75791  17.136  40.521   1.023
 9009W        W75792  32.947  20.307   2.607
 9010W        W75793  13.479  43.693  12.387
 9011W        W75794  11.332  32.860  10.647
 9012W        W75795  42.966  34.967   1.282
 9013W        W75796   4.451  44.526  13.313
 9014W        W75797   8.346  10.796  13.878
 9015W        W75798   4.564  26.509  12.092
 9016W        W75799   3.196  31.548  12.022
 9017W        W75800  23.836   3.873   3.756
 9018W        W75801  42.227  44.052   4.056
 9019W        W75802  39.581  33.196  13.904
 9020W        W75803   1.345  21.039   0.492
 9021W        W75804  10.620  38.016   4.156
 9022W        W75805  18.228  43.581   2.794
 9023W        W75806  18.240  34.203   0.470
 9024W        W75807  31.582  16.356  12.515
 9025W        W75808  17.396  25.404  10.636
 9026W        W75809  33.229   2.972   0.878
 9027W        W75810  40.839  23.314  14.000
 9028W        W75811  24.107  32.728   0.928
 9029W        W75812   8.671  30.493   3.268
 9030W        W75813   1.354  13.214   1.348
 9031W        W75814  43.266  10.356  14.375
 9032W        W75815  26.604  43.797   3.108
 9033W        W75816  18.397  25.352  10.521
 9034W        W75817  13.283  22.060  13.985
 9035W        W75818  33.262  28.928  12.133
 9036W        W75819  17.963   6.374   3.589
 9037W        W75820  28.900  11.126  12.835
 9038W        W75821   7.826  13.844  12.037
 9039W        W75822  44.458  36.999  11.074
 9040W        W75823  30.527  18.578   0.856
 9041W        W75824  24.183  42.733  12.810
 9042W        W75825  42.436  37.306   0.796
 9043W        W75826  33.236  15.606   1.405
 9044W        W75827  33.087  41.454   0.845
 9045W        W75828  28.772  12.359  14.521
 9046W        W75829  31.949  37.555   1.859
 9047W        W75830  42.030  21.229  14.571
 9048W        W75831  16.642  38.430   2.449
 9049W        W75832  11.117  14.327  13.046
 9050W        W75833  10.589  20.390  14.381
 9051W        W75834  43.948   9.381   3.224
 9052W        W75835   6.486   9.931  14.043
 9053W        W75836  25.760  31.361  11.193
 9054W        W75837   2.308  15.658  13.398
 9055W        W75838   0.686  27.059  11.280
 9056W        W75839  31.792  36.379  12.897
 9057W        W75840  22.973  12.214  12.479
 9058W        W75841  21.225  21.296  10.610
 9059W        W75842  17.314  36.263   3.266
 9060W        W75843  22.083  44.264   2.818
 9061W        W75844  20.153  21.356  13.411
 9062W        W75845  41.986  24.590  13.951
 9063W        W75846  25.082  32.070  14.684
 9064W        W75847  17.607  25.684  14.321
 9065W        W75848  13.243  42.525   2.583
 9066W        W75849   8.108  39.421   2.250
 9067W        W75850   8.940  16.241   3.365
 9068W        W75851  24.171  18.708   2.439
 9069W        W75852  10.182  23.939  11.209
 9070W        W75853  44.512   8.484  14.380
 9071W        W75854   4.203   4.646  14.184
 9072W        W75855  25.978  37.232  12.566
 9073W        W75856  31.370  19.255   1.910
 9074W        W75857  16.012  43.939  13.012
 9075W        W75858  35.318   7.265   2.172
 9076W        W75859  32.210   8.309  10.746
 9077W        W75860  17.126  32.834   2.324
 9078W        W75861  18.100  43.008   4.961
 9079W        W75862  20.515  24.970  12.853
 9080W        W75863  28.208  30.935  14.981
 9081W        W75864   8.896  12.101  13.154
 9082W        W75865   2.275  38.046  13.017
 9083W        W75866  10.617   1.913   0.023
 9084W        W75867   5.487  17.617  14.382
 9085W        W75868  36.300  14.398   2.453
 9086W        W75869  39.938  20.705   2.699
 9087W        W75870   7.664   5.328  11.957
 9088W        W75871  44.753   8.720   3.671
 9089W        W75872  21.301  41.520  12.316
 9090W        W75873  39.836  35.183  10.743
 9091W        W75874  33.516  14.762   2.442
 9092W        W75875   6.951  25.227   3.176
 9093W        W75876  23.516  26.724  11.870
 9094W        W75877   6.957   9.332  10.681
 9095W        W75878  15.097  24.742   0.406
 9096W        W75879   9.390  14.228   2.535
 9097W        W75880   8.683   6.858   0.296
 9098W        W75881   4.927  34.527  10.605
 9099W        W75882  21.263   5.951   3.729
 9100W        W75883   0.059   0.162   0.842
 9101W        W75884  43.238  42.102   1.341
 9102W        W75885  30.578  16.301   4.339
 9103W        W75886  32.205  38.859  14.842
 9104W        W75887  30.132  17.602  10.571
 9105W        W75888  41.114  44.799   3.270
 9106W        W75889  19.109  38.501  11.267
 9107W        W75890  37.964  43.974  14.798
 9108W        W75891   4.125  17.964  13.133
 9109W        W75892  29.397  26.696  13.515
 9110W        W75893  20.130  36.806   4.247
 9111W        W75894   0.683  17.829   1.106
 9112W        W75895  24.936  33.646   2.675
 9113W        W75896   6.842   8.365   0.102
 9114W        W75897  28.238  28.505  12.087
 9115W        W75898  42.557   2.474   2.117
 9116W        W75899  33.869  17.599   4.754
 9117W        W75900  11.232  12.780   2.168
 9118W        W75901  38.291  33.140   0.930
 9119W        W75902  40.478  30.361  13.960
 9120W        W75903   7.355  19.505  13.798
 9121W        W75904   5.464  38.499  14.044
 9122W        W75905  15.275  25.611   3.698
 9123W        W75906  35.251  41.987  12.952
 9124W        W75907  28.210  16.146  10.520
 9125W        W75908  15.475  28.019   1.415
 9126W        W75909  11.255  36.924   0.192
 9127W        W75910   1.989  40.523  11.140
 9128W        W75911  24.172  41.373  11.309
 9129W        W75912   2.402   6.451   4.685
 9130W        W75913  28.757  20.484  12.206
 9131W        W75914   3.993  43.337  12.862
 9132W        W75915  26.937  10.513  14.390
 9133W        W75916   9.790  27.222   4.173
 9134W        W75917  30.189  13.273  13.895
 9135W        W75918   6.052  18.104   2.659
 9136W        W75919  43.246  17.679   0.199
 9137W        W75920  15.874   5.873   4.225
 9138W        W75921  24.925  33.135  14.938
 9139W        W75922  33.415  25.434   4.117
 9140W        W75923  17.274  16.679  14.787
 9141W        W75924  25.399  37.305   2.054
 9142W        W75925  40.289  22.275   1.813
 9143W        W75926  31.179  20.966   0.400
 9144W        W75927  10.551  28.348   0.905
 9145W        W75928   6.444  42.550  13.062
 9146W        W75929  31.994  11.167   2.703
 9147W        W75930  29.124   1.217   1.548
 9148W        W75931  35.999  32.058   3.885
 9149W        W75932  16.713  11.254  10.652
 9150W        W75933  40.930  41.068  11.544
 9151W        W75934   1.306   6.246  10.688
 9152W        W75935  10.339  21.132  13.276
 9153W        W75936  41.760  23.491   4.500
 9154W        W75937  12.592   8.831  11.343
 9155W        W75938  15.074  15.859  11.996
 9156W        W75939  20.326  10.441  12.944
 9157W        W75940  15.647  19.781   0.760
 9158W        W75941   4.340   0.581   2.652
 9159W        W75942  32.718  34.468   0.818
 9160W        W75943  18.082  44.035   3.612
 9161W        W75944  33.494  31.940  10.632
 9162W        W75945   8.265  41.446   2.972
 9163W        W75946  18.937   1.392   2.692
 9164W        W75947   2.262  34.169   1.820
 9165W        W75948   8.780  42.447  14.113
 9166W        W75949  29.566  28.396  10.659
 9167W        W75950  17.031  28.486   1.837
 9168W        W75951  36.781   8.256   0.096
 9169W        W75952  15.746  25.069  12.595
 9170W        W75953  32.846  41.219   1.272
 9171W        W75954  41.496  40.341   0.761
 9172W        W75955  36.265  22.749   0.271
 9173W        W75956  31.940  32.364   1.518
 9174W        W75957  37.004  35.370   4.666
 9175W        W75958   6.139   3.323  11.176
 9176W        W75959  44.343  27.905   4.893
 9177W        W75960  31.386  35.492  12.458
 9178W        W75961   6.787  12.668  11.543
 9179W        W75962  27.678   7.322   2.378
 9180W        W75963  14.418  20.649   4.680
 9181W        W75964   3.407  35.177   3.185
 9182W        W75965   5.918  33.562   0.062
 9183W        W75966   6.952  17.581   1.914
 9184W        W75967  26.952   4.213  14.345
 9185W        W75968  31.861  41.070   1.763
 9186W        W75969  14.638  27.356  14.930
 9187W        W75970  37.898  35.429   1.163
 9188W        W75971  23.727  31.497  14.516
 9189W        W75972  10.340  36.256   2.705
 9190W        W75973  42.849   1.878  12.857
 9191W        W75974  11.250   4.578   0.456
 9192W        W75975  20.561  35.119  12.790
 9193W        W75976   7.335  43.599  10.518
 9194W        W75977  36.448  12.844   4.574
 9195W        W75978   5.369  40.572   3.665
 9196W        W75979  20.985  35.096  13.135
 9197W        W75980  40.496   3.014  10.680
 9198W        W75981  29.622  38.835   3.694
 9199W        W75982  44.847  15.124   3.684
 9200W        W75983   6.159  36.103  14.396
 9201W        W75984  37.904  11.770  11.138
 9202W        W75985   7.163   8.724  14.471
 9203W        W75986  30.430  41.437   2.955
 9204W        W75987  25.341  18.747   0.042
 9205W        W75988  19.922  25.117   0.873
 9206W        W75989   0.328  37.827   4.495
 9207W        W75990   6.076  26.628  11.749
 9208W        W75991  42.455   9.326  14.785
 9209W        W75992   3.707   4.373   4.578
 9210W        W75993  22.958   5.754   4.179
 9211W        W75994  42.077  25.187   2.365
 9212W        W75995  19.115  30.549  13.380
 9213W        W75996  35.590  23.533  12.066
 9214W        W75997  27.970  14.591  11.501
 9215W        W75998  43.839  28.527  13.882
 9216W        W75999  29.588  44.086   5.024
 9217W        W76000  21.103  38.289  14.464
 9218W        W76001   9.254  43.379  10.984
 9219W        W76002  18.737  17.653  10.634
 9220W        W76003   9.742  39.404   2.751
 9221W        W76004   3.694  16.561   2.703
 9222W        W76005  43.049   3.616  14.878
 9223W        W76006  36.034   5.695  11.062
 9224W        W76007  35.422  17.653   4.069
 9225W        W76008  29.133  22.194   3.080
 9226W        W76009  25.079  41.235   3.107
 9227W        W76010  36.439  26.359   2.153
 9228W        W76011  12.801  29.258   4.638
 9229W        W76012  15.556  25.125   4.544
 9230W        W76013  38.416  12.731  14.832
 9231W        W76014  33.267  25.901  13.883
 9232W        W76015  23.618  29.157  13.518
 9233W        W76016  44.079  39.912  12.383
 9234W        W76017  10.364  12.151   2.109
 9235W        W76018  43.726  25.256  10.830
 9236W        W76019  32.790   4.350  11.559
 9237W        W76020  40.311  19.261   2.467
 9238W        W76021  37.130   1.263  13.682
 9239W        W76022  17.151  19.411  10.300
 9240W        W76023   0.580  24.262  13.377
 9241W        W76024   2.740   5.797   1.987
 9242W        W76025  38.821  38.813  14.257
 9243W        W76026  35.097  21.334   1.824
 9244W        W76027   0.093  35.214   3.119
 9245W        W76028  29.640   5.454  14.537
 9246W        W76029  23.899   6.870   3.666
 9247W        W76030   4.242  37.945   0.186
 9248W        W76031  26.470  23.239   0.241
 9249W        W76032   9.263   1.942  10.657
 9250W        W76033  23.011  14.532   2.860
 9251W        W76034  19.246  42.707   0.053
 9252W        W76035  14.688  29.441  14.508
 9253W        W76036  44.782   3.904   4.918
 9254W        W76037   2.147  25.848  11.177
 9255W        W76038  40.868  38.778  12.030
 9256W        W76039  14.033  33.387  12.683
 9257W        W76040   6.019  27.226  12.575
 9258W        W76041   7.896  21.590  11.520
 9259W        W76042  40.983  39.662  13.189
 9260W        W76043  39.520  18.995  14.361
 9261W        W76044  15.150   8.310   4.608
 9262W        W76045  36.114   0.735   0.684
 9263W        W76046   3.909  28.951   2.685
 9264W        W76047  24.733  12.284  14.769
 9265W        W76048  10.130  43.926  14.761
 9266W        W76049  40.481  26.480  10.461
 9267W        W76050  23.974   2.893  12.550
 9268W        W76051  26.718  16.779   1.468
 9269W        W76052  28.420  42.401  13.969
 9270W        W76053  15.793  42.340   3.717
 9271W        W76054   7.695  28.987   0.562
 9272W        W76055  13.238  33.686  12.072
 9273W        W76056   7.655   5.839  12.542
 9274W        W76057  20.009  17.490   4.577
 9275W        W76058  21.247  14.227  12.979
 9276W        W76059  17.239  35.287  12.027
 9277W        W76060  13.446  26.062  11.135
 9278W        W76061  12.286   4.451  11.599
 9279W        W76062   0.303  19.191   1.893
 9280W        W76063  31.440  33.998   4.791
 9281W        W76064   3.691  14.101  12.361
 9282W        W76065  40.007  40.213  11.514
 9283W        W76066  38.619  31.663   1.361
 9284W        W76067  16.083  39.522   2.884
 9285W        W76068  16.567  41.064   4.135
 9286W        W76069  35.653  38.575  12.942
 9287W        W76070  18.817  25.968   1.756
 9288W        W76071  44.766  17.749  11.544
 9289W        W76072  38.385  29.548  12.615
 9290W        W76073  15.772  22.321  10.303
 9291W        W76074  40.268  36.087  14.878
 9292W        W76075  15.740   3.819  11.389
 9293W        W76076  39.797  41.456   2.341
 9294W        W76077   4.723  13.608   2.681
 9295W        W76078  21.090  13.365   1.318
 9296W        W76079  42.065  43.240   3.905
 9297W        W76080  16.316  22.613   3.321
 9298W        W76081  39.574  17.190   3.885
 9299W        W76082  14.826  29.021  11.605
 9300W        W76083   8.100  38.737  11.056
 9301W        W76084  26.798  32.860   5.101
 9302W        W76085   3.321  34.613  13.294
 9303W        W76086  35.970  13.720  14.748
 9304W        W76087  19.561  38.943   1.735
 9305W        W76088  22.766   6.395  11.183
 9306W        W76089  23.497  14.631  11.296
 9307W        W76090  39.100  31.019   4.081
 9308W        W76091  12.180  29.153   4.087
 9309W        W76092  28.911  16.674   4.377
 9310W        W76093  39.926  26.723  13.463
 9311W        W76094  35.857  41.329   1.498
 9312W        W76095   5.992  40.934  14.769
 9313W        W76096  18.304  30.944   0.795
 9314W        W76097  39.862  19.487   1.416
 9315W        W76098  31.505  31.928  14.431
 9316W        W76099  35.394  41.909   0.449
 9317W        W76100  28.097  27.624   9.814
 9318W        W76101  39.367   5.859   0.944
 9319W        W76102  38.553  21.116  12.854
 9320W        W76103  44.321  17.738   0.472
 9321W        W76104   7.810  37.383   1.322
 9322W        W76105  19.724  11.307   0.355
 9323W        W76106  20.212  41.194   3.220
 9324W        W76107   8.339  37.110   2.657
 9325W        W76108  33.160  29.709  11.144
 9326W        W76109  37.908  44.670   4.284
 9327W        W76110   6.171   2.435  12.869
 9328W        W76111  37.553  14.098  11.101
 9329W        W76112   5.779  37.230   1.818
 9330W        W76113  30.548   2.742  10.668
 9331W        W76114   9.125  35.533  12.507
 9332W        W76115  28.503  43.008   1.355
 9333W        W76116   6.658  40.461  11.382
 9334W        W76117   6.131  19.296   0.019
 9335W        W76118  13.134  24.757   4.240
 9336W        W76119   8.275   9.154   2.181
 9337W        W76120  10.240   9.714   2.280
 9338W        W76121  25.187  44.736   0.862
 9339W        W76122  35.368   0.304   3.605
 9340W        W76123  26.972  18.452  10.591
 9341W        W76124  31.263   5.486  13.458
 9342W        W76125  40.007  38.401   2.721
 9343W        W76126  37.890  44.202   0.755
 9344W        W76127  41.223  33.034   3.184
 9345W        W76128  40.567  40.745  14.663
 9346W        W76129   3.372  41.305  14.340
 9347W        W76130  38.059   0.544  11.883
 9348W        W76131  35.639  38.597   0.941
 9349W        W76132   9.340  26.570   2.208
 9350W        W76133  24.975  20.732   1.430
 9351W        W76134  27.531  11.945  12.992
 9352W        W76135  43.752  32.539   3.282
 9353W        W76136  24.710  18.003  10.667
 9354W        W76137  24.961  18.434  14.889
 9355W        W76138   5.928  39.374  12.960
 9356W        W76139  41.919  30.766  12.407
 9357W        W76140  32.969  30.188  13.096
 9358W        W76141  10.715  10.589   2.323
 9359W        W76142  32.435  16.725   3.275
 9360W        W76143  11.285  11.640   0.281
 9361W        W76144  41.917  27.395  13.817
 9362W        W76145  24.425  24.479  11.124
 9363W        W76146  15.650   0.970   2.322
 9364W        W76147  16.106  44.384   0.541
 9365W        W76148  44.889  32.118   0.459
 9366W        W76149   4.294  24.013   2.244
 9367W        W76150   1.421  37.094  12.041
 9368W        W76151  34.388  27.208   4.242
 9369W        W76152  40.032  27.568  14.569
 9370W        W76153  25.650   4.331   2.388
 9371W        W76154  35.413  38.487   2.910
 9372W        W76155  18.317  34.464   3.091
 9373W        W76156  35.844  34.304  13.616
 9374W        W76157   7.362  11.188  11.367
 9375W        W76158  30.582  31.616   4.567
 9376W        W76159   8.702   2.964  14.283
 9377W        W76160  18.608  30.159   0.327
 9378W        W76161  38.988  24.499  12.930
 9379W        W76162   0.459  27.431   3.623
 9380W        W76163   9.109   6.612   0.421
 9381W        W76164  37.395  23.760  12.663
 9382W        W76165  11.171  29.050   3.837
 9383W        W76166   0.927  15.724   0.227
 9384W        W76167   5.255  38.941  11.336
 9385W        W76168  40.608   2.754  12.405
 9386W        W76169  11.590  34.502  14.913
 9387W        W76170  37.278  20.026  12.575
 9388W        W76171   0.879  16.946  14.376
 9389W        W76172  17.347  29.170   0.614
 9390W        W76173  17.843   5.699   2.119
 9391W        W76174  28.945  28.605  13.558
 9392W        W76175  27.844   9.902   2.352
 9393W        W76176  44.199  35.060   2.792
 9394W        W76177  10.097  17.097  11.528
 9395W        W76178  25.622  44.381  11.411
 9396W        W76179  42.085  40.350  14.915
 9397W        W76180   2.341   3.821  13.383
 9398W        W76181  22.305  16.188   1.257
 9399W        W76182  10.405  38.317   3.304
 9400W        W76183  18.149   2.747   4.244
 9401W        W76184   4.420  42.075   0.390
 9402W        W76185  44.445  38.242  11.543
 9403W        W76186   0.932  13.704  10.644
 9404W        W76187  15.552   9.334  14.252
 9405W        W76188  13.165  21.420   0.747
 9406W        W76189  39.566  40.758   0.008
 9407W        W76190  29.986  37.816   3.792
 9408W        W76191  21.730  39.791  11.767
 9409W        W76192  15.671   0.408  12.967
 9410W        W76193  44.694  35.104   5.022
 9411W        W76194  31.572  40.894   1.323
 9412W        W76195   6.945  35.889  11.486
 9413W        W76196  14.618  13.299  10.705
 9414W        W76197  34.964  15.235   4.585
 9415W        W76198  25.010  15.670  10.628
 9416W        W76199  16.916  21.256  10.265
 9417W        W76200  21.862  40.548  11.988
 9418W        W76201  18.796  32.485  14.999
 9419W        W76202  36.546  34.789  11.197
 9420W        W76203  18.319   5.585  12.187
 9421W        W76204  23.710   3.948   0.244
 9422W        W76205  30.384   8.879  14.464
 9423W        W76206   8.435  35.888   4.574
 9424W        W76207  34.822  33.913   1.806
 9425W        W76208  33.525  31.121  14.518
 9426W        W76209  33.315  37.735  13.424
 9427W        W76210  33.278  43.455   3.213
 9428W        W76211  12.114  24.211   2.323
 9429W        W76212  44.575  10.195  11.572
 9430W        W76213   7.942   9.428  10.719
 9431W        W76214  22.636  31.142  13.126
 9432W        W76215  17.808  17.317  13.492
 9433W        W76216  37.968   9.293   3.963
 9434W        W76217  40.345   8.763   3.776
 9435W        W76218  44.735   3.177   4.307
 9436W        W76219  38.933  10.365   4.094
 9437W        W76220  10.966  30.146   3.112
 9438W        W76221  16.248  20.036   0.720
 9439W        W76222  11.680   6.104   3.183
 9440W        W76223   8.406  37.097   4.162
 9441W        W76224   8.617  14.586   2.778
 9442W        W76225  10.606  17.834   0.091
 9443W        W76226   2.280  26.215  14.370
 9444W        W76227  30.633  28.956   2.752
 9445W        W76228  32.499  28.433  11.198
 9446W        W76229  44.761  19.394  10.337
 9447W        W76230  39.167  16.647  10.057
 9448W        W76231  11.606  33.948   0.502
 9449W        W76232  14.871  41.027   3.690
 9450W        W76233  42.380  38.674  13.871
 9451W        W76234   6.926  19.105   2.768
 9452W        W76235  33.715  44.403  14.895
 9453W        W76236  28.550  37.005   2.489
 9454W        W76237  23.259  22.554  10.374
 9455W        W76238  35.928   8.402   5.088
 9456W        W76239  24.814   8.864   4.329
 9457W        W76240  40.098   8.959  10.308
 9458W        W76241  17.848  16.722  11.162
 9459W        W76242   1.786  23.881   0.161
 9460W        W76243  39.699  29.931  11.937
 9461W        W76244   3.470   8.083  14.293
 9462W        W76245   4.180  34.113  12.063
 9463W        W76246  10.722  18.688   4.044
 9464W        W76247  30.791   1.415   2.249
 9465W        W76248   6.103  31.330   4.652
 9466W        W76249  40.245  42.825  11.469
 9467W        W76250   7.223  32.114   3.218
 9468W        W76251   9.215  30.503   2.642
 9469W        W76252  11.418  37.099   1.406
 9470W        W76253  20.389  13.687   1.800
 9471W        W76254  32.536  34.025   3.362
 9472W        W76255  39.885  41.922  11.658
 9473W        W76256  44.061  42.361  12.584
 9474W        W76257   7.772  28.931   4.312
 9475W        W76258  38.692  13.846  12.001
 9476W        W76259  33.865  35.955  14.220
 9477W        W76260  39.899  38.057   4.719
 9478W        W76261  41.195  33.135  13.380
 9479W        W76262  25.024   2.762   2.699
 9480W        W76263  21.851  29.842   4.566
 9481W        W76264  26.067  32.135  13.999
 9482W        W76265  13.174  20.653   1.298
 9483W        W76266  42.225  41.414  12.541
 9484W        W76267   4.061   4.953   4.420
 9485W        W76268  32.500  32.144   4.590
 9486W        W76269  13.325  26.578  10.116
 9487W        W76270  22.439  42.964   1.478
 9488W        W76271  41.867  37.507  13.573
 9489W        W76272  13.248   1.294  13.331
 9490W        W76273  26.755  10.558   1.689
 9491W        W76274   0.067  11.365   0.837
 9492W        W76275   9.311  36.051   9.935
 9493W        W76276   3.465  42.019   2.289
 9494W        W76277   1.766   5.231  12.563
 9495W        W76278  43.483  24.259  12.060
 9496W        W76279  29.886   7.750   2.756
 9497W        W76280  18.228  24.390  10.645
 9498W        W76281   7.119  39.932  12.187
 9499W        W76282   0.744  40.611  10.999
 9500W        W76283   4.334  38.398   4.603
 9501W        W76284  41.937  29.843   2.241
 9502W        W76285  42.040  12.274   3.404
 9503W        W76286  17.622  17.617  12.136
 9504W        W76287  44.338  21.853   0.402
 9505W        W76288  39.521  37.231  13.014
 9506W        W76289  13.148   8.968   0.705
 9507W        W76290  21.658  18.783  14.295
 9508W        W76291  32.683  11.658  13.407
 9509W        W76292  32.908  26.247   1.777
 9510W        W76293  32.425  29.371  12.838
 9511W        W76294  29.426   2.250   2.747
 9512W        W76295  41.351  39.009   4.120
 9513W        W76296   4.282  25.608  10.801
 9514W        W76297  14.090  15.929   1.943
 9515W        W76298  36.913   0.812  12.278
 9516W        W76299  32.598  20.353  13.060
 9517W        W76300  29.797  20.038   5.138
 9518W        W76301  32.424  37.210  14.241
 9519W        W76302  19.170  26.789   0.688
 9520W        W76303   4.213  34.678  13.505
 9521W        W76304   9.892  41.959   0.359
 9522W        W76305   3.422  25.241   4.449
 9523W        W76306   1.809   9.635  14.463
 9524W        W76307  19.062   3.360   0.055
 9525W        W76308   9.059  41.651  11.814
 9526W        W76309   8.658   5.089  11.147
 9527W        W76310   8.220   2.160   4.341
 9528W        W76311  33.889  34.602  13.263
 9529W        W76312  42.197  33.632   4.548
 9530W        W76313  30.468  15.672   0.669
 9531W        W76314  14.347  44.894  10.500
 9532W        W76315   8.780   1.432   0.452
 9533W        W76316  16.995  36.387   0.594
 9534W        W76317  14.619  24.508  14.712
 9535W        W76318  17.563  12.759   0.407
 9536W        W76319   2.740  28.081  14.912
 9537W        W76320  13.163  12.015   3.622
 9538W        W76321  30.996  35.684   3.174
 9539W        W76322  32.894  14.879   2.722
 9540W        W76323  37.971  37.910   3.664
 9541W        W76324  35.364  43.079  11.075
 9542W        W76325  31.961   1.365  12.924
 9543W        W76326  30.143  28.567   0.419
 9544W        W76327  33.152   7.716   0.602
 9545W        W76328  16.297  35.463   3.160
 9546W        W76329  34.969   5.016  13.835
 9547W        W76330  37.046  37.254  12.845
 9548W        W76331  38.502  43.721   2.214
 9549W        W76332   9.352  32.956  13.914
 9550W        W76333  42.709  10.689   3.359
 9551W        W76334   2.926  17.069   4.292
 9552W        W76335  24.453  38.611   1.998
 9553W        W76336  35.466  21.547   1.361
 9554W        W76337  24.407  12.306   4.666
 9555W        W76338   5.724  36.043  10.827
 9556W        W76339  25.227  14.435   4.181
 9557W        W76340  13.133  15.611  13.825
 9558W        W76341  43.501   3.805  11.015
 9559W        W76342  38.933  43.970   3.499
 9560W        W76343   2.206  22.201  14.560
 9561W        W76344  32.487  15.331   3.379
 9562W        W76345  38.474  37.475  11.133
 9563W        W76346  37.554  35.823   2.678
 9564W        W76347  38.897   0.009  14.546
 9565W        W76348  36.603  43.650  14.849
 9566W        W76349   6.282  36.020  13.854
 9567W        W76350  38.838  17.283   0.916
 9568W        W76351  13.756  39.297  11.551
 9569W        W76352  13.388  14.629   4.894
 9570W        W76353  30.066   2.612   1.396
 9571W        W76354  29.040  19.886   3.157
 9572W        W76355  31.431   4.206   4.771
 9573W        W76356  13.677  43.045   1.842
 9574W        W76357  26.437  23.847   4.561
 9575W        W76358  22.695  21.521   3.481
 9576W        W76359  30.400  29.594  14.316
 9577W        W76360   1.323  32.643  12.987
 9578W        W76361  21.027   6.806   1.739
 9579W        W76362  30.079  36.697   4.872
 9580W        W76363  43.337  33.086  10.950
 9581W        W76364   4.819  44.322   5.056
 9582W        W76365  32.110   5.206  13.515
 9583W        W76366  30.682  43.287  14.873
 9584W        W76367   0.896  19.471  13.538
 9585W        W76368  10.364  31.854   1.714
 9586W        W76369  15.139  32.303  12.872
 9587W        W76370  39.900  29.955  14.250
 9588W        W76371  11.803  39.754  14.944
 9589W        W76372  41.398  40.948  13.754
 9590W        W76373   3.895  19.719  10.571
 9591W        W76374   1.316  28.230   3.198
 9592W        W76375  33.175  11.448   0.478
 9593W        W76376  32.116  21.821   0.471
 9594W        W76377  35.055  11.426  13.403
 9595W        W76378  25.774  34.380   4.060
 9596W        W76379  30.674  21.162  12.710
 9597W        W76380  19.960  38.447  10.708
 9598W        W76381  17.389  16.238   0.441
 9599W        W76382  44.875  12.151  13.423
 9600W        W76383  14.285  42.520   3.086
 9601W        W76384  17.313  33.386   1.736
 9602W        W76385  21.246  15.577  14.313
 9603W        W76386  37.568  37.775   0.358
 9604W        W76387  41.547  33.607  10.967
 9605W        W76388   9.794   2.355   0.535
 9606W        W76389   0.877  17.577   0.247
 9607W        W76390  12.919  32.356   2.273
 9608W        W76391  39.753  20.519  13.523
 9609W        W76392   2.876  33.055   3.254
 9610W        W76393  22.076  32.521  11.068
 9611W        W76394  38.956  25.114   2.834
 9612W        W76395  42.595  41.970   0.020
 9613W        W76396  16.812  16.792   0.518
 9614W        W76397  31.462   5.634  11.296
 9615W        W76398  20.651  28.012   0.707
 9616W        W76399  19.521  32.539   1.249
 9617W        W76400  23.068   0.954  12.041
 9618W        W76401  29.058  21.263   2.734
 9619W        W76402   2.764  27.694   0.983
 9620W        W76403  12.898  38.137  13.309
 9621W        W76404  39.706  16.588  12.019
 9622W        W76405  22.840  32.529  14.375
 9623W        W76406  12.607  25.595  12.647
 9624W        W76407  23.307  19.928   1.827
 9625W        W76408  29.097  14.207  12.263
 9626W        W76409  35.745   4.056   4.186
 9627W        W76410  19.321   2.360  11.457
 9628W        W76411  27.520  14.865  14.805
 9629W        W76412   9.732  36.307   3.243
 9630W        W76413  21.440  15.156   4.809
 9631W        W76414  37.985  29.252  11.151
 9632W        W76415  19.220  26.797   3.133
 9633W        W76416   6.832  11.762   3.621
 9634W        W76417   9.256  34.815  13.309
 9635W        W76418  13.865  27.642  12.412
 9636W        W76419  16.123  32.933  11.958
 9637W        W76420  29.909  21.082   0.714
 9638W        W76421  31.805  36.800   2.820
 9639W        W76422   8.897  32.897  11.173
 9640W        W76423  43.229  38.029   0.519
 9641W        W76424  36.315  27.219  12.697
 9642W        W76425  35.894  36.123  12.459
 9643W        W76426  31.073  44.225   2.004
 9644W        W76427  11.510   6.379  10.165
 9645W        W76428  41.451  30.437  13.131
 9646W        W76429  32.985   0.805  10.994
 9647W        W76430  21.656  25.933   1.442
 9648W        W76431  26.631  24.483   0.477
 9649W        W76432  43.548  23.928  11.221
 9650W        W76433  22.316  17.751  10.511
 9651W        W76434  27.350  17.127  11.654
 9652W        W76435  25.536  39.016   1.289
 9653W        W76436   2.410  34.648  12.763
 9654W        W76437  17.041  11.574  14.855
 9655W        W76438  29.687   2.799   0.738
 9656W        W76439   9.828  22.695   0.848
 9657W        W76440  16.058   0.982  12.477
 9658W        W76441  37.316  33.422  12.553
 9659W        W76442  13.638   7.445   1.890
 9660W        W76443  17.634  23.046   3.196
 9661W        W76444  23.272  43.445  11.906
 9662W        W76445  38.767   8.255  12.105
 9663W        W76446  27.546  35.109  10.543
 9664W        W76447  40.004  12.997   2.677
 9665W        W76448  12.848  14.738   0.429
 9666W        W76449  18.996  33.920  11.558
 9667W        W76450  36.168  17.453  11.746
 9668W        W76451  37.415  44.465  11.677
 9669W        W76452   7.206  36.916   1.733
 9670W        W76453  16.880  18.615   0.886
 9671W        W76454   3.883   4.276   0.670
 9672W        W76455  31.984  10.190   0.964
 9673W        W76456  27.107  18.101  14.834
 9674W        W76457  34.642   7.269  13.019
 9675W        W76458   3.080  12.825  14.012
 9676W        W76459  31.621  44.900  10.723
 9677W        W76460  28.145  39.442   5.012
 9678W        W76461   5.100  14.286  11.440
 9679W        W76462  30.188  16.672   1.680
 9680W        W76463  44.132  15.081  14.248
 9681W        W76464  40.474  38.538   1.320
 9682W        W76465  35.644  27.449   4.035
 9683W        W76466   2.426  25.410   4.309
 9684W        W76467  17.105  27.918   2.418
 9685W        W76468  24.009   7.639   2.701
 9686W        W76469  26.606   3.032   2.799
 9687W        W76470  10.978   8.683  14.344
 9688W        W76471  32.548  42.665  10.617
 9689W        W76472  15.800   3.809  12.399
 9690W        W76473  41.873  42.281  13.000
 9691W        W76474  12.246  35.807  13.812
 9692W        W76475  16.695  30.025   4.077
 9693W        W76476   0.483   4.493   3.617
 9694W        W76477  34.141  18.216   0.970
 9695W        W76478  19.152  44.284   2.263
 9696W        W76479   1.915  27.527   4.189
 9697W        W76480  30.588  17.616   4.417
 9698W        W76481   6.736  35.470   0.365
 9699W        W76482  19.553  29.284  11.089
 9700W        W76483  28.942  43.468  14.395
 9701W        W76484  23.636  39.616   2.509
 9702W        W76485  22.934  16.082  12.227
 9703W        W76486  19.082   5.108  10.607
 9704W        W76487  37.057  43.962   0.768
 9705W        W76488   8.643  36.978  14.287
 9706W        W76489  24.557  25.055  13.954
 9707W        W76490  28.970   0.558  14.494
 9708W        W76491  32.220   7.471   1.868
 9709W        W76492   5.585  20.566   4.064
 9710W        W76493  19.761  24.494  14.868
 9711W        W76494  35.614  32.476   2.176
 9712W        W76495  36.568  11.651  10.969
 9713W        W76496  24.389  29.798   5.077
 9714W        W76497  11.386  26.707  12.813
 9715W        W76498   6.860  14.796   2.179
 9716W        W76499   8.270  23.503   0.418
 9717W        W76500  22.163  30.381   2.304
 9718W        W76501  24.747  10.418   1.778
 9719W        W76502  16.088  22.694   1.742
 9720W        W76503  39.486  40.407  13.423
 9721W        W76504  30.474   7.034  14.986
 9722W        W76505  22.150  43.710   1.657
 9723W        W76506  15.466   9.816   0.505
 9724W        W76507  18.080  40.801  13.007
 9725W        W76508  28.383   4.295  12.040
 9726W        W76509   3.224  10.416   2.142
 9727W        W76510   3.954  25.224   4.249
 9728W        W76511  23.053  37.009  14.863
 9729W        W76512  23.594   4.012  12.572
 9730W        W76513  12.194  13.562   4.380
 9731W        W76514  11.651  30.099  14.543
 9732W        W76515  30.979  14.007  14.944
 9733W        W76516  24.037  24.585   3.820
 9734W        W76517  14.082  37.852   3.077
 9735W        W76518  40.799  20.976   3.630
 9736W        W76519  29.686   3.897  12.348
 9737W        W76520  10.620  11.350  14.992
 9738W        W76521  27.046  10.782   4.690
 9739W        W76522   8.068  39.673   2.777
 9740W        W76523  18.542  34.028  10.668
 9741W        W76524   0.505   7.310   3.276
 9742W        W76525  36.689  26.011   1.376
 9743W        W76526   5.292  25.724   2.403
 9744W        W76527  36.932  41.459   2.248
 9745W        W76528  25.113  35.845   1.663
 9746W        W76529  26.604  34.139  13.042
 9747W        W76530  27.111  36.579  13.490
 9748W        W76531  27.096  26.309  13.873
 9749W        W76532  44.015   4.718  13.935
 9750W        W76533  13.087  41.317  13.522
 9751W        W76534  35.328  34.564   1.555
 9752W        W76535   2.941  28.720  12.000
 9753W        W76536  26.496  31.283   2.566
 9754W        W76537   0.270  43.338   0.535
 9755W        W76538  31.898  14.086  14.819
 9756W        W76539  15.063  32.058  14.966
 9757W        W76540   8.303   1.717   4.710
 9758W        W76541   4.967  18.674   1.146
 9759W        W76542  16.670  39.288   3.691
 9760W        W76543  36.029  18.459  11.945
 9761W        W76544  35.424  39.030   4.220
 9762W        W76545  30.517  19.757   3.080
 9763W        W76546   7.796  25.760   3.789
 9764W        W76547  33.902   4.454   9.950
 9765W        W76548   9.807   3.648  13.037
 9766W        W76549  29.925  29.553  14.478
 9767W        W76550   6.213  30.604   2.465
 9768W        W76551  31.008  10.358   0.257
 9769W        W76552  24.181  10.781   1.277
 9770W        W76553  33.554  33.653   4.110
 9771W        W76554  36.874  24.118   0.478
 9772W        W76555  24.876   7.831  11.250
 9773W        W76556  42.186   8.470   3.511
 9774W        W76557   7.711  25.124   2.821
 9775W        W76558  31.412  32.540   0.234
 9776W        W76559  38.374   6.907  14.779
 9777W        W76560  32.658  38.913   4.213
 9778W        W76561   6.307  26.140  13.605
 9779W        W76562  30.127   0.191   3.199
 9780W        W76563   8.131  27.217   4.845
 9781W        W76564  15.795  40.082   0.019
 9782W        W76565  12.222  30.114  11.542
 9783W        W76566  29.083   2.361   4.128
 9784W        W76567  20.048  10.373  11.191
 9785W        W76568   2.105  24.567   0.694
 9786W        W76569   7.171  10.011   1.511
 9787W        W76570   2.204  29.643   1.294
 9788W        W76571  13.688  24.063  13.375
 9789W        W76572   4.916  36.874   0.934
 9790W        W76573   6.869   1.249   0.331
 9791W        W76574   8.821  38.458  13.397
 9792W        W76575  38.789  13.892   4.073
 9793W        W76576  13.132  25.036  11.540
 9794W        W76577  33.055  35.478   0.933
 9795W        W76578  43.447  29.610  13.110
 9796W        W76579  37.285  37.980   2.222
 9797W        W76580  35.971  33.608  10.595
 9798W        W76581   7.959  10.295  10.310
 9799W        W76582  42.540  10.521  12.910
 9800W        W76583  23.079  38.625   2.739
 9801W        W76584  14.102   6.138   1.221
 9802W        W76585  22.564  15.457  10.166
 9803W        W76586  24.328  37.439   2.773
 9804W        W76587  24.733  39.104   4.083
 9805W        W76588   3.335  40.083   1.014
 9806W        W76589  11.646  24.222   0.378
 9807W        W76590   3.259  19.131   3.271
 9808W        W76591  31.061  22.131  11.658
 9809W        W76592  34.806  41.608  11.334
 9810W        W76593  11.746  37.002  10.724
 9811W        W76594  42.896  41.519   3.148
 9812W        W76595   6.393  44.282   0.311
 9813W        W76596  23.738   1.834  12.483
 9814W        W76597  10.287  39.969   1.501
 9815W        W76598  10.745   9.951  14.889
 9816W        W76599  40.721  13.683   1.915
 9817W        W76600  44.320  10.298  11.134
 9818W        W76601   0.496   2.223  14.784
 9819W        W76602  40.432  17.144  10.609
 9820W        W76603  12.909   5.988  13.714
 9821W        W76604  31.409  24.618  12.625
 9822W        W76605   2.796  26.517   1.377
 9823W        W76606  25.985  41.634  11.152
 9824W        W76607   6.437  37.799   1.592
 9825W        W76608  34.592  35.508   3.271
 9826W        W76609  16.120  41.865  12.335
 9827W        W76610   3.266   9.327  14.879
 9828W        W76611  14.125  42.264   1.808
 9829W        W76612  24.577  22.913   1.296
 9830W        W76613   6.444  29.512   1.717
 9831W        W76614   5.883  16.140   2.985
 9832W        W76615   9.188   2.180   2.621
 9833W        W76616  24.650  26.321  12.869
 9834W        W76617  21.769  18.084  12.407
 9835W        W76618  44.092   4.965  13.470
 9836W        W76619  35.146  35.314   0.995
 9837W        W76620  11.149  31.911   2.135
 9838W        W76621   7.413  19.446  14.968
 9839W        W76622  43.540  35.437   2.661
 9840W        W76623  12.710  29.073  11.155
 9841W        W76624   0.365  38.600   1.791
 9842W        W76625  20.114  34.281   1.031
 9843W        W76626  33.651   4.143   4.522
 9844W        W76627   2.436  29.464  11.085
 9845W        W76628  23.470  24.681  13.533
 9846W        W76629  17.960  24.043   0.967
 9847W        W76630  42.260  25.662   3.277
 9848W        W76631  39.921  32.977  12.908
 9849W        W76632  18.049  10.215   4.425
 9850W        W76633   8.594  14.775   0.727
 9851W        W76634  11.284  41.706  10.545
 9852W        W76635  44.482   9.750   0.490
 9853W        W76636  27.394  11.840   3.290
 9854W        W76637  40.045  27.769   3.618
 9855W        W76638   9.122  41.860   4.138
 9856W        W76639  30.424   5.397   2.344
 9857W        W76640  39.828   4.782  14.143
 9858W        W76641  34.475  36.392   1.437
 9859W        W76642  34.405  34.841   3.275
 9860W        W76643   4.707   0.547   2.000
 9861W        W76644   8.243  24.491   3.203
 9862W        W76645  30.360  34.481  12.378
 9863W        W76646  17.899   1.427   2.562
 9864W        W76647  42.478  43.060   4.160
 9865W        W76648  16.352  28.497   4.166
 9866W        W76649  41.344  12.575   3.561
 9867W        W76650  15.280   2.917  10.527
 9868W        W76651   3.924  25.683   1.739
 9869W        W76652  34.821  37.857  10.750
 9870W        W76653  34.889  23.715   2.337
 9871W        W76654  27.761  36.345   3.325
 9872W        W76655   6.196  44.778   1.763
 9873W        W76656  29.715  39.824  11.712
 9874W        W76657   9.269   9.790  11.866
 9875W        W76658  33.406  35.125   0.821
 9876W        W76659  14.825  11.354  11.707
 9877W        W76660  39.454  39.025  12.509
 9878W        W76661  18.519  16.820  13.151
 9879W        W76662  21.150  30.610  14.437
 9880W        W76663   4.337  34.141   1.170
 9881W        W76664  22.196  28.821   2.304
 9882W        W76665  19.734  41.351   1.232
 9883W        W76666  23.694   3.423   1.765
 9884W        W76667  27.007  31.924   1.341
 9885W        W76668  12.678  40.662  14.315
 9886W        W76669  34.389  21.576  11.511
 9887W        W76670  11.167   8.667   0.419
 9888W        W76671  22.070  41.044   4.398
 9889W        W76672  28.213  43.384  12.569
 9890W        W76673  40.920   0.085   2.815
 9891W        W76674  14.312  34.075   3.758
 9892W        W76675  44.476  20.743  12.496
 9893W        W76676  15.340  17.980  14.218
 9894W        W76677  22.958  14.790   0.317
 9895W        W76678  37.949   7.709   3.255
 9896W        W76679  14.380  13.926  11.074
 9897W        W76680  12.667   9.288  14.508
 9898W        W76681  41.760  21.983   3.611
 9899W        W76682  15.832   7.865   0.340
 9900W        W76683  33.441  16.358   1.857
 9901W        W76684  32.080  42.524  10.454
 9902W        W76685   2.785  44.956   3.121
 9903W        W76686  31.174  26.089  14.949
 9904W        W76687  28.858  44.406   0.825
 9905W        W76688  12.389  28.672   2.291
 9906W        W76689  24.104  10.658  11.466
 9907W        W76690  20.548  38.304   0.308
 9908W        W76691  35.808  37.811  14.984
 9909W        W76692  35.457  40.090   0.594
 9910W        W76693  10.224  27.276  10.170
 9911W        W76694  28.374   4.172  13.886
 9912W        W76695   4.299  12.858   0.225
 9913W        W76696  23.130  15.235   3.523
 9914W        W76697  39.064  20.265  13.542
 9915W        W76698   4.357   1.939  11.458
 9916W        W76699  12.487   6.679  12.028
 9917W        W76700  10.725  40.823   0.690
 9918W        W76701  14.552  14.291   4.198
 9919W        W76702  25.407  41.845  11.090
 9920W        W76703  32.067  43.940   3.443
 9921W        W76704   1.844  20.572   4.283
 9922W        W76705  35.574  38.519  14.381
 9923W        W76706   2.801  31.330   1.766
 9924W        W76707   1.626  12.719  10.987
 9925W        W76708  25.684  37.079   0.671
 9926W        W76709  15.206  38.912  10.260
 9927W        W76710  31.991  31.867   1.306
 9928W        W76711  18.696   6.801  14.831
 9929W        W76712  34.661  21.235   2.888
 9930W        W76713   3.890  20.111  13.764
 9931W        W76714   7.781   9.825  10.441
 9932W        W76715  24.643  23.038   4.961
 9933W        W76716  33.118  20.295  14.689
 9934W        W76717   4.638   2.988   1.357
 9935W        W76718  30.723  34.476   2.947
 9936W        W76719   8.574  27.038   0.525
 9937W        W76720   8.659  12.331   3.685
 9938W        W76721   9.062  26.067  12.156
 9939W        W76722  37.610   7.373  11.089
 9940W        W76723  13.561  13.320  12.179
 9941W        W76724  11.735  25.641  12.382
 9942W        W76725  26.385  40.820  13.384
 9943W        W76726  32.066   1.924   3.287
 9944W        W76727  42.746  37.973  11.290
 9945W        W76728   4.234   6.983   2.342
 9946W        W76729  15.727   7.623  13.348
 9947W        W76730   0.737  36.887   3.781
 9948W        W76731   4.243   1.298  14.851
 9949W        W76732  11.331  17.592  13.418
 9950W        W76733  29.483   4.745   2.755
 9951W        W76734  27.193  13.853  12.212
 9952W        W76735  27.797  32.039   5.274
 9953W        W76736   7.034  38.331  12.925
 9954W        W76737  29.260   4.632   0.545
 9955W        W76738  43.593  43.051  12.605
 9956W        W76739  25.139   1.346   0.249
 9957W        W76740  19.263  22.601   1.916
 9958W        W76741  43.157  17.504  14.444
 9959W        W76742  31.872  22.663  12.947
 9960W        W76743  22.134  21.845   2.668
 9961W        W76744  18.241  13.710   3.738
 9962W        W76745  11.550   7.240  12.474
 9963W        W76746  32.601  22.408  10.755
 9964W        W76747  15.242  16.815   1.935
 9965W        W76748   6.632   7.888   0.258
 9966W        W76749  24.752  24.880  10.254
 9967W        W76750   9.612   6.397  12.021
 9968W        W76751  28.550  15.011   0.857
 9969W        W76752  17.187   8.442   0.362
 9970W        W76753  37.103  41.352  12.897
 9971W        W76754  18.801  28.693   4.064
 9972W        W76755  34.592  43.755   4.669
 9973W        W76756   9.442  21.721   2.333
 9974W        W76757  16.613  28.571  14.513
 9975W        W76758  21.065  13.282   2.382
 9976W        W76759  37.534  33.425  10.098
 9977W        W76760  30.687  41.150  14.120
 9978W        W76761  24.135   0.324   4.485
 9979W        W76762  23.582  28.017  11.541
 9980W        W76763  34.294  28.089   0.146
 9981W        W76764  17.566  30.708   3.630
 9982W        W76765  34.117  23.501   1.824
 9983W        W76766  33.947   4.712  10.814
 9984W        W76767  13.451  33.275  11.834
 9985W        W76768  12.901  24.971  14.734
 9986W        W76769  15.156  33.554   0.411
 9987W        W76770  20.819  21.296   1.482
 9988W        W76771  10.391  16.173   4.993
 9989W        W76772   3.494  17.085  12.036
 9990W        W76773  30.671  35.983  11.141
 9991W        W76774  38.492   0.856   3.064
 9992W        W76775  30.277   8.173  13.291
 9993W        W76776   1.774  11.002   0.920
 9994W        W76777  38.500  36.109   1.283
 9995W        W76778  44.758   3.800  14.506
 9996W        W76779  17.096  10.909  13.537
 9997W        W76780  22.502  26.912   0.267
 9998W        W76781  29.315  17.970   1.108
 9999W        W76782  39.326   6.976  12.651
10000W        W76783  10.657  24.039  13.694
10001W        W76784   4.076  30.198  10.789
10002W        W76785  24.390  35.899  12.418
10003W        W76786  40.272   0.342  12.379
10004W        W76787  19.476  33.772  14.795
10005W        W76788  34.063   0.460   4.038
10006W        W76789  14.816  35.342   5.334
10007W        W76790  36.484  14.416  11.537
10008W        W76791  44.366  25.935   0.380
10009W        W76792   0.312  24.044   2.402
10010W        W76793  22.483  16.105   1.865
10011W        W76794  36.324  18.214   2.748
10012W        W76795  12.710  11.463  13.290
10013W        W76796  18.856  26.214   2.226
10014W        W76797  38.809   3.913   4.044
10015W        W76798  18.542  42.971  13.768
10016W        W76799  30.531  16.418  11.658
10017W        W76800  17.785  13.215   2.353
10018W        W76801  15.798   0.073  11.321
10019W        W76802  27.432   4.477   2.164
10020W        W76803  31.566  29.603   4.506
10021W        W76804  12.821  29.178   0.760
10022W        W76805   2.746  15.095   2.343
10023W        W76806  17.328   7.934   0.436
10024W        W76807  18.549  30.914   3.663
10025W        W76808  36.960  41.460  14.439
10026W        W76809  20.930  30.178  11.508
10027W        W76810  20.615  29.440  12.517
10028W        W76811  34.126  40.888   0.191
10029W        W76812  11.645   1.841  14.745
10030W        W76813  27.948   0.317  13.420
10031W        W76814  27.911   5.169   0.563
10032W        W76815  35.817  12.220  13.060
10033W        W76816  28.559  39.924   3.178
10034W        W76817  15.460  44.376  11.935
10035W        W76818  34.356  12.877   4.276
10036W        W76819  35.209   1.972  12.040
10037W        W76820   2.734  27.097  10.627
10038W        W76821  14.323  30.103  14.977
10039W        W76822  32.491  16.279  13.571
10040W        W76823  31.573  15.775   4.773
10041W        W76824   3.508  27.806  14.329
10042W        W76825  16.656  11.205   1.361
10043W        W76826  22.100  25.500  13.141
10044W        W76827   2.573  13.883  12.502
10045W        W76828  15.261  43.554   2.589
10046W        W76829  16.791  26.750  10.216
10047W        W76830  10.300  13.124   0.544
10048W        W76831  15.748  37.945  13.176
10049W        W76832  26.743  39.116  14.830
10050W        W76833  29.338  37.523  13.479
10051W        W76834   6.306   5.295  11.358
10052W        W76835  30.477  40.901  12.116
10053W        W76836   8.006   5.370   2.809
10054W        W76837  22.204   1.815   0.675
10055W        W76838  43.129   3.582   3.873
10056W        W76839  10.895  36.038   0.742
10057W        W76840  16.510   4.274  12.427
10058W        W76841  42.588  18.775  14.937
10059W        W76842  28.521  20.974   0.052
10060W        W76843  42.069   9.707   2.176
10061W        W76844  31.403  17.306   2.818
10062W        W76845  19.333  32.871  13.407
10063W        W76846   0.446  25.498   3.796
10064W        W76847  40.093  26.701  14.839
10065W        W76848  35.165   3.466   4.666
10066W        W76849  10.655  36.760   3.594
10067W        W76850   4.445  38.953   1.939
10068W        W76851   0.392  18.159  13.422
10069W        W76852  26.522  25.608  12.143
10070W        W76853  13.752  33.113  14.409
10071W        W76854  21.523  25.882  10.615
10072W        W76855  38.487  15.926  14.958
10073W        W76856   0.673  28.133   2.067
10074W        W76857  43.943  27.624   1.777
10075W        W76858  31.798   8.977   0.337
10076W        W76859   3.962  15.662   0.724
10077W        W76860  40.665  25.714  13.085
10078W        W76861  19.060   1.929   3.857
10079W        W76862   0.446  32.128  11.609
10080W        W76863  25.548  18.204  12.732
10081W        W76864  17.179  11.738   2.580
10082W        W76865  31.042  35.345   4.045
10083W        W76866   8.315  22.722  13.813
10084W        W76867  22.594  33.785  13.755
10085W        W76868  16.911   8.790   2.228
10086W        W76869   3.998  13.772  13.648
10087W        W76870  23.994  41.217   1.763
10088W        W76871   5.610  23.777  14.992
10089W        W76872  17.303  14.066  14.799
10090W        W76873  38.938  28.054  14.553
10091W        W76874  20.797  27.702  14.212
10092W        W76875  40.431   2.767   4.280
10093W        W76876   8.917   7.432   3.231
10094W        W76877  16.600  32.533   2.285
10095W        W76878  12.801  37.057   1.455
10096W        W76879   4.388  27.888  13.373
10097W        W76880  28.713  34.986   3.233
10098W        W76881   2.574   8.332   1.159
10099W        W76882  37.327  44.313   5.037
10100W        W76883  31.114  38.454   4.095
10101W        W76884  38.272  26.193  12.059
10102W        W76885  26.936  28.416  13.212
10103W        W76886  13.624   5.539   4.999
10104W        W76887  15.782  42.892  12.636
10105W        W76888  14.897  10.170  13.471
10106W        W76889  14.152  20.815   1.474
10107W        W76890  21.173  31.607  10.611
10108W        W76891   8.713   2.264  12.202
10109W        W76892  19.941  23.012   2.059
10110W        W76893   9.893   9.332   3.765
10111W        W76894  44.190   2.911  13.833
10112W        W76895  20.572  13.227  10.667
10113W        W76896  14.669  39.519   1.749
10114W        W76897  13.194  42.130   2.921
10115W        W76898  38.110  31.860   0.843
10116W        W76899   6.953  25.877   3.699
10117W        W76900  19.460  35.120  13.487
10118W        W76901  18.036  15.565   1.634
10119W        W76902  12.490   3.309  11.187
10120W        W76903  35.881  27.448  12.072
10121W        W76904   1.242  29.636   4.586
10122W        W76905  34.322  27.616  10.358
10123W        W76906  38.809  29.013   0.258
10124W        W76907   3.853  36.562  11.089
10125W        W76908  33.804  26.682  10.911
10126W        W76909  27.454   6.669  11.093
10127W        W76910  34.560  37.126   4.608
10128W        W76911  43.496   0.035   3.260
10129W        W76912  30.718   4.236   2.794
10130W        W76913  22.666  40.386  10.917
10131W        W76914  28.063  31.042   3.849
10132W        W76915  22.620   4.265  14.425
10133W        W76916   0.326  40.198  13.499
10134W        W76917  16.730   1.456   0.205
10135W        W76918  20.242  28.248   4.022
10136W        W76919  36.914  10.461  10.107
10137W        W76920  30.518  23.322   3.408
10138W        W76921  10.118  36.146   2.241
10139W        W76922  38.721  39.860   4.660
10140W        W76923  44.930  38.594  12.161
10141W        W76924  32.347  43.979   4.582
10142W        W76925  27.137  21.246   4.467
10143W        W76926  15.384   1.331  12.105
10144W        W76927  18.507  14.310  11.958
10145W        W76928  20.498  33.494   2.478
10146W        W76929  29.464  12.676   0.280
10147W        W76930  23.534  31.013  11.510
10148W        W76931  20.632  41.891  10.738
10149W        W76932  43.487   6.673   4.939
10150W        W76933  39.201  22.980   0.273
10151W        W76934  37.856  41.346   2.167
10152W        W76935  13.071  38.892  11.145
10153W        W76936  15.084  29.153   3.555
10154W        W76937  13.079  43.372   0.367
10155W        W76938  43.582   0.844   2.669
10156W        W76939  11.837  27.057   0.699
10157W        W76940  21.343   6.284  13.908
10158W        W76941  40.079  13.726  13.924
10159W        W76942  19.703  29.741   2.379
10160W        W76943  26.447  37.300  11.668
10161W        W76944  39.049   8.404   0.809
10162W        W76945   0.774  13.769  12.865
10163W        W76946   5.789  37.126  13.918
10164W        W76947  12.653  43.101   1.863
10165W        W76948  12.817  17.536  11.114
10166W        W76949  24.000   3.476   0.207
10167W        W76950   5.957  23.506  12.049
10168W        W76951  29.526  16.966   1.167
10169W        W76952  44.456  16.526  13.993
10170W        W76953   7.350  13.606  12.003
10171W        W76954   0.853  21.298  10.749
10172W        W76955   7.147   5.778   4.430
10173W        W76956  14.053  14.295   3.631
10174W        W76957  19.942  21.699   1.274
10175W        W76958   1.659   0.521  13.447
10176W        W76959  37.913  27.672  13.822
10177W        W76960  39.337  29.073   2.920
10178W        W76961  44.997  21.262   3.336
10179W        W76962  15.222  28.563  11.222
10180W        W76963  36.199  18.619   4.294
10181W        W76964   7.786   9.449   5.605
10182W        W76965  36.978   2.262  12.864
10183W        W76966  27.406  24.627   1.192
10184W        W76967  16.830  16.750  11.590
10185W        W76968   5.495   8.184  12.247
10186W        W76969   2.785  13.103  11.920
10187W        W76970  36.883  26.106   3.365
10188W        W76971  27.955  11.163  14.460
10189W        W76972   6.170  11.298  10.835
10190W        W76973  26.482  44.808   0.293
10191W        W76974  32.414   8.056   3.171
10192W        W76975  21.750  10.448  12.045
10193W        W76976  16.338   0.861   0.802
10194W        W76977  12.791   3.414  13.913
10195W        W76978   9.866  34.083   1.416
10196W        W76979  36.445  17.248   2.260
10197W        W76980  15.575  19.700  13.015
10198W        W76981  17.711  22.467  14.997
10199W        W76982  10.400  34.540   2.151
10200W        W76983  15.043  32.356   1.403
10201W        W76984  14.651   9.703   3.256
10202W        W76985  23.354  10.075  14.404
10203W        W76986  28.153  10.240  14.929
10204W        W76987  32.436  27.421  13.392
10205W        W76988  31.932   8.402  10.308
10206W        W76989  27.829  43.919  13.291
10207W        W76990  15.060  25.612  12.894
10208W        W76991  21.816  10.589  14.993
10209W        W76992   0.213  29.304   3.791
10210W        W76993  12.514  23.548   3.252
10211W        W76994   8.217  36.625   4.100
10212W        W76995  18.191   8.775   1.438
10213W        W76996  21.713  20.146   0.800
10214W        W76997  43.083  37.178   4.879
10215W        W76998  35.807  36.261  11.967
10216W        W76999  21.070   1.408  11.462
10217W        W77000   6.748  44.303  12.097
10218W        W77001  10.695  21.115  14.084
10219W        W77002  20.828  28.967  12.615
10220W        W77003  27.597  32.562   0.309
10221W        W77004  29.643  20.673   4.561
10222W        W77005  25.708   6.466  11.070
10223W        W77006  11.178  17.963  13.028
10224W        W77007  38.868   1.512  10.392
10225W        W77008  18.019   7.780  12.984
10226W        W77009  35.076  39.413   0.231
10227W        W77010  15.353  13.637   1.825
10228W        W77011  18.242  17.634  13.428
10229W        W77012  31.363  12.100   4.401
10230W        W77013   4.280  16.035  12.606
10231W        W77014  21.580  14.520   9.668
10232W        W77015  40.332  40.320   3.629
10233W        W77016  18.563  24.249   2.585
10234W        W77017  23.523   8.270   4.920
10235W        W77018  10.166  31.388   4.282
10236W        W77019  19.558  23.882  13.894
10237W        W77020   5.610  17.613   0.263
10238W        W77021  29.940   6.703  10.748
10239W        W77022  44.410  23.666  11.289
10240W        W77023  23.299  37.364  13.021
10241W        W77024  15.876  21.976   1.212
10242W        W77025  39.438  10.937  14.927
10243W        W77026  30.200  19.893  14.815
10244W        W77027   6.506  30.512   4.256
10245W        W77028  31.544  31.631   4.377
10246W        W77029  19.914  37.821   2.848
10247W        W77030  10.390  35.318  13.052
10248W        W77031  19.563  21.250  14.365
10249W        W77032   5.980  29.434  13.767
10250W        W77033   5.201  39.433  14.395
10251W        W77034  34.132  42.345  13.844
10252W        W77035  31.391   7.646   0.556
10253W        W77036   4.943   6.637  13.915
10254W        W77037  25.355  43.740  14.472
10255W        W77038  38.553   5.102   0.220
10256W        W77039  12.314  38.451  13.968
10257W        W77040  34.530  28.951   2.306
10258W        W77041  29.394  42.895  14.610
10259W        W77042  26.091  20.416  13.966
10260W        W77043  19.353  13.249  13.945
10261W        W77044  35.022  29.594  14.720
10262W        W77045  38.583  15.061   2.236
10263W        W77046   5.363  27.060  12.044
10264W        W77047   7.424  17.361  11.191
10265W        W77048  26.862  44.699  13.120
10266W        W77049  39.553  20.663  11.577
10267W        W77050  13.391  11.174   4.327
10268W        W77051  22.987  12.883  11.995
10269W        W77052  22.260   6.945  12.885
10270W        W77053  26.188  24.133   1.766
10271W        W77054   4.715  21.550   4.330
10272W        W77055  17.175  37.831   4.622
10273W        W77056   8.753  11.021   4.689
10274W        W77057  30.075   7.103  14.316
10275W        W77058  43.398  22.187  13.056
10276W        W77059  30.907   9.247   2.203
10277W        W77060  14.656  44.031  10.505
10278W        W77061  44.770  26.019   4.221
10279W        W77062  26.856  19.094   2.411
10280W        W77063  33.095  42.915  11.217
10281W        W77064   3.890   1.760  13.006
10282W        W77065  11.115  32.062  12.600
10283W        W77066  30.309   5.419   1.254
10284W        W77067   6.076   6.940   2.353
10285W        W77068  17.839  31.548   2.407
10286W        W77069  38.655   3.292   2.317
10287W        W77070  44.765  24.725   3.140
10288W        W77071  12.108  28.372  14.880
10289W        W77072   4.626  25.403   4.675
10290W        W77073  33.734  22.617   2.158
10291W        W77074  10.925  13.530   4.480
10292W        W77075   6.705  35.844  11.034
10293W        W77076  39.947  35.155  12.881
10294W        W77077  17.233   4.530   4.564
10295W        W77078  33.549  35.171  13.965
10296W        W77079  31.727   4.232   2.567
10297W        W77080  14.874  20.059   2.895
10298W        W77081  15.844  43.828   3.799
10299W        W77082   5.204  26.599  12.387
10300W        W77083  15.804  24.534  12.671
10301W        W77084  18.215  38.783   1.448
10302W        W77085  42.291  10.608  11.645
10303W        W77086  41.534  14.649   1.413
10304W        W77087  22.376   2.568  12.528
10305W        W77088   4.270  28.778   0.836
10306W        W77089  16.537  11.688  14.840
10307W        W77090  29.535   2.120   4.084
10308W        W77091   3.355  32.914   1.193
10309W        W77092  36.308  28.207  13.082
10310W        W77093   2.374  28.980   3.805
10311W        W77094  32.990   2.553   1.458
10312W        W77095  10.692   8.809  12.359
10313W        W77096  15.152  20.142   3.313
10314W        W77097   6.384   7.400  12.921
10315W        W77098  23.213   2.656  14.020
10316W        W77099   5.073  42.870  13.323
10317W        W77100  25.698  22.826   0.886
10318W        W77101   3.802  16.797   4.741
10319W        W77102   6.224  44.694  14.600
10320W        W77103  16.073  20.018  12.139
10321W        W77104   0.241  41.376   2.737
10322W        W77105  17.102  26.986  10.589
10323W        W77106   5.336  13.238   0.257
10324W        W77107  13.743  19.540   2.615
10325W        W77108  14.311  12.504   4.822
10326W        W77109  10.922  27.026   2.742
10327W        W77110   2.253  15.188  14.332
10328W        W77111  23.598  14.623   0.923
10329W        W77112   2.884   3.463   1.438
10330W        W77113  16.789  16.029   1.727
10331W        W77114  41.181  32.796  10.749
10332W        W77115  28.472  16.135  11.619
10333W        W77116   9.388  23.477   1.831
10334W        W77117  42.282  42.746  12.002
10335W        W77118  26.524  36.758  11.510
10336W        W77119  36.342  37.405   2.831
10337W        W77120  28.153  36.318  13.885
10338W        W77121  30.400  24.715   1.057
10339W        W77122   9.686  30.089   3.741
10340W        W77123  34.718  40.273   1.775
10341W        W77124  37.951   5.926   2.918
10342W        W77125  30.915   4.675   4.175
10343W        W77126  39.665   0.778  10.360
10344W        W77127   4.796  31.946   4.167
10345W        W77128  16.781  44.469  13.932
10346W        W77129  30.661   7.895  12.016
10347W        W77130  41.979   7.773   0.226
10348W        W77131  14.213  14.530  12.562
10349W        W77132   0.229  16.837  11.833
10350W        W77133   2.473   4.346   3.175
10351W        W77134  23.552  16.164  14.240
10352W        W77135  11.782  39.935  11.781
10353W        W77136  36.023  27.423   3.250
10354W        W77137  29.452  40.391   4.556
10355W        W77138  42.970  42.409  13.837
10356W        W77139   0.061  17.069   1.237
10357W        W77140   1.907  33.614  12.636
10358W        W77141  24.258  35.144   3.716
10359W        W77142  21.573   6.292   2.278
10360W        W77143  10.059  17.081   2.254
10361W        W77144  22.509  13.223   3.520
10362W        W77145   7.528   8.566   5.094
10363W        W77146  35.928  34.648  14.089
10364W        W77147  29.643  41.725  12.992
10365W        W77148  10.856   7.633  11.939
10366W        W77149  38.840   0.466   3.410
10367W        W77150  16.757  43.276  10.703
10368W        W77151  43.933  28.998   2.158
10369W        W77152  15.203  31.808   0.498
10370W        W77153  15.615  32.515  12.045
10371W        W77154  41.527   3.241   3.409
10372W        W77155  33.835   2.898  14.011
10373W        W77156  33.400   9.774  13.890
10374W        W77157  13.839  19.587   1.796
10375W        W77158  10.688   5.448   4.542
10376W        W77159  44.971  12.664   4.566
10377W        W77160   4.561  36.892   4.519
10378W        W77161  25.714   2.853  12.630
10379W        W77162   4.492  31.227  14.157
10380W        W77163   8.936  14.849   3.703
10381W        W77164  25.115  25.611  12.413
10382W        W77165   9.197   0.266  11.388
10383W        W77166  22.526  44.496  12.330
10384W        W77167  18.378  17.660  14.319
10385W        W77168  10.347  18.146  13.137
10386W        W77169   3.883  29.210  11.513
10387W        W77170  15.213   9.704  13.498
10388W        W77171  33.445   1.564   0.960
10389W        W77172  40.360  30.936   0.643
10390W        W77173  10.325  32.426  14.448
10391W        W77174  22.213   0.759  12.395
10392W        W77175  41.410  37.390  13.351
10393W        W77176  16.755  21.586  13.887
10394W        W77177  20.159  12.271   2.801
10395W        W77178  11.953  42.937   0.703
10396W        W77179  32.147  42.678  12.212
10397W        W77180  14.847  30.194  14.810
10398W        W77181  37.613  15.107  12.235
10399W        W77182  43.576   6.896   2.392
10400W        W77183  39.202  42.339   2.796
10401W        W77184  14.694   3.269  14.511
10402W        W77185  18.769  26.425  12.656
10403W        W77186  10.415   3.818   0.969
10404W        W77187  12.504  30.760   1.612
10405W        W77188  33.613  17.967  12.418
10406W        W77189  42.909  15.550  10.735
10407W        W77190  20.677  31.718  13.961
10408W        W77191  28.974  10.852   0.298
10409W        W77192  23.136  21.801  12.493
10410W        W77193   9.882  32.404  12.369
10411W        W77194  16.221  12.842   3.341
10412W        W77195  37.533  14.823  13.567
10413W        W77196  16.314  33.962  12.524
10414W        W77197  31.891   1.366  12.081
10415W        W77198  23.452   9.844  12.484
10416W        W77199   6.777  42.762  11.952
10417W        W77200  19.291   8.402  12.849
10418W        W77201  11.724  34.551   4.117
10419W        W77202  31.057  44.324  10.340
10420W        W77203  19.865  21.173   1.291
10421W        W77204   3.321   4.477  11.220
10422W        W77205   4.742  26.394   3.739
10423W        W77206  40.440   2.754   2.684
10424W        W77207  44.427   4.952   2.733
10425W        W77208  27.086   0.260   0.858
10426W        W77209  29.646   2.847   0.235
10427W        W77210   4.632  30.843   3.095
10428W        W77211  36.083   9.918  14.882
10429W        W77212  32.505  29.590   4.570
10430W        W77213  32.523  11.117   4.907
10431W        W77214  37.576  25.615  10.699
10432W        W77215  30.359  14.777  12.443
10433W        W77216  34.330   7.346  13.415
10434W        W77217  36.987  41.394   4.092
10435W        W77218  43.832  13.289  14.884
10436W        W77219  34.013  39.271  14.032
10437W        W77220   0.146   2.655   3.320
10438W        W77221  38.531  17.638   2.957
10439W        W77222  36.340  10.287  11.888
10440W        W77223   5.868  42.070   4.568
10441W        W77224  27.462  24.777  12.802
10442W        W77225  43.373  35.528   4.417
10443W        W77226  42.405   8.092   3.183
10444W        W77227  27.862   2.036   2.813
10445W        W77228  20.956  31.696  14.925
10446W        W77229  42.593  41.860  11.555
10447W        W77230  18.784  37.857  11.697
10448W        W77231  29.828  36.958   3.976
10449W        W77232  35.309  17.237   2.710
10450W        W77233  27.147  38.412  12.966
10451W        W77234  18.873   8.306  11.052
10452W        W77235   1.697  31.549  14.105
10453W        W77236   8.648  43.388  11.669
10454W        W77237  11.736  38.842   3.145
10455W        W77238   8.370  37.515   0.439
10456W        W77239   3.912  11.863  12.830
10457W        W77240   5.875   7.465  12.154
10458W        W77241  35.549  32.970  12.513
10459W        W77242   7.767  26.098  13.979
10460W        W77243  15.599  14.974  12.440
10461W        W77244  13.683   7.401  11.795
10462W        W77245   4.879   6.303  10.846
10463W        W77246  12.773   6.807   4.577
10464W        W77247  39.648  21.490  14.488
10465W        W77248   6.966  40.988  13.170
10466W        W77249  26.884   2.456   2.780
10467W        W77250   5.965  30.704   2.029
10468W        W77251  34.960  18.296   4.561
10469W        W77252  42.931   1.206   3.206
10470W        W77253  42.703  26.950  14.127
10471W        W77254  14.262  30.869  12.388
10472W        W77255  33.503  34.220   1.103
10473W        W77256  32.259  40.160  12.865
10474W        W77257  18.493  21.068   4.795
10475W        W77258  29.696  29.267   4.903
10476W        W77259  17.360  26.228  13.860
10477W        W77260  25.717   9.227   4.236
10478W        W77261   6.968  27.406  11.972
10479W        W77262  33.409  17.744  13.762
10480W        W77263  31.340  16.796  14.892
10481W        W77264  42.488  25.470   2.104
10482W        W77265  14.950  40.065  14.315
10483W        W77266  30.580  24.082   0.243
10484W        W77267   5.238  39.446  11.548
10485W        W77268  36.586   8.558  13.371
10486W        W77269   3.717  23.762   1.273
10487W        W77270  30.705  31.503   1.166
10488W        W77271  21.183   8.370  12.529
10489W        W77272  10.742  26.506   2.814
10490W        W77273  26.380  40.975   2.339
10491W        W77274  32.436  22.332   0.601
10492W        W77275  21.384  43.017   4.696
10493W        W77276  33.431  11.234   0.067
10494W        W77277   3.880   2.629   4.577
10495W        W77278  26.053  44.730  10.559
10496W        W77279  38.104  17.080  11.112
10497W        W77280  28.772  16.793   1.662
10498W        W77281  19.173  30.374   3.241
10499W        W77282   3.252  24.458   1.316
10500W        W77283  35.298  19.003   2.370
10501W        W77284  26.860   1.560   0.083
10502W        W77285  12.028  19.484  13.392
10503W        W77286  34.877   9.751  11.558
10504W        W77287  40.263  29.938  13.314
10505W        W77288   0.988   4.661   0.951
10506W        W77289  26.582  16.062  11.004
10507W        W77290  14.222  23.121   1.579
10508W        W77291  25.800  10.100  12.564
10509W        W77292  43.116  14.967   0.500
10510W        W77293  37.490  27.143  13.286
10511W        W77294   7.874  20.209  12.025
10512W        W77295  16.771  36.377  10.982
10513W        W77296  37.786  16.806  13.948
10514W        W77297  22.228  10.161  13.292
10515W        W77298  32.699  30.955   2.504
10516W        W77299  11.613  19.309   1.949
10517W        W77300  33.574  33.976  12.263
10518W        W77301  19.560  10.720   1.773
10519W        W77302  17.586  41.044  10.628
10520W        W77303  16.343  36.902   2.688
10521W        W77304   9.344   0.750   2.871
10522W        W77305   8.277  43.547  12.206
10523W        W77306  42.071  25.371  11.946
10524W        W77307   8.376  44.452  11.700
10525W        W77308  21.549  40.322   0.052
10526W        W77309   0.338  38.520  11.829
10527W        W77310  37.804  44.994  13.903
10528W        W77311  27.207  40.967   2.741
10529W        W77312  39.421  29.649   0.850
10530W        W77313  19.815  33.008  14.531
10531W        W77314  20.562  23.961   4.927
10532W        W77315   6.777   1.819   0.190
10533W        W77316  22.720  36.369  12.573
10534W        W77317  13.486  35.070   4.476
10535W        W77318   2.795  35.437   0.487
10536W        W77319   7.217  16.618   4.549
10537W        W77320  38.430   6.887   1.846
10538W        W77321  10.802  34.946   3.381
10539W        W77322  39.131  38.459   4.030
10540W        W77323  16.030  17.586   2.782
10541W        W77324  22.773  19.147   0.728
10542W        W77325   6.300   8.773  10.553
10543W        W77326  44.987  19.875  14.382
10544W        W77327  22.430   2.301  14.949
10545W        W77328  34.128  20.693   1.705
10546W        W77329  34.189  19.623  12.566
10547W        W77330   7.890  39.237  14.131
10548W        W77331  38.517   7.652  14.206
10549W        W77332  36.982   3.674   3.708
10550W        W77333  25.211  44.178   1.272
10551W        W77334   3.163  12.767   3.776
10552W        W77335  28.184  38.075  11.302
10553W        W77336   7.401   0.358   4.926
10554W        W77337  28.688   6.904  12.081
10555W        W77338  44.367   7.235  14.813
10556W        W77339  14.335  34.504   5.008
10557W        W77340  43.919  24.877   2.227
10558W        W77341  13.351  31.447  11.617
10559W        W77342  37.915  27.676  13.249
10560W        W77343  42.798  33.830   2.178
10561W        W77344   1.418  10.108  11.981
10562W        W77345  34.024  29.734   4.814
10563W        W77346  15.366  16.247  11.042
10564W        W77347   9.806  20.875   1.882
10565W        W77348   6.631  19.100  11.714
10566W        W77349   4.211  17.965  14.404
10567W        W77350  15.983   4.290  12.455
10568W        W77351  44.951  21.168   4.292
10569W        W77352  40.483  13.136   9.812
10570W        W77353  15.315  29.390  11.224
10571W        W77354  11.385  17.661  11.742
10572W        W77355  27.060  36.627  11.601
10573W        W77356  12.106  41.903  14.088
10574W        W77357  22.080  38.883  13.423
10575W        W77358   5.734   7.136  11.201
10576W        W77359  34.887  41.203   4.166
10577W        W77360  12.422  40.894   0.353
10578W        W77361  29.393   0.753   1.747
10579W        W77362  19.535  28.387  14.991
10580W        W77363  16.178  15.145  11.978
10581W        W77364  19.034  41.100  10.678
10582W        W77365  32.294  36.031   5.022
10583W        W77366  19.003  30.239  11.738
10584W        W77367  21.724  17.163   4.917
10585W        W77368  34.353  23.271  14.547
10586W        W77369  23.689  24.550  14.438
10587W        W77370  29.529  10.189  13.095
10588W        W77371   3.472  29.155   1.710
10589W        W77372   4.877   0.034   3.163
10590W        W77373  34.053   5.116   4.200
10591W        W77374   1.868  35.297  11.679
10592W        W77375  10.753  21.487   4.580
10593W        W77376  43.909  29.384   1.206
10594W        W77377  37.044  22.343   0.248
10595W        W77378  34.882  16.598   1.146
10596W        W77379   8.897  20.084  12.065
10597W        W77380  17.871  21.044   1.451
10598W        W77381  35.393  13.676  13.874
10599W        W77382  22.767  31.053  11.214
10600W        W77383  36.334  24.824   3.926
10601W        W77384   5.858  39.697   4.045
10602W        W77385  42.336  33.958   3.337
10603W        W77386  31.183  26.491  10.813
10604W        W77387  24.263   2.951  13.907
10605W        W77388   3.911  23.054  10.391
10606W        W77389  10.221  31.527   0.296
10607W        W77390   3.471  32.991   2.571
10608W        W77391   7.493  28.000   2.314
10609W        W77392  33.115  35.409  10.739
10610W        W77393  21.062  22.157  13.324
10611W        W77394  20.547  20.764  12.909
10612W        W77395   0.236  19.108  13.047
10613W        W77396   0.537  32.049  12.659
10614W        W77397  29.943  27.642   4.189
10615W        W77398  20.324  17.802   1.957
10616W        W77399  28.432   2.721  13.907
10617W        W77400  40.019  39.768   0.739
10618W        W77401  25.687   3.615   1.904
10619W        W77402   0.945  26.036  11.017
10620W        W77403  27.207  43.260  14.860
10621W        W77404   8.837  19.164   2.922
10622W        W77405   0.438  30.338  11.103
10623W        W77406   0.874   4.224  13.345
10624W        W77407  20.843  10.441  12.989
10625W        W77408  34.293  27.725   4.257
10626W        W77409  22.300  44.686   1.949
10627W        W77410   4.209  33.808  13.845
10628W        W77411   8.981   0.173   1.443
10629W        W77412  22.664   6.094  12.178
10630W        W77413   5.885  19.274   2.684
10631W        W77414   7.009  35.450  13.931
10632W        W77415  20.095  14.827   3.452
10633W        W77416  19.271  20.820  14.481
10634W        W77417  20.476  41.825   2.263
10635W        W77418  15.385  23.480  13.440
10636W        W77419  33.817  38.260  13.908
10637W        W77420  20.127  43.418  11.464
10638W        W77421  28.358  13.419  14.444
10639W        W77422  14.657  43.517  10.548
10640W        W77423  11.131  19.062  12.417
10641W        W77424   8.097  20.521  14.500
10642W        W77425  39.228  30.119   3.313
10643W        W77426  11.965  19.287   1.530
10644W        W77427  37.420   1.033  12.401
10645W        W77428  13.054   3.454  10.348
10646W        W77429  19.129  32.960  12.432
10647W        W77430  30.697  14.046  12.945
10648W        W77431  23.127  36.903   1.811
10649W        W77432  10.141  22.244   3.695
10650W        W77433  33.741  20.827   0.806
10651W        W77434  17.317   0.194  14.701
10652W        W77435  42.858  29.330   1.751
10653W        W77436   0.778  39.530   3.222
10654W        W77437   7.905  23.568   1.404
10655W        W77438   9.581  17.100  11.496
10656W        W77439   5.189  20.017  11.170
10657W        W77440  20.739  40.288  12.432
10658W        W77441  26.230   7.593  12.944
10659W        W77442  17.834  44.063  14.315
10660W        W77443   0.481  40.477   4.887
10661W        W77444   8.948   0.331   1.950
10662W        W77445  13.185  29.740  11.565
10663W        W77446  34.897  38.835   4.532
10664W        W77447   7.310  33.268  10.847
10665W        W77448   2.771  18.472  14.374
10666W        W77449  15.031   3.441   9.968
10667W        W77450  16.373   9.946  11.448
10668W        W77451   8.373  13.359  11.139
10669W        W77452   9.124   1.439  13.979
10670W        W77453   2.897   8.743   2.835
10671W        W77454  30.979   8.748  11.658
10672W        W77455   2.387  17.188   2.447
10673W        W77456   1.440  38.433  13.840
10674W        W77457   4.394  19.324   3.062
10675W        W77458  26.029   8.330  10.650
10676W        W77459  30.069   8.396   1.295
10677W        W77460   4.719  29.111  12.028
10678W        W77461  27.586  35.895   3.125
10679W        W77462  17.861  11.954   3.642
10680W        W77463  34.613  14.149   2.788
10681W        W77464  14.989  21.465  10.926
10682W        W77465  39.539   0.093   0.749
10683W        W77466  23.929  25.275   3.902
10684W        W77467  25.149  26.549   4.036
10685W        W77468   1.889  33.350   3.270
10686W        W77469   3.067   2.960  14.283
10687W        W77470  12.582  21.294   1.436
10688W        W77471   8.070  40.952  12.063
10689W        W77472   5.247  10.158  13.003
10690W        W77473  22.008   1.128  13.427
10691W        W77474  40.809  30.036   0.301
10692W        W77475  41.180  10.135  11.117
10693W        W77476  20.508  29.678  11.066
10694W        W77477  37.715  31.935  14.992
10695W        W77478  18.422  14.021   4.558
10696W        W77479  30.383  22.482   3.741
10697W        W77480   6.373  31.109   0.847
10698W        W77481  44.808  27.546   4.368
10699W        W77482  17.213   1.413   2.327
10700W        W77483  26.672  30.878  14.802
10701W        W77484  36.126  42.318   3.614
10702W        W77485  10.536  13.128   0.074
10703W        W77486  44.446  39.357  10.520
10704W        W77487  14.427   3.985  13.834
10705W        W77488  28.918  16.990  10.691
10706W        W77489   1.511   6.341   2.861
10707W        W77490   8.273  36.584  10.732
10708W        W77491  11.592  18.312  11.792
10709W        W77492  35.757  15.517  13.515
10710W        W77493  30.242  41.009   2.717
10711W        W77494  31.339  23.193  11.609
10712W        W77495   8.302   9.369  14.108
10713W        W77496  19.200  27.542  10.749
10714W        W77497   4.650  27.369   4.029
10715W        W77498   5.837  32.052  10.206
10716W        W77499  25.071   1.003  13.107
10717W        W77500   2.728   1.392   2.127
10718W        W77501  36.096  37.856   0.428
10719W        W77502   0.253  23.410  14.771
10720W        W77503  21.045   6.876   3.260
10721W        W77504  19.675   7.732   1.258
10722W        W77505  36.865  37.468   1.875
10723W        W77506   2.499  33.556   0.232
10724W        W77507  29.969  19.209   0.444
10725W        W77508  14.313  34.715   4.516
10726W        W77509  17.798  29.080  13.518
10727W        W77510   0.855  23.122  13.047
10728W        W77511  30.318  38.913   4.137
10729W        W77512  19.546  18.319   2.443
10730W        W77513  12.297  15.505   2.893
10731W        W77514  41.303  27.253   1.607
10732W        W77515   1.905  24.771   2.956
10733W        W77516  15.205  10.358   0.376
10734W        W77517  23.962   4.448   3.212
10735W        W77518  40.042   9.656   4.162
10736W        W77519  14.094  17.209  11.601
10737W        W77520  38.327  36.499   3.695
10738W        W77521   1.029  29.950  14.799
10739W        W77522  13.896   8.293  12.287
10740W        W77523  20.875   5.346  11.858
10741W        W77524  15.156  31.353   1.454
10742W        W77525  23.099  29.001  13.426
10743W        W77526  32.591  17.692  14.400
10744W        W77527  24.099  30.651   2.173
10745W        W77528  28.367   9.818   3.196
10746W        W77529  27.202  32.613   2.820
10747W        W77530  38.068  21.963   3.335
10748W        W77531   5.630  10.270   2.935
10749W        W77532  33.112   4.123  14.879
10750W        W77533   6.197  30.121   4.391
10751W        W77534  24.295  14.856  14.218
10752W        W77535  35.967  26.411   2.401
10753W        W77536  34.579  36.808  12.099
10754W        W77537  17.204   5.934   3.373
10755W        W77538  30.664  15.819   2.296
10756W        W77539   9.959  25.770   3.258
10757W        W77540  42.113  12.563   5.506
10758W        W77541  40.027  35.028  11.194
10759W        W77542  27.951  36.007   2.342
10760W        W77543  43.030  34.894   4.087
10761W        W77544   8.190  38.904   3.121
10762W        W77545   0.311  31.699   2.392
10763W        W77546  24.062  33.994   3.165
10764W        W77547  22.250  41.866   3.754
10765W        W77548   2.974  12.733  14.945
10766W        W77549  15.584  10.398   3.732
10767W        W77550   7.195  14.468  13.077
10768W        W77551  14.096  27.176   3.311
10769W        W77552   4.111  36.011   1.563
10770W        W77553  35.569  15.029   3.257
10771W        W77554   2.146  29.996  11.305
10772W        W77555  20.166   0.916  11.951
10773W        W77556   0.861  44.391  11.859
10774W        W77557  35.149  34.118  12.057
10775W        W77558  29.854  24.960  14.300
10776W        W77559  39.046  13.169  13.323
10777W        W77560  13.707   7.775   3.277
10778W        W77561  35.980  14.392  12.698
10779W        W77562   9.799  16.062   4.280
10780W        W77563  19.825  44.861  11.160
10781W        W77564  27.226   7.897  11.446
10782W        W77565  18.267  19.712  10.611
10783W        W77566  31.573  33.017  12.251
10784W        W77567   9.832  35.951  13.811
10785W        W77568  42.918  37.011  10.931
10786W        W77569  27.358  43.704  11.057
10787W        W77570   0.524   9.629  12.926
10788W        W77571  43.394  25.577  14.474
10789W        W77572  14.750  30.584   1.178
10790W        W77573   3.761  32.346  14.268
10791W        W77574   8.865  32.585  14.868
10792W        W77575  27.172  44.502  12.424
10793W        W77576   6.247  20.574  12.397
10794W        W77577  22.480  18.540  12.014
10795W        W77578   5.254   9.723  13.295
10796W        W77579  20.201  33.901   4.704
10797W        W77580  24.522   6.639  10.650
10798W        W77581  35.153  28.564   0.314
10799W        W77582  29.186   2.426  13.160
10800W        W77583  17.734  16.549  13.148
10801W        W77584   0.284  13.080  13.424
10802W        W77585  33.875   5.129  11.839
10803W        W77586  37.342  33.307   0.135
10804W        W77587   6.272  12.836   2.089
10805W        W77588  17.217  19.548  13.770
10806W        W77589   1.633  17.345  10.799
10807W        W77590  12.298   8.424   2.265
10808W        W77591  32.603  27.534  11.123
10809W        W77592  31.078   2.000  11.515
10810W        W77593  28.672  43.058   5.244
10811W        W77594  14.311  42.876   0.241
10812W        W77595   4.829  26.172  14.914
10813W        W77596  15.292  29.854   4.276
10814W        W77597   3.745  17.013  14.354
10815W        W77598  19.586  35.840  12.544
10816W        W77599  26.508   0.491  10.721
10817W        W77600  14.914  37.831  13.380
10818W        W77601   0.605  14.386   1.855
10819W        W77602  11.872  32.856   1.593
10820W        W77603   1.699  23.506  13.860
10821W        W77604  41.622  40.526   1.954
10822W        W77605   7.723  25.803  12.984
10823W        W77606  32.995  14.689  12.921
10824W        W77607   3.834  41.105   0.867
10825W        W77608  39.563  20.024  13.455
10826W        W77609  29.555  31.148  12.970
10827W        W77610  28.453  11.765   3.294
10828W        W77611  19.140  38.305  12.955
10829W        W77612  33.895  34.059  10.344
10830W        W77613   6.463  25.700  11.449
10831W        W77614   9.775   2.871   2.815
10832W        W77615  34.359  35.231  10.910
10833W        W77616  42.933  11.508   1.268
10834W        W77617  43.076  17.707  11.671
10835W        W77618  40.831  14.001  13.571
10836W        W77619  22.190  19.551   0.847
10837W        W77620   5.974  36.371   1.207
10838W        W77621   7.980   7.937  11.413
10839W        W77622  40.999  39.541   4.867
10840W        W77623  41.581   1.940  12.973
10841W        W77624  34.875  33.305  13.718
10842W        W77625  11.593  17.192   2.351
10843W        W77626  31.315  20.095   4.144
10844W        W77627  15.008  27.439  11.935
10845W        W77628  34.878  31.815   2.370
10846W        W77629  39.909  43.381  11.683
10847W        W77630  16.501  29.983  12.389
10848W        W77631  27.557  11.737  12.527
10849W        W77632  35.906   4.303  14.292
10850W        W77633  42.167  36.118  11.203
10851W        W77634  21.599  27.491  10.253
10852W        W77635  44.903   4.297   4.033
10853W        W77636  43.958  41.773   3.059
10854W        W77637  10.401  42.700  10.847
10855W        W77638  29.854  22.135  13.887
10856W        W77639  23.034  16.134   2.227
10857W        W77640  34.778  39.795  12.142
10858W        W77641  39.194  12.758  13.838
10859W        W77642  11.081   9.076  10.712
10860W        W77643  19.330   4.881   3.582
10861W        W77644  30.578  41.581  10.276
10862W        W77645  29.722  29.241  11.186
10863W        W77646   2.688   1.408  10.683
10864W        W77647  36.567   2.038   3.727
10865W        W77648  10.206  11.322  13.877
10866W        W77649  17.127  16.291  12.078
10867W        W77650  18.575   1.778  11.426
10868W        W77651  18.134   9.777  12.339
10869W        W77652  13.194   8.204   0.375
10870W        W77653   9.246  22.662  14.995
10871W        W77654  24.892  22.211   3.428
10872W        W77655  36.997   8.983   4.724
10873W        W77656  11.560  20.040  11.092
10874W        W77657   9.478  38.839   3.709
10875W        W77658  24.858  43.738  13.659
10876W        W77659  24.845  22.379   2.407
10877W        W77660  26.063   5.588   9.483
10878W        W77661   7.955  26.158   0.532
10879W        W77662  35.997   6.514  14.324
10880W        W77663  41.561  19.216  12.816
10881W        W77664   7.415  40.823  14.893
10882W        W77665  21.593  24.255  13.072
10883W        W77666  21.694  16.130  14.078
10884W        W77667   4.017   6.717   0.674
10885W        W77668  13.238  21.553  13.845
10886W        W77669  17.093  25.400   0.894
10887W        W77670  42.301   6.218   2.704
10888W        W77671  10.135  33.906  11.535
10889W        W77672  25.122  30.228   4.647
10890W        W77673  41.486   2.105   0.219
10891W        W77674   2.462  28.057  12.155
10892W        W77675  32.554  28.909   2.693
10893W        W77676  21.017  21.837  11.545
10894W        W77677  27.153   0.360   1.398
10895W        W77678  22.618  11.912  13.499
10896W        W77679  16.836  39.667  10.180
10897W        W77680   5.435   1.471   1.211
10898W        W77681   6.926  28.239   3.171
10899W        W77682  15.397   5.197  11.642
10900W        W77683   2.477  20.280  13.031
10901W        W77684   5.898  42.422   1.893
10902W        W77685   6.864  39.504   1.002
10903W        W77686   8.420   1.788  11.937
10904W        W77687  40.530   3.982  14.784
10905W        W77688   7.368   3.319   2.355
10906W        W77689  26.422  15.231   2.909
10907W        W77690   1.263  22.010  13.370
10908W        W77691  10.852   1.322  14.763
10909W        W77692   0.244  32.915  12.703
10910W        W77693   4.539  43.083   0.260
10911W        W77694   7.425  11.702   3.039
10912W        W77695   1.319  34.092   4.173
10913W        W77696  38.016   6.220   1.437
10914W        W77697  25.676  31.933  12.303
10915W        W77698  35.984   7.235   0.350
10916W        W77699  32.894  40.604  14.542
10917W        W77700  43.224  19.225  14.965
10918W        W77701  17.992   8.075   0.869
10919W        W77702  27.065  37.876  11.244
10920W        W77703   3.469  18.368   4.162
10921W        W77704  11.410  43.267  11.387
10922W        W77705   5.768  33.690   1.445
10923W        W77706   0.562  22.039  13.952
10924W        W77707   8.399  28.472   2.007
10925W        W77708  29.962  14.523   0.833
10926W        W77709  28.192   6.664  12.914
10927W        W77710  28.523  36.663  12.084
10928W        W77711   2.801   0.999  12.171
10929W        W77712  20.822  18.222   1.506
10930W        W77713  41.938   7.674   2.535
10931W        W77714  33.411  14.374  13.009
10932W        W77715   1.532  25.738   1.801
10933W        W77716  22.381  29.934   4.547
10934W        W77717  19.636  30.864  10.784
10935W        W77718  15.079  33.054   0.868
10936W        W77719  29.966  31.622   0.256
10937W        W77720  36.809  41.822  14.052
10938W        W77721  38.729  41.309  11.166
10939W        W77722  19.734  19.349   3.245
10940W        W77723  35.913  26.352  14.038
10941W        W77724  30.947  39.737  14.089
10942W        W77725  31.490  10.882  10.551
10943W        W77726  42.994  40.546   0.831
10944W        W77727  13.518  42.889   0.899
10945W        W77728  41.354  18.535  14.260
10946W        W77729  26.138   1.401   0.330
10947W        W77730   8.569  22.768   1.907
10948W        W77731  30.226  20.652   1.919
10949W        W77732  14.424  38.538  13.858
10950W        W77733   2.428  23.054   3.057
10951W        W77734  19.513   0.197  13.586
10952W        W77735  12.282   4.951   2.903
10953W        W77736  12.264   5.870   1.029
10954W        W77737  18.790  10.775  11.630
10955W        W77738  13.392  31.860   1.777
10956W        W77739   8.116  36.086  10.748
10957W        W77740   4.253  37.384  10.573
10958W        W77741  14.318  32.873  10.680
10959W        W77742  13.405  15.603  11.611
10960W        W77743  23.026  24.974  13.445
10961W        W77744  23.434  10.531   0.110
10962W        W77745  30.333  15.835   4.227
10963W        W77746  11.798  22.027  11.854
10964W        W77747  18.470  15.865   2.333
10965W        W77748  35.594   2.512  14.933
10966W        W77749  31.309  11.601  13.085
10967W        W77750  10.612  16.297  14.042
10968W        W77751  16.580  13.052   1.940
10969W        W77752  40.536  10.816  14.434
10970W        W77753  21.479  26.114  12.501
10971W        W77754  13.667  41.093  14.820
10972W        W77755  28.547  12.201  13.031
10973W        W77756   9.586  15.333   2.451
10974W        W77757   9.376   7.330   9.877
10975W        W77758   4.765  32.405  12.226
10976W        W77759   3.399   0.640  13.802
10977W        W77760  17.688   5.862  12.858
10978W        W77761  25.073  32.990   2.233
10979W        W77762  40.726  13.859  13.073
10980W        W77763  33.587   3.266  13.589
10981W        W77764  28.964  28.106  12.568
10982W        W77765  16.643  42.412   4.318
10983W        W77766  19.264  26.631  11.742
10984W        W77767  24.589   2.485   2.734
10985W        W77768  13.195  28.522   2.830
10986W        W77769  30.489  15.720   1.257
10987W        W77770   5.626  23.294   2.176
10988W        W77771  18.102  33.430  13.106
10989W        W77772  26.657  34.403   2.886
10990W        W77773  39.113  27.156   0.837
10991W        W77774   7.966  18.622   0.890
10992W        W77775  12.236  22.555   3.218
10993W        W77776  34.390  12.711   3.620
10994W        W77777  28.233  30.080  11.683
10995W        W77778  28.149  43.366   1.258
10996W        W77779   7.318  44.618   3.647
10997W        W77780  13.768   7.417   0.370
10998W        W77781  15.282  34.112   4.050
10999W        W77782  10.176  39.453  14.677
11000W        W77783  44.673  19.820   1.277
11001W        W77784  39.287  39.882   2.806
11002W        W77785  14.789  32.694  11.526
11003W        W77786  32.755  23.286  12.148
11004W        W77787  11.140  19.628  13.684
11005W        W77788  19.989  34.675   2.376
11006W        W77789   7.920  35.556  13.855
11007W        W77790  18.152  10.017  14.193
11008W        W77791  29.968  40.957  12.316
11009W        W77792  10.207  39.959  12.964
11010W        W77793  36.372  24.308   2.425
11011W        W77794  40.887  10.834   4.559
11012W        W77795  36.435  34.214  14.977
11013W        W77796  17.677  31.425   4.151
11014W        W77797  39.995  17.763   4.332
11015W        W77798   9.740  24.963  13.613
11016W        W77799  15.074  41.076   4.169
11017W        W77800  36.147  22.044  11.686
11018W        W77801  37.872  31.691   1.853
11019W        W77802  33.123  17.131   1.866
11020W        W77803  16.030  43.613  11.931
11021W        W77804  24.463  26.680  13.977
11022W        W77805   9.209  26.567  13.891
11023W        W77806  19.686  43.826   2.230
11024W        W77807   5.380  19.602  11.481
11025W        W77808  42.241  10.735  11.150
11026W        W77809  29.118  28.306   1.869
11027W        W77810  39.422  16.756   2.453
11028W        W77811   3.391  37.766   2.107
11029W        W77812  15.122  20.449  14.427
11030W        W77813  24.053  25.716  13.855
11031W        W77814  10.930   7.775  14.711
11032W        W77815  39.879  39.602  12.953
11033W        W77816  37.603  28.660  14.008
11034W        W77817  34.046  21.701   1.792
11035W        W77818  32.137  13.667  10.674
11036W        W77819  32.413  15.584   0.694
11037W        W77820  44.838  32.266  13.048
11038W        W77821  13.120  37.628   0.863
11039W        W77822  18.680  22.537  12.925
11040W        W77823  44.034  14.290   1.849
11041W        W77824  32.684  19.798   3.366
11042W        W77825  39.084  43.805  10.091
11043W        W77826   8.011  25.800   2.901
11044W        W77827  11.828  30.059  13.416
11045W        W77828  22.517  37.338   2.758
11046W        W77829  14.366  34.093   1.727
11047W        W77830   1.318  27.728   1.696
11048W        W77831  22.739   1.075  12.992
11049W        W77832  27.855  43.206   0.781
11050W        W77833  37.911  11.227   3.777
11051W        W77834  11.158  41.853  14.467
11052W        W77835  11.809  44.327  11.998
11053W        W77836  11.694  19.505  13.850
11054W        W77837  22.908  39.133  12.167
11055W        W77838  13.780  21.660  14.527
11056W        W77839  11.643  19.751   1.666
11057W        W77840   5.307  18.549   2.638
11058W        W77841  44.964  35.844   0.009
11059W        W77842   8.762  13.940   4.675
11060W        W77843  13.250   9.451  10.501
11061W        W77844  44.250   2.249   1.482
11062W        W77845   3.780  23.666  11.898
11063W        W77846  25.740   3.098  10.922
11064W        W77847  24.575   7.249   3.288
11065W        W77848   4.357   2.419  11.623
11066W        W77849  29.209  29.829  14.004
11067W        W77850   1.894   3.554   2.245
11068W        W77851  17.027   1.294   1.842
11069W        W77852  12.556   6.959   2.159
11070W        W77853  14.188  27.450   5.117
11071W        W77854  27.387  29.008  14.711
11072W        W77855  38.330   3.690   0.650
11073W        W77856   3.770  19.514  12.524
11074W        W77857  43.308   9.539   0.832
11075W        W77858  28.079  14.004   3.592
11076W        W77859  29.981   1.532   2.779
11077W        W77860  30.240   7.414   0.854
11078W        W77861   6.683  28.434   4.135
11079W        W77862  31.177  34.528  11.988
11080W        W77863  41.255  28.479   0.056
11081W        W77864  40.987  19.248  10.575
11082W        W77865  10.208  24.522   2.338
11083W        W77866  33.526   3.851   3.261
11084W        W77867  27.644  16.635  12.441
11085W        W77868   8.710  28.559  13.635
11086W        W77869  44.418  26.198   1.854
11087W        W77870  17.148  22.555   3.559
11088W        W77871   6.172  27.413   0.932
11089W        W77872  30.700   6.260   2.336
11090W        W77873  16.209   7.869  12.664
11091W        W77874  33.799  34.538  11.840
11092W        W77875  41.739  38.370   2.347
11093W        W77876  16.811  28.251   4.087
11094W        W77877  27.566  40.424  14.957
11095W        W77878   4.882   5.740   4.912
11096W        W77879   9.437  39.750  11.390
11097W        W77880  44.418   7.847  12.346
11098W        W77881  37.886   0.755   1.919
11099W        W77882  43.399  33.008   1.745
11100W        W77883   8.132  11.720   4.341
11101W        W77884  30.436  39.120   1.821
11102W        W77885   2.950  11.154   1.442
11103W        W77886   0.733  33.622   2.663
11104W        W77887   7.233  23.902  12.074
11105W        W77888  43.984  18.747   3.365
11106W        W77889   0.181  28.542   1.811
11107W        W77890  35.119  30.066   1.500
11108W        W77891  43.081  20.705  11.164
11109W        W77892   6.700   9.104  14.476
11110W        W77893  18.647  36.504   4.612
11111W        W77894  37.626  30.432   2.877
11112W        W77895  39.031  24.729  10.790
11113W        W77896  38.535  38.156  13.933
11114W        W77897  16.989   9.922  14.513
11115W        W77898  11.651  28.738   2.798
11116W        W77899   1.303  32.843  14.102
11117W        W77900   8.345  41.373  14.825
11118W        W77901  24.053  12.566   3.779
11119W        W77902  10.109  16.674   4.258
11120W        W77903   7.452  29.349  14.147
11121W        W77904  39.561  10.330  10.624
11122W        W77905  11.856  25.894   4.048
11123W        W77906   0.699   1.916  11.077
11124W        W77907   6.023  19.775  14.786
11125W        W77908   0.373  38.881   1.300
11126W        W77909  40.567   0.635  14.708
11127W        W77910   4.899  18.831   1.904
11128W        W77911   1.500  33.935   2.229
11129W        W77912   7.766  41.333   3.736
11130W        W77913  38.162  22.024   2.185
11131W        W77914  16.305  38.239   1.239
11132W        W77915  22.887  29.831  14.394
11133W        W77916  31.720  25.482  12.883
11134W        W77917  21.591  15.191   3.289
11135W        W77918  30.336  11.314   1.834
11136W        W77919  17.034  35.305   0.767
11137W        W77920  39.832  15.281  13.576
11138W        W77921  19.118  11.340  10.733
11139W        W77922  29.934  32.549  14.724
11140W        W77923  41.975  26.304  13.971
11141W        W77924   6.894  27.570   1.770
11142W        W77925  18.689   8.694   2.771
11143W        W77926   2.699   9.710   2.144
11144W        W77927  32.192  33.446  13.087
11145W        W77928  17.653  20.031   3.989
11146W        W77929  12.869  30.212  13.499
11147W        W77930  33.046  43.436  10.768
11148W        W77931   9.151  40.618  12.957
11149W        W77932  11.738  19.261  12.991
11150W        W77933   6.852  16.967   4.571
11151W        W77934  29.901  42.908   1.079
11152W        W77935   7.358   7.248   4.155
11153W        W77936  27.576   5.235  13.823
11154W        W77937  44.834   6.994   3.652
11155W        W77938  28.155  10.012   3.618
11156W        W77939   5.498  33.577  14.681
11157W        W77940   7.340  21.101   4.504
11158W        W77941   8.875  15.990   1.574
11159W        W77942  27.522  42.723   2.266
11160W        W77943  13.548   3.296   3.241
11161W        W77944  13.270  22.039   4.177
11162W        W77945   6.862  14.552   1.724
11163W        W77946  44.502   0.101   4.814
11164W        W77947  23.196  15.372   2.604
11165W        W77948  43.385  30.577   5.120
11166W        W77949  13.720   9.095   2.789
11167W        W77950  11.235  24.430   4.625
11168W        W77951   0.790  24.774   3.355
11169W        W77952  26.941  40.612   0.187
11170W        W77953   6.946  14.360   3.604
11171W        W77954  42.528  27.550   1.910
11172W        W77955  19.542   8.179   4.578
11173W        W77956  41.338   9.100   3.651
11174W        W77957  35.351  35.412  12.398
11175W        W77958  31.872  30.002   3.644
11176W        W77959  31.472  28.399  14.378
11177W        W77960  17.832  24.555   0.964
11178W        W77961  33.553  28.696  12.514
11179W        W77962  12.775  42.466  12.105
11180W        W77963  18.733  33.532   1.284
11181W        W77964  23.452  24.526   0.771
11182W        W77965   7.703  17.361   5.013
11183W        W77966  29.371  20.179   1.816
11184W        W77967  16.577  33.409   4.526
11185W        W77968  41.738  23.617  13.413
11186W        W77969  26.266  28.309  14.543
11187W        W77970  16.033  22.776   2.687
11188W        W77971  39.263  41.826   4.646
11189W        W77972  22.216  34.184   0.415
11190W        W77973   4.788   6.587   4.941
11191W        W77974  20.404  44.968   3.407
11192W        W77975  18.716   9.023   5.383
11193W        W77976   3.265   7.232   2.822
11194W        W77977  35.572   0.802   4.849
11195W        W77978  11.268  44.503   2.761
11196W        W77979  17.582  23.980  11.605
11197W        W77980  12.849  23.506   2.420
11198W        W77981  10.590  25.145  10.658
11199W        W77982  21.466  12.825  10.863
11200W        W77983   9.171  34.841   1.180
11201W        W77984  12.738  22.500   3.393
11202W        W77985  16.612  34.148  12.911
11203W        W77986  31.074  15.089   0.861
11204W        W77987  28.819  14.631   0.359
11205W        W77988   2.364   9.235   2.256
11206W        W77989   1.334  16.553   3.688
11207W        W77990  40.439  15.550  14.075
11208W        W77991  31.700  20.976  11.991
11209W        W77992  18.679   6.214   3.289
11210W        W77993   0.938  42.716  13.415
11211W        W77994   4.165  16.771   2.639
11212W        W77995  41.159   3.953   0.460
11213W        W77996   4.269  25.037   1.420
11214W        W77997  35.432   3.708  10.108
11215W        W77998  21.884  43.081   1.454
11216W        W77999  26.985  37.448   5.597
11217W        W78000  10.421  16.257   1.979
11218W        W78001  13.859  33.226   0.314
11219W        W78002  40.352  12.672  10.073
11220W        W78003  10.325  26.488   0.693
11221W        W78004  24.814  23.936  13.453
11222W        W78005  27.008  14.914  11.543
11223W        W78006  24.167  32.097  14.353
11224W        W78007  25.465  17.354  12.969
11225W        W78008  15.615  13.168  14.338
11226W        W78009  39.883  44.446  10.631
11227W        W78010   8.907  24.933   1.792
11228W        W78011  43.532  17.009  12.442
11229W        W78012   1.012  11.410   4.741
11230W        W78013  38.562  10.717   4.232
11231W        W78014  31.185  40.065   3.676
11232W        W78015  18.809   3.913   3.687
11233W        W78016  16.250  29.642   1.373
11234W        W78017  16.806  38.959  14.086
11235W        W78018  16.985  13.765   0.131
11236W        W78019  15.160  15.601   4.158
11237W        W78020  13.921  14.322   2.694
11238W        W78021  12.271  23.342  10.584
11239W        W78022  42.532  24.955   2.149
11240W        W78023  24.231  21.094  14.193
11241W        W78024  28.387  16.674   3.104
11242W        W78025   5.011  22.980  11.173
11243W        W78026   4.951  40.035  10.906
11244W        W78027   1.788  35.921  10.858
11245W        W78028   5.751  26.576   0.846
11246W        W78029  17.670  20.563   0.518
11247W        W78030  31.965  43.374  14.669
11248W        W78031  42.280  30.115  11.568
11249W        W78032  32.523   1.240  10.809
11250W        W78033   9.859  21.792   0.656
11251W        W78034  36.379  21.194  10.720
11252W        W78035   7.425  39.535   4.219
11253W        W78036  44.337  20.725  13.813
11254W        W78037  24.577  41.969  13.849
11255W        W78038  18.124  14.843   1.220
11256W        W78039  14.846   6.840  11.159
11257W        W78040  16.877  11.720   3.551
11258W        W78041  21.172   6.214   0.285
11259W        W78042  21.306  21.747   3.258
11260W        W78043  41.470   6.248   2.362
11261W        W78044  24.043  30.659  13.621
11262W        W78045  17.792   6.224  14.951
11263W        W78046  15.742  11.904   4.157
11264W        W78047  20.944  26.704   2.171
11265W        W78048   5.719  21.647   4.838
11266W        W78049  40.474  39.061   1.406
11267W        W78050   6.238  21.653   4.673
11268W        W78051  32.479  17.633   4.638
11269W        W78052  39.388  40.964   4.199
11270W        W78053  42.261  20.196   1.957
11271W        W78054  38.259  13.694   4.053
11272W        W78055  28.634  15.127   3.312
11273W        W78056  43.031  29.978   3.870
11274W        W78057  33.627   5.760  14.326
11275W        W78058  15.033  27.580  13.357
11276W        W78059  39.005  10.467   2.304
11277W        W78060  40.788  32.471   2.785
11278W        W78061  32.240  10.698   4.156
11279W        W78062  42.799   2.886  11.094
11280W        W78063  27.401  40.839  14.263
11281W        W78064  11.130  34.661  13.478
11282W        W78065  22.558  36.652  13.050
11283W        W78066  26.018  34.491  12.030
11284W        W78067  43.030  15.525  11.602
11285W        W78068  27.217  37.118  10.847
11286W        W78069  31.680  27.719   4.487
11287W        W78070  28.608  23.113   1.766
11288W        W78071  10.501  22.902   4.919
11289W        W78072  30.238  42.325  11.664
11290W        W78073  26.161  40.713   1.803
11291W        W78074  30.306  23.199  11.644
11292W        W78075   1.983  28.190   0.944
11293W        W78076  27.523  44.282   4.875
11294W        W78077   6.851  39.391  11.631
11295W        W78078  37.509   4.096   0.967
11296W        W78079   7.928  31.076  13.971
11297W        W78080  38.337  42.303   2.871
11298W        W78081  38.870  27.092   3.066
11299W        W78082  44.878  17.199  13.588
11300W        W78083  18.333   0.296  11.519
11301W        W78084  20.840  24.519   1.778
11302W        W78085  17.686  42.339   2.752
11303W        W78086  39.880   4.837   1.773
11304W        W78087   1.522   2.682   3.092
11305W        W78088  19.005  15.271  14.886
11306W        W78089  43.321  21.247  14.031
11307W        W78090  30.038  18.577  10.909
11308W        W78091  24.953  21.472   0.174
11309W        W78092  18.411  20.499   3.972
11310W        W78093   2.939  38.858   2.690
11311W        W78094  11.394  32.152  13.049
11312W        W78095  21.255  24.383  13.910
11313W        W78096  27.975  24.175  14.416
11314W        W78097  38.704  41.996   1.934
11315W        W78098  28.172   1.843   0.458
11316W        W78099  37.073  24.021  10.583
11317W        W78100   2.210  41.074  14.008
11318W        W78101  11.469  26.414   0.142
11319W        W78102  24.767   3.427   1.836
11320W        W78103  25.173  28.508   1.729
11321W        W78104  24.194  26.951  13.552
11322W        W78105  38.993  10.077  14.896
11323W        W78106   0.456  32.100  10.735
11324W        W78107  29.334  44.498  12.087
11325W        W78108  41.412   7.425   4.082
11326W        W78109  42.156  44.319   4.523
11327W        W78110   0.497  15.187  11.126
11328W        W78111  15.678  27.670  14.596
11329W        W78112  34.490  31.332   0.304
11330W        W78113  41.856  42.253   4.437
11331W        W78114  13.904  25.138  12.504
11332W        W78115  33.005  11.064   0.827
11333W        W78116  30.185  28.100   2.006
11334W        W78117  15.071  26.181   2.826
11335W        W78118  17.165  10.126  10.928
11336W        W78119   5.203  26.861  10.709
11337W        W78120  11.680  32.129  13.510
11338W        W78121  14.453   3.916  12.909
11339W        W78122   5.359  15.984   4.129
11340W        W78123  29.838  28.613  11.464
11341W        W78124  27.505   8.368  11.422
11342W        W78125  22.265  23.799   0.002
11343W        W78126   4.025  22.241   4.150
11344W        W78127  19.828   7.303   3.020
11345W        W78128  27.871   2.797  12.012
11346W        W78129  42.518  41.843  12.485
11347W        W78130   6.944  40.569   2.355
11348W        W78131  40.709  10.855   0.685
11349W        W78132  26.359  17.377  11.782
11350W        W78133   2.512  36.310   3.818
11351W        W78134  12.825   8.433  13.390
11352W        W78135   9.405  43.960  10.739
11353W        W78136  33.552  21.945  13.874
11354W        W78137   4.819   3.179   2.557
11355W        W78138  26.132  21.025   3.384
11356W        W78139  42.524   4.882   2.569
11357W        W78140  15.660   6.652  12.500
11358W        W78141  28.554  32.690   0.761
11359W        W78142  43.959  44.758   2.353
11360W        W78143  39.309  13.560  13.580
11361W        W78144  23.777  22.116   4.670
11362W        W78145  24.044   6.732  11.926
11363W        W78146  24.560  30.332   1.100
11364W        W78147  34.781   8.468  10.222
11365W        W78148  26.914  38.517  11.559
11366W        W78149   6.672  22.334  14.353
11367W        W78150  40.591  39.472  14.476
11368W        W78151  28.730  30.185   0.263
11369W        W78152  27.590  39.875  12.536
11370W        W78153   1.895   5.145   4.614
11371W        W78154  18.557   0.035  11.155
11372W        W78155  21.427  39.459  14.933
11373W        W78156  17.818  30.846  12.176
11374W        W78157  44.532  33.151   0.081
11375W        W78158   1.908   3.281   1.789
11376W        W78159   9.934  34.453   0.254
11377W        W78160  35.924  42.501  11.421
11378W        W78161  28.818  22.870   0.871
11379W        W78162  23.441  35.071  14.034
11380W        W78163  20.676  42.233  13.429
11381W        W78164  25.232  18.660  11.927
11382W        W78165  30.549   5.513  12.145
11383W        W78166  31.931  34.151  13.952
11384W        W78167   7.654  28.620   1.311
11385W        W78168  33.619  29.929   5.111
11386W        W78169  17.864  21.503   4.056
11387W        W78170  12.161  35.636   1.323
11388W        W78171  28.664  29.652  12.160
11389W        W78172  28.120  21.582   3.750
11390W        W78173  14.385  43.853  14.825
11391W        W78174  32.152  40.644   1.713
11392W        W78175   2.992  42.319   1.397
11393W        W78176  33.601   5.823  12.397
11394W        W78177  44.128  33.104  13.902
11395W        W78178  18.221  25.104   0.226
11396W        W78179  36.300  44.964  11.232
11397W        W78180   1.905   0.323   2.830
11398W        W78181  30.564  33.048  13.543
11399W        W78182  10.730  23.465   2.872
11400W        W78183  19.679  27.887  11.926
11401W        W78184  37.148  40.408  12.874
11402W        W78185  44.921  38.893   2.741
11403W        W78186  29.285  13.143  14.390
11404W        W78187  31.545  28.513  12.951
11405W        W78188  15.954  11.026  10.712
11406W        W78189  33.025   4.259  13.117
11407W        W78190   6.291  38.095   1.185
11408W        W78191  41.021  19.465  12.630
11409W        W78192  25.123   0.679   0.831
11410W        W78193  31.956  25.183   1.798
11411W        W78194   4.625  37.261  11.901
11412W        W78195   7.436  42.305  14.822
11413W        W78196  37.922  18.799   3.725
11414W        W78197   3.383  40.533   2.381
11415W        W78198  12.746  44.197  12.342
11416W        W78199  33.708  39.781   1.265
11417W        W78200   2.666   4.464  14.874
11418W        W78201  20.249  30.874   3.220
11419W        W78202  44.385  14.749   2.684
11420W        W78203  31.631   6.137   5.037
11421W        W78204  22.948   5.445   3.237
11422W        W78205  44.744  19.694  11.314
11423W        W78206  24.482  11.332   0.233
11424W        W78207  41.070   7.837  13.603
11425W        W78208   9.244  28.095   5.471
11426W        W78209   7.887   8.025   4.252
11427W        W78210  38.352  17.195   2.720
11428W        W78211  36.777  17.773   4.631
11429W        W78212  27.167   6.499   4.288
11430W        W78213  14.281  39.461  11.249
11431W        W78214  27.100  30.110   0.391
11432W        W78215   5.281  36.918   0.204
11433W        W78216  21.599   4.912  12.200
11434W        W78217  38.037  18.068  10.956
11435W        W78218  19.330   5.473  14.355
11436W        W78219  20.072  32.857   0.946
11437W        W78220  21.610  14.735  11.432
11438W        W78221  19.338  39.413  12.405
11439W        W78222   2.435  21.905   4.119
11440W        W78223  40.488   4.710  10.196
11441W        W78224  13.180  40.564  14.357
11442W        W78225  13.020  41.929  14.215
11443W        W78226   8.861  12.097  12.647
11444W        W78227   9.343  22.056  11.994
11445W        W78228  43.351  32.245  11.563
11446W        W78229  29.561   9.286  13.618
11447W        W78230  18.121  21.242  11.920
11448W        W78231  39.483   8.633   0.705
11449W        W78232   6.772  16.377  14.266
11450W        W78233  35.472  25.006  12.854
11451W        W78234  35.023  39.818   4.532
11452W        W78235   5.371   7.435  13.999
11453W        W78236  44.394  34.610  10.425
11454W        W78237  28.031  35.107   2.798
11455W        W78238  18.741  15.885   3.222
11456W        W78239   6.719   7.888  12.459
11457W        W78240  24.576  15.616  14.836
11458W        W78241  23.666  30.495   4.391
11459W        W78242   9.182  26.080   1.388
11460W        W78243  14.299  19.824   4.165
11461W        W78244   4.207  42.380   0.810
11462W        W78245  28.046  27.075  10.591
11463W        W78246  17.853  31.215   0.928
11464W        W78247   3.564   9.439   0.257
11465W        W78248  15.613  15.228  11.948
11466W        W78249  26.436  27.479  13.923
11467W        W78250  22.478   7.501  13.262
11468W        W78251   3.870  37.574   4.564
11469W        W78252   4.821  23.106  10.698
11470W        W78253   3.829  42.100   1.037
11471W        W78254  42.356  29.199  13.107
11472W        W78255  16.736  17.735  12.321
11473W        W78256  25.405  43.511  11.962
11474W        W78257  36.868   7.969  14.702
11475W        W78258  35.054  23.497   0.542
11476W        W78259  40.457  34.022   2.044
11477W        W78260   3.399  19.714   2.687
11478W        W78261  32.975   5.320   3.676
11479W        W78262  30.962   8.342   4.641
11480W        W78263  31.255  13.308  14.537
11481W        W78264  23.637  38.498   2.144
11482W        W78265   3.719   3.772  14.528
11483W        W78266  29.502  18.840   2.299
11484W        W78267  10.899   9.326  13.223
11485W        W78268  34.310  38.350   0.739
11486W        W78269  11.707  20.336  13.152
11487W        W78270  26.927  31.543   4.142
11488W        W78271   4.398  26.457  11.327
11489W        W78272   9.123  23.265   0.847
11490W        W78273  31.908  34.547   1.498
11491W        W78274  41.350  32.729  14.411
11492W        W78275   9.241  16.691   4.864
11493W        W78276   0.618  10.783   3.697
11494W        W78277  31.141  36.991   1.315
11495W        W78278  15.854  35.917  12.989
11496W        W78279   3.956   3.487  10.802
11497W        W78280  30.835  37.694   0.743
11498W        W78281  10.900  11.351   4.104
11499W        W78282  37.424  42.031   3.831
11500W        W78283  15.172  29.435   3.986
11501W        W78284   1.422  36.492   2.828
11502W        W78285  24.095  14.494  10.396
11503W        W78286   6.442  18.039  11.746
11504W        W78287  12.818  21.529  14.613
11505W        W78288  24.106  12.335   4.239
11506W        W78289   8.898   4.928  10.648
11507W        W78290   8.777  26.445  11.076
11508W        W78291  22.082  40.251  14.307
11509W        W78292  17.758  30.374  11.951
11510W        W78293  35.502  10.390  12.879
11511W        W78294  40.078   7.197  12.146
11512W        W78295   5.980   4.186   2.856
11513W        W78296   9.681  21.730   3.843
11514W        W78297  21.681  36.934  14.465
11515W        W78298  25.563  21.750   2.370
11516W        W78299  36.222  40.756   3.649
11517W        W78300  44.363  28.153  12.662
11518W        W78301  22.072  21.170   0.290
11519W        W78302  17.868  16.543  13.931
11520W        W78303  40.503  41.075   4.043
11521W        W78304  20.223  32.069   1.822
11522W        W78305   4.645  41.940   4.142
11523W        W78306   6.845  43.878   1.869
11524W        W78307  35.798  31.651   3.616
11525W        W78308  43.448   6.815  14.391
11526W        W78309  19.605   0.411   4.386
11527W        W78310  23.699  32.433  14.860
11528W        W78311   7.520  42.102  13.899
11529W        W78312  26.885  14.003   1.207
11530W        W78313  10.182  25.214   3.415
11531W        W78314   6.881  31.814  11.599
11532W        W78315  31.425  29.602  13.189
11533W        W78316  26.450  39.418  11.528
11534W        W78317  11.274  13.358   3.078
11535W        W78318  41.814  24.110  14.240
11536W        W78319   0.529  18.253   2.748
11537W        W78320  15.610   9.155  11.541
11538W        W78321  42.039  36.343   0.861
11539W        W78322  44.861  11.402   2.801
11540W        W78323  35.955  19.492  13.587
11541W        W78324  42.279   2.286   3.019
11542W        W78325  39.019  42.105   2.340
11543W        W78326  37.508  13.109  12.020
11544W        W78327  27.588  31.836   2.676
11545W        W78328  33.478  25.925   0.966
11546W        W78329  33.950  33.926   3.156
11547W        W78330   8.711  36.532   3.375
11548W        W78331  21.243  41.771   2.885
11549W        W78332  30.822   9.844   3.758
11550W        W78333  18.823  24.038  12.373
11551W        W78334  19.134  11.905  11.046
11552W        W78335  31.044  42.536  13.339
11553W        W78336  28.571  25.114   4.202
11554W        W78337  30.638  38.369  14.063
11555W        W78338  22.516  13.499  10.788
11556W        W78339  23.178   0.655  13.135
11557W        W78340   7.462  39.171   1.510
11558W        W78341  41.405   8.268   1.216
11559W        W78342  41.873  35.010   2.390
11560W        W78343  20.531  40.492   0.049
11561W        W78344  13.795  33.881   2.585
11562W        W78345   8.914  36.312  11.893
11563W        W78346  25.098  27.056  12.594
11564W        W78347  12.989   3.430  11.220
11565W        W78348  11.806  13.837  10.959
11566W        W78349  32.034  38.601  13.588
11567W        W78350  24.173  40.866  12.097
11568W        W78351  21.968  10.287   1.768
11569W        W78352  16.721  23.763   1.324
11570W        W78353  30.148   8.236   0.194
11571W        W78354  29.098  36.948   0.993
11572W        W78355   2.713  15.752  13.891
11573W        W78356  30.730  42.117   1.395
11574W        W78357  29.559  23.737   0.751
11575W        W78358  41.489  12.240  13.110
11576W        W78359  31.531   0.345   3.296
11577W        W78360  27.229  12.330   1.874
11578W        W78361  33.923  30.373   3.134
11579W        W78362  40.947  16.102  11.019
11580W        W78363  27.592  38.730  11.148
11581W        W78364  37.247  18.530   4.163
11582W        W78365  24.798   2.762  11.530
11583W        W78366  44.336  38.567  12.893
11584W        W78367  19.253   0.393  13.180
11585W        W78368  29.018  23.807  12.180
11586W        W78369  36.563  18.765   0.458
11587W        W78370  21.071   2.144  12.596
11588W        W78371   5.459  31.155   0.686
11589W        W78372  15.915  35.232  11.156
11590W        W78373  39.370  31.145  12.571
11591W        W78374  12.399  24.147  13.286
11592W        W78375   2.510  27.552   1.435
11593W        W78376  11.503  33.569   4.379
11594W        W78377  27.420  25.487   4.704
11595W        W78378   8.895  21.258  10.932
11596W        W78379  24.264  21.182   4.512
11597W        W78380   9.355  22.193   4.225
11598W        W78381  29.925  19.800   1.186
11599W        W78382   7.284  18.569  12.249
11600W        W78383  36.397   3.532  12.140
11601W        W78384  44.514  21.535   0.849
11602W        W78385  17.153  13.149   0.737
11603W        W78386  38.064  16.594   3.706
11604W        W78387   0.925  35.978   3.836
11605W        W78388  16.127  32.243  14.457
11606W        W78389  11.131  22.546  13.482
11607W        W78390   0.781  25.228   4.067
11608W        W78391  26.621   0.348   1.477
11609W        W78392  16.617  34.921   0.733
11610W        W78393  31.985   7.817  13.817
11611W        W78394  11.823  28.280  14.311
11612W        W78395  43.544   6.395  14.707
11613W        W78396  42.839  36.300   0.440
11614W        W78397  40.793  13.215   0.303
11615W        W78398  25.917  32.919  14.085
11616W        W78399  29.345  14.906   2.618
11617W        W78400   7.628  32.418  14.982
11618W        W78401  29.373  27.950  11.909
11619W        W78402  11.743   9.611  12.193
11620W        W78403  15.240   0.640   0.791
11621W        W78404  19.339  37.662   3.051
11622W        W78405  28.057  30.672   2.069
11623W        W78406   5.136  19.726   4.000
11624W        W78407  36.020  15.759  10.729
11625W        W78408  15.664  22.296   0.021
11626W        W78409  24.327  43.348   2.260
11627W        W78410  15.788  10.288  13.051
11628W        W78411  36.105  16.090  11.302
11629W        W78412  19.209   1.139  11.932
11630W        W78413  24.073   7.836   4.696
11631W        W78414  26.606  15.037  13.599
11632W        W78415  40.095  35.178  13.380
11633W        W78416  24.347  39.295   4.943
11634W        W78417  18.379  23.901   2.212
11635W        W78418  39.940   9.748  10.638
11636W        W78419  21.945  43.311   2.760
11637W        W78420   3.872  21.507   3.309
11638W        W78421  34.176  22.160  11.390
11639W        W78422  39.083  36.925   3.200
11640W        W78423  24.112  19.965   0.301
11641W        W78424  34.859  10.863   3.360
11642W        W78425  32.879  26.557  14.548
11643W        W78426  39.451  23.429  10.775
11644W        W78427  22.126  15.828  14.023
11645W        W78428  19.851   5.852   0.821
11646W        W78429  40.242  35.465  11.073
11647W        W78430  19.475  11.119  13.516
11648W        W78431  23.584  18.665   1.230
11649W        W78432  12.140  24.177  11.161
11650W        W78433  24.313  30.630   0.755
11651W        W78434  39.200  22.467  10.811
11652W        W78435   5.787  37.814  12.719
11653W        W78436   7.909  24.001  12.476
11654W        W78437  20.302  14.224  13.972
11655W        W78438   8.275  25.574   3.304
11656W        W78439  24.984  32.593  13.963
11657W        W78440  23.998  28.978   4.524
11658W        W78441  13.835   6.377   4.884
11659W        W78442  33.099  39.525  13.455
11660W        W78443  28.448   8.113  14.527
11661W        W78444  28.291  14.727   0.355
11662W        W78445  18.542   7.224   2.350
11663W        W78446  26.639  21.598  13.882
11664W        W78447   0.608  35.326  13.587
11665W        W78448  22.574  18.657   4.559
11666W        W78449  38.808  28.947   2.963
11667W        W78450  26.803  29.871   4.255
11668W        W78451  28.743  16.286  12.048
11669W        W78452  37.009   5.043  10.206
11670W        W78453  23.112  34.287   1.620
11671W        W78454   9.306  19.165  13.838
11672W        W78455  22.592   3.758  13.040
11673W        W78456  44.278  14.687  14.561
11674W        W78457  44.176   9.738   0.994
11675W        W78458  22.490  33.507   3.973
11676W        W78459  19.525  33.976   4.219
11677W        W78460  34.414  20.607  11.766
11678W        W78461  11.773  24.908  11.949
11679W        W78462  28.380  28.150  13.131
11680W        W78463  37.823   6.432  12.511
11681W        W78464  43.200  15.733  13.451
11682W        W78465  29.499   8.845   5.065
11683W        W78466  27.174  27.628  13.440
11684W        W78467  22.115  22.954  14.411
11685W        W78468  41.580  25.864  14.977
11686W        W78469  13.810  34.238   0.394
11687W        W78470   7.314  37.932  12.465
11688W        W78471  30.091  41.888   2.621
11689W        W78472   4.642  40.813   2.901
11690W        W78473  17.717  29.626  14.333
11691W        W78474  11.207  20.775  12.503
11692W        W78475  29.888  16.983  10.293
11693W        W78476   3.781  42.816  10.813
11694W        W78477  26.378  20.136  10.996
11695W        W78478   2.538  44.336  13.903
11696W        W78479   4.768   9.113   1.382
11697W        W78480  28.461  38.884  14.479
11698W        W78481  21.806  19.476  13.949
11699W        W78482  13.211  44.556  12.455
11700W        W78483  23.102  21.108   2.934
11701W        W78484   6.256  36.537   4.554
11702W        W78485  31.118   9.222  12.443
11703W        W78486   7.763  36.806  14.586
11704W        W78487  37.127  36.966   2.858
11705W        W78488  40.840  25.205  13.253
11706W        W78489   9.752  13.081   1.426
11707W        W78490  41.383  38.800   0.396
11708W        W78491  15.554  30.158   1.634
11709W        W78492  21.627  39.998   1.924
11710W        W78493   8.877  18.039   4.903
11711W        W78494  31.994  23.730  13.853
11712W        W78495   8.834   0.993   5.113
11713W        W78496  39.882  28.941   3.018
11714W        W78497  40.863  23.672   3.829
11715W        W78498  21.660   2.178  14.319
11716W        W78499  38.106  21.919   4.342
11717W        W78500  20.475   1.921  12.593
11718W        W78501  29.673  37.372  10.941
11719W        W78502  41.959  21.586   1.695
11720W        W78503  32.433  24.490   1.868
11721W        W78504  40.922   0.953   4.523
11722W        W78505   2.605  36.892  11.204
11723W        W78506  16.181   6.248  11.670
11724W        W78507  13.641  39.914  10.612
11725W        W78508  18.326  27.619  12.375
11726W        W78509  34.061  31.838   3.194
11727W        W78510  26.608   9.794  13.200
11728W        W78511   6.162   3.774   1.964
11729W        W78512  28.936  34.370   0.058
11730W        W78513  37.605   3.356  11.655
11731W        W78514  16.366  24.920   0.290
11732W        W78515  35.060  43.564   3.338
11733W        W78516  41.456  22.758  13.490
11734W        W78517  12.805  27.957  14.328
11735W        W78518  26.744  35.919  14.376
11736W        W78519  28.112  19.340  13.509
11737W        W78520  34.110   3.212  10.760
11738W        W78521  35.344   2.718  13.457
11739W        W78522  18.841   2.432   3.674
11740W        W78523  35.550  42.870   2.826
11741W        W78524  44.281  32.024   1.170
11742W        W78525  20.063   8.283   4.679
11743W        W78526  29.710  15.079  14.901
11744W        W78527   7.160  27.205   3.770
11745W        W78528  42.777  40.574   4.542
11746W        W78529  18.586  32.942  12.464
11747W        W78530  22.537  39.221  11.653
11748W        W78531  30.087  22.528  14.206
11749W        W78532  43.009  15.179   2.785
11750W        W78533  23.718  38.540   1.298
11751W        W78534   6.476  36.306   1.308
11752W        W78535  43.917  42.581   4.966
11753W        W78536  40.947  42.666  13.556
11754W        W78537  34.569   2.355   3.345
11755W        W78538  33.933  16.428  10.666
11756W        W78539  15.752  14.161   3.252
11757W        W78540   0.333   0.201  13.965
11758W        W78541  36.390  32.458   2.625
11759W        W78542  41.475  29.563   1.923
11760W        W78543  38.263  37.130  11.454
11761W        W78544   0.747   8.181  13.267
11762W        W78545   4.888  43.502  14.950
11763W        W78546  28.811  40.264   1.718
11764W        W78547  39.244  20.969   1.380
11765W        W78548  29.914  13.592  14.844
11766W        W78549  13.332  19.289  11.936
11767W        W78550   2.781   9.444  14.967
11768W        W78551  31.613  15.103   0.768
11769W        W78552   4.815   0.765   5.051
11770W        W78553  24.104  12.924  11.270
11771W        W78554   0.720  25.668   2.797
11772W        W78555  43.820  14.144   1.400
11773W        W78556  42.931  10.237   0.576
11774W        W78557   0.811   7.326  12.019
11775W        W78558  31.546  15.826  14.820
11776W        W78559  42.868  44.057   5.114
11777W        W78560   2.471  18.642  13.342
11778W        W78561   1.070  28.133  12.102
11779W        W78562  44.845  31.937  14.984
11780W        W78563   0.291  42.774  12.127
11781W        W78564  27.676  33.799   3.719
11782W        W78565   8.249  29.668   1.059
11783W        W78566  33.819  37.261   2.128
11784W        W78567  15.623  18.109   0.542
11785W        W78568  17.581   7.897  11.936
11786W        W78569  42.261  33.751   0.095
11787W        W78570  23.325  33.413   0.856
11788W        W78571   8.757  11.297  13.827
11789W        W78572  41.886  26.989   3.347
11790W        W78573  40.763  23.008  11.149
11791W        W78574  13.664  22.972   2.838
11792W        W78575  21.127   4.156  12.447
11793W        W78576  34.566   8.649   3.713
11794W        W78577  20.183  42.597   3.514
11795W        W78578  42.807  39.824   0.338
11796W        W78579  33.991  15.191   1.758
11797W        W78580  39.618  22.839  13.520
11798W        W78581   7.427  14.548  10.747
11799W        W78582  21.146  11.619   1.176
11800W        W78583  32.804  41.020  14.919
11801W        W78584  43.875   3.647  13.080
11802W        W78585  21.026  41.189  11.456
11803W        W78586  22.792  16.974  12.265
11804W        W78587   4.395  25.964  11.511
11805W        W78588  28.051  22.269  12.489
11806W        W78589   5.017  27.453  12.063
11807W        W78590  17.338   2.979   3.309
11808W        W78591  10.751  34.016  12.968
11809W        W78592   9.667  10.813   1.261
11810W        W78593  15.102  10.392  14.262
11811W        W78594  26.423  35.982  10.450
11812W        W78595  37.747  34.728  12.330
11813W        W78596   5.282  12.598  14.323
11814W        W78597  23.228  10.890   3.123
11815W        W78598  15.696  15.204   1.419
11816W        W78599  13.552  31.387   0.077
11817W        W78600  36.465  34.413   1.284
11818W        W78601  31.376  37.626  11.110
11819W        W78602   0.840  44.389   1.982
11820W        W78603  34.364  12.635   1.166
11821W        W78604  13.094  23.643  11.606
11822W        W78605   7.326   7.202  10.959
11823W        W78606  30.222  31.953   3.245
11824W        W78607   2.044  31.238  13.897
11825W        W78608   0.791  37.969   4.782
11826W        W78609  36.776   1.749  13.870
11827W        W78610  33.474   4.910  10.771
11828W        W78611   4.157   2.070  13.513
11829W        W78612  44.720  30.328  11.885
11830W        W78613  11.872  34.423  14.462
11831W        W78614   6.673   7.675   3.653
11832W        W78615  32.436  30.429  14.323
11833W        W78616  27.922  20.813   5.052
11834W        W78617  25.548  44.462  14.191
11835W        W78618  15.936  24.925   3.026
11836W        W78619  24.073  43.743  10.968
11837W        W78620  29.501  30.307   5.003
11838W        W78621  12.468  32.408   0.328
11839W        W78622  22.227  13.341  14.096
11840W        W78623  42.846  35.974  14.739
11841W        W78624  33.863   6.333  14.966
11842W        W78625  43.030   6.984  11.538
11843W        W78626   6.759  19.138   3.755
11844W        W78627  40.972  37.380   4.451
11845W        W78628  28.528  40.461  11.384
11846W        W78629  32.811  25.688  13.949
11847W        W78630   0.392  30.987   1.786
11848W        W78631  37.307  25.919   4.109
11849W        W78632  39.679  28.467   3.143
11850W        W78633  33.061   6.234  11.848
11851W        W78634  22.060  31.459  10.304
11852W        W78635  12.576  33.113  12.369
11853W        W78636  42.349  22.291  13.564
11854W        W78637  21.102  30.426  11.028
11855W        W78638  31.009  27.364  13.168
11856W        W78639  18.056  32.214   0.532
11857W        W78640   1.423   2.197  14.853
11858W        W78641  23.689  19.477   3.148
11859W        W78642   1.437  21.971  10.666
11860W        W78643  11.337  34.580   4.520
11861W        W78644  20.316  10.938   4.195
11862W        W78645  26.558  18.152  10.709
11863W        W78646  14.381  18.230   2.775
11864W        W78647  41.995  11.612   4.935
11865W        W78648  43.353  34.402  11.085
11866W        W78649   7.069  44.572   4.616
11867W        W78650  19.195  41.453   4.320
11868W        W78651  39.956  21.663   1.431
11869W        W78652  33.418  27.045   2.263
11870W        W78653   1.370   8.078  12.802
11871W        W78654  42.698  24.129   3.192
11872W        W78655   2.595   5.871  11.952
11873W        W78656  10.427  40.125   4.184
11874W        W78657  29.606  41.205  11.085
11875W        W78658  33.087  29.117   2.382
11876W        W78659  18.261   4.893   1.289
11877W        W78660  35.468  14.534   1.920
11878W        W78661  33.910  14.622   4.090
11879W        W78662  34.956  44.291   0.365
11880W        W78663  40.353  21.779   4.880
11881W        W78664  28.537  16.342   1.443
11882W        W78665  16.722  10.772  10.859
11883W        W78666  28.077   7.371   2.758
11884W        W78667  10.265  12.923   4.129
11885W        W78668  33.892  25.948   0.608
11886W        W78669   1.900  19.247  13.716
11887W        W78670  40.851  11.785   3.601
11888W        W78671  11.186  13.205   4.798
11889W        W78672  29.757   5.218  13.297
11890W        W78673  27.934   6.805   1.653
11891W        W78674  38.907  18.500   2.606
11892W        W78675  32.321  38.995  14.330
11893W        W78676   0.734  22.858  11.688
11894W        W78677  18.823   0.048  13.106
11895W        W78678   4.528  13.866  13.819
11896W        W78679  21.605  27.442   2.419
11897W        W78680  10.719   0.826  12.856
11898W        W78681  27.731   5.047  11.365
11899W        W78682  13.262  34.664  12.378
11900W        W78683  39.023  16.805  11.530
11901W        W78684  16.453  27.621   3.622
11902W        W78685  32.140  39.782   2.258
11903W        W78686  28.915  18.494   3.670
11904W        W78687  16.464  14.236   4.090
11905W        W78688   6.750  39.985   1.152
11906W        W78689   0.624  41.999  12.861
11907W        W78690  29.437  34.341  10.581
11908W        W78691  26.888  28.600  10.905
11909W        W78692  21.466   6.205  13.400
11910W        W78693   1.246  13.182   4.497
11911W        W78694  21.573  23.470   2.364
11912W        W78695  30.987  30.622  14.528
11913W        W78696  12.881  19.076  11.919
11914W        W78697  33.674  32.679   1.324
11915W        W78698  23.849   6.429  10.196
11916W        W78699  35.465   0.388   4.179
11917W        W78700  18.540  29.863  12.446
11918W        W78701  29.411  39.895   4.343
11919W        W78702   5.375   1.394   0.337
11920W        W78703  12.723  31.751  11.115
11921W        W78704  40.087  26.746  10.722
11922W        W78705   5.390  24.228   0.894
11923W        W78706  27.582   7.842   1.757
11924W        W78707  16.311  24.589   2.927
11925W        W78708  29.069   8.301   0.713
11926W        W78709   9.482  30.581   3.788
11927W        W78710   6.253  29.659   4.593
11928W        W78711  44.206  41.629   1.306
11929W        W78712  44.340  30.737   3.385
11930W        W78713  16.813  14.159   2.627
11931W        W78714  14.747  31.090  12.470
11932W        W78715  33.363  41.961   2.087
11933W        W78716   8.240  35.932  12.469
11934W        W78717  43.135   1.725  11.416
11935W        W78718  27.915  33.700  12.818
11936W        W78719   6.415  29.476  12.999
11937W        W78720   4.307  11.738   0.757
11938W        W78721   9.847  32.501  13.299
11939W        W78722   7.739   6.475   1.301
11940W        W78723  37.958  30.438  14.724
11941W        W78724  21.382  13.403  14.274
11942W        W78725  25.458  28.616  11.146
11943W        W78726  43.977  30.920  14.711
11944W        W78727   3.582   7.660   2.828
11945W        W78728  29.502  29.616  14.774
11946W        W78729  36.609  30.930   0.734
11947W        W78730  12.145  37.455   0.098
11948W        W78731  11.194  15.357  11.428
11949W        W78732  29.954   0.408   2.259
11950W        W78733  43.801   1.288   2.565
11951W        W78734  20.218  24.470   1.702
11952W        W78735  21.253  24.574   0.798
11953W        W78736  44.784  39.018  11.145
11954W        W78737   4.918  26.933   2.935
11955W        W78738   3.264  35.633   1.261
11956W        W78739  10.138  16.876   1.317
11957W        W78740   9.376  12.673   3.097
11958W        W78741   5.307  30.341  11.179
11959W        W78742   0.962   5.506  11.581
11960W        W78743  16.188  40.959   2.713
11961W        W78744  40.883  36.823   1.296
11962W        W78745  10.055   0.517   0.950
11963W        W78746  28.742  28.029   2.115
11964W        W78747  36.358  28.505   4.190
11965W        W78748   7.980  20.722  12.018
11966W        W78749  11.324  38.982  13.409
11967W        W78750  11.322  28.455  14.365
11968W        W78751  13.614  23.563  13.488
11969W        W78752  37.429  20.542  13.564
11970W        W78753  36.645  18.267  10.738
11971W        W78754  21.025  24.674  10.468
11972W        W78755  30.867  22.627   3.775
11973W        W78756  19.315  10.743  12.704
11974W        W78757  30.406  37.037  14.263
11975W        W78758   2.837  18.170  14.823
11976W        W78759  11.345  42.919   3.647
11977W        W78760   7.696  40.584   0.756
11978W        W78761  23.668  11.907   0.961
11979W        W78762  19.980  27.467  11.210
11980W        W78763   4.016  39.838  10.786
11981W        W78764  12.206  43.460  12.027
11982W        W78765  26.043   1.499   1.231
11983W        W78766  21.947  36.414   4.034
11984W        W78767  27.446   7.679   4.540
11985W        W78768  20.456  26.423  11.132
11986W        W78769  14.357  27.464   4.605
11987W        W78770  44.980  13.204   2.425
11988W        W78771  15.370  27.324  13.091
11989W        W78772  17.601  28.969   4.099
11990W        W78773   3.462   3.964   0.803
11991W        W78774  12.842   1.899   0.926
11992W        W78775   7.472  36.503   2.718
11993W        W78776  17.329  29.084  10.291
11994W        W78777  20.680  17.929   0.078
11995W        W78778  44.499  35.504   1.183
11996W        W78779  23.048   0.505   1.975
11997W        W78780   4.833  32.146   2.784
11998W        W78781  24.766   5.435   2.813
11999W        W78782  10.171  29.891   2.839
12000W        W78783  44.298  12.825  14.095
12001W        W78784  26.249  14.068  14.260
12002W        W78785   8.650  41.859  12.068
12003W        W78786   1.821  38.172   3.266
12004W        W78787  39.009  14.357  12.036
12005W        W78788  41.892  27.685  14.362
12006W        W78789  23.784  23.570  13.515
12007W        W78790   7.256   7.198   0.278
12008W        W78791  10.694  44.918  14.228
12009W        W78792   4.766   5.910  12.036
12010W        W78793  36.055  19.885   9.879
12011W        W78794  27.260   5.244  11.993
12012W        W78795  35.902  13.333  10.670
12013W        W78796  31.116  26.856  12.410
12014W        W78797  10.109  23.834  14.306
12015W        W78798  21.801   6.426  10.626
12016W        W78799  39.012  30.193   4.283
12017W        W78800  12.918  29.387   2.800
12018W        W78801  44.356  25.461  12.965
12019W        W78802  42.902   2.227   0.118
12020W        W78803  37.729  36.783   2.265
12021W        W78804   5.143  41.821   4.203
12022W        W78805  11.092   1.754  11.578
12023W        W78806  37.317   9.820   2.216
12024W        W78807  34.160   3.939   0.913
12025W        W78808   1.430  10.872  14.319
12026W        W78809  37.391  24.620   1.690
12027W        W78810  31.653  38.737   2.624
12028W        W78811  34.685  43.923   2.322
12029W        W78812  41.775  21.683  14.685
12030W        W78813  36.400  36.034   0.233
12031W        W78814  27.215  33.998  11.413
12032W        W78815  30.442  17.600   0.289
12033W        W78816  13.589  24.676  12.000
12034W        W78817  39.491  10.291   1.123
12035W        W78818   9.784   7.134   3.691
12036W        W78819  19.272   5.905  12.535
12037W        W78820   2.297   4.683  13.237
12038W        W78821   1.222  28.893   1.067
12039W        W78822  13.120  27.699   2.412
12040W        W78823   2.496  26.772  12.951
12041W        W78824  29.999  37.057  12.039
12042W        W78825  11.620  16.002   3.342
12043W        W78826  37.093   1.009   1.322
12044W        W78827   5.410   7.107   4.061
12045W        W78828  16.624  16.296  11.422
12046W        W78829  37.553  34.150   1.725
12047W        W78830  32.334  41.279  14.775
12048W        W78831  40.996   5.386  10.874
12049W        W78832  22.917  35.036   3.273
12050W        W78833  19.395  29.064   0.966
12051W        W78834  30.160  25.981   2.814
12052W        W78835  19.624  38.387   3.615
12053W        W78836  36.585  30.153   2.689
12054W        W78837   3.823  22.232   4.617
12055W        W78838  12.139  42.070  11.453
12056W        W78839  34.094  22.008   1.372
12057W        W78840  17.080  23.763   1.770
12058W        W78841  19.181  19.690   2.718
12059W        W78842  29.590  43.425   0.810
12060W        W78843   5.746  44.922   0.371
12061W        W78844  22.379   7.941  12.023
12062W        W78845  21.452   8.871   0.532
12063W        W78846  15.280  15.333   2.148
12064W        W78847   5.325   1.968   1.245
12065W        W78848  23.607  40.841  12.853
12066W        W78849  40.810  32.448  13.638
12067W        W78850  30.733   4.918   3.129
12068W        W78851  23.238  10.109  10.310
12069W        W78852   0.506  16.117   4.129
12070W        W78853  36.060  32.112   0.888
12071W        W78854   9.387  44.974  12.848
12072W        W78855  36.254  33.441  14.401
12073W        W78856  41.932  39.526  10.808
12074W        W78857  29.926   7.240  12.913
12075W        W78858  44.436  19.494  12.957
12076W        W78859  28.953   6.759  14.886
12077W        W78860   2.983  33.893   1.210
12078W        W78861  41.483  15.668   2.920
12079W        W78862  14.488  27.559  14.429
12080W        W78863  20.716  24.503   4.329
12081W        W78864  38.898  21.643  13.851
12082W        W78865  14.398  40.034  13.491
12083W        W78866  28.622   8.942   3.146
12084W        W78867  11.720  30.504  12.632
12085W        W78868  30.112  39.626  12.823
12086W        W78869   7.857  17.108  12.453
12087W        W78870   1.338   4.622  14.897
12088W        W78871  37.643  37.481   1.372
12089W        W78872   3.821   6.832   4.911
12090W        W78873  17.290  39.875  14.834
12091W        W78874  11.793   4.190   3.323
12092W        W78875  19.724  13.322  14.944
12093W        W78876  32.545  27.712  13.811
12094W        W78877  12.854  14.942   2.011
12095W        W78878  37.256  10.186   4.447
12096W        W78879  23.162   0.467   3.378
12097W        W78880  13.702   0.860  14.030
12098W        W78881  43.431  11.690   1.261
12099W        W78882  17.035  21.283   5.000
12100W        W78883  41.960  15.888  11.672
12101W        W78884   6.904  26.014  13.524
12102W        W78885   3.742  43.382  13.813
12103W        W78886   7.897  37.479  14.105
12104W        W78887  19.124   2.543   0.035
12105W        W78888  10.742  34.339  13.378
12106W        W78889  35.915  32.478   3.602
12107W        W78890  30.476  18.096  13.556
12108W        W78891  32.862  18.107   3.715
12109W        W78892   1.702   8.976   2.803
12110W        W78893  38.462  11.261   3.218
12111W        W78894  12.877  11.766  14.379
12112W        W78895  29.557  16.574  14.745
12113W        W78896   6.639   3.859  12.519
12114W        W78897  25.952  26.608   2.238
12115W        W78898  26.414  32.994  10.707
12116W        W78899  32.868  11.451   3.606
12117W        W78900  35.011  31.687   3.222
12118W        W78901   9.738  13.409   0.458
12119W        W78902  19.869   5.771  12.571
12120W        W78903  22.034  21.207  13.487
12121W        W78904  19.775  35.124   0.771
12122W        W78905  31.550  16.642  14.343
12123W        W78906   0.223  42.932   4.610
12124W        W78907  17.752  30.924   4.062
12125W        W78908  33.136  27.554  11.098
12126W        W78909   7.232  43.502   3.343
12127W        W78910  42.252  38.979   0.371
12128W        W78911   3.142  36.513  11.605
12129W        W78912  33.580   8.731  10.697
12130W        W78913  18.076   9.323  13.132
12131W        W78914  29.953  32.870   2.938
12132W        W78915  29.149  18.287  12.839
12133W        W78916  15.773  41.775  11.542
12134W        W78917  42.132  24.438   4.668
12135W        W78918  19.149  40.263   1.148
12136W        W78919   5.507  12.807  12.941
12137W        W78920  12.838   5.676  11.153
12138W        W78921  11.231  27.960   3.357
12139W        W78922   8.163  36.838   2.225
12140W        W78923  16.905  31.563  11.611
12141W        W78924  23.254  35.135   1.682
12142W        W78925   6.703  15.208  11.127
12143W        W78926   0.195  21.603  11.620
12144W        W78927   2.198  29.171   4.567
12145W        W78928  25.239   2.972  10.977
12146W        W78929  38.877  10.829   3.839
12147W        W78930  44.201  15.800  13.564
12148W        W78931  14.449   7.045   5.104
12149W        W78932   5.665   6.585   2.338
12150W        W78933  13.711   1.481   1.798
12151W        W78934   0.445  10.761  14.758
12152W        W78935  40.941  33.089   4.721
12153W        W78936   5.177   0.726   0.852
12154W        W78937  41.765  40.875   3.699
12155W        W78938   8.869   0.892   4.490
12156W        W78939  20.614  31.118  12.600
12157W        W78940  33.612   3.903  12.357
12158W        W78941   6.247   6.956   0.499
12159W        W78942  36.002  35.619  12.525
12160W        W78943  29.412  39.447  11.531
12161W        W78944  17.079  36.533  12.769
12162W        W78945  10.990  36.470  13.960
12163W        W78946  12.255   9.751   3.038
12164W        W78947   5.154   0.038   2.703
12165W        W78948  32.894  42.952  12.102
12166W        W78949  14.078  13.307   0.656
12167W        W78950  30.111  37.088  12.905
12168W        W78951  20.609  26.053  12.847
12169W        W78952  10.371  18.542  12.125
12170W        W78953  19.481  34.260  14.941
12171W        W78954  31.947  14.126  13.913
12172W        W78955  24.489  21.608   1.294
12173W        W78956  18.246   3.942  14.434
12174W        W78957  26.532  33.239   4.727
12175W        W78958  41.806  14.311  11.625
12176W        W78959  10.049  10.366   0.425
12177W        W78960  37.452  17.799   3.697
12178W        W78961  28.642   9.339  14.068
12179W        W78962  37.175  18.552  14.381
12180W        W78963  27.677  37.862   3.061
12181W        W78964   8.175  24.027   3.461
12182W        W78965  43.226   6.229   5.002
12183W        W78966  41.561   8.179  13.093
12184W        W78967  22.159   3.287  13.744
12185W        W78968   6.111  18.099   0.830
12186W        W78969   8.207   9.326   4.911
12187W        W78970  17.016  43.506  12.026
12188W        W78971  16.167  30.277   4.720
12189W        W78972  31.981  23.743   2.709
12190W        W78973  22.224  17.530  11.324
12191W        W78974  43.163  33.056   0.701
12192W        W78975  13.283  30.470   2.229
12193W        W78976  28.019  38.085  10.821
12194W        W78977  40.006  18.631   2.380
12195W        W78978  21.738  38.510   2.684
12196W        W78979  40.935   1.113  12.215
12197W        W78980  26.311  35.618   4.910
12198W        W78981  34.701  36.136  13.664
12199W        W78982   0.558  11.260   2.299
12200W        W78983  27.437   1.027   4.112
12201W        W78984   4.315  14.061  12.725
12202W        W78985  17.018   9.310  11.477
12203W        W78986  19.713   1.511   3.242
12204W        W78987   6.024  11.610   2.901
12205W        W78988  42.727  39.927  10.788
12206W        W78989   8.862  18.684  10.658
12207W        W78990  15.675  35.585   0.807
12208W        W78991   7.664  24.789  12.908
12209W        W78992  24.907  36.085  10.610
12210W        W78993  18.566   5.281   1.989
12211W        W78994  21.133  42.808   2.000
12212W        W78995  20.446   6.415  13.827
12213W        W78996  43.887  36.931   1.928
12214W        W78997  34.104  35.622   3.105
12215W        W78998  28.713  41.817  14.946
12216W        W78999  28.575  16.901  12.914
12217W        W79000   4.418   6.847  10.963
12218W        W79001   4.644  32.474  14.985
12219W        W79002  40.521  43.297   2.562
12220W        W79003  40.489  16.263  12.100
12221W        W79004  34.100   5.864  11.668
12222W        W79005  25.671  27.398  10.702
12223W        W79006  35.625  33.935  11.968
12224W        W79007  23.194  10.100  14.915
12225W        W79008  11.211  34.535  13.980
12226W        W79009  17.770   0.876   1.920
12227W        W79010  18.177  41.812   4.145
12228W        W79011  40.495  22.157  14.939
12229W        W79012  44.034   9.295  13.591
12230W        W79013  12.853  34.734  14.314
12231W        W79014  38.569  11.755  13.112
12232W        W79015  20.116  19.513  10.677
12233W        W79016  37.951   0.396   2.296
12234W        W79017  15.122  31.845   3.371
12235W        W79018  17.362  38.513   0.387
12236W        W79019  19.605  15.023   3.495
12237W        W79020  36.374  34.880   2.999
12238W        W79021  25.180  30.707   3.847
12239W        W79022  33.011  28.650   1.318
12240W        W79023   7.378  44.479   1.343
12241W        W79024  23.021  42.889   3.249
12242W        W79025   1.015  19.219  11.678
12243W        W79026  27.392  12.277   0.471
12244W        W79027  22.547  29.535  12.183
12245W        W79028  29.585  38.050  11.426
12246W        W79029  17.518  38.271  14.763
12247W        W79030  35.989  34.988  12.921
12248W        W79031   5.516  20.388  14.402
12249W        W79032  26.546  36.656   5.076
12250W        W79033   4.581  29.554   4.940
12251W        W79034   2.385  18.980  12.533
12252W        W79035  26.304  16.562   4.602
12253W        W79036  40.618  24.536  11.222
12254W        W79037   7.735  13.481  14.385
12255W        W79038   5.848   5.516   0.858
12256W        W79039  43.977  23.023   1.125
12257W        W79040  28.511  44.779   4.881
12258W        W79041  44.895  24.333  12.212
12259W        W79042  40.465   5.395   3.120
12260W        W79043  10.618   7.787  13.720
12261W        W79044  31.749   6.960   3.784
12262W        W79045  13.495  26.132  14.191
12263W        W79046  29.120  37.765  11.472
12264W        W79047  35.352  42.799  10.646
12265W        W79048  39.279   0.271  14.791
12266W        W79049  25.028  37.302   5.148
12267W        W79050  22.706  37.097   4.720
12268W        W79051  42.077  27.711  12.489
12269W        W79052  17.573   0.907  14.909
12270W        W79053  40.245  14.069   1.272
12271W        W79054  29.972  42.238   3.771
12272W        W79055  42.531  35.933  10.785
12273W        W79056  20.167   1.768   3.173
12274W        W79057   0.393  27.973  13.509
12275W        W79058   8.262   7.931   4.573
12276W        W79059  32.472   8.740  11.581
12277W        W79060   2.527  33.008   2.335
12278W        W79061  32.531  34.007  11.581
12279W        W79062   8.422  15.615  12.860
12280W        W79063   0.393  27.871   2.846
12281W        W79064  14.332  34.461   0.981
12282W        W79065   7.682  44.550  12.898
12283W        W79066  19.732  30.386  12.095
12284W        W79067  42.704  22.554  12.234
12285W        W79068  23.661  17.280   4.288
12286W        W79069   1.453  41.362  14.391
12287W        W79070  42.887  17.778   1.467
12288W        W79071  43.242  36.380  10.220
12289W        W79072  43.764   9.664  12.469
12290W        W79073  41.945  10.954   3.033
12291W        W79074  22.230  29.096   1.060
12292W        W79075  16.780  34.364  13.357
12293W        W79076   1.878   7.369  10.404
12294W        W79077  40.757  33.006   3.385
12295W        W79078  22.714  22.145  12.502
12296W        W79079   0.053   0.921   0.853
12297W        W79080  28.568  28.178  11.322
12298W        W79081  35.377  26.878  12.937
12299W        W79082   3.214  43.214  14.318
12300W        W79083  23.752  22.654  10.209
12301W        W79084  31.596   0.062   4.159
12302W        W79085   5.896  39.859  10.464
12303W        W79086   2.409  15.680  14.373
12304W        W79087   4.246  32.411   0.966
12305W        W79088  32.941  15.174   1.452
12306W        W79089  31.562  33.544   4.573
12307W        W79090  20.124  30.391   3.245
12308W        W79091  31.685  10.243   3.680
12309W        W79092  24.691  23.127  10.603
12310W        W79093  40.859  15.847  13.297
12311W        W79094  26.642   1.742  14.594
12312W        W79095  33.081   7.776  12.639
12313W        W79096   1.469   0.986   0.915
12314W        W79097  43.393  17.564   1.046
12315W        W79098  12.958  28.693   3.816
12316W        W79099  14.714  16.117  14.221
12317W        W79100  38.172  16.796  14.292
12318W        W79101  14.220  34.529   1.968
12319W        W79102  19.308  33.504  10.724
12320W        W79103  33.492  15.387  13.854
12321W        W79104  28.670  29.159   2.839
12322W        W79105  30.080  39.803   1.998
12323W        W79106  12.097   1.544   4.089
12324W        W79107  12.083   0.456  10.762
12325W        W79108  13.581  31.512   2.147
12326W        W79109  15.255  16.956   2.868
12327W        W79110   3.568  19.580   3.206
12328W        W79111  41.720  13.444  13.497
12329W        W79112  10.777  37.799  12.496
12330W        W79113  17.265  16.167   3.649
12331W        W79114  10.410   5.444   4.997
12332W        W79115  41.563   3.700   4.717
12333W        W79116  21.235  26.446  14.273
12334W        W79117  25.511  36.122  13.604
12335W        W79118  32.961   3.393  11.921
12336W        W79119  25.563  32.464  10.540
12337W        W79120  32.325  37.009  12.519
12338W        W79121  20.111   9.562   0.462
12339W        W79122  22.843  32.485  12.126
12340W        W79123  31.187  12.090  14.863
12341W        W79124  36.259  16.774   2.176
12342W        W79125  30.714  18.639   3.584
12343W        W79126  11.239   6.631  12.588
12344W        W79127  24.765   9.718  11.950
12345W        W79128  17.412  43.118   4.917
12346W        W79129  30.044  19.933   2.971
12347W        W79130  32.722  25.721   1.327
12348W        W79131   2.169  29.092  14.905
12349W        W79132   5.291   1.721  12.055
12350W        W79133  20.157  20.275   3.753
12351W        W79134  17.870  37.932  11.665
12352W        W79135  31.258  19.517  13.032
12353W        W79136  42.979   8.931   4.151
12354W        W79137  27.086  30.488   3.716
12355W        W79138  16.107   1.076   3.358
12356W        W79139   1.391  29.141  14.351
12357W        W79140   6.472  15.637   4.009
12358W        W79141  36.813  20.092  13.889
12359W        W79142  28.954   1.069  14.419
12360W        W79143   7.216  28.365   1.403
12361W        W79144   0.517  44.337  14.840
12362W        W79145  30.528  21.285  11.468
12363W        W79146  42.157  24.437   0.835
12364W        W79147  22.246   7.638  14.464
12365W        W79148  16.259  14.924   3.064
12366W        W79149  36.536  22.599   4.568
12367W        W79150  41.976   6.610  14.292
12368W        W79151  14.108  30.099  11.230
12369W        W79152  17.470   6.098  12.448
12370W        W79153  33.216  13.710  14.867
12371W        W79154  31.418  31.067  12.896
12372W        W79155  26.970  32.846  10.684
12373W        W79156  38.056  19.876   2.430
12374W        W79157  14.381  29.700   2.218
12375W        W79158   0.193   0.056   2.868
12376W        W79159   2.767  43.273  10.806
12377W        W79160  42.307  21.941  10.644
12378W        W79161  41.580  12.300   0.036
12379W        W79162  34.728   2.711  10.785
12380W        W79163  29.701  39.731  11.218
12381W        W79164  12.315  35.370  12.901
12382W        W79165  32.879  34.415   3.336
12383W        W79166  37.047  34.422   3.418
12384W        W79167  35.613   3.219   4.598
12385W        W79168  26.549   4.181  11.069
12386W        W79169   1.247  16.567   1.898
12387W        W79170   7.830  22.798  13.967
12388W        W79171  17.108  36.898  13.108
12389W        W79172  25.596   5.198   5.505
12390W        W79173   5.754  18.800   2.458
12391W        W79174  33.725  40.733  10.492
12392W        W79175  22.814  44.812   2.873
12393W        W79176  29.201  34.911  11.638
12394W        W79177  30.728  14.164   4.568
12395W        W79178   6.229   7.642  12.482
12396W        W79179   4.086  38.482   4.144
12397W        W79180  22.567  22.146   0.296
12398W        W79181   8.425  23.304   4.199
12399W        W79182  31.119  20.593  13.121
12400W        W79183  15.516  40.816   5.388
12401W        W79184  26.179  21.792   2.621
12402W        W79185   0.899  39.474   2.724
12403W        W79186  23.947  43.117   0.821
12404W        W79187  33.407  16.847  11.234
12405W        W79188  31.012   6.840  11.509
12406W        W79189  22.758  44.311  14.767
12407W        W79190  10.577   1.893  10.248
12408W        W79191  34.881   9.298  13.133
12409W        W79192  34.995  37.774   2.814
12410W        W79193  29.216  36.118   2.947
12411W        W79194  29.157   9.785  12.969
12412W        W79195  34.137   5.794  11.136
12413W        W79196  25.738  14.333  10.234
12414W        W79197  18.137   6.375   0.736
12415W        W79198   4.761  11.684   0.006
12416W        W79199  27.067  26.997   1.869
12417W        W79200  35.620  24.205   4.175
12418W        W79201   2.440  21.526   5.017
12419W        W79202  33.379  20.193   1.862
12420W        W79203  40.307  38.933   0.942
12421W        W79204   7.890   4.275  14.284
12422W        W79205  17.703  12.910  14.501
12423W        W79206  22.097   4.115   3.357
12424W        W79207  22.503  24.204   4.081
12425W        W79208   8.362  20.255   0.905
12426W        W79209  18.133   0.470   0.477
12427W        W79210  35.846  29.632   2.870
12428W        W79211  18.509  21.616  11.809
12429W        W79212  36.011   2.092   4.512
12430W        W79213  19.870  27.351  12.661
12431W        W79214  24.545  33.964   3.373
12432W        W79215  44.310  14.866  11.463
12433W        W79216  35.654  25.489   0.743
12434W        W79217  19.078  15.243   2.329
12435W        W79218   1.014  24.599  10.456
12436W        W79219   3.402  40.107  11.550
12437W        W79220  32.492  15.804  13.753
12438W        W79221   0.790  36.510   4.703
12439W        W79222  24.856  30.488   1.480
12440W        W79223   0.187  29.250  13.297
12441W        W79224   6.931  13.984  11.287
12442W        W79225  12.338  14.092   3.103
12443W        W79226  28.755  22.922  13.365
12444W        W79227   2.676  44.293  11.548
12445W        W79228  37.395  42.429  12.537
12446W        W79229  24.019  13.274  12.912
12447W        W79230  30.626  22.718   1.126
12448W        W79231  23.443  23.006  11.114
12449W        W79232  25.768   2.338   1.949
12450W        W79233  31.639  28.983   4.438
12451W        W79234  20.676  30.066   4.310
12452W        W79235  35.019   4.195  12.436
12453W        W79236  24.046  27.274   3.682
12454W        W79237   9.793   9.630  11.054
12455W        W79238  26.063  34.419   0.361
12456W        W79239  15.215  23.044  10.686
12457W        W79240  36.080  36.813   3.578
12458W        W79241  31.115   2.284  11.936
12459W        W79242  38.950  15.700   2.146
12460W        W79243  29.227  33.028  10.717
12461W        W79244  19.189  42.286   1.210
12462W        W79245   7.330  25.949  11.251
12463W        W79246   1.780   2.624  13.592
12464W        W79247  28.374   9.236   2.739
12465W        W79248  13.368   4.845   4.511
12466W        W79249  35.450  41.487  14.442
12467W        W79250  30.973   7.871   3.728
12468W        W79251  42.294  12.345   0.409
12469W        W79252   7.925  34.984   0.264
12470W        W79253  40.414   6.130   3.718
12471W        W79254   6.188  14.784  10.447
12472W        W79255  37.533  15.361  10.579
12473W        W79256   1.519  18.238  10.798
12474W        W79257   9.777  18.690   0.441
12475W        W79258  19.199   4.738  14.955
12476W        W79259  37.293   8.408  14.846
12477W        W79260  32.692  14.776   1.246
12478W        W79261  38.375  15.408   5.229
12479W        W79262  22.048  29.319  12.805
12480W        W79263  36.921  36.238   2.323
12481W        W79264  39.550  13.732   0.432
12482W        W79265  41.809   5.685  12.033
12483W        W79266  25.611   3.290   2.311
12484W        W79267  10.996   6.450   4.920
12485W        W79268  35.086  33.595  12.922
12486W        W79269   7.733   9.790   4.806
12487W        W79270  29.361  15.775   4.131
12488W        W79271  22.843   1.863   1.874
12489W        W79272   7.070  43.852  13.313
12490W        W79273   0.331  36.390   4.499
12491W        W79274  17.861  15.800   3.497
12492W        W79275  12.368   4.169   3.265
12493W        W79276  44.476  28.561   2.189
12494W        W79277   2.065  20.481  11.216
12495W        W79278  32.135  13.723   1.865
12496W        W79279   2.568  13.796   4.158
12497W        W79280  32.408  27.013  13.081
12498W        W79281  23.873  24.059  13.560
12499W        W79282   1.685  12.583   3.234
12500W        W79283  27.412  30.942   1.174
12501W        W79284   7.137  19.157  11.692
12502W        W79285  37.570  17.733   2.841
12503W        W79286  14.739  17.608  12.894
12504W        W79287  30.872  28.442  10.488
12505W        W79288  16.778   9.262  13.875
12506W        W79289  24.565  25.367  12.827
12507W        W79290   9.215  43.737   4.558
12508W        W79291   7.160  43.786   4.141
12509W        W79292  33.021  10.829  12.180
12510W        W79293  26.014  33.603  14.400
12511W        W79294  28.342   3.736  14.397
12512W        W79295  12.802  44.724   0.441
12513W        W79296  20.646  13.371  11.669
12514W        W79297  14.494  18.491  11.172
12515W        W79298  40.439  12.105  13.425
12516W        W79299  33.488   1.414   2.687
12517W        W79300  27.097   2.726  11.609
12518W        W79301  26.975  41.144   0.207
12519W        W79302  28.061  20.340  12.565
12520W        W79303  13.411  39.294  11.169
12521W        W79304  41.959  24.681  11.468
12522W        W79305  20.033   6.620  14.742
12523W        W79306  37.753  28.188  12.857
12524W        W79307  41.243  39.180   3.650
12525W        W79308  21.506   4.695  13.178
12526W        W79309  30.960  24.621  12.357
12527W        W79310  23.575   1.986  11.172
12528W        W79311  43.465  19.000  11.547
12529W        W79312  23.941  39.366  10.659
12530W        W79313  34.109  29.489   3.115
12531W        W79314  34.209  15.875   1.355
12532W        W79315  11.089  20.143  11.956
12533W        W79316  17.011  36.272  11.975
12534W        W79317  23.145  22.541   4.100
12535W        W79318   4.536  17.660  11.159
12536W        W79319  16.146  27.410   2.226
12537W        W79320  11.559  43.128  10.923
12538W        W79321  40.893  38.118  12.963
12539W        W79322  26.984  27.818   1.281
12540W        W79323  27.409  23.267   1.484
12541W        W79324  26.069   3.058   1.168
12542W        W79325  24.199   1.756   1.303
12543W        W79326  34.184   4.890  12.158
12544W        W79327   8.598  10.550   3.459
12545W        W79328  34.896  13.641  11.614
12546W        W79329  35.388  40.558  11.850
12547W        W79330  28.045   6.971   5.083
12548W        W79331  11.753   5.903  13.775
12549W        W79332  12.400   7.276  13.863
12550W        W79333  12.260  28.841  12.036
12551W        W79334  36.285  26.679   3.728
12552W        W79335  41.324  30.739   2.888
12553W        W79336  25.098  19.346   4.102
12554W        W79337  39.244  44.245   0.958
12555W        W79338  43.365  18.385   4.929
12556W        W79339   2.248   3.477   3.787
12557W        W79340  38.027  14.779  14.725
12558W        W79341  27.569  17.607   2.901
12559W        W79342  17.540  29.996   0.063
12560W        W79343  35.514  26.542   1.780
12561W        W79344  10.371  12.851   3.317
12562W        W79345  21.965  26.091  14.897
12563W        W79346  39.854  17.680   3.836
12564W        W79347  11.320  13.068  11.272
12565W        W79348   4.689  25.474  12.865
12566W        W79349  44.898  20.057  12.999
12567W        W79350  21.815  15.740   4.089
12568W        W79351  24.639  17.721   2.861
12569W        W79352   8.051  16.411   3.566
12570W        W79353  16.207  13.317  11.116
12571W        W79354  32.795  40.472   0.047
12572W        W79355  25.683  36.493   3.765
12573W        W79356  37.140  44.769  10.757
12574W        W79357   5.860  20.109   4.129
12575W        W79358  38.317  11.824  13.583
12576W        W79359   6.432  30.952   4.958
12577W        W79360  34.156  24.683   5.107
12578W        W79361  24.566  25.997  14.915
12579W        W79362  14.328  26.764   3.125
12580W        W79363  10.680  39.448  11.509
12581W        W79364  17.640  37.149  11.964
12582W        W79365  31.364  31.929  11.652
12583W        W79366  27.406  20.661  11.702
12584W        W79367  42.247  14.494   3.140
12585W        W79368  39.442  39.940   1.864
12586W        W79369  37.448  11.234   3.559
12587W        W79370  12.618  11.824   1.427
12588W        W79371  35.838   4.862   4.540
12589W        W79372  11.144  42.657   2.572
12590W        W79373  18.404  42.883  11.599
12591W        W79374   2.819  10.343   3.781
12592W        W79375  20.451   0.843   3.401
12593W        W79376  15.315  31.114  13.905
12594W        W79377  11.174  35.856   0.303
12595W        W79378  42.970  10.427  10.572
12596W        W79379   7.387  33.426  12.980
12597W        W79380   8.179  39.835   0.801
12598W        W79381  23.530  11.185  13.035
12599W        W79382  12.988  19.073  10.834
12600W        W79383  10.599  38.845   1.902
12601W        W79384  20.983  21.124  13.439
12602W        W79385   3.891  34.802   3.163
12603W        W79386   3.983  28.980   4.389
12604W        W79387  19.194  15.978   0.485
12605W        W79388   1.176  34.961  12.828
12606W        W79389  35.645  35.621   3.269
12607W        W79390  21.761  37.781  11.937
12608W        W79391   7.631  34.732   2.079
12609W        W79392  19.494  22.245  14.416
12610W        W79393   7.896   8.837  11.454
12611W        W79394  16.191  41.363  12.422
12612W        W79395   2.222  31.967   1.232
12613W        W79396  31.464  30.899   3.175
12614W        W79397  12.358  14.548  14.494
12615W        W79398  17.450  35.818   2.425
12616W        W79399  27.032  42.002   5.671
12617W        W79400   9.921  32.159  13.976
12618W        W79401   7.122  31.497  13.979
12619W        W79402  14.395  39.941   4.165
12620W        W79403  36.343  25.672   0.296
12621W        W79404  22.649  38.028  13.174
12622W        W79405  29.817  27.780   3.711
12623W        W79406  11.118  35.175  13.502
12624W        W79407  23.089  27.074   0.865
12625W        W79408  32.433   3.217   2.175
12626W        W79409  20.575   0.800  13.128
12627W        W79410  40.234  30.616   4.537
12628W        W79411  16.553   6.402   1.209
12629W        W79412  32.566  19.474   2.968
12630W        W79413  25.221  13.749   0.527
12631W        W79414  21.142  18.594  11.461
12632W        W79415  28.962   4.891   1.375
12633W        W79416  25.759  30.602   2.261
12634W        W79417  40.999  19.635  12.162
12635W        W79418  23.151   9.194  13.046
12636W        W79419  26.629  17.431   5.062
12637W        W79420  33.724   0.931   2.555
12638W        W79421  15.165  36.999   0.336
12639W        W79422  16.514   8.223  12.423
12640W        W79423  32.949  12.733  13.730
12641W        W79424  38.772  21.732  11.826
12642W        W79425  14.239  37.438  11.674
12643W        W79426   5.883  11.606   1.418
12644W        W79427  27.674  15.214   3.378
12645W        W79428  34.044   1.244  12.454
12646W        W79429   0.576  29.673  14.567
12647W        W79430   8.118  10.654  11.459
12648W        W79431   1.831  30.570   3.209
12649W        W79432  12.117  20.785   3.910
12650W        W79433  25.517  42.837   2.358
12651W        W79434   0.773  17.191   2.234
12652W        W79435  28.539   7.069   0.048
12653W        W79436   9.643  16.728   3.024
12654W        W79437  13.369  19.138  14.948
12655W        W79438  27.989  25.893   1.384
12656W        W79439  32.897   7.736  13.939
12657W        W79440  14.114  44.995  12.502
12658W        W79441  23.921  43.496  14.549
12659W        W79442  15.538  18.223   3.291
12660W        W79443  39.054  38.586  12.525
12661W        W79444   2.205  14.929  11.604
12662W        W79445  26.091  37.886  14.975
12663W        W79446  32.882  28.861   3.120
12664W        W79447  36.656  23.623  12.473
12665W        W79448  13.198  28.583  11.269
12666W        W79449   2.001  24.505  12.934
12667W        W79450   0.348   9.738   3.328
12668W        W79451  12.167  43.793   1.291
12669W        W79452   3.958  37.074   0.010
12670W        W79453  24.754   2.877   2.259
12671W        W79454  29.507  19.147   0.216
12672W        W79455  35.528  28.541  11.929
12673W        W79456  24.246  20.326   1.687
12674W        W79457  16.687  37.386   3.406
12675W        W79458  13.659  24.697   1.935
12676W        W79459  20.770   4.374  14.281
12677W        W79460   3.006  25.096  12.644
12678W        W79461  36.965  19.150   0.313
12679W        W79462  25.192  33.829  11.142
12680W        W79463  12.249   3.096  12.621
12681W        W79464  35.975   8.473   0.936
12682W        W79465  17.683  41.893  12.111
12683W        W79466   8.779  16.695   4.607
12684W        W79467  26.172  27.742  12.402
12685W        W79468  34.419  36.033  11.586
12686W        W79469  11.316  41.700   0.345
12687W        W79470   9.992  42.580  11.156
12688W        W79471  17.584  32.108   3.260
12689W        W79472   3.317  12.068   0.987
12690W        W79473  42.072  40.639  12.879
12691W        W79474  31.056  10.030  14.338
12692W        W79475  41.253  14.805   2.852
12693W        W79476  28.147  39.099   3.275
12694W        W79477  26.538   4.375  10.582
12695W        W79478  20.581   7.499   0.286
12696W        W79479  11.660  37.921   4.370
12697W        W79480   1.420  11.408   1.849
12698W        W79481   5.099  17.485   0.292
12699W        W79482  19.633  23.602   0.306
12700W        W79483  27.171  33.111   2.120
12701W        W79484  43.884   6.758  14.672
12702W        W79485  19.080  31.586  10.652
12703W        W79486  11.836  27.979   4.996
12704W        W79487  11.717  24.746  11.458
12705W        W79488  41.316   7.817   0.926
12706W        W79489  23.785  11.849   1.783
12707W        W79490  16.786  24.558   3.559
12708W        W79491  28.150  25.885  14.973
12709W        W79492   5.217  12.099  12.427
12710W        W79493  13.838  28.993  12.552
12711W        W79494  16.272  41.654   4.695
12712W        W79495   8.910   9.271  13.310
12713W        W79496  32.569  25.015   0.439
12714W        W79497  18.550  29.133   4.131
12715W        W79498  44.686  34.206   1.223
12716W        W79499  21.795  24.774   3.713
12717W        W79500  39.377  22.918  11.446
12718W        W79501  23.107   9.613   2.918
12719W        W79502  34.166  11.822  13.212
12720W        W79503  42.432   0.354   1.309
12721W        W79504  42.790  27.686   0.476
12722W        W79505  20.680   3.015   0.117
12723W        W79506   8.001   0.048   1.213
12724W        W79507  28.427  15.813   3.634
12725W        W79508  37.095   2.306  12.368
12726W        W79509  17.878   8.729   3.270
12727W        W79510  17.334  16.200  13.521
12728W        W79511   8.458  29.521  14.307
12729W        W79512  43.501  11.907   1.759
12730W        W79513  19.309  35.553  14.387
12731W        W79514   8.525  18.077  12.115
12732W        W79515  39.976  27.675  11.775
12733W        W79516   7.246   4.875  14.823
12734W        W79517  37.505  24.160   2.434
12735W        W79518  24.513   1.940   4.056
12736W        W79519   5.713  27.927   2.194
12737W        W79520  37.326  23.987   0.215
12738W        W79521   1.900   0.821  12.006
12739W        W79522  38.997  41.252  13.669
12740W        W79523  11.360  17.546  14.425
12741W        W79524  40.564  21.982  12.893
12742W        W79525  41.554  28.852   0.283
12743W        W79526  12.256  19.696   2.798
12744W        W79527  18.720   6.648   4.147
12745W        W79528   0.543   2.770  12.740
12746W        W79529  11.674   5.198  14.473
12747W        W79530  16.366  10.705   1.779
12748W        W79531   9.339  34.944  11.856
12749W        W79532  38.529  36.738  11.669
12750W        W79533  25.740  32.041   0.499
12751W        W79534  33.876  36.853   0.656
12752W        W79535   5.409  30.035   1.200
12753W        W79536  16.762  39.451   1.458
12754W        W79537  42.472  32.697   1.293
12755W        W79538   7.655  42.995  13.901
12756W        W79539  27.528   7.814  14.976
12757W        W79540  15.845   2.989   1.314
12758W        W79541  27.700  33.477   5.048
12759W        W79542  14.194  31.972   2.352
12760W        W79543  12.798  25.459  14.458
12761W        W79544  24.544   3.665  14.473
12762W        W79545  15.214  19.076   1.333
12763W        W79546  36.649  10.621   3.953
12764W        W79547  43.100  29.428   0.808
12765W        W79548  41.002   5.683  14.818
12766W        W79549  23.730  13.377   2.818
12767W        W79550  20.418  36.770   0.639
12768W        W79551   7.870  11.744  11.390
12769W        W79552   2.215  10.560   2.878
12770W        W79553  28.378  22.542   4.489
12771W        W79554  27.635  20.081   4.428
12772W        W79555  24.104   5.142   1.803
12773W        W79556  36.293  36.246  13.799
12774W        W79557  12.659  12.631  12.473
12775W        W79558  31.534  24.802   0.892
12776W        W79559  11.981  35.886   0.775
12777W        W79560  25.474  14.749  11.585
12778W        W79561  35.586   4.323   3.710
12779W        W79562   0.335  22.560  11.873
12780W        W79563  23.713  13.897   3.731
12781W        W79564   7.739  18.517   4.371
12782W        W79565  42.252  27.228   3.625
12783W        W79566  18.078  11.736  13.880
12784W        W79567  30.486  36.296   2.546
12785W        W79568  42.809   6.470   2.737
12786W        W79569  35.049  44.102   3.308
12787W        W79570  41.483  19.328  14.003
12788W        W79571  21.017  31.107  10.534
12789W        W79572   2.817  31.737  13.118
12790W        W79573  41.077  38.543  14.842
12791W        W79574  29.648   5.807  13.100
12792W        W79575  20.909  14.710   1.246
12793W        W79576  18.661  29.631  13.429
12794W        W79577  16.621  36.672  12.961
12795W        W79578  14.540  30.560  12.908
12796W        W79579  30.005  22.568   0.322
12797W        W79580  21.571  13.266   0.972
12798W        W79581   9.881  43.794  10.428
12799W        W79582  13.688  20.760  14.026
12800W        W79583  34.563  10.356   2.268
12801W        W79584   8.000  44.333   4.928
12802W        W79585  33.158   6.842   0.555
12803W        W79586  27.214  29.529  12.244
12804W        W79587  20.711  38.572  14.287
12805W        W79588  25.474  25.565  12.068
12806W        W79589  37.732  38.862  13.605
12807W        W79590  42.322  38.856   4.894
12808W        W79591   1.740  44.238  12.414
12809W        W79592  28.093  44.898   4.601
12810W        W79593  34.545  37.507  13.644
12811W        W79594  33.027  29.599   4.610
12812W        W79595  16.729  14.317  14.840
12813W        W79596   0.924  21.678  12.861
12814W        W79597  15.093  21.147   4.467
12815W        W79598  27.503  27.391  14.143
12816W        W79599  24.437  39.732   2.401
12817W        W79600  18.719  36.876  10.702
12818W        W79601  31.458  32.661   4.128
12819W        W79602  19.001  12.730   0.175
12820W        W79603  12.551   3.366  10.253
12821W        W79604  11.310   1.442   4.676
12822W        W79605  39.395   6.495  12.495
12823W        W79606  30.747   3.338   2.374
12824W        W79607  12.264  44.930  12.541
12825W        W79608  19.680  12.591  14.297
12826W        W79609   0.484  23.707  11.110
12827W        W79610  23.494  31.831  10.492
12828W        W79611  17.348  24.712  12.181
12829W        W79612  42.875  23.139  11.559
12830W        W79613  22.734  10.734   4.460
12831W        W79614  25.101  19.913  10.764
12832W        W79615  15.747  12.721   4.677
12833W        W79616   0.333  44.526  11.108
12834W        W79617  24.036  38.078   3.240
12835W        W79618  31.887   5.912  12.986
12836W        W79619  16.989  41.015   0.505
12837W        W79620  22.172  11.489   0.816
12838W        W79621  13.772  32.925   1.782
12839W        W79622  26.880  11.076   1.214
12840W        W79623   8.255  32.862   0.959
12841W        W79624  24.852  17.339  11.901
12842W        W79625   8.362  12.577  10.478
12843W        W79626  34.476  31.490   1.807
12844W        W79627  30.099  14.881  13.299
12845W        W79628  21.604  16.168   5.665
12846W        W79629  12.316   8.415  12.577
12847W        W79630   4.757  18.491   3.363
12848W        W79631  30.933  30.049   3.454
12849W        W79632  38.502   6.478  11.885
12850W        W79633  33.130   6.356   1.442
12851W        W79634   5.807  23.873  13.337
12852W        W79635  28.552   3.309   1.493
12853W        W79636  38.941   7.907   2.875
12854W        W79637  25.712   9.829  11.671
12855W        W79638  16.189  42.037  10.630
12856W        W79639   9.834  18.193  10.789
12857W        W79640  44.090  30.107   0.197
12858W        W79641  36.978   2.478  11.375
12859W        W79642  32.549  37.050   2.329
12860W        W79643   5.648  23.466   1.504
12861W        W79644  34.038  33.229  12.200
12862W        W79645  32.572  22.772   0.903
12863W        W79646  22.132  40.565   0.946
12864W        W79647  27.854  11.552   4.493
12865W        W79648  25.042  21.801  12.395
12866W        W79649  36.737  18.633   4.262
12867W        W79650  24.504  24.448   4.568
12868W        W79651  24.721  18.648  11.786
12869W        W79652  31.886  26.107   1.736
12870W        W79653  41.010  29.455  11.564
12871W        W79654  20.733  13.642  13.715
12872W        W79655  41.090   8.284  12.899
12873W        W79656   3.824   8.699  12.427
12874W        W79657   2.767  28.557  11.478
12875W        W79658  44.776  13.179  13.391
12876W        W79659  31.321  28.681  10.596
12877W        W79660  31.640  30.125  13.904
12878W        W79661  13.099  35.364   0.938
12879W        W79662  13.811  25.220  14.567
12880W        W79663  11.242  21.623   4.437
12881W        W79664  21.000  12.826  11.088
12882W        W79665  20.039  15.719   3.600
12883W        W79666  27.666  31.441   4.562
12884W        W79667  35.513  32.123   3.609
12885W        W79668  29.609  33.881   0.146
12886W        W79669  18.313  25.557   2.682
12887W        W79670  43.268  22.711   2.325
12888W        W79671   0.490  15.845   0.513
12889W        W79672  39.058   4.333  13.991
12890W        W79673  25.490   7.361  11.162
12891W        W79674  39.515  17.114  10.641
12892W        W79675   2.274  10.356  13.422
12893W        W79676  38.333   5.833  10.911
12894W        W79677  41.680  36.132  11.043
12895W        W79678   2.457  25.612   0.650
12896W        W79679  31.745   5.411   1.843
12897W        W79680  14.738  18.072  14.952
12898W        W79681  11.356  32.422   3.107
12899W        W79682  33.995  32.049   4.632
12900W        W79683  22.864   4.814  12.591
12901W        W79684   8.711  30.633  11.477
12902W        W79685  17.753  24.195   4.641
12903W        W79686  16.561  20.348   0.450
12904W        W79687  36.813  21.652   2.218
12905W        W79688  25.055  33.499  10.475
12906W        W79689  44.407  32.497  12.127
12907W        W79690  16.731  41.940  10.551
12908W        W79691  26.568  19.765  12.816
12909W        W79692  19.001   0.182  13.577
12910W        W79693   1.184  30.550   4.888
12911W        W79694  19.944  39.382   3.115
12912W        W79695  20.745  20.542   5.008
12913W        W79696  34.941  18.035   2.364
12914W        W79697  31.523  10.301   1.371
12915W        W79698  33.863   8.115   4.053
12916W        W79699  25.071  44.343  10.596
12917W        W79700  34.685   9.134   0.406
12918W        W79701  13.773   7.303  11.304
12919W        W79702  12.565  19.095  11.152
12920W        W79703  32.957  27.212   3.693
12921W        W79704  16.604  30.025   4.598
12922W        W79705  18.928  18.134   3.375
12923W        W79706  25.896   4.536  14.344
12924W        W79707  17.589  41.870  13.481
12925W        W79708  15.215  28.546   0.292
12926W        W79709  43.508  38.597  11.119
12927W        W79710  33.139  18.181  10.614
12928W        W79711  41.566   7.920  13.533
12929W        W79712   5.742  29.536   2.854
12930W        W79713  21.746   6.863  12.786
12931W        W79714   1.873  19.284  10.608
12932W        W79715  36.032  20.166  12.996
12933W        W79716   5.719   8.353   1.835
12934W        W79717  20.005  41.832  11.139
12935W        W79718  24.468  38.920   3.661
12936W        W79719  13.751  10.639   4.952
12937W        W79720  43.799   1.152   3.082
12938W        W79721   0.975   9.745   0.833
12939W        W79722  11.901  42.199   1.886
12940W        W79723  11.805  19.056   3.592
12941W        W79724  28.558  43.746   3.584
12942W        W79725  32.602   6.089  11.484
12943W        W79726  36.778  12.049  13.113
12944W        W79727   9.877   3.512   0.774
12945W        W79728  23.331  37.211  10.454
12946W        W79729  38.250  37.156   3.024
12947W        W79730   4.696   2.722  10.687
12948W        W79731  32.858  30.746   1.399
12949W        W79732   2.233  24.052  14.085
12950W        W79733  43.974  44.217  11.128
12951W        W79734   9.256   0.944  13.981
12952W        W79735   6.516  27.147   3.099
12953W        W79736   1.467  35.697  11.591
12954W        W79737  42.818  41.786   0.475
12955W        W79738   2.278  34.586  14.683
12956W        W79739   3.725  30.656   3.190
12957W        W79740   8.321  30.779  11.782
12958W        W79741  26.049  23.455   0.514
12959W        W79742  34.340  41.719   1.823
12960W        W79743  13.666  34.708   1.827
12961W        W79744  14.838   2.386   3.449
12962W        W79745  39.199   5.857  10.639
12963W        W79746  42.290   5.372  12.180
12964W        W79747  36.670  34.518  10.775
12965W        W79748  34.597  22.686  11.622
12966W        W79749   5.816   5.269  13.565
12967W        W79750   4.535   4.741  11.644
12968W        W79751   8.727   5.593  12.118
12969W        W79752  15.801  22.274   3.908
12970W        W79753  15.482   0.997   4.840
12971W        W79754  36.605   7.493   2.734
12972W        W79755  32.425  12.115  11.808
12973W        W79756  44.840  28.442  10.661
12974W        W79757   9.927  16.085   1.919
12975W        W79758  34.037  16.831   1.289
12976W        W79759  27.159  42.845  13.865
12977W        W79760  19.186   2.233   1.778
12978W        W79761   5.255   2.382   0.456
12979W        W79762  38.806  33.966  10.773
12980W        W79763  32.611   1.358   0.982
12981W        W79764  39.794  43.818   0.310
12982W        W79765  37.828   4.972   2.830
12983W        W79766  31.086  20.101   2.273
12984W        W79767  37.602  37.033  12.840
12985W        W79768   1.990  26.562  12.033
12986W        W79769  20.566  10.527   2.062
12987W        W79770   2.050  39.605  11.715
12988W        W79771  31.119  14.203  13.670
12989W        W79772  32.589  15.083  11.189
12990W        W79773  17.491  12.438   2.711
12991W        W79774  42.017   0.410   4.748
12992W        W79775  43.775  38.518   3.413
12993W        W79776  20.771  18.076  13.899
12994W        W79777  35.437  38.159  11.277
12995W        W79778  18.323  18.299   1.346
12996W        W79779   5.783  32.691  11.911
12997W        W79780  31.441  12.158   2.258
12998W        W79781  38.502  13.283   3.839
12999W        W79782  16.645  15.838  12.779
13000W        W79783   7.708  21.523   0.888
13001W        W79784   3.993  23.506  14.454
13002W        W79785  38.810  14.935  12.186
13003W        W79786  23.645  31.216   1.237
13004W        W79787  28.089  14.312  12.615
13005W        W79788  27.635  31.691  12.255
13006W        W79789  30.443  33.163  14.112
13007W        W79790   6.693   6.744   3.607
13008W        W79791  39.987  12.779  11.449
13009W        W79792   4.329   1.188  13.318
13010W        W79793  27.046  26.529  11.840
13011W        W79794   0.011   3.872   0.842
13012W        W79795  37.067  39.188   3.272
13013W        W79796  25.961  36.845  12.163
13014W        W79797   4.195  40.293   1.764
13015W        W79798  34.991   2.720   1.486
13016W        W79799  21.317  19.677  14.778
13017W        W79800  21.969  36.892   2.228
13018W        W79801  20.661   5.478   3.636
13019W        W79802  40.035  34.921   3.074
13020W        W79803  22.753  42.052   1.814
13021W        W79804  23.640  39.058   3.360
13022W        W79805  44.994  41.428  11.187
13023W        W79806  32.573  21.500   0.296
13024W        W79807   5.893   2.382   1.783
13025W        W79808  33.810  16.755  11.621
13026W        W79809  28.445  42.554   4.563
13027W        W79810  24.987  13.378  12.427
13028W        W79811  29.076  22.758  12.111
13029W        W79812   5.752  44.277  10.395
13030W        W79813  21.738  17.592  12.550
13031W        W79814  44.788   6.269   0.432
13032W        W79815  38.421  18.295   4.202
13033W        W79816  36.389  27.254  14.107
13034W        W79817  17.539  21.747   3.735
13035W        W79818  21.904  33.087  11.160
13036W        W79819   4.411  11.782  11.128
13037W        W79820  43.866   3.313   2.845
13038W        W79821  35.865  15.965   1.673
13039W        W79822  36.673   6.124   1.070
13040W        W79823  36.275  15.397   4.555
13041W        W79824  24.512  22.497  13.557
13042W        W79825  25.305  30.890   2.342
13043W        W79826   3.508  11.242   1.902
13044W        W79827  42.932  20.302   0.737
13045W        W79828  31.024  38.007  14.139
13046W        W79829  20.743  25.989  11.859
13047W        W79830  15.022  23.129   3.315
13048W        W79831  26.408   6.189  14.333
13049W        W79832  15.850   9.862   3.229
13050W        W79833  31.638  13.618   1.705
13051W        W79834  44.190  38.699   3.166
13052W        W79835   8.830   2.736  14.734
13053W        W79836  27.752  30.123  11.850
13054W        W79837  43.201  21.242  12.404
13055W        W79838  39.119  34.673   0.418
13056W        W79839  41.457   6.868  13.435
13057W        W79840  40.201   7.606  13.638
13058W        W79841  38.898  13.243   3.511
13059W        W79842  15.192  40.828   2.319
13060W        W79843  39.087  24.117   1.823
13061W        W79844   9.412  41.503   5.041
13062W        W79845  12.752   9.792   1.360
13063W        W79846  44.531  41.352   0.072
13064W        W79847  40.249   5.317   2.653
13065W        W79848   8.587  34.097  11.646
13066W        W79849  35.427  44.353   3.613
13067W        W79850  34.508  43.553   1.364
13068W        W79851  18.851  30.591   2.257
13069W        W79852  42.101  44.480   5.027
13070W        W79853   3.393  38.014   1.629
13071W        W79854  38.866  29.759   3.364
13072W        W79855  20.801  15.331   2.808
13073W        W79856  26.873  21.622   4.722
13074W        W79857   9.615  18.228   3.811
13075W        W79858   0.369  18.768   4.675
13076W        W79859   1.447  19.829   4.125
13077W        W79860  41.500  25.354   0.240
13078W        W79861  28.105  24.711   3.334
13079W        W79862  32.484  35.327   2.203
13080W        W79863  18.157  35.356  14.008
13081W        W79864  20.979  28.155   3.225
13082W        W79865  44.295  13.245  10.269
13083W        W79866  37.103  43.962  10.751
13084W        W79867  41.020  23.734  10.711
13085W        W79868  40.001  23.301   0.293
13086W        W79869  42.546  35.343   2.397
13087W        W79870  32.732  22.754   2.356
13088W        W79871   0.809   1.821   2.747
13089W        W79872  23.960  17.768  10.678
13090W        W79873  14.612  24.731  12.982
13091W        W79874  39.482  13.218   2.094
13092W        W79875  32.173  26.295   2.805
13093W        W79876  20.835  12.549   3.630
13094W        W79877  25.562  12.012  11.639
13095W        W79878  30.855   9.219   2.720
13096W        W79879  37.866  21.761  13.835
13097W        W79880  44.684   1.952  14.888
13098W        W79881  13.377  33.001   0.361
13099W        W79882  39.050  13.881   2.684
13100W        W79883  19.123  27.631   3.425
13101W        W79884  32.125  31.106   1.859
13102W        W79885  16.339  23.039  14.556
13103W        W79886  36.408  33.992   2.448
13104W        W79887  23.192  24.699  14.394
13105W        W79888  24.986  19.834   4.248
13106W        W79889  25.517  18.134   0.755
13107W        W79890  12.821  31.844   3.337
13108W        W79891   1.415  20.496   1.421
13109W        W79892  10.655  31.851   2.338
13110W        W79893  26.156  14.640  12.080
13111W        W79894  27.844  41.242  13.026
13112W        W79895   2.299  42.269   3.220
13113W        W79896  18.506  17.235  14.923
13114W        W79897  40.557  42.010   4.139
13115W        W79898  38.162   5.368   1.680
13116W        W79899  31.456  38.378   2.286
13117W        W79900  24.208  27.658   1.372
13118W        W79901  43.977  28.368   1.263
13119W        W79902  44.454  10.293   1.694
13120W        W79903  37.399  21.453  14.895
13121W        W79904  24.580  29.473   2.212
13122W        W79905  32.129  10.918   4.629
13123W        W79906  14.526  21.698  11.100
13124W        W79907   1.779  27.101   0.369
13125W        W79908  22.010   0.602  11.413
13126W        W79909  37.411  41.061   4.150
13127W        W79910  16.338  13.094   0.269
13128W        W79911  11.623  11.239   3.624
13129W        W79912  26.040  34.721  14.455
13130W        W79913  33.104   4.812   4.389
13131W        W79914  42.891  18.084  11.369
13132W        W79915  22.824   0.758   3.667
13133W        W79916  12.420  20.564  13.995
13134W        W79917  40.852  39.428   0.231
13135W        W79918  34.546  29.876  11.230
13136W        W79919  31.030  38.782  11.054
13137W        W79920  17.880  18.143   3.652
13138W        W79921  44.569  44.236   4.287
13139W        W79922  34.680  18.234   1.918
13140W        W79923  31.492   0.973  14.041
13141W        W79924   1.526  12.220   4.939
13142W        W79925   7.273  44.150  14.908
13143W        W79926  32.540  20.057   1.191
13144W        W79927  27.209  15.182   2.485
13145W        W79928  38.277  37.926  11.832
13146W        W79929  13.247  32.974  14.409
13147W        W79930  11.699  24.785   1.246
13148W        W79931  18.313  30.477  14.985
13149W        W79932  37.889  19.281  14.421
13150W        W79933  36.402   4.798   0.869
13151W        W79934  36.533  36.026  10.693
13152W        W79935  39.916   3.767  10.902
13153W        W79936   3.908  42.967  13.530
13154W        W79937  32.999  18.210  10.134
13155W        W79938  18.617  12.050  13.455
13156W        W79939  27.174  18.132   1.985
13157W        W79940   4.220  26.652  12.461
13158W        W79941  26.018  29.520  13.014
13159W        W79942  32.820  44.536  11.548
13160W        W79943  38.318   8.354   1.322
13161W        W79944   4.315  10.008   0.537
13162W        W79945  26.722  30.692  11.934
13163W        W79946  25.497  33.291   2.184
13164W        W79947  43.250  24.926   3.704
13165W        W79948  26.619  11.062   1.758
13166W        W79949   0.761   4.330  13.844
13167W        W79950  40.917  34.503  13.326
13168W        W79951  36.798  39.821   0.974
13169W        W79952  43.533  30.827  11.142
13170W        W79953   5.871  21.647   4.310
13171W        W79954  36.514  44.861   2.932
13172W        W79955  16.134  40.263  10.767
13173W        W79956  26.224  15.659  14.336
13174W        W79957   5.822  40.554  12.932
13175W        W79958   4.634  28.672   4.603
13176W        W79959   9.219  30.012   2.808
13177W        W79960  43.267  38.409  13.773
13178W        W79961   2.281  22.545  13.349
13179W        W79962  29.870  43.542   3.788
13180W        W79963  26.499  38.446  12.808
13181W        W79964  39.606   6.582  14.470
13182W        W79965  30.832  12.304  13.762
13183W        W79966   0.059   4.783  13.721
13184W        W79967   1.890  30.123  12.162
13185W        W79968   7.335  20.442   0.449
13186W        W79969   3.966   7.936  14.334
13187W        W79970  16.165   9.198   4.248
13188W        W79971  10.121  11.282   4.609
13189W        W79972  41.826  41.815  10.502
13190W        W79973   9.086  26.143   2.332
13191W        W79974  39.463  18.802   1.491
13192W        W79975  28.082  36.631  10.655
13193W        W79976  10.839   6.347  14.045
13194W        W79977  31.362  16.697   4.770
13195W        W79978  19.820  18.714  12.891
13196W        W79979  39.578  32.684  14.113
13197W        W79980  31.974  26.473   4.626
13198W        W79981  29.573  31.708  14.793
13199W        W79982   8.190  30.360   4.927
13200W        W79983  38.840   8.626   1.208
13201W        W79984  14.823  40.966   2.846
13202W        W79985  41.156  39.918  13.650
13203W        W79986  13.058  22.637  12.476
13204W        W79987  12.492  19.746   3.262
13205W        W79988   2.862  12.831   0.459
13206W        W79989  17.136  15.707   3.946
13207W        W79990   0.855  17.644   3.142
13208W        W79991  38.911  25.250  14.034
13209W        W79992   4.349  34.614  12.128
13210W        W79993   3.810  32.665   1.361
13211W        W79994  34.660  15.341   2.928
13212W        W79995  35.556  24.087   3.633
13213W        W79996  34.720  23.712   0.892
13214W        W79997  21.831   7.866   2.298
13215W        W79998  18.755  38.830  11.113
13216W        W79999  21.557  15.264  12.451
13217W        W80000   0.047   1.872  14.548
13218W        W80001  28.869  19.535   0.181
13219W        W80002  21.012  37.423   1.358
13220W        W80003   4.958  17.227   0.987
13221W        W80004  14.991  12.507  12.952
13222W        W80005  17.335  21.075   0.346
13223W        W80006  38.047  35.454  11.418
13224W        W80007  33.085  19.423  11.011
13225W        W80008  22.337   3.168  12.983
13226W        W80009  25.750  38.266  11.075
13227W        W80010   9.807  11.383  10.581
13228W        W80011   7.957  44.508   3.169
13229W        W80012   6.499  12.741  13.596
13230W        W80013  11.565  38.376  14.757
13231W        W80014  17.126  27.601   0.254
13232W        W80015  12.291  37.509   4.814
13233W        W80016  37.600   5.857  14.851
13234W        W80017  36.427  20.005   1.240
13235W        W80018  30.685  11.023  13.383
13236W        W80019   0.416  26.914   2.991
13237W        W80020  30.507   2.883   1.356
13238W        W80021  21.575  25.030   0.279
13239W        W80022  23.137   0.246  12.806
13240W        W80023  35.615  33.190   2.877
13241W        W80024  44.815  17.284   2.554
13242W        W80025  38.105   4.922  12.222
13243W        W80026   4.318  41.017  11.659
13244W        W80027  38.442  30.829  14.335
13245W        W80028  43.541   2.252  14.082
13246W        W80029   9.237  37.579   4.588
13247W        W80030  27.518   4.256  14.215
13248W        W80031  25.419  21.596  14.872
13249W        W80032  13.234  31.135   0.976
13250W        W80033  13.028  15.337  13.372
13251W        W80034  29.945  35.796  12.586
13252W        W80035  15.684   7.134   4.023
13253W        W80036  41.746   6.831  13.879
13254W        W80037  36.362  33.479   0.353
13255W        W80038  26.886  42.523   9.741
13256W        W80039  37.390   8.168   4.457
13257W        W80040  12.015  40.467   3.648
13258W        W80041  24.774  27.391   3.365
13259W        W80042  23.548  40.489   4.516
13260W        W80043  21.523   2.208  12.973
13261W        W80044  44.422  14.769  13.275
13262W        W80045  21.504  37.156   2.214
13263W        W80046   1.331   2.535   4.016
13264W        W80047  24.500  36.957  10.902
13265W        W80048  24.524  25.229   0.314
13266W        W80049  13.723  13.309   2.880
13267W        W80050   0.813   3.357   4.998
13268W        W80051  19.764   6.720   0.544
13269W        W80052  19.778  24.863  13.882
13270W        W80053  40.992  12.399   2.244
13271W        W80054  16.288  21.617  10.704
13272W        W80055  39.762  16.139  14.899
13273W        W80056  33.613  24.227  11.531
13274W        W80057  29.096  35.401   0.637
13275W        W80058  18.745  28.538  14.027
13276W        W80059  18.017  22.697   4.392
13277W        W80060  43.445  42.463  14.716
13278W        W80061  15.651  19.266   3.312
13279W        W80062  21.840  27.869  13.416
13280W        W80063  28.127  17.058   1.173
13281W        W80064  12.665  18.749   3.304
13282W        W80065   2.798  21.794   2.891
13283W        W80066  11.696  29.142   3.750
13284W        W80067  38.337  41.889  14.533
13285W        W80068  13.200  40.836  12.084
13286W        W80069  16.347   9.723   3.185
13287W        W80070  32.693  32.033   1.837
13288W        W80071  30.157  21.783  14.153
13289W        W80072   1.773  11.328   2.622
13290W        W80073  38.816  36.672   3.752
13291W        W80074  20.539  15.094   3.246
13292W        W80075  12.362   5.910   2.513
13293W        W80076  35.492  23.688   2.334
13294W        W80077  34.675  40.999  14.365
13295W        W80078  14.816   6.928   3.340
13296W        W80079  20.875  28.944   2.818
13297W        W80080   1.773  31.623  10.723
13298W        W80081  18.764  34.966   2.225
13299W        W80082   9.213  43.289   4.852
13300W        W80083   9.282  20.784  10.737
13301W        W80084  43.783  28.447  10.693
13302W        W80085   6.108  10.507   1.154
13303W        W80086   8.146  15.587   0.795
13304W        W80087  11.532   0.896   1.772
13305W        W80088   7.116  28.013  10.485
13306W        W80089  40.938  22.858   2.259
13307W        W80090  14.139   6.806  12.917
13308W        W80091  14.108  21.284   4.272
13309W        W80092  35.527  13.170   0.877
13310W        W80093  35.762  28.993  11.232
13311W        W80094  43.136  14.568  11.127
13312W        W80095   7.131  30.575   3.259
13313W        W80096  42.723  10.417  12.054
13314W        W80097  34.288  11.906  11.390
13315W        W80098  21.403  35.148   3.103
13316W        W80099  43.517  13.593  11.467
13317W        W80100  29.781  36.489   3.671
13318W        W80101  32.961  24.499  13.422
13319W        W80102  30.971  24.625   4.322
13320W        W80103  16.555   6.995   2.832
13321W        W80104  27.617  37.410  10.707
13322W        W80105  34.898  41.878  10.832
13323W        W80106  27.905   7.751   2.170
13324W        W80107  16.197  43.582  13.781
13325W        W80108  29.547  21.407  11.259
13326W        W80109  36.109  19.856   5.360
13327W        W80110  14.766   3.765   3.867
13328W        W80111   9.360  44.459  10.575
13329W        W80112  17.115  10.258   4.964
13330W        W80113  38.418  27.627  11.363
13331W        W80114  40.867  14.578  11.865
13332W        W80115  27.576  22.349   2.231
13333W        W80116  15.732  14.448  13.974
13334W        W80117   5.434  37.404   3.172
13335W        W80118  41.008  37.310   4.944
13336W        W80119   4.194  13.181  10.962
13337W        W80120  37.213  20.974   0.050
13338W        W80121  23.284  40.890  10.525
13339W        W80122  32.174  26.997  13.548
13340W        W80123  27.684  21.322   1.184
13341W        W80124   7.414  32.026  11.451
13342W        W80125  29.887  13.209   0.932
13343W        W80126  20.069  11.790   2.359
13344W        W80127  13.267  30.698   5.097
13345W        W80128  12.869  13.201   2.193
13346W        W80129  40.171  12.222   4.325
13347W        W80130  37.138  24.559  10.620
13348W        W80131   4.903  26.706  14.773
13349W        W80132  15.842  14.405  10.659
13350W        W80133  35.337  10.604  10.544
13351W        W80134   3.968  19.899   3.075
13352W        W80135  20.053  16.901   4.627
13353W        W80136  42.831  38.624   4.148
13354W        W80137   0.991  36.010   4.728
13355W        W80138  25.992   2.092  12.703
13356W        W80139  21.713  11.102   0.096
13357W        W80140  20.635  28.686  14.348
13358W        W80141  11.742  21.542  11.108
13359W        W80142  23.463  10.499   3.757
13360W        W80143  42.012  12.729   9.886
13361W        W80144  12.734  14.397  14.115
13362W        W80145   4.343  31.872   2.734
13363W        W80146  26.255  14.141   2.765
13364W        W80147  16.325  13.083  14.700
13365W        W80148  16.214  37.524   3.668
13366W        W80149  18.186   9.271  14.035
13367W        W80150  33.107  24.647   5.074
13368W        W80151  12.375  36.136  14.224
13369W        W80152  37.910  22.122  11.469
13370W        W80153  25.025  27.164  13.415
13371W        W80154  36.586   0.366   1.712
13372W        W80155  40.529   4.417  11.161
13373W        W80156  13.903  41.989   4.199
13374W        W80157  42.762   4.294   0.967
13375W        W80158  13.572  43.403  10.690
13376W        W80159  26.720  27.416   4.093
13377W        W80160  37.659   7.381   2.836
13378W        W80161  13.103   1.848  14.074
13379W        W80162  20.507  35.590   2.131
13380W        W80163  18.598   5.819  13.984
13381W        W80164  29.483  31.702  13.884
13382W        W80165  30.363  18.615  13.523
13383W        W80166  22.295  19.208   2.883
13384W        W80167  20.146  26.273  12.930
13385W        W80168   2.039   0.377   0.502
13386W        W80169   0.304  13.420   3.574
13387W        W80170  41.285   7.795   1.441
13388W        W80171   0.960  11.173  11.240
13389W        W80172  23.498  35.599   3.363
13390W        W80173  25.495  43.184  11.024
13391W        W80174  18.789  32.255  11.136
13392W        W80175  34.665  18.305   1.010
13393W        W80176  23.109  40.406  11.230
13394W        W80177  12.704   4.849  11.561
13395W        W80178  34.506   3.272  13.038
13396W        W80179  36.340  33.919  14.572
13397W        W80180  34.583  28.929  14.453
13398W        W80181  15.852  29.643   2.244
13399W        W80182  40.549  44.079  11.868
13400W        W80183  43.431  10.770  13.123
13401W        W80184  19.058  16.498   4.560
13402W        W80185  13.751   7.442  13.593
13403W        W80186  23.432  40.947  13.995
13404W        W80187  42.553  13.329   2.696
13405W        W80188   5.762  34.896  10.734
13406W        W80189  10.663  41.015  10.550
13407W        W80190  43.752  23.530  14.844
13408W        W80191   0.916  23.418  13.496
13409W        W80192  35.353  29.171  13.022
13410W        W80193  37.603  36.423  11.177
13411W        W80194   4.513   9.244   3.116
13412W        W80195  44.131  16.793   2.400
13413W        W80196  22.835  18.226   4.672
13414W        W80197   5.626  30.723  14.984
13415W        W80198  23.184  40.442  12.184
13416W        W80199  41.288  31.524  12.904
13417W        W80200  43.825  40.790   2.253
13418W        W80201  35.920   0.650   4.083
13419W        W80202  15.619  16.386  11.469
13420W        W80203  33.592   8.930   2.811
13421W        W80204  41.760  16.665   1.159
13422W        W80205  14.015  43.209  14.351
13423W        W80206  18.675  31.923   3.714
13424W        W80207  29.832  34.299   0.686
13425W        W80208   2.684  26.005  11.001
13426W        W80209   6.247  32.533  12.137
13427W        W80210  43.368  26.562  10.495
13428W        W80211  34.442   5.316  14.897
13429W        W80212   4.729  11.735  13.981
13430W        W80213  19.837  41.315  12.001
13431W        W80214  28.821  19.084   2.865
13432W        W80215  10.808  15.066  11.554
13433W        W80216  18.860  14.680  11.857
13434W        W80217  40.447  39.899  11.703
13435W        W80218  28.029  40.407  11.682
13436W        W80219   1.253   7.666   4.136
13437W        W80220  42.012  40.942  12.410
13438W        W80221  28.727  21.118  11.628
13439W        W80222  18.538   2.753   2.766
13440W        W80223  21.651   2.617   3.662
13441W        W80224  10.834  21.800  14.683
13442W        W80225  15.830  33.422   0.811
13443W        W80226  16.779  29.219  12.161
13444W        W80227   4.503  33.378   3.922
13445W        W80228  35.988  19.454  11.136
13446W        W80229  30.952  44.334   3.486
13447W        W80230  34.077  34.551  10.330
13448W        W80231  18.610  12.528  12.343
13449W        W80232   6.964  29.155  13.889
13450W        W80233  21.207  31.847  13.924
13451W        W80234  29.023  17.104  13.054
13452W        W80235  31.133  16.609  12.416
13453W        W80236  27.660  42.777  13.693
13454W        W80237  20.617  35.283   1.740
13455W        W80238   8.251  19.237  12.772
13456W        W80239  26.659  33.755   3.649
13457W        W80240  10.132   9.759   3.134
13458W        W80241  43.468  16.894   0.692
13459W        W80242   1.496  11.580  10.651
13460W        W80243  34.147   3.439   2.491
13461W        W80244   0.083  30.748  11.034
13462W        W80245  38.313  20.543  12.963
13463W        W80246  28.937  20.485   3.221
13464W        W80247  17.205  29.905  14.010
13465W        W80248   9.826   1.690  10.745
13466W        W80249   9.572  42.955  13.835
13467W        W80250  15.827   8.323  13.958
13468W        W80251  19.205  38.426   1.048
13469W        W80252  11.905  25.877   3.233
13470W        W80253   6.596  13.581  12.529
13471W        W80254  12.730  30.331   3.372
13472W        W80255  17.068   2.172  13.897
13473W        W80256  12.356  29.133   2.561
13474W        W80257  29.473   5.319   3.856
13475W        W80258   9.246  17.261   1.481
13476W        W80259  11.868  17.627   2.376
13477W        W80260  17.974  26.565   0.198
13478W        W80261  14.599  27.014  11.409
13479W        W80262   0.422  42.755   4.154
13480W        W80263  40.000  31.688   2.745
13481W        W80264   0.477  18.203   0.748
13482W        W80265  24.191  19.606  14.142
13483W        W80266  21.124  33.135   3.770
13484W        W80267  15.851  38.177  13.617
13485W        W80268  36.818  12.070  10.785
13486W        W80269  30.146  22.867  11.030
13487W        W80270   8.968  35.834   1.724
13488W        W80271  39.101  40.397   2.826
13489W        W80272  24.532   1.947   0.858
13490W        W80273  31.150  11.151  10.280
13491W        W80274   1.937  12.276   0.052
13492W        W80275  30.189  19.776   4.417
13493W        W80276  36.400  20.988   0.746
13494W        W80277  30.833  17.317  13.936
13495W        W80278  36.828  32.279  11.947
13496W        W80279  17.290   1.716  11.769
13497W        W80280  30.171   0.831   2.416
13498W        W80281   0.888  22.039   0.919
13499W        W80282  27.363  11.373   0.787
13500W        W80283  10.135  38.114   4.055
13501W        W80284  23.148   9.302   4.176
13502W        W80285  37.621  24.692   2.594
13503W        W80286  14.054   3.772  11.035
13504W        W80287  27.702  36.624   2.096
13505W        W80288  11.537   8.746   1.967
13506W        W80289  21.245  13.646   4.204
13507W        W80290   2.667  12.711   4.580
13508W        W80291  20.587  14.289  12.506
13509W        W80292  35.498  35.709  11.188
13510W        W80293   9.716   6.381  10.718
13511W        W80294  20.343   4.829   2.314
13512W        W80295  21.021  30.789  12.504
13513W        W80296  19.787   4.523  11.880
13514W        W80297  29.056  37.054   4.680
13515W        W80298  42.877  10.304   5.002
13516W        W80299  40.193  28.652   2.176
13517W        W80300  17.804  32.196   3.715
13518W        W80301  14.678  11.724   1.487
13519W        W80302  42.982  17.757  13.547
13520W        W80303   1.730  38.458   1.276
13521W        W80304  40.342  21.606   0.078
13522W        W80305  14.805  23.527  12.882
13523W        W80306  38.767  24.980  13.073
13524W        W80307  22.971  36.971  13.042
13525W        W80308  15.800  17.971  10.703
13526W        W80309  11.639   0.449  10.505
13527W        W80310  21.457  35.449   1.902
13528W        W80311  44.768  39.439  11.412
13529W        W80312  26.218  32.927   3.626
13530W        W80313  18.706  30.415   4.571
13531W        W80314  43.337   8.140   0.204
13532W        W80315   9.855   2.792  13.228
13533W        W80316  35.194   1.675   3.274
13534W        W80317  20.174   9.802   4.812
13535W        W80318   3.462  24.128  13.605
13536W        W80319  10.557  11.360   2.725
13537W        W80320  40.437  17.148   4.614
13538W        W80321   6.046  37.344  12.729
13539W        W80322  31.935  11.896   3.641
13540W        W80323  22.133  13.739  12.363
13541W        W80324  15.754  10.147   2.670
13542W        W80325  40.601  15.390  13.413
13543W        W80326  20.652  39.274   0.622
13544W        W80327  10.278  30.447   0.318
13545W        W80328  29.041  13.148   4.488
13546W        W80329   7.708  32.550   3.771
13547W        W80330  44.415   5.782  10.658
13548W        W80331  23.238  37.093  10.951
13549W        W80332  13.649  42.036   1.913
13550W        W80333  12.742  31.658   2.058
13551W        W80334  28.066  39.619   3.278
13552W        W80335  44.401  15.400  13.307
13553W        W80336   2.213  33.417   2.282
13554W        W80337   4.530   5.002  12.535
13555W        W80338   4.242  27.995   2.859
13556W        W80339  29.337  25.684  11.126
13557W        W80340  44.341  14.171  14.703
13558W        W80341  43.970  30.634   2.296
13559W        W80342   3.376  23.132  11.053
13560W        W80343  37.363  42.166  14.736
13561W        W80344  19.182   8.214  10.662
13562W        W80345  28.196  18.678   4.098
13563W        W80346   6.951  42.518   3.073
13564W        W80347  20.713  24.480   4.883
13565W        W80348  11.221  42.325  14.269
13566W        W80349  41.984  37.617   0.466
13567W        W80350   9.243  15.794  13.449
13568W        W80351  35.958  20.254  14.927
13569W        W80352  40.108  14.164  14.629
13570W        W80353  20.032  37.500  13.387
13571W        W80354   5.887  24.193   4.130
13572W        W80355  15.193  19.054   3.356
13573W        W80356  15.583  19.949  11.884
13574W        W80357  17.882   0.919   0.743
13575W        W80358  32.159  21.699   2.819
13576W        W80359  43.322  36.038   3.651
13577W        W80360   5.754  38.135   2.179
13578W        W80361  37.296  23.014   2.867
13579W        W80362  27.622  35.374  11.647
13580W        W80363  13.080  35.324   3.275
13581W        W80364   5.085  28.593   4.864
13582W        W80365  40.854  42.978   2.828
13583W        W80366  36.833  12.276  11.649
13584W        W80367   6.945  20.129   0.271
13585W        W80368  33.998  31.896  12.644
13586W        W80369  17.656   5.404  13.842
13587W        W80370  17.241  14.099   1.449
13588W        W80371  43.312  25.106  14.280
13589W        W80372  30.199   0.624  11.822
13590W        W80373  27.189  22.208   1.431
13591W        W80374  26.581   9.461   3.103
13592W        W80375  25.565  10.379   3.684
13593W        W80376  22.534  42.040  10.977
13594W        W80377  32.050  15.257  12.036
13595W        W80378  11.678  20.314   4.894
13596W        W80379   3.251  24.714   2.605
13597W        W80380   5.143   8.900   2.347
13598W        W80381   1.422  15.863   0.324
13599W        W80382  37.661   5.274   3.246
13600W        W80383  42.574  27.228   0.407
13601W        W80384  31.574  30.472  11.563
13602W        W80385   5.141   0.237   0.994
13603W        W80386  43.822  44.464   4.771
13604W        W80387  23.781  17.706   3.358
13605W        W80388  44.530  24.617  13.896
13606W        W80389  15.253  21.012  11.038
13607W        W80390  27.907  17.518   3.346
13608W        W80391  25.388  43.676   2.184
13609W        W80392  18.843   5.865  13.496
13610W        W80393   3.676   9.176  12.351
13611W        W80394  32.022   2.358  14.849
13612W        W80395   8.419  19.780   4.687
13613W        W80396   8.278   7.359  10.059
13614W        W80397  25.030  39.919   3.411
13615W        W80398  41.029  44.702  12.149
13616W        W80399  13.865   2.991   4.430
13617W        W80400  28.001  18.847  10.733
13618W        W80401  14.387  35.422  11.115
13619W        W80402  41.050   8.698   0.448
13620W        W80403  10.614  17.976   3.277
13621W        W80404  17.780   3.917   1.927
13622W        W80405  14.048  23.623   0.864
13623W        W80406  12.559  43.346  14.448
13624W        W80407  43.564   8.129  12.034
13625W        W80408  40.267  41.937   0.659
13626W        W80409  41.610  14.314  13.012
13627W        W80410  28.296  22.983   0.879
13628W        W80411  36.444   6.375   0.533
13629W        W80412  25.105   1.525  13.909
13630W        W80413  13.747   6.596   1.415
13631W        W80414  22.165  18.139  13.967
13632W        W80415  12.849  12.740   1.480
13633W        W80416  41.387  23.257  13.516
13634W        W80417  20.937  37.350   0.369
13635W        W80418  40.035  15.556  13.095
13636W        W80419   3.902  37.346   4.099
13637W        W80420  25.128  38.881  11.566
13638W        W80421  40.775  43.254  14.913
13639W        W80422  43.239  11.703   3.273
13640W        W80423  16.868  18.224  12.125
13641W        W80424  23.144  14.507  12.890
13642W        W80425  11.646  31.984   1.427
13643W        W80426   9.844   0.256   3.373
13644W        W80427  36.443  41.585   0.786
13645W        W80428  14.958  14.299   4.505
13646W        W80429  38.079   7.677   4.169
13647W        W80430  12.033  18.711   3.904
13648W        W80431   7.320  39.090  14.312
13649W        W80432   1.203  11.854   5.179
13650W        W80433  18.418   7.698   3.358
13651W        W80434  10.706   8.124   0.900
13652W        W80435  33.116  34.596   3.755
13653W        W80436   1.759   1.589  12.844
13654W        W80437   7.147  39.569  14.369
13655W        W80438  30.962  12.657   3.830
13656W        W80439  10.235  25.494  10.511
13657W        W80440  35.988   2.250  11.035
13658W        W80441  30.331  29.882   3.628
13659W        W80442  42.365   7.813  11.361
13660W        W80443   1.039  43.215  13.338
13661W        W80444  16.092  28.251   3.637
13662W        W80445  36.721  23.670  11.155
13663W        W80446  26.627  25.610  13.159
13664W        W80447  28.448   6.061  10.768
13665W        W80448  40.179  33.144   1.480
13666W        W80449  33.916  32.887  11.837
13667W        W80450  19.110  25.493   1.842
13668W        W80451  15.533  35.623  13.274
13669W        W80452  32.386  43.185  11.999
13670W        W80453  24.998   6.416  10.491
13671W        W80454  32.077  41.792  11.621
13672W        W80455  29.619  35.474  14.462
13673W        W80456   5.305  11.130  14.397
13674W        W80457   2.837  34.291  13.978
13675W        W80458  43.044  21.653  12.128
13676W        W80459  23.028  33.086   0.518
13677W        W80460  21.571  16.583   3.329
13678W        W80461  25.437  27.078   0.904
13679W        W80462  40.453  18.913  12.000
13680W        W80463  27.141  37.058  14.422
13681W        W80464  11.273  15.630  11.009
13682W        W80465  26.979  27.071  14.369
13683W        W80466   8.961  16.675  14.343
13684W        W80467  19.383  25.431   1.232
13685W        W80468  27.038  26.111  12.107
13686W        W80469  23.174   7.742   0.420
13687W        W80470  23.885   9.079  13.087
13688W        W80471   6.816  21.239   1.387
13689W        W80472  25.116  25.697   1.734
13690W        W80473   4.348  26.944   0.387
13691W        W80474  37.416  22.542   1.804
13692W        W80475   0.371  38.600   2.630
13693W        W80476  33.047   3.326   0.540
13694W        W80477  33.649  14.605  10.412
13695W        W80478   3.330  44.191  10.431
13696W        W80479   3.318  13.746   1.282
13697W        W80480  41.458  26.404  11.057
13698W        W80481  30.231  16.632   2.903
13699W        W80482  24.701  32.022   1.932
13700W        W80483   8.388  34.517   1.699
13701W        W80484  24.952  16.583  12.067
13702W        W80485  25.531   5.287   2.415
13703W        W80486  38.263  25.804  13.413
13704W        W80487   8.142   1.169  14.903
13705W        W80488  32.829  34.095  13.067
13706W        W80489  39.422   4.315  14.399
13707W        W80490   8.485  36.355  11.583
13708W        W80491  10.097  41.667   9.913
13709W        W80492  20.200   3.925  11.209
13710W        W80493  27.045  35.609  11.482
13711W        W80494  35.841   7.171  12.475
13712W        W80495  42.330  28.146  13.227
13713W        W80496  19.655  13.750   4.081
13714W        W80497  23.645  44.624   4.495
13715W        W80498  29.533  28.410   3.721
13716W        W80499  44.296  12.930   2.252
13717W        W80500  43.706   9.442  14.492
13718W        W80501   2.827  43.018   0.437
13719W        W80502  34.578  36.871  14.895
13720W        W80503  18.196  23.436   1.281
13721W        W80504   6.614  27.161   0.855
13722W        W80505  42.216  24.937   1.214
13723W        W80506   0.955  23.934  13.438
13724W        W80507  22.244  23.586   0.466
13725W        W80508   0.301  32.915   3.602
13726W        W80509  43.396   5.394   3.222
13727W        W80510  43.351  25.116   0.945
13728W        W80511  36.513  28.600  14.497
13729W        W80512  39.619  16.064  13.053
13730W        W80513  23.517  12.374   2.682
13731W        W80514  19.952  16.163  11.709
13732W        W80515  40.328  20.141   2.263
13733W        W80516  20.666  17.583   0.958
13734W        W80517  12.691   0.541   2.676
13735W        W80518  25.522  12.424  14.256
13736W        W80519   9.429  28.820   3.264
13737W        W80520  25.593   3.608   3.688
13738W        W80521  13.985  25.271   4.176
13739W        W80522  44.388  34.033   1.903
13740W        W80523  36.132  13.271   3.592
13741W        W80524  35.114   9.831   1.676
13742W        W80525  24.488  33.487  10.477
13743W        W80526  18.928  15.747   3.707
13744W        W80527  22.201  40.244  13.460
13745W        W80528  17.078  29.867   1.768
13746W        W80529  39.492  13.943  11.794
13747W        W80530  11.705   0.372   2.611
13748W        W80531  26.629  40.276  12.110
13749W        W80532  37.419  41.793  12.782
13750W        W80533  34.681  13.167   3.459
13751W        W80534  26.593   9.110  14.392
13752W        W80535  35.183  12.444   1.320
13753W        W80536   0.920  17.912   0.657
13754W        W80537  23.262  41.330   2.273
13755W        W80538  34.997   5.933   9.658
13756W        W80539  30.559   6.350   3.901
13757W        W80540  24.347  35.906   2.846
13758W        W80541   9.744   2.491  11.144
13759W        W80542  40.430  20.890  11.047
13760W        W80543  35.459  18.501   2.369
13761W        W80544   9.215  10.547   2.822
13762W        W80545   2.663  39.099  11.142
13763W        W80546  39.403   1.291  14.525
13764W        W80547  10.285  32.107   1.292
13765W        W80548   3.319  42.295  12.004
13766W        W80549  34.888  37.291   4.245
13767W        W80550  15.463  21.621  14.426
13768W        W80551  41.629  21.705   0.701
13769W        W80552  38.975  22.669   1.514
13770W        W80553   5.004  26.904   0.434
13771W        W80554   5.647  17.065  11.433
13772W        W80555   8.833   9.665   2.735
13773W        W80556  14.732  39.596  10.112
13774W        W80557  31.372  39.214  14.275
13775W        W80558  18.660   7.677  14.546
13776W        W80559  30.635  42.894   0.296
13777W        W80560   3.657   1.380   2.562
13778W        W80561  21.249  21.809  10.641
13779W        W80562  14.880   4.806   2.648
13780W        W80563  19.219  17.853  10.586
13781W        W80564  16.077  19.769  13.017
13782W        W80565   1.323  37.222   2.833
13783W        W80566  31.034  35.094   2.237
13784W        W80567  21.880  23.893  14.673
13785W        W80568  26.244   8.969   1.757
13786W        W80569   5.331  19.733  12.741
13787W        W80570  38.258  36.385   0.571
13788W        W80571   5.076  43.894   2.692
13789W        W80572   2.266   8.906   1.676
13790W        W80573  24.349  27.936   2.606
13791W        W80574  20.745  25.955  10.903
13792W        W80575   6.620  14.420  12.929
13793W        W80576  37.910  29.456  12.439
13794W        W80577  21.476  29.165   2.159
13795W        W80578  21.036  11.726  13.840
13796W        W80579  12.736  27.272   3.766
13797W        W80580  35.668  15.702   2.927
13798W        W80581   5.234  16.679  13.945
13799W        W80582  26.663  30.166  11.202
13800W        W80583   2.484  16.655   3.244
13801W        W80584  36.937  33.506  10.774
13802W        W80585  35.857  20.292  14.036
13803W        W80586  38.669   2.401  13.801
13804W        W80587   3.399   1.046  11.612
13805W        W80588  44.943  27.119  10.813
13806W        W80589  12.376  18.340  11.199
13807W        W80590  22.668   5.494  11.006
13808W        W80591  44.009  38.806   1.194
13809W        W80592  14.727   1.383   4.351
13810W        W80593  43.033  36.806  11.895
13811W        W80594  11.711  39.401   2.232
13812W        W80595   0.997   7.176  13.947
13813W        W80596  38.506   9.578  14.386
13814W        W80597  23.193  35.498   0.841
13815W        W80598  10.820  29.288   3.242
13816W        W80599   2.431  23.936   4.180
13817W        W80600  41.258  38.083   1.603
13818W        W80601  35.627  13.069   4.455
13819W        W80602  42.906  24.653   2.371
13820W        W80603  15.535  10.747  13.002
13821W        W80604  34.684  27.935  10.563
13822W        W80605  31.853  24.404  12.071
13823W        W80606  38.945  41.740  13.537
13824W        W80607   8.396  20.223  12.047
13825W        W80608  39.368   3.418   1.519
13826W        W80609  14.159  28.640   0.446
13827W        W80610  14.359   4.520   4.284
13828W        W80611  23.989  36.340  14.478
13829W        W80612  21.608  14.180  12.500
13830W        W80613   5.222   2.038  13.033
13831W        W80614  34.124  28.490   3.584
13832W        W80615  14.815  28.336   3.368
13833W        W80616  38.208  14.124   0.331
13834W        W80617  21.580  43.002   2.895
13835W        W80618  32.641  30.724   3.848
13836W        W80619   1.452  28.465  11.632
13837W        W80620  10.675  42.827  12.920
13838W        W80621   6.619  25.942   2.794
13839W        W80622   9.365  41.775   2.641
13840W        W80623  44.830  42.270   2.896
13841W        W80624  34.560  38.323   3.090
13842W        W80625  16.995  25.111   2.823
13843W        W80626  43.061  40.354   3.575
13844W        W80627  36.557  13.884  14.390
13845W        W80628  22.540   7.311   4.700
13846W        W80629  25.108  39.740   2.913
13847W        W80630   7.696  18.311  11.102
13848W        W80631  15.081  32.428  14.001
13849W        W80632   7.856  30.527  10.423
13850W        W80633   7.690  32.681   0.441
13851W        W80634  25.594   1.422   0.491
13852W        W80635  35.910  19.633  13.103
13853W        W80636  19.045  22.163   1.640
13854W        W80637  29.397  12.852  13.870
13855W        W80638  20.907  21.286   2.781
13856W        W80639   7.144  27.443   1.319
13857W        W80640   4.997  37.433  12.804
13858W        W80641  20.651   2.308  12.860
13859W        W80642   7.131  44.175   3.801
13860W        W80643  10.601   4.157   3.247
13861W        W80644  43.714   8.095   0.972
13862W        W80645   9.658  25.657  12.559
13863W        W80646  30.566  12.136  14.226
13864W        W80647  28.675  34.670  13.565
13865W        W80648  22.443   6.949   5.043
13866W        W80649  39.194   0.439  14.281
13867W        W80650  38.739  12.281   3.793
13868W        W80651  33.670   9.849   4.822
13869W        W80652  22.478  27.278  11.170
13870W        W80653  28.033  41.301   5.505
13871W        W80654   3.365  16.537   1.730
13872W        W80655   3.904  31.486   3.923
13873W        W80656  44.531  40.049  11.958
13874W        W80657   3.408  18.775   0.736
13875W        W80658  19.635  15.848  11.444
13876W        W80659   8.930  30.022   3.233
13877W        W80660  32.431  15.198   1.486
13878W        W80661  31.847  24.721   3.800
13879W        W80662  12.838   7.455  11.584
13880W        W80663  38.908  25.263  11.686
13881W        W80664  38.485  30.692   3.339
13882W        W80665  14.436  28.262   1.374
13883W        W80666  28.674  30.869  13.426
13884W        W80667   8.174  42.934  13.938
13885W        W80668  11.367   9.798  13.810
13886W        W80669  17.744  37.631  12.892
13887W        W80670   7.603  37.495   3.306
13888W        W80671  15.534  28.998   0.404
13889W        W80672  32.130   6.703   0.541
13890W        W80673  42.861   9.145  12.540
13891W        W80674  13.799   9.840   1.442
13892W        W80675  19.265  22.191  13.451
13893W        W80676  11.066  42.983  11.675
13894W        W80677  23.415  43.632   0.333
13895W        W80678  20.286  43.205   2.311
13896W        W80679  11.155  16.913  10.464
13897W        W80680   4.556  34.411  12.544
13898W        W80681  20.086  44.913  14.022
13899W        W80682   5.401   8.405   4.607
13900W        W80683  13.419  39.962   3.802
13901W        W80684   5.232   0.534  14.144
13902W        W80685  26.812  32.471   3.139
13903W        W80686  30.957  39.535  12.159
13904W        W80687  41.987  34.501   0.551
13905W        W80688  42.987   3.735  13.977
13906W        W80689  17.804   8.548   1.009
13907W        W80690  34.837   9.348   0.942
13908W        W80691  14.788  28.918   0.965
13909W        W80692  37.032  33.024  12.840
13910W        W80693  20.543  44.926  12.874
13911W        W80694  12.030  21.352  13.517
13912W        W80695  44.505  19.090   4.609
13913W        W80696  29.633  23.196  14.748
13914W        W80697   5.210  25.587  12.881
13915W        W80698  14.382  37.496   3.326
13916W        W80699  27.608  33.839   1.726
13917W        W80700  30.323  29.590  14.836
13918W        W80701   6.962   0.349  11.325
13919W        W80702  37.473  26.703   0.444
13920W        W80703  34.637   2.212   0.740
13921W        W80704  40.249   3.996  11.835
13922W        W80705  43.285  20.192   3.158
13923W        W80706  40.380  31.485   3.028
13924W        W80707   2.192  33.396   3.796
13925W        W80708   3.773  12.141   4.165
13926W        W80709  39.431   3.849   0.049
13927W        W80710  13.053   0.969  11.975
13928W        W80711  43.807  12.779  13.606
13929W        W80712   0.918  17.186   4.148
13930W        W80713  11.038  25.450  14.953
13931W        W80714   0.307   8.849   3.655
13932W        W80715  20.680  39.753   3.018
13933W        W80716  26.675  19.196  12.515
13934W        W80717  18.608  17.566   3.631
13935W        W80718  10.046  37.358   9.988
13936W        W80719  43.079  25.928  12.466
13937W        W80720  39.999  34.159   2.799
13938W        W80721   2.387   6.595   2.450
13939W        W80722  19.233  26.269  12.863
13940W        W80723  10.330  31.194  14.770
13941W        W80724  43.444  25.463   2.115
13942W        W80725  27.255  41.354  14.853
13943W        W80726  31.193   6.298  13.755
13944W        W80727  40.261   1.220   4.552
13945W        W80728   9.145  21.170   0.861
13946W        W80729  39.782   8.992   2.894
13947W        W80730  41.378  26.119  10.627
13948W        W80731  37.690  18.693   3.253
13949W        W80732   5.480  43.703   4.591
13950W        W80733  28.583  37.961   2.895
13951W        W80734  38.568   8.422  11.158
13952W        W80735   5.889  11.161  14.329
13953W        W80736  23.029  30.569   2.469
13954W        W80737  20.229  24.561  12.155
13955W        W80738   6.092  34.777   1.176
13956W        W80739  29.368   4.540   3.251
13957W        W80740   5.942  17.032   2.861
13958W        W80741  20.120  25.518  14.909
13959W        W80742   0.709  23.648   1.231
13960W        W80743  41.306  43.480   1.908
13961W        W80744   0.803   3.146  12.976
13962W        W80745  29.979  42.514  10.725
13963W        W80746  39.346  24.455  11.667
13964W        W80747  25.535  41.302   2.884
13965W        W80748  11.598  30.268   1.945
13966W        W80749  36.398  10.640  10.005
13967W        W80750   6.708  11.632   2.250
13968W        W80751  10.833   4.149   0.996
13969W        W80752  17.230  32.377  13.883
13970W        W80753  44.428  28.689   3.174
13971W        W80754  24.740  42.578   3.762
13972W        W80755  30.668   8.783  12.126
13973W        W80756  26.565   1.046   1.798
13974W        W80757  20.675  33.320  11.692
13975W        W80758  25.485  27.021   2.688
13976W        W80759  33.005  20.326   1.199
13977W        W80760  39.621  30.954   4.099
13978W        W80761  39.900  42.427   0.646
13979W        W80762  36.139  20.210  10.277
13980W        W80763  13.260  21.490  13.341
13981W        W80764   8.273   0.551   2.420
13982W        W80765  31.420  42.397   3.616
13983W        W80766   3.723  38.347   2.860
13984W        W80767   5.233  36.726  14.724
13985W        W80768  35.893  15.926   0.759
13986W        W80769  39.425   2.679   2.139
13987W        W80770   2.433  26.312  12.102
13988W        W80771  44.439  13.637   4.123
13989W        W80772   6.042  34.872   2.924
13990W        W80773   8.820  38.670   0.870
13991W        W80774  21.834  29.516  13.924
13992W        W80775  13.324   6.810  14.033
13993W        W80776  13.279   1.501   2.395
13994W        W80777  30.390  18.391   2.280
13995W        W80778  19.959  25.976   3.781
13996W        W80779   4.839  32.434  14.497
13997W        W80780  36.292   1.199   0.789
13998W        W80781  28.516  24.410   3.157
13999W        W80782  41.278   5.937  12.922
14000W        W80783   2.178   1.680   2.494
14001W        W80784  40.332  31.350  14.309
14002W        W80785  13.423  13.835  12.247
14003W        W80786  12.897  36.376   3.233
14004W        W80787  44.758  22.744  13.834
14005W        W80788  20.065  22.452   3.717
14006W        W80789  23.642  39.566   4.675
14007W        W80790  34.900  26.436   3.607
14008W        W80791  13.524  30.504  12.904
14009W        W80792  36.749  17.162   1.825
14010W        W80793  36.786  33.965   2.055
14011W        W80794  29.226  12.266  12.464
14012W        W80795  11.212   4.956   2.189
14013W        W80796  34.627  12.313   3.390
14014W        W80797  36.427  19.774   4.905
14015W        W80798  26.415   3.667  11.128
14016W        W80799  32.556  31.685   2.807
14017W        W80800  23.284  32.266  14.329
14018W        W80801  17.421  41.171   5.054
14019W        W80802  24.680  33.332  14.505
14020W        W80803  34.942  15.838   3.298
14021W        W80804  26.374  23.702   1.460
14022W        W80805  31.586  21.079   1.272
14023W        W80806  37.324  12.344   0.153
14024W        W80807   7.280  14.921   1.902
14025W        W80808  27.197  33.881   0.909
14026W        W80809   3.522  27.566  10.735
14027W        W80810  39.263   3.224   3.742
14028W        W80811  38.407   6.639   2.871
14029W        W80812  23.057  38.284  12.376
14030W        W80813  40.937  16.249   4.186
14031W        W80814  38.877   2.932   0.610
14032W        W80815   9.610   3.822  13.976
14033W        W80816   5.274   8.683  10.895
14034W        W80817   9.247  29.486   4.636
14035W        W80818  37.230  38.475   2.107
14036W        W80819  25.543   9.689  13.449
14037W        W80820  27.705  32.355   1.749
14038W        W80821  43.791  39.414   0.813
14039W        W80822  15.363  24.229   4.143
14040W        W80823  27.932  16.809  10.027
14041W        W80824  28.041  43.986   3.533
14042W        W80825  28.006  16.131   0.372
14043W        W80826  20.226  12.125  11.673
14044W        W80827  39.909   3.703   0.827
14045W        W80828  24.245  16.650  14.957
14046W        W80829  38.554  27.378  10.936
14047W        W80830  15.881   5.284   1.228
14048W        W80831  20.121  22.626   4.555
14049W        W80832   6.599  38.896   1.608
14050W        W80833  28.274   3.774  12.170
14051W        W80834  18.967   3.683  11.236
14052W        W80835  23.693  30.251  12.073
14053W        W80836   8.391  34.550  12.040
14054W        W80837  31.834  32.505  12.951
14055W        W80838  15.239  40.997  11.157
14056W        W80839  35.377   5.504   3.144
14057W        W80840   3.354  27.010   0.417
14058W        W80841   5.856  12.350   0.482
14059W        W80842  31.090  34.808   4.168
14060W        W80843   1.568   9.728   3.730
14061W        W80844   5.950  21.217   4.635
14062W        W80845  14.669  13.218  11.452
14063W        W80846  35.431   0.730  12.999
14064W        W80847  40.567   3.279   0.461
14065W        W80848   8.638  23.192  14.760
14066W        W80849  28.578  24.714   3.602
14067W        W80850  26.779  18.239  12.434
14068W        W80851   9.471   9.069   3.601
14069W        W80852  21.900   0.201  11.740
14070W        W80853   0.832   6.629   2.834
14071W        W80854  34.532  29.646   4.954
14072W        W80855   4.149  36.331   1.152
14073W        W80856   2.447  42.879  11.183
14074W        W80857   6.326  34.648   3.870
14075W        W80858  16.131  42.546   2.019
14076W        W80859   4.141  28.599   3.643
14077W        W80860  41.910  15.359   0.886
14078W        W80861   7.570  21.813  11.928
14079W        W80862  35.991  32.049   3.361
14080W        W80863  37.887  14.004  11.626
14081W        W80864  35.086  32.552  14.335
14082W        W80865   9.867  37.089   2.800
14083W        W80866   1.692  35.438   3.539
14084W        W80867  31.982  16.364   0.107
14085W        W80868  29.905  22.979  13.943
14086W        W80869  32.475  40.172   4.146
14087W        W80870   3.469   5.429   4.906
14088W        W80871   3.347  17.829   1.742
14089W        W80872  25.066  30.740   1.881
14090W        W80873   8.636  29.978  13.455
14091W        W80874   3.901  39.592  13.871
14092W        W80875  41.667  28.852  10.740
14093W        W80876  22.453  17.831  10.996
14094W        W80877  40.996   2.395   3.142
14095W        W80878   4.174  38.864   0.145
14096W        W80879   6.870  38.155  13.366
14097W        W80880  33.401  41.072   2.319
14098W        W80881  30.916  40.392  12.407
14099W        W80882  19.012  35.042   1.744
14100W        W80883  31.683  24.216  14.792
14101W        W80884  20.541  24.022   4.140
14102W        W80885  42.940  44.847  14.899
14103W        W80886  22.627   9.229   0.362
14104W        W80887  29.670  13.578   2.744
14105W        W80888  21.536  37.124  13.889
14106W        W80889  23.218   3.751  13.225
14107W        W80890  32.481  11.163   2.896
14108W        W80891  14.812  34.480   4.578
14109W        W80892  40.852   0.236   0.884
14110W        W80893  15.357   6.650  14.894
14111W        W80894  33.191   4.321  11.099
14112W        W80895  34.586  34.622  13.743
14113W        W80896  16.842  35.346  14.791
14114W        W80897   7.951   8.073  12.499
14115W        W80898   3.654  36.494   2.391
14116W        W80899  11.235  43.454   3.683
14117W        W80900  10.583  23.092  14.699
14118W        W80901  43.694   0.716   0.243
14119W        W80902  43.586   1.063  11.188
14120W        W80903  21.289  10.016   9.910
14121W        W80904  23.508  17.085   1.249
14122W        W80905  24.723  24.483   1.189
14123W        W80906  27.659  29.542  13.325
14124W        W80907  23.491  23.153   3.065
14125W        W80908  17.700  18.453   4.061
14126W        W80909  42.699  19.715   0.435
14127W        W80910   6.222   9.332  12.653
14128W        W80911  39.013  19.803   3.069
14129W        W80912   9.762   1.242   1.901
14130W        W80913  41.897   4.928  11.385
14131W        W80914  23.592  37.857   3.368
14132W        W80915   6.455  24.580   4.733
14133W        W80916  27.162  31.347   0.544
14134W        W80917  41.053  26.539  14.928
14135W        W80918  32.393  28.485   1.921
14136W        W80919  21.580   5.124  11.182
14137W        W80920   0.150  16.326  10.705
14138W        W80921  17.805  17.800  14.859
14139W        W80922  44.638  11.014   4.960
14140W        W80923  28.422  35.679  13.422
14141W        W80924  18.471  28.744  13.618
14142W        W80925  34.907   0.557   1.642
14143W        W80926  18.594  24.955   4.113
14144W        W80927  30.901  22.793   0.394
14145W        W80928  25.830   3.877   9.805
14146W        W80929  16.781  10.661  14.768
14147W        W80930  31.286  32.197   2.933
14148W        W80931  21.739  33.244   3.355
14149W        W80932   8.613  37.887   1.818
14150W        W80933  15.343  14.196   1.326
14151W        W80934   6.931  33.110   2.892
14152W        W80935  40.470   5.924   4.527
14153W        W80936  32.271  15.154   4.772
14154W        W80937   3.606  28.544   2.702
14155W        W80938  30.193  37.510   1.190
14156W        W80939   3.327   3.602  12.382
14157W        W80940  11.319  24.809   1.912
14158W        W80941  38.331  25.042   1.195
14159W        W80942  30.384  18.249  14.845
14160W        W80943  18.059  41.001   4.595
14161W        W80944  41.952  13.593   4.017
14162W        W80945  42.511  15.550   0.151
14163W        W80946  37.998  36.245   3.384
14164W        W80947   4.730   6.243   1.350
14165W        W80948  14.840  43.903   4.443
14166W        W80949  37.122  30.291   2.830
14167W        W80950  20.800  38.296  12.305
14168W        W80951  31.884  33.723  12.255
14169W        W80952  20.559   8.766  11.633
14170W        W80953  28.138  14.159   1.800
14171W        W80954   3.463   5.562  12.798
14172W        W80955   2.428  11.634   0.390
14173W        W80956  31.969   3.978   1.207
14174W        W80957   6.437  17.565  13.041
14175W        W80958  29.794  13.127   0.096
14176W        W80959  39.952  20.038   2.612
14177W        W80960  24.897  30.570   2.733
14178W        W80961  21.514  33.809  11.473
14179W        W80962  43.279  42.855  13.830
14180W        W80963  13.360  34.322   3.314
14181W        W80964  13.469  25.773  13.313
14182W        W80965   1.533  27.065  14.864
14183W        W80966  22.779  29.090  11.451
14184W        W80967   7.811  35.080   4.718
14185W        W80968  18.693  26.736   1.964
14186W        W80969   7.173   9.791  13.118
14187W        W80970  29.980   9.223  13.904
14188W        W80971  40.490   6.127  13.305
14189W        W80972  38.360  32.069  11.095
14190W        W80973  30.961  12.798  12.492
14191W        W80974  12.316  15.015   2.731
14192W        W80975   5.243  32.554  12.451
14193W        W80976   7.011  40.021   2.716
14194W        W80977  41.566   0.080  12.826
14195W        W80978  25.450  21.583   3.248
14196W        W80979  22.999  43.219   4.172
14197W        W80980  23.223   1.198  13.101
14198W        W80981  30.586  39.465  12.931
14199W        W80982  31.500   5.960   2.669
14200W        W80983   7.063  39.265   4.497
14201W        W80984  11.956  23.930   3.266
14202W        W80985  14.639   9.730  13.315
14203W        W80986  36.035  10.634  13.910
14204W        W80987  41.097  23.729   0.361
14205W        W80988  22.714   1.913  14.738
14206W        W80989  15.224   8.916  14.368
14207W        W80990   7.412  35.449   3.923
14208W        W80991  23.673   5.003  14.374
14209W        W80992  40.840  19.107  12.296
14210W        W80993  34.064   2.215   4.514
14211W        W80994  21.090  11.150   1.359
14212W        W80995  16.809   3.870  12.517
14213W        W80996  30.059  30.913  13.047
14214W        W80997  39.431  16.191  13.526
14215W        W80998  28.331   8.234  13.137
14216W        W80999  10.671  12.968  14.592
14217W        W81000   7.964   0.496  13.012
14218W        W81001  29.650   7.631  11.640
14219W        W81002  11.420  22.612  10.536
14220W        W81003  19.479  15.013   0.578
14221W        W81004  22.022  44.803  12.060
14222W        W81005   8.611  10.664  13.436
14223W        W81006  44.688  40.850   1.277
14224W        W81007   8.904  40.424  11.199
14225W        W81008  39.527   6.416   0.347
14226W        W81009  28.449  42.525  11.502
14227W        W81010   3.424   1.881   0.173
14228W        W81011  11.892   7.542  12.748
14229W        W81012  37.244  18.086   3.102
14230W        W81013   6.352  16.287  11.563
14231W        W81014  16.147  15.824  13.981
14232W        W81015   7.948   0.735   4.544
14233W        W81016   9.292  11.633  11.406
14234W        W81017   0.813  23.780   4.137
14235W        W81018  43.443  12.729   3.288
14236W        W81019  11.867   2.508   3.421
14237W        W81020  25.696   1.770   3.541
14238W        W81021  28.679  44.304   4.080
14239W        W81022  25.222   2.026  13.976
14240W        W81023   4.952  37.032   4.193
14241W        W81024  26.224   9.115   4.354
14242W        W81025  26.093   5.243  10.469
14243W        W81026  22.022  27.049  11.088
14244W        W81027  15.882   0.379  13.806
14245W        W81028   0.938  41.526   2.265
14246W        W81029  17.355  40.884   2.855
14247W        W81030  33.543  26.183   4.671
14248W        W81031  23.737  31.888   0.589
14249W        W81032   0.411  16.860   0.351
14250W        W81033  37.501  32.967   2.801
14251W        W81034   4.767  12.129  11.151
14252W        W81035   6.996   8.828  11.617
14253W        W81036   1.425  27.679  10.649
14254W        W81037   5.827  31.880  11.551
14255W        W81038   7.302  41.623   3.822
14256W        W81039  29.030  20.299  13.933
14257W        W81040  11.077  31.517  10.709
14258W        W81041  18.632  42.431   2.028
14259W        W81042  20.571  26.532   4.313
14260W        W81043  37.081  26.941   0.694
14261W        W81044   2.647  11.740  11.307
14262W        W81045  40.842  34.798   2.622
14263W        W81046  42.809  24.977   0.372
14264W        W81047   6.500  42.987  14.549
14265W        W81048   7.751  43.796   0.959
14266W        W81049  34.879   0.426   3.344
14267W        W81050  11.767  27.914   3.182
14268W        W81051  20.959  25.467  13.447
14269W        W81052   0.729  10.028  13.329
14270W        W81053  10.331   0.277  12.040
14271W        W81054   5.336  16.563   4.839
14272W        W81055  19.551   4.082   4.242
14273W        W81056  20.437  19.822   0.030
14274W        W81057  30.860  42.409   0.326
14275W        W81058  29.565  31.440   1.678
14276W        W81059  20.283  28.497   4.507
14277W        W81060  44.960  13.826  12.973
14278W        W81061  43.289  11.685  10.785
14279W        W81062  11.105  13.767   0.219
14280W        W81063  32.122  14.819  11.163
14281W        W81064  43.963  37.398   4.742
14282W        W81065  15.673   4.754  11.549
14283W        W81066  16.656  44.020  11.332
14284W        W81067  29.035   7.162   0.248
14285W        W81068  36.028   1.935   3.071
14286W        W81069   4.954  12.144  14.263
14287W        W81070  35.990  12.811   4.820
14288W        W81071  33.432  40.941  11.152
14289W        W81072   8.175  13.769  11.385
14290W        W81073  43.173  19.503   2.710
14291W        W81074  36.435  41.473  10.830
14292W        W81075  44.181  29.994  11.479
14293W        W81076  12.420  26.007   4.137
14294W        W81077  30.408  32.698  14.846
14295W        W81078  30.459  24.416  10.391
14296W        W81079   1.483  19.211  14.019
14297W        W81080  15.706  32.826  10.667
14298W        W81081  38.597  18.565  11.876
14299W        W81082  10.449  43.567  11.625
14300W        W81083   9.431  37.454   5.075
14301W        W81084  10.196  19.546  14.370
14302W        W81085  21.820  17.305  12.089
14303W        W81086  25.989  43.034   0.915
14304W        W81087  11.557  26.664  13.796
14305W        W81088  44.336  30.163  14.733
14306W        W81089  24.973   1.425   3.324
14307W        W81090   4.782   1.855  13.724
14308W        W81091  39.064   2.498  11.982
14309W        W81092  34.266  19.392   5.386
14310W        W81093  13.816   9.033  10.676
14311W        W81094  17.786   8.358   1.906
14312W        W81095  13.149  10.280   4.391
14313W        W81096  43.443  44.788  14.724
14314W        W81097  10.676  29.190  11.144
14315W        W81098  27.385  23.963  11.658
14316W        W81099  43.306  16.468   2.046
14317W        W81100  34.280  28.727  13.334
14318W        W81101  41.293  11.079   2.260
14319W        W81102  39.593  15.692   0.888
14320W        W81103  23.778  40.440  14.243
14321W        W81104   9.548  15.211  14.989
14322W        W81105  13.358  12.879   1.539
14323W        W81106  37.404  28.766  10.740
14324W        W81107  17.019   9.591   0.837
14325W        W81108  36.945  19.641   0.093
14326W        W81109  43.062   1.228  12.576
14327W        W81110  22.117  28.276  11.036
14328W        W81111  40.854   2.899   4.589
14329W        W81112  23.683  30.181   3.694
14330W        W81113  34.838   5.030  11.088
14331W        W81114   4.388  38.547  11.322
14332W        W81115  35.957  22.976   4.731
14333W        W81116   6.940   0.277   2.611
14334W        W81117  17.540  21.042  14.184
14335W        W81118   4.749  33.747  11.093
14336W        W81119  28.276  16.315  14.985
14337W        W81120  34.379  24.393  14.862
14338W        W81121  36.016   8.965   1.003
14339W        W81122   6.176  34.229  11.383
14340W        W81123   8.625   9.768  13.415
14341W        W81124  42.824  10.594  13.862
14342W        W81125  13.374  34.444  14.496
14343W        W81126  31.663   3.783   2.289
14344W        W81127  29.016  37.437   1.778
14345W        W81128  18.946  24.960   3.726
14346W        W81129  42.039  28.227  11.393
14347W        W81130  20.514  36.093  12.898
14348W        W81131  22.599   6.301  14.390
14349W        W81132   4.786  12.656  10.512
14350W        W81133   6.215   1.056  11.025
14351W        W81134   2.697  28.917   2.550
14352W        W81135  30.085   4.890   4.540
14353W        W81136  34.179  21.377  11.930
14354W        W81137  15.537  29.852   5.310
14355W        W81138   5.685  33.575  13.127
14356W        W81139   4.767   0.043   1.844
14357W        W81140  38.391  28.249  13.784
14358W        W81141  31.430  14.811  14.888
14359W        W81142   2.804  18.535   4.315
14360W        W81143  21.145  13.588  11.578
14361W        W81144   7.509  27.886   5.023
14362W        W81145   8.581  25.252  13.138
14363W        W81146  21.722  22.007   1.243
14364W        W81147  11.349  28.477   3.242
14365W        W81148   8.410  31.349  13.400
14366W        W81149   8.835  39.629  14.760
14367W        W81150  19.452   6.333   0.380
14368W        W81151  31.560   7.833   3.879
14369W        W81152  28.604  14.283  12.400
14370W        W81153  11.423  18.950   2.288
14371W        W81154  32.291   4.516   1.879
14372W        W81155  44.051  27.550  11.639
14373W        W81156   8.871   2.203   2.218
14374W        W81157  10.698  38.549  13.071
14375W        W81158  20.306  40.246   2.002
14376W        W81159  16.983  10.748   3.207
14377W        W81160  21.129  35.895   4.879
14378W        W81161  44.906  12.379   4.083
14379W        W81162   0.145  24.454   2.137
14380W        W81163  44.350   3.294   3.113
14381W        W81164  23.561  11.672   4.567
14382W        W81165  21.782  12.849   1.256
14383W        W81166   3.467  14.743   2.976
14384W        W81167  25.284  16.191  11.157
14385W        W81168   5.050  43.457  11.903
14386W        W81169  42.375  31.034   2.733
14387W        W81170  34.934   0.921  12.974
14388W        W81171   0.315  11.623  14.250
14389W        W81172   8.604  15.312   0.743
14390W        W81173   7.199  37.492   4.557
14391W        W81174  38.480  22.083  10.656
14392W        W81175  42.923  43.171  10.737
14393W        W81176  31.964  25.067   0.741
14394W        W81177  14.653  40.414   2.890
14395W        W81178  15.665  20.962   1.375
14396W        W81179  21.179   8.111  14.756
14397W        W81180   4.458  15.021  14.780
14398W        W81181  12.717  44.527   4.316
14399W        W81182  13.088  24.632  11.932
14400W        W81183  39.390  12.541  14.984
14401W        W81184  42.430   3.504  12.374
14402W        W81185  26.599  43.947   1.408
14403W        W81186   9.869  30.473   0.856
14404W        W81187  29.587  14.214  12.480
14405W        W81188  18.769  43.455   2.412
14406W        W81189  34.907  17.851  13.693
14407W        W81190  10.898  39.385   2.572
14408W        W81191  24.561  30.101   4.673
14409W        W81192  17.833  44.120   0.504
14410W        W81193   8.825  25.167   3.154
14411W        W81194   3.209  40.043   0.497
14412W        W81195  16.186  31.773  11.109
14413W        W81196  39.356   4.733   1.815
14414W        W81197  26.286  28.721  12.316
14415W        W81198   2.896   8.184   2.929
14416W        W81199   6.153  26.180  14.869
14417W        W81200  29.632  43.945  12.931
14418W        W81201  41.979  42.735  12.422
14419W        W81202  18.973   0.595   4.997
14420W        W81203  41.520  40.408   3.719
14421W        W81204   5.740  25.698  14.047
14422W        W81205  44.986  29.203   1.712
14423W        W81206   1.492  20.036   2.653
14424W        W81207   4.969  23.481   2.784
14425W        W81208  18.871  40.153   0.109
14426W        W81209  16.283   7.411   3.169
14427W        W81210  20.647  19.597  13.595
14428W        W81211  19.808  30.528   3.646
14429W        W81212  14.238   0.483   2.200
14430W        W81213  20.984  22.495  14.602
14431W        W81214  41.327  24.403   3.599
14432W        W81215  42.976  30.467  13.410
14433W        W81216  15.523  16.637  12.643
14434W        W81217   5.152  41.902  12.101
14435W        W81218  33.014  23.263   0.508
14436W        W81219  20.311  35.574  13.478
14437W        W81220   3.764  41.831  10.751
14438W        W81221   3.178   8.460   3.290
14439W        W81222   0.084  39.892   1.203
14440W        W81223   9.135  23.709   3.556
14441W        W81224   4.759  43.780   0.407
14442W        W81225  19.201  41.367   2.356
14443W        W81226  23.194  30.177   0.284
14444W        W81227  32.166   8.212  13.467
14445W        W81228   7.455  42.296  11.585
14446W        W81229  31.856  36.561  14.430
14447W        W81230   9.909   4.596   2.181
14448W        W81231   6.916  20.732   4.572
14449W        W81232  14.600  20.881  10.385
14450W        W81233  10.739   4.864  12.022
14451W        W81234   6.352  31.625  10.762
14452W        W81235   2.246  29.142  12.594
14453W        W81236  34.578   0.350   2.823
14454W        W81237  42.935  27.928  12.076
14455W        W81238  20.449  26.086  10.488
14456W        W81239  21.749  28.082   0.479
14457W        W81240   0.368  32.980  12.212
14458W        W81241   8.278  18.848  11.897
14459W        W81242  17.972  21.897  12.941
14460W        W81243   4.373   1.381   1.887
14461W        W81244   3.228   3.610   5.048
14462W        W81245  41.246  27.504   0.459
14463W        W81246  40.105   2.460   1.847
14464W        W81247  39.692  43.603   3.034
14465W        W81248  40.502   3.182  13.591
14466W        W81249  38.176  18.620  14.500
14467W        W81250  16.088  20.513  12.300
14468W        W81251   2.778  44.871   1.296
14469W        W81252   8.184   4.442  10.493
14470W        W81253  39.788  31.259  14.861
14471W        W81254  39.136  10.292  10.037
14472W        W81255  31.233  23.342  13.451
14473W        W81256  25.194   3.961   4.997
14474W        W81257  24.179  36.773   0.360
14475W        W81258   3.199  29.977  12.929
14476W        W81259  22.338  36.861  11.780
14477W        W81260   2.935  25.160   4.652
14478W        W81261  35.894  32.112   1.811
14479W        W81262  11.572  17.345   5.083
14480W        W81263   9.919  29.627   3.718
14481W        W81264  21.647  18.931   2.084
14482W        W81265  21.519  32.218   3.189
14483W        W81266   3.117  18.530   2.522
14484W        W81267  28.380   2.992   2.321
14485W        W81268  31.993  24.267   2.769
14486W        W81269  12.191  36.420  12.987
14487W        W81270  43.583  34.168  14.389
14488W        W81271  22.211  29.704   1.688
14489W        W81272  32.615  17.286  11.141
14490W        W81273   4.737  33.719   2.598
14491W        W81274  26.406  26.004  12.881
14492W        W81275  42.632  33.759  11.188
14493W        W81276  38.159  41.461   0.755
14494W        W81277  13.900  26.576   3.325
14495W        W81278  28.980  23.462   3.093
14496W        W81279   7.314  27.485  12.485
14497W        W81280   6.839  43.276  11.949
14498W        W81281  24.973  44.532  12.405
14499W        W81282  35.432  16.103   3.131
14500W        W81283  28.533  13.514   0.848
14501W        W81284  35.543  11.251  13.247
14502W        W81285  26.672  31.149  11.126
14503W        W81286  10.615  36.392  12.228
14504W        W81287  12.355   3.229   0.020
14505W        W81288  15.140   1.927   3.378
14506W        W81289  19.662  17.286  11.096
14507W        W81290  21.762   0.341   3.227
14508W        W81291   2.677  23.782  10.587
14509W        W81292  43.304  22.747  14.991
14510W        W81293   4.177  26.181  10.537
14511W        W81294   2.092  19.622   4.689
14512W        W81295  28.037  43.683   0.855
14513W        W81296   0.240  10.226  13.493
14514W        W81297  11.239  10.181  13.019
14515W        W81298  33.865  32.030  11.643
14516W        W81299   5.896  20.794   3.692
14517W        W81300  41.726  12.643   1.643
14518W        W81301  22.110   8.137   3.453
14519W        W81302  31.656  44.525  13.847
14520W        W81303  19.110  21.600  14.909
14521W        W81304  19.978   3.211  14.424
14522W        W81305  32.463  20.259  14.501
14523W        W81306  11.323  28.266   0.004
14524W        W81307  13.161   4.459  13.073
14525W        W81308  27.517  27.441   1.888
14526W        W81309   1.585  37.423   2.453
14527W        W81310   0.266  24.927  10.688
14528W        W81311  29.455  33.687  14.678
14529W        W81312  37.035  14.141   4.404
14530W        W81313  19.550  34.123  12.508
14531W        W81314  17.562  11.636  13.932
14532W        W81315  35.315  25.085   2.606
14533W        W81316   0.905  22.506   5.107
14534W        W81317   1.446  39.282  14.431
14535W        W81318   8.320  44.317  10.730
14536W        W81319   3.483  39.563  14.803
14537W        W81320  39.564  42.084  13.941
14538W        W81321  11.803  11.837   2.218
14539W        W81322  21.272  34.145  10.635
14540W        W81323  42.222  33.049  11.787
14541W        W81324  33.610  15.197  11.672
14542W        W81325  43.745  32.598   3.807
14543W        W81326  32.687  13.882   1.765
14544W        W81327   4.892   1.501   1.032
14545W        W81328  30.711   6.121   0.456
14546W        W81329   9.342  35.152  12.841
14547W        W81330  10.750  14.665  13.391
14548W        W81331  28.696  30.622  10.432
14549W        W81332  30.517  34.528   0.010
14550W        W81333   4.487  16.631  10.907
14551W        W81334  25.905  33.858   2.743
14552W        W81335  16.628   2.221   4.176
14553W        W81336  10.264  23.262   3.345
14554W        W81337  32.763  38.549   3.500
14555W        W81338  19.614  25.386  14.934
14556W        W81339  42.926  36.978  14.196
14557W        W81340   9.151  16.686  10.191
14558W        W81341  10.868  16.213   4.117
14559W        W81342  24.993  34.313  13.325
14560W        W81343  27.819  34.159  10.121
14561W        W81344  18.155   5.768   4.915
14562W        W81345  40.274  34.831  11.602
14563W        W81346  27.704  43.326   1.528
14564W        W81347  15.468  30.119  10.629
14565W        W81348  30.456  19.865  13.606
14566W        W81349  18.297   9.733   2.235
14567W        W81350   2.434  43.259  14.671
14568W        W81351  27.345  41.947  14.270
14569W        W81352  24.752  29.968   1.441
14570W        W81353  27.212  35.132  11.471
14571W        W81354  39.897  23.273  12.554
14572W        W81355  31.145  14.835   1.511
14573W        W81356  43.657  21.711   2.339
14574W        W81357   8.738  31.238  14.464
14575W        W81358   8.973  17.772   0.778
14576W        W81359  40.747  20.473   3.630
14577W        W81360  25.946  12.255   3.847
14578W        W81361  13.755   1.401   3.168
14579W        W81362  35.633  34.204   0.269
14580W        W81363  23.700  32.571  13.355
14581W        W81364   2.337  21.964   1.267
14582W        W81365  34.362  21.099  12.304
14583W        W81366  34.488  10.672   4.583
14584W        W81367  14.181  11.058   1.801
14585W        W81368   8.829  23.498  12.998
14586W        W81369  22.851  31.035  10.321
14587W        W81370  29.200   6.547   4.504
14588W        W81371   0.548   5.485   4.578
14589W        W81372  44.068  23.082  12.070
14590W        W81373  34.449  25.946   2.430
14591W        W81374  22.425  31.749   2.730
14592W        W81375  11.010  35.147   2.383
14593W        W81376  10.802  26.766  10.558
14594W        W81377  24.482  34.847   3.363
14595W        W81378  42.805   2.344   3.087
14596W        W81379  11.778  36.577   5.672
14597W        W81380  31.587  14.301   4.990
14598W        W81381  39.555  11.567   3.841
14599W        W81382  32.476  33.894   1.966
14600W        W81383  27.517  24.536  13.302
14601W        W81384  24.503   2.730   1.311
14602W        W81385  28.911  13.738  14.842
14603W        W81386  39.452  26.408   0.787
14604W        W81387  25.725  23.005  14.892
14605W        W81388   7.649  11.679   1.953
14606W        W81389  32.318  33.973  13.024
14607W        W81390  24.173  15.451   4.153
14608W        W81391  13.177  27.590  14.541
14609W        W81392  32.174  24.960   3.203
14610W        W81393  11.612  40.578   2.642
14611W        W81394  30.843  36.466  11.117
14612W        W81395  28.950  38.564  11.006
14613W        W81396  17.051  15.086   0.788
14614W        W81397  19.074  33.355   2.953
14615W        W81398  40.524  42.374  11.510
14616W        W81399  43.433  34.811  10.029
14617W        W81400  25.386  32.879  11.281
14618W        W81401  35.996  44.462   2.365
14619W        W81402   6.251   0.450   0.973
14620W        W81403  22.230   7.328  11.597
14621W        W81404   2.365  29.076   0.764
14622W        W81405   8.700   8.795   1.402
14623W        W81406  41.378  16.168  11.361
14624W        W81407  12.020  39.079   0.830
14625W        W81408   1.455  24.525   2.189
14626W        W81409  19.287  40.870   3.159
14627W        W81410  14.632  21.292   3.065
14628W        W81411   4.234  38.825   2.408
14629W        W81412  42.277  17.716  14.847
14630W        W81413  12.207  30.994   0.834
14631W        W81414  23.529  25.158   2.919
14632W        W81415  41.531   9.251  14.783
14633W        W81416  33.512  19.752   2.171
14634W        W81417  25.415   7.044   1.246
14635W        W81418  11.665  11.951  14.376
14636W        W81419  34.342  35.560  12.110
14637W        W81420  31.569  36.411   4.133
14638W        W81421  39.854   9.904  11.975
14639W        W81422   8.579   8.921  10.276
14640W        W81423   9.318   4.722  14.917
14641W        W81424  36.924   2.380   2.414
14642W        W81425  29.514  20.589  14.069
14643W        W81426  18.232   6.443  12.027
14644W        W81427  15.230   1.467   0.228
14645W        W81428  33.457  43.019   1.234
14646W        W81429  17.825  41.381   2.298
14647W        W81430  24.934  14.586   3.278
14648W        W81431  41.460  15.304  13.444
14649W        W81432   7.394  10.795   4.662
14650W        W81433  11.744  20.169   0.298
14651W        W81434  28.881   2.822  12.977
14652W        W81435  31.167  11.609  10.533
14653W        W81436   6.892  27.378  11.244
14654W        W81437   8.669  19.650   3.013
14655W        W81438  22.598  38.196  12.179
14656W        W81439  41.007   0.480  13.918
14657W        W81440  44.276   4.481   0.032
14658W        W81441   5.441  26.443   4.235
14659W        W81442  10.160  39.823  10.971
14660W        W81443  15.756  14.896  14.219
14661W        W81444   8.866  41.911   1.263
14662W        W81445  43.863  17.194   2.111
14663W        W81446  32.793  43.433  11.219
14664W        W81447  18.116  29.536   0.922
14665W        W81448  19.370   3.737  13.915
14666W        W81449   0.464   8.806   4.852
14667W        W81450  36.996  43.856  12.908
14668W        W81451  18.303  35.566   2.896
14669W        W81452  40.407  40.092   3.177
14670W        W81453  31.861  29.559  11.988
14671W        W81454  27.595   9.708  10.812
14672W        W81455  26.698  44.433   1.626
14673W        W81456   1.887  30.627   0.249
14674W        W81457  22.228  35.523  12.420
14675W        W81458  26.508  39.177   9.840
14676W        W81459  25.041  42.824   3.331
14677W        W81460  23.142  40.814   3.692
14678W        W81461   1.038  44.315   1.520
14679W        W81462   9.426   4.231   2.800
14680W        W81463  36.676  17.385   0.336
14681W        W81464   8.810  21.627   1.640
14682W        W81465  43.283   8.821  12.494
14683W        W81466  23.686   4.512  12.675
14684W        W81467  44.768  30.547   0.921
14685W        W81468  44.726  39.403  12.832
14686W        W81469  18.577  14.179  11.473
14687W        W81470  12.234   8.675  13.030
14688W        W81471  11.440  24.135   4.990
14689W        W81472  31.886  22.124  12.922
14690W        W81473  23.512   4.392   0.437
14691W        W81474  28.460  42.759  13.556
14692W        W81475  41.494  31.985  13.126
14693W        W81476   8.633   7.773  10.652
14694W        W81477  23.178  25.489  13.402
14695W        W81478  33.391  16.878  13.641
14696W        W81479  42.291  22.692  10.473
14697W        W81480  27.992  44.885  12.349
14698W        W81481  35.873  18.467   2.707
14699W        W81482   1.746  13.882   4.733
14700W        W81483  20.150  24.499   2.849
14701W        W81484  19.516  40.545  12.667
14702W        W81485   0.742   1.908   3.531
14703W        W81486  15.362  41.278  10.644
14704W        W81487   3.888  16.243  14.924
14705W        W81488   3.659  28.066  14.797
14706W        W81489  25.672  39.203   5.451
14707W        W81490  18.985   7.857   3.712
14708W        W81491   5.712  22.829   1.285
14709W        W81492  34.940  25.067   3.843
14710W        W81493  23.292  10.191  12.981
14711W        W81494  25.042  43.488   1.675
14712W        W81495  20.323  42.117  13.962
14713W        W81496  22.963   8.854   0.456
14714W        W81497   4.174  10.554  11.117
14715W        W81498  21.753   3.484  14.001
14716W        W81499  22.586   0.332   9.942
14717W        W81500  20.755  44.911   0.941
14718W        W81501  26.147  18.207   2.227
14719W        W81502  18.457  38.073  13.962
14720W        W81503  16.807  29.561   0.480
14721W        W81504  33.163  23.252   3.636
14722W        W81505  18.080  24.618  13.001
14723W        W81506   1.381   4.929   4.841
14724W        W81507  31.138  13.716  12.038
14725W        W81508  16.087  34.221  12.907
14726W        W81509  21.510   7.730  14.729
14727W        W81510  11.285  10.168   3.154
14728W        W81511  23.658   1.681   1.339
14729W        W81512  30.314  43.281   2.608
14730W        W81513   0.963  30.029  13.321
14731W        W81514  32.870  12.099  11.059
14732W        W81515  32.093   2.800  11.201
14733W        W81516  38.092  23.697  14.876
14734W        W81517   3.495  33.937   1.207
14735W        W81518  15.554  12.105  11.177
14736W        W81519   5.699  13.173  11.983
14737W        W81520  39.104  38.255  13.964
14738W        W81521   5.916  29.455  12.883
14739W        W81522   1.969  40.480   0.198
14740W        W81523  18.556  13.333  10.988
14741W        W81524  38.417  29.933  12.966
14742W        W81525  31.202  28.020   3.627
14743W        W81526  11.623  25.300   1.213
14744W        W81527  40.780   2.130  11.902
14745W        W81528  32.016   5.788  13.490
14746W        W81529  41.445  39.981  14.067
14747W        W81530  42.443   3.709  12.879
14748W        W81531   1.607  39.455   0.845
14749W        W81532   5.244  22.776  12.116
14750W        W81533  29.715  22.977   2.753
14751W        W81534  23.837   0.697  11.729
14752W        W81535  14.636  24.527   2.821
14753W        W81536  10.403  13.834   2.150
14754W        W81537   8.770  16.545  13.466
14755W        W81538  39.554   5.082   3.871
14756W        W81539  17.219  32.579   0.431
14757W        W81540  19.447  23.112  11.124
14758W        W81541   1.860   9.208   2.336
14759W        W81542  18.810  11.326  13.996
14760W        W81543  11.691  19.048   4.261
14761W        W81544   6.769   5.736  13.966
14762W        W81545  22.615  19.409   5.064
14763W        W81546   8.863  33.100  14.709
14764W        W81547  44.440  34.928   4.192
14765W        W81548  22.027  27.552   4.065
14766W        W81549  29.064  31.389  11.924
14767W        W81550  11.397  43.863   0.867
14768W        W81551  31.075  23.556   3.687
14769W        W81552  14.117  23.115   2.266
14770W        W81553  15.248   5.076  12.590
14771W        W81554  22.433  43.914  14.903
14772W        W81555  32.401  26.120   1.807
14773W        W81556  44.853  36.825  13.270
14774W        W81557  16.684  41.993   1.002
14775W        W81558   2.696  24.109   4.583
14776W        W81559   2.991  37.869  12.694
14777W        W81560   9.090  18.571   2.239
14778W        W81561  19.811   5.440   2.528
14779W        W81562  17.051  24.338  11.999
14780W        W81563  41.367  26.660  10.634
14781W        W81564   6.796  36.837  14.320
14782W        W81565  34.682  42.472  11.128
14783W        W81566  33.443  40.011   2.420
14784W        W81567  30.153   5.564   4.251
14785W        W81568  35.882   2.433   3.281
14786W        W81569  16.818  23.785  14.891
14787W        W81570  41.553  39.522  14.328
14788W        W81571  19.173   7.374   3.673
14789W        W81572  34.603  33.582  10.679
14790W        W81573  38.974  22.703   0.999
14791W        W81574  18.079  19.549   3.636
14792W        W81575   4.421   3.224   4.234
14793W        W81576  37.481  43.680   2.353
14794W        W81577   2.686  18.750   0.252
14795W        W81578  28.996  34.427   2.760
14796W        W81579   3.688  43.804   2.776
14797W        W81580  28.113  41.363   0.215
14798W        W81581  22.613  22.566  11.797
14799W        W81582   3.330   8.318   2.200
14800W        W81583   2.371  30.913  11.177
14801W        W81584  28.073  19.840   4.566
14802W        W81585  44.750  25.070  14.056
14803W        W81586   2.177   1.855  11.157
14804W        W81587  17.239  41.893   1.184
14805W        W81588  28.905  37.657  14.956
14806W        W81589   9.745  28.020   1.775
14807W        W81590  43.951  42.068   0.699
14808W        W81591  39.862  28.517   4.048
14809W        W81592  27.864  20.650   0.804
14810W        W81593  15.166  44.387   4.556
14811W        W81594   5.688  22.766   2.210
14812W        W81595  38.268  40.266   3.765
14813W        W81596  16.187   1.983  12.401
14814W        W81597  40.869   2.034   0.919
14815W        W81598  24.499  38.013   2.686
14816W        W81599  25.088  43.281  13.535
14817W        W81600  20.500  25.001  11.997
14818W        W81601   0.360  36.586  11.507
14819W        W81602  35.347   5.489  12.050
14820W        W81603   4.254  44.785   0.748
14821W        W81604  37.374  40.879  12.728
14822W        W81605   5.392  38.147  12.664
14823W        W81606  27.706  10.237  12.526
14824W        W81607  10.888  42.534  10.991
14825W        W81608  34.927  13.637  12.592
14826W        W81609  10.628   1.904   0.569
14827W        W81610  26.881  25.237   0.351
14828W        W81611   0.343  34.561  12.877
14829W        W81612  33.636  28.167   1.732
14830W        W81613  20.749  20.077   0.942
14831W        W81614  34.109  22.692   3.712
14832W        W81615   1.724   5.126   1.517
14833W        W81616  32.904   2.531  11.854
14834W        W81617  44.337  43.592   3.141
14835W        W81618  34.464  34.225  14.551
14836W        W81619  17.130  43.887   0.914
14837W        W81620  16.298  29.115   1.235
14838W        W81621   6.280   7.269  13.926
14839W        W81622  21.203  28.139   1.408
14840W        W81623  36.941  11.264  14.716
14841W        W81624  44.977  22.590   0.831
14842W        W81625  30.939  23.734   5.201
14843W        W81626  31.061  14.786  14.487
14844W        W81627   2.179  39.790  13.408
14845W        W81628  28.599  27.806  12.788
14846W        W81629  19.543   5.386  11.799
14847W        W81630  36.994  13.044  12.903
14848W        W81631   9.869  36.990  14.984
14849W        W81632   8.219  37.068   1.299
14850W        W81633   0.372  23.179  12.484
14851W        W81634  17.175  41.254  14.291
14852W        W81635   0.802  26.716   2.662
14853W        W81636  36.056  42.928   3.321
14854W        W81637  36.165   2.310  12.560
14855W        W81638   1.334   7.758   4.993
14856W        W81639   7.684   6.205   2.985
14857W        W81640   9.425  42.555  13.511
14858W        W81641   7.620  37.947  14.017
14859W        W81642  36.613  38.380  12.021
14860W        W81643  12.919  42.868   3.694
14861W        W81644  20.552  25.972   0.570
14862W        W81645  43.327  29.196   2.451
14863W        W81646  23.098  15.823   9.890
14864W        W81647  10.338  36.006   1.440
14865W        W81648  27.762  28.232  11.179
14866W        W81649   1.662  14.702   0.736
14867W        W81650  13.732  15.128  13.144
14868W        W81651  36.532  44.803  12.090
14869W        W81652  12.238  11.551   4.503
14870W        W81653   0.270   6.279   3.693
14871W        W81654  44.903  23.700   2.387
14872W        W81655  20.706  34.994  14.156
14873W        W81656  25.916  38.206  12.244
14874W        W81657   2.910   6.380  10.712
14875W        W81658  23.352   9.180  14.472
14876W        W81659  19.260  24.546   3.801
14877W        W81660  23.645  18.395   0.746
14878W        W81661  19.851  13.117   3.213
14879W        W81662   4.271  29.009  13.361
14880W        W81663  35.356  40.911  10.407
14881W        W81664  36.209   8.925  12.431
14882W        W81665  17.065  28.855   2.794
14883W        W81666  19.966  31.576   4.092
14884W        W81667   0.789  34.363  10.899
14885W        W81668   1.296  15.685  13.761
14886W        W81669  27.597   4.851  10.478
14887W        W81670  40.003  33.230  11.143
14888W        W81671  24.508  20.105  11.506
14889W        W81672  14.151  27.064   2.726
14890W        W81673  32.027  28.707  11.107
14891W        W81674  13.173  29.904   1.036
14892W        W81675  18.763  27.386  12.615
14893W        W81676   9.121  12.775  14.913
14894W        W81677   1.895  19.152   4.529
14895W        W81678  23.682   7.645  10.605
14896W        W81679  42.272  39.072   3.781
14897W        W81680  34.662  26.942  12.444
14898W        W81681   9.402  38.424  10.698
14899W        W81682   8.881  35.846  10.938
14900W        W81683   2.358   6.753  10.973
14901W        W81684  24.076   1.312  11.317
14902W        W81685   7.405   3.161  14.984
14903W        W81686  17.683  33.385  10.709
14904W        W81687   9.271   2.967   3.106
14905W        W81688  27.419   2.295  14.293
14906W        W81689   8.666  28.966   4.207
14907W        W81690   3.499  39.460  10.442
14908W        W81691  31.182  42.415  11.966
14909W        W81692   8.394   7.661  14.035
14910W        W81693  14.619  35.329  14.867
14911W        W81694  19.269  11.159   1.674
14912W        W81695   1.590  20.107  11.222
14913W        W81696  24.053  26.739   4.367
14914W        W81697  43.924  27.085  10.915
14915W        W81698  38.144  24.165  14.644
14916W        W81699  35.781  10.629   2.166
14917W        W81700  12.558  40.441   2.862
14918W        W81701   7.838  17.924   2.714
14919W        W81702  11.174  28.991  11.118
14920W        W81703  21.083  15.059   3.167
14921W        W81704   3.359   0.201  14.983
14922W        W81705  17.179   3.488   4.560
14923W        W81706  13.166  21.258  10.353
14924W        W81707  25.175  26.523  13.321
14925W        W81708  12.297  44.114  11.139
14926W        W81709  41.370  24.958  14.909
14927W        W81710   9.702  23.611   1.335
14928W        W81711  37.933  30.925  13.956
14929W        W81712   6.255  40.498   0.997
14930W        W81713  28.825   2.402  14.091
14931W        W81714  43.302  34.557   1.181
14932W        W81715  19.148  13.665  11.644
14933W        W81716  22.513  44.975  11.172
14934W        W81717  40.355  15.098   2.211
14935W        W81718  18.553  11.164  11.371
14936W        W81719  10.649  30.144   1.465
14937W        W81720  40.710  12.818  14.990
14938W        W81721   3.121   8.793   2.325
14939W        W81722   5.697   7.790  14.397
14940W        W81723  23.604  40.603   3.602
14941W        W81724  17.310  34.363   3.272
14942W        W81725  35.324  30.552   2.271
14943W        W81726   9.269  40.429  13.869
14944W        W81727  38.263  36.935  13.307
14945W        W81728  20.044   7.707  10.856
14946W        W81729   9.875   2.219   3.095
14947W        W81730   7.934  11.808   0.084
14948W        W81731   3.466   2.345   4.449
14949W        W81732   1.990   5.453  13.510
14950W        W81733  43.709  15.013   4.907
14951W        W81734  14.841  24.876  12.280
14952W        W81735  18.264  18.800  10.189
14953W        W81736  41.529  18.293   0.650
14954W        W81737  15.887  34.909  11.571
14955W        W81738  28.087  42.313   1.723
14956W        W81739  39.813  16.839  13.310
14957W        W81740  16.506  32.623  10.993
14958W        W81741  33.570  17.625  10.546
14959W        W81742  14.078  19.605  14.194
14960W        W81743  42.246  31.201   0.944
14961W        W81744   4.274  12.040  10.378
14962W        W81745  26.136  41.256   0.434
14963W        W81746  19.403  19.242   2.859
14964W        W81747  20.219  14.329  12.872
14965W        W81748  22.943   8.725  13.089
14966W        W81749   2.836  28.581   0.186
14967W        W81750  14.223  37.389   2.832
14968W        W81751  33.226  20.757  12.645
14969W        W81752  30.408   6.463  12.497
14970W        W81753  40.082   9.698  13.342
14971W        W81754  40.335  14.567  11.214
14972W        W81755   2.706  31.652   3.127
14973W        W81756   3.416  19.456  12.908
14974W        W81757   3.768   2.218   2.844
14975W        W81758  26.965  27.700  10.905
14976W        W81759  16.435   7.423  14.367
14977W        W81760  29.944   7.429   2.176
14978W        W81761   4.274  37.171  11.038
14979W        W81762  25.572  15.237   4.463
14980W        W81763   2.641  23.798  12.514
14981W        W81764  20.002  27.236  14.767
14982W        W81765   6.936  23.894  13.886
14983W        W81766  35.133  13.552  14.331
14984W        W81767   6.022  41.780  12.442
14985W        W81768   7.843   9.178  12.605
14986W        W81769  11.770  34.568   1.903
14987W        W81770   4.726  14.720   3.318
14988W        W81771   5.754  42.250   0.419
14989W        W81772  10.186  13.774  10.739
14990W        W81773  37.537  29.922   2.749
14991W        W81774  23.576  30.549  14.804
14992W        W81775  40.999  11.418  14.440
14993W        W81776  26.724   4.375   4.943
14994W        W81777  38.143  29.498   2.292
14995W        W81778  33.762  25.994  13.915
14996W        W81779  14.606  34.490   4.090
14997W        W81780   6.199  24.207  13.480
14998W        W81781  14.325   6.273   4.083
14999W        W81782  19.062   8.394   4.450
15000W        W81783  10.322  31.193  10.996
15001W        W81784  22.804  41.852   3.663
15002W        W81785  33.182  29.856   3.270
15003W        W81786  37.559  31.431  14.951
15004W        W81787   6.149  26.224   0.374
15005W        W81788  27.017  19.570   4.831
15006W        W81789  39.004   3.326   4.629
15007W        W81790  22.476  31.049  11.655
15008W        W81791   6.921  40.426   3.752
15009W        W81792  13.780  39.229   0.308
15010W        W81793   1.589  42.622  13.206
15011W        W81794  20.076  25.247   1.782
15012W        W81795  14.325   7.695   5.070
15013W        W81796  12.574  20.573  12.128
15014W        W81797   5.908  19.982   1.760
15015W        W81798   1.215  36.081  14.511
15016W        W81799   2.401  30.382   1.819
15017W        W81800  39.404   2.694   4.839
15018W        W81801  18.749   0.419   4.563
15019W        W81802  21.787  25.241   0.717
15020W        W81803  13.251  23.007   0.680
15021W        W81804  18.133  30.127   2.624
15022W        W81805   4.413  39.316   3.716
15023W        W81806  33.742  16.833  10.359
15024W        W81807  28.672  40.503   1.296
15025W        W81808  44.410  14.213  13.406
15026W        W81809  40.940  11.106  11.559
15027W        W81810  13.010   3.948  11.260
15028W        W81811  19.178  13.763  12.163
15029W        W81812  27.741  14.085   4.138
15030W        W81813   7.811  25.155  10.219
15031W        W81814   9.811  42.491  13.065
15032W        W81815   4.283  12.241   3.191
15033W        W81816  22.156   8.300   3.942
15034W        W81817  39.366  17.676   3.994
15035W        W81818  43.310  18.524  14.400
15036W        W81819   0.533  17.803  11.963
15037W        W81820  19.387  17.295   0.441
15038W        W81821  37.288  19.124   1.318
15039W        W81822   2.160  11.708  12.932
15040W        W81823  23.690  19.921  14.433
15041W        W81824  42.311   0.993  11.645
15042W        W81825  11.334  29.489   4.621
15043W        W81826  18.243  19.461  14.963
15044W        W81827  23.412  42.735  14.482
15045W        W81828  40.031  13.762  14.956
15046W        W81829   7.333   0.312  14.814
15047W        W81830  23.212  20.356   0.314
15048W        W81831  28.300  21.722   0.430
15049W        W81832   4.036  30.701   4.623
15050W        W81833  36.327  35.678   2.348
15051W        W81834  41.125  34.020  14.924
15052W        W81835  11.865  23.359  11.354
15053W        W81836  12.670  23.716   0.892
15054W        W81837  41.231  20.470  10.776
15055W        W81838  41.079  43.444   0.398
15056W        W81839  38.782   6.232   5.045
15057W        W81840  39.851   3.731  10.381
15058W        W81841   4.445  12.298   2.171
15059W        W81842  41.018   0.742  11.867
15060W        W81843   2.515  37.012  10.564
15061W        W81844  23.704  15.286  13.543
15062W        W81845  15.674  33.927   1.485
15063W        W81846  14.461  39.503   5.106
15064W        W81847  34.688  20.464   0.967
15065W        W81848  10.283  23.710   2.853
15066W        W81849  16.321  12.129  11.659
15067W        W81850   2.967  31.727   4.024
15068W        W81851  19.652  27.338   2.640
15069W        W81852  30.045   2.552  13.380
15070W        W81853  39.292  15.706   1.312
15071W        W81854   0.546   4.975   1.877
15072W        W81855   2.907  12.947   1.483
15073W        W81856  23.418  39.343  14.902
15074W        W81857   2.882  23.003  10.696
15075W        W81858  18.587  39.104   2.712
15076W        W81859  13.007   6.345  12.779
15077W        W81860  37.333  19.693   3.381
15078W        W81861  25.070  12.993   2.628
15079W        W81862   9.410  10.785   3.714
15080W        W81863  12.592  18.215   0.227
15081W        W81864   0.300  28.478  12.162
15082W        W81865   1.287   7.860   1.351
15083W        W81866  35.468  16.762  13.082
15084W        W81867  44.911  38.602   1.543
15085W        W81868   7.344  21.166  13.408
15086W        W81869  20.637  15.891  13.484
15087W        W81870  38.716  22.201  12.140
15088W        W81871  29.751  20.114  12.914
15089W        W81872  22.686  40.780   1.348
15090W        W81873  39.979  37.940  11.241
15091W        W81874   5.700  15.651   0.012
15092W        W81875  41.083  28.776  13.388
15093W        W81876  41.419  42.728  14.310
15094W        W81877  12.390  17.746   0.398
15095W        W81878  23.045   2.701  12.558
15096W        W81879   4.275  32.030   2.198
15097W        W81880   7.144  29.566   0.973
15098W        W81881  32.979  12.264   0.067
15099W        W81882  20.702  23.137   1.213
15100W        W81883   3.932  28.056   4.453
15101W        W81884   9.802  31.183   0.337
15102W        W81885   4.149  39.000   3.301
15103W        W81886  12.265   9.663  10.906
15104W        W81887  16.668   8.510  12.034
15105W        W81888  30.718   8.800  13.830
15106W        W81889  10.791  10.523  12.925
15107W        W81890  27.108  23.220   3.676
15108W        W81891  19.719  11.210  14.847
15109W        W81892  34.704  17.060  11.528
15110W        W81893  41.770  34.892   3.794
15111W        W81894  38.939  23.235  14.800
15112W        W81895  15.281  10.716   4.267
15113W        W81896  13.542  27.982   3.628
15114W        W81897   4.864   0.494   2.807
15115W        W81898   0.237  26.104   3.372
15116W        W81899   1.481  38.375  14.891
15117W        W81900  10.589  38.422  13.576
15118W        W81901   0.402  31.573   3.569
15119W        W81902  27.200  18.510  11.074
15120W        W81903   9.959  43.042   3.638
15121W        W81904  26.226   9.621  10.441
15122W        W81905  27.214   7.226   4.677
15123W        W81906   7.995  17.874  12.013
15124W        W81907  38.012  17.237   0.397
15125W        W81908   0.331  31.870   0.300
15126W        W81909  17.043  36.421  13.312
15127W        W81910   3.190  10.905  14.855
15128W        W81911   7.802  38.779  13.548
15129W        W81912  23.117  12.930   3.059
15130W        W81913   0.677  33.838  11.718
15131W        W81914   8.979  32.128   4.840
15132W        W81915  35.893  39.370   2.105
15133W        W81916  35.458  23.026   1.257
15134W        W81917   7.826  10.110  14.986
15135W        W81918  23.762   7.669  11.102
15136W        W81919   5.924  19.514  11.147
15137W        W81920   1.019  10.923  12.229
15138W        W81921  21.998   7.900  14.830
15139W        W81922  22.748  16.844   2.872
15140W        W81923   5.890  42.452  10.803
15141W        W81924  34.864  39.278   1.714
15142W        W81925  43.702   8.504  12.486
15143W        W81926  16.720  30.430  11.445
15144W        W81927  40.538   5.933  13.800
15145W        W81928   3.269  10.190   2.657
15146W        W81929  15.115  26.732   0.426
15147W        W81930   9.949  16.704  14.930
15148W        W81931  18.082   9.981   3.562
15149W        W81932  41.776  39.980   3.745
15150W        W81933  13.047  11.158   4.723
15151W        W81934  10.673  44.885   2.095
15152W        W81935   3.502  32.556   4.870
15153W        W81936  18.725   4.900   3.640
15154W        W81937  16.068  20.152   0.254
15155W        W81938  36.509  25.331  10.623
15156W        W81939  11.275   5.547   1.391
15157W        W81940  28.217  29.977   4.890
15158W        W81941   4.476  35.408  11.577
15159W        W81942   3.735  29.613   0.925
15160W        W81943  24.370   8.999   1.863
15161W        W81944   6.216   3.094   0.422
15162W        W81945   7.174  32.677  12.080
15163W        W81946  27.070  14.736   1.722
15164W        W81947  15.765  35.733  11.144
15165W        W81948  40.503  24.166  13.860
15166W        W81949  30.960  39.213   2.756
15167W        W81950  44.261   9.824   2.830
15168W        W81951  28.092   1.951  14.490
15169W        W81952  19.738  22.006   2.863
15170W        W81953   8.142  40.494  13.030
15171W        W81954  32.060  38.197   4.361
15172W        W81955  20.182  21.759   0.798
15173W        W81956   2.029  19.147   2.699
15174W        W81957   8.751  22.779   0.051
15175W        W81958  10.604  36.793   1.321
15176W        W81959  16.082  23.742   4.160
15177W        W81960  14.541  12.205  14.316
15178W        W81961  24.012  44.000  10.531
15179W        W81962   1.296  29.894  11.055
15180W        W81963  38.266  12.983  10.243
15181W        W81964  20.496  14.747  12.976
15182W        W81965  19.809  26.866  10.647
15183W        W81966  23.516  10.131  11.136
15184W        W81967  24.033  44.860   4.770
15185W        W81968  17.666  20.178  12.480
15186W        W81969  23.112   4.180   1.639
15187W        W81970  40.237  39.870   4.603
15188W        W81971  16.053  24.167   0.903
15189W        W81972  42.863  26.749   1.328
15190W        W81973  43.353  28.768   3.783
15191W        W81974   0.361  42.037  13.306
15192W        W81975  11.296  20.991  14.832
15193W        W81976  25.483  14.815   0.373
15194W        W81977  37.225   7.750   0.956
15195W        W81978  26.537  38.813  14.450
15196W        W81979  23.458  15.866  11.973
15197W        W81980  30.159   7.881   1.353
15198W        W81981  27.234  29.508  14.558
15199W        W81982  35.722   8.723  12.510
15200W        W81983  16.715  32.919  12.641
15201W        W81984  11.639  14.887   1.444
15202W        W81985   8.911  32.867   2.781
15203W        W81986   8.852  21.145   0.006
15204W        W81987  43.404  17.452  13.544
15205W        W81988  27.570  28.739  11.890
15206W        W81989  23.517  14.405   2.782
15207W        W81990  33.580   9.505  11.237
15208W        W81991  33.364  18.218  13.562
15209W        W81992  19.076   8.433  11.514
15210W        W81993  33.062   1.224   3.429
15211W        W81994  30.627   7.673  12.916
15212W        W81995  30.547  16.471  13.944
15213W        W81996  10.135   5.903   5.116
15214W        W81997   5.181  12.421  14.806
15215W        W81998  39.712   5.828  12.027
15216W        W81999  37.597  17.236   1.425
15217W        W82000  13.248  13.347   0.302
15218W        W82001  26.075   9.720   4.146
15219W        W82002  35.355  15.554  10.925
15220W        W82003  15.172  18.566   3.237
15221W        W82004  39.740  38.383   2.257
15222W        W82005  38.485  10.120  11.577
15223W        W82006  32.434   7.186   0.773
15224W        W82007  13.336  39.112  14.437
15225W        W82008   2.237   2.208   3.710
15226W        W82009  40.298  42.068   4.579
15227W        W82010  29.413   1.831  14.977
15228W        W82011  20.296   2.622  12.034
15229W        W82012   4.485   3.341  14.192
15230W        W82013  14.446  27.486   2.838
15231W        W82014  10.208  14.645   0.730
15232W        W82015  30.451  25.223  13.142
15233W        W82016   3.468   2.670  14.119
15234W        W82017  22.106  19.817   3.434
15235W        W82018  36.541  35.527  12.539
15236W        W82019  31.979  40.896  12.345
15237W        W82020  18.250   4.488   4.347
15238W        W82021  37.447  36.624  10.722
15239W        W82022   6.329  22.148   3.396
15240W        W82023  29.074  36.066   3.534
15241W        W82024  41.380  13.311  13.845
15242W        W82025   0.794  11.338  10.781
15243W        W82026  21.368  14.600   2.208
15244W        W82027  40.306  30.558   2.925
15245W        W82028  20.925   3.931  10.725
15246W        W82029  29.628  22.467   2.625
15247W        W82030  12.792  44.044   1.875
15248W        W82031  22.141  15.801  13.090
15249W        W82032  26.693  41.314  12.145
15250W        W82033  13.050   3.681  11.692
15251W        W82034  25.142  35.980   3.415
15252W        W82035   4.435  42.349  14.394
15253W        W82036  37.520  19.583  13.709
15254W        W82037  13.224  31.256  14.440
15255W        W82038  25.907  20.037  10.801
15256W        W82039  32.701  10.366   3.698
15257W        W82040  40.996  27.558  10.699
15258W        W82041  13.832  30.706   0.320
15259W        W82042  12.862  39.842  14.874
15260W        W82043   7.247  13.894   2.151
15261W        W82044  15.701  17.392   5.080
15262W        W82045  24.255  33.514   3.244
15263W        W82046  24.471  18.142  13.493
15264W        W82047  13.509  37.505  12.794
15265W        W82048   8.486   4.361   0.546
15266W        W82049  12.240  34.874   0.836
15267W        W82050  23.682  20.228   0.449
15268W        W82051  34.525  12.313   0.553
15269W        W82052   6.899  43.811   0.832
15270W        W82053  12.568  14.250  11.909
15271W        W82054  12.321  15.555   4.679
15272W        W82055  44.587  40.267   3.701
15273W        W82056  36.594  40.771   0.565
15274W        W82057  16.177  30.438  11.603
15275W        W82058  17.094   5.805   1.606
15276W        W82059  25.529  26.659   4.554
15277W        W82060   5.301   1.449   4.112
15278W        W82061   3.670  19.694   1.334
15279W        W82062  43.466  19.346   3.754
15280W        W82063  38.908   1.483  12.423
15281W        W82064  27.901   3.206  10.825
15282W        W82065  15.757   5.763  14.069
15283W        W82066  11.300   3.789  13.206
15284W        W82067  32.112  36.926   3.245
15285W        W82068   5.013  21.827  12.034
15286W        W82069  17.825  43.124   2.151
15287W        W82070  27.659  40.779  12.906
15288W        W82071   0.019  16.060   2.312
15289W        W82072  22.535  36.812   4.315
15290W        W82073  33.449  36.588  14.936
15291W        W82074  21.556  10.915   1.311
15292W        W82075  31.840  12.740  12.646
15293W        W82076   2.309  34.588   3.376
15294W        W82077  34.558  32.318  12.047
15295W        W82078  26.905  25.996  12.949
15296W        W82079  13.771  38.717   3.610
15297W        W82080   5.362  32.596  13.339
15298W        W82081  20.375  33.419  10.826
15299W        W82082   0.062  25.412   4.562
15300W        W82083   6.659  30.762  11.488
15301W        W82084  41.267  21.976   2.737
15302W        W82085   5.905  10.764  14.997
15303W        W82086  20.233  36.958   0.185
15304W        W82087  32.476  19.539   3.741
15305W        W82088  44.037   5.740  14.001
15306W        W82089  29.057  11.520  13.099
15307W        W82090   8.787   6.970  12.331
15308W        W82091  18.457  34.533   2.259
15309W        W82092  44.713   8.662   0.256
15310W        W82093  39.070  11.428  14.130
15311W        W82094  31.625  19.018  12.255
15312W        W82095  24.317  20.622   2.187
15313W        W82096   1.951  32.891   3.890
15314W        W82097  40.477  31.669  13.928
15315W        W82098   7.679  43.183   4.102
15316W        W82099   1.426  29.108   0.332
15317W        W82100  10.784  39.287   3.580
15318W        W82101  38.812  30.338  14.878
15319W        W82102  18.995  25.233   0.965
15320W        W82103   0.567  22.437   4.128
15321W        W82104  10.659  27.824  12.882
15322W        W82105  15.550  32.182   0.053
15323W        W82106  36.042  43.863   0.746
15324W        W82107  28.900  38.405  13.963
15325W        W82108   6.925  32.792  13.889
15326W        W82109  38.187  15.961   4.269
15327W        W82110  12.583  30.089   1.749
15328W        W82111  23.016  38.569  11.000
15329W        W82112   5.295  23.108   1.450
15330W        W82113  12.522   7.439   0.460
15331W        W82114  29.094  36.582  14.086
15332W        W82115  36.921  10.103  13.042
15333W        W82116  44.788   4.964  10.644
15334W        W82117   1.584  40.857   0.352
15335W        W82118  40.372   6.378  14.952
15336W        W82119  43.836   6.743  13.762
15337W        W82120   2.809  44.511  14.429
15338W        W82121  16.446   0.467  14.549
15339W        W82122  44.651  11.728  12.164
15340W        W82123  20.243  18.532  11.633
15341W        W82124   7.549  29.939   0.331
15342W        W82125   7.651  25.452   4.574
15343W        W82126  27.042  18.570   0.834
15344W        W82127  11.989   6.829  12.049
15345W        W82128   9.269  11.102  13.027
15346W        W82129  25.493  14.594   4.602
15347W        W82130  20.305  15.247   3.685
15348W        W82131  17.825  20.190  13.838
15349W        W82132  24.718  24.464   0.323
15350W        W82133   1.294  27.477   2.140
15351W        W82134  42.847  14.468   2.128
15352W        W82135  31.412  40.321   4.364
15353W        W82136  10.783  14.789   2.806
15354W        W82137  43.415  23.078   4.077
15355W        W82138  11.252  20.648   4.429
15356W        W82139  25.779  14.746   3.671
15357W        W82140   4.973  27.342  13.299
15358W        W82141  36.477  25.578   3.226
15359W        W82142  29.969  13.241   4.781
15360W        W82143  44.779  28.233   1.869
15361W        W82144  14.554  37.626   9.862
15362W        W82145  11.336  10.124   1.303
15363W        W82146  43.067  34.472   3.368
15364W        W82147   1.902  16.308  13.856
15365W        W82148  33.101  26.150  14.768
15366W        W82149   0.347  20.498   2.098
15367W        W82150  15.510   9.739   2.860
15368W        W82151  44.904  13.832  14.892
15369W        W82152   8.629  36.091  14.268
15370W        W82153  16.896  28.984  14.327
15371W        W82154  23.561  27.029   2.143
15372W        W82155  43.738   7.881   2.275
15373W        W82156  27.113  21.968  12.444
15374W        W82157  32.990  42.428  10.500
15375W        W82158   6.311  37.093   0.875
15376W        W82159  43.458  37.582   4.804
15377W        W82160  23.263  15.067  11.987
15378W        W82161  21.589  10.406  10.753
15379W        W82162  16.641  32.348   3.746
15380W        W82163   6.798  29.910  13.411
15381W        W82164  29.600  13.071  11.449
15382W        W82165  15.981  42.808   3.702
15383W        W82166   9.414   7.057   0.417
15384W        W82167   1.494   5.358  13.371
15385W        W82168   7.717  21.930   1.245
15386W        W82169  15.797   7.258   3.147
15387W        W82170  41.798  31.061  10.963
15388W        W82171  14.358  24.291   1.440
15389W        W82172  44.502   7.438   3.137
15390W        W82173  25.551  44.695   2.295
15391W        W82174   3.731  25.565   3.906
15392W        W82175  10.211  17.501  14.408
15393W        W82176  40.971  38.262   4.446
15394W        W82177   1.371  11.704  14.034
15395W        W82178  30.461  38.966   0.971
15396W        W82179   1.432  15.248  14.046
15397W        W82180  17.243  40.468  13.017
15398W        W82181  22.838  37.128  10.621
15399W        W82182  28.028  23.272  14.519
15400W        W82183   7.761  36.465   2.271
15401W        W82184  30.057  13.813  10.720
15402W        W82185  43.748  30.981   0.162
15403W        W82186  24.966  29.009   0.948
15404W        W82187  21.207  27.188  14.957
15405W        W82188  33.542  29.484   3.066
15406W        W82189  29.493  44.277  14.422
15407W        W82190  41.836  39.892   2.618
15408W        W82191   2.186  21.085   4.877
15409W        W82192   1.268   7.363   0.420
15410W        W82193  31.367  11.702  14.339
15411W        W82194   2.485  40.801  11.615
15412W        W82195  41.929  23.159   0.079
15413W        W82196  36.603  32.605   2.127
15414W        W82197  37.110  18.755   4.618
15415W        W82198   7.723  32.179   0.487
15416W        W82199  37.890  23.293  13.983
15417W        W82200  34.483  37.599   4.390
15418W        W82201   6.960  41.757  11.072
15419W        W82202   8.113   1.526   2.391
15420W        W82203  34.730   9.598   4.017
15421W        W82204  22.217  37.840  13.458
15422W        W82205   5.924  29.915   1.284
15423W        W82206  32.231  22.206  14.765
15424W        W82207  15.152  21.337  11.423
15425W        W82208  28.471   4.134  11.040
15426W        W82209  15.178   0.057   2.401
15427W        W82210  41.804   6.912   4.638
15428W        W82211  10.859   5.067  11.547
15429W        W82212  13.763  38.240  10.805
15430W        W82213  12.642  12.053  14.754
15431W        W82214  43.544   8.403  11.591
15432W        W82215  34.144  17.258   4.396
15433W        W82216  10.791  27.137  14.947
15434W        W82217  32.931  44.856   4.584
15435W        W82218  29.374  28.128   4.560
15436W        W82219   2.995  32.124  11.756
15437W        W82220  25.337  33.422  14.802
15438W        W82221   4.340  41.845  14.135
15439W        W82222  15.563  33.461   3.326
15440W        W82223   7.766  41.453   3.223
15441W        W82224  36.645  40.014  10.378
15442W        W82225  33.942   4.267   0.326
15443W        W82226   0.707  17.413  14.551
15444W        W82227  28.739  12.566  11.239
15445W        W82228  17.562  39.425  12.125
15446W        W82229   0.231  32.299   1.202
15447W        W82230   2.575   4.782   5.089
15448W        W82231  36.005   6.731  14.802
15449W        W82232  28.068  17.957  11.152
15450W        W82233  44.861  32.346   3.745
15451W        W82234  21.050   9.132   1.318
15452W        W82235  31.874   7.306  11.203
15453W        W82236  26.107   5.360  10.956
15454W        W82237   7.244  12.175   2.835
15455W        W82238  13.837  30.607   3.776
15456W        W82239  29.484  14.141  11.512
15457W        W82240  42.459  37.711  12.799
15458W        W82241  17.680  38.880  13.887
15459W        W82242  10.387   1.859   3.839
15460W        W82243  33.185  43.022  14.441
15461W        W82244  34.885  30.009  13.797
15462W        W82245  44.296  32.201   3.570
15463W        W82246  32.509  34.267  10.999
15464W        W82247  21.751  38.889   0.729
15465W        W82248  34.365   1.870  10.756
15466W        W82249   6.303  35.136   4.459
15467W        W82250  21.701  35.372  14.685
15468W        W82251  26.501   7.536   3.295
15469W        W82252   4.319   6.171  13.497
15470W        W82253  41.797  30.502   3.731
15471W        W82254  25.257  21.188   1.594
15472W        W82255  17.015   6.386  11.585
15473W        W82256   8.877   5.822  12.961
15474W        W82257   5.273  32.240   2.204
15475W        W82258  35.545  26.721   2.310
15476W        W82259  30.114  43.326   0.795
15477W        W82260  35.052  14.078  14.546
15478W        W82261  14.802  31.418   2.739
15479W        W82262  18.179  44.713  10.382
15480W        W82263  44.046  39.412   3.898
15481W        W82264  19.632  32.698   2.663
15482W        W82265  11.269   4.867  14.497
15483W        W82266  34.155  40.818  13.004
15484W        W82267  40.459   4.770  13.536
15485W        W82268  42.935  17.240   0.311
15486W        W82269  37.341  29.139  14.019
15487W        W82270  39.980  24.956   2.822
15488W        W82271  15.781  10.795   4.615
15489W        W82272  31.912   7.779  12.440
15490W        W82273   4.521  42.851  14.496
15491W        W82274   2.359  11.664   3.654
15492W        W82275   4.822   5.905  13.532
15493W        W82276  29.130  38.989   2.448
15494W        W82277   7.726  22.862  12.579
15495W        W82278  37.630   7.403   9.719
15496W        W82279  13.069  29.361  13.268
15497W        W82280   8.968  21.852  12.544
15498W        W82281   8.627   9.105   0.909
15499W        W82282  15.574  34.746   2.106
15500W        W82283  43.336  17.013  14.427
15501W        W82284  14.116   5.901   3.785
15502W        W82285  14.160  21.983  13.344
15503W        W82286  24.421   9.131  14.427
15504W        W82287  24.603  37.910  14.820
15505W        W82288   1.885  14.218   2.909
15506W        W82289  28.194  42.787   2.885
15507W        W82290  16.719  24.679  12.936
15508W        W82291  23.169  34.110   3.039
15509W        W82292  34.691  24.265   4.162
15510W        W82293  11.585   2.525   4.517
15511W        W82294  23.637  44.109   4.529
15512W        W82295   8.824  14.121   1.363
15513W        W82296  26.763  33.210  11.008
15514W        W82297  41.911  24.147   0.294
15515W        W82298  12.548   6.431  12.976
15516W        W82299  22.199  20.496  11.506
15517W        W82300  25.077  43.828   0.367
15518W        W82301   6.220  38.843  12.351
15519W        W82302  13.876  32.445  13.503
15520W        W82303   2.029  42.800   2.033
15521W        W82304  37.013  22.012   0.664
15522W        W82305   0.802  41.185   0.964
15523W        W82306  37.631  33.322   0.919
15524W        W82307  41.020  36.424   0.720
15525W        W82308  18.546   2.032   4.600
15526W        W82309  23.496   0.843   0.350
15527W        W82310  16.042   8.260   0.652
15528W        W82311   6.769  28.227  12.436
15529W        W82312  34.077  11.708  14.338
15530W        W82313  16.675  33.048   2.445
15531W        W82314  24.727  39.972  11.365
15532W        W82315  39.472   2.494  11.690
15533W        W82316  27.448  15.669   2.100
15534W        W82317   3.059  12.768   2.374
15535W        W82318  17.742  44.494   3.616
15536W        W82319   5.993  14.673   4.168
15537W        W82320  37.479  16.771  10.921
15538W        W82321  41.041  41.683   1.764
15539W        W82322  25.018  22.211   1.701
15540W        W82323  11.771  24.104  12.099
15541W        W82324  41.523  27.966  13.392
15542W        W82325  30.623  20.563   1.544
15543W        W82326  41.077  37.329   2.901
15544W        W82327  33.987   4.660  11.667
15545W        W82328   1.297   2.507  14.393
15546W        W82329  14.842  27.300  10.537
15547W        W82330   2.345  11.339   1.657
15548W        W82331  18.296  31.108  11.976
15549W        W82332  29.109  37.562   4.661
15550W        W82333  43.376  16.589   3.703
15551W        W82334  24.578  10.406  11.536
15552W        W82335  11.099   4.265  13.451
15553W        W82336  13.832   0.865  11.526
15554W        W82337  25.566  13.219   1.902
15555W        W82338   4.978  44.590  14.095
15556W        W82339  11.051  44.710  11.119
15557W        W82340  22.526  11.430   3.256
15558W        W82341  41.730  41.009  12.832
15559W        W82342  27.960  37.307   4.315
15560W        W82343  24.943  30.198   3.100
15561W        W82344  28.070  10.502   1.731
15562W        W82345  29.248  10.732  11.996
15563W        W82346   9.876  19.793   4.649
15564W        W82347   6.398   7.296   4.651
15565W        W82348   8.776  10.103  12.585
15566W        W82349  33.894   1.230   2.956
15567W        W82350  44.192  17.407   9.865
15568W        W82351  26.800  29.591  13.370
15569W        W82352   4.630  10.120   3.742
15570W        W82353  11.612  39.070  10.647
15571W        W82354   2.485  43.793   1.430
15572W        W82355  22.029  10.180  14.752
15573W        W82356  30.551  28.064  10.725
15574W        W82357   4.468  11.420   1.737
15575W        W82358   1.292  26.575   1.325
15576W        W82359  19.725  44.357   0.006
15577W        W82360   5.993   7.666   4.588
15578W        W82361  42.772  25.331   4.736
15579W        W82362   3.995  15.158   4.591
15580W        W82363  10.521  40.879   4.878
15581W        W82364  24.527  36.392   0.357
15582W        W82365  30.620  34.165  13.432
15583W        W82366  40.885   9.705  13.843
15584W        W82367  44.904  21.542   2.914
15585W        W82368  37.650  41.380   9.661
15586W        W82369  20.057  22.660  12.126
15587W        W82370   3.892  44.362   0.882
15588W        W82371  17.097  40.970  10.747
15589W        W82372  29.758   0.769  10.758
15590W        W82373  36.319   8.163  11.600
15591W        W82374  31.631  31.190  10.741
15592W        W82375  31.001  24.540  11.858
15593W        W82376   9.664  23.251   2.248
15594W        W82377   4.786   0.098   0.013
15595W        W82378  25.701  31.515   1.308
15596W        W82379   2.452  19.470  11.635
15597W        W82380  36.121   9.668   2.907
15598W        W82381  20.603   4.169  13.297
15599W        W82382  40.994  11.176  13.934
15600W        W82383  25.110  34.692   0.351
15601W        W82384  41.914  27.409  13.275
15602W        W82385   4.822  39.931  11.870
15603W        W82386  16.845   0.927  14.470
15604W        W82387   4.900  20.208  14.378
15605W        W82388  15.635  41.543   0.331
15606W        W82389  31.968   5.940   0.924
15607W        W82390  26.757   3.409  11.421
15608W        W82391  42.338  40.522  14.030
15609W        W82392  44.731  31.854   2.153
15610W        W82393  35.127  27.524  13.493
15611W        W82394  31.099  44.580   1.623
15612W        W82395   8.866  44.700  10.624
15613W        W82396  18.208  28.103  11.854
15614W        W82397  13.800  37.600  14.472
15615W        W82398  37.214   9.863  10.800
15616W        W82399   7.722  14.483   1.239
15617W        W82400  22.778   0.002  11.638
15618W        W82401  18.807  34.115  11.111
15619W        W82402   0.541  15.762   3.232
15620W        W82403  17.785   9.425  12.351
15621W        W82404  37.113  15.779   3.516
15622W        W82405   1.847  10.946  14.621
15623W        W82406  42.699  28.371  12.094
15624W        W82407  41.818  38.569  11.597
15625W        W82408  23.077  38.524   0.407
15626W        W82409  44.473  22.785   0.957
15627W        W82410   0.697  32.010   3.739
15628W        W82411  44.089  41.226  13.669
15629W        W82412  14.168  29.655   0.788
15630W        W82413  10.907  37.063   1.722
15631W        W82414  26.672  17.244  13.717
15632W        W82415  19.307  33.458  12.698
15633W        W82416  25.246   0.823  14.938
15634W        W82417  26.715  31.513   1.379
15635W        W82418  13.323  11.848  14.614
15636W        W82419   3.212   8.347  13.917
15637W        W82420  42.797  11.851  12.584
15638W        W82421   8.636  23.153  14.246
15639W        W82422  34.910  39.811  11.660
15640W        W82423   1.700  13.616  11.171
15641W        W82424  26.040  28.638  14.902
15642W        W82425  33.958  31.093   4.778
15643W        W82426   1.382  25.094  11.426
15644W        W82427   2.747   4.828   0.275
15645W        W82428  17.582  43.771   4.127
15646W        W82429  23.340  30.610   2.881
15647W        W82430  25.132  28.188  11.166
15648W        W82431  35.675  44.714  14.904
15649W        W82432  22.752  26.052   0.351
15650W        W82433   0.988  22.956   1.878
15651W        W82434  34.393  31.557   2.352
15652W        W82435   6.801  24.255   3.191
15653W        W82436  10.683   7.177   1.969
15654W        W82437  16.272  15.316  11.500
15655W        W82438  22.064   1.314   5.369
15656W        W82439   5.280  36.111   2.094
15657W        W82440  10.096  35.364   4.958
15658W        W82441  24.712   3.901   3.086
15659W        W82442  34.455   0.473   1.342
15660W        W82443  34.437   0.919  12.511
15661W        W82444  24.586  24.624   9.806
15662W        W82445  20.448  16.109  11.580
15663W        W82446  14.608  15.021  14.916
15664W        W82447  44.393  33.991   0.409
15665W        W82448  28.572  30.605   4.826
15666W        W82449  24.120   9.865   1.480
15667W        W82450  34.406   1.849   0.996
15668W        W82451  14.602   0.231   1.185
15669W        W82452   8.847  19.406   2.024
15670W        W82453   6.900  42.986  11.524
15671W        W82454  10.414   4.982   1.481
15672W        W82455   3.188  33.105  11.136
15673W        W82456  14.180  39.529  13.495
15674W        W82457  26.417  35.305  11.086
15675W        W82458  40.238   1.625  14.742
15676W        W82459   0.475  37.584  13.517
15677W        W82460  14.904  17.811  10.524
15678W        W82461  24.682  31.660   4.433
15679W        W82462   4.467  20.545   2.166
15680W        W82463   1.852  26.593   2.790
15681W        W82464  41.494  24.003  10.558
15682W        W82465  39.051  38.347  14.839
15683W        W82466  30.962  40.634  11.955
15684W        W82467  36.094  37.412  14.289
15685W        W82468   3.833  21.100  14.807
15686W        W82469  29.518  21.301   1.004
15687W        W82470  13.646  12.155   3.661
15688W        W82471  18.756  39.424  13.306
15689W        W82472  16.093  37.564   2.340
15690W        W82473  29.027  26.478   4.064
15691W        W82474  31.612   7.820   4.897
15692W        W82475   5.500  12.745  13.859
15693W        W82476  39.971   3.108  14.963
15694W        W82477  13.118  21.575  11.305
15695W        W82478  28.504  30.911   2.162
15696W        W82479  21.758  27.012  13.755
15697W        W82480  43.599   4.509  10.616
15698W        W82481   2.444  31.469  10.955
15699W        W82482  43.937  42.408   2.440
15700W        W82483   1.800  15.806  13.823
15701W        W82484  31.528  40.243  14.549
15702W        W82485   0.831  24.677  13.027
15703W        W82486  21.190   9.240  11.640
15704W        W82487  18.129  17.716   3.787
15705W        W82488   7.966  42.583   3.319
15706W        W82489  33.370  10.272   1.144
15707W        W82490  24.781   8.376   3.067
15708W        W82491   2.692   7.466   0.785
15709W        W82492  21.559  43.546   4.586
15710W        W82493  17.824  34.303  11.971
15711W        W82494  10.172  40.913   4.479
15712W        W82495  11.087  36.757  10.180
15713W        W82496  29.786  33.230   1.927
15714W        W82497  20.353  14.630   4.374
15715W        W82498  15.332  33.519  14.921
15716W        W82499   4.217   4.818   0.227
15717W        W82500  29.318   6.134   4.195
15718W        W82501  41.068  32.982  11.543
15719W        W82502  13.941  43.180   2.543
15720W        W82503  30.854  41.355  12.400
15721W        W82504  42.357  34.963  10.534
15722W        W82505  13.795  25.049  12.993
15723W        W82506  40.476   0.893  14.250
15724W        W82507  41.857  19.970   4.597
15725W        W82508  24.773   9.094   0.769
15726W        W82509  16.502  35.365  12.454
15727W        W82510   4.278  20.980  11.708
15728W        W82511   0.606  37.819   2.243
15729W        W82512  16.135   0.840  11.986
15730W        W82513  29.367  31.466   4.971
15731W        W82514  36.858   2.897   2.290
15732W        W82515  19.243   5.698   1.770
15733W        W82516  44.025  40.551   0.824
15734W        W82517   8.334  14.100  12.382
15735W        W82518  37.139  16.227  13.052
15736W        W82519  42.099  28.078   3.726
15737W        W82520  34.776  21.543   3.997
15738W        W82521  35.294  24.971   0.019
15739W        W82522   4.487  32.584  14.096
15740W        W82523  24.241  16.328  14.531
15741W        W82524  43.327  37.276  14.850
15742W        W82525  18.157   0.628  11.987
15743W        W82526  43.324  34.054   4.131
15744W        W82527  19.224  12.724  12.559
15745W        W82528  30.661  32.395  12.550
15746W        W82529   5.557  14.607   1.495
15747W        W82530   0.924  37.549   4.532
15748W        W82531  16.364  18.004  13.394
15749W        W82532  34.759  11.546  11.874
15750W        W82533   0.989  14.061   1.998
15751W        W82534  40.997   3.084   3.672
15752W        W82535  30.892  32.689   0.248
15753W        W82536  36.138  13.857   0.206
15754W        W82537   6.191  31.773   2.232
15755W        W82538   3.264  32.090  14.049
15756W        W82539  32.939   1.782   0.031
15757W        W82540   9.848  43.011   1.314
15758W        W82541  37.618  24.398   0.352
15759W        W82542  42.538   1.495  10.851
15760W        W82543  19.118  34.203   3.428
15761W        W82544  36.984  42.578   3.290
15762W        W82545  31.563  24.227   4.545
15763W        W82546   1.428  10.241   4.613
15764W        W82547   4.682  21.071  14.261
15765W        W82548  19.132  39.964   2.713
15766W        W82549  36.775  22.777  11.960
15767W        W82550   0.350  20.504  13.993
15768W        W82551   3.128   1.378   0.360
15769W        W82552  39.834  28.015  14.401
15770W        W82553  23.785  12.735   2.289
15771W        W82554  19.165   4.499  11.574
15772W        W82555  42.864  31.446   0.099
15773W        W82556  15.347   5.347   2.011
15774W        W82557  17.679  30.075  11.102
15775W        W82558   7.751   1.301  13.747
15776W        W82559  30.606  22.648  11.119
15777W        W82560  42.880   2.634   4.921
15778W        W82561   1.176  41.527  10.211
15779W        W82562  25.936  41.560  10.337
15780W        W82563  29.896  26.967   0.462
15781W        W82564   6.324  42.807   2.892
15782W        W82565  25.540  33.143   3.274
15783W        W82566  20.104  17.311  13.358
15784W        W82567  21.083  34.500   4.611
15785W        W82568  14.935  25.616   0.856
15786W        W82569  15.808   0.461   2.170
15787W        W82570  44.260  35.349  11.989
15788W        W82571  24.609  28.573   0.320
15789W        W82572  29.698  16.137   4.836
15790W        W82573   3.424  43.790  11.891
15791W        W82574  34.613   3.051  14.290
15792W        W82575  36.464   4.353  10.809
15793W        W82576  23.151  11.630   2.470
15794W        W82577   2.915  27.145  12.977
15795W        W82578  31.411   4.611  10.059
15796W        W82579   9.102   1.474  13.053
15797W        W82580  21.240  29.654  11.563
15798W        W82581  42.723  17.640   0.554
15799W        W82582  43.560  10.294  12.491
15800W        W82583  28.429   0.981   2.818
15801W        W82584   1.867  25.752  12.519
15802W        W82585  41.446  10.317   4.161
15803W        W82586  34.220  21.000   2.118
15804W        W82587  18.099  14.377   0.405
15805W        W82588   3.766   9.612   2.195
15806W        W82589   7.686  24.288  12.833
15807W        W82590  17.610  25.151  12.065
15808W        W82591   2.031  19.569  11.008
15809W        W82592   4.528  35.000   1.937
15810W        W82593  22.663  17.378   2.173
15811W        W82594   9.483  14.296   2.011
15812W        W82595  19.261   8.812  12.477
15813W        W82596  27.043  25.497   1.244
15814W        W82597  23.318  31.473   2.672
15815W        W82598  20.127   1.371  10.378
15816W        W82599   7.611  16.798   4.862
15817W        W82600  43.848  27.254  13.050
15818W        W82601  37.439  14.782   0.069
15819W        W82602  41.810   9.894   4.651
15820W        W82603  23.781  35.537  13.969
15821W        W82604  16.648  29.516   3.821
15822W        W82605   6.398  37.888   4.242
15823W        W82606  15.420  27.147   0.394
15824W        W82607  30.107  44.160   2.223
15825W        W82608  15.148   4.741  11.626
15826W        W82609  14.535  39.603  12.967
15827W        W82610  12.335  17.989  11.662
15828W        W82611   0.502  12.175   1.836
15829W        W82612  39.831  12.866   1.877
15830W        W82613  16.840  13.632  11.846
15831W        W82614  14.774  35.888   1.853
15832W        W82615   2.801  23.622  12.058
15833W        W82616  12.793  22.747   2.935
15834W        W82617  31.926  27.942   3.188
15835W        W82618  20.124   5.842  11.219
15836W        W82619  27.520  43.577  10.589
15837W        W82620  32.103  41.797  14.005
15838W        W82621   4.884  28.196  14.549
15839W        W82622  28.005   9.264  10.747
15840W        W82623  21.328   1.295   2.979
15841W        W82624  44.936  22.420  13.429
15842W        W82625   0.900  42.507   4.149
15843W        W82626  12.278  44.058  14.736
15844W        W82627  35.825  24.631  11.725
15845W        W82628   5.267  41.983   3.739
15846W        W82629  34.042   9.330  13.917
15847W        W82630  31.400  13.200  10.529
15848W        W82631   5.037  14.102   9.694
15849W        W82632  34.404  18.517   3.777
15850W        W82633  30.643  35.323  10.722
15851W        W82634  21.126   1.346  13.029
15852W        W82635  34.433  16.226  12.591
15853W        W82636  14.631   7.436  13.483
15854W        W82637  31.399  23.172   3.186
15855W        W82638  38.867  35.582   2.287
15856W        W82639   3.780  30.889  11.370
15857W        W82640  28.081   4.027  14.875
15858W        W82641  26.506  43.755  12.425
15859W        W82642   8.611   6.309   1.837
15860W        W82643  44.907  38.492  14.019
15861W        W82644  37.870  30.738   1.860
15862W        W82645  30.679   7.175  10.674
15863W        W82646  22.765   8.111  11.621
15864W        W82647  33.968  10.325  12.249
15865W        W82648  18.332  24.444  12.560
15866W        W82649  44.352  16.685   1.930
15867W        W82650  41.030  33.810   4.233
15868W        W82651  27.732  29.514   2.295
15869W        W82652   4.795  32.615  12.679
15870W        W82653   6.628  43.536   1.160
15871W        W82654   4.706  21.955  12.679
15872W        W82655  30.039  19.108  10.864
15873W        W82656  41.890  26.487  13.396
15874W        W82657  29.712  38.999   4.967
15875W        W82658  37.715   6.282   3.212
15876W        W82659   4.364  41.586   3.894
15877W        W82660  27.587  22.592  12.964
15878W        W82661  38.465  34.240  12.481
15879W        W82662  44.144  24.975   4.174
15880W        W82663  20.381  12.138  12.156
15881W        W82664  41.604   9.101   0.744
15882W        W82665  17.499   0.028  11.554
15883W        W82666  40.790  34.982   3.632
15884W        W82667  32.672   4.472  11.087
15885W        W82668   1.771   8.914   1.875
15886W        W82669   9.863  41.388  10.484
15887W        W82670  42.083   6.413  12.081
15888W        W82671  35.592   8.318   4.246
15889W        W82672  33.711   7.269  14.509
15890W        W82673  23.601  31.047   0.756
15891W        W82674  24.198  13.937   0.217
15892W        W82675  19.078  34.835  10.957
15893W        W82676  27.589  37.136   1.203
15894W        W82677  40.590   6.253   1.825
15895W        W82678   1.204  26.814   3.997
15896W        W82679  14.057  43.805   0.280
15897W        W82680  43.802  32.979  11.253
15898W        W82681  13.837  39.530  14.810
15899W        W82682  24.536  19.687  12.355
15900W        W82683   9.802  19.192  10.670
15901W        W82684   1.323  20.963   3.719
15902W        W82685  35.480  25.412  13.203
15903W        W82686   7.252  40.028  11.692
15904W        W82687  37.038  38.055  13.421
15905W        W82688  38.163  16.454  12.797
15906W        W82689   5.128  10.639  14.491
15907W        W82690  22.693   7.511   4.257
15908W        W82691  16.623  44.873  11.240
15909W        W82692  19.608  27.744   3.544
15910W        W82693  20.796   2.350  13.344
15911W        W82694  44.241  25.560   2.934
15912W        W82695  22.135   7.404   5.018
15913W        W82696  29.519  29.271  13.314
15914W        W82697  18.824  11.408  12.874
15915W        W82698  33.589  26.024  14.744
15916W        W82699  29.703  12.125   3.232
15917W        W82700  32.949   9.714   4.138
15918W        W82701   6.420  10.304  11.471
15919W        W82702  10.338   1.394   2.269
15920W        W82703  42.546  16.077  13.421
15921W        W82704  13.944  28.456   1.301
15922W        W82705  27.722  18.545  13.890
15923W        W82706   0.720  18.191  11.590
15924W        W82707  39.588  41.464   1.886
15925W        W82708  30.951  35.178  13.268
15926W        W82709  29.033  16.192   1.334
15927W        W82710  26.839  38.609  12.411
15928W        W82711  29.366  37.510  12.533
15929W        W82712  21.096   9.749  10.795
15930W        W82713   3.321  35.774  12.017
15931W        W82714  41.159  32.628   0.541
15932W        W82715   7.653  26.986   2.513
15933W        W82716  11.759  43.868   0.469
15934W        W82717  33.348   0.879  13.565
15935W        W82718  24.365  20.574   4.024
15936W        W82719  37.462  29.192  11.021
15937W        W82720   2.421  40.468   2.805
15938W        W82721  26.179  36.496  14.732
15939W        W82722  36.192  22.509   0.733
15940W        W82723  18.044  34.416  14.679
15941W        W82724  39.462  21.679   3.378
15942W        W82725   7.360  11.719  12.608
15943W        W82726  35.079  27.839   4.631
15944W        W82727  16.028  24.172   2.873
15945W        W82728   0.879   5.394  12.969
15946W        W82729  34.099   8.236  13.079
15947W        W82730  31.390  44.114  12.469
15948W        W82731   4.901  38.786  12.841
15949W        W82732   6.770  44.043  12.593
15950W        W82733  28.590  27.948  14.489
15951W        W82734  25.164  17.112   3.836
15952W        W82735  33.129   8.824   0.695
15953W        W82736  32.618   2.449   2.038
15954W        W82737  27.387  42.784   3.715
15955W        W82738  28.625   8.845  10.473
15956W        W82739  36.830  38.585   2.788
15957W        W82740  19.028  29.577   2.747
15958W        W82741   5.494  17.147  13.861
15959W        W82742  32.210  12.283   1.421
15960W        W82743  43.417  15.427   5.015
15961W        W82744  10.882  12.859  12.919
15962W        W82745  12.600  31.991   2.436
15963W        W82746  29.024  34.967  13.811
15964W        W82747   2.853   6.864   1.936
15965W        W82748  25.745  20.775  13.000
15966W        W82749  42.076   4.447   4.168
15967W        W82750   4.754  27.648   3.148
15968W        W82751  15.708  41.358  11.014
15969W        W82752  30.594   3.263   3.275
15970W        W82753  29.059  25.407   4.056
15971W        W82754  37.830  25.152   2.764
15972W        W82755  34.551  41.073   4.709
15973W        W82756  39.470  34.417  12.418
15974W        W82757  33.606  26.745  14.092
15975W        W82758  32.433  23.985   2.732
15976W        W82759  16.199  43.782   4.655
15977W        W82760  41.058  29.694  12.013
15978W        W82761  40.934  36.153  12.658
15979W        W82762  17.751  35.712   2.006
15980W        W82763  15.723  28.212   3.275
15981W        W82764  25.304   8.576  12.929
15982W        W82765  33.357  41.532   5.166
15983W        W82766  11.206  25.670  12.843
15984W        W82767  34.337   8.138  13.812
15985W        W82768  33.017  44.476  10.652
15986W        W82769   5.552  12.979   2.274
15987W        W82770  35.874  31.227   1.434
15988W        W82771  37.161  19.678  14.621
15989W        W82772   5.708   3.829  12.995
15990W        W82773  10.224  32.094  12.004
15991W        W82774  31.369   1.296   4.747
15992W        W82775  37.168  24.460   2.726
15993W        W82776   5.932  21.049   1.810
15994W        W82777  15.175  22.530   0.922
15995W        W82778   6.211   7.539   2.803
15996W        W82779  14.759  21.690  12.519
15997W        W82780  25.068  40.254   3.005
15998W        W82781  32.548  41.566  12.883
15999W        W82782  40.473  39.564   4.211
16000W        W82783  17.986  34.504  12.912
16001W        W82784   1.726  30.130   0.417
16002W        W82785  18.079   5.367  13.516
16003W        W82786   2.271   4.180  12.051
16004W        W82787  42.810   0.314  12.421
16005W        W82788  27.597  16.118   2.822
16006W        W82789  14.595  43.709   3.076
16007W        W82790  44.711   9.446   0.832
16008W        W82791  25.013  10.655  13.934
16009W        W82792   1.497  42.596   3.719
16010W        W82793   8.868  32.239  11.525
16011W        W82794  29.905  21.994   2.173
16012W        W82795  41.806  18.727  11.499
16013W        W82796   8.106   4.337   4.134
16014W        W82797  42.764  29.005  10.983
16015W        W82798  39.099  44.893   2.498
16016W        W82799   7.809   5.890  10.826
16017W        W82800  13.449   4.357   4.272
16018W        W82801  23.001  36.407  13.163
16019W        W82802  36.458  31.994  11.734
16020W        W82803  22.163  31.593   3.697
16021W        W82804  43.771  30.947   4.213
16022W        W82805  16.817  41.421  13.483
16023W        W82806   4.748  33.485  13.555
16024W        W82807  22.415  33.355   1.910
16025W        W82808   0.925  21.014   4.411
16026W        W82809  37.274  43.509  13.319
16027W        W82810  17.103  14.921  11.451
16028W        W82811  29.597  36.925   2.397
16029W        W82812  11.872  39.998  10.822
16030W        W82813  39.810  44.555  12.500
16031W        W82814  11.616  30.463   1.472
16032W        W82815  20.812   1.913  12.197
16033W        W82816  41.852  26.108   0.805
16034W        W82817  12.693  34.929   3.330
16035W        W82818   6.477  42.360   3.146
16036W        W82819   4.240  11.224   1.300
16037W        W82820  23.120  21.726  11.533
16038W        W82821   0.714  29.471  13.466
16039W        W82822  26.051   4.076   0.194
16040W        W82823   1.810   1.192   1.808
16041W        W82824  33.610  16.664   0.435
16042W        W82825  22.626   2.468   2.680
16043W        W82826  11.494  24.981   3.948
16044W        W82827   0.278  39.411  11.870
16045W        W82828  22.083   2.070   2.208
16046W        W82829  12.191  26.428  12.143
16047W        W82830  39.773  37.076  12.348
16048W        W82831  32.960  10.293   4.626
16049W        W82832   6.131  31.269   2.307
16050W        W82833  28.976  27.777   2.624
16051W        W82834   7.866  38.790   0.514
16052W        W82835  38.953  37.991   4.243
16053W        W82836   4.805   0.793   3.634
16054W        W82837  25.429  40.886  12.412
16055W        W82838  42.839  20.124   5.169
16056W        W82839  14.706  14.675  12.349
16057W        W82840   7.663  32.836   3.288
16058W        W82841  13.694  36.459  13.958
16059W        W82842   7.411   0.997  14.483
16060W        W82843  29.210   1.401   0.205
16061W        W82844   0.523   9.089   4.094
16062W        W82845  28.540  43.864  11.514
16063W        W82846  12.085  21.799  14.450
16064W        W82847   2.478  26.601  10.786
16065W        W82848  16.746  44.438  14.498
16066W        W82849   5.831   0.258  12.044
16067W        W82850  31.845   5.739  14.973
16068W        W82851  16.656   6.680   3.231
16069W        W82852  25.626  39.988   2.228
16070W        W82853  20.983  20.129  12.079
16071W        W82854  32.182   5.678   1.329
16072W        W82855  21.063  36.665  12.009
16073W        W82856   2.068  28.567  10.778
16074W        W82857   4.682   2.424  12.046
16075W        W82858   6.732  42.052   2.787
16076W        W82859  34.266  23.779  14.551
16077W        W82860  18.030   2.709   2.716
16078W        W82861  28.047  43.500   2.339
16079W        W82862  44.822   4.191  11.187
16080W        W82863  44.476  10.597   2.400
16081W        W82864  11.724  42.534   0.460
16082W        W82865  41.414  11.032   4.610
16083W        W82866  39.740  43.909   4.455
16084W        W82867  40.512  22.211   3.179
16085W        W82868  37.092  28.517   1.248
16086W        W82869  16.389  43.947  12.644
16087W        W82870  31.917  30.252   0.905
16088W        W82871  23.061  15.078  11.120
16089W        W82872   3.671  28.892  14.911
16090W        W82873  33.172  38.940   4.135
16091W        W82874  24.935  37.428  13.895
16092W        W82875  11.152  30.617  10.986
16093W        W82876  43.846  30.629  11.907
16094W        W82877  27.281  28.487   4.470
16095W        W82878  32.532  27.100   0.713
16096W        W82879  18.717  34.971   3.691
16097W        W82880  15.173  18.945   4.866
16098W        W82881  38.483   6.368   1.744
16099W        W82882  13.849  44.265  11.128
16100W        W82883  14.144  43.469   4.807
16101W        W82884  41.531  40.014   1.731
16102W        W82885  11.386   2.128  12.909
16103W        W82886   0.525  34.566   1.754
16104W        W82887  43.099   1.841   4.309
16105W        W82888  12.358  18.765  12.452
16106W        W82889  26.913  33.381   0.999
16107W        W82890  36.069  34.101   2.865
16108W        W82891  10.096  24.298   1.818
16109W        W82892   0.284  27.899   3.717
16110W        W82893  25.982   2.487  12.346
16111W        W82894  35.985   2.583  12.949
16112W        W82895  23.295  15.096   3.022
16113W        W82896   3.686  37.912   4.899
16114W        W82897  35.731   5.777  11.651
16115W        W82898  39.913  21.823   3.147
16116W        W82899   1.745  25.128  10.742
16117W        W82900  14.825   7.978  14.861
16118W        W82901   7.751   6.095   4.623
16119W        W82902   3.374  40.280  14.236
16120W        W82903  31.170  39.498   2.283
16121W        W82904  32.171  34.386   2.373
16122W        W82905  36.046  26.629  13.616
16123W        W82906  22.619   8.616  12.562
16124W        W82907  23.264  27.014  13.373
16125W        W82908   6.476   7.008   1.437
16126W        W82909   8.588  44.354   1.774
16127W        W82910  27.481  10.854  11.655
16128W        W82911  40.027   6.886   0.779
16129W        W82912  26.916   1.654   1.370
16130W        W82913  39.047  14.719   3.704
16131W        W82914   9.385  36.115   1.899
16132W        W82915   9.190  14.228  12.346
16133W        W82916  26.518  21.448  14.861
16134W        W82917  19.152  21.225  13.589
16135W        W82918  39.533  30.357  13.546
16136W        W82919   9.387  28.937   3.996
16137W        W82920   9.952  43.425   4.043
16138W        W82921  24.652  19.852  11.905
16139W        W82922   8.851  16.717  12.955
16140W        W82923  23.513  32.976   4.445
16141W        W82924  35.813  34.243  13.059
16142W        W82925  14.600  30.118   2.874
16143W        W82926   7.435  39.818  13.058
16144W        W82927  35.580   8.879  10.334
16145W        W82928  33.135  43.612   3.697
16146W        W82929  43.980  35.097   0.960
16147W        W82930   6.408  34.980  13.461
16148W        W82931  14.282  28.107   2.082
16149W        W82932  30.542   9.849  12.565
16150W        W82933  41.504  34.973  12.814
16151W        W82934  12.718  14.918  14.055
16152W        W82935  37.878   7.202   3.257
16153W        W82936  11.686  41.783  12.772
16154W        W82937  39.652  10.241  10.087
16155W        W82938   0.480   8.683  13.372
16156W        W82939   4.348  35.645  14.856
16157W        W82940  22.837  11.369  10.728
16158W        W82941  37.871   1.266   1.844
16159W        W82942  39.849   0.552  12.638
16160W        W82943  19.334  23.579  14.834
16161W        W82944  25.635  37.351   4.004
16162W        W82945  41.829  23.982  11.113
16163W        W82946   2.740  33.146  12.906
16164W        W82947  26.579  24.548  13.398
16165W        W82948  22.428  35.939  14.928
16166W        W82949  27.004  44.931  12.689
16167W        W82950  36.392  21.692   1.389
16168W        W82951   0.833  34.384  14.636
16169W        W82952  31.602  14.974  12.943
16170W        W82953  35.907  27.409  12.919
16171W        W82954   7.205  14.503  13.938
16172W        W82955  30.417  36.943  12.326
16173W        W82956   0.390   5.844   4.962
16174W        W82957  13.626  39.610  14.305
16175W        W82958  10.926   2.899   1.221
16176W        W82959  37.369  40.305  10.523
16177W        W82960   2.389  36.483   2.864
16178W        W82961  30.023  28.431  11.024
16179W        W82962  21.189  17.332   3.321
16180W        W82963   7.351  12.155  13.018
16181W        W82964   3.855   2.895   2.304
16182W        W82965  10.636  34.644  14.751
16183W        W82966  13.323  19.377  11.080
16184W        W82967  31.949   1.112   2.787
16185W        W82968  14.617  40.328   3.866
16186W        W82969  28.982   5.048  12.442
16187W        W82970  39.372  10.651   3.774
16188W        W82971  26.706  17.344  12.543
16189W        W82972  28.613   7.519   2.510
16190W        W82973  35.377  36.792   2.226
16191W        W82974  10.842   1.961   4.082
16192W        W82975  41.493  24.242   4.055
16193W        W82976  33.262  15.103  13.474
16194W        W82977  42.869  10.689  14.367
16195W        W82978  13.564  43.023   2.876
16196W        W82979  26.000   7.681   3.279
16197W        W82980  17.672  24.131   2.247
16198W        W82981  42.330  24.013   2.488
16199W        W82982  12.550  44.018  10.630
16200W        W82983  41.225   8.686  13.978
16201W        W82984  19.037  34.905  10.419
16202W        W82985  38.397  18.475  10.874
16203W        W82986  20.050  35.701  10.109
16204W        W82987   6.392   5.013  13.529
16205W        W82988  22.992   4.933  11.684
16206W        W82989   4.363   5.711   4.763
16207W        W82990  36.115  15.097   4.146
16208W        W82991  30.880  12.168   1.037
16209W        W82992  14.178  28.673  12.916
16210W        W82993   7.361  10.466   1.261
16211W        W82994   0.046  25.494  13.570
16212W        W82995  38.298  25.728   0.307
16213W        W82996  28.232   2.823  14.405
16214W        W82997  43.697  33.420   4.851
16215W        W82998  27.948   0.396  12.506
16216W        W82999  41.999  15.670   0.236
16217W        W83000  14.783  14.170   1.339
16218W        W83001  10.179  34.883  12.846
16219W        W83002  11.766   0.696  11.530
16220W        W83003   0.346  26.861   2.497
16221W        W83004  21.653  42.781   2.091
16222W        W83005   8.972  38.382  11.488
16223W        W83006   7.206  13.130   2.702
16224W        W83007   4.749   8.602  12.016
16225W        W83008   5.262  20.816  10.695
16226W        W83009  35.088   9.280   0.109
16227W        W83010  18.989  25.102  11.698
16228W        W83011  13.033  44.238  11.573
16229W        W83012  26.509  43.450   0.483
16230W        W83013  16.144   4.819   1.614
16231W        W83014   5.789  25.134  14.891
16232W        W83015  31.822  13.200  11.503
16233W        W83016  43.473  12.219  10.826
16234W        W83017   7.059  14.750  13.498
16235W        W83018  25.517   0.061   0.540
16236W        W83019  41.760  20.581  13.007
16237W        W83020  18.066   5.909   3.384
16238W        W83021  28.920  41.227   1.954
16239W        W83022  15.352  44.915   1.414
16240W        W83023   8.712   0.148  11.238
16241W        W83024  23.516  24.040  12.034
16242W        W83025  22.319  25.086  12.630
16243W        W83026  27.004   5.612  11.742
16244W        W83027   1.689  43.978  12.857
16245W        W83028   0.409   6.071  10.925
16246W        W83029  17.012  11.975   1.050
16247W        W83030   3.736  40.983  14.507
16248W        W83031  13.697   3.990   0.310
16249W        W83032  43.356   6.249  12.990
16250W        W83033  17.356  11.704   4.775
16251W        W83034  24.600   3.548  13.560
16252W        W83035  23.114   4.972   9.929
16253W        W83036  20.655  22.133  12.512
16254W        W83037  29.729  41.783   4.450
16255W        W83038  44.985  22.036  14.804
16256W        W83039  15.889  40.260  12.825
16257W        W83040  42.057   8.591  14.902
16258W        W83041  42.713  29.896  10.705
16259W        W83042  41.471  32.900   0.222
16260W        W83043  25.076  39.426   1.839
16261W        W83044  11.378  44.064  12.648
16262W        W83045  22.934  41.358  13.287
16263W        W83046  38.089  37.703   0.328
16264W        W83047  39.795  22.040   3.592
16265W        W83048   3.626  42.393   3.167
16266W        W83049   7.034  25.969   0.291
16267W        W83050  31.326  17.313   0.484
16268W        W83051  35.564  41.246  13.144
16269W        W83052  33.451   7.445   0.280
16270W        W83053  21.413  28.951   1.704
16271W        W83054   3.265  28.981   9.837
16272W        W83055  16.651  35.495  11.538
16273W        W83056   2.228  21.604   1.780
16274W        W83057   0.354  40.747  12.682
16275W        W83058  20.204  19.827   3.529
16276W        W83059   1.316  32.492  14.504
16277W        W83060   4.695  12.725   1.904
16278W        W83061   1.738  10.312  11.122
16279W        W83062  21.633  20.933   4.810
16280W        W83063  41.547   3.810  11.128
16281W        W83064  30.448  24.016   1.285
16282W        W83065  40.560   5.874  12.435
16283W        W83066   0.305  44.401   0.308
16284W        W83067   4.955   4.306  12.033
16285W        W83068   8.296  28.138   2.972
16286W        W83069  43.256  26.500   4.129
16287W        W83070  32.549  14.154   0.971
16288W        W83071  27.906  12.697   3.253
16289W        W83072  31.342   3.435  10.736
16290W        W83073  11.755  35.036   0.701
16291W        W83074   7.712   2.208   0.407
16292W        W83075  14.273   0.251   0.717
16293W        W83076  29.890  37.599  14.779
16294W        W83077  16.066  34.432  11.556
16295W        W83078  20.745  10.104   3.732
16296W        W83079  33.479  29.353   4.590
16297W        W83080   9.209  11.607  14.390
16298W        W83081   3.132   2.343   2.274
16299W        W83082  29.544  16.638   2.327
16300W        W83083  20.906  25.259   3.757
16301W        W83084  36.455  33.014   2.378
16302W        W83085   2.281  21.829  12.042
16303W        W83086  30.961   8.563   0.752
16304W        W83087  11.065  14.359  10.810
16305W        W83088  42.779   4.723  12.104
16306W        W83089  25.715  31.911   3.614
16307W        W83090  29.196  21.973   0.712
16308W        W83091   9.303  17.645  14.498
16309W        W83092   5.688  20.316   3.618
16310W        W83093  35.611  34.911   1.256
16311W        W83094  34.586  38.803  11.145
16312W        W83095  36.295  15.896  13.465
16313W        W83096  39.299  36.847  12.354
16314W        W83097  27.901  34.543  13.050
16315W        W83098  39.476  43.856  11.055
16316W        W83099   6.812  31.318  11.537
16317W        W83100  36.943  44.729   0.306
16318W        W83101  20.714  10.135  10.691
16319W        W83102  33.525   7.847  13.468
16320W        W83103  24.630   2.443   4.147
16321W        W83104   6.928   1.806  11.991
16322W        W83105  43.004  12.127   4.217
16323W        W83106  43.062  35.313   2.467
16324W        W83107   8.713  28.897  14.757
16325W        W83108  12.820  12.928  10.228
16326W        W83109  36.925  30.173  12.778
16327W        W83110   7.863   6.322  12.492
16328W        W83111   7.220  27.693   0.027
16329W        W83112  10.901   3.622   0.968
16330W        W83113  32.587   3.699   2.317
16331W        W83114  33.452   8.122  13.933
16332W        W83115  27.718  30.655  14.964
16333W        W83116  43.224  19.293   4.225
16334W        W83117   7.415  35.106  11.996
16335W        W83118  34.921   4.695   1.362
16336W        W83119  18.672  30.433   1.797
16337W        W83120  15.335  12.964   1.879
16338W        W83121  17.651   6.310   0.481
16339W        W83122  20.977  34.874   3.281
16340W        W83123   8.743  12.916   4.740
16341W        W83124   5.792  19.817   3.403
16342W        W83125   8.426  25.763   1.899
16343W        W83126  16.822  32.529   1.649
16344W        W83127  35.365  36.116   3.760
16345W        W83128  27.031  23.120  11.273
16346W        W83129  37.524  27.698   4.702
16347W        W83130  44.484  40.927   1.771
16348W        W83131  34.714   5.881   1.437
16349W        W83132   6.158  36.567  12.021
16350W        W83133   1.068  23.789   3.288
16351W        W83134  22.717   7.213  11.513
16352W        W83135  15.146  15.984   2.587
16353W        W83136  32.608   1.772  11.578
16354W        W83137  43.898  28.177  13.046
16355W        W83138   6.497   1.755  14.542
16356W        W83139  24.699  20.339   3.686
16357W        W83140  26.485  21.013   5.014
16358W        W83141  33.994  33.888  13.878
16359W        W83142  31.248  34.892  12.347
16360W        W83143  27.231   8.981   4.213
16361W        W83144  30.139  28.936  11.186
16362W        W83145  21.241  39.493  13.517
16363W        W83146   6.450  12.854   3.282
16364W        W83147  37.728  42.208  12.944
16365W        W83148  19.151  32.102   3.650
16366W        W83149  26.033   2.538   1.147
16367W        W83150   7.176  11.344  14.885
16368W        W83151   0.811  35.757  13.384
16369W        W83152  14.751   1.766  14.387
16370W        W83153   6.556  15.843  14.860
16371W        W83154   3.775  26.265  12.103
16372W        W83155  15.461  10.143  10.788
16373W        W83156  36.766  44.941  13.783
16374W        W83157   7.867  32.080  11.716
16375W        W83158   8.112   5.378  10.445
16376W        W83159  33.143  18.035  11.631
16377W        W83160  17.194  35.868   1.336
16378W        W83161  38.821   9.429   4.076
16379W        W83162  40.820  11.705  10.730
16380W        W83163  31.693  20.158  11.858
16381W        W83164  40.620  15.932   1.344
16382W        W83165  14.623  31.386  12.051
16383W        W83166  33.939   5.677  10.502
16384W        W83167   8.153   9.879   1.477
16385W        W83168  24.752  40.390   0.810
16386W        W83169  44.673   9.103   5.406
16387W        W83170  10.759   4.368  12.152
16388W        W83171  37.380   8.395  10.476
16389W        W83172  16.302  15.826   1.531
16390W        W83173  16.826   9.843   0.354
16391W        W83174  25.040  23.034   0.491
16392W        W83175  17.191  40.486  12.060
16393W        W83176  33.025   0.255   0.908
16394W        W83177  36.653  42.461  10.864
16395W        W83178   6.661  18.154   4.085
16396W        W83179  41.527   3.319  11.265
16397W        W83180  42.836  30.566   1.305
16398W        W83181  27.148  27.595   2.649
16399W        W83182  33.954  42.760   3.280
16400W        W83183  17.229  32.632  12.586
16401W        W83184  21.274  42.578  10.561
16402W        W83185  31.381  11.103   3.231
16403W        W83186  18.987  29.199   1.857
16404W        W83187  21.697   1.754   2.308
16405W        W83188   4.525  43.433  12.873
16406W        W83189  13.373  22.656   0.278
16407W        W83190  35.793  28.469   3.272
16408W        W83191  21.919  24.457   9.973
16409W        W83192  29.693  33.044  10.918
16410W        W83193  12.346   8.271  13.465
16411W        W83194  44.765  20.174  10.671
16412W        W83195  43.770  29.049   2.662
16413W        W83196  21.720  25.085  14.482
16414W        W83197   2.681  33.354  14.396
16415W        W83198  43.987  26.792  12.116
16416W        W83199  17.310  35.872  13.478
16417W        W83200  10.224  10.804  10.338
16418W        W83201  43.288  30.093  13.207
16419W        W83202  30.068  36.952   0.504
16420W        W83203  37.563  25.178  12.413
16421W        W83204  13.539   4.875   2.371
16422W        W83205   4.367  41.566   0.340
16423W        W83206  21.864  42.580   1.286
16424W        W83207  34.545  25.980   3.704
16425W        W83208   8.160  19.262  13.300
16426W        W83209  38.232  34.597  12.218
16427W        W83210  15.875  33.816  13.272
16428W        W83211  35.157  40.099   1.444
16429W        W83212  41.109  30.289  14.575
16430W        W83213  25.465  34.582  12.881
16431W        W83214  36.539   5.693  11.232
16432W        W83215  17.616  16.110  13.964
16433W        W83216  30.650  43.553   1.148
16434W        W83217  19.549   3.659  11.649
16435W        W83218   5.878   7.347  14.252
16436W        W83219  14.265  10.228   0.301
16437W        W83220  25.167   6.708  12.820
16438W        W83221  18.153  34.046  14.308
16439W        W83222  28.277   9.199  13.236
16440W        W83223  35.007  41.616  12.565
16441W        W83224   2.920  44.208   0.768
16442W        W83225  40.035  44.922   0.873
16443W        W83226  26.510  13.879   1.536
16444W        W83227  36.825  43.383  13.071
16445W        W83228   2.910  25.609   2.405
16446W        W83229  15.244   4.218  14.385
16447W        W83230  12.589  17.225   1.482
16448W        W83231  43.299  36.579   0.497
16449W        W83232  30.900   3.740   3.888
16450W        W83233  20.972  43.668   2.776
16451W        W83234   1.867  42.284   3.915
16452W        W83235  30.545  32.490  13.442
16453W        W83236  17.057  40.211   5.022
16454W        W83237  33.474  29.735  12.550
16455W        W83238  15.486  25.568   0.011
16456W        W83239  38.080  42.910   0.857
16457W        W83240  24.557  16.174   3.433
16458W        W83241  18.507  17.642  11.069
16459W        W83242   0.855  33.952   4.344
16460W        W83243   0.478  41.288   2.292
16461W        W83244  14.155  44.715  14.353
16462W        W83245  20.815  15.886  14.390
16463W        W83246  40.078   7.400  10.936
16464W        W83247   6.231  33.573   1.685
16465W        W83248   1.240  28.121   3.726
16466W        W83249  30.660   8.931   4.084
16467W        W83250  38.866   1.603   3.597
16468W        W83251  19.144  26.658  11.231
16469W        W83252   5.347  30.226  14.046
16470W        W83253  21.762  31.888   4.853
16471W        W83254  14.277  19.590  12.430
16472W        W83255  40.549  30.520   0.369
16473W        W83256  19.307  31.208   3.251
16474W        W83257  19.798  25.321  11.517
16475W        W83258   2.447   5.400   3.326
16476W        W83259  38.898  36.135   0.497
16477W        W83260   4.284  14.578   3.577
16478W        W83261  40.583   1.492  11.143
16479W        W83262  11.401  17.051   0.432
16480W        W83263  26.847   7.849  11.101
16481W        W83264  30.349  21.574  11.896
16482W        W83265  30.718  40.547  13.499
16483W        W83266  12.084  41.699  12.427
16484W        W83267  15.179  25.290   2.721
16485W        W83268  41.903  34.635   4.711
16486W        W83269  42.884  26.813  14.981
16487W        W83270  26.641  29.938   3.110
16488W        W83271  39.803  44.318  14.781
16489W        W83272  43.805  35.403  12.361
16490W        W83273  44.470  21.399   4.348
16491W        W83274   6.751  32.767   0.699
16492W        W83275  35.147  28.132   1.919
16493W        W83276  12.438  11.700   0.475
16494W        W83277  42.997  40.874  12.457
16495W        W83278  12.053  16.802  11.111
16496W        W83279  40.575   9.373  14.979
16497W        W83280   9.979  11.771   2.781
16498W        W83281  12.388  22.700   1.203
16499W        W83282   0.473  21.625  12.053
16500W        W83283  26.628   3.440   5.038
16501W        W83284  25.683   9.796   4.468
16502W        W83285  20.552  39.044  11.816
16503W        W83286  17.361  18.235   3.693
16504W        W83287  18.269  12.864  12.084
16505W        W83288   5.832  33.913   3.663
16506W        W83289  40.130  32.165  12.547
16507W        W83290  42.989  13.314  12.866
16508W        W83291  29.133   0.996   3.693
16509W        W83292   5.566  20.778  12.911
16510W        W83293  25.741   7.752  12.964
16511W        W83294  42.439  37.580  14.812
16512W        W83295   4.382   7.111   0.723
16513W        W83296  15.824   8.808   1.667
16514W        W83297   4.167  19.846  12.596
16515W        W83298  43.819  20.062  12.928
16516W        W83299  44.246  22.001  11.429
16517W        W83300  23.177  44.804   1.741
16518W        W83301  26.080  16.935  12.443
16519W        W83302  16.340  34.347   0.652
16520W        W83303  22.713  25.644   5.718
16521W        W83304  28.186  10.375  12.405
16522W        W83305   7.963  28.485   4.116
16523W        W83306  38.686  15.168   4.927
16524W        W83307  33.409  22.461  10.751
16525W        W83308   6.876  34.401   1.356
16526W        W83309   8.264  24.953  14.978
16527W        W83310  28.965  37.198  12.504
16528W        W83311  39.245  26.130   1.576
16529W        W83312  23.840   3.207  13.750
16530W        W83313  29.650   0.206   2.627
16531W        W83314  34.299   3.913   2.724
16532W        W83315  23.662  19.723   0.347
16533W        W83316  37.464  23.681  10.643
16534W        W83317  41.713  33.588   4.794
16535W        W83318  15.585  21.126   4.602
16536W        W83319  14.809   3.244   3.755
16537W        W83320   4.291   3.715   4.292
16538W        W83321  15.585  17.397  11.508
16539W        W83322  43.341  19.650  12.121
16540W        W83323  43.957   5.750   1.820
16541W        W83324  18.350  41.635   0.505
16542W        W83325  21.724  38.403   4.465
16543W        W83326  12.776   5.830  12.893
16544W        W83327  28.107  23.230   1.725
16545W        W83328   4.398  43.417   1.692
16546W        W83329  30.057   6.274   3.129
16547W        W83330   1.142  25.559  11.180
16548W        W83331  40.084  16.833   4.217
16549W        W83332  19.705  28.774   3.727
16550W        W83333  32.565   0.756   4.504
16551W        W83334   0.429  36.811  10.668
16552W        W83335  19.880   4.799   3.619
16553W        W83336  40.322   0.596  12.862
16554W        W83337  39.692  33.066  10.740
16555W        W83338  23.698  25.514   1.795
16556W        W83339  15.308  41.877   4.083
16557W        W83340  30.627  38.306  10.783
16558W        W83341  39.770  13.752  13.469
16559W        W83342  19.634  12.013  11.107
16560W        W83343  37.423   9.459  11.159
16561W        W83344  21.714   1.916   4.581
16562W        W83345   8.906  23.995   4.203
16563W        W83346  43.942  13.806   0.544
16564W        W83347   3.659  25.021   0.297
16565W        W83348  41.370  16.098  14.923
16566W        W83349  41.450   6.483   1.869
16567W        W83350  16.252   9.249   3.701
16568W        W83351  36.591  43.975   2.887
16569W        W83352  18.363   7.586  10.466
16570W        W83353   3.855  12.417  12.102
16571W        W83354  13.916  39.217  10.610
16572W        W83355  17.207  40.021   1.917
16573W        W83356   3.815   9.216  11.507
16574W        W83357  20.747   3.960   1.006
16575W        W83358  14.296  39.844   2.679
16576W        W83359  31.012  33.496   2.734
16577W        W83360  29.798  27.649   2.878
16578W        W83361  14.824  37.985   4.170
16579W        W83362  32.533  20.955   0.281
16580W        W83363  24.565  24.090   2.013
16581W        W83364  12.827  25.740   1.315
16582W        W83365  37.119  24.506  12.128
16583W        W83366  39.225  24.122  11.212
16584W        W83367   3.887  18.586   3.932
16585W        W83368   9.350  21.679  10.716
16586W        W83369  14.502  20.132  13.085
16587W        W83370  29.574  23.573  12.986
16588W        W83371   5.937  42.859   1.433
16589W        W83372   7.713  25.993   1.481
16590W        W83373  19.241  18.728   4.899
16591W        W83374  40.518   2.828  14.792
16592W        W83375  33.633  17.637   0.442
16593W        W83376  44.553  25.841   1.231
16594W        W83377   2.858   8.831  13.075
16595W        W83378   2.725  30.732  13.364
16596W        W83379  11.795   9.448  14.368
16597W        W83380  32.040  22.540  11.422
16598W        W83381   2.903  36.984   0.793
16599W        W83382  13.793   0.778   2.122
16600W        W83383  16.640   6.263  11.894
16601W        W83384   4.407  15.127   3.651
16602W        W83385   7.427  11.993  11.143
16603W        W83386  21.110   6.387   3.966
16604W        W83387  21.758  41.337  11.564
16605W        W83388  18.110   3.239   3.581
16606W        W83389   1.392  38.036   1.358
16607W        W83390   7.993   3.481  13.751
16608W        W83391   8.683  37.305  12.080
16609W        W83392  22.618  43.826   1.895
16610W        W83393  34.807   7.379   2.320
16611W        W83394  43.748  27.228   2.554
16612W        W83395  43.792  35.598  13.393
16613W        W83396  31.573   7.792   4.384
16614W        W83397  43.510  35.108  10.470
16615W        W83398  21.706  27.442   3.308
16616W        W83399  34.080  41.995   3.712
16617W        W83400  30.981  19.494   3.674
16618W        W83401  27.717  10.779   5.018
16619W        W83402  41.881  30.732   3.190
16620W        W83403  10.742  41.282  11.571
16621W        W83404   9.862  33.922  11.969
16622W        W83405   7.896  26.679  12.603
16623W        W83406   3.298   9.813   0.454
16624W        W83407  30.758  30.524   2.212
16625W        W83408   3.389  19.399  14.201
16626W        W83409  27.582  23.979   4.606
16627W        W83410  25.099  24.642   1.699
16628W        W83411  15.308   7.850   0.321
16629W        W83412  10.792  32.564   0.238
16630W        W83413  44.894   1.050   4.475
16631W        W83414  29.965   3.162   4.159
16632W        W83415  26.702  23.938  10.223
16633W        W83416  19.097  39.303  14.952
16634W        W83417  35.492   3.311   3.743
16635W        W83418  24.200  19.843  13.173
16636W        W83419  37.775  42.408   4.533
16637W        W83420  39.155   7.715   4.203
16638W        W83421  20.613   0.818   9.891
16639W        W83422  33.457  28.001  13.251
16640W        W83423  43.340  14.098  12.503
16641W        W83424  14.784  11.274  14.041
16642W        W83425  36.584  31.402   3.275
16643W        W83426  36.961   8.913   3.764
16644W        W83427  31.173  44.515  11.585
16645W        W83428  18.622  26.681   4.240
16646W        W83429  40.530  13.689   1.434
16647W        W83430  34.179  24.238   1.358
16648W        W83431   0.209  13.977  12.356
16649W        W83432  27.514  37.961  12.055
16650W        W83433  14.429  12.917  11.032
16651W        W83434  34.972  34.186   2.670
16652W        W83435  19.534  40.198   3.033
16653W        W83436  26.124  29.222  13.849
16654W        W83437   0.735  24.534   0.977
16655W        W83438  11.201   3.151   1.817
16656W        W83439  18.795  39.806   0.488
16657W        W83440  39.963  44.793   0.009
16658W        W83441  20.138  38.289   2.788
16659W        W83442  20.686  34.059   3.599
16660W        W83443  41.559  30.596  14.511
16661W        W83444  26.027  21.096   4.843
16662W        W83445   8.669  39.716   0.725
16663W        W83446  20.278  15.629  12.799
16664W        W83447   1.779  25.249   4.231
16665W        W83448  28.709  39.907  10.141
16666W        W83449  16.088  25.771   3.406
16667W        W83450   6.212  29.901  13.944
16668W        W83451  39.080   2.354  14.971
16669W        W83452  44.645  14.554  11.178
16670W        W83453  40.116  40.745   0.912
16671W        W83454   9.732   7.653  13.935
16672W        W83455  24.403  38.595  11.605
16673W        W83456  44.878  41.746  14.584
16674W        W83457  37.057  20.525   0.231
16675W        W83458   4.810  25.022  13.682
16676W        W83459  26.109  38.066   2.363
16677W        W83460  25.112  30.412  12.561
16678W        W83461  18.469  27.069   3.393
16679W        W83462  22.124  27.742  14.108
16680W        W83463  38.578  10.423   0.636
16681W        W83464   3.733  12.833  12.578
16682W        W83465   5.077  32.816  12.051
16683W        W83466  21.838  14.350  13.469
16684W        W83467  30.936  22.701  12.936
16685W        W83468  27.959  29.444  12.513
16686W        W83469  24.070  43.890   0.268
16687W        W83470  22.729  24.212  11.693
16688W        W83471  42.484  21.500  11.495
16689W        W83472   0.218  30.519   4.462
16690W        W83473  37.278  35.492  11.865
16691W        W83474  11.700   9.131   4.085
16692W        W83475   4.055  38.309  11.632
16693W        W83476   0.735  24.357  11.944
16694W        W83477  16.844  10.894   1.813
16695W        W83478  22.749   0.746   4.994
16696W        W83479   2.246  15.369   4.543
16697W        W83480  34.932   3.151  13.384
16698W        W83481   2.438   3.443   4.272
16699W        W83482  21.590  11.447  12.084
16700W        W83483  14.399  19.318   0.029
16701W        W83484  16.271   0.221  11.297
16702W        W83485   9.407  33.514  12.800
16703W        W83486  36.926  22.527   3.548
16704W        W83487  11.595  22.289   4.619
16705W        W83488  36.965  29.448  12.407
16706W        W83489  34.811  15.206   3.588
16707W        W83490  32.212   4.434   1.068
16708W        W83491  30.104  26.759   1.688
16709W        W83492  27.330  43.406   2.955
16710W        W83493  41.903  32.625  12.712
16711W        W83494  13.668  30.575   2.599
16712W        W83495  18.196  16.168  12.503
16713W        W83496   4.339  13.830   1.829
16714W        W83497  30.427   8.388  14.623
16715W        W83498  42.878  44.829   0.882
16716W        W83499  12.840  28.982   4.219
16717W        W83500  24.268   3.872  10.601
16718W        W83501  21.578  35.258   1.380
16719W        W83502  10.858   9.782   9.974
16720W        W83503  40.762  31.245  14.592
16721W        W83504  29.659  40.880  13.426
16722W        W83505  44.786  42.265  14.858
16723W        W83506  16.585   7.652  11.684
16724W        W83507  27.206  23.057  12.253
16725W        W83508  26.558  23.609  14.848
16726W        W83509  37.695  12.781  13.462
16727W        W83510  19.583  42.484  12.916
16728W        W83511  36.152  24.663  11.338
16729W        W83512  40.462  13.012  11.548
16730W        W83513   1.190  35.354  12.473
16731W        W83514   3.965   7.326   3.259
16732W        W83515  15.598  29.720  14.838
16733W        W83516  43.742  16.461   0.805
16734W        W83517   5.779  43.982  13.945
16735W        W83518  28.930  33.642  12.024
16736W        W83519  26.399  29.874  11.607
16737W        W83520  23.306  29.177  11.628
16738W        W83521   0.927  21.087   2.911
16739W        W83522  31.516  38.856   0.444
16740W        W83523  44.312  41.039  10.911
16741W        W83524  44.848  30.541  14.167
16742W        W83525  29.905  18.180  12.197
16743W        W83526  42.896  34.150   2.573
16744W        W83527  25.201   6.700  13.333
16745W        W83528  18.527   5.717   4.114
16746W        W83529   7.447  44.457  12.238
16747W        W83530   2.836  33.919   4.390
16748W        W83531  32.817  42.156  13.638
16749W        W83532   0.826  31.556  14.131
16750W        W83533  29.627   9.450   3.251
16751W        W83534  14.232  34.513   5.526
16752W        W83535  38.129  32.383  10.745
16753W        W83536  21.494  29.062   0.447
16754W        W83537   2.234  41.474  11.539
16755W        W83538  13.205  26.032  12.851
16756W        W83539  26.897  42.281   0.119
16757W        W83540  15.567  29.144   4.187
16758W        W83541  21.512  33.161   1.483
16759W        W83542  12.335   6.309  14.898
16760W        W83543   1.838  26.294  11.071
16761W        W83544  18.571  23.573   4.444
16762W        W83545  36.855  10.157   4.057
16763W        W83546  29.920   1.483   1.884
16764W        W83547   5.115  20.809  13.859
16765W        W83548  44.501  15.130  11.887
16766W        W83549  38.420  39.519  12.953
16767W        W83550   1.890  13.650   1.700
16768W        W83551  21.731  27.454   1.917
16769W        W83552  28.638  38.935  13.983
16770W        W83553  31.507  10.250   3.183
16771W        W83554  24.688   7.678  14.114
16772W        W83555  14.288  10.355  10.986
16773W        W83556  30.084  29.020  12.202
16774W        W83557  39.010  21.618   3.612
16775W        W83558  34.536  32.091   3.227
16776W        W83559  22.190  20.240  13.513
16777W        W83560  29.663   1.929   1.802
16778W        W83561   4.228  11.019  12.855
16779W        W83562  21.500  14.746  14.572
16780W        W83563  23.747  15.794  12.392
16781W        W83564   3.660   0.383   4.002
16782W        W83565  10.750  44.245   3.753
16783W        W83566  31.562  23.437   4.185
16784W        W83567  26.605   1.251  14.753
16785W        W83568  13.065  17.813  13.042
16786W        W83569  26.767   4.458  11.442
16787W        W83570   8.713   3.013   0.167
16788W        W83571   5.869   8.993  12.467
16789W        W83572  28.962  12.000  11.287
16790W        W83573  37.363  23.250   2.383
16791W        W83574  13.751  14.664  12.382
16792W        W83575  34.526  42.489   4.284
16793W        W83576  22.743   9.574   3.318
16794W        W83577  29.372  31.147   2.621
16795W        W83578  18.306  24.008  12.261
16796W        W83579  25.978  29.964   3.693
16797W        W83580  42.335  23.446   0.808
16798W        W83581  18.550  26.666  14.391
16799W        W83582  10.343  28.608   2.262
16800W        W83583   2.935  28.036  11.484
16801W        W83584  39.287   9.278   2.766
16802W        W83585  43.599  31.564   3.371
16803W        W83586  22.708  27.715  11.345
16804W        W83587  12.113  27.903  11.221
16805W        W83588  27.432  44.742  14.480
16806W        W83589  15.591  26.469   0.817
16807W        W83590   0.322  31.311   1.406
16808W        W83591  16.571  27.666  12.938
16809W        W83592  12.868  21.012   3.910
16810W        W83593   5.265  12.662  13.389
16811W        W83594   1.538   9.762  10.622
16812W        W83595  36.395  41.693  11.296
16813W        W83596  14.868  20.843   4.815
16814W        W83597  43.381   4.339  12.843
16815W        W83598   4.320  21.294  14.837
16816W        W83599  33.444  33.911   4.553
16817W        W83600  26.362  27.986  13.762
16818W        W83601  21.880   2.713   1.059
16819W        W83602   2.846  27.893   4.368
16820W        W83603  14.403  39.033  10.719
16821W        W83604  27.928   3.348   3.622
16822W        W83605  11.359  22.557   2.162
16823W        W83606   5.493   8.350   0.790
16824W        W83607  10.859  23.540  11.020
16825W        W83608  42.936   6.965   2.884
16826W        W83609  36.078  22.119  12.198
16827W        W83610  18.118  21.827  11.072
16828W        W83611   0.936  30.420  10.379
16829W        W83612  43.844   1.518  10.713
16830W        W83613  24.026   3.880   2.840
16831W        W83614   7.426   5.500   4.063
16832W        W83615   7.985  24.981   3.239
16833W        W83616  44.492  41.503  13.477
16834W        W83617  11.453  31.678   0.765
16835W        W83618  11.249  17.178   3.602
16836W        W83619  18.682  36.897  11.211
16837W        W83620   0.333  14.407  10.713
16838W        W83621  40.502  42.780  14.969
16839W        W83622   0.918  37.396  11.987
16840W        W83623  38.932  41.981   1.010
16841W        W83624  13.569  28.145   2.752
16842W        W83625  24.970  41.010   1.747
16843W        W83626  25.158  27.104   2.184
16844W        W83627  28.734  38.368  10.503
16845W        W83628  14.065  19.457   4.526
16846W        W83629  18.140  33.926  12.899
16847W        W83630  33.599  32.610   4.071
16848W        W83631   3.980  38.785   2.855
16849W        W83632  30.173  25.654   2.306
16850W        W83633  22.163   1.498   4.025
16851W        W83634  15.909  15.349  13.987
16852W        W83635   3.494  31.394   4.239
16853W        W83636   8.342  22.512   2.307
16854W        W83637  13.813  29.461  13.982
16855W        W83638  13.811  41.767   3.361
16856W        W83639  20.620  37.970  14.911
16857W        W83640  33.864  13.967   2.353
16858W        W83641  36.608  40.033  14.807
16859W        W83642  15.384   5.387   1.347
16860W        W83643  32.887  44.691   0.050
16861W        W83644   3.825  18.332  13.372
16862W        W83645  40.467  37.543  12.020
16863W        W83646  11.711   9.228  14.878
16864W        W83647  33.111  33.577  10.734
16865W        W83648  18.428  26.445   2.914
16866W        W83649  32.628  27.089  12.552
16867W        W83650  22.516  27.453   3.723
16868W        W83651  34.608   3.423   0.328
16869W        W83652  43.554   0.996  12.509
16870W        W83653  16.668   8.714  12.510
16871W        W83654  21.723  41.231   1.447
16872W        W83655  42.520  36.050  13.413
16873W        W83656  13.885   2.857   3.926
16874W        W83657  22.873  39.977  13.870
16875W        W83658   8.760  15.709  11.568
16876W        W83659  18.633  12.197   3.247
16877W        W83660  17.768   0.129   0.396
16878W        W83661  18.198  40.010  11.182
16879W        W83662  23.692  31.699   1.389
16880W        W83663  21.692   3.672   2.753
16881W        W83664  16.610  20.281  12.789
16882W        W83665  37.004  27.213   4.192
16883W        W83666  29.705  41.919   1.963
16884W        W83667  29.687  43.820  14.294
16885W        W83668  44.238  38.524   3.662
16886W        W83669   3.683  18.077   3.685
16887W        W83670  31.287  10.098  10.254
16888W        W83671  39.637  44.779  12.969
16889W        W83672  19.921  22.696   9.683
16890W        W83673  21.359  33.420   4.111
16891W        W83674  13.775  14.205   3.198
16892W        W83675  18.670  21.244  13.835
16893W        W83676  33.549   9.737   1.751
16894W        W83677   0.986  12.787   1.365
16895W        W83678  19.180  22.585   0.673
16896W        W83679  16.571  32.148   1.849
16897W        W83680   5.927  23.272  12.604
16898W        W83681  20.959  18.255   3.314
16899W        W83682  11.773  41.628   1.909
16900W        W83683   8.276   3.231   2.336
16901W        W83684   6.651   2.487   1.250
16902W        W83685  37.926   9.464   0.416
16903W        W83686  40.693  12.081  12.948
16904W        W83687  12.162  37.070  13.270
16905W        W83688  17.313  21.734   1.541
16906W        W83689   7.010  30.104  10.972
16907W        W83690  39.797  24.237   0.297
16908W        W83691   0.446  25.608   3.288
16909W        W83692   6.695   3.197   2.752
16910W        W83693  20.622  29.690  14.094
16911W        W83694  18.943  40.989   1.776
16912W        W83695  27.479   7.771  14.022
16913W        W83696  13.599  34.361   4.223
16914W        W83697  43.013   3.822   0.770
16915W        W83698  39.962  43.375   4.711
16916W        W83699  38.873  22.743  11.085
16917W        W83700  43.473  19.037   1.344
16918W        W83701  12.298  42.383  14.180
16919W        W83702  34.536  16.305  12.090
16920W        W83703  34.399  23.781   1.285
16921W        W83704  23.605   9.770  11.471
16922W        W83705   9.170   3.661   1.378
16923W        W83706   5.246  14.217  11.922
16924W        W83707   2.928  25.670   2.906
16925W        W83708  31.869  35.139   3.014
16926W        W83709  23.077  18.669   4.843
16927W        W83710   1.763  42.524   0.283
16928W        W83711  14.149  27.478   2.390
16929W        W83712  30.695  11.667  10.791
16930W        W83713  14.221  35.640  14.838
16931W        W83714  38.972  26.874   1.805
16932W        W83715  29.897  12.671  14.808
16933W        W83716   1.556  33.306  12.453
16934W        W83717  35.368   0.346   2.065
16935W        W83718  18.523  30.926   4.554
16936W        W83719  18.731  31.784   2.246
16937W        W83720  43.195   0.779   0.318
16938W        W83721  10.536  11.772  13.851
16939W        W83722   9.875  13.853  12.071
16940W        W83723  25.743  43.045   0.460
16941W        W83724  25.118  30.732  13.007
16942W        W83725  35.144   8.228   4.442
16943W        W83726  27.096   8.703  13.945
16944W        W83727   8.408  26.476  14.247
16945W        W83728  39.389  22.986  14.781
16946W        W83729  15.111  29.628   0.823
16947W        W83730  41.243   1.889  14.815
16948W        W83731  18.126  39.275   3.275
16949W        W83732  16.296  39.831  13.116
16950W        W83733  11.446  21.084   3.169
16951W        W83734  27.534  20.493   1.476
16952W        W83735  44.426  36.329   0.295
16953W        W83736  26.175  42.211  13.007
16954W        W83737  37.332  22.832  10.944
16955W        W83738  27.131  26.489   1.953
16956W        W83739  20.185  27.707  12.934
16957W        W83740  43.220  30.907  12.571
16958W        W83741  24.414  11.750   3.217
16959W        W83742  11.288  38.494  11.500
16960W        W83743  11.631   8.176   4.017
16961W        W83744  42.321  30.245  12.927
16962W        W83745  30.426  14.716  13.682
16963W        W83746   5.296  30.980   2.228
16964W        W83747  21.463  14.816   0.447
16965W        W83748  31.615  22.308   0.789
16966W        W83749   3.786  26.068  13.632
16967W        W83750  27.916  25.720  10.949
16968W        W83751  25.753  11.288  12.925
16969W        W83752  31.378  21.480  10.131
16970W        W83753  14.395   2.097  11.047
16971W        W83754  32.064  38.645   0.424
16972W        W83755   1.524  39.980   4.106
16973W        W83756  40.541  32.372  12.017
16974W        W83757  31.955  44.719  11.113
16975W        W83758  35.641  30.881  11.212
16976W        W83759  37.788  10.833  10.757
16977W        W83760  30.542  33.454   5.382
16978W        W83761  20.545  37.269   1.438
16979W        W83762  19.019  30.044  10.417
16980W        W83763  28.085  44.292  12.668
16981W        W83764  14.130  15.139   2.351
16982W        W83765  11.835   1.780   4.918
16983W        W83766   1.025  22.064   2.684
16984W        W83767   5.609  20.092   0.435
16985W        W83768  43.314  33.666  13.564
16986W        W83769  44.320   8.191   2.692
16987W        W83770  24.497  13.227  14.970
16988W        W83771  43.797  23.872  12.542
16989W        W83772   0.491  12.318   2.754
16990W        W83773  31.217  14.346  11.245
16991W        W83774  42.257  29.596   0.406
16992W        W83775  17.747  39.938  10.906
16993W        W83776  17.510  34.817   2.159
16994W        W83777  21.102  31.053   0.248
16995W        W83778  25.244   5.505  10.197
16996W        W83779  40.992  32.408   3.306
16997W        W83780  32.725   4.192   2.786
16998W        W83781   7.145  19.618  12.008
16999W        W83782  25.096   2.512  13.917
17000W        W83783  26.561  25.194  14.919
17001W        W83784  38.423   5.324  12.333
17002W        W83785  36.064  21.396  14.969
17003W        W83786  44.258  21.568  14.964
17004W        W83787  21.606   7.302   3.550
17005W        W83788   7.435  41.979  11.142
17006W        W83789  36.206  24.671  13.021
17007W        W83790   3.280  31.445  10.475
17008W        W83791  36.982  11.192   1.904
17009W        W83792   4.458   1.796  12.444
17010W        W83793   9.594  15.647   2.853
17011W        W83794   8.260   0.556   3.366
17012W        W83795  38.003  15.816   5.160
17013W        W83796  40.886  39.978   2.637
17014W        W83797  11.045  17.686  14.827
17015W        W83798  37.802  26.107  13.493
17016W        W83799   2.210  23.057  12.620
17017W        W83800  28.717  18.338   2.700
17018W        W83801  25.435  35.649  14.817
17019W        W83802  24.964   0.187  10.909
17020W        W83803  37.482  43.954   3.366
17021W        W83804   6.866  25.395  12.788
17022W        W83805  32.988  11.329   1.277
17023W        W83806  24.558   3.002   2.725
17024W        W83807  38.196  19.656   0.919
17025W        W83808  23.206  37.647   0.628
17026W        W83809   0.444  20.317  12.238
17027W        W83810  21.430  26.700  12.862
17028W        W83811  14.267  10.746   1.349
17029W        W83812  28.683  25.391  11.901
17030W        W83813  41.710  14.114   3.957
17031W        W83814  11.862  35.622  12.878
17032W        W83815  39.461   3.942  10.704
17033W        W83816  31.071  12.881   0.325
17034W        W83817  20.809  35.626  13.513
17035W        W83818  43.854  21.275  11.590
17036W        W83819  33.688  20.673  12.892
17037W        W83820  35.501  27.292  13.209
17038W        W83821   9.415  33.823  14.921
17039W        W83822  12.110  34.031  13.865
17040W        W83823   5.122   1.200  12.076
17041W        W83824  20.605  19.884  14.495
17042W        W83825  20.090   9.132   3.519
17043W        W83826  42.376  29.218   3.619
17044W        W83827  12.851  17.657   1.205
17045W        W83828  41.012  28.975   1.293
17046W        W83829  26.383  17.434   4.033
17047W        W83830  41.065   9.655  10.851
17048W        W83831  30.399  32.506   0.332
17049W        W83832  27.109  39.681  12.539
17050W        W83833  27.679  17.272   3.742
17051W        W83834   7.145  22.066   0.329
17052W        W83835  21.115  17.626   1.354
17053W        W83836  19.698   9.276   0.343
17054W        W83837  19.624  23.595   0.840
17055W        W83838  11.273  31.634  12.890
17056W        W83839  19.824  10.801   2.739
17057W        W83840   7.397  42.341   2.217
17058W        W83841  15.167  29.134   2.219
17059W        W83842  19.305  39.309  13.092
17060W        W83843   6.784  23.665  13.030
17061W        W83844  21.706  25.844   3.650
17062W        W83845   3.918  32.881   0.050
17063W        W83846  14.741  31.985   0.657
17064W        W83847  36.905  28.571  13.501
17065W        W83848  16.588  28.628   2.829
17066W        W83849  14.585  18.663  11.973
17067W        W83850  19.670  27.477  13.360
17068W        W83851  24.611  44.743  14.432
17069W        W83852  25.245  11.224  10.769
17070W        W83853  25.662  16.272   0.443
17071W        W83854  41.503  44.214   0.407
17072W        W83855  31.643   8.279  14.961
17073W        W83856   3.652  39.924  12.963
17074W        W83857  29.013  13.638  10.939
17075W        W83858  30.183  38.583  10.855
17076W        W83859  18.059  38.380   0.721
17077W        W83860  17.700   2.704  11.146
17078W        W83861  25.032  23.714   4.622
17079W        W83862  40.699   4.263   3.857
17080W        W83863  14.750  28.098  11.633
17081W        W83864  31.055  18.292   1.755
17082W        W83865  21.380  37.470  11.984
17083W        W83866   0.935  28.699  11.505
17084W        W83867  44.891  33.889   2.198
17085W        W83868   1.029  33.064   4.611
17086W        W83869  44.572  34.593  14.937
17087W        W83870   7.323   0.505  14.322
17088W        W83871  21.473  10.356   2.271
17089W        W83872  11.388  39.446   1.637
17090W        W83873  30.876   7.199  12.974
17091W        W83874  40.108  26.698  13.984
17092W        W83875  15.926   9.086  13.294
17093W        W83876  12.736  43.768  11.932
17094W        W83877  28.064  34.073   3.865
17095W        W83878  17.088  26.546  11.965
17096W        W83879   6.254  41.960   4.091
17097W        W83880   1.520  31.159  11.627
17098W        W83881  23.361  26.544   1.662
17099W        W83882  40.583  28.533  14.153
17100W        W83883  41.818  41.005   2.804
17101W        W83884  20.070  23.028   2.564
17102W        W83885   9.976  40.460  11.096
17103W        W83886  35.777  16.352  13.037
17104W        W83887  15.353  26.656   1.290
17105W        W83888  23.101  31.746   4.596
17106W        W83889  43.103   0.739  12.460
17107W        W83890   4.876  21.047   1.807
17108W        W83891  25.140  12.148  10.718
17109W        W83892  35.013  31.502  11.275
17110W        W83893  44.285  20.544  13.334
17111W        W83894  25.683  35.892  10.311
17112W        W83895  36.147  14.594   3.541
17113W        W83896  17.310  33.493   0.270
17114W        W83897  30.012  44.856  11.283
17115W        W83898  35.275  38.521  12.607
17116W        W83899  17.747  35.848   0.231
17117W        W83900  38.720  39.522  13.821
17118W        W83901  25.574  13.087   2.399
17119W        W83902  10.603  24.606   0.820
17120W        W83903   5.395  29.215  12.538
17121W        W83904  40.303   9.365   2.689
17122W        W83905  13.882  29.676   0.343
17123W        W83906  10.288  10.758   2.067
17124W        W83907   8.170  43.233   0.460
17125W        W83908  37.046  21.453   3.829
17126W        W83909   4.881  16.089  13.321
17127W        W83910  21.120  38.425  11.876
17128W        W83911  13.735  43.701   3.247
17129W        W83912   7.571  35.367   1.025
17130W        W83913  13.350  43.395  14.903
17131W        W83914   6.745   3.872  13.034
17132W        W83915  44.305  38.031   4.571
17133W        W83916  43.320   7.245   2.682
17134W        W83917  18.196   3.375   4.499
17135W        W83918  28.268  40.956   2.784
17136W        W83919  18.628  34.336   0.172
17137W        W83920  12.238  43.521  10.506
17138W        W83921  10.770  39.869   0.919
17139W        W83922  22.615   3.212  12.043
17140W        W83923  44.103  21.003   0.361
17141W        W83924  28.168  18.478   3.235
17142W        W83925  24.719   1.741  10.289
17143W        W83926  17.765   3.238   0.425
17144W        W83927  18.729   8.203   3.011
17145W        W83928   6.901  18.783  14.548
17146W        W83929  35.489  14.528   0.437
17147W        W83930  26.552  11.064   4.647
17148W        W83931  38.735  12.109   2.341
17149W        W83932  24.491  43.397   4.241
17150W        W83933  21.996  16.253  10.298
17151W        W83934   5.891  13.278   2.021
17152W        W83935  35.912  34.576   2.729
17153W        W83936  10.633  13.634  14.974
17154W        W83937  19.162  38.257  14.760
17155W        W83938  11.625  29.884   0.007
17156W        W83939  42.762  20.692  10.732
17157W        W83940  32.819   8.801   2.227
17158W        W83941  36.386  10.658   0.877
17159W        W83942   8.386   7.062  12.674
17160W        W83943  31.008  11.927  14.045
17161W        W83944  30.592  23.025  12.068
17162W        W83945  28.569   8.139   3.777
17163W        W83946  33.078  26.999   1.347
17164W        W83947  36.131  44.065   2.077
17165W        W83948  15.774   2.267  14.377
17166W        W83949   0.761   4.236   2.845
17167W        W83950  41.494  41.900   2.415
17168W        W83951  30.925  29.757  13.016
17169W        W83952   0.172   7.427   3.692
17170W        W83953  36.844  30.280   4.494
17171W        W83954  12.805  20.013  13.351
17172W        W83955  35.556  38.512  10.765
17173W        W83956  26.456  29.210  10.674
17174W        W83957  16.675   9.613   4.159
17175W        W83958  36.068  16.619   2.706
17176W        W83959   4.714  42.243  13.963
17177W        W83960  43.352  41.001   2.358
17178W        W83961   2.282   0.791   0.351
17179W        W83962  39.997   3.522   3.204
17180W        W83963   8.330  16.334   1.346
17181W        W83964  29.562   9.795   1.414
17182W        W83965  27.926  22.738   2.652
17183W        W83966  10.304   3.010  13.370
17184W        W83967  36.662  37.936  13.773
17185W        W83968  37.982   8.752   1.399
17186W        W83969  34.791   0.474   4.678
17187W        W83970  33.425   4.945  13.819
17188W        W83971   7.588   1.262   0.796
17189W        W83972  44.270  33.142  10.506
17190W        W83973  44.825  26.624  10.889
17191W        W83974  25.130   1.211   2.872
17192W        W83975   2.074   2.821   0.419
17193W        W83976   8.706  19.123  11.072
17194W        W83977  22.222  16.027   3.249
17195W        W83978  13.736  33.826  12.633
17196W        W83979  22.048  23.079   4.082
17197W        W83980  44.344  25.963  14.253
17198W        W83981  35.069  38.537  13.325
17199W        W83982  24.885   5.395  13.150
17200W        W83983   1.172  19.926  13.493
17201W        W83984  40.546  36.274  10.715
17202W        W83985   8.792   7.148  11.368
17203W        W83986  12.028  40.398   2.911
17204W        W83987  29.563  41.550   3.118
17205W        W83988  41.156   0.545   2.835
17206W        W83989  27.679   0.191  14.583
17207W        W83990   8.417  13.834   1.120
17208W        W83991  24.123  27.156   1.331
17209W        W83992  40.511  22.216  10.737
17210W        W83993  12.661   1.985  13.874
17211W        W83994   8.346   7.730   0.009
17212W        W83995   8.078  24.271   0.958
17213W        W83996   9.721  10.803   2.748
17214W        W83997  20.563   8.681  10.657
17215W        W83998  19.544  28.156  14.539
17216W        W83999  35.527  30.390   4.180
17217W        W84000  24.507   9.229  13.529
17218W        W84001  12.879  22.619  13.083
17219W        W84002  37.976  35.497   2.732
17220W        W84003  10.621  43.523  11.126
17221W        W84004  43.855  36.049   3.620
17222W        W84005  35.379  16.538   4.867
17223W        W84006  18.519  19.671   1.312
17224W        W84007  11.362  33.190   0.824
17225W        W84008  32.260   2.851  12.653
17226W        W84009  13.782  11.246  14.534
17227W        W84010   0.965  28.179   5.053
17228W        W84011   7.276   6.407  13.029
17229W        W84012  15.885  37.521   0.739
17230W        W84013  43.451  21.591   1.870
17231W        W84014   1.390  17.296   1.400
17232W        W84015  31.279  10.595   2.180
17233W        W84016  44.703  33.607   1.813
17234W        W84017  21.529   0.822   3.137
17235W        W84018   9.627   8.393   2.895
17236W        W84019  13.661  28.620  13.475
17237W        W84020  38.549  16.352   4.247
17238W        W84021  40.860  12.614   5.246
17239W        W84022   8.653   6.796   0.837
17240W        W84023  40.431  28.241   1.197
17241W        W84024   8.858  21.272  11.456
17242W        W84025   1.959  29.124  13.454
17243W        W84026  38.797  28.017   3.453
17244W        W84027  32.515   8.764  10.700
17245W        W84028  29.884   7.305  11.132
17246W        W84029  41.683  27.955   2.341
17247W        W84030  35.498  23.186   3.976
17248W        W84031  28.097  44.807  13.480
17249W        W84032  15.266  16.551  10.634
17250W        W84033  43.057  21.224   4.666
17251W        W84034  28.587  41.317   0.007
17252W        W84035  44.243  27.342  11.221
17253W        W84036   1.560  22.426   1.948
17254W        W84037  28.130  36.311   4.118
17255W        W84038  38.703  43.522   3.390
17256W        W84039  27.145  22.582   0.142
17257W        W84040  33.482  34.907  13.136
17258W        W84041  26.299  39.897  11.615
17259W        W84042  13.945  31.135  12.689
17260W        W84043  25.078  30.206   3.701
17261W        W84044   6.515   8.665   1.801
17262W        W84045  36.907  39.682   1.591
17263W        W84046  37.075  41.069  10.767
17264W        W84047  31.331   4.839  12.497
17265W        W84048  23.101   9.119  13.559
17266W        W84049   2.805  16.035  14.988
17267W        W84050   6.425  33.118  13.136
17268W        W84051  17.352  39.034  12.957
17269W        W84052   2.807  11.391  13.829
17270W        W84053  12.147   6.737  14.644
17271W        W84054  19.269  24.639  11.667
17272W        W84055  35.958  38.904  14.306
17273W        W84056   0.861  41.942  12.394
17274W        W84057   9.286  20.507  14.449
17275W        W84058  35.571  22.013   2.230
17276W        W84059  11.179  34.135  13.585
17277W        W84060  18.521   1.810   2.006
17278W        W84061  18.989   0.315   1.510
17279W        W84062   8.826   7.269   2.053
17280W        W84063  25.937  43.547  11.106
17281W        W84064  28.492   8.796   4.018
17282W        W84065  42.943  44.811   4.735
17283W        W84066  14.840   7.372  10.497
17284W        W84067  12.109  23.004  10.993
17285W        W84068  36.999  17.042   2.271
17286W        W84069  34.860  30.382   1.212
17287W        W84070   6.958  26.662  14.029
17288W        W84071   4.855  31.637   2.709
17289W        W84072  35.750   5.403  13.488
17290W        W84073   4.604  29.246  11.550
17291W        W84074   8.671  21.119   0.594
17292W        W84075  10.191  31.439  14.347
17293W        W84076  10.572  15.669   0.701
17294W        W84077  44.450   4.637   2.337
17295W        W84078   4.398  21.240   1.845
17296W        W84079  22.295  25.771  14.066
17297W        W84080  16.624  40.833   1.792
17298W        W84081   2.253  10.363  11.686
17299W        W84082  42.884  41.115   4.831
17300W        W84083   6.185   1.884  11.940
17301W        W84084   8.275   0.687   1.275
17302W        W84085  26.661  17.502   4.473
17303W        W84086  30.387   2.427  13.781
17304W        W84087  16.160  19.744   2.431
17305W        W84088  22.366  44.469   0.683
17306W        W84089  23.599  31.852   1.889
17307W        W84090  23.099  40.977  12.475
17308W        W84091   8.896  24.162  12.451
17309W        W84092   6.089  20.639  10.413
17310W        W84093   2.159  14.197  12.382
17311W        W84094  30.935   5.615   3.897
17312W        W84095  30.911  36.820  12.428
17313W        W84096   1.646  36.156  11.889
17314W        W84097  26.875  32.714  12.483
17315W        W84098   7.383  26.593  11.196
17316W        W84099  38.289  19.182  14.781
17317W        W84100  35.651  12.661  14.328
17318W        W84101  39.971   2.381   4.148
17319W        W84102   4.374  41.513  14.551
17320W        W84103  43.513  28.324   3.595
17321W        W84104  23.097  17.101   3.159
17322W        W84105  15.064  11.759  11.513
17323W        W84106  19.653  37.975   4.169
17324W        W84107  41.041  27.758   3.072
17325W        W84108  33.671  33.533  14.875
17326W        W84109  31.932  27.767   2.699
17327W        W84110  32.348  41.794  10.976
17328W        W84111  27.869  26.120   2.266
17329W        W84112  10.179   4.988   3.373
17330W        W84113  17.772  34.565   1.609
17331W        W84114  23.715   5.792  13.159
17332W        W84115   7.269  14.180   3.977
17333W        W84116  24.545  20.995   4.978
17334W        W84117  20.591  26.654   3.696
17335W        W84118   1.799   5.747  14.691
17336W        W84119  12.582  25.610  11.232
17337W        W84120   7.924  37.657   1.759
17338W        W84121  36.166  43.281  10.868
17339W        W84122  41.468   0.456  14.792
17340W        W84123  27.672   7.133  12.961
17341W        W84124  13.777  35.684  12.949
17342W        W84125  24.734  37.052  10.461
17343W        W84126   0.376  28.623  13.968
17344W        W84127  38.589  18.110   3.230
17345W        W84128  33.072  30.535   0.970
17346W        W84129  21.242  38.427  11.372
17347W        W84130  31.887  38.088   3.691
17348W        W84131  11.711  12.739   0.483
17349W        W84132   0.136  24.650  12.562
17350W        W84133  21.285  35.141   3.596
17351W        W84134   6.464  15.230   4.594
17352W        W84135  36.650  24.317  10.525
17353W        W84136  29.560  11.540   3.211
17354W        W84137  41.249  15.702  11.050
17355W        W84138  24.813   4.197  12.497
17356W        W84139  15.062  24.491  12.020
17357W        W84140  25.735  15.550   3.276
17358W        W84141  36.436   4.884  11.548
17359W        W84142  13.402   4.108  14.891
17360W        W84143  42.822   6.876   3.687
17361W        W84144   3.182  38.805  14.561
17362W        W84145   1.952  28.034  13.473
17363W        W84146  23.340   3.762   3.618
17364W        W84147  13.205  18.111  11.477
17365W        W84148  18.944  10.530  11.092
17366W        W84149  12.517   6.151   0.471
17367W        W84150  16.339  38.832  12.173
17368W        W84151   6.830  43.551   4.540
17369W        W84152   6.542  37.410  12.876
17370W        W84153   3.362  40.293  12.022
17371W        W84154  39.382  29.173   1.732
17372W        W84155  10.349  30.983   0.241
17373W        W84156  35.861  39.708  10.813
17374W        W84157  28.999  40.192   3.201
17375W        W84158  39.942  32.342   1.603
17376W        W84159   4.726   8.711   1.061
17377W        W84160  25.485   3.903   0.922
17378W        W84161   4.764  26.280  11.689
17379W        W84162   9.659  40.298   2.656
17380W        W84163  36.868   1.679   2.785
17381W        W84164  34.455  43.046   1.425
17382W        W84165  21.086  32.110   0.251
17383W        W84166  23.572  32.066  13.532
17384W        W84167  33.667   9.109  14.851
17385W        W84168  30.535  27.047   3.863
17386W        W84169  12.058   6.961   2.303
17387W        W84170  42.045  43.332  12.130
17388W        W84171   2.231  44.283  12.154
17389W        W84172   3.963  35.300   3.279
17390W        W84173  14.509  26.474  12.225
17391W        W84174  36.623  14.439   3.670
17392W        W84175  27.020  41.155  14.406
17393W        W84176  26.732  26.113   1.886
17394W        W84177  22.638  35.975   0.402
17395W        W84178  25.729   6.544   4.159
17396W        W84179  40.102  21.250   1.764
17397W        W84180  23.730  33.945  14.336
17398W        W84181   5.683  29.894  12.006
17399W        W84182  29.305  42.268  10.268
17400W        W84183  33.902   3.720   4.648
17401W        W84184  19.109   1.774   5.246
17402W        W84185   2.945  38.542  13.920
17403W        W84186   7.622  29.317  13.616
17404W        W84187  18.424   1.381   2.630
17405W        W84188  42.639  10.524   1.390
17406W        W84189  39.345  12.812   3.299
17407W        W84190  16.782  29.558  11.246
17408W        W84191  41.248  37.756   4.758
17409W        W84192  26.940  44.878  14.403
17410W        W84193  10.798  12.677   0.029
17411W        W84194  13.609  13.604  12.662
17412W        W84195  27.723  39.563   2.723
17413W        W84196  11.435  12.431  14.401
17414W        W84197  34.998  33.920  10.730
17415W        W84198  35.498  44.692  12.991
17416W        W84199  30.441   2.227  13.291
17417W        W84200  38.609  25.154   3.224
17418W        W84201  27.075  10.308   2.020
17419W        W84202  22.723  29.962  11.892
17420W        W84203  24.794  19.547   2.737
17421W        W84204  39.083  26.586  11.926
17422W        W84205  14.849  31.130   2.299
17423W        W84206  38.561   7.222   0.146
17424W        W84207  42.083  14.313   2.664
17425W        W84208  26.200  30.919   1.878
17426W        W84209  26.268  33.192   2.100
17427W        W84210   5.824  44.245  13.516
17428W        W84211   6.895  34.836  11.278
17429W        W84212  12.343  21.617  11.928
17430W        W84213  38.202  32.890   2.801
17431W        W84214   4.378  39.797  13.567
17432W        W84215   1.001   3.437   1.518
17433W        W84216  41.532  34.698  11.506
17434W        W84217  37.910  36.798   3.718
17435W        W84218   9.391   6.449  11.561
17436W        W84219  29.978   3.519  12.606
17437W        W84220  33.125  22.227  12.900
17438W        W84221  21.055  10.750  13.372
17439W        W84222   0.405  39.371  13.970
17440W        W84223  34.801  43.408  11.063
17441W        W84224  38.844   6.869   0.995
17442W        W84225  30.858  43.850   2.306
17443W        W84226  42.040  23.543  11.301
17444W        W84227  12.749  21.955  11.958
17445W        W84228  39.290  32.387  11.734
17446W        W84229   5.711  20.055  11.994
17447W        W84230  25.301  13.904   4.155
17448W        W84231  37.579   4.167  14.982
17449W        W84232   6.118   5.895  12.056
17450W        W84233  42.388  24.039  12.386
17451W        W84234  23.550  23.907  13.933
17452W        W84235  10.768  34.507  10.416
17453W        W84236  12.244  26.625   4.809
17454W        W84237  25.676  34.423   2.221
17455W        W84238  35.048  29.521  13.273
17456W        W84239   2.271  30.704   2.224
17457W        W84240  41.382   0.749   2.203
17458W        W84241  12.427  35.066   2.149
17459W        W84242  37.904  24.937   0.902
17460W        W84243  10.384  39.504   2.737
17461W        W84244  38.400  36.664   2.832
17462W        W84245  29.521  15.716  14.975
17463W        W84246  23.573  21.795  11.740
17464W        W84247  11.309   3.296   3.096
17465W        W84248  24.230  26.661   3.698
17466W        W84249  26.159   4.362   2.436
17467W        W84250  17.458  27.777   3.264
17468W        W84251  12.045  20.355  13.654
17469W        W84252  28.097  30.194  13.055
17470W        W84253  14.858  36.573   3.270
17471W        W84254  19.751   5.861  13.390
17472W        W84255  36.128  28.504   0.799
17473W        W84256  44.266  18.518  11.862
17474W        W84257  14.079  34.979   1.666
17475W        W84258  15.999  16.833   4.437
17476W        W84259  17.565  35.625  11.854
17477W        W84260  19.074  31.915   4.499
17478W        W84261  18.751  25.906  14.083
17479W        W84262  17.590  15.474   3.851
17480W        W84263  28.674  12.885   2.748
17481W        W84264  42.331  34.957  13.987
17482W        W84265  33.336  18.334  14.859
17483W        W84266   0.301  27.172   4.480
17484W        W84267  38.996  40.889  11.434
17485W        W84268  30.008  19.022  11.614
17486W        W84269  26.986  34.623  14.912
17487W        W84270  18.727  28.440   3.626
17488W        W84271  22.641   1.818  10.822
17489W        W84272  13.324  12.588  12.499
17490W        W84273  20.222   1.189  13.136
17491W        W84274  31.993  12.828  10.244
17492W        W84275  29.607  17.266   0.743
17493W        W84276  38.782   4.965   0.961
17494W        W84277  18.473  37.258  10.433
17495W        W84278  37.601  15.744  14.920
17496W        W84279  22.670   1.243  14.037
17497W        W84280  28.698  22.763  11.227
17498W        W84281  33.039   5.098  12.851
17499W        W84282  15.178  40.470  11.086
17500W        W84283   9.281  40.987   1.748
17501W        W84284  36.084  12.342  12.643
17502W        W84285  27.227  21.434  12.498
17503W        W84286  25.021  36.018  13.818
17504W        W84287  19.065  21.517   0.842
17505W        W84288  24.145  22.926  10.012
17506W        W84289  28.396  44.455  14.448
17507W        W84290  33.395  33.371  13.397
17508W        W84291  16.627  32.530  11.839
17509W        W84292  19.605   2.256  14.300
17510W        W84293  17.588  44.933  13.010
17511W        W84294  11.636  27.708  12.484
17512W        W84295  21.952  26.229  10.718
17513W        W84296  30.946  37.562  10.382
17514W        W84297  20.149  13.635  14.465
17515W        W84298   7.154  25.694   2.311
17516W        W84299  38.934  23.628   1.672
17517W        W84300  42.680  43.816   2.058
17518W        W84301   8.950  37.732   0.687
17519W        W84302   9.287  26.417   0.941
17520W        W84303  24.756   2.863  13.800
17521W        W84304  44.430  12.803   3.798
17522W        W84305  10.354  30.269  12.052
17523W        W84306  35.849  42.620   1.981
17524W        W84307   8.422  17.719   4.089
17525W        W84308  17.541   5.340  10.671
17526W        W84309  29.269  30.506   2.867
17527W        W84310   5.150  18.082  11.212
17528W        W84311  40.995  19.703   4.750
17529W        W84312  21.478  43.065  14.451
17530W        W84313  41.096  27.902   2.588
17531W        W84314  24.247  15.768   4.615
17532W        W84315  15.120  40.565   1.845
17533W        W84316   7.571  32.326  13.991
17534W        W84317  27.816   3.775  14.481
17535W        W84318   3.865  42.185   2.764
17536W        W84319   3.132  15.771   1.034
17537W        W84320  24.742  21.512   2.762
17538W        W84321   9.345  40.139  12.908
17539W        W84322  38.133   2.520   2.196
17540W        W84323  11.892  19.735  14.284
17541W        W84324  29.142  28.363  14.063
17542W        W84325  20.103  26.615  14.463
17543W        W84326   0.753   9.649  14.032
17544W        W84327  38.481  42.562  11.878
17545W        W84328  42.454  32.204  12.963
17546W        W84329  44.218  28.010  14.488
17547W        W84330  30.421  23.417   4.735
17548W        W84331  16.843  22.512   2.244
17549W        W84332  25.117  20.260   3.310
17550W        W84333  34.719  35.105   2.239
17551W        W84334  25.079  19.810   2.336
17552W        W84335  30.520  37.309   2.905
17553W        W84336  31.160  21.707   0.390
17554W        W84337  39.513   4.435   3.183
17555W        W84338  40.399  38.796   0.042
17556W        W84339  41.064  26.441   2.927
17557W        W84340  43.809  32.479   0.773
17558W        W84341  13.608  18.225   0.278
17559W        W84342   4.071  19.728   0.429
17560W        W84343   7.405  40.584  13.457
17561W        W84344  23.238   7.675   1.685
17562W        W84345  18.712  44.575   0.927
17563W        W84346  14.650  44.230   1.415
17564W        W84347  23.449   6.167  12.353
17565W        W84348  37.444   4.182   0.478
17566W        W84349   4.325  18.465   4.203
17567W        W84350  16.032  44.058   0.955
17568W        W84351  24.647   0.388   5.087
17569W        W84352  23.070  31.569  11.998
17570W        W84353  29.997  38.964   2.450
17571W        W84354  15.889  19.287  11.247
17572W        W84355  25.409   9.127  14.108
17573W        W84356   0.619  11.667   4.538
17574W        W84357  30.140  14.807  11.015
17575W        W84358  16.785  40.022  14.968
17576W        W84359  18.556  35.889  12.527
17577W        W84360  10.149  16.552  12.219
17578W        W84361   5.447   6.870  12.908
17579W        W84362  25.062   3.283  13.535
17580W        W84363  30.127  26.690   4.561
17581W        W84364   4.849  10.620   2.823
17582W        W84365  41.808   2.784   4.188
17583W        W84366  17.625  14.063  11.992
17584W        W84367  22.207   3.932   0.233
17585W        W84368  39.666   1.918   3.323
17586W        W84369   2.055  29.674  12.498
17587W        W84370  19.444  23.939  10.350
17588W        W84371   1.673  35.607  12.053
17589W        W84372   3.015  26.090   2.580
17590W        W84373   0.918  29.468  14.003
17591W        W84374  34.941   7.934   1.404
17592W        W84375   5.716  23.734  13.844
17593W        W84376   0.746   5.152  11.267
17594W        W84377  24.879  16.092  11.933
17595W        W84378  24.135  13.062   3.667
17596W        W84379  39.081  40.754  13.783
17597W        W84380  39.521  25.054  14.337
17598W        W84381   9.739   1.708   3.040
17599W        W84382  38.226   8.169   4.167
17600W        W84383  23.815  43.060   2.798
17601W        W84384  44.931  35.686   2.879
17602W        W84385  37.602   4.325  12.638
17603W        W84386   0.266  22.928  11.499
17604W        W84387  36.434   3.975   3.684
17605W        W84388  11.911  11.820  11.096
17606W        W84389  14.521   5.093  13.942
17607W        W84390  36.472   4.271   0.956
17608W        W84391   1.897  44.969   3.217
17609W        W84392  44.261   6.306   0.290
17610W        W84393  41.484  35.991  13.428
17611W        W84394  23.619  25.435  13.058
17612W        W84395  21.234  32.945  12.149
17613W        W84396   6.702  25.287  11.201
17614W        W84397  30.877   7.351   3.722
17615W        W84398  17.003  41.879  10.988
17616W        W84399   5.201   9.647  12.780
17617W        W84400  20.788   3.639  12.579
17618W        W84401   6.569  17.645   0.008
17619W        W84402  44.560  19.304   1.353
17620W        W84403   5.230  40.268   3.172
17621W        W84404  38.493  17.934   1.190
17622W        W84405  43.171  26.598   5.117
17623W        W84406  40.029  17.666  11.114
17624W        W84407  28.459  18.869  11.523
17625W        W84408  17.948  43.896   3.112
17626W        W84409  18.778  28.164   4.065
17627W        W84410  37.971  16.311  14.236
17628W        W84411  16.690  17.734  12.858
17629W        W84412  40.404  38.263  12.899
17630W        W84413  40.030  38.832  10.736
17631W        W84414  22.629  23.950  13.844
17632W        W84415  39.802  40.533   3.569
17633W        W84416  36.543  11.302   2.147
17634W        W84417  24.056  28.178   2.256
17635W        W84418  31.879  24.878  11.917
17636W        W84419  25.623  15.702  13.499
17637W        W84420   8.049  34.898  14.422
17638W        W84421  21.456  20.740   3.278
17639W        W84422  39.430  27.171   4.308
17640W        W84423  14.738  31.146   4.013
17641W        W84424  32.028  16.810   2.953
17642W        W84425  17.245  37.422  12.973
17643W        W84426   6.705  30.409  14.369
17644W        W84427  36.827   5.228   3.655
17645W        W84428  11.608  30.532  13.610
17646W        W84429  34.402  22.764   2.337
17647W        W84430   5.432  12.467   2.280
17648W        W84431  39.819  43.760  12.065
17649W        W84432  11.390  16.632  13.801
17650W        W84433  32.564  34.536  10.570
17651W        W84434   1.697   7.283  11.389
17652W        W84435  30.117  40.074  11.893
17653W        W84436   5.856  33.375   4.846
17654W        W84437  34.900  26.922   0.482
17655W        W84438  13.150  27.112   1.143
17656W        W84439   3.166  28.972  14.958
17657W        W84440   1.085  36.845   2.589
17658W        W84441   5.193  40.078   3.658
17659W        W84442  19.089  34.390  12.398
17660W        W84443  21.513  39.743  10.780
17661W        W84444  21.298  10.341  12.313
17662W        W84445   9.902  18.856  13.516
17663W        W84446  28.723  17.996  13.058
17664W        W84447   0.211  42.895  13.104
17665W        W84448  21.272  40.372  11.308
17666W        W84449  35.652  31.644  10.743
17667W        W84450  11.706   3.404  14.267
17668W        W84451   0.529  27.869   0.479
17669W        W84452  39.419   0.905  10.802
17670W        W84453  43.991  19.277   2.271
17671W        W84454   8.703  20.177  13.934
17672W        W84455  12.455  12.356  14.377
17673W        W84456  23.066  44.767  12.975
17674W        W84457  27.572  41.110  12.469
17675W        W84458  30.123  15.305   1.875
17676W        W84459   9.168   1.361  12.085
17677W        W84460  34.940  38.918   4.035
17678W        W84461  21.724   4.466   3.279
17679W        W84462  10.660   5.669  13.090
17680W        W84463  20.536  44.598   0.475
17681W        W84464   6.216  11.307   1.715
17682W        W84465  31.895  10.221  14.354
17683W        W84466  24.294   8.837  12.833
17684W        W84467  14.233  39.892   3.184
17685W        W84468  20.200  30.303   4.437
17686W        W84469   6.853   5.763  10.699
17687W        W84470  38.010  28.659   3.845
17688W        W84471  10.756  23.829  12.023
17689W        W84472  23.700  17.140   2.814
17690W        W84473   0.458  15.758   1.056
17691W        W84474   6.521   8.240   0.961
17692W        W84475  27.601   0.170   0.915
17693W        W84476   8.601   5.683   4.729
17694W        W84477   8.202  17.437  10.812
17695W        W84478  18.879  40.520   1.560
17696W        W84479  41.109  27.992  12.462
17697W        W84480  22.980   2.786   3.747
17698W        W84481  29.544   7.809  13.005
17699W        W84482  26.089  27.665   3.131
17700W        W84483  43.822  38.982  13.582
17701W        W84484  21.670  24.024   0.138
17702W        W84485  19.193   5.234   3.135
17703W        W84486   1.448  28.596   3.659
17704W        W84487  23.725  19.735  13.953
17705W        W84488  34.403  25.069   4.645
17706W        W84489  34.834   9.181  14.207
17707W        W84490  11.225  27.680   2.406
17708W        W84491  36.540  40.476   1.826
17709W        W84492  29.518   6.942   0.904
17710W        W84493  27.033  14.859   3.105
17711W        W84494   0.449  32.814  13.673
17712W        W84495  12.330  13.849  10.953
17713W        W84496  26.001   7.854  14.878
17714W        W84497  39.630  25.465  13.778
17715W        W84498   9.464  28.660   1.874
17716W        W84499  42.459  21.814  13.347
17717W        W84500  40.870   4.173  12.085
17718W        W84501  21.987  11.693  14.416
17719W        W84502  15.368  13.272  12.221
17720W        W84503  32.090  17.570  11.965
17721W        W84504  23.592   5.184   3.232
17722W        W84505   4.256  44.552   2.659
17723W        W84506  27.248   3.222   3.047
17724W        W84507  36.150   8.003   3.585
17725W        W84508  33.065  28.247   3.773
17726W        W84509  20.945  29.117   0.512
17727W        W84510  30.109   3.966  10.705
17728W        W84511  33.841  20.217   2.164
17729W        W84512   7.396   8.463  10.346
17730W        W84513  41.809  19.194   2.196
17731W        W84514  38.981   2.626   1.026
17732W        W84515  12.885  15.595   4.735
17733W        W84516  12.631  20.222   3.381
17734W        W84517  27.433  24.700   2.616
17735W        W84518  36.872  21.604  11.947
17736W        W84519  10.739  10.152  11.992
17737W        W84520  40.247   4.791  11.504
17738W        W84521  32.481   6.588  10.339
17739W        W84522   2.701  35.636  11.216
17740W        W84523  26.510  11.441  11.478
17741W        W84524  37.712  13.368  12.437
17742W        W84525  44.904   4.940   4.889
17743W        W84526  37.594  31.331  12.627
17744W        W84527  38.096   5.315   0.316
17745W        W84528  35.981  36.905  10.752
17746W        W84529  23.148   1.453  11.893
17747W        W84530   4.533  35.848   1.834
17748W        W84531  37.790  24.346   4.630
17749W        W84532  22.561  43.824   2.437
17750W        W84533  23.957  16.207   4.542
17751W        W84534  33.134  17.645   1.881
17752W        W84535  32.796   0.236   1.377
17753W        W84536   1.639   3.963  11.624
17754W        W84537   4.257  22.961   0.696
17755W        W84538  19.872  16.648  12.007
17756W        W84539  22.124  11.768   4.880
17757W        W84540  34.574  20.865   2.489
17758W        W84541  18.123  30.885   1.286
17759W        W84542  30.110  22.240   2.611
17760W        W84543  44.518   6.220   3.334
17761W        W84544  27.116   8.764  11.442
17762W        W84545  23.854  44.536   2.679
17763W        W84546  22.680  16.909  13.967
17764W        W84547  10.475  36.397   0.442
17765W        W84548  29.178  41.857  11.501
17766W        W84549   3.181  10.029   9.909
17767W        W84550  39.059  43.559   1.482
17768W        W84551  22.263  28.613   0.285
17769W        W84552  10.450   7.676   1.860
17770W        W84553  15.702  32.340  10.462
17771W        W84554  38.512  16.687   2.332
17772W        W84555   1.284  37.473  14.740
17773W        W84556   7.494   9.774  12.602
17774W        W84557  30.822  30.456  12.027
17775W        W84558  13.051  35.854   5.056
17776W        W84559  23.702  31.140   3.271
17777W        W84560  28.406  24.587   0.289
17778W        W84561  31.032  33.043   0.760
17779W        W84562  44.020  13.912   0.038
17780W        W84563   2.021  15.806  12.941
17781W        W84564  42.288  33.594   1.132
17782W        W84565  11.129  42.474  14.762
17783W        W84566  12.233  39.559   4.632
17784W        W84567  39.129  20.318  11.637
17785W        W84568  28.087  17.842  12.432
17786W        W84569  33.734  14.915  12.484
17787W        W84570   9.205   6.464   3.217
17788W        W84571  24.573   3.374   2.339
17789W        W84572   1.892  19.569   4.205
17790W        W84573   1.328  39.232  11.230
17791W        W84574  24.105  30.218   0.484
17792W        W84575   1.239   3.374  13.870
17793W        W84576   2.324  37.648  11.070
17794W        W84577  18.039  41.748   1.549
17795W        W84578  16.720   6.851  13.538
17796W        W84579  41.424  38.862   0.988
17797W        W84580  35.845  16.557  14.975
17798W        W84581   0.807  44.616   4.561
17799W        W84582  26.802  44.800   0.717
17800W        W84583  34.806  19.075  10.659
17801W        W84584  42.404  34.484   3.407
17802W        W84585  23.126  14.302  10.673
17803W        W84586  31.642  27.170  14.400
17804W        W84587  36.336  15.080  12.112
17805W        W84588   4.020  15.348  14.801
17806W        W84589  40.782  13.141   3.100
17807W        W84590  12.104  17.082   1.656
17808W        W84591  34.050  14.970   2.364
17809W        W84592  16.588  34.869   1.834
17810W        W84593  24.858  11.270  11.690
17811W        W84594  39.967   6.569   4.190
17812W        W84595  15.605  15.697   5.061
17813W        W84596  28.119  22.392  10.625
17814W        W84597   8.413  16.254  14.867
17815W        W84598  12.050  31.069   4.770
17816W        W84599  20.016  12.007   3.232
17817W        W84600  20.994  41.606   0.910
17818W        W84601  34.645   7.504   3.055
17819W        W84602  29.454  30.701  12.048
17820W        W84603   3.390  12.836   5.044
17821W        W84604   5.146  35.138   4.411
17822W        W84605  28.717  18.730  14.265
17823W        W84606  22.240  29.738  11.372
17824W        W84607  17.351  12.173  13.848
17825W        W84608  13.726   8.996  14.547
17826W        W84609   1.629   1.674  11.492
17827W        W84610  44.016   0.749  12.480
17828W        W84611  30.681  20.020  14.568
17829W        W84612  29.006  32.263  11.689
17830W        W84613  13.669  25.552   1.525
17831W        W84614  16.093  12.089   3.826
17832W        W84615  26.635  42.098  11.597
17833W        W84616  27.002  13.864   0.316
17834W        W84617  26.489  29.652   4.609
17835W        W84618  42.504   6.433   9.914
17836W        W84619  33.919  30.075  13.974
17837W        W84620  18.256  34.064   2.256
17838W        W84621   5.558  43.316  11.985
17839W        W84622   0.827  39.521   4.121
17840W        W84623  44.827  34.006  11.055
17841W        W84624  38.535  41.546   4.230
17842W        W84625  44.256  31.452  12.087
17843W        W84626  10.375  36.024   0.900
17844W        W84627  35.657   0.369  12.668
17845W        W84628  15.329   5.780   1.711
17846W        W84629  10.760  19.543  10.941
17847W        W84630  44.620   5.450   4.545
17848W        W84631   1.987  30.494  11.183
17849W        W84632  19.140   3.742   4.182
17850W        W84633  38.865  15.664   5.161
17851W        W84634  31.919  18.571  14.712
17852W        W84635  12.815  43.304   1.242
17853W        W84636  32.664   9.920   0.075
17854W        W84637  23.494  27.352  13.046
17855W        W84638  27.954  21.553   0.785
17856W        W84639  27.510  24.630  11.087
17857W        W84640   8.722   4.127  11.229
17858W        W84641  25.095  30.411   2.276
17859W        W84642  17.524  17.682   2.524
17860W        W84643  37.375  37.109  14.756
17861W        W84644   8.491  15.080   4.998
17862W        W84645   1.389  14.369  12.969
17863W        W84646  15.070   9.097  11.521
17864W        W84647  39.124  21.543  14.381
17865W        W84648   7.724  20.066   2.161
17866W        W84649  34.133   4.261  14.840
17867W        W84650   1.782  17.690   4.083
17868W        W84651  19.620  37.882  11.850
17869W        W84652  35.982   3.319   3.537
17870W        W84653   5.010  43.223  10.520
17871W        W84654  35.959  43.999  13.968
17872W        W84655  30.349  29.490  12.187
17873W        W84656  23.053  23.155   1.252
17874W        W84657  24.126  39.873  10.726
17875W        W84658  43.760  20.487  12.040
17876W        W84659  28.610  42.912  14.014
17877W        W84660  19.790  43.553  13.842
17878W        W84661  20.422   4.704   3.741
17879W        W84662  27.196  12.804   1.641
17880W        W84663   0.656  40.411  10.540
17881W        W84664  29.701  37.336  13.882
17882W        W84665  35.562  27.223  12.609
17883W        W84666   1.378   4.203  12.009
17884W        W84667  11.531   7.921   3.588
17885W        W84668  33.344   6.199   0.937
17886W        W84669  38.051  30.688   4.221
17887W        W84670  28.354   0.362  10.611
17888W        W84671  33.002   6.452   2.680
17889W        W84672  26.056  17.689  14.960
17890W        W84673  39.442   3.069  12.417
17891W        W84674   7.338  34.615   1.223
17892W        W84675  21.559  18.009   2.579
17893W        W84676  37.510  33.504   3.695
17894W        W84677   0.569  42.091   3.715
17895W        W84678  38.797  27.932  13.822
17896W        W84679  43.113  16.230   5.104
17897W        W84680   1.834  21.553  11.864
17898W        W84681  41.459  10.184  13.363
17899W        W84682  42.656   5.628   9.932
17900W        W84683   0.030   7.521  11.171
17901W        W84684  44.562  26.636  12.953
17902W        W84685  16.968  19.005   3.200
17903W        W84686  16.616  26.692  11.995
17904W        W84687  31.864  42.955   1.792
17905W        W84688  24.447   4.605  12.628
17906W        W84689  23.698   7.244   1.797
17907W        W84690  14.731  17.567  12.356
17908W        W84691   2.701  17.240   1.586
17909W        W84692   5.776  11.030   0.405
17910W        W84693  13.818  34.529   1.301
17911W        W84694  42.519  12.484  13.768
17912W        W84695   8.771  27.755   3.779
17913W        W84696  25.082   3.933   1.280
17914W        W84697  21.717  30.576  10.649
17915W        W84698   2.474  24.263  14.500
17916W        W84699  41.395  29.555  13.085
17917W        W84700  39.551   9.875   2.907
17918W        W84701  33.574  28.947   2.179
17919W        W84702   5.218   4.698   0.019
17920W        W84703  11.205  11.606   1.090
17921W        W84704   1.761  28.631   0.325
17922W        W84705  19.619  35.918   4.152
17923W        W84706  36.749  11.874   4.479
17924W        W84707   2.218  17.057   0.938
17925W        W84708  33.994  35.551   2.595
17926W        W84709  24.146  13.670  14.773
17927W        W84710  38.248   2.782   1.455
17928W        W84711  29.071  16.002  11.622
17929W        W84712  16.338  43.687  11.538
17930W        W84713  12.613  11.142  14.996
17931W        W84714   6.982  38.335  14.932
17932W        W84715  13.173  41.269   3.980
17933W        W84716   3.833  39.892   3.398
17934W        W84717   4.826  10.363  13.288
17935W        W84718  28.008  34.396   2.215
17936W        W84719  31.818  39.361   0.828
17937W        W84720   6.007   8.635  13.930
17938W        W84721   9.211  10.835   0.956
17939W        W84722   5.155  40.978  12.032
17940W        W84723  24.406   7.562  14.534
17941W        W84724  30.431  20.277   3.024
17942W        W84725  35.466  24.574   3.864
17943W        W84726  11.291  40.455  10.459
17944W        W84727  15.827  43.393  12.787
17945W        W84728  15.690  20.707   4.927
17946W        W84729   3.268  13.160   0.242
17947W        W84730  25.081  27.238  11.656
17948W        W84731  11.016  38.799   9.321
17949W        W84732  21.371  23.819  14.788
17950W        W84733  34.363  43.081  13.664
17951W        W84734   9.305   2.134  11.844
17952W        W84735  37.580   7.729  12.492
17953W        W84736   6.315  17.072   0.690
17954W        W84737  15.581   7.439   2.723
17955W        W84738  20.770  29.164  14.235
17956W        W84739  23.602   0.694   3.269
17957W        W84740  10.063   3.125   3.635
17958W        W84741  22.057  35.546   4.589
17959W        W84742  41.927  16.255  11.219
17960W        W84743  28.532  19.261  11.915
17961W        W84744  38.163  42.361   1.236
17962W        W84745  31.582  40.774  14.458
17963W        W84746   7.960  26.010   3.373
17964W        W84747  31.082  36.690   3.636
17965W        W84748   5.806   6.391   4.108
17966W        W84749  23.027  22.716   2.201
17967W        W84750  44.840  20.124  13.926
17968W        W84751  39.234  29.864   1.309
17969W        W84752  38.568  42.888   2.341
17970W        W84753  27.984  25.932   3.615
17971W        W84754  29.281  23.862   3.237
17972W        W84755  35.146  37.163  11.279
17973W        W84756  12.354  25.179   2.191
17974W        W84757  41.200  12.639  14.886
17975W        W84758   2.954  22.222  14.052
17976W        W84759  26.128  20.631  13.502
17977W        W84760  13.769   1.032  13.538
17978W        W84761  31.120  44.798  10.749
17979W        W84762  27.357  39.992  14.704
17980W        W84763  27.646   3.659  10.982
17981W        W84764  19.496  16.707  12.980
17982W        W84765   8.303  43.471   3.179
17983W        W84766  43.974  15.291   4.348
17984W        W84767  13.672  39.022  12.941
17985W        W84768  39.790  32.464  12.923
17986W        W84769  13.325   2.457  11.964
17987W        W84770  26.523  29.125   4.552
17988W        W84771  23.676  26.633   2.958
17989W        W84772  18.285  16.071   4.321
17990W        W84773  23.706   1.722   3.129
17991W        W84774  12.095  42.882   3.211
17992W        W84775   2.376  23.214  14.582
17993W        W84776  36.885   2.251   4.129
17994W        W84777  21.179  29.920  11.132
17995W        W84778  29.566  23.976   1.239
17996W        W84779  41.893  37.515  11.602
17997W        W84780  42.396  27.758  10.723
17998W        W84781  21.451  35.513  12.003
17999W        W84782   1.409  24.015   3.985
18000W        W84783  40.352   9.674  12.016
18001W        W84784  10.636  23.855   9.936
18002W        W84785  31.160  26.629  14.740
18003W        W84786   4.174  34.456   3.419
18004W        W84787  30.197   9.045  12.535
18005W        W84788  29.053  18.831  12.906
18006W        W84789   0.575   9.833   3.776
18007W        W84790  21.671  20.095   1.348
18008W        W84791   8.324  11.852   1.424
18009W        W84792  32.119  35.101  14.048
18010W        W84793  29.894  26.081   2.396
18011W        W84794  25.193  41.110  13.015
18012W        W84795   1.997  21.190   2.648
18013W        W84796   7.318  40.842  12.637
18014W        W84797  30.480  20.486  14.378
18015W        W84798  11.162  28.025  10.701
18016W        W84799  38.450  11.125  10.734
18017W        W84800  30.372   1.986  11.130
18018W        W84801  22.659  15.250   2.363
18019W        W84802   3.937  14.814   2.751
18020W        W84803  31.252  15.645  12.826
18021W        W84804   6.939  18.080   0.295
18022W        W84805  23.100  27.618   3.738
18023W        W84806  29.967  26.061   3.290
18024W        W84807  17.968  28.638   1.151
18025W        W84808  24.554  43.990  13.984
18026W        W84809  39.922  18.434   2.872
18027W        W84810  22.536  19.072   2.243
18028W        W84811  19.226  40.261  10.659
18029W        W84812  41.141  22.485  14.348
18030W        W84813  27.937  12.205   0.413
18031W        W84814  20.106  26.766   4.213
18032W        W84815  43.757  39.048   2.595
18033W        W84816  20.655  18.162  10.886
18034W        W84817  26.890  35.691   3.675
18035W        W84818  33.154  32.428  12.650
18036W        W84819  34.012  30.855   2.310
18037W        W84820   6.477   4.943  11.049
18038W        W84821  18.330  39.307   0.326
18039W        W84822  42.459  22.549   1.319
18040W        W84823  40.761  41.087  10.689
18041W        W84824  36.654   9.188  12.142
18042W        W84825  15.854  30.301  12.031
18043W        W84826   3.891   4.724  10.536
18044W        W84827  30.519  40.364  12.072
18045W        W84828  43.394   7.623  12.017
18046W        W84829  26.108  32.187  10.722
18047W        W84830  44.218  19.005  14.997
18048W        W84831  26.047   9.446  12.940
18049W        W84832  35.872  40.339   3.593
18050W        W84833  14.392  43.266   2.854
18051W        W84834  19.734   9.921  11.181
18052W        W84835   6.825  26.100   2.367
18053W        W84836  24.342  35.010  12.414
18054W        W84837  38.694  35.888   3.061
18055W        W84838  32.991  36.902   3.608
18056W        W84839   6.575  13.668   4.244
18057W        W84840   6.855  26.836  11.152
18058W        W84841   8.245  16.713  11.260
18059W        W84842  11.597  15.668  14.932
18060W        W84843  37.046  17.463   0.984
18061W        W84844  23.714  26.284  12.041
18062W        W84845  32.535  12.842   1.824
18063W        W84846   5.872  30.892   3.973
18064W        W84847  12.177  29.580   1.802
18065W        W84848  33.549  20.041   2.951
18066W        W84849  30.629   8.078  14.993
18067W        W84850  42.438  10.362  13.600
18068W        W84851  11.907   1.357   3.654
18069W        W84852  27.048  19.289   2.890
18070W        W84853  10.920  27.862   0.687
18071W        W84854  28.461   6.356   4.496
18072W        W84855  24.031   0.521  13.358
18073W        W84856  33.095  32.868   3.319
18074W        W84857  21.583  12.071  13.501
18075W        W84858  11.508  18.739   3.874
18076W        W84859   4.822   1.335   3.716
18077W        W84860  35.093   5.941  14.029
18078W        W84861  43.928   9.430   1.432
18079W        W84862   9.418  13.903  11.125
18080W        W84863  41.956   1.771  12.616
18081W        W84864  28.969  15.035   2.254
18082W        W84865  27.958  36.509  12.897
18083W        W84866   2.673  32.981  13.779
18084W        W84867  10.309  39.403   3.741
18085W        W84868  26.507  36.838  14.494
18086W        W84869  43.488  43.352   2.143
18087W        W84870  43.962  15.360   2.211
18088W        W84871  32.559  29.166   2.209
18089W        W84872  30.874  16.725  11.433
18090W        W84873  22.612  36.038   2.489
18091W        W84874  28.575  37.336  11.028
18092W        W84875  20.135  13.662   3.820
18093W        W84876  30.793   8.719   2.880
18094W        W84877   1.805   0.181   3.968
18095W        W84878  13.774  36.280  14.877
18096W        W84879   1.279  12.181   1.456
18097W        W84880  41.278  25.683   1.918
18098W        W84881  31.084  12.695  13.981
18099W        W84882  27.111  10.900  14.070
18100W        W84883  19.271   4.493   1.268
18101W        W84884   9.614  42.935  12.032
18102W        W84885  43.365  43.475  12.441
18103W        W84886  16.809  25.021   3.321
18104W        W84887  39.548  13.046  10.668
18105W        W84888  30.032  41.251   0.887
18106W        W84889  30.188  30.694  12.590
18107W        W84890  41.113  13.750  12.429
18108W        W84891  19.624  10.084   0.966
18109W        W84892  23.976  30.908   4.207
18110W        W84893  39.973  36.501  13.029
18111W        W84894  44.058  14.828  12.626
18112W        W84895  15.398  30.632  12.017
18113W        W84896  36.097   2.483  14.842
18114W        W84897  12.656  26.095  10.646
18115W        W84898  32.092  44.448  11.754
18116W        W84899  27.130  16.063   4.994
18117W        W84900  10.845  27.569   3.440
18118W        W84901   5.427  42.977   1.369
18119W        W84902  16.009  35.476  10.719
18120W        W84903  42.791  24.165  14.024
18121W        W84904  43.201   1.773  11.905
18122W        W84905  14.343  26.713   1.403
18123W        W84906  26.528  18.700  12.487
18124W        W84907  22.104  35.565   3.578
18125W        W84908   0.800  26.992   4.262
18126W        W84909  36.330  17.223  13.042
18127W        W84910  30.089  19.862   3.463
18128W        W84911  16.696  33.543   2.563
18129W        W84912  25.523  28.879  12.060
18130W        W84913  28.426   0.822   1.072
18131W        W84914  37.598  12.572  14.746
18132W        W84915  32.433  35.062   4.734
18133W        W84916  36.326  10.288   3.264
18134W        W84917  35.007  27.752  12.168
18135W        W84918  18.009  25.227  13.355
18136W        W84919   0.056  35.992   3.282
18137W        W84920  36.206   6.726  13.327
18138W        W84921  33.934   4.003  13.146
18139W        W84922  29.413  43.803   1.188
18140W        W84923   8.297  44.277   3.711
18141W        W84924  35.486  37.531  11.638
18142W        W84925  22.028  11.176  10.801
18143W        W84926  11.290   1.423   2.372
18144W        W84927  26.509  43.843   0.034
18145W        W84928   5.324  44.254  13.901
18146W        W84929   1.762  37.659   3.311
18147W        W84930  17.764  32.951   3.113
18148W        W84931  15.098  16.556  14.360
18149W        W84932  34.253  24.020  13.340
18150W        W84933  32.722  39.064   2.738
18151W        W84934  12.581  21.975   3.693
18152W        W84935  38.052   2.195   4.434
18153W        W84936  36.001  43.467   4.002
18154W        W84937   6.840   8.696  12.992
18155W        W84938  16.999  11.387   1.722
18156W        W84939  27.079  22.417  13.889
18157W        W84940  25.733   9.399   2.831
18158W        W84941  30.493   9.566  13.198
18159W        W84942  14.306   8.474   3.766
18160W        W84943  34.953  40.814  11.642
18161W        W84944  24.967  16.867  14.074
18162W        W84945  19.667  18.142  10.574
18163W        W84946  44.905  43.342  13.550
18164W        W84947  27.495  41.780   3.556
18165W        W84948  24.051   9.449  10.679
18166W        W84949  20.771  42.700  12.256
18167W        W84950   4.247  14.888  13.482
18168W        W84951  27.019  43.704  13.315
18169W        W84952  22.160  13.172   4.264
18170W        W84953  34.326   9.307   3.232
18171W        W84954  12.614  28.205  14.885
18172W        W84955  40.256   8.285   3.049
18173W        W84956  34.326   0.845  13.830
18174W        W84957  25.717  17.863  13.558
18175W        W84958  37.615  22.722   0.807
18176W        W84959  40.257  18.742   3.707
18177W        W84960  39.333  28.948   0.290
18178W        W84961  37.896  13.316   3.631
18179W        W84962   4.848  17.685   0.739
18180W        W84963  25.740  29.938  12.954
18181W        W84964  14.371  36.304  13.085
18182W        W84965  32.012  23.256   2.861
18183W        W84966  12.823  24.653  13.832
18184W        W84967   5.908   6.901   4.137
18185W        W84968  25.713  11.784   1.408
18186W        W84969   3.159  13.926   4.197
18187W        W84970  15.956   9.524   0.527
18188W        W84971  20.857  41.922  14.796
18189W        W84972  36.804  24.853   2.792
18190W        W84973  25.684  29.532  12.630
18191W        W84974   6.246   6.151   4.216
18192W        W84975   0.537  24.487  10.657
18193W        W84976  38.588   8.110  12.574
18194W        W84977  27.779  43.058  11.457
18195W        W84978  10.909  12.867   1.104
18196W        W84979  38.854  24.479  11.205
18197W        W84980  39.493  17.556   3.496
18198W        W84981  34.103  17.921  10.692
18199W        W84982  11.989  36.263  13.895
18200W        W84983  11.076  35.906  10.703
18201W        W84984  16.710  20.798  10.622
18202W        W84985  42.525   3.457  11.524
18203W        W84986   8.227   1.041   2.266
18204W        W84987  29.877   0.328  11.494
18205W        W84988   2.899  16.070  12.920
18206W        W84989  15.208  30.892   1.171
18207W        W84990   7.867  42.587  14.806
18208W        W84991  41.511  19.225  10.665
18209W        W84992  44.891  19.940   4.782
18210W        W84993   7.977  29.128   2.860
18211W        W84994   8.889  21.097   4.728
18212W        W84995  41.459  36.438   4.647
18213W        W84996  44.291  26.950   4.897
18214W        W84997  41.449  30.484   3.342
18215W        W84998  19.245  36.939  10.777
18216W        W84999  37.861   8.258  11.714
18217W        W85000  18.643  25.630   0.913
18218W        W85001  10.762  17.324  12.578
18219W        W85002  17.017  14.787  13.562
18220W        W85003  35.281  29.718  10.786
18221W        W85004   4.451  42.038   2.393
18222W        W85005   5.792   0.039   3.378
18223W        W85006  19.911  41.271   5.008
18224W        W85007  34.508   6.655   0.443
18225W        W85008  16.473   6.174  12.764
18226W        W85009  38.356  34.847   1.663
18227W        W85010  26.495  23.070  13.023
18228W        W85011   2.583  40.422  12.941
18229W        W85012  33.369  42.515  14.325
18230W        W85013  22.087  40.754  13.433
18231W        W85014  25.921  41.020  13.418
18232W        W85015  40.681  44.274   0.848
18233W        W85016  21.553  41.712   1.525
18234W        W85017   1.484  32.792  14.923
18235W        W85018  34.611  24.128   2.229
18236W        W85019  36.281  29.721   2.583
18237W        W85020  26.538  11.351  10.627
18238W        W85021  40.756  26.028   2.811
18239W        W85022  37.390  31.922  10.160
18240W        W85023  17.912  15.574  14.927
18241W        W85024  15.799  14.303   1.030
18242W        W85025  41.317  13.221  12.016
18243W        W85026  12.072  41.586  14.510
18244W        W85027   3.050  36.385   3.839
18245W        W85028  33.199  39.058   2.564
18246W        W85029  40.317  38.520   3.318
18247W        W85030   5.799  25.562   1.409
18248W        W85031   1.728  13.759   0.723
18249W        W85032   4.693  31.415  11.609
18250W        W85033  37.871  40.467   4.707
18251W        W85034  12.300  21.725   4.122
18252W        W85035  22.126   2.339   3.776
18253W        W85036  42.505  43.342   4.623
18254W        W85037  32.528  17.723   3.682
18255W        W85038   3.369  16.187   0.733
18256W        W85039  34.088  16.800  13.997
18257W        W85040  24.070  10.699   4.544
18258W        W85041  25.458   2.683   4.903
18259W        W85042  37.474  16.536   4.773
18260W        W85043  32.540  29.101  14.478
18261W        W85044  13.141  44.337   3.172
18262W        W85045  41.352   8.856   5.336
18263W        W85046   6.631  44.361   1.675
18264W        W85047  17.660  30.227  10.601
18265W        W85048  33.476   4.217  11.988
18266W        W85049  15.679  33.915  12.806
18267W        W85050  21.174  22.306  11.826
18268W        W85051  13.776  42.313  10.725
18269W        W85052  19.755  10.956   2.207
18270W        W85053   6.169  11.742  10.179
18271W        W85054  43.536  30.466  13.453
18272W        W85055  30.220  14.159  11.982
18273W        W85056  17.219   5.488   0.381
18274W        W85057  43.819  41.049   0.004
18275W        W85058  14.053   8.874   1.458
18276W        W85059  43.118  42.094  14.836
18277W        W85060  41.835  43.691   4.019
18278W        W85061  24.501  38.916   4.615
18279W        W85062  35.161   7.746   2.304
18280W        W85063  44.163   6.591  12.788
18281W        W85064  20.743  24.522  12.039
18282W        W85065  17.820  23.954  13.758
18283W        W85066  34.840  38.795   1.867
18284W        W85067  12.404  22.071  11.183
18285W        W85068  34.457  30.626   2.416
18286W        W85069   2.240  36.809  13.606
18287W        W85070  15.614  17.740  14.744
18288W        W85071   7.689  31.448  10.962
18289W        W85072  29.438   9.174   3.677
18290W        W85073  28.597  31.198   0.310
18291W        W85074  30.931   4.182   4.306
18292W        W85075   0.987  42.219   0.874
18293W        W85076  41.290  30.178  11.178
18294W        W85077  20.139  43.542   4.582
18295W        W85078   6.632  30.469   3.341
18296W        W85079  17.771  21.995   0.500
18297W        W85080  32.943   7.977   3.689
18298W        W85081  44.792   3.495  11.778
18299W        W85082   3.014   9.802   3.993
18300W        W85083   7.407  30.077  14.796
18301W        W85084  25.502  10.250   2.699
18302W        W85085  21.193  42.679   2.933
18303W        W85086  35.536  44.357  12.600
18304W        W85087  41.855   1.421   0.847
18305W        W85088  32.585   6.771   3.578
18306W        W85089  36.167  27.472   4.030
18307W        W85090  11.290  30.185   0.745
18308W        W85091  16.724  38.415  14.139
18309W        W85092   4.050   4.804   3.578
18310W        W85093  17.501   9.752  13.375
18311W        W85094   5.310   0.293  13.683
18312W        W85095  26.213   6.653   3.183
18313W        W85096  34.619  17.269  14.984
18314W        W85097  32.067  31.040  14.008
18315W        W85098   4.185  27.885   1.395
18316W        W85099  44.295  22.785   4.642
18317W        W85100  40.379  44.628  11.171
18318W        W85101  21.839  33.471   3.824
18319W        W85102  27.597  23.295   3.829
18320W        W85103   0.440  23.280   3.106
18321W        W85104   1.332  34.816   2.929
18322W        W85105   3.193  30.982  14.511
18323W        W85106  17.251  31.575  12.586
18324W        W85107  18.371  36.058  12.062
18325W        W85108  30.901  32.972  13.929
18326W        W85109  16.271  33.069  10.741
18327W        W85110  12.361  28.393   0.796
18328W        W85111   9.714  31.229  14.449
18329W        W85112  15.534  12.288   0.211
18330W        W85113  29.437  36.405  12.951
18331W        W85114   9.222  24.568  12.275
18332W        W85115  18.722  23.098   2.384
18333W        W85116  26.509   2.669  11.137
18334W        W85117  32.422  43.494  14.490
18335W        W85118   4.866  14.514  12.521
18336W        W85119  11.445  13.396  11.650
18337W        W85120  35.951   4.368  13.381
18338W        W85121  37.752  14.311   0.533
18339W        W85122  42.011  14.923   3.272
18340W        W85123   3.681  37.412  14.121
18341W        W85124   0.922  22.765   1.295
18342W        W85125  26.502  14.301  11.150
18343W        W85126  22.743  40.090   3.559
18344W        W85127  17.432  22.201  11.645
18345W        W85128  17.112   8.687  14.889
18346W        W85129   7.163   1.904  13.807
18347W        W85130  36.052   9.161   2.848
18348W        W85131   6.700  43.225   0.763
18349W        W85132  12.322  11.801  12.008
18350W        W85133   8.749   8.849  13.624
18351W        W85134  31.046  21.294   4.085
18352W        W85135   4.156  30.653  14.354
18353W        W85136  18.959  17.684   2.197
18354W        W85137   9.310   2.461  14.730
18355W        W85138  25.578  40.969   3.395
18356W        W85139  22.596   0.806  14.281
18357W        W85140  41.837  19.488   2.885
18358W        W85141  24.197   7.626  11.352
18359W        W85142  41.315  16.403   1.030
18360W        W85143  20.416  22.939  11.180
18361W        W85144  40.233  19.192   1.227
18362W        W85145  40.385  28.413   1.776
18363W        W85146   9.862  24.619   4.723
18364W        W85147  30.120  31.703  11.253
18365W        W85148  19.432   2.255  11.943
18366W        W85149  11.131  13.901   0.730
18367W        W85150  37.156  34.913  14.825
18368W        W85151  11.826  14.914  10.232
18369W        W85152  34.434   9.534   1.252
18370W        W85153  17.657  26.056  11.932
18371W        W85154   4.246  43.423  14.350
18372W        W85155  42.379   8.706  14.081
18373W        W85156  23.102  35.950   0.643
18374W        W85157  38.029  40.852   4.410
18375W        W85158  20.931  44.013   4.105
18376W        W85159  22.301  22.766  14.863
18377W        W85160  36.322  15.805   4.198
18378W        W85161  10.385  25.841  12.611
18379W        W85162  17.463  34.378   2.463
18380W        W85163   7.653  23.660  13.518
18381W        W85164  10.741  19.054  11.636
18382W        W85165  33.012  22.913  13.467
18383W        W85166  30.236  38.012   2.499
18384W        W85167  29.990  31.488   0.758
18385W        W85168  37.637  15.609  12.093
18386W        W85169  35.509  25.902  13.386
18387W        W85170  32.480  28.542   0.439
18388W        W85171  16.796   7.318   4.727
18389W        W85172  22.681   5.675  10.492
18390W        W85173  34.418  32.618   3.147
18391W        W85174   6.402  27.041   4.405
18392W        W85175  31.157  38.157  14.605
18393W        W85176  27.014   7.348   0.315
18394W        W85177   3.763  42.200   1.884
18395W        W85178  25.443  33.705   1.104
18396W        W85179   8.664  37.301   0.856
18397W        W85180  39.775  18.222   4.402
18398W        W85181   7.571  29.620   4.104
18399W        W85182   6.291  24.097   2.908
18400W        W85183  28.592   3.178  13.692
18401W        W85184  12.652  26.224  13.921
18402W        W85185   8.879   8.494  10.156
18403W        W85186  31.323  37.155   2.974
18404W        W85187   2.357  41.481  12.833
18405W        W85188  25.243  37.636  10.310
18406W        W85189  28.420  39.242   3.744
18407W        W85190  17.888  17.093  12.203
18408W        W85191  39.386  38.305  12.827
18409W        W85192   9.731  28.820  11.309
18410W        W85193  31.140  26.609  13.021
18411W        W85194  15.015  10.139  12.963
18412W        W85195  26.199  37.131  14.222
18413W        W85196  10.836  14.099   4.393
18414W        W85197  22.541  24.835   3.558
18415W        W85198   3.838   5.783  11.948
18416W        W85199   6.310  11.867  12.523
18417W        W85200  40.765  39.004  10.233
18418W        W85201   0.823  40.768  12.876
18419W        W85202  11.115  26.344  14.568
18420W        W85203  34.065  34.672   2.659
18421W        W85204   0.581  18.100   0.247
18422W        W85205  44.318  21.596  10.519
18423W        W85206  14.736  10.229   4.891
18424W        W85207  12.178  36.609  13.531
18425W        W85208  42.305  20.215  11.104
18426W        W85209  10.199  13.855   1.232
18427W        W85210  43.491   0.783  12.049
18428W        W85211  16.467   4.868  14.395
18429W        W85212  29.125  14.707   1.256
18430W        W85213  40.396  26.149   0.473
18431W        W85214  18.866  22.014  11.808
18432W        W85215  43.178   9.149   1.965
18433W        W85216  24.390  30.883  12.461
18434W        W85217  10.860  44.761   4.870
18435W        W85218   3.978  26.048  14.117
18436W        W85219  13.830  35.719   0.618
18437W        W85220  22.052  27.423   0.940
18438W        W85221   1.766  26.109  10.549
18439W        W85222  38.694  32.912   2.927
18440W        W85223   0.973  14.283   5.360
18441W        W85224  17.715  18.760  11.903
18442W        W85225  19.863   8.732  11.179
18443W        W85226  43.459  44.852   4.669
18444W        W85227  27.958  30.720  13.156
18445W        W85228   4.724  17.452   2.364
18446W        W85229   7.608  16.635   2.298
18447W        W85230  39.102   2.891  13.838
18448W        W85231   2.689  20.882  13.424
18449W        W85232  32.959  44.706   0.964
18450W        W85233   4.186  25.666   4.585
18451W        W85234  43.664  24.437  14.865
18452W        W85235  23.466   0.373  14.614
18453W        W85236   6.457   8.449   3.793
18454W        W85237  39.887  13.584  10.125
18455W        W85238   9.432  19.376   4.568
18456W        W85239  30.594  23.206   2.901
18457W        W85240   3.367  11.901  14.949
18458W        W85241   7.151  12.258  11.538
18459W        W85242  30.171  43.940   3.639
18460W        W85243  28.535  44.261   3.584
18461W        W85244  31.657   8.773  14.858
18462W        W85245  25.115  38.452  13.672
18463W        W85246  11.821  22.533   2.894
18464W        W85247  32.912  37.303   3.272
18465W        W85248   3.729  39.288   1.293
18466W        W85249  30.369  10.303  10.510
18467W        W85250   8.403   8.104   0.924
18468W        W85251  43.982  23.318  12.549
18469W        W85252  17.235   2.497   3.120
18470W        W85253  38.097  24.267  12.017
18471W        W85254   4.754  11.709  14.501
18472W        W85255  21.624  14.352  10.162
18473W        W85256  41.127  29.888  14.887
18474W        W85257  43.772  20.489   4.459
18475W        W85258  25.095  34.824  13.407
18476W        W85259  28.542  28.569  11.662
18477W        W85260  15.026  28.545  11.704
18478W        W85261  25.132  37.623   4.613
18479W        W85262  30.882   0.251  10.758
18480W        W85263  35.895  30.497  13.011
18481W        W85264  35.160   6.400  12.877
18482W        W85265  19.021  19.760  10.094
18483W        W85266  25.998  39.837   1.324
18484W        W85267  32.293  18.465   4.389
18485W        W85268  15.393  43.048   2.538
18486W        W85269  21.959  40.013  13.859
18487W        W85270  17.160  16.130  14.960
18488W        W85271  31.846  33.786  12.900
18489W        W85272  39.110  19.793  13.324
18490W        W85273  10.290   3.976  12.204
18491W        W85274  32.099  19.648   1.834
18492W        W85275  29.874   2.839  11.960
18493W        W85276  15.780  31.501  10.994
18494W        W85277  40.705  14.876   3.782
18495W        W85278   2.856   3.850  12.408
18496W        W85279   9.369  11.078   0.302
18497W        W85280  44.976  30.708   1.835
18498W        W85281  29.624  37.455   4.578
18499W        W85282   7.275   8.446  13.813
18500W        W85283  24.036  41.429   4.537
18501W        W85284  22.350   1.991   1.738
18502W        W85285  20.916  19.969  14.908
18503W        W85286  22.239   5.011   2.839
18504W        W85287  14.618  40.110   0.759
18505W        W85288   8.219  32.102  14.445
18506W        W85289   7.877  14.550   3.607
18507W        W85290  32.107  42.065   3.910
18508W        W85291  30.075  18.319   4.139
18509W        W85292  31.139  39.818   0.008
18510W        W85293  39.449  37.213   3.431
18511W        W85294  44.020  30.947   3.757
18512W        W85295  43.893  25.698  12.798
18513W        W85296  36.939   6.571   0.984
18514W        W85297   5.494   7.895  12.988
18515W        W85298   5.707   1.667  11.762
18516W        W85299   7.820  20.101   3.074
18517W        W85300  33.504  39.782  12.462
18518W        W85301  33.959   9.594   0.580
18519W        W85302  42.730  26.970   1.770
18520W        W85303  14.872  22.580   3.495
18521W        W85304   3.479  22.427  14.800
18522W        W85305  14.033  18.793  14.471
18523W        W85306  34.503  27.123  10.294
18524W        W85307  13.145   0.718   1.955
18525W        W85308  30.346  39.326  11.236
18526W        W85309  37.613  26.259  13.028
18527W        W85310   9.842  22.948   2.655
18528W        W85311  28.456  15.582   4.635
18529W        W85312  23.939  21.320   3.223
18530W        W85313  11.592  37.247  14.002
18531W        W85314  41.879  28.272   1.873
18532W        W85315  38.095  33.214   0.456
18533W        W85316  32.371  10.416   0.206
18534W        W85317  33.149  23.518  10.428
18535W        W85318  27.579  42.029   5.020
18536W        W85319   9.353  26.929   4.326
18537W        W85320  10.967   3.740   0.069
18538W        W85321   7.137  33.445  12.533
18539W        W85322   5.169   1.154  13.306
18540W        W85323  41.441   8.380  14.351
18541W        W85324  14.717   4.948  12.534
18542W        W85325  15.254  41.070  12.042
18543W        W85326  32.699  13.321   1.272
18544W        W85327  33.607  10.239  12.869
18545W        W85328  37.463  32.973   4.474
18546W        W85329   8.404  15.076   2.861
18547W        W85330  25.767  42.430  10.547
18548W        W85331   0.919   8.785  12.506
18549W        W85332  11.697  10.192  13.851
18550W        W85333  15.616   7.555   4.969
18551W        W85334  30.892  41.143  11.925
18552W        W85335  16.560  29.822   1.784
18553W        W85336  31.441  28.394  13.854
18554W        W85337  13.141  28.050   5.060
18555W        W85338  41.815   1.747   2.270
18556W        W85339  19.952   4.312   3.089
18557W        W85340   5.904  32.720  14.410
18558W        W85341   5.831  32.019   3.631
18559W        W85342  41.349  26.585   4.805
18560W        W85343  10.828   3.364  11.071
18561W        W85344  39.303  13.727  14.431
18562W        W85345  37.477  41.080  14.157
18563W        W85346  30.055  12.851  11.556
18564W        W85347  24.025  11.348  13.076
18565W        W85348  10.323  11.310  10.512
18566W        W85349  18.566  36.886  12.150
18567W        W85350  23.694  10.528  14.282
18568W        W85351  21.385  37.773   3.754
18569W        W85352  22.497  39.955   4.172
18570W        W85353   8.804   6.926  14.252
18571W        W85354   5.773  44.936   4.397
18572W        W85355  39.426  39.309   0.536
18573W        W85356  21.698  16.620  14.823
18574W        W85357  14.085  28.866   2.718
18575W        W85358   9.149  15.552  14.870
18576W        W85359   2.464  37.285  14.858
18577W        W85360  30.647  12.650  14.277
18578W        W85361  39.002  26.222   0.516
18579W        W85362  29.476  12.480  10.165
18580W        W85363  33.494  42.242  10.662
18581W        W85364   8.309  21.740   1.516
18582W        W85365  39.962  41.325  13.574
18583W        W85366  15.879  39.038   2.360
18584W        W85367  28.999  40.762   2.186
18585W        W85368  20.602  15.131   4.171
18586W        W85369  39.655  37.448   4.210
18587W        W85370  40.838   9.242   2.630
18588W        W85371  17.289  30.798  10.929
18589W        W85372  11.630  39.789   3.626
18590W        W85373  10.166   7.131   1.919
18591W        W85374  39.106  30.723   0.385
18592W        W85375  18.797  14.203   3.349
18593W        W85376  12.431  35.652  14.515
18594W        W85377  19.080  43.657  14.809
18595W        W85378  32.845   1.710  10.773
18596W        W85379  31.892   3.816   2.817
18597W        W85380   3.144  40.514   0.703
18598W        W85381  11.469   1.558   3.297
18599W        W85382  20.325   8.387   0.252
18600W        W85383   9.184  20.144   4.362
18601W        W85384  42.845   1.989   3.864
18602W        W85385   4.830  17.393  12.106
18603W        W85386  27.299  14.572  14.374
18604W        W85387   4.884   4.264  14.404
18605W        W85388   3.349   6.667  12.058
18606W        W85389  32.068   8.665  13.100
18607W        W85390  17.589  14.895   1.322
18608W        W85391  19.260  14.953   2.735
18609W        W85392   4.924  42.674  11.746
18610W        W85393  31.975  31.941   4.537
18611W        W85394  43.188  14.091  14.097
18612W        W85395  15.393  29.481   0.272
18613W        W85396   4.216  39.955  14.041
18614W        W85397  29.223  29.081   1.233
18615W        W85398  31.954  29.739  14.485
18616W        W85399   5.385  26.712  12.909
18617W        W85400   2.412  14.699   0.333
18618W        W85401  21.236  16.159   1.387
18619W        W85402  34.699  22.513  12.524
18620W        W85403  43.664  17.646  12.942
18621W        W85404  12.106  38.044  11.603
18622W        W85405   2.988  43.791  14.974
18623W        W85406  35.973   3.907   0.843
18624W        W85407  11.730  27.498  12.008
18625W        W85408   3.883  32.823  14.361
18626W        W85409   0.537  15.293   2.996
18627W        W85410  14.517  26.867  10.480
18628W        W85411  27.642  16.616   4.323
18629W        W85412  36.239   3.425  13.877
18630W        W85413  31.927  44.555  14.290
18631W        W85414   2.353   7.393  12.907
18632W        W85415  39.274   3.863  12.143
18633W        W85416   0.899  35.620  11.151
18634W        W85417  11.760   8.001   1.307
18635W        W85418   0.463  31.099  12.516
18636W        W85419  40.228  37.943  13.295
18637W        W85420   7.362  19.992  14.992
18638W        W85421  34.702  26.843   1.909
18639W        W85422  12.837  25.607  10.773
18640W        W85423  16.121  22.309   2.907
18641W        W85424  39.892  15.254   0.759
18642W        W85425  36.821  25.300   4.529
18643W        W85426  37.944   2.293   1.774
18644W        W85427   4.214   5.228   4.924
18645W        W85428  19.986   9.182   0.790
18646W        W85429   1.249   9.715   0.368
18647W        W85430  32.570  12.696  11.055
18648W        W85431   5.885  27.540   1.896
18649W        W85432  15.234  16.591   3.245
18650W        W85433  35.014  28.502   3.578
18651W        W85434   9.633  32.491  11.884
18652W        W85435  42.642  41.964  11.064
18653W        W85436  12.573  38.119  12.420
18654W        W85437  41.453  44.726   1.078
18655W        W85438   4.761  33.373   0.874
18656W        W85439   9.859  20.853   2.660
18657W        W85440  31.420  37.740  11.928
18658W        W85441   5.002   1.822  14.420
18659W        W85442   9.599  40.481   0.414
18660W        W85443   6.802  21.497   1.848
18661W        W85444  11.166   3.376   4.047
18662W        W85445  41.543  20.278  13.813
18663W        W85446  14.142  26.690  14.323
18664W        W85447  28.331  42.221  14.936
18665W        W85448  15.349  14.519   1.729
18666W        W85449   5.591   4.425   0.427
18667W        W85450  35.053  25.504  10.684
18668W        W85451  44.601  15.100  12.845
18669W        W85452  24.099  20.502   0.321
18670W        W85453  12.741  33.555   3.526
18671W        W85454  18.578   4.702   3.185
18672W        W85455  13.481  40.275  11.523
18673W        W85456   8.619  30.473  10.971
18674W        W85457  10.308  16.626  11.216
18675W        W85458  42.826  43.280  13.043
18676W        W85459  40.221   9.255  13.111
18677W        W85460  29.588  29.157  12.115
18678W        W85461  32.149  18.755  13.846
18679W        W85462  41.800  21.241   0.478
18680W        W85463  36.454  42.952   2.939
18681W        W85464   0.037  33.042  10.912
18682W        W85465  23.103  12.252   3.680
18683W        W85466  33.287   0.670  14.479
18684W        W85467  41.901  22.634  12.832
18685W        W85468  18.120  41.282   0.196
18686W        W85469  34.957  18.819   1.900
18687W        W85470  29.590  44.342  13.517
18688W        W85471   6.701  10.375  10.655
18689W        W85472  10.666  37.462  14.635
18690W        W85473  24.914  38.072  13.383
18691W        W85474   3.329  28.954  12.376
18692W        W85475   9.507   6.563  12.941
18693W        W85476  14.149  39.860  13.912
18694W        W85477  35.472  37.444   0.718
18695W        W85478   8.814  24.031  11.126
18696W        W85479  19.084  26.700  14.395
18697W        W85480  39.916  30.695  10.645
18698W        W85481  28.446  42.475  12.631
18699W        W85482  43.215  21.474   2.765
18700W        W85483  18.745  34.849  14.359
18701W        W85484  27.789  13.494   1.822
18702W        W85485  43.426  40.166  11.194
18703W        W85486  28.899  21.301   4.139
18704W        W85487  25.016  19.045   2.731
18705W        W85488  12.613  35.282  11.545
18706W        W85489  37.818  27.691  11.139
18707W        W85490  29.201  17.121  13.929
18708W        W85491  12.968   5.321   1.573
18709W        W85492   6.765  25.075  13.674
18710W        W85493  33.315   5.834   4.187
18711W        W85494  32.670  13.719  14.865
18712W        W85495  28.074  12.569  14.988
18713W        W85496  44.896  22.329  12.090
18714W        W85497  22.654   9.469   4.223
18715W        W85498  28.132  13.265  11.488
18716W        W85499  44.449   6.240  11.415
18717W        W85500  26.693  29.628   2.277
18718W        W85501  36.796  24.585   2.362
18719W        W85502   9.867  11.571   2.259
18720W        W85503  39.571  31.040   1.068
18721W        W85504   9.687  24.589  12.533
18722W        W85505   3.795  41.011  13.346
18723W        W85506  30.851  13.942  11.119
18724W        W85507  40.054  31.842   3.249
18725W        W85508   2.250  40.802  10.304
18726W        W85509  33.034  23.158   2.197
18727W        W85510  44.216  26.087   3.205
18728W        W85511   1.770  14.534  12.440
18729W        W85512  31.105  27.048   3.721
18730W        W85513  19.660  30.783  13.991
18731W        W85514  12.789  16.668  11.681
18732W        W85515  20.486  20.999  13.579
18733W        W85516  36.455   5.433  13.984
18734W        W85517   2.046  13.768  13.889
18735W        W85518   9.958  42.254   1.864
18736W        W85519  36.868  33.577   1.262
18737W        W85520  13.675  18.571  10.808
18738W        W85521  28.085  43.804  12.854
18739W        W85522  26.146   5.931   4.001
18740W        W85523   5.877  38.338  12.809
18741W        W85524  21.689  28.553  12.199
18742W        W85525   4.145  44.059   2.740
18743W        W85526  14.904  33.201  13.100
18744W        W85527  15.171  14.972   5.113
18745W        W85528  16.772  27.992  13.281
18746W        W85529  40.590  38.333  14.838
18747W        W85530  18.556  20.741  13.954
18748W        W85531  37.065   9.693  11.943
18749W        W85532  42.050  41.382   3.695
18750W        W85533  35.263  37.369   1.574
18751W        W85534  26.843  35.156  13.995
18752W        W85535  31.383   3.660   4.814
18753W        W85536  32.859  19.970  14.366
18754W        W85537   0.168  28.421  14.456
18755W        W85538   9.711  16.087   1.454
18756W        W85539  11.027  36.941   5.226
18757W        W85540   9.772  25.208   1.660
18758W        W85541  12.445  22.252   1.454
18759W        W85542   8.212  22.850  10.720
18760W        W85543   8.490  30.666   1.231
18761W        W85544  24.069  23.130  11.947
18762W        W85545  10.333   4.475  10.994
18763W        W85546  31.888  16.209  12.120
18764W        W85547   6.108  19.031   4.445
18765W        W85548  36.539  20.256  11.199
18766W        W85549  38.523  27.512  14.942
18767W        W85550  28.743  20.908  11.171
18768W        W85551   5.827  16.285   0.838
18769W        W85552  19.791  12.930  11.978
18770W        W85553  21.663  23.314   4.979
18771W        W85554  11.086  39.032  13.975
18772W        W85555  35.326  20.085  12.511
18773W        W85556  25.624   7.803  12.444
18774W        W85557  37.112  38.374  12.120
18775W        W85558  34.851  14.256   2.295
18776W        W85559  13.125  27.710  11.131
18777W        W85560  39.792  20.012   1.434
18778W        W85561  27.310   0.439  13.372
18779W        W85562  36.017  43.319   0.319
18780W        W85563  14.180  26.222   1.800
18781W        W85564  41.381  39.993  11.701
18782W        W85565  16.154  31.567   0.441
18783W        W85566  39.248  37.809  12.188
18784W        W85567  15.081  17.022  13.505
18785W        W85568  18.017  30.188   3.626
18786W        W85569  44.491  42.928  11.457
18787W        W85570  34.216  31.327  11.072
18788W        W85571  26.594   4.503  11.933
18789W        W85572  35.665  31.134  10.754
18790W        W85573  24.679  14.113   3.372
18791W        W85574  29.301  39.972  11.398
18792W        W85575  22.117   1.300  11.455
18793W        W85576  36.495  42.908  10.651
18794W        W85577  28.973  31.921   2.873
18795W        W85578  36.067  12.271   4.341
18796W        W85579   2.243  36.167  10.710
18797W        W85580  23.704   9.389  12.233
18798W        W85581  40.747  26.404   1.293
18799W        W85582  27.233  26.476   3.245
18800W        W85583   1.470   9.081  12.947
18801W        W85584  17.693  19.795   0.943
18802W        W85585  24.792   0.521  12.056
18803W        W85586  43.807  37.030  13.572
18804W        W85587   0.333  43.817  12.412
18805W        W85588  31.613  20.621  11.631
18806W        W85589   1.393  28.160  10.397
18807W        W85590  18.752   9.542   2.353
18808W        W85591  21.737  30.673   1.852
18809W        W85592  11.985  21.181  14.349
18810W        W85593  44.894  42.788  11.149
18811W        W85594  27.679   2.856  11.541
18812W        W85595  16.287  18.335   1.696
18813W        W85596  40.518  27.150   0.234
18814W        W85597  35.397  34.432   2.476
18815W        W85598  25.624  41.387  13.193
18816W        W85599  12.786  23.130  13.274
18817W        W85600  37.880  15.108   4.635
18818W        W85601  17.146  30.526   2.308
18819W        W85602  14.593  33.021  13.461
18820W        W85603  20.415   4.916  12.541
18821W        W85604  30.014   7.801  13.555
18822W        W85605  17.714  37.602   1.402
18823W        W85606  32.878   8.437  12.959
18824W        W85607  38.086  30.006   0.918
18825W        W85608   5.734  28.225   0.888
18826W        W85609  27.175  38.933   2.180
18827W        W85610  23.238   1.703  12.336
18828W        W85611  18.119  16.671   3.196
18829W        W85612  34.563   0.974   1.943
18830W        W85613  44.913  16.096  12.066
18831W        W85614   8.785  14.079  12.637
18832W        W85615  16.126   1.668   2.401
18833W        W85616  40.009   0.854   3.259
18834W        W85617  26.214  39.215  10.262
18835W        W85618  37.695  16.922   1.836
18836W        W85619  16.608  25.898  13.346
18837W        W85620  22.627  27.759   0.389
18838W        W85621  39.619  29.366   2.138
18839W        W85622   8.265   2.656   1.584
18840W        W85623  34.619  39.924   2.174
18841W        W85624  26.064   6.374   1.713
18842W        W85625   0.549  16.841   3.270
18843W        W85626  15.124   7.666   1.732
18844W        W85627  35.885  32.931   4.794
18845W        W85628  41.577  34.456  10.632
18846W        W85629   9.405  17.221  12.458
18847W        W85630  41.317  28.159   1.149
18848W        W85631  21.109  14.536  14.250
18849W        W85632   1.473  40.863  10.660
18850W        W85633  27.977  24.802   5.111
18851W        W85634  39.451  33.368  14.467
18852W        W85635  29.870  20.910   3.222
18853W        W85636  29.108  34.376  11.653
18854W        W85637  28.585  40.346   2.162
18855W        W85638  43.444  43.660  14.336
18856W        W85639  20.319  35.912   0.017
18857W        W85640  10.760  41.105   2.916
18858W        W85641  33.979   8.704   2.481
18859W        W85642  43.831  34.087   4.159
18860W        W85643  41.804   4.659   0.378
18861W        W85644  14.062   7.155   1.881
18862W        W85645  21.130  16.752   0.227
18863W        W85646  13.221  23.935  11.213
18864W        W85647  24.484  15.142  10.834
18865W        W85648   5.448  37.062  14.365
18866W        W85649  37.774  11.378   0.244
18867W        W85650  28.661  44.962  10.764
18868W        W85651  22.294  23.975  11.568
18869W        W85652  19.525   0.261  11.030
18870W        W85653  32.022  10.446  13.918
18871W        W85654  43.348  37.734   3.092
18872W        W85655   2.703  40.947  13.883
18873W        W85656  16.568  28.600   4.637
18874W        W85657  14.607  29.987   4.780
18875W        W85658   2.367  21.657   2.643
18876W        W85659   6.167  18.062   4.908
18877W        W85660  33.150  27.518  12.885
18878W        W85661  27.944  20.147  11.108
18879W        W85662   7.739  32.961   0.866
18880W        W85663  42.465   8.997   0.589
18881W        W85664  13.283   6.859   1.375
18882W        W85665  34.448  42.785   3.130
18883W        W85666  15.996  12.962   1.344
18884W        W85667  23.182  29.880  13.960
18885W        W85668  21.496   0.782  10.357
18886W        W85669   4.876  31.076   2.701
18887W        W85670   4.321  10.948  11.415
18888W        W85671  27.237  30.286  12.759
18889W        W85672  21.936  29.907   3.038
18890W        W85673   3.730  32.444  14.778
18891W        W85674  37.218  12.959  13.344
18892W        W85675   3.672  28.560  12.546
18893W        W85676  23.640  41.560   0.131
18894W        W85677  23.783   8.622   3.427
18895W        W85678  28.174  37.618   4.667
18896W        W85679  34.828  41.679   0.360
18897W        W85680  29.889  18.515   4.726
18898W        W85681  16.113   7.411  13.933
18899W        W85682  16.798  37.502   1.327
18900W        W85683  25.211  41.872  14.888
18901W        W85684   1.360  24.776   1.735
18902W        W85685  29.409  30.945   4.159
18903W        W85686  24.088  21.815   2.450
18904W        W85687  16.903  26.567  12.493
18905W        W85688  10.957  27.593  10.385
18906W        W85689  31.600  22.823   0.847
18907W        W85690  35.818  35.846   1.480
18908W        W85691  31.032  34.392  14.915
18909W        W85692  25.818  37.979  14.559
18910W        W85693  32.822  12.365  11.508
18911W        W85694  29.870  15.678   4.007
18912W        W85695   2.210  39.087   3.265
18913W        W85696  20.031  20.547  12.808
18914W        W85697   2.004  22.503  13.877
18915W        W85698  42.860  39.743  14.415
18916W        W85699   5.915   5.281  14.950
18917W        W85700  11.588  39.146  12.113
18918W        W85701  14.795  31.453   0.638
18919W        W85702   1.785   1.256  11.734
18920W        W85703   2.190   7.690   0.097
18921W        W85704  38.613  44.881  12.933
18922W        W85705   0.974   7.199   4.220
18923W        W85706   8.666   1.373  12.120
18924W        W85707  36.654   6.174  13.122
18925W        W85708   0.718  34.799   4.054
18926W        W85709  44.537  13.233  13.852
18927W        W85710  27.538  25.569  10.618
18928W        W85711  34.539  20.486   3.230
18929W        W85712  41.850  34.587  13.447
18930W        W85713  39.192   9.119  14.982
18931W        W85714  14.715  40.936   1.000
18932W        W85715  18.565   5.897   4.590
18933W        W85716  25.210  38.576   0.743
18934W        W85717  17.560  35.940  11.452
18935W        W85718  32.982  35.802   2.865
18936W        W85719  28.404  24.946  11.674
18937W        W85720  20.352   9.638  12.460
18938W        W85721  10.200  15.387  13.813
18939W        W85722  42.609  36.359   4.231
18940W        W85723  41.538   1.822   3.827
18941W        W85724  18.951   8.636   0.414
18942W        W85725  41.607  44.544  14.505
18943W        W85726  14.886  38.031   2.528
18944W        W85727  30.822  14.681   1.910
18945W        W85728  10.771  24.222   3.169
18946W        W85729  22.949  30.835  12.483
18947W        W85730  38.734  30.132   1.997
18948W        W85731  37.996  44.168   4.334
18949W        W85732  15.808  15.682  14.957
18950W        W85733  15.472  17.759   9.849
18951W        W85734  20.966  23.999   1.955
18952W        W85735   5.134  32.025   4.902
18953W        W85736  14.933  13.048  11.055
18954W        W85737  10.775  16.087  12.912
18955W        W85738   1.909  29.460  12.056
18956W        W85739  35.662  35.423   0.880
18957W        W85740  26.447   4.049  13.080
18958W        W85741  29.218   9.350   4.093
18959W        W85742  30.961   5.413   2.406
18960W        W85743   2.274  42.659   0.340
18961W        W85744  26.688  29.208  13.051
18962W        W85745  36.514  30.243  11.990
18963W        W85746  17.817  31.874   1.531
18964W        W85747   7.518  43.246  14.381
18965W        W85748  18.627  22.252   1.330
18966W        W85749  33.612  10.769  14.287
18967W        W85750  34.409   5.878  10.271
18968W        W85751   5.061  19.716  14.838
18969W        W85752   0.474   7.316  13.942
18970W        W85753  16.236  12.710  10.281
18971W        W85754   6.276  31.451  13.958
18972W        W85755  26.700   4.954   3.815
18973W        W85756  33.900  28.655  10.770
18974W        W85757  19.923  13.416  12.051
18975W        W85758  33.672  18.644  11.994
18976W        W85759  22.509   7.216   1.495
18977W        W85760  19.260   3.390  10.918
18978W        W85761  21.577  22.560   1.265
18979W        W85762  25.203  14.894   2.970
18980W        W85763  28.914  41.873  10.981
18981W        W85764  12.804   5.664   4.337
18982W        W85765  21.119  32.980   4.913
18983W        W85766  37.192   9.920   4.926
18984W        W85767  26.190  13.770  10.676
18985W        W85768  28.151  39.609  10.751
18986W        W85769  41.777  13.642  14.865
18987W        W85770  41.248  26.293  14.504
18988W        W85771   4.470  34.756  10.789
18989W        W85772  37.412  16.065   2.625
18990W        W85773  40.546   8.279  12.843
18991W        W85774  25.280  24.187   0.783
18992W        W85775  44.041  30.516   2.872
18993W        W85776  28.925  27.362   1.803
18994W        W85777  23.628  18.180  13.116
18995W        W85778  10.311  26.188  11.552
18996W        W85779   3.330  41.308   4.159
18997W        W85780  44.793   2.687   3.666
18998W        W85781  42.016  20.487  13.490
18999W        W85782  34.869   5.117  13.323
19000W        W85783   4.436  39.781  14.992
19001W        W85784  36.122  28.727  12.531
19002W        W85785  32.335  12.843  14.771
19003W        W85786  33.749   0.481  10.359
19004W        W85787  26.523  42.316   2.636
19005W        W85788  43.294   6.534  11.571
19006W        W85789  20.250  20.057  11.531
19007W        W85790  14.371  43.064  11.651
19008W        W85791  39.341   3.246  11.105
19009W        W85792  24.688  41.252   0.508
19010W        W85793  39.434   0.405   1.161
19011W        W85794   2.771  10.144  11.603
19012W        W85795  42.286  16.626  13.683
19013W        W85796   0.797  25.655  12.935
19014W        W85797  15.220  27.623  12.368
19015W        W85798  36.527  39.553  13.990
19016W        W85799  31.041  32.081  11.247
19017W        W85800  10.140  13.662   1.726
19018W        W85801  39.613  38.867   0.328
19019W        W85802   0.825  16.669   0.106
19020W        W85803  22.491  41.585  13.391
19021W        W85804  25.514  16.610  13.782
19022W        W85805  24.822  23.492  10.262
19023W        W85806   1.827  20.807  14.712
19024W        W85807  39.092  22.643   4.465
19025W        W85808  25.892  14.185  14.667
19026W        W85809  44.531  11.522   5.001
19027W        W85810  20.174   2.475  12.963
19028W        W85811  23.978  26.585   0.329
19029W        W85812  23.959  28.921   1.880
19030W        W85813  27.950  11.140  11.575
19031W        W85814  25.981  11.150  11.555
19032W        W85815   0.519  30.549   2.981
19033W        W85816  16.674  10.355  14.362
19034W        W85817  24.977   7.289  11.089
19035W        W85818  24.599  38.452   2.966
19036W        W85819  10.630  26.275   2.345
19037W        W85820  18.346  26.226   4.683
19038W        W85821  25.993  10.655   2.802
19039W        W85822   5.223   9.080   0.461
19040W        W85823   0.841  11.913   0.377
19041W        W85824  14.168  44.433   1.372
19042W        W85825   1.619  11.907  14.895
19043W        W85826  41.111   4.588   4.051
19044W        W85827  44.411  29.051   1.973
19045W        W85828  10.403  40.268   1.911
19046W        W85829  14.105  37.535  13.516
19047W        W85830  25.160  27.708  14.217
19048W        W85831  17.725   0.432   4.385
19049W        W85832  40.213  19.708   0.494
19050W        W85833  38.826  27.571  13.452
19051W        W85834  21.007  42.342  11.957
19052W        W85835   4.653  30.373   0.028
19053W        W85836  29.699  17.981  14.182
19054W        W85837  16.893  40.109  11.016
19055W        W85838  22.509  26.046  14.896
19056W        W85839  17.547  26.629  11.086
19057W        W85840  41.402  33.422   0.118
19058W        W85841  43.231  12.729   4.560
19059W        W85842  35.467  32.924  14.758
19060W        W85843   2.935  10.810  12.016
19061W        W85844  10.415  33.995   4.570
19062W        W85845   1.195  12.433   1.018
19063W        W85846  11.856   7.316  13.561
19064W        W85847  15.535  41.279   0.945
19065W        W85848  36.364   2.900  10.935
19066W        W85849  43.287  24.477  12.481
19067W        W85850   7.768  29.522   1.752
19068W        W85851   6.713  34.771  14.307
19069W        W85852   5.845  17.226  14.382
19070W        W85853  39.426   3.461   3.299
19071W        W85854  23.777  41.377   3.163
19072W        W85855  25.358  44.073   4.949
19073W        W85856  23.043   3.327   3.577
19074W        W85857  36.808  42.810   1.440
19075W        W85858  21.565  19.277   3.119
19076W        W85859   3.465   4.712   2.844
19077W        W85860  23.644  18.753  13.316
19078W        W85861  35.071  27.542  10.603
19079W        W85862  36.366  22.454   2.202
19080W        W85863  43.237  37.348   4.393
19081W        W85864  27.003  16.823   3.165
19082W        W85865   2.896  17.830   4.879
19083W        W85866  29.634  34.276   1.565
19084W        W85867  18.741  28.496  14.535
19085W        W85868  39.024  24.555  14.508
19086W        W85869  28.771  25.046   1.409
19087W        W85870  41.492  38.329   1.037
19088W        W85871   0.157  37.134   0.897
19089W        W85872   1.613   5.654  11.103
19090W        W85873   2.683  42.873  11.644
19091W        W85874  22.488  19.187  12.919
19092W        W85875  11.351  42.530   2.083
19093W        W85876  33.584   1.763  13.315
19094W        W85877  10.237  43.759   3.158
19095W        W85878   7.060  24.562  11.501
19096W        W85879  20.153  38.974  11.484
19097W        W85880  43.479  18.730  14.835
19098W        W85881  35.679  10.267  14.932
19099W        W85882  20.221  13.910  12.541
19100W        W85883  12.283  28.160   0.328
19101W        W85884  12.944  39.382  12.140
19102W        W85885  14.959   9.822   9.965
19103W        W85886   9.109  30.428  11.165
19104W        W85887  24.964  18.148   1.690
19105W        W85888  13.469  11.349   0.515
19106W        W85889  44.668  33.358  10.774
19107W        W85890   5.493  27.535  14.441
19108W        W85891  15.476   0.740   1.878
19109W        W85892  27.433  21.592   3.251
19110W        W85893  10.945  13.679  11.161
19111W        W85894  27.260  13.863   4.486
19112W        W85895   4.762  34.634   2.368
19113W        W85896   3.482  44.787   0.265
19114W        W85897  32.677  20.964  11.766
19115W        W85898   2.731  29.655   1.439
19116W        W85899  37.237  13.181  11.538
19117W        W85900  12.185  11.410  13.334
19118W        W85901  23.751  17.671  11.149
19119W        W85902  37.035  15.710  13.051
19120W        W85903  31.049   8.792   2.414
19121W        W85904  34.302  11.374   0.221
19122W        W85905  18.742  41.251  14.337
19123W        W85906  32.131  37.575   3.783
19124W        W85907   7.681  18.191   0.839
19125W        W85908   3.140  10.649   2.989
19126W        W85909   0.532  10.270  14.903
19127W        W85910  34.631  12.670   2.198
19128W        W85911  26.380  35.559  14.338
19129W        W85912  12.724   9.714  11.182
19130W        W85913  26.225  38.996   4.121
19131W        W85914   9.389  10.110   3.307
19132W        W85915  15.887  29.246  13.552
19133W        W85916  22.137  15.637  11.083
19134W        W85917  43.823  35.480  14.489
19135W        W85918  29.384  13.427   3.179
19136W        W85919  40.296  13.676   3.306
19137W        W85920   6.262  43.334   2.878
19138W        W85921  10.583  35.426   2.154
19139W        W85922  30.571  12.066   4.920
19140W        W85923  41.497  27.159  13.972
19141W        W85924  36.570  24.531   4.268
19142W        W85925  17.012   1.434   1.250
19143W        W85926  32.016   2.322   1.784
19144W        W85927  30.029  25.612  14.999
19145W        W85928  17.713   6.932  13.271
19146W        W85929   4.421  35.908   1.159
19147W        W85930  36.440   0.783  12.005
19148W        W85931   6.960   1.500   3.686
19149W        W85932  17.121  17.699  11.990
19150W        W85933   2.207  25.143   1.904
19151W        W85934  34.510   8.271   0.748
19152W        W85935  35.936  44.477   2.877
19153W        W85936   2.251   0.884  14.821
19154W        W85937  33.765  22.251  12.299
19155W        W85938  11.092  43.323  10.984
19156W        W85939  27.070  12.684  12.194
19157W        W85940  37.508   0.230  11.195
19158W        W85941  20.108   1.834   4.430
19159W        W85942  37.785   1.503  14.523
19160W        W85943  34.421  41.672  10.798
19161W        W85944  14.737  19.234   4.767
19162W        W85945  31.983  26.559  13.381
19163W        W85946   8.178  38.856  12.664
19164W        W85947  24.663  30.511   3.757
19165W        W85948  32.214  19.124   3.638
19166W        W85949   7.986   7.686   2.079
19167W        W85950  32.649   2.020  11.135
19168W        W85951  19.132   2.683   4.861
19169W        W85952   8.326  28.645   4.474
19170W        W85953   3.468  21.751   0.822
19171W        W85954  10.462  15.814   2.777
19172W        W85955   2.372  12.324   4.313
19173W        W85956   1.961  11.371  12.000
19174W        W85957  23.579  34.508   3.808
19175W        W85958  11.714   4.797   2.274
19176W        W85959  42.458   5.368   3.292
19177W        W85960   9.038   9.392   2.192
19178W        W85961  42.522  20.598  13.938
19179W        W85962   6.173  21.824   0.275
19180W        W85963  37.884  33.711  13.216
19181W        W85964  17.776  40.835  11.488
19182W        W85965  10.755  28.958   2.797
19183W        W85966  44.024  18.090  13.871
19184W        W85967  32.388  26.283  11.116
19185W        W85968  33.533  33.379   4.552
19186W        W85969  30.527  27.896  11.592
19187W        W85970  44.982  21.154  13.711
19188W        W85971   0.687  44.175   4.800
19189W        W85972  41.444  44.695   4.870
19190W        W85973   5.468  10.475  11.370
19191W        W85974  37.830  36.675  13.161
19192W        W85975  42.846  32.798   3.862
19193W        W85976  14.678  39.850  13.919
19194W        W85977  10.395   6.509  12.903
19195W        W85978  21.733  25.225  11.546
19196W        W85979  12.841  25.588  13.545
19197W        W85980  19.011  37.580  13.450
19198W        W85981  10.253  41.344  14.867
19199W        W85982  18.058  34.488  12.389
19200W        W85983   6.285  29.128  13.443
19201W        W85984  30.224   7.603  14.372
19202W        W85985  37.838   5.406   4.117
19203W        W85986  28.372   0.727   3.258
19204W        W85987  35.838   1.895  13.478
19205W        W85988  18.822  36.855  12.598
19206W        W85989   5.092   1.831   2.690
19207W        W85990   4.964  23.567  14.355
19208W        W85991  38.498  24.611   1.445
19209W        W85992  16.910   5.081  12.160
19210W        W85993   6.439  11.855  10.615
19211W        W85994  22.651  17.345   2.699
19212W        W85995   9.846  40.898  10.742
19213W        W85996  23.626  25.440  13.999
19214W        W85997   3.856  44.026  11.219
19215W        W85998  22.933  23.796  12.875
19216W        W85999  14.089  23.079   3.674
19217W        W86000  32.591  43.219  10.569
19218W        W86001  30.215  14.903   0.079
19219W        W86002  34.770   7.898   4.627
19220W        W86003  22.830  37.847   1.380
19221W        W86004  33.620  43.302  13.304
19222W        W86005  41.917  12.635   4.212
19223W        W86006   1.149  14.780  11.618
19224W        W86007  41.801   9.812   3.326
19225W        W86008   4.372  38.667  11.840
19226W        W86009  35.484  33.164  11.602
19227W        W86010  26.392  33.920   2.875
19228W        W86011  10.223  12.115   3.633
19229W        W86012   2.241   3.355  10.660
19230W        W86013  10.735  40.321   3.830
19231W        W86014   0.953  22.037  14.559
19232W        W86015  18.721  20.737   2.003
19233W        W86016  34.146   7.836  13.447
19234W        W86017  30.982   7.018  10.225
19235W        W86018   4.727   0.856  13.401
19236W        W86019  30.151  14.353  13.404
19237W        W86020  30.760   2.246  14.130
19238W        W86021   9.134  15.215   3.369
19239W        W86022  31.619  20.704  12.538
19240W        W86023  20.455  40.737   1.867
19241W        W86024  25.779  16.021  11.200
19242W        W86025  38.046  18.842   0.284
19243W        W86026  22.080  42.480   4.884
19244W        W86027   3.208  15.248  12.436
19245W        W86028  28.956  31.710   4.181
19246W        W86029  36.360  43.402  11.970
19247W        W86030  27.328   1.854  14.019
19248W        W86031  30.476   0.310   2.281
19249W        W86032  10.587  10.340   2.742
19250W        W86033  26.492  21.665  12.875
19251W        W86034  27.809  11.754  11.963
19252W        W86035  29.064  13.697   4.826
19253W        W86036  31.485  16.692   4.245
19254W        W86037  38.000   1.418  10.920
19255W        W86038  30.393  43.986   1.362
19256W        W86039  42.777  21.923   3.990
19257W        W86040  22.028  22.832   0.797
19258W        W86041  34.029  23.703   3.632
19259W        W86042  37.985  39.023  11.665
19260W        W86043  13.789  38.966   2.607
19261W        W86044  29.157   8.883   2.454
19262W        W86045  18.557  22.182   1.843
19263W        W86046  40.575  32.810   3.825
19264W        W86047   9.331  33.552   0.372
19265W        W86048  21.145   7.096  12.056
19266W        W86049  18.621  37.799  11.212
19267W        W86050  14.273   6.385   4.601
19268W        W86051  19.744  12.358  12.943
19269W        W86052  33.947  18.397   0.465
19270W        W86053  42.742  10.723  12.481
19271W        W86054  36.023  25.683   1.306
19272W        W86055  31.073  29.629   4.825
19273W        W86056  38.676  33.379  11.464
19274W        W86057  11.757  37.583  11.436
19275W        W86058   1.699   4.873  10.607
19276W        W86059  37.517  19.445  10.996
19277W        W86060  19.755   0.951  13.087
19278W        W86061  37.826  21.005   4.393
19279W        W86062   2.265   7.627   2.275
19280W        W86063   3.230  16.121   4.123
19281W        W86064   8.073  11.431   1.544
19282W        W86065  38.833   0.270   0.092
19283W        W86066  27.129  20.607   1.809
19284W        W86067  22.388   4.298  12.938
19285W        W86068  39.805  34.900   1.128
19286W        W86069  44.853   1.801   0.390
19287W        W86070  30.150  44.451   1.233
19288W        W86071  29.065  25.153   0.473
19289W        W86072   5.196  25.964   2.886
19290W        W86073  22.191  16.753  13.946
19291W        W86074  26.123   8.705   2.235
19292W        W86075  27.647  33.816  13.943
19293W        W86076  44.048  23.148  13.477
19294W        W86077   2.041  26.657   1.686
19295W        W86078  21.325  41.286   0.502
19296W        W86079   4.879   3.464   2.993
19297W        W86080   5.947   2.987   0.859
19298W        W86081  13.230  12.216   4.598
19299W        W86082  36.811  43.854  11.179
19300W        W86083  37.528   5.170  14.341
19301W        W86084  29.088  16.001  10.694
19302W        W86085  41.105  18.494  12.881
19303W        W86086  12.709  35.617   1.766
19304W        W86087  30.219   9.805   2.685
19305W        W86088  21.238  29.408  14.878
19306W        W86089  32.917  25.082   4.824
19307W        W86090  27.741  12.805  11.087
19308W        W86091  33.128  15.831   0.442
19309W        W86092  15.499   7.062  13.350
19310W        W86093  16.801  31.030   0.018
19311W        W86094  26.186  18.152   4.390
19312W        W86095  28.195  32.963   2.382
19313W        W86096  35.922  33.477   1.209
19314W        W86097  17.129  31.166  14.553
19315W        W86098   9.458  31.599  12.336
19316W        W86099  32.720  28.666  13.488
19317W        W86100   6.556   2.900   1.530
19318W        W86101  42.506   4.977  12.979
19319W        W86102  11.408  13.167  13.892
19320W        W86103  41.454  35.819   3.902
19321W        W86104  13.272  21.922  10.960
19322W        W86105  16.106  14.609  14.461
19323W        W86106   7.432  11.499   3.780
19324W        W86107  32.777  39.310  13.077
19325W        W86108  13.412   8.983   1.471
19326W        W86109  33.627  27.534   2.359
19327W        W86110   8.688  23.815   0.325
19328W        W86111  33.564  16.688   1.430
19329W        W86112   3.664  34.032  12.024
19330W        W86113   4.901   8.147   1.245
19331W        W86114  38.380  29.886  13.516
19332W        W86115   1.915  31.235   3.385
19333W        W86116  32.587  44.850   3.224
19334W        W86117  43.780   7.194  13.516
19335W        W86118  43.520   2.221   3.640
19336W        W86119  13.030  33.989  13.803
19337W        W86120  32.978  15.920  11.007
19338W        W86121  25.001  31.971   4.147
19339W        W86122   8.355  13.239  12.170
19340W        W86123  25.641  25.664  12.545
19341W        W86124  22.686   8.897  11.900
19342W        W86125  31.756  33.036   3.897
19343W        W86126  18.559  10.693   0.745
19344W        W86127  40.688  19.558  12.994
19345W        W86128   6.827  43.241  10.596
19346W        W86129  10.705  12.716   4.345
19347W        W86130  25.924  30.594   1.296
19348W        W86131   2.173   7.185  11.215
19349W        W86132  35.826   0.224   3.849
19350W        W86133  33.383  41.420   2.845
19351W        W86134  29.574  24.999   5.011
19352W        W86135  26.165  38.971   2.185
19353W        W86136  26.717   7.630  13.051
19354W        W86137  35.826  37.297   2.775
19355W        W86138  14.209  25.099   0.895
19356W        W86139   7.392  29.186   1.913
19357W        W86140   3.847   6.438  12.714
19358W        W86141  30.637   5.858   3.103
19359W        W86142  42.767  18.330   0.742
19360W        W86143  23.868  43.243  11.288
19361W        W86144  13.631  37.491  13.297
19362W        W86145  12.557  25.156   2.682
19363W        W86146   4.437  23.138  14.479
19364W        W86147  33.637  15.990   2.207
19365W        W86148   4.601  14.202   3.277
19366W        W86149  28.086  25.226   9.993
19367W        W86150  32.524  41.288   2.899
19368W        W86151  32.146  42.846   0.446
19369W        W86152  28.562  36.536   2.250
19370W        W86153   9.551  43.319   0.343
19371W        W86154  12.789  13.664   3.777
19372W        W86155  33.638  18.149  14.020
19373W        W86156  11.238  24.769   2.820
19374W        W86157  32.453  20.619  12.124
19375W        W86158  13.870  24.527  11.572
19376W        W86159  14.784   8.182   3.714
19377W        W86160  21.580  26.244   1.880
19378W        W86161  44.749  35.927   0.459
19379W        W86162   1.477  41.623  13.074
19380W        W86163  11.418  20.016   2.298
19381W        W86164   7.867  19.970  12.900
19382W        W86165  19.548  38.638   2.719
19383W        W86166   3.703   2.833   3.236
19384W        W86167  30.915  32.338   1.258
19385W        W86168  17.278  38.590  11.061
19386W        W86169  38.807  18.417  10.564
19387W        W86170  38.537  10.145  12.093
19388W        W86171  17.990  21.124   3.236
19389W        W86172   9.051  11.305   1.581
19390W        W86173   9.589  16.795   0.291
19391W        W86174  30.881  26.880   2.727
19392W        W86175  19.587  10.304  11.496
19393W        W86176  40.791  30.674  11.606
19394W        W86177  38.314  15.773  10.742
19395W        W86178  43.265  39.623  12.910
19396W        W86179   0.464  44.386   4.176
19397W        W86180  23.677  17.028   3.822
19398W        W86181   7.456  37.496  13.853
19399W        W86182   1.451  44.680   3.161
19400W        W86183   6.347  27.213   0.392
19401W        W86184  37.901  31.605  12.968
19402W        W86185  14.052  33.018  14.836
19403W        W86186  34.650  32.367  13.365
19404W        W86187   7.574  15.422   2.641
19405W        W86188  38.910  30.907   3.607
19406W        W86189  10.168  18.645  13.976
19407W        W86190  34.593  35.569  13.044
19408W        W86191   5.685  16.142  12.958
19409W        W86192  15.350  33.426  12.052
19410W        W86193  32.730   7.519   1.799
19411W        W86194  44.325  41.831  12.356
19412W        W86195  13.603   6.926  13.562
19413W        W86196  23.043  14.754   1.713
19414W        W86197  31.358   0.826  12.020
19415W        W86198   7.329   1.261   3.968
19416W        W86199   2.203  22.070  13.064
19417W        W86200  35.536  39.922   3.096
19418W        W86201   8.225  11.200   2.793
19419W        W86202  36.595   5.933  13.858
19420W        W86203  28.097  27.405  11.832
19421W        W86204  17.534  23.198   3.679
19422W        W86205  18.102  13.056   4.991
19423W        W86206  25.219  37.938   5.005
19424W        W86207   7.359  34.932   0.724
19425W        W86208   1.688   7.809  14.453
19426W        W86209   5.493  32.166   0.745
19427W        W86210  26.587  25.766  11.370
19428W        W86211  24.518  41.094   3.855
19429W        W86212  21.259  13.984  10.882
19430W        W86213  36.031  41.873  14.788
19431W        W86214  20.603  12.536  10.014
19432W        W86215  40.531  42.538  13.278
19433W        W86216  28.905  18.007  11.761
19434W        W86217  43.203  32.053   1.387
19435W        W86218   2.737  40.391   4.585
19436W        W86219   6.888  18.339  13.742
19437W        W86220  43.325  27.544   0.307
19438W        W86221  16.118  36.884  12.828
19439W        W86222  13.880  37.065  13.527
19440W        W86223  43.736  16.568   4.961
19441W        W86224  13.143   9.034   3.103
19442W        W86225  20.471  14.366  13.498
19443W        W86226  38.810   5.941  11.055
19444W        W86227  22.163  20.072  14.848
19445W        W86228  23.621  31.323   1.754
19446W        W86229  40.109   3.955  12.908
19447W        W86230   6.453  30.136   0.072
19448W        W86231  44.330  29.230  14.995
19449W        W86232  18.356  15.225   1.441
19450W        W86233   3.733  13.449  10.896
19451W        W86234   9.010  32.337   2.785
19452W        W86235   8.741  40.053   2.445
19453W        W86236  11.736  43.686   4.552
19454W        W86237  28.388  39.245  11.975
19455W        W86238  43.844  30.016  14.674
19456W        W86239  37.061  21.799  10.984
19457W        W86240  20.546  30.619  12.672
19458W        W86241  41.872  25.070  11.132
19459W        W86242  30.606   7.162  11.508
19460W        W86243  22.522  11.797   1.687
19461W        W86244  36.413  13.170  12.079
19462W        W86245  29.238  30.080   2.296
19463W        W86246  27.757  36.984  12.978
19464W        W86247  25.225  27.605   4.618
19465W        W86248   3.484  11.143   0.675
19466W        W86249  16.547  20.674  12.387
19467W        W86250  29.180  25.089   3.665
19468W        W86251   1.660  16.793   4.509
19469W        W86252  10.888  33.480  14.454
19470W        W86253  14.837  19.656  11.566
19471W        W86254  15.708  39.387  12.499
19472W        W86255  14.148  19.023   3.745
19473W        W86256  36.983  30.749  14.787
19474W        W86257  12.209  28.215   1.301
19475W        W86258  39.369  20.989   0.202
19476W        W86259  28.968  14.982  12.840
19477W        W86260  25.679   8.817  13.757
19478W        W86261  40.494  17.612  14.228
19479W        W86262  38.034  38.638   1.947
19480W        W86263  13.849  33.338   1.260
19481W        W86264  26.454  10.044   2.359
19482W        W86265  25.133   5.843  12.960
19483W        W86266  27.359  25.496   1.885
19484W        W86267  15.056  17.845   2.435
19485W        W86268  44.791  10.783   3.283
19486W        W86269  10.111  20.759   0.054
19487W        W86270  34.877   5.458   2.389
19488W        W86271  26.058  24.101  14.277
19489W        W86272  25.638  27.084  12.526
19490W        W86273  19.901  14.310  12.454
19491W        W86274  11.133  41.861  12.084
19492W        W86275  19.080  42.592   2.663
19493W        W86276  44.799  42.391   3.917
19494W        W86277   9.381  35.052  12.349
19495W        W86278  25.811  30.678   4.149
19496W        W86279  19.840  16.164  10.396
19497W        W86280  43.571  34.598   3.239
19498W        W86281  15.671  18.148   4.253
19499W        W86282  12.343  20.139   0.236
19500W        W86283  41.503   0.244   4.666
19501W        W86284  40.466  43.989   3.305
19502W        W86285  31.047  40.601   4.106
19503W        W86286  18.740  17.323   2.740
19504W        W86287   8.257   4.273   0.064
19505W        W86288   0.744  12.690   2.438
19506W        W86289  39.069  15.256   2.902
19507W        W86290  10.805  26.471  11.562
19508W        W86291   0.183  25.697  12.026
19509W        W86292  32.599  42.263   0.815
19510W        W86293  34.944  34.848   1.034
19511W        W86294  16.477  26.052  11.302
19512W        W86295  33.974  24.559   3.906
19513W        W86296  23.178  22.742   3.099
19514W        W86297  39.384  36.366   1.957
19515W        W86298  18.786   5.816   2.393
19516W        W86299  38.865  17.243  13.025
19517W        W86300  42.685  42.481   1.878
19518W        W86301   3.275  12.363   1.823
19519W        W86302  33.387   7.271  12.567
19520W        W86303   9.720  38.888  10.087
19521W        W86304  23.393  39.452   4.244
19522W        W86305   1.385  42.144  13.121
19523W        W86306  13.162   9.732  11.506
19524W        W86307   3.179   0.142   2.828
19525W        W86308   5.922   3.613   4.252
19526W        W86309  27.540   1.511   4.300
19527W        W86310   3.831  17.007  13.209
19528W        W86311  41.536  23.784  14.547
19529W        W86312  35.018   3.427  10.273
19530W        W86313  39.207  39.983   4.529
19531W        W86314  19.772  27.546  13.868
19532W        W86315  35.598   0.296  12.180
19533W        W86316   0.088  27.990  10.520
19534W        W86317  23.751   8.134   1.153
19535W        W86318  42.635  16.457   4.968
19536W        W86319   6.353  15.964   3.587
19537W        W86320  21.459  35.975  13.044
19538W        W86321   7.873  43.223   2.225
19539W        W86322   1.499   2.982   0.488
19540W        W86323  33.918  23.941  14.163
19541W        W86324  38.492  12.341   1.750
19542W        W86325  36.444  38.607  10.546
19543W        W86326  32.453  11.861   3.601
19544W        W86327  33.677  43.985   2.402
19545W        W86328  38.131  20.753   4.723
19546W        W86329  26.204  12.188  12.964
19547W        W86330   4.137  32.421   0.086
19548W        W86331  25.100  38.360   2.822
19549W        W86332  38.014  41.068   3.411
19550W        W86333  44.625  10.931   0.760
19551W        W86334  34.712  13.089   4.588
19552W        W86335  35.814  42.044  12.933
19553W        W86336  25.700   1.886   4.568
19554W        W86337  21.523  16.646   1.935
19555W        W86338  33.558  32.565  12.320
19556W        W86339   1.683  17.304   3.609
19557W        W86340   6.486  12.904   2.579
19558W        W86341  15.375  28.606   2.269
19559W        W86342  14.259  40.964  13.997
19560W        W86343  15.734  32.845   2.037
19561W        W86344  12.710  23.298  13.983
19562W        W86345  35.494  31.995  14.962
19563W        W86346  38.051  14.721  13.372
19564W        W86347   3.853   0.819   3.244
19565W        W86348  14.359  24.151  13.983
19566W        W86349  43.897  41.706  13.081
19567W        W86350  35.449   8.815   2.615
19568W        W86351  21.072  18.003  14.323
19569W        W86352  36.672  41.538   3.634
19570W        W86353  19.932  33.092  11.114
19571W        W86354  25.103  37.784   1.406
19572W        W86355  12.333  28.153  14.422
19573W        W86356  32.167  30.410   2.411
19574W        W86357  42.160  20.161   2.464
19575W        W86358   4.232  13.367   4.766
19576W        W86359  28.080   9.215  11.605
19577W        W86360   2.371   8.803  13.367
19578W        W86361  14.359  38.485  12.495
19579W        W86362  14.826  35.474  11.979
19580W        W86363  40.805   7.567   0.975
19581W        W86364  15.256   8.417   3.670
19582W        W86365  43.697  19.786   3.584
19583W        W86366  39.033  25.473   0.559
19584W        W86367  24.663   1.366   0.028
19585W        W86368   5.788  19.997  13.879
19586W        W86369  37.160  35.715   4.316
19587W        W86370  25.660  23.564  13.289
19588W        W86371  29.017  40.025  10.982
19589W        W86372   5.902  40.754   0.301
19590W        W86373  24.761   6.296  10.989
19591W        W86374  44.395  17.987  10.523
19592W        W86375  24.680  24.366  13.140
19593W        W86376  42.465  18.163  14.039
19594W        W86377  22.273   9.773  14.500
19595W        W86378   8.114  31.030  13.091
19596W        W86379  39.572  41.597   0.304
19597W        W86380  33.540  19.950   3.959
19598W        W86381  10.251  37.441  14.305
19599W        W86382  30.380  38.147   3.754
19600W        W86383  42.737  37.301   4.062
19601W        W86384  34.998  43.284   1.425
19602W        W86385  34.177  22.115   4.553
19603W        W86386  16.630  32.392   0.213
19604W        W86387  34.346  21.164  14.240
19605W        W86388  14.883  18.289  11.712
19606W        W86389  22.502  43.478   1.372
19607W        W86390   8.240  21.998  13.503
19608W        W86391  20.743  21.029   0.995
19609W        W86392  40.391  42.381   1.421
19610W        W86393  10.333  31.726  14.828
19611W        W86394  27.430  29.906   3.183
19612W        W86395  40.275  39.463  11.363
19613W        W86396  33.627  36.393   0.394
19614W        W86397  30.084  30.390  13.087
19615W        W86398   3.828   3.942  11.027
19616W        W86399  17.032  32.674   3.569
19617W        W86400   7.440   6.534  13.961
19618W        W86401  21.422  17.565  10.748
19619W        W86402  14.249  40.449  11.012
19620W        W86403  21.482  34.502   0.765
19621W        W86404   4.300  20.767   3.098
19622W        W86405  44.874  23.456   1.422
19623W        W86406  10.797  33.588  13.944
19624W        W86407  18.941   1.898  10.247
19625W        W86408   1.163  34.721  11.824
19626W        W86409  23.171  38.521   4.387
19627W        W86410  38.853  20.978   1.014
19628W        W86411  13.870  35.440  13.803
19629W        W86412  10.122  15.882  12.910
19630W        W86413  42.002  19.037   2.658
19631W        W86414  31.659  13.026   2.905
19632W        W86415  25.813  42.151  11.003
19633W        W86416   9.812  11.043   2.166
19634W        W86417  23.248  39.470  12.038
19635W        W86418   1.155  40.209   1.745
19636W        W86419  35.357  42.518  14.103
19637W        W86420  12.766  34.331   1.289
19638W        W86421  42.319   5.325  11.191
19639W        W86422   8.221  12.041   2.474
19640W        W86423  40.925  38.347   3.082
19641W        W86424  40.005  27.115   0.305
19642W        W86425   9.630  34.509  14.811
19643W        W86426  11.948  29.776   2.853
19644W        W86427  13.314  18.234   5.060
19645W        W86428   8.273  34.304   2.147
19646W        W86429  37.605  35.137   3.335
19647W        W86430  11.202  17.831  10.901
19648W        W86431   1.084  32.021  14.408
19649W        W86432  10.177  30.722  13.924
19650W        W86433  29.862  11.817  12.091
19651W        W86434  28.968  17.038  11.645
19652W        W86435  21.700  19.452   2.155
19653W        W86436  18.715  36.398  12.324
19654W        W86437  38.472  21.530  11.459
19655W        W86438  13.091   0.321   2.909
19656W        W86439  33.107  41.534   2.231
19657W        W86440  38.630  26.240   3.299
19658W        W86441  31.566   1.008   2.453
19659W        W86442  28.700  33.604   1.156
19660W        W86443  20.694  14.076   1.939
19661W        W86444  34.347  29.202   2.741
19662W        W86445  37.143  17.755  12.403
19663W        W86446  40.458   8.348   1.299
19664W        W86447  25.003  17.768  11.705
19665W        W86448  16.152  29.655  12.628
19666W        W86449   1.724   7.541   2.772
19667W        W86450   6.646  17.539  12.451
19668W        W86451  37.816  10.506   2.631
19669W        W86452   7.098  41.925   0.083
19670W        W86453  42.859  39.464  11.996
19671W        W86454  25.016  37.292  14.421
19672W        W86455  24.546   9.571   0.738
19673W        W86456  17.109  26.470   0.487
19674W        W86457  25.920   5.399   2.090
19675W        W86458  26.613  12.648   1.003
19676W        W86459  12.601  22.269   2.950
19677W        W86460  21.602  32.348  11.684
19678W        W86461  24.642  41.470  11.065
19679W        W86462  21.284   9.081   2.628
19680W        W86463   5.357  35.854  11.588
19681W        W86464  31.372  22.135  13.866
19682W        W86465   1.025  11.967   4.548
19683W        W86466  31.168  19.077   2.361
19684W        W86467  18.340  33.835   1.439
19685W        W86468  14.965  39.450   5.319
19686W        W86469  41.754   1.795   2.788
19687W        W86470  11.688  33.997   2.279
19688W        W86471  25.226  39.489   3.632
19689W        W86472  12.405  11.195  10.802
19690W        W86473  37.440   0.050  14.486
19691W        W86474  34.991  26.029  11.586
19692W        W86475  19.452   2.378   1.341
19693W        W86476  37.774  36.876  11.412
19694W        W86477  13.351  36.449  11.835
19695W        W86478   1.111  35.574   2.891
19696W        W86479   5.858  43.724  13.483
19697W        W86480  44.781  31.968  13.450
19698W        W86481  19.567  43.434  14.792
19699W        W86482   6.149  25.328  11.177
19700W        W86483  20.703   7.905   1.586
19701W        W86484  16.803  16.174  13.570
19702W        W86485   7.224   1.749  11.127
19703W        W86486  12.779  27.958  12.847
19704W        W86487  25.085  35.357   0.693
19705W        W86488  39.804  40.244  10.530
19706W        W86489  20.697  16.611   0.666
19707W        W86490  41.500  22.651   4.176
19708W        W86491  36.726   9.784  11.564
19709W        W86492  23.125  24.420   3.208
19710W        W86493   8.636  31.908  13.502
19711W        W86494  13.965  19.515  13.690
19712W        W86495  24.562  12.703   3.263
19713W        W86496   6.612   6.097  12.526
19714W        W86497  34.980  21.258  13.050
19715W        W86498  19.370  22.030  12.032
19716W        W86499  26.908   5.907  10.815
19717W        W86500  33.164   7.885  12.118
19718W        W86501   3.332  41.957   1.180
19719W        W86502   8.840   8.640  11.123
19720W        W86503  44.219   5.773   0.434
19721W        W86504  34.115  18.709  11.115
19722W        W86505  34.097  13.759  11.462
19723W        W86506  43.304  40.796   3.722
19724W        W86507  29.946  30.945  11.987
19725W        W86508  44.511  37.537   3.064
19726W        W86509  26.969  17.628  14.347
19727W        W86510  16.419  26.719   2.637
19728W        W86511  39.951  18.270  14.823
19729W        W86512  30.544  28.534  12.227
19730W        W86513  10.160   9.849   0.871
19731W        W86514  23.693  28.999   1.318
19732W        W86515  36.279   7.343   1.361
19733W        W86516  13.585  29.406  13.190
19734W        W86517  30.171   0.979   3.754
19735W        W86518  14.572  20.501   1.424
19736W        W86519  29.654  28.424   0.196
19737W        W86520   8.746   8.005  14.816
19738W        W86521  34.922   5.534  13.757
19739W        W86522  11.507  20.467   2.592
19740W        W86523   8.714   0.571  12.584
19741W        W86524  17.992  19.156   1.474
19742W        W86525   6.483  40.679  11.836
19743W        W86526  25.462  38.322   4.095
19744W        W86527  23.229  10.707  11.345
19745W        W86528  12.891   0.585   0.633
19746W        W86529   6.440  42.968   1.474
19747W        W86530   1.788  13.063  12.641
19748W        W86531  34.642  24.849   5.049
19749W        W86532  37.979  43.997   3.475
19750W        W86533  24.614  27.168  13.757
19751W        W86534  17.903   2.216   2.757
19752W        W86535  14.674   9.322  14.960
19753W        W86536  36.539  14.372  12.447
19754W        W86537  19.989  25.687   4.199
19755W        W86538  11.692  38.065  10.629
19756W        W86539  44.071  10.205  10.684
19757W        W86540  33.437  37.585   4.569
19758W        W86541  20.608   2.353  12.348
19759W        W86542   8.890  44.439   2.195
19760W        W86543  17.995   4.969   0.366
19761W        W86544  42.032  35.329  12.805
19762W        W86545  42.327  42.557  13.040
19763W        W86546  17.946  32.406  10.706
19764W        W86547  14.567  33.190   1.164
19765W        W86548  13.638  32.361  14.971
19766W        W86549  31.804  11.850   4.548
19767W        W86550  28.181  42.341  11.106
19768W        W86551  19.698  40.010   0.041
19769W        W86552  21.570  23.058   0.966
19770W        W86553  22.989  40.478   0.945
19771W        W86554  18.629  26.634   2.452
19772W        W86555  44.903  17.210  10.152
19773W        W86556  10.523  38.301  14.778
19774W        W86557  43.019  32.318  10.497
19775W        W86558  22.530   7.278   2.448
19776W        W86559   6.406  43.879   4.588
19777W        W86560  10.430  17.597   1.723
19778W        W86561   7.745  10.347  11.753
19779W        W86562  34.536  33.283   1.285
19780W        W86563  40.520  12.501   1.443
19781W        W86564   3.883  37.949  12.423
19782W        W86565  12.698   4.935   0.047
19783W        W86566  40.043  41.465   0.487
19784W        W86567   0.008  10.681   1.119
19785W        W86568  42.866  20.590   0.032
19786W        W86569   0.426  40.072  14.842
19787W        W86570  20.514  23.702  10.729
19788W        W86571  28.606  20.565   4.603
19789W        W86572  12.198   1.204  13.763
19790W        W86573  33.650  30.390  11.094
19791W        W86574  32.332  13.901   1.381
19792W        W86575  20.793  44.111  12.300
19793W        W86576  37.004  24.669  11.133
19794W        W86577   3.523  11.798  12.505
19795W        W86578   4.431  38.387  12.281
19796W        W86579   7.886   0.617  14.075
19797W        W86580  17.137  19.767   2.374
19798W        W86581  38.384   3.838  12.618
19799W        W86582  17.796   7.664  12.352
19800W        W86583  17.641  36.325  11.108
19801W        W86584  20.477  36.550  11.567
19802W        W86585  37.497  38.304   4.709
19803W        W86586  28.483  14.075   3.282
19804W        W86587  29.735  13.724  13.953
19805W        W86588  33.480  14.894  12.945
19806W        W86589  23.583   6.204   5.488
19807W        W86590  12.234  18.526   3.464
19808W        W86591  13.681  31.860  14.945
19809W        W86592  34.820  18.734   1.281
19810W        W86593  29.096  32.382   0.952
19811W        W86594  41.978  18.138   2.937
19812W        W86595  30.823  31.275  11.581
19813W        W86596  13.652  21.085  10.249
19814W        W86597  27.302  14.808   4.078
19815W        W86598  29.250  15.502   0.405
19816W        W86599  11.398  29.426  11.624
19817W        W86600  31.361   5.825  13.847
19818W        W86601   8.302  37.621  13.486
19819W        W86602   2.931  42.957   3.178
19820W        W86603  20.051   2.246  14.918
19821W        W86604  12.032   3.160  11.031
19822W        W86605   5.271   2.478  11.652
19823W        W86606  23.680  11.620  12.191
19824W        W86607  35.791  41.380  13.598
19825W        W86608  10.418   2.895   0.487
19826W        W86609  22.737  38.838   3.387
19827W        W86610  12.352   2.704   2.832
19828W        W86611  42.585   0.968   4.143
19829W        W86612  32.676  37.832  11.460
19830W        W86613  34.869  43.280  14.601
19831W        W86614  35.511   8.853  13.000
19832W        W86615   0.826  36.482  13.088
19833W        W86616  16.757  34.635   1.424
19834W        W86617  16.682  36.041   1.354
19835W        W86618  26.633  22.118  12.615
19836W        W86619  38.012   9.083   5.004
19837W        W86620  16.507  22.154   3.239
19838W        W86621  40.874  32.440   4.608
19839W        W86622  24.397   9.220   3.483
19840W        W86623  41.420  20.734   0.940
19841W        W86624  23.513  13.854   4.630
19842W        W86625  32.216  43.101   0.898
19843W        W86626  27.195  35.820  13.992
19844W        W86627  31.923  28.640   2.099
19845W        W86628  18.048   1.823   3.865
19846W        W86629  30.936  36.303  12.480
19847W        W86630  37.049  33.647   2.771
19848W        W86631   3.683   9.134   2.671
19849W        W86632   3.450  29.559  13.632
19850W        W86633  43.512   3.747  13.973
19851W        W86634  10.641  20.021  11.107
19852W        W86635  20.306   0.856   3.885
19853W        W86636  43.608  10.022   5.437
19854W        W86637  42.020  26.149   4.434
19855W        W86638  33.636  41.576   2.266
19856W        W86639  44.970  42.471   2.389
19857W        W86640  12.737  10.729  14.427
19858W        W86641  36.938  34.205  13.353
19859W        W86642  42.328  19.727   0.799
19860W        W86643  13.309   5.833   0.085
19861W        W86644  26.127  27.525   1.260
19862W        W86645  40.015  30.206  10.496
19863W        W86646  37.870  22.080  14.238
19864W        W86647  39.797   6.829  12.417
19865W        W86648  33.918  33.594  14.362
19866W        W86649   4.781  32.287  10.045
19867W        W86650   1.663  34.039  12.808
19868W        W86651  23.586  12.911   0.875
19869W        W86652  23.199  44.091   3.761
19870W        W86653   9.079  16.072  13.897
19871W        W86654  24.594  39.540   1.401
19872W        W86655  15.312  16.775  11.907
19873W        W86656  19.696   0.862   4.631
19874W        W86657  43.371  20.111   0.902
19875W        W86658  21.192   0.179  11.061
19876W        W86659  14.342  28.216   4.087
19877W        W86660  33.783   7.466   3.642
19878W        W86661   7.419  27.567   1.757
19879W        W86662  10.743  42.028  10.839
19880W        W86663   9.491  17.770   0.852
19881W        W86664  15.845  39.525  11.505
19882W        W86665  42.954  42.855   4.121
19883W        W86666  35.277  24.198  13.440
19884W        W86667   6.848  21.396  13.314
19885W        W86668  23.262  31.716  14.278
19886W        W86669  21.332  23.668  11.278
19887W        W86670   9.255  24.550  11.760
19888W        W86671  28.375  44.282   4.522
19889W        W86672  19.133  44.770  11.826
19890W        W86673  14.372  21.135  14.122
19891W        W86674  34.363   5.455  10.622
19892W        W86675   5.647  10.713   3.198
19893W        W86676  35.848  20.073   2.138
19894W        W86677   2.476   4.527   9.993
19895W        W86678  11.336  10.627   1.279
19896W        W86679  32.912   9.965  13.905
19897W        W86680  16.213   7.914   4.365
19898W        W86681  15.803   1.889   1.655
19899W        W86682  40.348  28.187  12.930
19900W        W86683  40.106  27.225  13.484
19901W        W86684  28.953  35.851  11.623
19902W        W86685  37.057  34.014   1.619
19903W        W86686  38.356  31.497   1.787
19904W        W86687   2.898  29.067  11.575
19905W        W86688  21.962  17.199  14.030
19906W        W86689  13.054  34.501   3.752
19907W        W86690  37.972  34.470   4.711
19908W        W86691  28.567  18.165  14.490
19909W        W86692  14.709  17.270   0.305
19910W        W86693   6.861  10.773   3.644
19911W        W86694  15.545   5.941   2.895
19912W        W86695  24.670   6.263  11.544
19913W        W86696  39.510   2.543   1.221
19914W        W86697  15.271   9.751   4.074
19915W        W86698  25.328   0.754   2.756
19916W        W86699  27.640  32.621  11.589
19917W        W86700  31.170  43.906   2.734
19918W        W86701   8.920  22.479   4.721
19919W        W86702  10.719  17.089  14.100
19920W        W86703  26.394  28.949  11.552
19921W        W86704   2.008  39.094  11.816
19922W        W86705  31.508   9.403  12.133
19923W        W86706   4.844  23.117  14.129
19924W        W86707  29.742  12.731  11.071
19925W        W86708  24.220  37.940   0.852
19926W        W86709  30.468  44.919   3.880
19927W        W86710   0.319  12.226   0.874
19928W        W86711  41.193  21.705   4.341
19929W        W86712  21.419  34.690  10.698
19930W        W86713   4.537  22.314   4.094
19931W        W86714   6.984  13.603   2.594
19932W        W86715   0.699   6.072  14.278
19933W        W86716  34.882  10.897  13.504
19934W        W86717   4.252  35.613  11.164
19935W        W86718   8.185  10.388   1.670
19936W        W86719  38.073  14.861   1.856
19937W        W86720  38.622  36.010   4.995
19938W        W86721  25.700  27.779   1.480
19939W        W86722  42.847  18.594  13.550
19940W        W86723   4.944  40.782   1.804
19941W        W86724  14.617  39.431   2.281
19942W        W86725  29.849  29.522  12.426
19943W        W86726  14.253  16.136   4.260
19944W        W86727   1.329  14.710   3.173
19945W        W86728  43.475  34.336  11.608
19946W        W86729   4.310   4.212  11.244
19947W        W86730   6.356  34.340  10.865
19948W        W86731   1.417  20.087   3.642
19949W        W86732   8.170  15.820   4.340
19950W        W86733  20.085  25.974  14.530
19951W        W86734  44.415  20.965   4.082
19952W        W86735   0.398   5.323  12.771
19953W        W86736  41.711  33.069  13.486
19954W        W86737  36.086  40.246  11.097
19955W        W86738  17.069   1.821  12.224
19956W        W86739  40.529  26.641  10.951
19957W        W86740   5.482  31.583   3.212
19958W        W86741  34.505  21.319  13.288
19959W        W86742   1.167  33.638   0.306
19960W        W86743  38.341  30.454   0.765
19961W        W86744   0.745  31.035   4.145
19962W        W86745  21.757  35.596   5.000
19963W        W86746  44.253  35.814   3.878
19964W        W86747  37.010  38.298  12.972
19965W        W86748  35.178  25.507   4.004
19966W        W86749  35.429  35.295  11.481
19967W        W86750  31.911   5.137  10.193
19968W        W86751  31.536  13.762   2.205
19969W        W86752  28.413  13.821  12.575
19970W        W86753  31.433   2.730   3.385
19971W        W86754  13.958  10.577   4.497
19972W        W86755   9.717  14.335  13.041
19973W        W86756  23.176   9.101   2.889
19974W        W86757  39.969  12.346  13.445
19975W        W86758  13.601  16.178   4.727
19976W        W86759   8.332  30.181   1.155
19977W        W86760  26.679  12.191  14.810
19978W        W86761   4.468  25.287   2.903
19979W        W86762  27.440  18.557   1.807
19980W        W86763  36.374  43.103  14.023
19981W        W86764  23.772   6.262  11.011
19982W        W86765   2.181  42.615  13.994
19983W        W86766  11.676  33.378  11.685
19984W        W86767  27.265  44.109   5.580
19985W        W86768   8.381  23.546   2.905
19986W        W86769   4.017  44.586  12.985
19987W        W86770  32.490  34.900  14.942
19988W        W86771  41.680  43.687  12.414
19989W        W86772  15.866  27.439   3.642
19990W        W86773  13.713  29.374  11.569
19991W        W86774   2.229   8.821  11.535
19992W        W86775  28.061  31.882  11.248
19993W        W86776  37.471  29.476   3.696
19994W        W86777  10.697  44.415  14.092
19995W        W86778  23.021  28.950  11.997
19996W        W86779  30.559  34.527  12.885
19997W        W86780   5.667  33.562  13.639
19998W        W86781  10.592  41.540  12.451
19999W        W86782  21.509  11.709   1.878
20000W        W86783   1.528  18.417   3.372
20001W        W86784   6.384  29.671   1.222
20002W        W86785  12.778  27.963   0.324
20003W        W86786   1.361  40.409   4.382
20004W        W86787   6.139  29.187   2.700
20005W        W86788  31.848  21.995   4.977
20006W        W86789   9.501  22.336  14.709
20007W        W86790  31.221  13.120   3.183
20008W        W86791  10.631  39.301  14.475
20009W        W86792  22.993   6.332   2.718
20010W        W86793  18.044  38.419   2.681
20011W        W86794  14.122  34.500  14.823
20012W        W86795   4.635  13.246   2.140
20013W        W86796  16.585   2.731   4.019
20014W        W86797  33.802  12.815  14.649
20015W        W86798  34.612  15.686   3.724
20016W        W86799   5.152   0.482   3.272
20017W        W86800  42.000   7.229   3.298
20018W        W86801  14.667  21.193  11.225
20019W        W86802  23.166  33.990  14.012
20020W        W86803  19.210  32.067  11.866
20021W        W86804  18.231  41.554   3.677
20022W        W86805  14.658   4.778  10.738
20023W        W86806   0.918   6.856  12.232
20024W        W86807  16.857  30.513   4.230
20025W        W86808  30.404  38.908  10.502
20026W        W86809  14.613   0.145  14.281
20027W        W86810   2.155  17.911   1.273
20028W        W86811  26.244  18.764  12.064
20029W        W86812  22.160  15.382  14.383
20030W        W86813  40.031  10.673   3.177
20031W        W86814  20.564  13.696   3.221
20032W        W86815  11.271  12.377  11.267
20033W        W86816   8.722  34.598   4.223
20034W        W86817   0.806  12.681   3.378
20035W        W86818  24.930  13.249  11.065
20036W        W86819   1.942  32.620   4.764
20037W        W86820  18.190  11.563   0.972
20038W        W86821  20.155  27.696  12.408
20039W        W86822  13.076  24.918   5.116
20040W        W86823  37.323  21.756   0.343
20041W        W86824  31.885  32.108  12.532
20042W        W86825  33.504   5.122   4.689
20043W        W86826  42.449   1.936   2.142
20044W        W86827  18.423  12.880  10.158
20045W        W86828  35.135  10.953   2.923
20046W        W86829  38.980  30.325   4.994
20047W        W86830  44.399  21.988  10.045
20048W        W86831  23.875  44.365  12.503
20049W        W86832  35.927   0.484   3.411
20050W        W86833   4.787  14.268   0.840
20051W        W86834  34.392  35.687   0.882
20052W        W86835  14.167  12.122  11.503
20053W        W86836  28.894  44.238   1.750
20054W        W86837   0.227  37.992   3.168
20055W        W86838  37.458  22.971  14.092
20056W        W86839  41.601   0.892   3.761
20057W        W86840  33.534  24.924  14.874
20058W        W86841  25.743  11.715   1.960
20059W        W86842  43.797   1.132   1.280
20060W        W86843  19.466  23.455  10.714
20061W        W86844  13.381  10.486  10.185
20062W        W86845  32.176  42.522   4.144
20063W        W86846  43.544  17.772  11.951
20064W        W86847  11.730   5.443   4.593
20065W        W86848  23.299  16.218  11.252
20066W        W86849   0.556  36.966  14.976
20067W        W86850  31.670  37.957   3.230
20068W        W86851  24.954  25.624  10.836
20069W        W86852  14.240  44.997   2.361
20070W        W86853  14.413  23.862   3.230
20071W        W86854  22.752   9.673  10.945
20072W        W86855  32.624  36.314  14.558
20073W        W86856  39.145  22.015   2.240
20074W        W86857  41.374   6.225  14.066
20075W        W86858  22.195  44.568  11.199
20076W        W86859  30.813   0.003   1.373
20077W        W86860  19.691  13.353   1.260
20078W        W86861   9.726  27.615  12.436
20079W        W86862  34.055  23.615  11.913
20080W        W86863  38.568  17.252   4.215
20081W        W86864   2.883   7.150  14.461
20082W        W86865  20.289   0.517  13.957
20083W        W86866  38.368   4.162   2.471
20084W        W86867  31.805  32.497  11.050
20085W        W86868   1.769  38.260   4.120
20086W        W86869  42.401  20.684   3.108
20087W        W86870  14.779  44.917  10.793
20088W        W86871   9.620  13.893   1.723
20089W        W86872  40.425   6.807  12.197
20090W        W86873  41.984  44.850  12.122
20091W        W86874  33.497  36.645   1.270
20092W        W86875  24.524  13.283  12.125
20093W        W86876  20.558  10.166  14.588
20094W        W86877  43.055  26.520   0.382
20095W        W86878  35.918  18.770  13.878
20096W        W86879   8.758  11.925  11.593
20097W        W86880  26.704  22.014   2.584
20098W        W86881  28.538  10.850   3.607
20099W        W86882   1.074  24.956   2.684
20100W        W86883  29.162  38.282   1.304
20101W        W86884  22.540   4.738   0.697
20102W        W86885  22.784  27.482   1.318
20103W        W86886  32.997  37.739  11.861
20104W        W86887  38.448  41.345   0.311
20105W        W86888  15.545  18.961   2.687
20106W        W86889  35.910  16.371   4.613
20107W        W86890  23.965  16.604   0.403
20108W        W86891  25.395  32.729  13.402
20109W        W86892  12.260  25.546   3.980
20110W        W86893  21.021  27.398   2.686
20111W        W86894  17.575  30.142  14.323
20112W        W86895  13.190  10.866   1.172
20113W        W86896  25.483  23.588  14.354
20114W        W86897  16.654  41.520  14.511
20115W        W86898  19.552  25.090   2.899
20116W        W86899  20.063   3.188   3.193
20117W        W86900  32.031   1.021   2.268
20118W        W86901  43.105  44.265  14.042
20119W        W86902  12.041  21.314  10.701
20120W        W86903  21.796  42.518  11.041
20121W        W86904  26.065  44.958   3.172
20122W        W86905  19.797  20.221   4.170
20123W        W86906  34.492  37.471   0.484
20124W        W86907  31.013  31.690  14.476
20125W        W86908  18.155  34.598   0.160
20126W        W86909  40.847  28.120  12.034
20127W        W86910   4.788  20.757   2.901
20128W        W86911  39.772  10.693  10.305
20129W        W86912   6.085  35.931   1.836
20130W        W86913  44.492  16.222  14.411
20131W        W86914  41.951  23.853   1.697
20132W        W86915  10.421  29.584   2.497
20133W        W86916   8.904   6.409   2.297
20134W        W86917  21.444  17.154   4.101
20135W        W86918  29.608  30.379  13.407
20136W        W86919  11.265  16.092   0.019
20137W        W86920   7.328  36.499   3.912
20138W        W86921  43.565   0.478  12.504
20139W        W86922   5.214  12.161  10.383
20140W        W86923  39.570  33.397   3.246
20141W        W86924  24.010  24.075   1.309
20142W        W86925  31.071  38.885  12.425
20143W        W86926  15.722  27.850   0.889
20144W        W86927  28.244  35.420  10.840
20145W        W86928  32.640  21.993  11.708
20146W        W86929  20.783  30.529   2.316
20147W        W86930  26.315  20.053  13.633
20148W        W86931  37.788  41.874  14.560
20149W        W86932  35.155  28.091   0.553
20150W        W86933  20.317  12.767   4.598
20151W        W86934   1.842  26.193   1.840
20152W        W86935  37.491  39.191   3.555
20153W        W86936  38.362  10.087  12.948
20154W        W86937  21.022   8.753   1.702
20155W        W86938  17.796   1.378   4.431
20156W        W86939  37.600  34.140  13.025
20157W        W86940  10.176  14.785  10.471
20158W        W86941  31.080  22.773  11.783
20159W        W86942  32.329  43.378  11.034
20160W        W86943  19.679  26.141  13.245
20161W        W86944  16.998  29.096  11.279
20162W        W86945   9.007  17.104  13.992
20163W        W86946  44.697   1.354   4.092
20164W        W86947   8.301   8.907  13.892
20165W        W86948  16.051  23.129   2.275
20166W        W86949  41.741   7.197   2.527
20167W        W86950   6.400  41.400   4.599
20168W        W86951  21.825   7.197   0.417
20169W        W86952  40.799  17.081   1.369
20170W        W86953   3.996  35.528  12.486
20171W        W86954  12.656  43.838   4.110
20172W        W86955  44.298  27.468  10.735
20173W        W86956  30.962  42.892   3.266
20174W        W86957  24.913  23.092   3.243
20175W        W86958  32.813  37.620  14.948
20176W        W86959  16.364  39.364   2.431
20177W        W86960  34.003   4.350   4.886
20178W        W86961  29.042  34.887  14.308
20179W        W86962   7.877  13.069  13.045
20180W        W86963  27.865  29.644   3.997
20181W        W86964   9.251  20.178   0.742
20182W        W86965   5.340  28.577   0.223
20183W        W86966  21.038  38.091   4.043
20184W        W86967   7.773  39.824  10.405
20185W        W86968  26.696  19.934  13.281
20186W        W86969  32.126  10.344  13.038
20187W        W86970   4.966   9.888   4.072
20188W        W86971  25.303  17.723  13.309
20189W        W86972   1.473   9.335   3.090
20190W        W86973  35.083  36.707  14.802
20191W        W86974  23.502   5.252   1.909
20192W        W86975  24.054  31.080  13.289
20193W        W86976  35.523  19.940  12.976
20194W        W86977  38.130  18.659   4.747
20195W        W86978  42.499   6.526   2.302
20196W        W86979   8.686  38.949  11.173
20197W        W86980  26.476  22.757   0.488
20198W        W86981  27.179  33.994  12.247
20199W        W86982  13.378   9.676  12.377
20200W        W86983  14.046  27.997   1.103
20201W        W86984   0.427  44.347  12.561
20202W        W86985   3.587  21.972   3.305
20203W        W86986   8.649  24.998  14.610
20204W        W86987  29.092   1.050  13.549
20205W        W86988   3.903  11.360   4.573
20206W        W86989  31.490  17.800  14.877
20207W        W86990  42.053  42.822  14.697
20208W        W86991  43.368  42.072  11.122
20209W        W86992  13.230  42.065  12.348
20210W        W86993  21.741  25.570  11.934
20211W        W86994   9.738  43.551  14.893
20212W        W86995  29.813  36.061   0.059
20213W        W86996  27.628  18.068   4.194
20214W        W86997  29.156  16.321  12.581
20215W        W86998  39.542  32.692  12.067
20216W        W86999  35.484  34.846  14.238
20217W        W87000   2.287  10.290  14.841
20218W        W87001   2.898   6.645   4.633
20219W        W87002  43.280  10.718   5.046
20220W        W87003  20.623  38.082   3.244
20221W        W87004  30.936  26.009   0.901
20222W        W87005  15.213  43.185  14.939
20223W        W87006  26.121   9.802  13.887
20224W        W87007  24.779   8.108   4.579
20225W        W87008   3.369  35.324   0.854
20226W        W87009   5.395  42.480   1.221
20227W        W87010  22.598  22.173  11.469
20228W        W87011  44.643  23.310  14.770
20229W        W87012  21.024  20.226   4.695
20230W        W87013  44.366  12.024  12.889
20231W        W87014  40.802  14.907   2.384
20232W        W87015  36.402   5.518   0.191
20233W        W87016  27.174   1.474   0.514
20234W        W87017   8.806  24.779   0.465
20235W        W87018  39.169  27.527   4.769
20236W        W87019  19.546   7.151  14.026
20237W        W87020  12.503  36.479   1.229
20238W        W87021   2.829  20.621   4.193
20239W        W87022  15.047  17.349  11.998
20240W        W87023  26.169   1.418  10.627
20241W        W87024  33.077  42.268  12.488
20242W        W87025  41.410  43.264  14.342
20243W        W87026  20.659  23.375  11.089
20244W        W87027  42.297  24.856   2.702
20245W        W87028  24.240  22.613  14.516
20246W        W87029  11.250  20.615   4.949
20247W        W87030   0.426  14.104   2.303
20248W        W87031  28.514   8.650  14.506
20249W        W87032  34.583  40.956   1.265
20250W        W87033  42.655  24.610   0.866
20251W        W87034  33.864  11.260  11.096
20252W        W87035   7.764  44.073  14.663
20253W        W87036  25.291   3.403   2.897
20254W        W87037   4.332  35.805  14.350
20255W        W87038  37.928  37.926  12.208
20256W        W87039  15.285  33.632  11.565
20257W        W87040  27.695  15.889  11.412
20258W        W87041  37.855  35.278  14.298
20259W        W87042   6.994  18.578  11.489
20260W        W87043   1.226  13.983   0.150
20261W        W87044   7.155  12.677  12.991
20262W        W87045  14.575  23.840  11.476
20263W        W87046  36.772  37.866   2.162
20264W        W87047  29.607  11.753  14.290
20265W        W87048   5.786   6.741   3.668
20266W        W87049  43.246  13.860   2.678
20267W        W87050  20.790   1.741  10.548
20268W        W87051  28.563  19.721  12.647
20269W        W87052  12.088  38.058   3.170
20270W        W87053  24.596  14.128  12.430
20271W        W87054   5.377  16.203   3.150
20272W        W87055  22.903  41.935   0.483
20273W        W87056  16.683  19.046   2.278
20274W        W87057   0.028   6.464  11.539
20275W        W87058  23.210  16.588  13.409
20276W        W87059  16.269   3.836  10.670
20277W        W87060   0.523  40.588  14.938
20278W        W87061  17.809   9.851   2.235
20279W        W87062   8.711   9.039  10.809
20280W        W87063  33.587  30.008   2.999
20281W        W87064  44.910  39.987  11.605
20282W        W87065  43.079  27.222   1.299
20283W        W87066   7.478  23.260   2.609
20284W        W87067  39.645  14.304   3.221
20285W        W87068  29.896  24.198  10.472
20286W        W87069  18.296  34.779   4.120
20287W        W87070  19.932   4.943   0.338
20288W        W87071  18.272  27.078  13.100
20289W        W87072   7.038  30.385   4.247
20290W        W87073  19.209   5.840  11.121
20291W        W87074  23.765  22.784  14.753
20292W        W87075  20.301   8.173   1.810
20293W        W87076   0.961   1.715  14.540
20294W        W87077  43.380   7.973  13.371
20295W        W87078  20.644   8.922  14.015
20296W        W87079   1.170  10.177   0.597
20297W        W87080  19.172  19.568   4.349
20298W        W87081  34.007  33.402   4.203
20299W        W87082  16.074  11.089   0.456
20300W        W87083  24.059  32.819  14.896
20301W        W87084  17.643  27.513   1.934
20302W        W87085   4.213  23.981  14.326
20303W        W87086  27.754  44.203   3.904
20304W        W87087  43.865   8.429  13.755
20305W        W87088  25.266  42.290  13.410
20306W        W87089  27.582  24.118  14.066
20307W        W87090  23.276  43.689  12.379
20308W        W87091  27.146  32.486   3.817
20309W        W87092  33.452  40.268  13.522
20310W        W87093  15.465  14.750   9.862
20311W        W87094  17.785  43.019  14.279
20312W        W87095   9.457   9.580   3.530
20313W        W87096  26.468  14.641  13.993
20314W        W87097  24.098  22.067  12.895
20315W        W87098  34.981  33.882  12.491
20316W        W87099  27.922  37.892   4.075
20317W        W87100   3.249  11.139  13.706
20318W        W87101  16.171   9.748   0.969
20319W        W87102  18.212  33.393  11.606
20320W        W87103  44.140  26.489   4.488
20321W        W87104  37.500   9.157  11.579
20322W        W87105  43.401  15.564  11.109
20323W        W87106  31.761  26.657   5.058
20324W        W87107  17.578  19.314   1.165
20325W        W87108  19.065  36.607   0.490
20326W        W87109  34.498  24.116  12.346
20327W        W87110  26.622  41.438  14.983
20328W        W87111  37.218   4.913  13.402
20329W        W87112  25.226  10.801  13.474
20330W        W87113  25.594  38.939   3.363
20331W        W87114   2.723  42.309  12.499
20332W        W87115  42.099  14.722  13.710
20333W        W87116  30.800   8.906   0.382
20334W        W87117   1.475   8.762  13.368
20335W        W87118  42.237  19.194  14.906
20336W        W87119  34.859  25.244   0.735
20337W        W87120  35.560  26.538   4.236
20338W        W87121  33.419  34.404  13.313
20339W        W87122  37.285  29.382  14.863
20340W        W87123  10.280  17.584  11.319
20341W        W87124  11.333  35.364  10.228
20342W        W87125  20.190  25.990   0.183
20343W        W87126  22.637  25.630  12.379
20344W        W87127  44.579  31.873   0.778
20345W        W87128  16.871   2.345   0.752
20346W        W87129  27.377  22.641  13.503
20347W        W87130  36.126  43.376   5.003
20348W        W87131  19.214  21.927  12.529
20349W        W87132  38.027   3.302   0.828
20350W        W87133  41.070  34.789  12.004
20351W        W87134  13.359  17.711   3.432
20352W        W87135  24.177  12.116   0.852
20353W        W87136  35.673   6.809  13.518
20354W        W87137  39.576  10.765  14.445
20355W        W87138   1.168  36.540  13.961
20356W        W87139  14.247  18.952   4.583
20357W        W87140  20.155  32.086  14.738
20358W        W87141  42.915  38.801   2.351
20359W        W87142  27.174  34.486  13.649
20360W        W87143  44.970  21.539  12.453
20361W        W87144  35.141  18.254   3.301
20362W        W87145  27.923   2.143   1.492
20363W        W87146  39.265  11.725  14.694
20364W        W87147  13.160  43.624   2.561
20365W        W87148  42.915   8.926   1.337
20366W        W87149  30.637  44.498   0.018
20367W        W87150  29.669  14.375   3.785
20368W        W87151  24.195  39.153  13.016
20369W        W87152  23.692  21.095   4.104
20370W        W87153   0.858  39.832  13.093
20371W        W87154  15.689   1.992  12.008
20372W        W87155  35.152   9.092   0.622
20373W        W87156  38.083   7.459   2.352
20374W        W87157  39.434  44.047   3.243
20375W        W87158  39.858   7.869  13.290
20376W        W87159   3.856  27.539   1.138
20377W        W87160  28.720  17.524  11.516
20378W        W87161  16.746   1.435  14.317
20379W        W87162  42.985   2.674  12.375
20380W        W87163  33.069  19.656   1.738
20381W        W87164  11.646  26.930  10.372
20382W        W87165  19.660  40.248  13.570
20383W        W87166   5.449  13.254   0.798
20384W        W87167  22.321  34.484   2.836
20385W        W87168  25.304   1.296  13.475
20386W        W87169  28.604  15.704  12.817
20387W        W87170  25.021  29.489   5.077
20388W        W87171   5.164  10.250  11.012
20389W        W87172   5.874   8.631   1.283
20390W        W87173   8.224  29.643  14.763
20391W        W87174  28.515  38.103   4.042
20392W        W87175  20.552  12.651   5.035
20393W        W87176  43.517   9.883  14.301
20394W        W87177  42.828  10.304  14.718
20395W        W87178  10.105  34.581   2.789
20396W        W87179  12.953  10.649  10.487
20397W        W87180  28.532  36.629   4.020
20398W        W87181  38.269   9.644  11.590
20399W        W87182  12.534  15.689  12.898
20400W        W87183  35.358  30.124  13.899
20401W        W87184  27.179  32.142  10.083
20402W        W87185  23.523  34.792  12.671
20403W        W87186  15.507  34.479  11.538
20404W        W87187   8.690  16.161  11.802
20405W        W87188  38.968  38.574   1.672
20406W        W87189   3.757  37.409  12.502
20407W        W87190  39.339  22.785   1.860
20408W        W87191  12.534  37.579  14.233
20409W        W87192  42.339  22.233   4.050
20410W        W87193  23.056  31.903   3.230
20411W        W87194  44.978   1.890   5.025
20412W        W87195  31.355   6.889   2.814
20413W        W87196  26.036   3.526  14.328
20414W        W87197   0.133   4.917  11.906
20415W        W87198  27.416  18.627   3.700
20416W        W87199  39.284  18.558   3.742
20417W        W87200  26.969  40.605  11.622
20418W        W87201  39.718  42.042  10.757
20419W        W87202  14.020   9.100   3.229
20420W        W87203   5.372  37.948   3.859
20421W        W87204  29.634  28.008  11.440
20422W        W87205  43.912  12.096  12.612
20423W        W87206  20.688  28.391  10.654
20424W        W87207   3.749  18.764   4.986
20425W        W87208   1.472  38.366  10.799
20426W        W87209   1.796  36.510  13.949
20427W        W87210   3.270   3.237  10.716
20428W        W87211  26.356  11.149   0.956
20429W        W87212  23.705   1.349  13.228
20430W        W87213   3.184  21.246  13.407
20431W        W87214  32.092  35.776   0.714
20432W        W87215  37.001  20.602  11.006
20433W        W87216  13.592  43.526   0.413
20434W        W87217  34.125  26.346   2.346
20435W        W87218   4.634  37.962  14.853
20436W        W87219  21.288  18.361  12.449
20437W        W87220  31.426  39.260  14.782
20438W        W87221  36.701  34.657  13.224
20439W        W87222  30.538  42.019  13.911
20440W        W87223  44.971  12.669  10.693
20441W        W87224  37.524  29.300   4.214
20442W        W87225   3.280  41.796  12.130
20443W        W87226   7.807  26.508   2.351
20444W        W87227  27.532  41.810   0.249
20445W        W87228   5.741  36.131  14.082
20446W        W87229  38.525   0.214  10.630
20447W        W87230  18.488   3.560   0.723
20448W        W87231  16.039   7.468  11.593
20449W        W87232  18.518  35.195  10.148
20450W        W87233   1.406  42.271  10.721
20451W        W87234  39.518  39.805  11.496
20452W        W87235  30.923  40.909  11.479
20453W        W87236  13.925  39.075  11.121
20454W        W87237   4.493  30.287   2.803
20455W        W87238  34.823   5.095   5.031
20456W        W87239   8.814   3.678  11.019
20457W        W87240  38.047  33.393  14.246
20458W        W87241   3.208  21.016   1.326
20459W        W87242  41.463  38.646   3.686
20460W        W87243  18.940  23.046  14.080
20461W        W87244  16.252  23.338   2.882
20462W        W87245  35.632  43.441   4.775
20463W        W87246  18.520  18.509   0.910
20464W        W87247  31.582   7.874   1.387
20465W        W87248  38.519  17.578  11.487
20466W        W87249  15.713   3.480  14.031
20467W        W87250   1.411   7.266   2.458
20468W        W87251  23.753  28.992  13.978
20469W        W87252   6.941  10.316   3.269
20470W        W87253  30.540  12.546   4.729
20471W        W87254  40.758  27.667   0.373
20472W        W87255   7.130  30.597  11.114
20473W        W87256   1.810  41.878   5.194
20474W        W87257  29.623  27.910   2.488
20475W        W87258  32.944  14.057  11.917
20476W        W87259  18.735  40.505   3.053
20477W        W87260   2.312  14.819   2.401
20478W        W87261  32.171  12.384  11.095
20479W        W87262  18.761  37.367  11.431
20480W        W87263   3.507  20.244   3.783
20481W        W87264  43.055  39.454   4.677
20482W        W87265   1.012   1.490   3.697
20483W        W87266  25.966   0.834   4.915
20484W        W87267  20.094  23.071   3.075
20485W        W87268  23.059  31.197  14.251
20486W        W87269  39.575  27.678  10.760
20487W        W87270  34.966   4.523  11.098
20488W        W87271  35.761  30.555  10.501
20489W        W87272  36.937  22.507   2.575
20490W        W87273   0.863  20.850  11.124
20491W        W87274  43.158  38.110  12.355
20492W        W87275   9.762  35.189  14.948
20493W        W87276   5.327  22.149  14.405
20494W        W87277  40.974   6.161  12.551
20495W        W87278  11.366   3.327  10.859
20496W        W87279  39.389  39.816  12.902
20497W        W87280  30.817  18.968   0.571
20498W        W87281   0.826  35.993   2.234
20499W        W87282  44.795   6.484   3.755
20500W        W87283  39.098   8.270  12.509
20501W        W87284  16.084   0.978  13.287
20502W        W87285   5.674  33.988  14.944
20503W        W87286  29.061  19.108   1.900
20504W        W87287  29.130  12.721   0.757
20505W        W87288   0.335  32.110  14.814
20506W        W87289  12.669  33.425  14.959
20507W        W87290  29.208   3.308   3.209
20508W        W87291  31.425  38.362   1.758
20509W        W87292  42.259  23.604   4.187
20510W        W87293  12.538   2.356   0.693
20511W        W87294  43.511  41.243  11.953
20512W        W87295  16.553  12.314  13.403
20513W        W87296  29.066   1.504  13.267
20514W        W87297   4.455  15.420   4.535
20515W        W87298  36.369  19.326   4.643
20516W        W87299   0.215  36.609   1.726
20517W        W87300  18.076  25.417   0.884
20518W        W87301  13.848   2.141  11.904
20519W        W87302  32.870  24.034   1.192
20520W        W87303  12.258  24.727  12.467
20521W        W87304  26.569  16.989   1.034
20522W        W87305  32.395   3.338   1.691
20523W        W87306  25.284  39.855  13.651
20524W        W87307   7.770   1.823   0.025
20525W        W87308   9.760  36.505  13.026
20526W        W87309   4.774  25.482   2.281
20527W        W87310  43.233  33.607   4.721
20528W        W87311  15.510  21.566  13.606
20529W        W87312  43.146  32.799  14.809
20530W        W87313  31.637  17.550  13.888
20531W        W87314  31.084  16.142   2.376
20532W        W87315   1.050  30.721  11.271
20533W        W87316  33.329  40.115   1.816
20534W        W87317  35.558   2.036   3.274
20535W        W87318   2.113  22.183   0.858
20536W        W87319  38.796  34.035   4.621
20537W        W87320  25.134  36.388   1.681
20538W        W87321  35.592  17.976   3.202
20539W        W87322  12.840  43.862   3.120
20540W        W87323   5.809  12.801   1.822
20541W        W87324  33.394  13.854   0.382
20542W        W87325  13.255  41.114  12.576
20543W        W87326  36.981   7.921   2.356
20544W        W87327  42.597   8.860   2.089
20545W        W87328  13.428  41.005   2.410
20546W        W87329   3.261  31.635   3.223
20547W        W87330  22.297  27.482  12.566
20548W        W87331  40.423   8.371  12.341
20549W        W87332  39.545  33.453  11.084
20550W        W87333  43.526   6.554   9.866
20551W        W87334  20.876   9.975  13.222
20552W        W87335   5.435  39.388   0.811
20553W        W87336   8.358  20.008   1.370
20554W        W87337  39.161  44.843   1.969
20555W        W87338  41.583   2.927  14.738
20556W        W87339  13.590   0.384  10.997
20557W        W87340  32.854   9.815  12.892
20558W        W87341  19.188   9.772  11.516
20559W        W87342   9.374  25.739  11.578
20560W        W87343  21.231   6.479  14.390
20561W        W87344  15.138   8.291  13.596
20562W        W87345  41.873  33.274  11.178
20563W        W87346  25.327   1.843   0.333
20564W        W87347  25.976  36.560  10.788
20565W        W87348   1.005  24.791   3.854
20566W        W87349  40.467   2.570   3.168
20567W        W87350   0.777  38.541   1.490
20568W        W87351  31.130  40.065   1.331
20569W        W87352  43.640   6.040  11.461
20570W        W87353  24.758  27.605   0.460
20571W        W87354  13.145  25.612  11.182
20572W        W87355  20.111  44.855   2.389
20573W        W87356   3.634   8.681   2.421
20574W        W87357  15.777  23.821  11.889
20575W        W87358  38.434  38.201   3.748
20576W        W87359   9.279  24.640  13.525
20577W        W87360  15.807   7.892  12.045
20578W        W87361   5.422   1.887   2.291
20579W        W87362  35.443  17.614   0.529
20580W        W87363  44.686  20.661  14.816
20581W        W87364  35.413  20.778  11.517
20582W        W87365  22.204   9.354  12.417
20583W        W87366  20.601  29.570   3.323
20584W        W87367  16.100  41.273   0.310
20585W        W87368   5.830  22.020  11.038
20586W        W87369  30.459   5.912  11.117
20587W        W87370  39.109   5.440   1.490
20588W        W87371   0.864  18.464  13.474
20589W        W87372  16.725  14.692   4.176
20590W        W87373  23.567  20.728  13.121
20591W        W87374  30.155  14.714  11.960
20592W        W87375  17.752  42.990  11.540
20593W        W87376  43.678   7.692   3.528
20594W        W87377  40.966  12.740  12.082
20595W        W87378   6.725  10.768   2.250
20596W        W87379  44.608  10.002  10.823
20597W        W87380  32.988  21.810  12.071
20598W        W87381  33.119  33.034  14.338
20599W        W87382   9.760  42.778   3.246
20600W        W87383  25.641   1.193   2.795
20601W        W87384   5.287   3.051  13.260
20602W        W87385  42.764   1.816  13.797
20603W        W87386  17.188  12.745   3.589
20604W        W87387   9.264   1.334   1.767
20605W        W87388   9.338  32.929  11.892
20606W        W87389  20.572  23.258  11.573
20607W        W87390  32.944  34.666  14.999
20608W        W87391  41.746   8.068   1.554
20609W        W87392  18.664   8.820   1.762
20610W        W87393  24.729  34.881  14.091
20611W        W87394  21.638  15.307   1.357
20612W        W87395  13.898  33.948   4.476
20613W        W87396  29.096  31.564  11.109
20614W        W87397  26.461   4.852  11.565
20615W        W87398   9.747  23.912   1.796
20616W        W87399  18.551  22.991  14.959
20617W        W87400  42.874  32.027  14.529
20618W        W87401  27.210  12.281  13.872
20619W        W87402  42.736  18.513   2.734
20620W        W87403  10.884  10.504   3.136
20621W        W87404   1.401  33.607  12.831
20622W        W87405  22.802   8.464   1.354
20623W        W87406  25.620  11.284  14.752
20624W        W87407  16.083   2.570   0.374
20625W        W87408  33.509  11.391   1.004
20626W        W87409   4.908  21.764   2.042
20627W        W87410  41.594  19.038  11.146
20628W        W87411  23.244   5.180   0.735
20629W        W87412  35.376  27.247  14.144
20630W        W87413  37.365  21.723  13.002
20631W        W87414  10.114  20.645   2.205
20632W        W87415   4.333  41.497   2.336
20633W        W87416  36.922  35.582   2.813
20634W        W87417  39.143  24.138  13.555
20635W        W87418  31.571  21.457   4.083
20636W        W87419  19.737   7.589   5.128
20637W        W87420  41.034   6.385   1.541
20638W        W87421  24.713  30.562  13.279
20639W        W87422  25.973  12.289  11.468
20640W        W87423  22.258  38.391   2.222
20641W        W87424   5.331  32.657   3.135
20642W        W87425  31.663  34.358   0.767
20643W        W87426  14.801  34.651  12.077
20644W        W87427   9.666  22.084  10.676
20645W        W87428   9.748  32.578  11.377
20646W        W87429  25.561   0.192  13.020
20647W        W87430  21.599  15.687  13.866
20648W        W87431  42.437  24.153   0.449
20649W        W87432  27.644  19.972   1.402
20650W        W87433   6.211  39.338  12.503
20651W        W87434  37.859  22.575  10.766
20652W        W87435  25.664   1.830  10.215
20653W        W87436   7.325  20.341   3.854
20654W        W87437  14.543   0.735  11.223
20655W        W87438  31.107  13.776  10.693
20656W        W87439  13.154  41.465   2.378
20657W        W87440  43.363   3.660   0.297
20658W        W87441   7.886   9.390  14.567
20659W        W87442  39.245  38.508  11.541
20660W        W87443  43.993  30.554   0.412
20661W        W87444  38.763  19.399   3.655
20662W        W87445  22.724  39.565  13.434
20663W        W87446  26.870  12.557   2.571
20664W        W87447   2.236  16.608   3.701
20665W        W87448   7.353  31.651   1.918
20666W        W87449  30.056  40.465  14.134
20667W        W87450  28.677  32.810  12.687
20668W        W87451  19.576   2.991   0.739
20669W        W87452  16.499  14.902   2.530
20670W        W87453  27.100  37.526   3.745
20671W        W87454  14.601   5.299   1.856
20672W        W87455   3.444  32.619   3.495
20673W        W87456  40.508   7.222  14.484
20674W        W87457  18.517  17.153  10.897
20675W        W87458  10.368  36.354  14.520
20676W        W87459  19.021   9.891   2.687
20677W        W87460  11.835  10.949   5.240
20678W        W87461   3.779   4.798  10.039
20679W        W87462   3.021  26.228   0.131
20680W        W87463  11.661  12.179   3.644
20681W        W87464   7.470   0.662  12.961
20682W        W87465  31.468  12.485   1.851
20683W        W87466  41.606  42.521  10.535
20684W        W87467  15.117  16.381  12.921
20685W        W87468   0.151  40.385  13.980
20686W        W87469  30.715  23.801   1.872
20687W        W87470  13.640  32.854  11.592
20688W        W87471  33.253  42.367   2.384
20689W        W87472  34.362  17.058   3.610
20690W        W87473  43.270  39.537   2.501
20691W        W87474  36.793  23.633   1.217
20692W        W87475   8.934  25.139   5.085
20693W        W87476  34.042  15.482   3.645
20694W        W87477  22.210   2.056  11.019
20695W        W87478  12.197  40.997  13.989
20696W        W87479   4.004   9.779   3.754
20697W        W87480  43.330  25.924   1.185
20698W        W87481   9.549   3.921  12.266
20699W        W87482   0.596  16.572  14.612
20700W        W87483  14.315  12.434  13.829
20701W        W87484   9.719  32.897   2.313
20702W        W87485   3.862  43.177   2.788
20703W        W87486  32.875  17.272  12.618
20704W        W87487   7.719  15.676   4.579
20705W        W87488   2.995  43.850   1.388
20706W        W87489  36.682  43.430   2.329
20707W        W87490   7.335  18.700  10.677
20708W        W87491  11.177   0.345   2.667
20709W        W87492  32.148  25.645  13.169
20710W        W87493   9.708   5.243   0.407
20711W        W87494   7.674  10.094  14.070
20712W        W87495  29.772  19.080  14.784
20713W        W87496  43.418  33.496  12.108
20714W        W87497  44.388  34.841  12.434
20715W        W87498  26.006  44.486   5.052
20716W        W87499   5.230  33.372   4.743
20717W        W87500  27.748  39.035  11.529
20718W        W87501  43.323  16.057  10.923
20719W        W87502  30.481   3.257  10.665
20720W        W87503  14.986  24.432  13.216
20721W        W87504   6.697   8.919   2.310
20722W        W87505  21.354  34.318  11.113
20723W        W87506  36.427   6.201   9.842
20724W        W87507  12.027  21.245   2.288
20725W        W87508   1.712  21.424   0.572
20726W        W87509  33.978  26.001  14.395
20727W        W87510  28.500  13.386  14.933
20728W        W87511  16.346   6.704  11.917
20729W        W87512  23.749   0.731  14.902
20730W        W87513   3.464   3.912   4.679
20731W        W87514  20.796  24.193  11.622
20732W        W87515  33.038  44.657  14.017
20733W        W87516  37.086  25.055   0.046
20734W        W87517  29.911  15.244  12.611
20735W        W87518  34.476  13.117  10.990
20736W        W87519  40.014  16.615  14.817
20737W        W87520  11.385  10.883  11.131
20738W        W87521   1.317  35.656  10.694
20739W        W87522   9.728  35.826   2.181
20740W        W87523  21.776  28.028   1.391
20741W        W87524  31.420  30.460  14.289
20742W        W87525  44.695  43.314  11.145
20743W        W87526   2.884  19.346  14.039
20744W        W87527   9.865   8.556  13.504
20745W        W87528  31.914  16.977   1.321
20746W        W87529   2.163  38.464  14.349
20747W        W87530  25.542   2.722   4.228
20748W        W87531  33.904  10.158  13.581
20749W        W87532   1.258   5.124  14.832
20750W        W87533   4.937  42.761   1.283
20751W        W87534  23.231  14.443   4.144
20752W        W87535  40.228  41.356   3.717
20753W        W87536  44.042   0.663  14.873
20754W        W87537  34.505  12.759  11.426
20755W        W87538  18.845  13.396  12.015
20756W        W87539  42.293   4.293   1.786
20757W        W87540  21.688  32.901   0.454
20758W        W87541  26.081   0.427   1.204
20759W        W87542   7.375  12.082   0.346
20760W        W87543   2.771  25.642  13.787
20761W        W87544   5.906  35.988   0.855
20762W        W87545  10.276  21.494   0.785
20763W        W87546  41.326  34.514   1.294
20764W        W87547  21.938   9.443  10.779
20765W        W87548  37.771  11.213   4.255
20766W        W87549  37.517  26.869  14.940
20767W        W87550  18.280   0.345  14.984
20768W        W87551  27.559   2.806  13.557
20769W        W87552  26.650  20.117   1.276
20770W        W87553   5.050  30.100  14.831
20771W        W87554  13.672  36.120  14.367
20772W        W87555  30.227   2.838   1.829
20773W        W87556   8.881  13.024  13.402
20774W        W87557  21.087  26.188   2.127
20775W        W87558  27.521  38.417  14.687
20776W        W87559  18.571  39.767  12.126
20777W        W87560  31.781   3.171  13.000
20778W        W87561  25.613  40.539   2.201
20779W        W87562  13.343  40.285  10.975
20780W        W87563  29.677  27.186  14.544
20781W        W87564   0.255  28.316   0.416
20782W        W87565  41.482   5.391  14.552
20783W        W87566  37.883  44.932  12.384
20784W        W87567  38.448  13.829  13.479
20785W        W87568  31.424   9.132   0.699
20786W        W87569  27.768   6.692   0.291
20787W        W87570  40.605  13.576   2.856
20788W        W87571  13.435  44.327  10.820
20789W        W87572  28.875   4.297   2.244
20790W        W87573  24.863  25.062   4.108
20791W        W87574  15.504   9.446   3.274
20792W        W87575  28.172  42.095  11.580
20793W        W87576  14.385  29.619   3.093
20794W        W87577  17.956  40.286   4.111
20795W        W87578  30.336  42.239  10.492
20796W        W87579   7.269  25.979  12.289
20797W        W87580  27.108  37.160   3.328
20798W        W87581  18.645  36.071  14.804
20799W        W87582  15.559   5.980  12.174
20800W        W87583  36.052  31.099  11.448
20801W        W87584  25.909  44.737   1.447
20802W        W87585   4.666  31.241   4.445
20803W        W87586  14.212  14.615   3.167
20804W        W87587   6.836  30.918   3.024
20805W        W87588   5.705   0.355  14.307
20806W        W87589   9.703  30.660   2.663
20807W        W87590  44.733  42.771   2.749
20808W        W87591  33.561  23.814  12.622
20809W        W87592  28.461   1.263  11.060
20810W        W87593  36.994  16.533  14.997
20811W        W87594  30.370  16.556   0.826
20812W        W87595  27.785  17.211   5.027
20813W        W87596  23.676  24.034   1.720
20814W        W87597  13.676  35.613  14.241
20815W        W87598   0.346  40.078  11.153
20816W        W87599  12.753  27.418  12.889
20817W        W87600  35.827  29.591   4.598
20818W        W87601  31.905  18.790   4.295
20819W        W87602   1.552  32.418   0.980
20820W        W87603  34.046   3.853  14.552
20821W        W87604  34.200   8.820   4.049
20822W        W87605  18.252   1.028  14.279
20823W        W87606   1.770   0.460  14.316
20824W        W87607  20.066  20.650   1.419
20825W        W87608  40.364  12.783   1.853
20826W        W87609  18.996  38.497  13.395
20827W        W87610   8.770   2.315  11.698
20828W        W87611   1.474  23.898  12.974
20829W        W87612   7.438   3.678   0.005
20830W        W87613  23.480  12.927   2.688
20831W        W87614  35.167  19.606  12.620
20832W        W87615  41.463   0.337  10.812
20833W        W87616  43.025  20.947   3.451
20834W        W87617  36.317  21.791   0.272
20835W        W87618  11.823   6.657   4.021
20836W        W87619  25.478  17.612  11.639
20837W        W87620   5.858  31.407  14.258
20838W        W87621  18.687  26.058  12.012
20839W        W87622  24.428   5.343   3.196
20840W        W87623  34.845  28.791   0.706
20841W        W87624  19.650  21.747  14.179
20842W        W87625  28.481  38.565   4.279
20843W        W87626  34.724  16.643  12.443
20844W        W87627  34.990  30.512   1.761
20845W        W87628   6.819  37.312   4.828
20846W        W87629  39.464  29.692   1.759
20847W        W87630  38.388  44.543   4.157
20848W        W87631   0.222  32.003   4.686
20849W        W87632  41.256   0.707  13.450
20850W        W87633  21.574  38.993  14.731
20851W        W87634  22.565  16.376   0.377
20852W        W87635  40.529  36.042   3.762
20853W        W87636  20.657  13.321  13.309
20854W        W87637  28.791  21.643   0.547
20855W        W87638  33.497  33.560   0.396
20856W        W87639  39.882  35.511   4.889
20857W        W87640  17.631  31.013  14.635
20858W        W87641  38.334  18.690   2.018
20859W        W87642   2.088  24.259   0.294
20860W        W87643   9.201  15.215  14.089
20861W        W87644  35.052  36.657  11.198
20862W        W87645  20.323   6.812   2.283
20863W        W87646  41.278  25.236  13.579
20864W        W87647   4.029   3.721   3.841
20865W        W87648  13.618   7.595   4.190
20866W        W87649  43.364  43.443  10.562
20867W        W87650  23.640  22.810  10.680
20868W        W87651   6.827  16.340  11.753
20869W        W87652  10.228  13.499  11.994
20870W        W87653  14.397  34.155   4.604
20871W        W87654  34.234  41.735  12.984
20872W        W87655   3.026  31.816  12.403
20873W        W87656  37.507  15.428   0.792
20874W        W87657  44.536  24.931  11.077
20875W        W87658   0.781  35.345   3.216
20876W        W87659  43.025  34.579   1.639
20877W        W87660  43.652  41.364  12.783
20878W        W87661  21.142   6.872  12.513
20879W        W87662  12.405  34.469  14.491
20880W        W87663  33.299  35.400  12.939
20881W        W87664  34.830  19.944  10.746
20882W        W87665  21.782   2.665   2.141
20883W        W87666  44.366  20.512   4.336
20884W        W87667   6.760   5.486  11.529
20885W        W87668  19.062  17.325   4.518
20886W        W87669   5.428  40.058   2.741
20887W        W87670  19.590  37.311  11.182
20888W        W87671  14.742  43.829  12.022
20889W        W87672  12.440  17.723   3.255
20890W        W87673  10.790  18.299  13.382
20891W        W87674  28.989   0.571  13.373
20892W        W87675  33.402  34.665   1.394
20893W        W87676  13.672  21.817  12.428
20894W        W87677  34.840   0.013  11.804
20895W        W87678  42.859   0.653   3.353
20896W        W87679   7.746   8.860   4.719
20897W        W87680  37.255  24.665  13.797
20898W        W87681  41.058   9.720   3.963
20899W        W87682  20.602   4.766  13.951
20900W        W87683  20.502   4.681  13.444
20901W        W87684   9.602  11.284   4.537
20902W        W87685  11.227  11.414   4.625
20903W        W87686   6.740  40.397   0.831
20904W        W87687   9.557  25.758   3.571
20905W        W87688  27.960  42.288   4.402
20906W        W87689  19.594  43.872   3.924
20907W        W87690  25.330  38.608   3.671
20908W        W87691   8.963  28.149  12.885
20909W        W87692   9.618  43.652  11.240
20910W        W87693   4.387  36.832  14.294
20911W        W87694  38.418   5.765   2.285
20912W        W87695   7.361  24.570  14.710
20913W        W87696   0.935  40.523  14.361
20914W        W87697   7.024  28.060  10.987
20915W        W87698  41.990  28.611   1.464
20916W        W87699  12.031  18.058   3.196
20917W        W87700   6.311  21.166   0.780
20918W        W87701  37.685  28.218  11.142
20919W        W87702  24.646  28.087   4.967
20920W        W87703  22.765  37.805   2.769
20921W        W87704  27.126  25.815  13.744
20922W        W87705  42.705   0.276  13.026
20923W        W87706   1.792  34.556   0.885
20924W        W87707   3.432  25.243   3.606
20925W        W87708   1.905  39.032  14.927
20926W        W87709  40.485  41.949   1.127
20927W        W87710  37.837  38.684   0.531
20928W        W87711  11.633  43.711  11.360
20929W        W87712  23.531  35.071   2.471
20930W        W87713   9.900   4.421   1.689
20931W        W87714   3.516  16.077   4.833
20932W        W87715  13.832  38.559  11.199
20933W        W87716  40.216  41.880   3.743
20934W        W87717  21.592   5.914   0.377
20935W        W87718  22.248  10.653   3.136
20936W        W87719  44.543  35.436   4.339
20937W        W87720  40.357  35.235  13.843
20938W        W87721   2.434   7.254  13.392
20939W        W87722  38.840  13.871  14.276
20940W        W87723   8.596  24.047   3.755
20941W        W87724   9.747  18.688  10.719
20942W        W87725  21.199  20.320   0.796
20943W        W87726  40.075  36.982   3.660
20944W        W87727  18.313   9.906  10.514
20945W        W87728  33.107   2.440   1.934
20946W        W87729  36.061  29.598  13.346
20947W        W87730  15.586  39.430  13.008
20948W        W87731  28.372   2.706  12.958
20949W        W87732  19.767  11.796   3.649
20950W        W87733   0.634  33.796  12.262
20951W        W87734  17.132  29.941   3.620
20952W        W87735   7.472  26.880  13.435
20953W        W87736  11.369   8.851   2.867
20954W        W87737   9.032  20.190  13.531
20955W        W87738  15.861  42.083   3.273
20956W        W87739  28.577   9.399   2.286
20957W        W87740  41.659   3.257  11.754
20958W        W87741  14.015   8.580  10.837
20959W        W87742  21.922   0.968   1.423
20960W        W87743  35.935  44.928   0.318
20961W        W87744  26.611  43.173   4.991
20962W        W87745   8.829  15.162   4.120
20963W        W87746  14.453   0.551  13.891
20964W        W87747  43.254   9.168  10.767
20965W        W87748  43.428   4.273  13.374
20966W        W87749  34.493  34.996   4.516
20967W        W87750  40.930  17.304   1.893
20968W        W87751  37.993  15.673   2.180
20969W        W87752  39.909  37.877   4.063
20970W        W87753  34.399  13.401   4.309
20971W        W87754  29.897  22.134  11.147
20972W        W87755   8.706  40.517   3.776
20973W        W87756  28.738   7.438   0.954
20974W        W87757   6.038   2.582   4.111
20975W        W87758  36.898  26.237  14.181
20976W        W87759  32.221  26.457   5.156
20977W        W87760  35.288  35.442  12.917
20978W        W87761  10.622  34.483   3.560
20979W        W87762  14.042  34.035   5.513
20980W        W87763   1.325  36.501  11.129
20981W        W87764  24.231  32.198   2.700
20982W        W87765   1.322   0.697   0.233
20983W        W87766   0.814  32.860  12.947
20984W        W87767  24.512  34.068   2.832
20985W        W87768  13.069   7.447   3.329
20986W        W87769  43.542  23.117  13.435
20987W        W87770  14.148  38.766  13.078
20988W        W87771  26.904  16.400  13.399
20989W        W87772  21.254  22.651  12.598
20990W        W87773  41.320   8.849  12.618
20991W        W87774  13.586  35.403   4.109
20992W        W87775  42.843   4.831   0.302
20993W        W87776  37.479  27.584  13.564
20994W        W87777  30.547   9.456   1.883
20995W        W87778  16.319  15.324  13.655
20996W        W87779  13.133  36.312  13.398
20997W        W87780  26.074   9.763  13.375
20998W        W87781  34.989   3.184   1.999
20999W        W87782   3.591  39.433   1.759
21000W        W87783  12.799  24.912   2.242
21001W        W87784  31.697  12.182  14.983
21002W        W87785  43.981  16.724  14.070
21003W        W87786  42.480  12.449  10.706
21004W        W87787  10.429   7.959   0.444
21005W        W87788  34.596  22.670  13.847
21006W        W87789   3.149  22.592  14.402
21007W        W87790  28.045  18.070   1.333
21008W        W87791   7.898  32.011   4.638
21009W        W87792  43.284  27.171  14.922
21010W        W87793   5.224  39.397   4.171
21011W        W87794  28.061  37.987   2.716
21012W        W87795  12.653  42.591  13.830
21013W        W87796  13.648   8.498   1.793
21014W        W87797   4.753  20.695  10.596
21015W        W87798   7.521  40.891   3.197
21016W        W87799  38.948   8.365  11.639
21017W        W87800   0.923  23.225  12.005
21018W        W87801  19.223  38.621  12.083
21019W        W87802   7.761  28.924   2.432
21020W        W87803  42.636  37.151  12.759
21021W        W87804  37.923  44.939   1.307
21022W        W87805   2.485  44.457  13.039
21023W        W87806  37.411  25.133   4.311
21024W        W87807  27.071  11.808   0.635
21025W        W87808  43.697  40.575   4.643
21026W        W87809  35.171  29.779   4.973
21027W        W87810  40.303   1.490  13.382
21028W        W87811   5.657   2.197  13.578
21029W        W87812  13.804  13.825   2.833
21030W        W87813  35.472  37.443   3.517
21031W        W87814   9.604  34.964  14.515
21032W        W87815  27.518  23.321  14.623
21033W        W87816  36.012  29.091  13.460
21034W        W87817  14.529  11.016  14.945
21035W        W87818  15.743  32.562  14.305
21036W        W87819  16.588   9.244   4.562
21037W        W87820  23.715  40.864  11.846
21038W        W87821   8.365   1.212   1.434
21039W        W87822  16.592  40.817   4.588
21040W        W87823  28.678   3.188  12.389
21041W        W87824  42.747  24.782   1.564
21042W        W87825   3.841  44.584   1.954
21043W        W87826  10.236  15.027   0.260
21044W        W87827  27.558  14.362   3.729
21045W        W87828  41.012  32.848  12.849
21046W        W87829  34.407  29.390  11.145
21047W        W87830  25.945  25.555   0.507
21048W        W87831  28.585  16.222   2.379
21049W        W87832  24.349   4.088  12.645
21050W        W87833  12.077  12.723  13.805
21051W        W87834  18.897  39.519   1.442
21052W        W87835  38.791  37.900  10.434
21053W        W87836  20.754  20.016   0.416
21054W        W87837  19.128  38.091   3.280
21055W        W87838  28.941  33.506   3.675
21056W        W87839  25.417  33.965   2.861
21057W        W87840  38.942  19.258   0.426
21058W        W87841   7.535  25.631  14.104
21059W        W87842  36.439   3.460   3.772
21060W        W87843  38.579  21.250  13.364
21061W        W87844  14.816  16.126   0.839
21062W        W87845  17.024  24.931  11.590
21063W        W87846  16.016   8.370   4.166
21064W        W87847  17.076  34.686   1.865
21065W        W87848  15.356  23.168  13.870
21066W        W87849  44.078  30.738   1.813
21067W        W87850  16.858   3.578   1.696
21068W        W87851  24.137  15.762   0.736
21069W        W87852  29.904   1.421   3.720
21070W        W87853  40.905   0.229  12.089
21071W        W87854  19.607   0.687  10.738
21072W        W87855   8.300  20.754  12.966
21073W        W87856  44.890  17.786  12.427
21074W        W87857   5.148  37.764   4.791
21075W        W87858   2.475  44.984   1.741
21076W        W87859  39.791  25.398   4.252
21077W        W87860  13.912  40.864   4.591
21078W        W87861  32.383  28.565   4.134
21079W        W87862  28.958  21.756   1.428
21080W        W87863   3.407  42.294  14.348
21081W        W87864   5.331   0.637  11.245
21082W        W87865  12.157  28.078   3.533
21083W        W87866  13.921  35.497   2.846
21084W        W87867  34.591  13.760   0.093
21085W        W87868   4.861  30.891   4.083
21086W        W87869   9.457  10.878   4.222
21087W        W87870  19.114  25.544  14.086
21088W        W87871  41.991  21.374   4.159
21089W        W87872  38.582   2.390   1.294
21090W        W87873  16.603   6.684  11.476
21091W        W87874  39.859  36.490  11.180
21092W        W87875  44.346  14.600  11.943
21093W        W87876  15.429  23.601   3.213
21094W        W87877   1.596  10.273  10.597
21095W        W87878   0.022   4.714  11.054
21096W        W87879  42.576  41.422  13.819
21097W        W87880  44.721  25.021   0.338
21098W        W87881  20.247  17.094  12.881
21099W        W87882  11.637   6.270  11.019
21100W        W87883  21.221   2.358   3.489
21101W        W87884  18.777  17.753  11.505
21102W        W87885   8.816  23.094  11.709
21103W        W87886  10.727  39.868   1.758
21104W        W87887  28.105  41.612  10.737
21105W        W87888  36.860   1.078   0.043
21106W        W87889  19.161  25.762   0.880
21107W        W87890   3.625  24.439   4.839
21108W        W87891   9.337  24.550   3.427
21109W        W87892  37.439   5.452  10.488
21110W        W87893  21.669   7.357  10.688
21111W        W87894   9.592   6.913  11.623
21112W        W87895  24.684   4.428   1.419
21113W        W87896  27.932   0.879   4.198
21114W        W87897  28.015   5.698   3.421
21115W        W87898  36.660  34.364   1.754
21116W        W87899  24.049  37.676  10.884
21117W        W87900  32.869  16.790  12.439
21118W        W87901  12.420   0.529   0.856
21119W        W87902   3.770  23.568  11.232
21120W        W87903  37.750  33.148  10.944
21121W        W87904  43.010  40.975  11.597
21122W        W87905  13.561  18.597   3.445
21123W        W87906  19.626  38.471  13.134
21124W        W87907   8.816  29.682  13.051
21125W        W87908  36.033   1.878  14.372
21126W        W87909  25.247  44.082  13.840
21127W        W87910   7.890  27.544   4.257
21128W        W87911  23.286  11.285  12.544
21129W        W87912  24.226  15.083  12.829
21130W        W87913  22.545  18.700  10.892
21131W        W87914   7.989  38.323  11.341
21132W        W87915   6.134  44.698   0.109
21133W        W87916  22.053  43.132  13.803
21134W        W87917  23.602  19.248  11.397
21135W        W87918  44.387  16.807   4.065
21136W        W87919  43.652  29.467   3.247
21137W        W87920  26.416  39.306  13.852
21138W        W87921  42.549  12.314   1.295
21139W        W87922  12.786  38.376   3.695
21140W        W87923   0.616  25.160   4.567
21141W        W87924  31.078   0.738  14.240
21142W        W87925  43.502  26.660  13.570
21143W        W87926  14.826  18.130  13.077
21144W        W87927  11.629  29.391   5.069
21145W        W87928  25.890  29.616  10.507
21146W        W87929  41.303  14.766   0.387
21147W        W87930  27.485  35.267   3.654
21148W        W87931   2.945   4.630   2.885
21149W        W87932   4.234   2.929  12.756
21150W        W87933  34.468  39.378  13.795
21151W        W87934  38.011  37.203   2.185
21152W        W87935  30.990   4.479   3.238
21153W        W87936  32.114  32.584  12.541
21154W        W87937   9.830  15.246   1.976
21155W        W87938  34.369   8.426   2.268
21156W        W87939  13.105  32.404   0.936
21157W        W87940  44.273  29.010  12.134
21158W        W87941   4.236   7.828   0.193
21159W        W87942   2.428   0.849  13.763
21160W        W87943  19.744  21.006   0.348
21161W        W87944  39.254  38.259   2.311
21162W        W87945  13.994  24.104   1.095
21163W        W87946  14.986  12.169  14.840
21164W        W87947  20.978  31.568  11.874
21165W        W87948   1.842  37.288  13.483
21166W        W87949  24.089  17.784   1.585
21167W        W87950  29.980  15.534   1.282
21168W        W87951  25.652  14.336  12.101
21169W        W87952  15.768   3.473   2.744
21170W        W87953  23.970  18.037  10.232
21171W        W87954   8.214  26.645   3.608
21172W        W87955  32.558   8.484   0.250
21173W        W87956  26.480  33.543   3.237
21174W        W87957  21.924  12.653  11.109
21175W        W87958  16.342  15.191  12.475
21176W        W87959   9.406  42.845   5.054
21177W        W87960   1.769  44.309  11.917
21178W        W87961  30.011  12.685   1.193
21179W        W87962  16.640  13.094   4.550
21180W        W87963  11.307  19.854   2.799
21181W        W87964  42.008  33.171   4.680
21182W        W87965  14.732  13.297   4.069
21183W        W87966  36.499  36.961  12.095
21184W        W87967  44.935  35.439   4.682
21185W        W87968  24.284  34.963   2.885
21186W        W87969  30.031  34.987   0.002
21187W        W87970  41.863   3.008   1.765
21188W        W87971  32.339  28.899  11.470
21189W        W87972  13.076   9.786   1.770
21190W        W87973  14.400  18.855  14.834
21191W        W87974   6.660  15.120   0.859
21192W        W87975  12.344  24.735   3.802
21193W        W87976  22.215  41.063   1.335
21194W        W87977  28.144  28.300   3.875
21195W        W87978   8.384  15.090   1.642
21196W        W87979  28.669  40.341   4.915
21197W        W87980  32.562   0.502  13.093
21198W        W87981  38.384  38.866  10.539
21199W        W87982  31.465  35.756  14.524
21200W        W87983  26.638  23.600  13.788
21201W        W87984  30.436   6.700  10.673
21202W        W87985  27.904  44.819  10.557
21203W        W87986  29.287  14.416   0.239
21204W        W87987  12.259  26.569  12.633
21205W        W87988  26.701  11.877   1.446
21206W        W87989   2.577  20.208  13.886
21207W        W87990  20.220   7.036   3.293
21208W        W87991   9.904  39.366  11.175
21209W        W87992   3.518  32.300  12.325
21210W        W87993  25.960  23.261  12.296
21211W        W87994  28.685  32.030  14.652
21212W        W87995  14.312  13.830  11.975
21213W        W87996  34.088  30.114  11.188
21214W        W87997   3.478  22.571  13.040
21215W        W87998  36.266   7.355  13.926
21216W        W87999  25.600   8.711   2.205
21217W        W88000   0.272   8.124   4.244
21218W        W88001  16.860  35.517   1.222
21219W        W88002  16.578  14.224  10.343
21220W        W88003  14.762  39.515   4.296
21221W        W88004   6.859  43.910  11.138
21222W        W88005   0.362   4.603  14.430
21223W        W88006  37.633  29.551  13.917
21224W        W88007  44.726   4.164  12.963
21225W        W88008  24.711   0.338  12.522
21226W        W88009  28.956  23.269  11.272
21227W        W88010  10.105  19.937   4.067
21228W        W88011   4.690  32.059   0.318
21229W        W88012  25.514  41.204  13.704
21230W        W88013  20.330  26.479   1.319
21231W        W88014  40.900   8.873  10.012
21232W        W88015   0.586  10.148  11.383
21233W        W88016  31.095   7.820   4.597
21234W        W88017  36.531  13.243   4.280
21235W        W88018  28.416   6.301  11.324
21236W        W88019  40.484  19.633   1.366
21237W        W88020  33.597   1.931   3.198
21238W        W88021  30.685  21.126   3.125
21239W        W88022  29.612  28.484   4.234
21240W        W88023  40.312  13.256  12.012
21241W        W88024  41.834  11.581  13.026
21242W        W88025  29.932  13.749   4.474
21243W        W88026  11.156   4.657   4.573
21244W        W88027  36.620  13.844   0.368
21245W        W88028  19.119  40.929  11.638
21246W        W88029  18.482  22.052  12.990
21247W        W88030  40.335  17.217  13.064
21248W        W88031  33.814   4.413   5.382
21249W        W88032  42.914  12.087  13.910
21250W        W88033  34.610  34.475   4.212
21251W        W88034  44.525   6.441  14.816
21252W        W88035  40.003  28.611  10.977
21253W        W88036  22.980  22.182  14.372
21254W        W88037  22.760  22.200   4.286
21255W        W88038   8.823  33.113   1.425
21256W        W88039  37.562   8.229  12.561
21257W        W88040   0.712  23.212   1.514
21258W        W88041  38.981  24.565   1.595
21259W        W88042  30.101  26.922  14.371
21260W        W88043  36.135  10.620   3.900
21261W        W88044   1.755  16.808   2.860
21262W        W88045  39.070  13.740   0.268
21263W        W88046  42.010  37.051  11.379
21264W        W88047  40.034  25.946  11.147
21265W        W88048  17.149  15.706  13.016
21266W        W88049  37.633  26.541  10.692
21267W        W88050   3.754  32.083   2.153
21268W        W88051  17.840  30.795   0.626
21269W        W88052   9.385  36.528  10.603
21270W        W88053  43.074  40.683   2.659
21271W        W88054  20.131  17.571  12.616
21272W        W88055  22.750  44.967   4.650
21273W        W88056   3.108   2.764   4.118
21274W        W88057  26.358  35.910   2.657
21275W        W88058  24.597  29.292  11.868
21276W        W88059  17.872  23.057   4.069
21277W        W88060  12.818  36.674   0.874
21278W        W88061   6.136  19.399   4.858
21279W        W88062   6.673  24.544   1.421
21280W        W88063  12.088  10.597  11.989
21281W        W88064  27.542  39.862   1.325
21282W        W88065  15.250  24.753  14.065
21283W        W88066  42.746  31.755  12.717
21284W        W88067  14.529  40.615   0.641
21285W        W88068  40.506   8.048   4.986
21286W        W88069   3.173  27.547   2.325
21287W        W88070  36.028   8.461  11.181
21288W        W88071   5.929  12.231   3.714
21289W        W88072  44.245  18.253   5.101
21290W        W88073  23.972  24.665   2.291
21291W        W88074  20.444  18.958  14.797
21292W        W88075  21.241  33.082   3.288
21293W        W88076  39.898  40.946   0.458
21294W        W88077   8.411  42.595  12.412
21295W        W88078   6.069  12.693  14.904
21296W        W88079  25.617  38.493   1.066
21297W        W88080  40.781  11.232   0.324
21298W        W88081   8.633  33.237   4.063
21299W        W88082  32.076   5.650  10.189
21300W        W88083  20.212   9.075  11.431
21301W        W88084  30.549  31.978   0.255
21302W        W88085  44.545  12.122   0.262
21303W        W88086  14.358   3.867  14.788
21304W        W88087  44.248   9.294   2.794
21305W        W88088  22.229  11.673  13.115
21306W        W88089   2.112  16.387   1.958
21307W        W88090  22.974   5.844   2.302
21308W        W88091   8.290  44.281  11.241
21309W        W88092  12.740  14.198   2.217
21310W        W88093  36.892  19.667   1.132
21311W        W88094  26.103  20.218  13.178
21312W        W88095   5.139  13.527  14.360
21313W        W88096   2.975   0.606  10.750
21314W        W88097  26.497  21.180  13.006
21315W        W88098  20.111  28.507   3.580
21316W        W88099  15.619  23.127   0.351
21317W        W88100  11.286   0.493  14.416
21318W        W88101  14.805  32.466   0.901
21319W        W88102  13.926  29.974  14.006
21320W        W88103   0.159   9.190   0.742
21321W        W88104  36.783  24.892  12.005
21322W        W88105  10.981  35.013  13.972
21323W        W88106  19.572   8.336  14.443
21324W        W88107  33.542  37.428  13.821
21325W        W88108  33.139  40.803   4.037
21326W        W88109  28.040   3.233  13.027
21327W        W88110  35.448  37.997  14.577
21328W        W88111  30.988  36.198   3.386
21329W        W88112  24.119  36.996  11.626
21330W        W88113  36.163   8.402  12.516
21331W        W88114  21.313  36.887   3.563
21332W        W88115  32.848  35.854   4.487
21333W        W88116  18.079  28.892  13.929
21334W        W88117  32.767  31.253  11.460
21335W        W88118  19.692  32.634   1.758
21336W        W88119   0.280  26.206  13.273
21337W        W88120  10.349  11.116   3.133
21338W        W88121  12.930   0.915  14.664
21339W        W88122   4.933  12.785  11.958
21340W        W88123  22.827  18.769  13.726
21341W        W88124  27.005  43.292   0.802
21342W        W88125  10.322  18.390  12.641
21343W        W88126  29.909  17.537   1.630
21344W        W88127  14.187   2.345  10.633
21345W        W88128  11.888  14.609  12.955
21346W        W88129  40.743  17.870   0.837
21347W        W88130   4.188  19.494  12.226
21348W        W88131  29.843  15.325   2.802
21349W        W88132  13.092  12.589   0.058
21350W        W88133  25.315   4.464   2.778
21351W        W88134  32.617   8.805   0.682
21352W        W88135  26.181   9.207  14.725
21353W        W88136  15.016  25.626  13.794
21354W        W88137   0.101  26.118   0.372
21355W        W88138  26.137  26.210   2.554
21356W        W88139  35.176  40.993  14.526
21357W        W88140  41.510  21.174   4.768
21358W        W88141   4.503  44.624  11.119
21359W        W88142  20.580   2.835  11.606
21360W        W88143  18.899  17.025  13.451
21361W        W88144  28.746  35.427  13.074
21362W        W88145   9.962  21.745  13.820
21363W        W88146  42.295  21.519   1.227
21364W        W88147  42.822  25.715   3.919
21365W        W88148  23.989  20.982  10.760
21366W        W88149  10.098  40.338   0.286
21367W        W88150   3.099  30.531   1.888
21368W        W88151  20.643  33.950   1.124
21369W        W88152  36.469  17.730   4.198
21370W        W88153  33.838  21.131  14.822
21371W        W88154  30.421   7.224   3.522
21372W        W88155  37.538   3.284   0.011
21373W        W88156  23.518   5.818  10.860
21374W        W88157  24.112  27.618   4.483
21375W        W88158  14.403  13.759   0.854
21376W        W88159  25.211  39.315  10.155
21377W        W88160   2.081   4.347  10.823
21378W        W88161  40.254  41.096  11.996
21379W        W88162  15.563  26.982   3.628
21380W        W88163  38.498  22.532  12.980
21381W        W88164   3.098  20.549   4.641
21382W        W88165  32.731   0.527   2.823
21383W        W88166   9.299  20.946  14.790
21384W        W88167  29.179  17.169  12.099
21385W        W88168  44.504  10.500  10.696
21386W        W88169  19.519  14.680   3.104
21387W        W88170   5.985  33.368  14.002
21388W        W88171   2.443  25.986   4.429
21389W        W88172  28.848   7.254  11.213
21390W        W88173  34.152  24.182  10.626
21391W        W88174  12.263  37.296   0.607
21392W        W88175  42.082  28.195  13.916
21393W        W88176  13.141  10.740   4.154
21394W        W88177   6.703  18.534   4.470
21395W        W88178  11.066  38.701   4.646
21396W        W88179  23.067  24.332   4.960
21397W        W88180  21.340  26.642  13.780
21398W        W88181   1.568  17.045  12.606
21399W        W88182  18.850  17.728  14.549
21400W        W88183  26.698  26.741   1.211
21401W        W88184  17.476  10.118   2.867
21402W        W88185   5.832  44.467   4.160
21403W        W88186  37.262  20.259   3.274
21404W        W88187  32.924  39.494   3.746
21405W        W88188  34.876  31.450  11.820
21406W        W88189  30.116  38.098  13.873
21407W        W88190  31.882  22.149  13.794
21408W        W88191   3.457  26.595   1.406
21409W        W88192  26.839  21.313  11.538
21410W        W88193  37.896  11.908  13.307
21411W        W88194  42.436   4.945  11.520
21412W        W88195  22.013   6.689   1.258
21413W        W88196  35.024  36.308   0.755
21414W        W88197  33.249  27.217   1.793
21415W        W88198   8.913  35.886  12.872
21416W        W88199   1.286  35.103  14.204
21417W        W88200  22.627   1.196   2.428
21418W        W88201  17.168   8.158  13.998
21419W        W88202  13.009  21.523   1.680
21420W        W88203  29.832   8.427  11.988
21421W        W88204   2.312  22.729   0.456
21422W        W88205  21.636  12.871   2.683
21423W        W88206  41.321  40.442   3.257
21424W        W88207   3.847  27.708  12.663
21425W        W88208  10.102   4.118   2.349
21426W        W88209  30.644  43.803  10.735
21427W        W88210  19.497  33.464   3.226
21428W        W88211  16.242  21.081  10.641
21429W        W88212   1.312  39.885  14.910
21430W        W88213  26.431  41.083   3.354
21431W        W88214  13.709  11.572  12.486
21432W        W88215  31.583  15.419   2.538
21433W        W88216  27.743  12.673   0.377
21434W        W88217  44.228  38.267  10.764
21435W        W88218  36.494   2.701   3.054
21436W        W88219  11.271  34.873   0.471
21437W        W88220  16.221  38.439  14.327
21438W        W88221   7.399  20.483   2.227
21439W        W88222  38.294  29.419  12.106
21440W        W88223  40.322  38.435  12.413
21441W        W88224  35.064  33.382  10.740
21442W        W88225  42.485  10.705  14.727
21443W        W88226  19.767   6.406   4.354
21444W        W88227   1.059  31.434  11.476
21445W        W88228  28.587  32.476  14.364
21446W        W88229  21.169  13.219   5.089
21447W        W88230  20.778  35.884   3.764
21448W        W88231  43.341  20.309   4.200
21449W        W88232  27.103  37.909   9.919
21450W        W88233  11.057  33.343   4.319
21451W        W88234  44.664  35.978   4.181
21452W        W88235   7.923  39.296  13.589
21453W        W88236  31.537  23.485  14.037
21454W        W88237  23.028   1.539   5.418
21455W        W88238  23.076   5.913  11.628
21456W        W88239   6.288  22.726  10.618
21457W        W88240   0.672  19.683   1.490
21458W        W88241   7.504  22.569   5.085
21459W        W88242   2.527  39.088   4.834
21460W        W88243  13.267  43.441  12.015
21461W        W88244  15.117  33.559   4.802
21462W        W88245  17.587  17.671   1.219
21463W        W88246  40.976  14.580   1.465
21464W        W88247   0.183  16.292  12.921
21465W        W88248  13.424  38.390   4.148
21466W        W88249   4.947  30.068   2.564
21467W        W88250  36.738  18.786  14.530
21468W        W88251  35.568  28.139   4.525
21469W        W88252   1.716  15.610  13.342
21470W        W88253  37.964  19.827   4.285
21471W        W88254   4.958  37.456   0.186
21472W        W88255  41.870  19.787   3.298
21473W        W88256  21.750   7.208  13.563
21474W        W88257  44.035  36.323   4.616
21475W        W88258   8.777  25.560  12.319
21476W        W88259  24.927  13.788   2.331
21477W        W88260  40.019  29.738  11.543
21478W        W88261  17.194   4.381  10.755
21479W        W88262  30.688  23.994  13.681
21480W        W88263  29.033   2.942   2.831
21481W        W88264  30.960  23.459   3.170
21482W        W88265  37.435  30.253  12.890
21483W        W88266  25.528   0.904   4.137
21484W        W88267  31.151  24.084   1.866
21485W        W88268  40.558  37.469  14.979
21486W        W88269   4.166  38.081   2.906
21487W        W88270  17.309   0.797  10.569
21488W        W88271  43.272  42.821   3.711
21489W        W88272  32.906  35.886   3.747
21490W        W88273  12.652  34.994  11.960
21491W        W88274  44.682  22.308   1.161
21492W        W88275  19.931  35.932   4.588
21493W        W88276  23.597  28.146  14.799
21494W        W88277  16.326  36.588  11.078
21495W        W88278   6.752  31.997  13.659
21496W        W88279  32.414   4.716  11.578
21497W        W88280  25.760  19.459  11.605
21498W        W88281  43.438  42.322   3.698
21499W        W88282  35.952  30.614   2.121
21500W        W88283  42.276  12.690   1.739
21501W        W88284  40.870  25.573  12.537
21502W        W88285  20.687  19.722  13.083
21503W        W88286  23.282  18.222  12.419
21504W        W88287   3.662   6.238  11.130
21505W        W88288   2.441   1.218   3.175
21506W        W88289  10.774  26.002  12.914
21507W        W88290   4.386  40.541  14.273
21508W        W88291  18.277  34.147  11.083
21509W        W88292  20.816  30.738  14.960
21510W        W88293   4.497  43.342   0.684
21511W        W88294  10.838  16.156   3.600
21512W        W88295  12.199  23.826   2.751
21513W        W88296  15.889  31.855   0.856
21514W        W88297  41.242   4.550   1.961
21515W        W88298   4.270  32.458  12.937
21516W        W88299  12.754  25.986   4.575
21517W        W88300  32.937   5.357  12.388
21518W        W88301  18.251  35.973  14.493
21519W        W88302  21.596  30.685   0.990
21520W        W88303  14.705  43.505   4.116
21521W        W88304  20.173  28.244   4.969
21522W        W88305   5.436  27.482   2.775
21523W        W88306  30.222   9.939  13.590
21524W        W88307  32.490  23.203   2.289
21525W        W88308   4.834  25.770  11.681
21526W        W88309  14.782  16.422  14.895
21527W        W88310  39.316   7.179  14.917
21528W        W88311  43.356   2.577   1.430
21529W        W88312  33.324  28.858  11.310
21530W        W88313   0.753   5.332  14.836
21531W        W88314   5.207  29.106   2.402
21532W        W88315  38.908  30.581  14.427
21533W        W88316  21.590  39.711   2.375
21534W        W88317   7.136   6.105  13.855
21535W        W88318   7.928  19.544   4.525
21536W        W88319  13.610   7.852   9.683
21537W        W88320   2.147   1.893  12.637
21538W        W88321  26.618  44.709  12.439
21539W        W88322  37.425  38.894   4.011
21540W        W88323  26.620  41.947  14.822
21541W        W88324  39.242  28.742   3.353
21542W        W88325  35.098  33.641   0.102
21543W        W88326  23.443  33.043   1.421
21544W        W88327  13.714   2.053  13.518
21545W        W88328   0.291   0.351  11.711
21546W        W88329  13.815  16.426  14.880
21547W        W88330  28.048  41.338   0.716
21548W        W88331  16.637   3.644  14.630
21549W        W88332  44.982  14.792  12.604
21550W        W88333   3.155  30.093   4.867
21551W        W88334  18.042   6.816   4.512
21552W        W88335   2.080  17.028   3.283
21553W        W88336  35.926  19.633   4.913
21554W        W88337  26.700  26.349  10.406
21555W        W88338  32.641  43.025  14.671
21556W        W88339  14.642  44.222   3.183
21557W        W88340  36.928  17.223   4.569
21558W        W88341  19.628   2.618   3.580
21559W        W88342  20.367  31.368   3.183
21560W        W88343  42.990  32.899   4.594
21561W        W88344  40.768  10.020  13.014
21562W        W88345   5.506  20.173  11.538
21563W        W88346  10.144  31.996   2.165
21564W        W88347  40.575   4.679   4.129
21565W        W88348  26.428  12.623  14.972
21566W        W88349  30.156  10.910  13.427
21567W        W88350  44.477  12.884   4.702
21568W        W88351  11.719  25.508  10.344
21569W        W88352  20.313  12.378   4.175
21570W        W88353  42.328  29.996   2.619
21571W        W88354   8.998  22.037  13.965
21572W        W88355   7.898  13.571  12.878
21573W        W88356   2.675   1.119   0.312
21574W        W88357  28.160  41.039   9.875
21575W        W88358  18.528  33.120  12.955
21576W        W88359  29.942  32.356  12.581
21577W        W88360  19.096  44.657   4.815
21578W        W88361  26.501  39.001  12.451
21579W        W88362  12.172   2.298   3.751
21580W        W88363  15.185  43.260   4.043
21581W        W88364   9.382  22.197  12.483
21582W        W88365  15.762  10.861  11.927
21583W        W88366  29.990  14.088   4.058
21584W        W88367   2.720  23.165  13.847
21585W        W88368  12.211  41.558   1.328
21586W        W88369  14.586  43.705   2.555
21587W        W88370  11.926  34.063   1.812
21588W        W88371  23.990   0.479   2.620
21589W        W88372   5.244   2.069   4.124
21590W        W88373  31.648   1.603  13.235
21591W        W88374  23.664  40.963  13.349
21592W        W88375  25.079  32.235   3.642
21593W        W88376   4.705   9.898   4.530
21594W        W88377  29.650   5.824   1.785
21595W        W88378  15.814   4.408  13.948
21596W        W88379   0.260   8.769  13.865
21597W        W88380   8.106  34.584   2.842
21598W        W88381   5.903   4.132   4.351
21599W        W88382  33.804  27.594   3.709
21600W        W88383  35.497  38.330   1.475
21601W        W88384  44.879  31.188   1.638
21602W        W88385  29.900  14.229  12.952
21603W        W88386  24.243   8.714   3.651
21604W        W88387  26.742  31.186   4.653
21605W        W88388  35.320  21.253  11.111
21606W        W88389  12.094   6.389  12.286
21607W        W88390  21.622   1.419   4.773
21608W        W88391  11.205  42.336   3.438
21609W        W88392  39.293  24.111   1.327
21610W        W88393  35.307  29.619   4.484
21611W        W88394  29.415  26.451   3.732
21612W        W88395  12.355   2.079   1.432
21613W        W88396  22.127  29.135  14.152
21614W        W88397  16.820  39.307  11.484
21615W        W88398  24.352  11.260  10.590
21616W        W88399  13.260  30.899   2.499
21617W        W88400   1.339  30.987   0.691
21618W        W88401  42.254  39.694   2.828
21619W        W88402  18.240  38.811  12.964
21620W        W88403  10.001  19.355  12.392
21621W        W88404  13.125  31.980  12.490
21622W        W88405  19.879  31.613   2.000
21623W        W88406  38.366   6.847  13.327
21624W        W88407  18.832   9.352   4.136
21625W        W88408   9.667  43.938   4.756
21626W        W88409  32.124  37.509  10.389
21627W        W88410  29.678   6.102   1.349
21628W        W88411  26.120  40.523   2.270
21629W        W88412  10.607  32.033  11.179
21630W        W88413  25.489  17.005   4.620
21631W        W88414  24.596  16.145   4.466
21632W        W88415  23.216   0.798   2.904
21633W        W88416  35.826   6.027  14.431
21634W        W88417  11.963  40.804   1.724
21635W        W88418  43.084  27.734   4.178
21636W        W88419  34.781  38.831  10.282
21637W        W88420   9.740  43.879  13.938
21638W        W88421  39.883  41.034   4.804
21639W        W88422  14.740  11.309  14.566
21640W        W88423  40.532  42.231  14.269
21641W        W88424   3.392   5.335   1.255
21642W        W88425  26.623  11.759   0.381
21643W        W88426  12.882  19.810   2.055
21644W        W88427  43.210  34.411   2.892
21645W        W88428  25.948  20.534   1.449
21646W        W88429  23.675  28.160  11.036
21647W        W88430   1.472   8.870   1.412
21648W        W88431   1.264  34.633  10.634
21649W        W88432  24.212  44.884  11.708
21650W        W88433  44.267  44.220  14.367
21651W        W88434  42.032  42.511   3.394
21652W        W88435  12.637  15.115   4.709
21653W        W88436   4.849  31.581  14.610
21654W        W88437  16.516   0.710   2.093
21655W        W88438  36.916  26.372  11.969
21656W        W88439   0.905  33.027  11.430
21657W        W88440  30.459  13.454   1.466
21658W        W88441  21.489  20.715  14.839
21659W        W88442  13.084  32.008   4.558
21660W        W88443  33.071  24.493  14.375
21661W        W88444  23.655  33.405  12.934
21662W        W88445  29.525  17.860  12.992
21663W        W88446  12.273  20.079  10.627
21664W        W88447  34.081  30.575  13.892
21665W        W88448  18.680  41.214  11.697
21666W        W88449   0.879   1.385  14.958
21667W        W88450   1.293  27.201  14.376
21668W        W88451   2.028  38.956   4.666
21669W        W88452  30.207  34.816  11.573
21670W        W88453  12.110   2.996   1.685
21671W        W88454  13.982  35.194   4.442
21672W        W88455  27.146  37.497   5.107
21673W        W88456  44.978  29.178  11.113
21674W        W88457  33.624   9.230   1.854
21675W        W88458  36.440  26.355  13.442
21676W        W88459  38.329  24.198   2.286
21677W        W88460  35.236  20.734   1.773
21678W        W88461  23.681  15.751  13.846
21679W        W88462  24.951   9.465  10.517
21680W        W88463   8.717   9.838   0.322
21681W        W88464  11.035  13.187   1.897
21682W        W88465  30.398   0.242  11.517
21683W        W88466   6.310   2.956  12.839
21684W        W88467   9.902  30.829   1.262
21685W        W88468  41.373  37.824  10.536
21686W        W88469  24.479  33.084  13.916
21687W        W88470  37.821  44.740  11.506
21688W        W88471  28.675  12.142   4.361
21689W        W88472  41.507  27.465   2.471
21690W        W88473  37.127  19.310   2.288
21691W        W88474   7.088  35.932  10.647
21692W        W88475  12.793  43.280  14.923
21693W        W88476  31.984  27.582  14.556
21694W        W88477   9.318  13.692   2.667
21695W        W88478  26.172  43.757   2.839
21696W        W88479  44.558  12.219  13.821
21697W        W88480   5.959  15.679  11.980
21698W        W88481   1.466  34.327   2.991
21699W        W88482   0.927  20.182   0.205
21700W        W88483  30.133  19.408  14.957
21701W        W88484  31.447  41.537   1.944
21702W        W88485  23.090  32.942   3.230
21703W        W88486  19.497  21.326   4.569
21704W        W88487  21.642  35.654  13.861
21705W        W88488  15.852  21.547  10.948
21706W        W88489  31.140  18.064  11.562
21707W        W88490  31.049  44.708   2.185
21708W        W88491  32.406  43.283   3.827
21709W        W88492  40.443  24.731  14.779
21710W        W88493  30.528   3.778  14.478
21711W        W88494  27.765  16.581   0.487
21712W        W88495  33.577  25.296  12.578
21713W        W88496  40.758   4.888   4.565
21714W        W88497  18.547   9.158  14.381
21715W        W88498  22.832  35.873  12.377
21716W        W88499   8.247  29.153   4.474
21717W        W88500  43.474  41.916  13.364
21718W        W88501  22.691  40.097  13.386
21719W        W88502  41.893  24.459  12.926
21720W        W88503   8.383   2.458  10.713
21721W        W88504  27.585  19.685  14.118
21722W        W88505   8.266   5.361  11.911
21723W        W88506  21.644  44.749   3.859
21724W        W88507  43.915  20.231  12.460
21725W        W88508   2.230  39.088  10.828
21726W        W88509  37.553  34.255  11.075
21727W        W88510  30.024  10.669  14.905
21728W        W88511  32.138  30.310   9.714
21729W        W88512  26.537  40.063   1.403
21730W        W88513  12.571  16.346   0.423
21731W        W88514  30.669   5.800  14.488
21732W        W88515  43.748  25.783   4.092
21733W        W88516  19.934  36.871   3.515
21734W        W88517   8.613   1.512  12.918
21735W        W88518  32.475  24.636  12.537
21736W        W88519  25.944  23.426   1.392
21737W        W88520  24.196  35.998   3.347
21738W        W88521  11.676  23.224   2.822
21739W        W88522  44.874  38.904  14.423
21740W        W88523  10.040  25.545  14.855
21741W        W88524  31.307  12.273   3.926
21742W        W88525   5.353  26.129   0.892
21743W        W88526  17.866   5.687  10.936
21744W        W88527  16.636  26.709  12.952
21745W        W88528  18.183  16.479  11.508
21746W        W88529  15.418   6.620  13.953
21747W        W88530  27.998  40.631  14.759
21748W        W88531  40.826   4.314  14.019
21749W        W88532  30.912  31.664   0.465
21750W        W88533  17.592  40.462  14.314
21751W        W88534  40.198  31.698   4.513
21752W        W88535   3.791  23.747   1.881
21753W        W88536  12.151  10.569   3.221
21754W        W88537  25.577  28.089  12.448
21755W        W88538   5.844  42.147   3.681
21756W        W88539  41.249  38.273   2.434
21757W        W88540   6.004   9.643   2.639
21758W        W88541   8.695   5.951   0.836
21759W        W88542  14.526  43.446  11.361
21760W        W88543  27.723  33.603   1.254
21761W        W88544   8.649  26.601  13.799
21762W        W88545  23.623  10.775   4.794
21763W        W88546  42.561   9.303  11.685
21764W        W88547   5.398  16.664  12.903
21765W        W88548  17.103  19.181   0.467
21766W        W88549  40.193  33.396  10.297
21767W        W88550  36.353  41.957  12.999
21768W        W88551  29.877  32.170  11.237
21769W        W88552  34.798  42.491   0.795
21770W        W88553  37.926  28.652   2.872
21771W        W88554  22.658  40.865  12.745
21772W        W88555  38.608  34.657   0.301
21773W        W88556  19.777  39.053  14.511
21774W        W88557  10.456  42.307  11.161
21775W        W88558  15.755  31.559   2.197
21776W        W88559   3.448  22.456  13.910
21777W        W88560  34.406  42.406  11.547
21778W        W88561  39.353  29.631   3.596
21779W        W88562  11.118  34.602   3.655
21780W        W88563   4.558  22.709  11.494
21781W        W88564  34.054  27.020   1.290
21782W        W88565  12.883  39.588   1.646
21783W        W88566  17.797  11.249   1.001
21784W        W88567  39.962  11.939   3.516
21785W        W88568   5.488  25.641  12.467
21786W        W88569  26.793   6.349   0.326
21787W        W88570  16.729  22.928   4.161
21788W        W88571  30.609  23.771   4.371
21789W        W88572   2.218  31.975   4.545
21790W        W88573  18.363  17.132  13.553
21791W        W88574   6.752  21.829  11.853
21792W        W88575  43.986  39.611  14.983
21793W        W88576  43.361  15.575  14.932
21794W        W88577  38.885  27.654   0.327
21795W        W88578  14.216  33.846  14.235
21796W        W88579   3.412  28.521  10.761
21797W        W88580  40.110  27.580   3.115
21798W        W88581  17.518  37.937  12.490
21799W        W88582  40.144  28.966  13.375
21800W        W88583  15.340  11.384  13.426
21801W        W88584  33.096  19.301   1.306
21802W        W88585  17.130  29.709   3.167
21803W        W88586  15.788   0.348  11.846
21804W        W88587  18.025  12.515  10.107
21805W        W88588  27.628  43.710  11.937
21806W        W88589  20.558   9.270   3.146
21807W        W88590  41.115   3.251   4.199
21808W        W88591   6.167  28.148  10.343
21809W        W88592   8.631   1.361  14.888
21810W        W88593  15.248  10.148  12.099
21811W        W88594  29.799  19.544   9.995
21812W        W88595   0.188  12.355  14.929
21813W        W88596   6.474  29.466  12.061
21814W        W88597   7.472  39.163  13.376
21815W        W88598   8.555  24.118   1.140
21816W        W88599  22.961   8.200   0.449
21817W        W88600  12.611   1.576   4.170
21818W        W88601  30.256  14.009   1.458
21819W        W88602  16.991  17.673   2.567
21820W        W88603   0.936  28.518  14.827
21821W        W88604  25.569  15.671   0.751
21822W        W88605  18.024  17.898  11.953
21823W        W88606  33.590  33.085   1.680
21824W        W88607  24.546  43.701   0.342
21825W        W88608  11.662  32.195   3.794
21826W        W88609  42.418  37.915  14.443
21827W        W88610  24.968  10.793   2.820
21828W        W88611  23.531  15.064  13.980
21829W        W88612  32.008   0.535   0.735
21830W        W88613  23.105  34.878  14.875
21831W        W88614   0.991  32.245   5.026
21832W        W88615  21.946  17.145   3.900
21833W        W88616  20.574   9.135  12.613
21834W        W88617  33.809   0.996  13.848
21835W        W88618  35.499  16.024  10.742
21836W        W88619  21.291  36.325   4.628
21837W        W88620  21.778  15.233  13.347
21838W        W88621  31.665  13.217   3.411
21839W        W88622  21.225  38.560   1.700
21840W        W88623  37.586  41.934   5.331
21841W        W88624  26.497  37.460  10.336
21842W        W88625  25.120   1.164   3.784
21843W        W88626  35.958  15.205  12.503
21844W        W88627  28.747  33.587   0.256
21845W        W88628  39.447   1.820   0.722
21846W        W88629  37.987  25.092  14.611
21847W        W88630  31.292  23.037   1.714
21848W        W88631  20.261  20.242   3.226
21849W        W88632  13.166  15.984   4.935
21850W        W88633  32.662   6.717   0.688
21851W        W88634   7.723   1.213   2.730
21852W        W88635   9.658  20.459   2.922
21853W        W88636  31.126   2.948  13.389
21854W        W88637   5.098  29.654   1.433
21855W        W88638  36.515  19.177   3.177
21856W        W88639  40.814  42.028   3.674
21857W        W88640  17.604  14.964  14.918
21858W        W88641  43.470  36.740  12.585
21859W        W88642  13.706  43.838  10.909
21860W        W88643  19.672   4.856   1.300
21861W        W88644  12.808  30.082  10.960
21862W        W88645  28.664  23.020   3.172
21863W        W88646  39.077  26.516   3.253
21864W        W88647  16.681  43.353  12.460
21865W        W88648   0.035  12.252   0.424
21866W        W88649  35.114  10.757   1.543
21867W        W88650  40.871  26.594  12.204
21868W        W88651   7.222  34.425  14.312
21869W        W88652  23.221  42.222  11.552
21870W        W88653  27.490  41.466  14.417
21871W        W88654   2.184  19.949   1.382
21872W        W88655  10.437  42.995  12.469
21873W        W88656  33.993  33.925   4.147
21874W        W88657  30.561  41.301  14.601
21875W        W88658  38.119   7.696  13.854
21876W        W88659  10.660   9.210   1.792
21877W        W88660  23.073  35.514   3.092
21878W        W88661  32.800  24.059  11.671
21879W        W88662  10.576  23.110  11.121
21880W        W88663  42.033   0.351  13.547
21881W        W88664  25.687  24.971  14.789
21882W        W88665  39.393  14.113   3.637
21883W        W88666   8.293  27.686   4.593
21884W        W88667  42.292   5.928  12.968
21885W        W88668  29.483  33.667   2.918
21886W        W88669  10.903  40.516   4.860
21887W        W88670  42.953  21.230  11.458
21888W        W88671  18.523  12.378   2.762
21889W        W88672  12.309  29.549  13.730
21890W        W88673  34.992  44.700   4.275
21891W        W88674  18.270   0.832  12.761
21892W        W88675  28.614  11.306  14.612
21893W        W88676  24.040  35.003   2.415
21894W        W88677  35.503  40.559   3.253
21895W        W88678  20.667   3.891  14.602
21896W        W88679  27.143  17.923   2.981
21897W        W88680  37.737   8.195   0.162
21898W        W88681   3.418   0.294   4.884
21899W        W88682  15.510   5.175  14.562
21900W        W88683  40.262  26.069   1.929
21901W        W88684   4.647  30.848   3.606
21902W        W88685  41.532  38.434  13.506
21903W        W88686   1.269  34.364  14.948
21904W        W88687  12.409  25.029  14.503
21905W        W88688  13.036  19.746  11.983
21906W        W88689  11.308  22.436  14.726
21907W        W88690  34.050  43.704   1.554
21908W        W88691   9.668   3.713   3.220
21909W        W88692  15.365  20.692   2.218
21910W        W88693  37.756   8.180  10.789
21911W        W88694  18.229   9.780   0.462
21912W        W88695   7.199  16.889   2.140
21913W        W88696  12.164  23.700  13.374
21914W        W88697  39.435  41.490   4.236
21915W        W88698   0.247  38.947   0.732
21916W        W88699  26.160  18.092  13.384
21917W        W88700  14.708   1.268   2.222
21918W        W88701  35.383  32.692   2.826
21919W        W88702  17.647   6.214   3.191
21920W        W88703  14.334  23.771   1.308
21921W        W88704  31.355  18.364  11.164
21922W        W88705  34.653   5.835  11.154
21923W        W88706   0.573  26.508   3.307
21924W        W88707  28.880   0.386  11.546
21925W        W88708   8.602  22.647  12.002
21926W        W88709  43.083  16.751   5.065
21927W        W88710   1.686  16.789  13.826
21928W        W88711  21.054  25.162   0.125
21929W        W88712  21.151  23.090   0.290
21930W        W88713  14.339  11.420   4.654
21931W        W88714  23.389   3.722  11.648
21932W        W88715  16.258   5.254   0.318
21933W        W88716   7.302  25.929  11.772
21934W        W88717  31.117  11.306   1.387
21935W        W88718   4.351  34.320   2.450
21936W        W88719  12.356  34.586   3.110
21937W        W88720  19.714  29.745   1.418
21938W        W88721  33.820   7.836   0.260
21939W        W88722  19.909  14.878   1.963
21940W        W88723  33.202  13.439  11.532
21941W        W88724  16.699  36.587   1.539
21942W        W88725  37.488   1.256   2.855
21943W        W88726  29.445  17.711  12.488
21944W        W88727  29.666  43.064   2.793
21945W        W88728  18.185  41.123  12.193
21946W        W88729   3.061   2.220   4.120
21947W        W88730   7.497  22.388  14.027
21948W        W88731  17.135   9.888   1.394
21949W        W88732   0.705  44.280   9.864
21950W        W88733  35.106   0.521  14.887
21951W        W88734  38.439  16.370   1.919
21952W        W88735   1.358   1.708  11.947
21953W        W88736   5.384  15.544  11.155
21954W        W88737  38.109  37.633  11.457
21955W        W88738  20.115   5.507  13.844
21956W        W88739  15.886  22.824  10.227
21957W        W88740  37.339   3.212   3.925
21958W        W88741  27.028  24.399   4.971
21959W        W88742  13.747  13.682  13.556
21960W        W88743  28.954  13.221   0.758
21961W        W88744  34.104  41.358  12.053
21962W        W88745  28.143  13.022   2.657
21963W        W88746   3.977   6.762   3.344
21964W        W88747  15.174  21.042   0.697
21965W        W88748  20.060   7.180   1.884
21966W        W88749  31.953  28.751   0.710
21967W        W88750  15.639  28.248  11.166
21968W        W88751  27.474  11.443   1.298
21969W        W88752  29.450   4.199   0.315
21970W        W88753   1.064  44.783  11.587
21971W        W88754   5.110  34.011  10.820
21972W        W88755  12.535  41.933  11.109
21973W        W88756  19.165  17.321   0.925
21974W        W88757  36.602  20.801   0.197
21975W        W88758  13.638  30.089  10.502
21976W        W88759  38.802  30.615   4.075
21977W        W88760  10.344  27.211   4.112
21978W        W88761  36.342  11.920   4.785
21979W        W88762  26.017  33.841  13.090
21980W        W88763  10.630  11.807   4.158
21981W        W88764  14.169  24.052   3.671
21982W        W88765  32.400  24.609  13.931
21983W        W88766  32.602   3.214  14.774
21984W        W88767  15.374  21.729   1.378
21985W        W88768  42.821  35.431   3.279
21986W        W88769   5.937  30.932  11.919
21987W        W88770  33.869  11.126   3.260
21988W        W88771  41.732   7.342   4.959
21989W        W88772  36.947  30.733   4.721
21990W        W88773  43.989  15.355  12.594
21991W        W88774  32.066   8.338  13.958
21992W        W88775  21.200  27.705   9.915
21993W        W88776  36.203  39.943  13.839
21994W        W88777   6.861   9.654   1.766
21995W        W88778  12.382  32.354  12.811
21996W        W88779  32.677  13.834  11.526
21997W        W88780  34.700  19.511   3.233
21998W        W88781  21.063  13.102  10.658
21999W        W88782  35.464  21.246  12.901
22000W        W88783  37.222  13.183  12.460
22001W        W88784  20.144   6.799   0.218
22002W        W88785   3.631   9.663  11.697
22003W        W88786   6.344  29.164   1.346
22004W        W88787  27.689  16.988  13.425
22005W        W88788  31.288  17.585   1.470
22006W        W88789   7.017   2.844   3.288
22007W        W88790  38.985  14.052   0.697
22008W        W88791  20.254  44.863   0.994
22009W        W88792  28.458  28.103  11.851
22010W        W88793  18.729   9.105   0.248
22011W        W88794  24.357   4.246   2.947
22012W        W88795   7.138  34.126   4.126
22013W        W88796  35.136  18.863   0.220
22014W        W88797  16.289  11.548   2.673
22015W        W88798  34.573  16.595   0.380
22016W        W88799  42.194  28.451   0.825
22017W        W88800  10.219   8.622  11.593
22018W        W88801  19.428  27.691   0.496
22019W        W88802  24.800  25.546  14.002
22020W        W88803   3.631  26.219  10.595
22021W        W88804  21.275  38.627  14.963
22022W        W88805  23.669  37.098  14.419
22023W        W88806  30.628   3.213  14.531
22024W        W88807  37.924   5.945  11.213
22025W        W88808  23.186  34.604   0.296
22026W        W88809   2.341  11.774   1.347
22027W        W88810  35.620  41.476   3.674
22028W        W88811  28.223  34.783   3.206
22029W        W88812  23.874  24.027   3.251
22030W        W88813  26.150  31.416   2.197
22031W        W88814  22.634  11.924   1.165
22032W        W88815  22.590  26.482  13.880
22033W        W88816  43.398  31.483   2.148
22034W        W88817  35.340   3.931  10.565
22035W        W88818  38.661  40.961   1.767
22036W        W88819  30.036  11.206   1.425
22037W        W88820  15.793  28.743  11.309
22038W        W88821  26.150  43.811   4.322
22039W        W88822  43.452  26.936  13.128
22040W        W88823  10.643  15.607  10.754
22041W        W88824  37.422   6.866  14.875
22042W        W88825  43.382   8.940   3.173
22043W        W88826   8.526   8.596   2.402
22044W        W88827  44.823  18.410  13.890
22045W        W88828  17.718   8.508   4.225
22046W        W88829  42.078  32.341  14.569
22047W        W88830  29.908  29.401   1.236
22048W        W88831  12.605  34.150   0.502
22049W        W88832  44.944  42.526   4.377
22050W        W88833   7.279  35.569   0.172
22051W        W88834  13.036  10.872  14.860
22052W        W88835  21.648  31.557   1.918
22053W        W88836  15.851  36.168   0.898
22054W        W88837  29.035  29.349  13.938
22055W        W88838  10.034  41.943  11.985
22056W        W88839  18.285  44.989   0.365
22057W        W88840  18.165  16.863  14.848
22058W        W88841   6.415  41.389  14.011
22059W        W88842  44.144  23.750  11.705
22060W        W88843  36.194   3.816   4.109
22061W        W88844  41.269  38.827  14.430
22062W        W88845   6.849  26.896   2.802
22063W        W88846  43.958  19.646   3.138
22064W        W88847  21.098   7.703   0.089
22065W        W88848  16.802  14.488  13.965
22066W        W88849   6.146  17.527   4.863
22067W        W88850  41.844  44.886   2.888
22068W        W88851  44.740  29.096   4.954
22069W        W88852  36.597   0.308  14.729
22070W        W88853   1.320  12.468  10.627
22071W        W88854  37.942  30.985  14.812
22072W        W88855  18.249  22.076   0.737
22073W        W88856  12.263  38.840   2.819
22074W        W88857  39.383  28.832  12.161
22075W        W88858  42.029  41.263   1.821
22076W        W88859  28.866   9.656   4.843
22077W        W88860  36.461  23.301  10.675
22078W        W88861  22.992  26.133   0.827
22079W        W88862  21.188  12.571   4.388
22080W        W88863  11.842  14.785  14.503
22081W        W88864  16.293  30.588  13.130
22082W        W88865  44.357  42.875  10.472
22083W        W88866  32.836  36.400  13.439
22084W        W88867  25.316   3.673  13.218
22085W        W88868   6.771  30.547   3.824
22086W        W88869  34.604  14.794   4.673
22087W        W88870  29.991  22.648  13.205
22088W        W88871  10.951   5.275  12.251
22089W        W88872  33.362  39.745   3.749
22090W        W88873  28.268  32.983  13.487
22091W        W88874   0.729  44.406  10.378
22092W        W88875  30.957  12.541  12.038
22093W        W88876  40.446   5.925  10.681
22094W        W88877  17.533  22.438   4.298
22095W        W88878  37.097   3.952  14.885
22096W        W88879  33.984  38.177  14.408
22097W        W88880   4.764  17.687  10.506
22098W        W88881  24.539   5.448   2.348
22099W        W88882  29.396  10.068   0.596
22100W        W88883  39.098  19.392  12.022
22101W        W88884  24.743  36.368  11.635
22102W        W88885  28.054   5.684  12.075
22103W        W88886  28.963   1.538  14.216
22104W        W88887   1.832  18.137  13.429
22105W        W88888  29.530  23.492   9.947
22106W        W88889  31.045  21.105   2.191
22107W        W88890  41.113  36.551  14.869
22108W        W88891  17.812  10.358   3.803
22109W        W88892  42.947  42.290   9.751
22110W        W88893   0.821  14.819   2.667
22111W        W88894  38.404  19.728   4.556
22112W        W88895  27.554   8.448  12.688
22113W        W88896   3.680  23.254   2.688
22114W        W88897   2.739  29.985   4.534
22115W        W88898  23.812  38.854   2.934
22116W        W88899  28.162  40.563   1.262
22117W        W88900   9.167   2.169  13.718
22118W        W88901  13.940  16.171  12.459
22119W        W88902   3.205  29.626   5.091
22120W        W88903  39.530  43.842  14.776
22121W        W88904   6.806  24.474   3.684
22122W        W88905   7.001  32.469   1.896
22123W        W88906  24.250  18.110   1.206
22124W        W88907  12.634  28.207   1.606
22125W        W88908  24.442  13.657   2.133
22126W        W88909   4.345  11.725   1.283
22127W        W88910  29.192  39.016  11.148
22128W        W88911  22.659  22.720  10.761
22129W        W88912  37.343  25.826   4.942
22130W        W88913   7.360  11.684  11.573
22131W        W88914  13.616   1.832   2.205
22132W        W88915  10.996  14.781  12.401
22133W        W88916  37.884  12.606   2.336
22134W        W88917  34.471   4.795  13.095
22135W        W88918  26.630  21.169   4.572
22136W        W88919   4.990  25.469   3.717
22137W        W88920   5.437  38.941   0.496
22138W        W88921  37.162  14.784  12.918
22139W        W88922  22.926   1.182   1.263
22140W        W88923  22.769  33.968  13.066
22141W        W88924  37.256  18.459  13.024
22142W        W88925  43.453   7.112   1.705
22143W        W88926  44.365  38.071  12.031
22144W        W88927   7.113  34.402  11.539
22145W        W88928  11.869  34.766   1.171
22146W        W88929   1.743  36.069  11.352
22147W        W88930  21.152  43.259   0.304
22148W        W88931  37.766   8.296   1.254
22149W        W88932  41.886  36.880   1.501
22150W        W88933  37.876   4.726   4.516
22151W        W88934  18.547  31.590  10.658
22152W        W88935  26.528  38.063   1.648
22153W        W88936   9.361  44.573  14.880
22154W        W88937  21.454  15.340   0.175
22155W        W88938  10.166   8.649  13.934
22156W        W88939  35.363  32.826   4.161
22157W        W88940   8.592  28.339  12.503
22158W        W88941   0.989  25.702   3.859
22159W        W88942  21.205  14.848   0.005
22160W        W88943   4.834  18.436   4.096
22161W        W88944   6.316   0.146  14.920
22162W        W88945   5.248   1.428  11.621
22163W        W88946   0.999  22.230  10.673
22164W        W88947  44.102   0.660   4.338
22165W        W88948   8.703  39.509  12.084
22166W        W88949   1.273   1.194   0.445
22167W        W88950  14.804  35.237   0.338
22168W        W88951  36.408  42.447  12.138
22169W        W88952   3.704  23.620  12.425
22170W        W88953  24.767  38.367  12.951
22171W        W88954  31.352  21.491  11.997
22172W        W88955  43.848  19.623   1.836
22173W        W88956  10.019  24.005  10.728
22174W        W88957  37.403   6.326   2.710
22175W        W88958  44.287  26.129  14.745
22176W        W88959  42.454  24.061   4.875
22177W        W88960  39.503  12.778   4.631
22178W        W88961   6.513  34.839   2.706
22179W        W88962   7.786   4.503   4.508
22180W        W88963  23.657  23.137   4.565
22181W        W88964  27.968  22.002   2.219
22182W        W88965  39.499  27.047   1.977
22183W        W88966  20.696  20.323   3.855
22184W        W88967  41.870  44.118   1.634
22185W        W88968  31.592  18.816  11.410
22186W        W88969   1.169  40.740  11.553
22187W        W88970   9.962  12.168   1.752
22188W        W88971  10.399   6.696  12.113
22189W        W88972   6.805  19.941   1.724
22190W        W88973   7.966   8.893  11.954
22191W        W88974  13.579  17.265  14.564
22192W        W88975  17.166  36.123  11.169
22193W        W88976  31.072  44.803  12.921
22194W        W88977  23.109   1.660   1.211
22195W        W88978  23.684   7.213  14.892
22196W        W88979  10.456  24.606   2.963
22197W        W88980  29.132  11.231  13.867
22198W        W88981  15.702  11.481  10.734
22199W        W88982   1.321  17.759  10.870
22200W        W88983  33.038  31.346   3.369
22201W        W88984   6.641  24.608   2.352
22202W        W88985  39.538  17.991   0.023
22203W        W88986  27.217  30.500  13.560
22204W        W88987  16.105   9.344  12.874
22205W        W88988  22.985   2.108  10.545
22206W        W88989  21.801  27.483  12.704
22207W        W88990  29.370  32.473   0.155
22208W        W88991   5.680  42.136   0.929
22209W        W88992  44.374   1.362   4.801
22210W        W88993  33.004   9.182  12.612
22211W        W88994  28.155  27.940   4.252
22212W        W88995  42.286  10.490   4.703
22213W        W88996  44.356   2.294   4.246
22214W        W88997  15.866  22.457  12.585
22215W        W88998  38.014   4.924  11.279
22216W        W88999  22.361  36.373   4.564
22217W        W89000   4.433  40.797   1.701
22218W        W89001  26.748  10.355   3.017
22219W        W89002   2.647  22.427  14.437
22220W        W89003  40.487  44.698  14.940
22221W        W89004  41.927   5.651   3.413
22222W        W89005  30.372  11.719  12.124
22223W        W89006  35.585   7.386  12.048
22224W        W89007  14.793  36.342   2.823
22225W        W89008  34.600  10.183   2.752
22226W        W89009  33.947  16.557   1.760
22227W        W89010  44.957  44.980   4.573
22228W        W89011  18.429  15.754  11.616
22229W        W89012  18.369  34.209  12.050
22230W        W89013  31.060   2.692   3.742
22231W        W89014  22.533  41.758   4.517
22232W        W89015  30.434   2.514   0.270
22233W        W89016  44.887   9.112  12.223
22234W        W89017  30.141  10.439  13.675
22235W        W89018   6.219  13.053   4.839
22236W        W89019  25.648  11.793  14.925
22237W        W89020  10.680  30.972   4.190
22238W        W89021   8.951   6.074  10.315
22239W        W89022  43.005  33.830  14.026
22240W        W89023   1.324  40.363   1.078
22241W        W89024  19.492   1.820   1.892
22242W        W89025  21.602  31.588  12.524
22243W        W89026  31.540  33.032   2.329
22244W        W89027   1.654  38.367  14.319
22245W        W89028  10.819  38.884  13.539
22246W        W89029  32.863  10.745  13.107
22247W        W89030   5.969  21.562  11.935
22248W        W89031  40.385  42.549   4.862
22249W        W89032  13.323  23.623   1.447
22250W        W89033  10.445   9.930   0.428
22251W        W89034   6.341  28.188  14.326
22252W        W89035  36.236  17.602   1.442
22253W        W89036  21.245   1.875  10.252
22254W        W89037  33.335  37.808  10.948
22255W        W89038  42.255  15.843   1.597
22256W        W89039   3.205   2.039   0.967
22257W        W89040   8.157  35.601  12.847
22258W        W89041  37.773  12.340  12.962
22259W        W89042  15.801   7.260   0.786
22260W        W89043   6.219  42.042  13.864
22261W        W89044  29.727  19.052  13.950
22262W        W89045  36.941  28.574  10.694
22263W        W89046  14.541  29.132   2.885
22264W        W89047  43.966  42.597  12.086
22265W        W89048  14.563  33.919  12.288
22266W        W89049  27.662   0.436  11.248
22267W        W89050   4.748  29.348   2.799
22268W        W89051  21.154  17.300  11.110
22269W        W89052  37.313   2.355   0.264
22270W        W89053  33.138   1.906  13.598
22271W        W89054  20.396  27.963  13.391
22272W        W89055  10.833   6.417  13.530
22273W        W89056  16.112  13.869   2.412
22274W        W89057  27.393  11.554   2.284
22275W        W89058  25.520  31.480  10.706
22276W        W89059  30.665  14.207  14.536
22277W        W89060  30.710  31.628   3.182
22278W        W89061  12.126  33.879   0.693
22279W        W89062  23.008  42.853   2.387
22280W        W89063  18.464   6.906   2.802
22281W        W89064  42.542   2.944   2.398
22282W        W89065  41.891   3.991   4.008
22283W        W89066  29.074  11.327  10.889
22284W        W89067   1.311   4.388   4.099
22285W        W89068   3.661  43.449   2.414
22286W        W89069  44.525  38.091   3.715
22287W        W89070  42.488  19.793   2.272
22288W        W89071  34.782  42.405   3.267
22289W        W89072  20.891  34.095  11.163
22290W        W89073   2.803  11.678   3.139
22291W        W89074  43.432  21.670  10.969
22292W        W89075  37.186  43.916   1.721
22293W        W89076  18.100   5.958   3.890
22294W        W89077  17.246  19.286  11.599
22295W        W89078  34.496   7.202   2.692
22296W        W89079   1.845  40.057  10.978
22297W        W89080  20.954  39.244  11.557
22298W        W89081   4.270  30.469  13.426
22299W        W89082   1.352   7.330  10.594
22300W        W89083  21.035  29.940  13.889
22301W        W89084  29.477  33.433   2.288
22302W        W89085  32.153  40.968   4.104
22303W        W89086   6.157  27.268   2.287
22304W        W89087  38.535  20.279  10.519
22305W        W89088  44.326  30.621   1.380
22306W        W89089  21.235   2.205  12.121
22307W        W89090  19.494   5.503   1.173
22308W        W89091   9.964   3.383   4.548
22309W        W89092  15.913   2.867   1.971
22310W        W89093  24.504  20.025  14.979
22311W        W89094  12.803   0.747  11.478
22312W        W89095  29.427   1.274  14.348
22313W        W89096   8.856  37.335   0.364
22314W        W89097  44.907  44.346  10.063
22315W        W89098  33.197  42.830   4.061
22316W        W89099  27.250   3.747   0.579
22317W        W89100  36.513  13.683  14.871
22318W        W89101  34.059  21.779  13.730
22319W        W89102  27.247  39.006   1.246
22320W        W89103   8.458  35.678  10.712
22321W        W89104   8.136  28.425   0.483
22322W        W89105   1.276  24.953  12.954
22323W        W89106  31.255  34.714  14.517
22324W        W89107  22.663   0.303   2.292
22325W        W89108  17.561  14.288  14.384
22326W        W89109   6.674  13.459   1.597
22327W        W89110  19.240  21.442   4.145
22328W        W89111  11.141   4.694   3.600
22329W        W89112   1.928  40.963  12.060
22330W        W89113   3.206  40.886   2.716
22331W        W89114  25.509  11.994   4.558
22332W        W89115  19.157   2.149  14.054
22333W        W89116   1.317  30.825  14.340
22334W        W89117  17.096  34.481  14.310
22335W        W89118  22.984  42.506   1.635
22336W        W89119  23.091  40.848  13.502
22337W        W89120  12.813  11.337   2.313
22338W        W89121  29.482  14.053   0.695
22339W        W89122  26.973  19.241  12.081
22340W        W89123  27.955  39.500  14.032
22341W        W89124  17.542  31.164  12.486
22342W        W89125  23.525  42.937   3.224
22343W        W89126  12.400  21.102  12.005
22344W        W89127  33.830  11.690  11.423
22345W        W89128   7.316  38.564  10.700
22346W        W89129  36.603  33.103  10.754
22347W        W89130  14.125  21.263   1.919
22348W        W89131  31.922  22.460   2.380
22349W        W89132  11.515  44.940   2.855
22350W        W89133  12.572  30.929  11.266
22351W        W89134  40.872  30.196  13.655
22352W        W89135   5.437  18.926   1.375
22353W        W89136   3.930  21.239  10.069
22354W        W89137  30.057  14.424  11.566
22355W        W89138  12.245   1.790   3.639
22356W        W89139  16.771  30.422  13.139
22357W        W89140  36.669   2.660   0.871
22358W        W89141  43.489  16.963   4.188
22359W        W89142  27.999   8.914  12.046
22360W        W89143  11.270  32.450  11.473
22361W        W89144  38.222  28.096  12.053
22362W        W89145  32.862   8.405  11.534
22363W        W89146  10.702  14.465   1.287
22364W        W89147  20.927  14.866  10.732
22365W        W89148  12.211  17.620  12.022
22366W        W89149  28.898   6.986   4.643
22367W        W89150  27.256  33.113  11.081
22368W        W89151  25.567  13.602   2.326
22369W        W89152   8.710  42.721   0.848
22370W        W89153  42.746  14.235  11.280
22371W        W89154  37.736  22.536  12.136
22372W        W89155  10.186  37.359  12.811
22373W        W89156  19.023   6.661   1.968
22374W        W89157  15.025  14.216   3.986
22375W        W89158  25.620  11.307  12.108
22376W        W89159   5.215  41.331  12.506
22377W        W89160  44.308   8.289   1.723
22378W        W89161  11.594  36.811   1.027
22379W        W89162   4.702  27.820   1.360
22380W        W89163  16.573  34.588  11.110
22381W        W89164  38.884  23.443  12.977
22382W        W89165  39.741   4.733  11.559
22383W        W89166  17.721  23.666   3.723
22384W        W89167  24.648  26.460  12.032
22385W        W89168  10.315   6.194  13.301
22386W        W89169  43.922   6.955   1.437
22387W        W89170  20.716  32.388  12.165
22388W        W89171  24.549  18.723   0.368
22389W        W89172  42.041  13.572  13.028
22390W        W89173  17.315  29.971   0.954
22391W        W89174  30.934  21.840  13.423
22392W        W89175  13.714  32.110  10.607
22393W        W89176  25.367  24.346  11.453
22394W        W89177   5.222  12.183  10.893
22395W        W89178  25.631  27.480  14.312
22396W        W89179   1.979  22.510  12.934
22397W        W89180  35.763  44.913   2.279
22398W        W89181  27.016  11.830   1.973
22399W        W89182  26.509   8.139   1.582
22400W        W89183  32.494  29.285  10.648
22401W        W89184   6.513  24.535  12.401
22402W        W89185  24.341  23.712   4.089
22403W        W89186  19.348  42.398  12.440
22404W        W89187   3.858  43.006  10.356
22405W        W89188  27.518  14.588  13.407
22406W        W89189  34.098  15.409  10.771
22407W        W89190  29.973  11.460  14.494
22408W        W89191  26.557  31.399  12.476
22409W        W89192  11.029   5.645   3.740
22410W        W89193  31.584  29.688  14.827
22411W        W89194  12.824  38.577   0.666
22412W        W89195  35.367  29.128   4.636
22413W        W89196  15.845  15.651   2.714
22414W        W89197   7.074   8.831  12.438
22415W        W89198  19.147  24.608  12.976
22416W        W89199  10.338   8.912   0.302
22417W        W89200  33.711  31.391  11.104
22418W        W89201   2.261  23.971  13.559
22419W        W89202  19.312  35.631  13.443
22420W        W89203  36.388   2.745   1.663
22421W        W89204   6.608  30.882  10.615
22422W        W89205  18.313  10.181   3.986
22423W        W89206  14.817  32.353  11.147
22424W        W89207  29.896   0.526   0.386
22425W        W89208  10.564  44.220  14.766
22426W        W89209  32.848  17.076   2.293
22427W        W89210   1.934   2.752   1.796
22428W        W89211   9.171  26.008   3.818
22429W        W89212  20.506  43.233  13.477
22430W        W89213  39.037  40.404  11.677
22431W        W89214  22.952  26.147  10.606
22432W        W89215   8.477   7.571   9.638
22433W        W89216   0.110  32.350  12.624
22434W        W89217  13.438  35.564  11.943
22435W        W89218  16.558  22.432  13.848
22436W        W89219  22.487  25.687  11.370
22437W        W89220  44.372  39.384  14.670
22438W        W89221  34.413  31.536  13.806
22439W        W89222  17.418  32.422   1.716
22440W        W89223  26.877  22.429  12.200
22441W        W89224   1.020   4.679  13.559
22442W        W89225   7.766  30.935   1.917
22443W        W89226  19.312  44.512  11.117
22444W        W89227  30.078  42.818   2.094
22445W        W89228   7.790   7.637  12.219
22446W        W89229  34.107  39.208  14.532
22447W        W89230  26.228  41.540  12.057
22448W        W89231  30.539  45.000  11.081
22449W        W89232   5.220  20.751  13.320
22450W        W89233  10.880   8.245   0.425
22451W        W89234  42.570   4.791  14.036
22452W        W89235   8.611   4.497   4.132
22453W        W89236  29.549   6.156  11.485
22454W        W89237   6.876  25.667   1.871
22455W        W89238   8.904  15.032   2.710
22456W        W89239  32.003  40.645  12.806
22457W        W89240  43.384  21.757   3.324
22458W        W89241  39.425   8.851  12.529
22459W        W89242  34.328  38.101  10.721
22460W        W89243  13.867  22.165   4.164
22461W        W89244  29.543  39.099   1.201
22462W        W89245  13.736  38.943   3.113
22463W        W89246  17.737  13.697  10.680
22464W        W89247  19.262  26.727   3.644
22465W        W89248  42.758  39.144   4.001
22466W        W89249   6.325  44.553  13.344
22467W        W89250  11.765  14.825  13.417
22468W        W89251  23.813  16.709   1.444
22469W        W89252  17.327   6.017  11.448
22470W        W89253  40.518  34.904  12.077
22471W        W89254  23.209  20.840   0.129
22472W        W89255  35.461  40.094   2.604
22473W        W89256  28.463  36.191  13.438
22474W        W89257   0.197  24.917  11.591
22475W        W89258  11.523   1.447   1.040
22476W        W89259   6.722  40.219  12.393
22477W        W89260  32.076  16.349   0.626
22478W        W89261  39.890  10.160  13.387
22479W        W89262  14.218  27.606   1.893
22480W        W89263  20.642  42.513   0.393
22481W        W89264  25.428   7.945  13.412
22482W        W89265  27.136  25.639  13.274
22483W        W89266  11.295  44.768   1.465
22484W        W89267  14.138   3.238  11.059
22485W        W89268   0.360  24.753   1.292
22486W        W89269  30.526   7.745   0.404
22487W        W89270  23.567  35.050  10.867
22488W        W89271   9.778  11.394   0.445
22489W        W89272   8.391  37.088  13.421
22490W        W89273  20.208  41.801  11.613
22491W        W89274  17.706  37.137   1.644
22492W        W89275  40.356   7.266   2.849
22493W        W89276   0.742   6.154   2.629
22494W        W89277   1.023  34.491   4.396
22495W        W89278   9.120  23.154  14.937
22496W        W89279   7.762  27.593   2.891
22497W        W89280  29.080  24.464  10.595
22498W        W89281  13.244  42.386  14.083
22499W        W89282  36.088   9.826  13.446
22500W        W89283  23.579  24.308   4.834
22501W        W89284  14.628   1.342  12.496
22502W        W89285  18.396  43.254   2.118
22503W        W89286  30.653   6.910   3.180
22504W        W89287  43.832  10.886   0.555
22505W        W89288   6.242   9.834  11.344
22506W        W89289  42.413  33.936  12.572
22507W        W89290  38.382  20.110   0.762
22508W        W89291  33.165  24.545  11.626
22509W        W89292   1.912  38.025   4.577
22510W        W89293  38.888   8.931  14.057
22511W        W89294  36.589  34.651   4.145
22512W        W89295  32.406   2.532  11.990
22513W        W89296   9.851  21.293  11.212
22514W        W89297   3.918  43.980   0.533
22515W        W89298  21.086  35.223  12.217
22516W        W89299  30.474  26.785  12.591
22517W        W89300  21.024  27.442  12.893
22518W        W89301   7.346  27.520   4.145
22519W        W89302  40.441   0.557   3.133
22520W        W89303  24.930   0.463  13.444
22521W        W89304  32.297  20.614  13.881
22522W        W89305  10.787  35.824   1.248
22523W        W89306  19.806  12.681   4.556
22524W        W89307  40.973  33.437   2.933
22525W        W89308  29.223  36.056   1.804
22526W        W89309  27.541  37.912  10.615
22527W        W89310  15.817   4.434  11.964
22528W        W89311  26.316  15.669   4.917
22529W        W89312   8.677   8.967  14.584
22530W        W89313  14.664  15.167  13.116
22531W        W89314  29.390   9.437  14.778
22532W        W89315  40.459  36.504  11.893
22533W        W89316  16.895  16.164  14.504
22534W        W89317  28.278   6.963   1.281
22535W        W89318  24.606  32.040   3.745
22536W        W89319  18.256  17.713  11.503
22537W        W89320  24.535  43.550  11.104
22538W        W89321  16.092  28.743   3.786
22539W        W89322  12.737  16.190  10.392
22540W        W89323  11.760  22.424   4.104
22541W        W89324  34.038  37.038   1.708
22542W        W89325  42.080  37.914   4.229
22543W        W89326  38.305   3.662   2.313
22544W        W89327  35.669  13.594   3.310
22545W        W89328   6.414  39.356  14.810
22546W        W89329   0.468   8.838   0.961
22547W        W89330  29.454  19.223   1.593
22548W        W89331  11.910  22.756   3.731
22549W        W89332  31.009  37.486   2.189
22550W        W89333  16.396  10.285  14.857
22551W        W89334  44.401  25.058   2.237
22552W        W89335   4.166  14.114   0.012
22553W        W89336  23.452  14.362   4.593
22554W        W89337  23.864  17.041   5.080
22555W        W89338   1.478   4.675   0.802
22556W        W89339  37.315  43.458  14.605
22557W        W89340  20.849  18.886  11.141
22558W        W89341  13.256  24.268   2.656
22559W        W89342   1.469  23.393  12.995
22560W        W89343   9.186   9.444   1.679
22561W        W89344  43.332  37.256   3.345
22562W        W89345  35.121  22.124  13.382
22563W        W89346  44.328  11.557   4.145
22564W        W89347  36.499  39.135  14.442
22565W        W89348  11.414  27.375   0.466
22566W        W89349  11.009  29.207   0.888
22567W        W89350  17.096   5.920   4.917
22568W        W89351  39.768  44.654   4.042
22569W        W89352   2.936   2.291   1.368
22570W        W89353  25.139  10.427   1.422
22571W        W89354  21.988  26.100  12.529
22572W        W89355  43.678   3.388   1.795
22573W        W89356   7.584  38.031  12.038
22574W        W89357  18.236  10.439  14.500
22575W        W89358   8.646  37.804  10.697
22576W        W89359  16.440  15.785   3.221
22577W        W89360  44.449  37.853   0.021
22578W        W89361  32.038   5.345  11.678
22579W        W89362  29.958  42.834  12.430
22580W        W89363   4.663  10.309   4.207
22581W        W89364  36.566  23.900   2.183
22582W        W89365  15.636  19.445   0.250
22583W        W89366  35.619  16.138  14.774
22584W        W89367  19.700  28.192   0.439
22585W        W89368  32.427   7.945   1.810
22586W        W89369  27.599  27.469   4.748
22587W        W89370  19.224  20.241  11.902
22588W        W89371  33.010  23.565  11.436
22589W        W89372  32.111   2.528   1.268
22590W        W89373   0.741  22.582  10.938
22591W        W89374  12.097   1.880  14.514
22592W        W89375  38.260   8.221   0.373
22593W        W89376  39.733  30.771  12.384
22594W        W89377  28.734  29.923   2.278
22595W        W89378  43.446  14.219  11.531
22596W        W89379  18.123  28.096  14.337
22597W        W89380  26.118  10.109   0.727
22598W        W89381  18.695   9.879   4.345
22599W        W89382   1.865   0.655  12.493
22600W        W89383   7.691  29.098   0.020
22601W        W89384  33.502  24.603   3.726
22602W        W89385  40.932  42.557   3.657
22603W        W89386  23.595   6.736  11.119
22604W        W89387  38.739  27.581   1.847
22605W        W89388  11.955  23.977  14.053
22606W        W89389   4.644   4.206  11.629
22607W        W89390   2.767   3.833  14.201
22608W        W89391   7.387  28.781   4.637
22609W        W89392  14.537  15.110  12.130
22610W        W89393   7.596  35.575   4.795
22611W        W89394  36.558  43.306   0.237
22612W        W89395  31.237  27.005  10.615
22613W        W89396  15.793  27.759   2.303
22614W        W89397  16.723  16.598  12.083
22615W        W89398  21.750  34.381   0.234
22616W        W89399  36.865  14.335   1.065
22617W        W89400  43.368  42.877   2.315
22618W        W89401  11.217  13.849  11.577
22619W        W89402  44.439  33.046   2.735
22620W        W89403  28.527  36.839   4.506
22621W        W89404  18.361  32.035   4.125
22622W        W89405  17.095  20.791  11.107
22623W        W89406   9.738   9.301  12.938
22624W        W89407  23.490  10.947   2.676
22625W        W89408   1.515  16.203  13.542
22626W        W89409  37.632  15.134  14.730
22627W        W89410  40.490  31.674   4.956
22628W        W89411   2.742  11.871  12.877
22629W        W89412  21.327  18.057   0.178
22630W        W89413   7.535  23.497   3.228
22631W        W89414   0.581  10.682   5.074
22632W        W89415  27.700  29.710  12.150
22633W        W89416  22.639  34.286  11.074
22634W        W89417  29.380  37.476   4.121
22635W        W89418  24.248  27.357   1.801
22636W        W89419   7.727  15.815  13.978
22637W        W89420  33.330  27.576   0.951
22638W        W89421  44.450  12.070   4.185
22639W        W89422  15.510   7.102   3.544
22640W        W89423   8.228  44.878  11.989
22641W        W89424  43.464  12.074   2.784
22642W        W89425  22.345  20.087  11.186
22643W        W89426  12.733  29.955  11.457
22644W        W89427  41.014   6.330   2.097
22645W        W89428  39.034  11.457   2.630
22646W        W89429  19.267  18.270   4.683
22647W        W89430  14.664   1.786   4.663
22648W        W89431  27.972  25.041   1.976
22649W        W89432   1.424  27.987  13.833
22650W        W89433  23.458  28.862   1.743
22651W        W89434   2.748  26.664   2.202
22652W        W89435   4.943  24.576   0.143
22653W        W89436  29.343   0.150   1.353
22654W        W89437  17.807  28.999  11.584
22655W        W89438  14.551  19.095   2.892
22656W        W89439   5.150  17.002  12.035
22657W        W89440  28.041  31.579   2.654
22658W        W89441   5.363  42.955   3.736
22659W        W89442  31.435  33.494  12.028
22660W        W89443  10.186  23.999  12.964
22661W        W89444  43.497   8.248  12.901
22662W        W89445  25.677  39.057   2.323
22663W        W89446  31.458   0.333  14.290
22664W        W89447  15.610  24.556   4.875
22665W        W89448  37.808  41.382  14.763
22666W        W89449  19.796   8.791  14.509
22667W        W89450   0.025  33.577   1.430
22668W        W89451  26.134  10.241  14.827
22669W        W89452  36.516   3.518   1.918
22670W        W89453  37.050  35.896  10.654
22671W        W89454  35.394  25.511  13.714
22672W        W89455  23.883   8.875  11.872
22673W        W89456  42.379   0.483   3.207
22674W        W89457  38.858   2.744   3.208
22675W        W89458  17.674  32.501   1.254
22676W        W89459  15.314  44.013   0.353
22677W        W89460  20.585  28.140   2.866
22678W        W89461  22.176   0.503   2.303
22679W        W89462  27.280   4.000   1.943
22680W        W89463  13.669  18.605   2.950
22681W        W89464   0.781  16.011   1.837
22682W        W89465  18.392  44.789   4.229
22683W        W89466  42.402  26.507   4.395
22684W        W89467  40.899  35.332   3.280
22685W        W89468  24.247  33.429  11.686
22686W        W89469  42.420  13.464   3.200
22687W        W89470   5.292  31.133   0.184
22688W        W89471  39.580  17.232   2.271
22689W        W89472  11.168   4.815  13.987
22690W        W89473  14.325  12.795   2.803
22691W        W89474  35.462  35.618   3.737
22692W        W89475  33.119  30.299  14.966
22693W        W89476   8.840   9.757   1.879
22694W        W89477  24.834  25.562  14.905
22695W        W89478  15.147   1.494  12.537
22696W        W89479   9.829  16.790   0.783
22697W        W89480   9.149  10.705  13.421
22698W        W89481  30.673   4.708  10.585
22699W        W89482  37.864  18.325  13.989
22700W        W89483  33.037  28.654   2.661
22701W        W89484  41.846   1.945  11.028
22702W        W89485  31.580  17.472  12.047
22703W        W89486   3.032  33.684   2.384
22704W        W89487  21.960  34.634   3.598
22705W        W89488  18.078  22.551   4.926
22706W        W89489   0.595  15.636   5.282
22707W        W89490  31.686   5.148   2.300
22708W        W89491  20.559  22.158  13.045
22709W        W89492   9.256  34.155  12.577
22710W        W89493  15.156   4.120   2.089
22711W        W89494  22.132  25.111  13.604
22712W        W89495  30.567   5.414  11.201
22713W        W89496  17.614  22.876   2.702
22714W        W89497  34.191  27.156  11.586
22715W        W89498  39.368   7.145   4.432
22716W        W89499  29.487  26.582   1.815
22717W        W89500  25.465   4.801   1.142
22718W        W89501  15.927  32.173   3.698
22719W        W89502  13.246  15.594  11.127
22720W        W89503  40.532  27.782   3.429
22721W        W89504  31.918  35.356   0.357
22722W        W89505   1.292  10.016  10.248
22723W        W89506  14.834  43.235  12.368
22724W        W89507  30.190  19.560  14.011
22725W        W89508  31.888  26.714  14.533
22726W        W89509  27.962  19.799  11.503
22727W        W89510   9.663   1.704   1.728
22728W        W89511  13.588  44.003  13.769
22729W        W89512  20.142  14.983  12.055
22730W        W89513   3.268  34.857  10.969
22731W        W89514  42.799  26.735   4.084
22732W        W89515  39.092   8.482  14.924
22733W        W89516  33.496  17.709   3.452
22734W        W89517   3.317  13.796  10.689
22735W        W89518   5.330  12.318   0.427
22736W        W89519   4.021  25.067   2.772
22737W        W89520  21.624  41.012  12.004
22738W        W89521  17.799  33.591  12.632
22739W        W89522  40.117  43.892  11.676
22740W        W89523  32.630   8.820   1.216
22741W        W89524   4.429  38.124   0.787
22742W        W89525  44.078  43.730   0.791
22743W        W89526   2.859   7.964   0.829
22744W        W89527  43.347  34.771   3.680
22745W        W89528  10.854   3.215   0.637
22746W        W89529  33.007  38.098  10.522
22747W        W89530  15.587  19.473   2.853
22748W        W89531  43.749  12.369   0.749
22749W        W89532  42.475  32.924  13.985
22750W        W89533  34.563  26.530   0.049
22751W        W89534  30.070  11.420   2.327
22752W        W89535  42.300  42.379  14.667
22753W        W89536  12.608  10.177   1.047
22754W        W89537  29.510  13.719   1.926
22755W        W89538  43.622   9.497   0.410
22756W        W89539   2.998  16.487   3.194
22757W        W89540  13.751  42.621  11.177
22758W        W89541  30.036  17.752  11.897
22759W        W89542  19.638  17.800  12.795
22760W        W89543  12.625  29.205  13.480
22761W        W89544  22.039   3.436   0.176
22762W        W89545  14.575  22.430  13.762
22763W        W89546  17.248  39.749  11.138
22764W        W89547  17.153  36.780   2.358
22765W        W89548  42.381  24.735  14.603
22766W        W89549  26.128  32.442  12.073
22767W        W89550  32.434  22.336   2.255
22768W        W89551  14.345   9.452   3.582
22769W        W89552  21.563  34.846   2.714
22770W        W89553  44.490  25.144  12.432
22771W        W89554  13.328  24.700  14.907
22772W        W89555   0.965   5.783   3.445
22773W        W89556  43.426  26.250  14.641
22774W        W89557  19.108  17.890  13.426
22775W        W89558  17.595  33.504   2.217
22776W        W89559   5.530  37.400  12.871
22777W        W89560  15.626  44.999  14.271
22778W        W89561  15.258  25.210  12.415
22779W        W89562  11.630  24.339   2.182
22780W        W89563  20.315  43.601  13.794
22781W        W89564  44.886   2.371   0.793
22782W        W89565  44.505   5.958  14.999
22783W        W89566   9.635  23.855   0.459
22784W        W89567  27.503  17.984   0.610
22785W        W89568   6.439   4.804   2.345
22786W        W89569   5.762  26.768  10.720
22787W        W89570  26.897  32.731  11.180
22788W        W89571   3.669  22.594  14.364
22789W        W89572   7.669   5.345  10.755
22790W        W89573  23.948   9.758  12.478
22791W        W89574  26.100  17.220  14.735
22792W        W89575  28.917  28.058  13.111
22793W        W89576  38.363  40.364   0.044
22794W        W89577  24.257  15.757  12.405
22795W        W89578  31.678  26.519   4.158
22796W        W89579  14.031  22.277   2.455
22797W        W89580   0.393  38.298   2.204
22798W        W89581  33.092  28.365  12.607
22799W        W89582  28.174  31.208  10.303
22800W        W89583  32.510  31.792   4.990
22801W        W89584  35.152  12.625   2.215
22802W        W89585   5.395  43.945  13.509
22803W        W89586  17.577  28.697  14.824
22804W        W89587  16.542  26.050   4.733
22805W        W89588   5.947  39.055  10.698
22806W        W89589  16.391   1.296  11.939
22807W        W89590  40.964  23.102  10.687
22808W        W89591  38.783   8.128  13.454
22809W        W89592  27.446   2.916  12.930
22810W        W89593  32.190  33.451   0.811
22811W        W89594   0.757  34.119   2.621
22812W        W89595   6.774   9.833  10.650
22813W        W89596  34.850  30.599  14.556
22814W        W89597  13.155  15.481  10.645
22815W        W89598  15.708  10.060  13.509
22816W        W89599  36.415   4.247  14.443
22817W        W89600  12.196  36.550   5.371
22818W        W89601  13.388  25.276   4.902
22819W        W89602  11.308  18.302  14.009
22820W        W89603  21.532  34.682   4.270
22821W        W89604  33.434  39.269  12.491
22822W        W89605   0.381  26.679  14.543
22823W        W89606  31.871   9.708  11.923
22824W        W89607  41.100   1.509  11.201
22825W        W89608  18.469  25.018  14.214
22826W        W89609  10.311   0.510  13.589
22827W        W89610  16.659  44.758   4.558
22828W        W89611  10.660  35.475  12.582
22829W        W89612  44.982  31.485  13.480
22830W        W89613  11.886  18.930   4.772
22831W        W89614  43.201  28.392  12.022
22832W        W89615   9.436   4.011   4.157
22833W        W89616   5.503  42.801   4.923
22834W        W89617  27.632  19.072  13.451
22835W        W89618  21.554  38.524   0.394
22836W        W89619   7.633  27.667   0.355
22837W        W89620   1.205   4.135  12.950
22838W        W89621  15.085  25.759   1.742
22839W        W89622   4.740  35.385   0.204
22840W        W89623   5.224  11.267   1.973
22841W        W89624   7.329   6.799   1.339
22842W        W89625  24.581  39.059  12.692
22843W        W89626  35.119  28.657  14.333
22844W        W89627  13.706  27.586   0.675
22845W        W89628  44.149  29.420   3.366
22846W        W89629  27.049   1.770   3.124
22847W        W89630  19.764  24.629   0.780
22848W        W89631  32.594  12.374  12.216
22849W        W89632  28.126  16.802   4.978
22850W        W89633  44.415  20.017   4.957
22851W        W89634  35.078  40.751  13.780
22852W        W89635  17.201  39.240  11.133
22853W        W89636   7.701   2.374  14.483
22854W        W89637   7.408  30.445  10.709
22855W        W89638   3.685   0.955  14.118
22856W        W89639   8.235  31.992   0.985
22857W        W89640   7.886  12.128  13.018
22858W        W89641  32.518  21.616   1.632
22859W        W89642  19.606  24.944  12.890
22860W        W89643   4.923   7.757   3.319
22861W        W89644  43.070  37.285   2.593
22862W        W89645  28.873  21.016   4.581
22863W        W89646  27.606  14.406   0.890
22864W        W89647   5.859  18.638   3.815
22865W        W89648  13.280   4.562  14.490
22866W        W89649  27.963  14.300   0.407
22867W        W89650   4.364  28.534  13.568
22868W        W89651  21.789  32.232   1.099
22869W        W89652  16.773  18.458   1.844
22870W        W89653  14.166  31.391   4.112
22871W        W89654  28.177  29.547   0.793
22872W        W89655  42.141  15.136   1.332
22873W        W89656  30.042  39.116   4.581
22874W        W89657   2.037  22.676  11.680
22875W        W89658  10.480  31.285   0.667
22876W        W89659  11.476   8.582  14.277
22877W        W89660  37.948   0.667   3.319
22878W        W89661  31.385  10.376  14.541
22879W        W89662   0.325  43.431   3.368
22880W        W89663  25.284  27.668   0.260
22881W        W89664  13.148  26.446  13.914
22882W        W89665   7.475  29.156   1.007
22883W        W89666  30.348   3.874   2.630
22884W        W89667  19.640   1.814   4.691
22885W        W89668  12.401  41.476  14.111
22886W        W89669  13.234  28.055  13.111
22887W        W89670   2.687   8.024  12.527
22888W        W89671  38.619  37.477  14.541
22889W        W89672  30.497  13.587   0.560
22890W        W89673  41.705  18.855  14.010
22891W        W89674  29.071  17.114   4.633
22892W        W89675  29.396  44.391   4.633
22893W        W89676  36.035  33.015  14.229
22894W        W89677   8.386  28.341  14.016
22895W        W89678  29.425  36.935  10.803
22896W        W89679  14.621   8.235   0.361
22897W        W89680   1.708  22.781   2.752
22898W        W89681  30.403  41.595  14.221
22899W        W89682  23.212  22.134   1.328
22900W        W89683  34.471   3.840  13.048
22901W        W89684  29.276  36.554   3.631
22902W        W89685  29.945  20.218   0.126
22903W        W89686  15.670  12.872  12.091
22904W        W89687  28.117   2.829  10.531
22905W        W89688  14.045  19.176  12.615
22906W        W89689  17.032  28.592  11.331
22907W        W89690  27.668  39.293   3.168
22908W        W89691  32.932   4.606   0.027
22909W        W89692  21.487  25.693   0.656
22910W        W89693  32.709   1.342   0.085
22911W        W89694  29.162  30.079   3.165
22912W        W89695  41.882   4.396  14.921
22913W        W89696  27.157  25.878   2.671
22914W        W89697   0.705  30.286  14.556
22915W        W89698  29.867  18.189  14.972
22916W        W89699  36.387   9.738  13.867
22917W        W89700   2.636  34.529   1.947
22918W        W89701   6.285  11.614   4.379
22919W        W89702  38.588  40.540  11.459
22920W        W89703  17.725  32.579   0.193
22921W        W89704  41.653  23.285  14.636
22922W        W89705   7.679   3.550  10.544
22923W        W89706  21.578  22.952   2.225
22924W        W89707   3.972  22.732   4.738
22925W        W89708   4.345  14.574  12.614
22926W        W89709  26.757  31.522  11.598
22927W        W89710   2.888  39.951   1.394
22928W        W89711   8.163   3.838  14.134
22929W        W89712  34.250  19.098   1.845
22930W        W89713  13.404  10.476  12.017
22931W        W89714  13.090  12.922   4.090
22932W        W89715  39.600   1.971  14.406
22933W        W89716  15.435  28.080  13.928
22934W        W89717   4.738  27.202  11.270
22935W        W89718  41.877  18.603  14.423
22936W        W89719   4.199  31.145  14.561
22937W        W89720  27.266  34.310  11.843
22938W        W89721  42.923   3.355   2.882
22939W        W89722  29.904   1.365   0.970
22940W        W89723   8.532  26.078   4.923
22941W        W89724  31.050  30.013  11.901
22942W        W89725   0.811  26.142  13.106
22943W        W89726  22.596  11.177   2.212
22944W        W89727  37.677   5.271   1.839
22945W        W89728  28.148  15.498   1.327
22946W        W89729  33.081  31.837   5.096
22947W        W89730  31.937  23.580  13.054
22948W        W89731   2.760   0.167  12.565
22949W        W89732  18.696  18.614   0.448
22950W        W89733  25.994  10.248   1.922
22951W        W89734   6.506  23.557   9.886
22952W        W89735   3.870  28.230   1.609
22953W        W89736  44.823  16.806   2.781
22954W        W89737  32.258   9.607   0.011
22955W        W89738  18.998   6.082   0.478
22956W        W89739  18.329  29.947   1.206
22957W        W89740  42.868  35.042   4.547
22958W        W89741  41.740  34.401  12.960
22959W        W89742  11.115  35.587   0.915
22960W        W89743  11.527  33.694  10.356
22961W        W89744  16.259  25.560   4.430
22962W        W89745   8.413  11.736   3.538
22963W        W89746  27.154  26.615   0.957
22964W        W89747  38.088  25.535   4.267
22965W        W89748  11.939  39.349  11.215
22966W        W89749   4.063  15.357  12.070
22967W        W89750   2.743   8.543  11.634
22968W        W89751  18.620   9.213   1.452
22969W        W89752   4.332  24.696  14.298
22970W        W89753  24.136  39.800   0.961
22971W        W89754   2.950  40.307   3.573
22972W        W89755  32.578  34.964   2.566
22973W        W89756  19.410   0.668   2.196
22974W        W89757   9.613  40.445   3.520
22975W        W89758  13.333  25.222  14.890
22976W        W89759  32.468  30.369  12.855
22977W        W89760   2.629  18.170   2.139
22978W        W89761   6.955  44.415  11.137
22979W        W89762  40.131  11.174   3.210
22980W        W89763  30.687  17.822  14.871
22981W        W89764   1.353  41.439  12.047
22982W        W89765  36.326  39.441   3.580
22983W        W89766   0.466  31.104  13.052
22984W        W89767  10.172  37.978   0.944
22985W        W89768   4.255  23.650  13.277
22986W        W89769  14.895   3.307  14.035
22987W        W89770  25.737  15.272  11.734
22988W        W89771   2.656  26.442  12.599
22989W        W89772  20.125  39.786  14.877
22990W        W89773  19.737  12.599  13.393
22991W        W89774  12.221  20.948  14.768
22992W        W89775   6.361  12.865  14.070
22993W        W89776  11.788  36.080   1.700
22994W        W89777  15.662  16.893   3.207
22995W        W89778  22.543  23.186   4.126
22996W        W89779  39.488  17.553  14.752
22997W        W89780  30.545  17.059   0.797
22998W        W89781   3.460  15.581  12.757
22999W        W89782  44.927  36.058   2.310
23000W        W89783  17.106  13.101   4.808
23001W        W89784  19.579  30.712   0.372
23002W        W89785  42.377   4.227  14.825
23003W        W89786  22.427  11.479   1.311
23004W        W89787   1.210  17.527   0.891
23005W        W89788  20.271  26.595  10.554
23006W        W89789  44.519  27.592  12.554
23007W        W89790  18.727   1.984   0.773
23008W        W89791  21.008  24.987  12.091
23009W        W89792  32.346  32.561  13.009
23010W        W89793  42.283  28.089   0.329
23011W        W89794  37.371  40.406   0.938
23012W        W89795   3.362   5.784  10.074
23013W        W89796   8.545  27.035   2.337
23014W        W89797  30.426   1.439   3.748
23015W        W89798  10.775   1.328  12.773
23016W        W89799  27.197   6.020  13.955
23017W        W89800  23.994   9.954  10.839
23018W        W89801   8.365  12.132  10.739
23019W        W89802   5.375  13.183  13.273
23020W        W89803  14.728   8.096   2.937
23021W        W89804   8.456  24.813  11.141
23022W        W89805  12.568  10.167  14.547
23023W        W89806   7.424  28.913  11.181
23024W        W89807   3.918   2.286   4.097
23025W        W89808  36.010   3.406  13.427
23026W        W89809   9.751   8.905  11.516
23027W        W89810   7.738   2.234   2.763
23028W        W89811  38.042  14.143   0.917
23029W        W89812  40.580  37.329  11.567
23030W        W89813  22.534  17.015  12.683
23031W        W89814   8.783  30.905  12.546
23032W        W89815  28.647  28.003   0.904
23033W        W89816  31.173  36.091  11.196
23034W        W89817  11.764  44.730   4.581
23035W        W89818   5.371  36.875   1.195
23036W        W89819  11.666  25.143   0.277
23037W        W89820   8.217   7.742   1.260
23038W        W89821  35.819  11.687   1.728
23039W        W89822  13.567  22.247   0.519
23040W        W89823  30.529   8.700   2.383
23041W        W89824  21.647  19.804   3.161
23042W        W89825  44.846  31.520  10.409
23043W        W89826  28.097  33.106  14.936
23044W        W89827  28.825  43.118   0.857
23045W        W89828  29.441  37.807   2.902
23046W        W89829  19.093   3.754   2.824
23047W        W89830  38.367  16.824   0.267
23048W        W89831  32.048  41.593  13.061
23049W        W89832  17.656   4.567  12.215
23050W        W89833  19.546   1.765  14.066
23051W        W89834  10.362  30.662  14.807
23052W        W89835  40.421  11.087   4.508
23053W        W89836   0.166  42.559   1.875
23054W        W89837  12.074  39.055  10.398
23055W        W89838  11.012  25.477  14.049
23056W        W89839  11.225  36.854  11.017
23057W        W89840  42.574  24.561   4.918
23058W        W89841  19.132  40.046   4.703
23059W        W89842  41.003  27.141  12.831
23060W        W89843  20.153  40.752   1.443
23061W        W89844  24.126   0.737  13.967
23062W        W89845  37.379  25.514   2.831
23063W        W89846  44.371  10.153   0.168
23064W        W89847  38.280  14.595   4.258
23065W        W89848  38.419  35.547  10.635
23066W        W89849  40.234  38.536   2.272
23067W        W89850   1.032  32.942   0.896
23068W        W89851   8.036  12.874   2.762
23069W        W89852  30.036  36.082   1.415
23070W        W89853  39.472   8.793  13.309
23071W        W89854  23.054  23.426   1.718
23072W        W89855   2.439  11.899   4.612
23073W        W89856  24.026  32.491   1.905
23074W        W89857  13.594  37.073   2.471
23075W        W89858  20.612  32.663   2.608
23076W        W89859  25.772  23.832   0.836
23077W        W89860  28.946  11.826  10.743
23078W        W89861  39.056  35.181  13.617
23079W        W89862  19.532  18.336  13.084
23080W        W89863  28.972  38.033  10.902
23081W        W89864   8.126  23.456  13.416
23082W        W89865  38.444  23.107   4.079
23083W        W89866  12.577  41.416  13.624
23084W        W89867  18.585  25.230   1.262
23085W        W89868  34.889  15.028  14.935
23086W        W89869   1.481  23.482   1.767
23087W        W89870  36.492  35.125   3.936
23088W        W89871  36.953  40.055  11.589
23089W        W89872  31.888  27.678  11.005
23090W        W89873   7.227  33.920  14.514
23091W        W89874  28.211  37.345  13.923
23092W        W89875  26.164  44.008   2.342
23093W        W89876   7.842   6.679   2.784
23094W        W89877  24.436  18.457  14.922
23095W        W89878  31.661  40.753  13.553
23096W        W89879  11.227  41.695  12.988
23097W        W89880   4.360  21.437  13.007
23098W        W89881   5.355  35.824  14.785
23099W        W89882  37.794  42.934  10.358
23100W        W89883  18.628  13.804   5.006
23101W        W89884  31.119  31.824   4.147
23102W        W89885  31.143  18.319  14.302
23103W        W89886   5.815  33.879   0.955
23104W        W89887  15.830  17.791  14.277
23105W        W89888  26.790  16.245  14.638
23106W        W89889  26.433  32.416  12.518
23107W        W89890  43.500  41.824  13.895
23108W        W89891  26.603   8.146   2.575
23109W        W89892   2.861  17.270   2.080
23110W        W89893  22.540   7.877  13.638
23111W        W89894   9.387  38.360  14.944
23112W        W89895   4.122   1.431  12.111
23113W        W89896  31.717   7.829   0.894
23114W        W89897  23.036  19.710   1.433
23115W        W89898  24.987  24.127   1.683
23116W        W89899  20.724  21.125  10.767
23117W        W89900  10.878  37.873  14.885
23118W        W89901  15.780  18.475  10.690
23119W        W89902  44.940   5.783   1.573
23120W        W89903  24.307  27.698   3.470
23121W        W89904   4.971  19.170   1.312
23122W        W89905  14.710  38.982  14.044
23123W        W89906   4.935   5.934   1.911
23124W        W89907   9.327  14.804  10.644
23125W        W89908  24.944  26.519  14.102
23126W        W89909  43.585  13.807  13.272
23127W        W89910  42.563  11.359  13.773
23128W        W89911   6.915  44.516   3.103
23129W        W89912  44.682   7.682  13.342
23130W        W89913  42.240  28.414  14.922
23131W        W89914  39.468   9.660   0.472
23132W        W89915  20.227  31.481   3.668
23133W        W89916  31.392   9.200   2.417
23134W        W89917  28.865  38.922  10.661
23135W        W89918  35.537  10.154   4.586
23136W        W89919  34.067  16.218   4.531
23137W        W89920  12.757  15.989   3.862
23138W        W89921   6.819   7.419   4.915
23139W        W89922   8.682  27.254  11.576
23140W        W89923  24.588  18.309   4.516
23141W        W89924   9.691   3.929   3.687
23142W        W89925  24.156  17.648   4.092
23143W        W89926  29.361   3.467  13.349
23144W        W89927  39.860  19.259  11.105
23145W        W89928  10.128  15.197  12.194
23146W        W89929   4.856  11.264   4.623
23147W        W89930  37.835   1.047   2.344
23148W        W89931   7.889   2.881  14.888
23149W        W89932   7.099  12.649   1.751
23150W        W89933  16.506  44.505  13.461
23151W        W89934   1.305  37.358  13.731
23152W        W89935  15.789  31.584  14.392
23153W        W89936  38.860   7.921   0.867
23154W        W89937  41.761  36.046  11.532
23155W        W89938  11.739   6.821  14.340
23156W        W89939  43.034   8.364  11.617
23157W        W89940  31.921  43.426  12.801
23158W        W89941  26.974  37.545   2.358
23159W        W89942   4.526  36.394   2.732
23160W        W89943   6.992  25.205   2.202
23161W        W89944  33.389  21.084   1.340
23162W        W89945  14.327   6.897   1.518
23163W        W89946  30.101  23.900   3.546
23164W        W89947  37.068  28.110   4.545
23165W        W89948  39.074  27.054  12.140
23166W        W89949  41.014  28.437   2.673
23167W        W89950  25.479  26.956   4.070
23168W        W89951  28.613  21.629  13.730
23169W        W89952  39.391  32.041   3.761
23170W        W89953  26.306  20.196   1.639
23171W        W89954  33.797  15.263   1.275
23172W        W89955  10.825   5.790   1.532
23173W        W89956   9.183   4.742   3.678
23174W        W89957   9.399  17.894  11.614
23175W        W89958  20.108   1.768   4.947
23176W        W89959  28.098  13.603  11.970
23177W        W89960   4.175  16.600   0.731
23178W        W89961  28.469  38.005   1.024
23179W        W89962   0.966  27.103   2.348
23180W        W89963   2.729  12.784  12.610
23181W        W89964  19.811  30.260   2.270
23182W        W89965  29.185  27.201  14.365
23183W        W89966  43.153  37.037  12.864
23184W        W89967  25.644   5.637   1.248
23185W        W89968  10.658  27.006  11.538
23186W        W89969  22.413  39.406  10.788
23187W        W89970   3.751   3.917   1.499
23188W        W89971  44.806   0.359  11.524
23189W        W89972  29.497  13.751  10.773
23190W        W89973  21.962  36.919  12.137
23191W        W89974   0.748  38.366  11.490
23192W        W89975   6.258  44.232  11.408
23193W        W89976  44.255  17.148  12.036
23194W        W89977  34.322  10.830   1.897
23195W        W89978   0.416   5.483   0.220
23196W        W89979   8.811  31.173   4.170
23197W        W89980  35.937  11.191   0.459
23198W        W89981   7.303   9.027   4.975
23199W        W89982   7.080   0.398  12.208
23200W        W89983   1.943  30.989  12.431
23201W        W89984   4.888   5.230  14.842
23202W        W89985  37.913  16.559   2.165
23203W        W89986  22.672   7.728  10.813
23204W        W89987   4.797  28.107   2.185
23205W        W89988  28.925   5.390   3.026
23206W        W89989   3.210  41.801  14.297
23207W        W89990  33.665  32.535  13.562
23208W        W89991   3.310  23.476  14.788
23209W        W89992   3.241   8.125  11.188
23210W        W89993  15.441  37.728  13.527
23211W        W89994  39.269   4.563   2.734
23212W        W89995  35.109   0.354  11.222
23213W        W89996  44.600  20.916   4.566
23214W        W89997  20.819  39.418   1.574
23215W        W89998  12.250  10.894  13.333
23216W        W89999  13.844  42.601   2.769
23217W        W90000  35.664  43.418   1.298
23218W        W90001  44.332  35.985  13.913
23219W        W90002  15.764  36.097  14.546
23220W        W90003  10.457  18.877   5.138
23221W        W90004  28.917  24.631   0.354
23222W        W90005  43.983  29.001   3.129
23223W        W90006   8.702  26.729   4.217
23224W        W90007   7.486  32.005   3.674
23225W        W90008  19.229  17.082   4.945
23226W        W90009  27.998  28.051  11.611
23227W        W90010  40.063  23.885   2.775
23228W        W90011  20.185  40.731  12.941
23229W        W90012  13.383   6.385  11.858
23230W        W90013  43.492  19.768   2.201
23231W        W90014   6.790  19.870   3.241
23232W        W90015  37.547   7.892  10.429
23233W        W90016  24.961  22.609   3.775
23234W        W90017  21.254  33.095  13.062
23235W        W90018  26.549   3.744  13.503
23236W        W90019  31.865  34.820   0.833
23237W        W90020   5.766  23.041  12.163
23238W        W90021  38.470  33.797  13.810
23239W        W90022  20.215  42.398  14.369
23240W        W90023  27.417  32.578   2.164
23241W        W90024  39.846  25.159   2.341
23242W        W90025  20.697   5.850  12.155
23243W        W90026  14.827  32.509   4.905
23244W        W90027  43.007  25.062  11.976
23245W        W90028  30.496  39.817  14.595
23246W        W90029  24.261  21.657  13.566
23247W        W90030  37.433  44.771  12.099
23248W        W90031  11.238   1.730  11.089
23249W        W90032  13.806  36.189  13.062
23250W        W90033  14.226   0.430  14.445
23251W        W90034  35.117  16.718  10.669
23252W        W90035   0.259   6.824   3.413
23253W        W90036  20.622  31.134  11.275
23254W        W90037  25.007  26.120   0.996
23255W        W90038  37.700  38.787   4.716
23256W        W90039  27.660  37.242  11.191
23257W        W90040  30.923  34.485  10.239
23258W        W90041   9.584  14.043  14.419
23259W        W90042  33.158  28.031  11.451
23260W        W90043  12.619  23.679   1.959
23261W        W90044  13.755  43.497  13.930
23262W        W90045  19.547   0.333  12.364
23263W        W90046  44.730  20.831  13.373
23264W        W90047   9.139  29.444  13.962
23265W        W90048  13.234   7.916   3.111
23266W        W90049  13.988   6.105  13.839
23267W        W90050  38.752  17.416  10.518
23268W        W90051  23.673  16.660  14.057
23269W        W90052   8.186   7.961  12.070
23270W        W90053   2.955   6.329   1.181
23271W        W90054  38.030  21.594  11.719
23272W        W90055   0.177  19.860  12.364
23273W        W90056  20.344   5.902   0.962
23274W        W90057  42.852  26.236   3.897
23275W        W90058  40.163  14.164   3.278
23276W        W90059  11.556  32.868   2.289
23277W        W90060  14.532  32.363   1.403
23278W        W90061  18.731  35.618  11.173
23279W        W90062  18.555  27.009  14.000
23280W        W90063  18.039  33.161   3.598
23281W        W90064  32.070  28.033   1.837
23282W        W90065  38.699  22.019  13.035
23283W        W90066  34.035  26.031   3.650
23284W        W90067   0.944  14.678   2.191
23285W        W90068  38.857   3.412   5.134
23286W        W90069  20.758  22.057   4.314
23287W        W90070  12.344   5.785  11.127
23288W        W90071  15.631  44.349   0.755
23289W        W90072  11.690  23.768   2.851
23290W        W90073   1.747  26.941  14.406
23291W        W90074  27.713   4.616   4.227
23292W        W90075  44.302  24.586   2.450
23293W        W90076  30.410   9.244   2.347
23294W        W90077   8.007  20.396   1.439
23295W        W90078  33.037   7.323   2.363
23296W        W90079   4.404  27.677   0.958
23297W        W90080  20.350  39.125   2.569
23298W        W90081  25.409  35.140   3.328
23299W        W90082   9.524  38.941   2.809
23300W        W90083  40.814   2.449   4.867
23301W        W90084  15.293  30.120   3.728
23302W        W90085  13.864  21.073   2.873
23303W        W90086  31.674  18.261   0.212
23304W        W90087  39.109  38.931  12.902
23305W        W90088  40.729  34.979  12.567
23306W        W90089   6.821  35.058   0.719
23307W        W90090  39.080  43.222  11.215
23308W        W90091  40.904  31.982   3.028
23309W        W90092  18.015  30.692   2.855
23310W        W90093  37.399   2.411  14.333
23311W        W90094  24.464  34.627   1.658
23312W        W90095   5.232  15.164   3.734
23313W        W90096  29.504  42.767   1.404
23314W        W90097   1.484  41.875  13.565
23315W        W90098  35.467  30.092   3.762
23316W        W90099  40.856   1.533  10.715
23317W        W90100  31.081  32.694  10.562
23318W        W90101  24.999  32.952   4.104
23319W        W90102  10.627  42.907   2.318
23320W        W90103   4.981  33.588  13.996
23321W        W90104  15.614  36.986  12.927
23322W        W90105  16.737  15.760   1.266
23323W        W90106  36.619   1.246   3.186
23324W        W90107   4.430  29.558  12.643
23325W        W90108  34.829  24.987   0.301
23326W        W90109  20.430  26.313  14.749
23327W        W90110  42.491  26.052   4.686
23328W        W90111  28.883   6.360  12.127
23329W        W90112  25.504  38.308  11.980
23330W        W90113   6.218  29.618  12.491
23331W        W90114  17.253  35.948   0.449
23332W        W90115  11.836  44.959  10.601
23333W        W90116  10.175  21.743   1.221
23334W        W90117  14.735  27.808   3.199
23335W        W90118  40.936  36.716   0.308
23336W        W90119  38.648  20.540   0.861
23337W        W90120  17.677  43.989  13.416
23338W        W90121  35.986  28.235   2.860
23339W        W90122   7.285  35.156  11.122
23340W        W90123  24.636  17.691   3.795
23341W        W90124  22.009   0.651  11.940
23342W        W90125   8.956   3.769  14.819
23343W        W90126  39.097  42.433  12.432
23344W        W90127  36.074  29.570  13.867
23345W        W90128  31.001  27.213  11.036
23346W        W90129   3.458   6.550  14.977
23347W        W90130  35.484  24.626   2.828
23348W        W90131  30.376  33.358  13.002
23349W        W90132  33.060  23.236   5.054
23350W        W90133   8.050  25.482  11.532
23351W        W90134   0.335  18.592  14.386
23352W        W90135  42.951  25.767   4.436
23353W        W90136  19.719  36.367   2.762
23354W        W90137  24.138  14.302  13.829
23355W        W90138  38.063  18.297  13.509
23356W        W90139  41.290  17.145   3.341
23357W        W90140  23.538  25.131   0.552
23358W        W90141  42.364  15.022   1.811
23359W        W90142  42.591  24.400   2.730
23360W        W90143  12.579  37.456   2.235
23361W        W90144  23.016   1.289  10.232
23362W        W90145  25.655   7.468  13.402
23363W        W90146  35.630  39.477  12.872
23364W        W90147  41.155  21.712  10.408
23365W        W90148  21.664  24.132  10.282
23366W        W90149   1.710  24.153   4.889
23367W        W90150   9.690  37.341   2.375
23368W        W90151  15.225  14.572  12.458
23369W        W90152  32.196  17.316   3.782
23370W        W90153   6.850  37.895   4.516
23371W        W90154  33.334  14.355  13.874
23372W        W90155  42.461  21.174   4.374
23373W        W90156  19.949   8.132   2.186
23374W        W90157  39.997  31.902   1.325
23375W        W90158  12.571  22.559  12.606
23376W        W90159   1.551  20.573   0.390
23377W        W90160  40.870  13.647   1.031
23378W        W90161  30.833  31.608   1.799
23379W        W90162  29.922  39.812   3.211
23380W        W90163  16.661  19.133  12.552
23381W        W90164  29.836  20.156   1.619
23382W        W90165   0.830  38.376  12.003
23383W        W90166  13.572  42.999  12.044
23384W        W90167  35.125  19.547   0.765
23385W        W90168  19.354  20.533   4.128
23386W        W90169  26.150  41.440   2.173
23387W        W90170   6.191   9.678  10.333
23388W        W90171   2.415  16.717   2.213
23389W        W90172  33.661   9.223   0.347
23390W        W90173  18.156  19.239  13.973
23391W        W90174  11.063  30.146   1.828
23392W        W90175  25.877  20.765  14.319
23393W        W90176  33.110  34.868   4.468
23394W        W90177  29.438  30.529   3.772
23395W        W90178  39.859  19.188  12.878
23396W        W90179  11.910  20.658  14.075
23397W        W90180  10.089  44.750  11.974
23398W        W90181  39.999  25.394  11.172
23399W        W90182  21.078  12.921  12.454
23400W        W90183  13.889  35.531  10.999
23401W        W90184  40.478  22.706   4.541
23402W        W90185   3.813  23.978   3.946
23403W        W90186  26.673  13.994  12.493
23404W        W90187  18.765  42.024  10.753
23405W        W90188   3.882   1.479   0.842
23406W        W90189  22.495  35.959   3.472
23407W        W90190  16.289   5.889   0.467
23408W        W90191   2.741  21.897  13.350
23409W        W90192  22.521   2.701  14.297
23410W        W90193   5.827  27.876  11.455
23411W        W90194  44.199  33.410  13.457
23412W        W90195  41.328  19.342  11.447
23413W        W90196  18.483  25.146  11.511
23414W        W90197  19.114  42.984   1.751
23415W        W90198  24.244  39.349  11.870
23416W        W90199   7.848  10.721   4.947
23417W        W90200  15.555  15.186  10.463
23418W        W90201  20.921  13.650  12.031
23419W        W90202   6.656  17.006  10.551
23420W        W90203  38.564  43.314   1.451
23421W        W90204  19.117  17.596   4.983
23422W        W90205  18.531  28.372   2.768
23423W        W90206  21.727  13.406  12.068
23424W        W90207  28.006  19.740   1.706
23425W        W90208  39.720  14.240   4.115
23426W        W90209   9.647  13.986   3.739
23427W        W90210  23.636  17.397   2.379
23428W        W90211   4.479   9.302  14.983
23429W        W90212  31.167  41.062   4.348
23430W        W90213  35.498  20.946   0.971
23431W        W90214  40.105  32.691  12.010
23432W        W90215  22.421   9.262  10.919
23433W        W90216  39.414   9.155  12.935
23434W        W90217  13.818   8.227  14.080
23435W        W90218  24.854   9.779  14.048
23436W        W90219  43.288  18.783   4.161
23437W        W90220  31.496   3.164   2.246
23438W        W90221  26.655   2.488  14.834
23439W        W90222  41.072   0.645  12.367
23440W        W90223  13.620  40.205  12.435
23441W        W90224  20.577  43.687   4.285
23442W        W90225  18.393  40.091  10.186
23443W        W90226  13.300  43.880  10.598
23444W        W90227  29.909  28.851   2.329
23445W        W90228   0.282   9.941  11.037
23446W        W90229  35.244  25.476  12.740
23447W        W90230  12.938  38.074  11.144
23448W        W90231  11.289  22.166  13.846
23449W        W90232  24.480   5.268   0.947
23450W        W90233   7.294   9.356   5.386
23451W        W90234   3.906  17.640   3.443
23452W        W90235  17.997  12.440  14.470
23453W        W90236  43.295  21.179   3.805
23454W        W90237  18.807  39.989  14.617
23455W        W90238   4.993  15.365  10.868
23456W        W90239   5.081  21.307   2.197
23457W        W90240  14.288  29.533   4.062
23458W        W90241  19.741  24.813  11.479
23459W        W90242  27.210  30.536   4.634
23460W        W90243  39.257  44.456  11.597
23461W        W90244  36.572  25.669  13.896
23462W        W90245  25.694   1.949  13.714
23463W        W90246  29.401  13.714  13.541
23464W        W90247   6.667  30.249   2.850
23465W        W90248  10.375  28.839   0.859
23466W        W90249  22.494   0.261   2.785
23467W        W90250  42.652  20.020   1.529
23468W        W90251  39.118   9.915   0.841
23469W        W90252   5.993  14.487   3.689
23470W        W90253  35.808  31.033   4.131
23471W        W90254  41.906  28.348  13.436
23472W        W90255   9.191  36.784   1.317
23473W        W90256  43.506  22.977  10.741
23474W        W90257  22.701  23.488   4.536
23475W        W90258  29.704  26.920   2.185
23476W        W90259  14.702  11.228   1.820
23477W        W90260  25.063  29.171   4.631
23478W        W90261  15.236  32.743  10.457
23479W        W90262  16.308  44.022  12.161
23480W        W90263  12.988  26.522   0.277
23481W        W90264  16.214  33.554  11.218
23482W        W90265  35.370  39.419   3.877
23483W        W90266  40.872  26.709   5.007
23484W        W90267   3.750  21.362  10.581
23485W        W90268  31.109  23.699  13.796
23486W        W90269   5.193  11.891  14.693
23487W        W90270  17.046  30.391  12.633
23488W        W90271  39.592  40.022   0.553
23489W        W90272  16.173  43.099  10.211
23490W        W90273  17.189  24.843  12.862
23491W        W90274  38.007  15.518  10.369
23492W        W90275   0.128  29.189  11.875
23493W        W90276  34.578  25.544   4.529
23494W        W90277  20.424  44.422  10.557
23495W        W90278  31.631  24.270  13.466
23496W        W90279  31.001  38.271  11.147
23497W        W90280  12.850   7.314   0.065
23498W        W90281  44.616  10.824  11.097
23499W        W90282  31.861  31.056  14.851
23500W        W90283  28.204  22.523  14.342
23501W        W90284   6.334  20.994  14.865
23502W        W90285  19.633  44.295   2.499
23503W        W90286  15.377  28.116   4.084
23504W        W90287  43.289   1.337  13.922
23505W        W90288   1.006  35.493  13.909
23506W        W90289  27.535  34.732   4.521
23507W        W90290  22.161  19.024   0.222
23508W        W90291   4.985  16.625  11.651
23509W        W90292  26.264  34.847  11.254
23510W        W90293  30.013  18.041  11.298
23511W        W90294  33.940  21.051   2.570
23512W        W90295   2.590  34.551   0.505
23513W        W90296   8.155   7.827   3.160
23514W        W90297  37.634  16.187   1.425
23515W        W90298   8.601  14.900  14.723
23516W        W90299  33.322  22.381  11.250
23517W        W90300  28.873  39.422  14.001
23518W        W90301  41.280   9.254   4.135
23519W        W90302  36.988  12.301   4.290
23520W        W90303  24.879  13.181  14.277
23521W        W90304   7.472  25.061   3.353
23522W        W90305  10.185  35.853  14.451
23523W        W90306   0.239  37.336  14.869
23524W        W90307  14.661  23.606  14.749
23525W        W90308  12.257  12.231   4.961
23526W        W90309   3.829  41.346   2.363
23527W        W90310  33.941   6.992  13.356
23528W        W90311  35.393   2.196  13.623
23529W        W90312  26.583  12.148   1.876
23530W        W90313   1.232  29.952   0.299
23531W        W90314  13.195  26.944  10.888
23532W        W90315  39.484  25.059   4.568
23533W        W90316  37.340   8.674   4.501
23534W        W90317  32.855  17.565   0.063
23535W        W90318  42.609  19.772  10.976
23536W        W90319  34.809   6.179  14.774
23537W        W90320  35.446  12.702   3.651
23538W        W90321   6.515  29.845  11.562
23539W        W90322  14.748  17.827   2.884
23540W        W90323   4.648   3.571  13.706
23541W        W90324  23.940  42.423   3.117
23542W        W90325  20.718   3.528  11.559
23543W        W90326  33.014  24.614  14.888
23544W        W90327  21.042   6.426   5.297
23545W        W90328   4.273  11.683   3.898
23546W        W90329  33.638  39.171   5.021
23547W        W90330  23.316  42.417   2.360
23548W        W90331  10.746  36.311   1.421
23549W        W90332  40.795   6.071   4.070
23550W        W90333   1.340  23.551  12.016
23551W        W90334  15.977  27.448  11.001
23552W        W90335  29.492  35.617   1.868
23553W        W90336  21.743  10.724   3.201
23554W        W90337  21.083  32.363   1.244
23555W        W90338  17.411  10.103  14.834
23556W        W90339  37.725  39.070   2.482
23557W        W90340  37.459  15.175   1.433
23558W        W90341  35.892  19.539   2.757
23559W        W90342   0.501  13.114   2.279
23560W        W90343  16.725   5.591   2.389
23561W        W90344  19.712  29.477   0.961
23562W        W90345  17.984  10.504  14.054
23563W        W90346  13.824  43.454  13.093
23564W        W90347  43.843  43.767   2.602
23565W        W90348  36.552  12.711  11.801
23566W        W90349  15.343   3.585  11.130
23567W        W90350  23.526  20.185   2.738
23568W        W90351   7.798  36.604   0.965
23569W        W90352  15.794  42.851   2.851
23570W        W90353  16.594  22.654  14.314
23571W        W90354  13.079  33.398  10.349
23572W        W90355  26.145  25.580  13.002
23573W        W90356  38.545  41.759   2.908
23574W        W90357  26.048  14.104   1.431
23575W        W90358  39.676   1.860  12.628
23576W        W90359  16.724   5.474   1.418
23577W        W90360  25.514  32.910   4.154
23578W        W90361  34.203  28.059   0.845
23579W        W90362  10.350   1.415  12.455
23580W        W90363  43.869  30.123   0.682
23581W        W90364  38.679   1.236  11.172
23582W        W90365  10.648  29.164   0.530
23583W        W90366  32.134  35.071  11.101
23584W        W90367  24.018   4.334   0.194
23585W        W90368  27.220  33.549   2.928
23586W        W90369  18.680  33.829  14.355
23587W        W90370  33.590  35.610   3.277
23588W        W90371  11.652  37.666  14.339
23589W        W90372   3.879  42.486  10.382
23590W        W90373   2.850  36.521   1.042
23591W        W90374  43.541  26.421  13.053
23592W        W90375   2.788  37.369  11.053
23593W        W90376   5.850   4.272  14.950
23594W        W90377   1.448  28.174   0.153
23595W        W90378   3.209   1.821  12.097
23596W        W90379   3.971  32.137  12.011
23597W        W90380   3.735   3.502  11.602
23598W        W90381   1.521  21.720   4.657
23599W        W90382  20.437  28.708   5.002
23600W        W90383   8.482  14.040  11.063
23601W        W90384  32.414  39.482  14.039
23602W        W90385  23.240  28.436   1.892
23603W        W90386  33.653   9.417  13.093
23604W        W90387  18.957  26.509  12.142
23605W        W90388   0.502   4.616  13.477
23606W        W90389   1.921  16.540  14.305
23607W        W90390   6.703  16.485   2.789
23608W        W90391   8.894  28.228   2.259
23609W        W90392   3.446  17.736   3.258
23610W        W90393  11.716   7.562   1.014
23611W        W90394   3.352  24.969   1.312
23612W        W90395   5.182  44.059   4.021
23613W        W90396   1.837  13.505   2.197
23614W        W90397  38.728  12.119   4.352
23615W        W90398  33.436  44.279  10.421
23616W        W90399  31.304   7.050   4.989
23617W        W90400  21.784  31.208   5.029
23618W        W90401  40.036  25.999  12.461
23619W        W90402  10.754  41.735   5.120
23620W        W90403   9.728  35.016  11.025
23621W        W90404   1.218  30.048  12.845
23622W        W90405  23.410  35.317   3.976
23623W        W90406  13.306  36.078  14.767
23624W        W90407  33.267  38.246  12.459
23625W        W90408  22.343  10.680  11.061
23626W        W90409  33.600  21.292  10.128
23627W        W90410  34.179  10.364   0.967
23628W        W90411  29.428  37.915  10.492
23629W        W90412  43.974  40.425  12.448
23630W        W90413   5.419  15.094   1.656
23631W        W90414  33.442  27.595  13.551
23632W        W90415  25.215  13.842   3.666
23633W        W90416  16.751  35.660   1.710
23634W        W90417  30.443  21.103   2.102
23635W        W90418  36.479  11.043   2.608
23636W        W90419  12.372  22.544  13.084
23637W        W90420  12.057  41.800  10.998
23638W        W90421  40.789  41.459  14.962
23639W        W90422  28.418   9.755  13.289
23640W        W90423  44.702  20.058  12.143
23641W        W90424   6.377  25.898   0.829
23642W        W90425  44.472  25.137  14.872
23643W        W90426  22.396   5.206   3.989
23644W        W90427   4.894  19.717   4.446
23645W        W90428  36.327  21.117  11.240
23646W        W90429   6.359  27.894   5.149
23647W        W90430   6.641  42.067  13.061
23648W        W90431  38.150  28.564   1.375
23649W        W90432  33.889   1.935   4.093
23650W        W90433   8.842   7.274   1.021
23651W        W90434  14.541  36.482  13.530
23652W        W90435  22.655  17.770   0.400
23653W        W90436  41.408  28.999  13.789
23654W        W90437  37.468  43.804  13.706
23655W        W90438  36.381  40.568   1.002
23656W        W90439  26.518  27.616   2.826
23657W        W90440  40.418  44.871  13.318
23658W        W90441  38.431   7.851  12.114
23659W        W90442  23.121  20.743  10.439
23660W        W90443  24.065  21.537   0.446
23661W        W90444  36.472  41.093   0.976
23662W        W90445  13.289  39.883   2.826
23663W        W90446   7.358  25.592   4.985
23664W        W90447   6.291  15.788  12.341
23665W        W90448  37.710  23.953  11.016
23666W        W90449  30.467  20.324  13.355
23667W        W90450  34.022  38.435  13.451
23668W        W90451   7.435  29.711   4.793
23669W        W90452  12.780  39.102   1.761
23670W        W90453  21.110  18.221   2.349
23671W        W90454  14.875   0.128   0.124
23672W        W90455  14.625  29.963   0.408
23673W        W90456  11.923  28.425   2.285
23674W        W90457  18.299  40.022  14.771
23675W        W90458   2.506   1.388   1.214
23676W        W90459  20.249  16.608   1.446
23677W        W90460  32.897  12.131   0.888
23678W        W90461  13.357  31.574   4.701
23679W        W90462   0.173  11.732  11.045
23680W        W90463  17.590  40.385  13.487
23681W        W90464  35.762  35.675  11.667
23682W        W90465  40.541  20.057  11.228
23683W        W90466  29.999  44.276   3.284
23684W        W90467   2.437   5.655   3.792
23685W        W90468   8.789   9.697   4.561
23686W        W90469  20.556  26.881  10.941
23687W        W90470  34.519  30.119   0.915
23688W        W90471  43.216  35.882  12.448
23689W        W90472  31.546  40.789   4.082
23690W        W90473   5.888  41.387  14.482
23691W        W90474  34.979  16.189  12.347
23692W        W90475  44.851  39.559   3.212
23693W        W90476  12.683  22.097  10.586
23694W        W90477  40.130  35.972   1.708
23695W        W90478  13.597   7.334   9.784
23696W        W90479  16.550  24.195   2.697
23697W        W90480  31.314  17.168  14.066
23698W        W90481  18.279  28.352  13.898
23699W        W90482  39.441  12.294  14.011
23700W        W90483  12.244  26.907   1.882
23701W        W90484   8.156  26.290   0.039
23702W        W90485  12.289  14.589  13.934
23703W        W90486  17.068  33.950   1.831
23704W        W90487  36.126  10.928  14.349
23705W        W90488  24.592  13.793   0.548
23706W        W90489  16.256  39.562   0.751
23707W        W90490  14.540  17.039  14.183
23708W        W90491  19.958   4.436   4.290
23709W        W90492  17.211  42.509   3.493
23710W        W90493  42.543   0.267   4.721
23711W        W90494  13.713   5.508  10.354
23712W        W90495  38.904  35.424   1.766
23713W        W90496  12.645  30.223  12.341
23714W        W90497  27.100   6.697   1.653
23715W        W90498  14.312  23.216  14.687
23716W        W90499   3.498  19.510  11.142
23717W        W90500  37.027   6.743  12.610
23718W        W90501  31.891  26.508  12.466
23719W        W90502   6.180  33.734  11.455
23720W        W90503  41.882  11.740   2.192
23721W        W90504  19.545  18.763  14.957
23722W        W90505  32.147   2.425   2.257
23723W        W90506  12.409  23.458  12.581
23724W        W90507  29.122  17.766  14.396
23725W        W90508   4.682  13.837   1.179
23726W        W90509  26.585  30.454   0.527
23727W        W90510  40.851  39.281   1.144
23728W        W90511  35.874  35.121  14.894
23729W        W90512  23.568  37.577  12.665
23730W        W90513  30.447  10.000   4.101
23731W        W90514  20.645  22.446   2.283
23732W        W90515  40.728  19.154   1.339
23733W        W90516  25.746   8.803   1.711
23734W        W90517  39.591  19.603  11.952
23735W        W90518  30.127  13.839   3.602
23736W        W90519  32.082  28.952  10.646
23737W        W90520  33.377   2.824  13.785
23738W        W90521  42.924  38.925  12.188
23739W        W90522   1.502  22.741  11.550
23740W        W90523  35.709  25.796   0.303
23741W        W90524  40.912   0.012   1.902
23742W        W90525  27.973  27.424   2.847
23743W        W90526  38.967  38.951  11.680
23744W        W90527  16.688  22.287  11.069
23745W        W90528  22.731  23.718  11.508
23746W        W90529  33.760  30.180   0.534
23747W        W90530  25.482   6.314   4.565
23748W        W90531  39.018  34.195  14.448
23749W        W90532  22.025  43.377   3.639
23750W        W90533  37.420  28.457   0.852
23751W        W90534   7.307  17.102  14.187
23752W        W90535  40.117   1.901  14.306
23753W        W90536  16.025  32.496   4.097
23754W        W90537  26.045   1.185   4.109
23755W        W90538   5.406  21.101  12.452
23756W        W90539  26.542  44.211  11.384
23757W        W90540  42.873  19.334  14.563
23758W        W90541  24.114   2.032   2.223
23759W        W90542  23.965   2.375  13.056
23760W        W90543  19.132  21.979  11.280
23761W        W90544  33.892  29.921  11.619
23762W        W90545  29.432  14.670  12.689
23763W        W90546  36.919  39.238  12.835
23764W        W90547  31.650  44.186  11.594
23765W        W90548  15.909   9.068   0.235
23766W        W90549  22.233  10.814   2.175
23767W        W90550  18.671  35.096   5.042
23768W        W90551  19.957   5.346   1.013
23769W        W90552  36.128   5.460  11.572
23770W        W90553  37.972  29.138   3.094
23771W        W90554  39.337  10.741  12.297
23772W        W90555  22.199  37.118   3.989
23773W        W90556  23.445   1.184   1.360
23774W        W90557  30.427  36.007  12.456
23775W        W90558  23.132  16.790  14.897
23776W        W90559   3.439  13.684  13.543
23777W        W90560  39.906  43.016   0.744
23778W        W90561  13.176  24.598  12.433
23779W        W90562  44.504  39.549  13.303
23780W        W90563  33.439  16.209   1.280
23781W        W90564  21.549  15.748   3.652
23782W        W90565  12.395   6.123  11.980
23783W        W90566   7.403  16.407  13.514
23784W        W90567  19.057  43.492  13.553
23785W        W90568  40.814  20.254  12.990
23786W        W90569  25.314  33.091   1.747
23787W        W90570  11.415  27.873   4.230
23788W        W90571  20.497  37.879  13.917
23789W        W90572  15.055  37.057   1.775
23790W        W90573  25.963  28.921   2.378
23791W        W90574   8.204  14.614  13.328
23792W        W90575  20.541  21.529   3.745
23793W        W90576  35.457  35.423   2.831
23794W        W90577   4.302  42.171  12.095
23795W        W90578  37.603   3.586   0.996
23796W        W90579  13.966  26.113  13.972
23797W        W90580   3.773  30.202   2.424
23798W        W90581   2.994  26.654  12.979
23799W        W90582  21.251  20.302  11.657
23800W        W90583  12.706  11.771  12.335
23801W        W90584   8.230  14.833   3.274
23802W        W90585  43.329   1.240   2.872
23803W        W90586  38.296  12.042   2.678
23804W        W90587  18.959   2.467   1.381
23805W        W90588  13.592  12.691  14.016
23806W        W90589  38.778  15.086  13.608
23807W        W90590  40.841  29.682  14.454
23808W        W90591  27.037  34.501   4.673
23809W        W90592   5.119   2.693   1.712
23810W        W90593  19.526  41.272  10.646
23811W        W90594  37.150  16.005  14.890
23812W        W90595  24.270  32.088   1.645
23813W        W90596  32.059  26.980   4.795
23814W        W90597   4.251  31.113   3.354
23815W        W90598   9.942  42.920   0.229
23816W        W90599  39.591  20.595  14.941
23817W        W90600   8.659  32.718   0.383
23818W        W90601  36.772  17.074  10.652
23819W        W90602  18.891  28.318   5.253
23820W        W90603  40.969  20.505   4.659
23821W        W90604  22.198  24.921   0.789
23822W        W90605  20.002  25.028  11.924
23823W        W90606  23.541  22.746   2.292
23824W        W90607  12.770   7.146  12.005
23825W        W90608  33.942  40.607  14.330
23826W        W90609  23.286  33.006  11.461
23827W        W90610  41.938  13.103   1.739
23828W        W90611   3.519  42.802  14.433
23829W        W90612  11.209  19.131  13.588
23830W        W90613  36.642  25.773   0.707
23831W        W90614  24.322  20.569   2.702
23832W        W90615  36.930  21.278  14.705
23833W        W90616  38.854  35.108   0.427
23834W        W90617  18.548  36.349   0.391
23835W        W90618  15.775   3.314  11.174
23836W        W90619  28.564   6.802   4.275
23837W        W90620  16.944  22.155  11.497
23838W        W90621  15.559  11.287   2.252
23839W        W90622  12.246  38.496  12.574
23840W        W90623   4.748   9.250   0.429
23841W        W90624  41.486  44.899  12.194
23842W        W90625  25.980   7.760   4.095
23843W        W90626  35.271  25.383   0.389
23844W        W90627  19.182  15.441   0.396
23845W        W90628  19.646  16.048   0.760
23846W        W90629   8.141  35.069  11.159
23847W        W90630   4.432  15.551  14.511
23848W        W90631  43.850  17.679   1.243
23849W        W90632  16.758  23.964  14.170
23850W        W90633  28.160  15.374   3.305
23851W        W90634  26.035  30.430   1.805
23852W        W90635  43.245  37.324  11.183
23853W        W90636   3.504   3.210   2.872
23854W        W90637  16.009  16.861   3.606
23855W        W90638  15.827  29.323   1.303
23856W        W90639  20.049  34.259  14.101
23857W        W90640  33.897  27.966  11.062
23858W        W90641  40.860   9.161  13.439
23859W        W90642  42.338   5.810   3.095
23860W        W90643   3.635  27.246   3.046
23861W        W90644   6.092  34.385   4.842
23862W        W90645  16.853  16.556   2.630
23863W        W90646   5.167  12.727   3.992
23864W        W90647   6.099   7.723   1.739
23865W        W90648  38.588   6.199  11.462
23866W        W90649   2.120  21.343  14.443
23867W        W90650   0.947  20.483   0.952
23868W        W90651  42.467  27.948  12.749
23869W        W90652  12.842   3.826  12.140
23870W        W90653  35.590  10.122   2.128
23871W        W90654  16.371  44.337   3.898
23872W        W90655  33.883  30.562  13.408
23873W        W90656  18.204  22.467   1.096
23874W        W90657   4.278  44.557   3.583
23875W        W90658   4.003  40.863  10.421
23876W        W90659  37.479  36.118  14.393
23877W        W90660  26.032   2.687  12.987
23878W        W90661  22.454  37.117  12.188
23879W        W90662  16.734  28.214   3.122
23880W        W90663  16.185   5.217  12.799
23881W        W90664   0.528  40.451   2.915
23882W        W90665   3.858  14.794  12.844
23883W        W90666  18.644  38.288  11.328
23884W        W90667  40.996  22.613   4.342
23885W        W90668  28.736  33.998  11.639
23886W        W90669   4.721  22.095   2.731
23887W        W90670  29.368   0.858   3.213
23888W        W90671  28.399  30.088   2.649
23889W        W90672   7.226  36.540   0.397
23890W        W90673  29.062   1.974  13.955
23891W        W90674  32.661  33.445   1.009
23892W        W90675  23.194   1.009   3.360
23893W        W90676   1.786  18.089  14.366
23894W        W90677  27.157  12.227   0.980
23895W        W90678   4.460  29.069   0.451
23896W        W90679  33.361  34.407  12.056
23897W        W90680  38.242  44.427  10.196
23898W        W90681  13.645  28.434   4.411
23899W        W90682  20.683  22.489  11.901
23900W        W90683  18.628  11.110  10.749
23901W        W90684  28.648  23.761   2.364
23902W        W90685  33.953  18.372   2.310
23903W        W90686  37.409  29.841   2.219
23904W        W90687  27.575  37.818  13.375
23905W        W90688  25.733  20.769   2.845
23906W        W90689  37.980  35.941   0.542
23907W        W90690  34.047   8.247   1.312
23908W        W90691  19.849  34.377   4.227
23909W        W90692  23.741   4.839   2.111
23910W        W90693  12.234  27.885   0.803
23911W        W90694  20.758  40.786  12.383
23912W        W90695  22.485   4.212  11.592
23913W        W90696   5.685  38.579   0.168
23914W        W90697  11.366   5.248  12.549
23915W        W90698  44.121  33.809   0.001
23916W        W90699  27.160  24.472  14.737
23917W        W90700  26.635  10.948  11.545
23918W        W90701   2.745   0.563  14.458
23919W        W90702   8.879   5.297   4.485
23920W        W90703  10.553  19.890   5.352
23921W        W90704  16.665   9.638   1.258
23922W        W90705  29.399  16.330   1.915
23923W        W90706   5.855  42.331   1.393
23924W        W90707   4.551   6.978  12.993
23925W        W90708   6.939   5.247  14.039
23926W        W90709  32.667   4.984  11.131
23927W        W90710   2.699  11.367   0.051
23928W        W90711  41.524  22.261  11.701
23929W        W90712  42.899   4.026  13.523
23930W        W90713  27.150   8.967  13.453
23931W        W90714  20.194   7.365   5.023
23932W        W90715   0.566   7.683  11.768
23933W        W90716   9.514   1.790  13.903
23934W        W90717  14.636   3.321  11.225
23935W        W90718   4.289  21.998   0.249
23936W        W90719  43.308   4.341   1.784
23937W        W90720   0.917  24.895  11.290
23938W        W90721  43.871  36.824   3.418
23939W        W90722   4.081  11.543  10.280
23940W        W90723   6.686  13.840  13.451
23941W        W90724  31.484  39.010  13.813
23942W        W90725  12.572  39.688  14.426
23943W        W90726  44.920  11.887   4.135
23944W        W90727  27.050  11.182  10.596
23945W        W90728   4.848   8.678  10.211
23946W        W90729  10.269  41.748  10.440
23947W        W90730  25.518  21.728   3.743
23948W        W90731  14.773  41.474   0.356
23949W        W90732  31.647   4.912   3.691
23950W        W90733  21.089  22.828   0.740
23951W        W90734   8.804  44.837   1.839
23952W        W90735  10.515   1.524   4.215
23953W        W90736  28.757  42.333  13.592
23954W        W90737   1.757  18.708  11.420
23955W        W90738  41.269   4.944  14.478
23956W        W90739  13.241  43.294  13.983
23957W        W90740  38.259  21.231  10.754
23958W        W90741  44.195  24.078   2.353
23959W        W90742   1.608  35.171   2.660
23960W        W90743  35.930  12.335  11.919
23961W        W90744  36.336  34.382  13.955
23962W        W90745  16.428  30.788  11.180
23963W        W90746   8.643  11.147   1.862
23964W        W90747  30.362   9.174   3.701
23965W        W90748  21.109   4.131  13.866
23966W        W90749  12.818  15.096  11.465
23967W        W90750   0.259  15.328   1.839
23968W        W90751  35.796  42.759  12.689
23969W        W90752  10.758  18.074  11.349
23970W        W90753   3.534  26.601   5.161
23971W        W90754   2.914  29.032   3.842
23972W        W90755  31.704  20.972   0.339
23973W        W90756  11.196  16.740  10.940
23974W        W90757  43.868   0.136  11.040
23975W        W90758  44.896  43.976   1.020
23976W        W90759  12.575  28.980  12.592
23977W        W90760  33.541  42.751  14.769
23978W        W90761  11.934  23.691  10.382
23979W        W90762   1.688  44.372   3.664
23980W        W90763  38.470  35.671   2.631
23981W        W90764  42.468  40.618  11.086
23982W        W90765  10.815  12.426   2.033
23983W        W90766  42.528  16.706   1.024
23984W        W90767  29.997  21.814  12.590
23985W        W90768  14.152  21.068   0.514
23986W        W90769  41.256   7.758  13.141
23987W        W90770  37.351  22.900  12.428
23988W        W90771  25.788  39.867  11.816
23989W        W90772   2.491  41.454  13.829
23990W        W90773   3.538  42.052  11.606
23991W        W90774  14.196   5.325  11.206
23992W        W90775   4.940   9.431  12.386
23993W        W90776  36.166  40.800   0.237
23994W        W90777  11.200  43.232   0.214
23995W        W90778   4.997  19.310   3.681
23996W        W90779  20.548   5.244   1.721
23997W        W90780  33.016  40.308   2.168
23998W        W90781  20.013  22.061   2.109
23999W        W90782  20.173  11.588   0.368
24000W        W90783  42.550  23.794  14.470
24001W        W90784  30.377  13.123  14.383
24002W        W90785  26.127  30.923  13.103
24003W        W90786   6.040  13.152   2.487
24004W        W90787  23.370  36.814   0.715
24005W        W90788   6.856  40.951   1.426
24006W        W90789  43.043  41.199   2.750
24007W        W90790  15.351  35.463   1.365
24008W        W90791  20.998  27.984   1.870
24009W        W90792  11.881  22.656  10.232
24010W        W90793  33.195  40.427  11.178
24011W        W90794  37.402  26.484  11.136
24012W        W90795  18.883   7.738   3.195
24013W        W90796   1.006  14.690   1.689
24014W        W90797  38.990  43.295   4.268
24015W        W90798  13.826  26.735   2.303
24016W        W90799   8.772   1.026  11.227
24017W        W90800  15.049  12.335   0.341
24018W        W90801   0.030  17.286  11.604
24019W        W90802   4.794  15.802  12.633
24020W        W90803  20.378  18.045  12.540
24021W        W90804  36.492  22.232   3.645
24022W        W90805  42.963  11.086  14.023
24023W        W90806  13.342  19.512   3.293
24024W        W90807  41.474  39.623  13.298
24025W        W90808  18.765  21.451   3.237
24026W        W90809  21.786  26.437   1.388
24027W        W90810   4.013  23.283  12.116
24028W        W90811  38.082  36.728   3.241
24029W        W90812  28.927  21.311  12.049
24030W        W90813  11.171  44.269  10.851
24031W        W90814   6.907  26.706   1.896
24032W        W90815  26.777  23.574  14.364
24033W        W90816  33.066  21.486   2.822
24034W        W90817  37.059  12.722  11.683
24035W        W90818  37.293  38.777  11.575
24036W        W90819  22.111   7.001   0.816
24037W        W90820  13.308   8.234  11.469
24038W        W90821  28.491  11.529   1.930
24039W        W90822  44.872   4.658   2.658
24040W        W90823  10.268  33.956  13.506
24041W        W90824   2.546   0.903  10.626
24042W        W90825  24.610  23.678   1.031
24043W        W90826  39.082  27.960  10.625
24044W        W90827  32.956  11.787  10.634
24045W        W90828  33.002   8.367  14.016
24046W        W90829  43.610  15.284  12.967
24047W        W90830  19.329  42.891   3.134
24048W        W90831   3.468  24.146   0.955
24049W        W90832  17.300  22.576   1.395
24050W        W90833  22.229  35.064   2.728
24051W        W90834  12.961  32.390   4.026
24052W        W90835  13.694  25.625  11.142
24053W        W90836   9.194   0.330   4.592
24054W        W90837   3.635   7.170  11.183
24055W        W90838  13.174  26.597  14.410
24056W        W90839  42.990   4.737   1.694
24057W        W90840  24.983  14.690   0.250
24058W        W90841  23.432  24.091  12.556
24059W        W90842  37.965  34.635   2.395
24060W        W90843   5.114   1.557  14.895
24061W        W90844  37.817  30.479  11.553
24062W        W90845  30.193  14.934   2.756
24063W        W90846   4.469  28.842   1.324
24064W        W90847  39.530  23.273   0.594
24065W        W90848   7.773  31.348  14.399
24066W        W90849  34.345  33.142   3.132
24067W        W90850  15.179  40.523  13.422
24068W        W90851  19.275   7.019   1.679
24069W        W90852  24.477  35.623   3.675
24070W        W90853   7.496  26.742  13.941
24071W        W90854   9.220  32.165   2.322
24072W        W90855  42.816  27.031   0.866
24073W        W90856  41.542  15.214   2.670
24074W        W90857  38.135  26.483  10.584
24075W        W90858  18.962  22.616  13.337
24076W        W90859   4.763  42.969   2.261
24077W        W90860  42.344  19.752   4.620
24078W        W90861   0.262   6.227   2.856
24079W        W90862  25.439  23.608   1.167
24080W        W90863  36.853   7.276   2.329
24081W        W90864  34.626  29.935   1.394
24082W        W90865  21.811  39.946   0.288
24083W        W90866  13.166  44.847   3.128
24084W        W90867  44.891  39.069   1.312
24085W        W90868   5.210  42.062   2.866
24086W        W90869   7.254  14.184  13.508
24087W        W90870  16.600   4.999   1.982
24088W        W90871   7.928  21.414   1.341
24089W        W90872  43.546   8.735  11.192
24090W        W90873  27.705  35.535   0.900
24091W        W90874  41.993  26.971   1.182
24092W        W90875  13.694  14.651   0.859
24093W        W90876  37.944  23.111  12.957
24094W        W90877  37.741  23.096   0.429
24095W        W90878  18.656  39.788  11.120
24096W        W90879  13.037  19.585  13.586
24097W        W90880  29.465  35.116  11.222
24098W        W90881  23.997  12.856   2.779
24099W        W90882  16.147   0.074   4.208
24100W        W90883  37.796  23.960   1.153
24101W        W90884   3.484  35.542  12.482
24102W        W90885  17.090  41.862  13.392
24103W        W90886   3.849  22.207   0.104
24104W        W90887  36.928   0.777   4.919
24105W        W90888   4.502   8.751   1.735
24106W        W90889  17.504  16.885   1.875
24107W        W90890  31.669  39.885  10.414
24108W        W90891  31.342  23.248  12.504
24109W        W90892  36.073   2.904   3.238
24110W        W90893  16.712  41.878   4.559
24111W        W90894  26.535  17.347  13.232
24112W        W90895   1.866   2.323   0.704
24113W        W90896  35.048  20.680   3.390
24114W        W90897  13.110  39.242   4.284
24115W        W90898  33.134   0.514  12.012
24116W        W90899  15.675   3.677   1.735
24117W        W90900  32.451  16.096  14.927
24118W        W90901   1.033  30.030   4.880
24119W        W90902   3.231  14.276   2.664
24120W        W90903  23.604  15.290  13.042
24121W        W90904  20.581  27.500  13.199
24122W        W90905  39.585   9.271  13.832
24123W        W90906  35.200  13.197  12.332
24124W        W90907  12.948   4.191  11.766
24125W        W90908  28.123  14.116   2.899
24126W        W90909  26.295  10.123  12.423
24127W        W90910   4.874   3.389   0.056
24128W        W90911  32.525  13.375   1.825
24129W        W90912  12.317  20.106  11.669
24130W        W90913  32.712  26.497   4.352
24131W        W90914  16.279  28.032  13.449
24132W        W90915  27.546   3.394   1.271
24133W        W90916  27.791  10.846   2.391
24134W        W90917  39.775  18.695   0.076
24135W        W90918  38.369   1.451   3.863
24136W        W90919  25.715  28.415   3.742
24137W        W90920  43.902   5.918   0.861
24138W        W90921   0.768   9.326   3.731
24139W        W90922   3.916  18.702   2.113
24140W        W90923  42.202  12.348  13.374
24141W        W90924  14.300  29.871  12.576
24142W        W90925  39.536  11.089  10.569
24143W        W90926  31.901  31.865  13.353
24144W        W90927  39.134  30.661  11.006
24145W        W90928  11.759  19.041  12.538
24146W        W90929   7.269  37.510  10.707
24147W        W90930  42.072  18.149  13.609
24148W        W90931  40.327  12.214   0.438
24149W        W90932  12.988  43.209  13.548
24150W        W90933   9.308  19.933   1.418
24151W        W90934  23.209  27.792   1.141
24152W        W90935  32.623  14.317   1.446
24153W        W90936  12.848   3.240   2.402
24154W        W90937   7.685   2.210  12.141
24155W        W90938  24.732  26.065   1.896
24156W        W90939  29.266   6.525   1.672
24157W        W90940  16.613  22.586   1.751
24158W        W90941  22.493  12.683   1.770
24159W        W90942   4.513  44.326   4.565
24160W        W90943  38.730  43.790   5.002
24161W        W90944  43.571  43.869   0.770
24162W        W90945   4.101   9.804  14.627
24163W        W90946  25.551  36.598   0.385
24164W        W90947  16.208  20.237   2.263
24165W        W90948  34.971  33.895   1.301
24166W        W90949  22.714  17.189  13.126
24167W        W90950  18.453  44.399  11.978
24168W        W90951   4.988  35.269  14.749
24169W        W90952  31.646  11.754  12.678
24170W        W90953  14.511  21.798   1.860
24171W        W90954  43.649   6.350  11.881
24172W        W90955  25.403  10.418   0.270
24173W        W90956  44.368  41.044   3.053
24174W        W90957   9.917  27.922  11.188
24175W        W90958  35.587  31.132  11.992
24176W        W90959  11.729  20.716   4.594
24177W        W90960  16.194  16.766   3.126
24178W        W90961  18.210  10.241  13.103
24179W        W90962   9.710  16.200  10.507
24180W        W90963  10.297   5.048   4.090
24181W        W90964  27.109  31.390  11.217
24182W        W90965  31.640  10.183   4.652
24183W        W90966  29.723  36.080   0.996
24184W        W90967  15.627  20.938   0.469
24185W        W90968  10.142  32.681  11.060
24186W        W90969  22.497  18.186   3.329
24187W        W90970  26.528  12.132   4.643
24188W        W90971  16.032  30.557  13.579
24189W        W90972  25.563  40.592  11.547
24190W        W90973  34.590   4.903   1.761
24191W        W90974  43.911  28.192   1.755
24192W        W90975  11.672  43.019   0.246
24193W        W90976  33.983  31.562   1.012
24194W        W90977  41.758  31.683  12.059
24195W        W90978  17.869  11.217  13.967
24196W        W90979  15.754   2.912   4.636
24197W        W90980  43.943   6.864  11.864
24198W        W90981  12.887  44.222   0.340
24199W        W90982  30.927  11.748   2.610
24200W        W90983  37.350  17.968  13.143
24201W        W90984  17.646  20.461  12.903
24202W        W90985   2.733  15.490   2.655
24203W        W90986  40.935  12.764  11.572
24204W        W90987  14.329  16.863  11.932
24205W        W90988  15.152  29.381  14.294
24206W        W90989  40.035   0.304  11.885
24207W        W90990   6.902  28.591   2.238
24208W        W90991  35.734  22.286  14.073
24209W        W90992  12.237  22.826  14.441
24210W        W90993  41.319   7.204  13.991
24211W        W90994  26.922  30.688  12.647
24212W        W90995  27.282  44.451  12.934
24213W        W90996  39.073  39.892  14.792
24214W        W90997  24.126  28.453   0.208
24215W        W90998  20.650  25.726   2.864
24216W        W90999  12.057  28.405  11.234
24217W        W91000  38.994  10.732   3.345
24218W        W91001  34.359  34.288   1.389
24219W        W91002   7.329  14.249   1.539
24220W        W91003  40.454  26.508  11.932
24221W        W91004  20.502   9.086   0.891
24222W        W91005  18.066  18.633  11.525
24223W        W91006  30.018   1.976  13.074
24224W        W91007  23.135  38.971   0.940
24225W        W91008  11.389  24.222   2.658
24226W        W91009  14.550  10.423  11.655
24227W        W91010  27.046   0.591   3.110
24228W        W91011  14.354  44.251  11.180
24229W        W91012  38.322   9.682   3.914
24230W        W91013  30.913  30.893  14.965
24231W        W91014  28.885  13.936  13.983
24232W        W91015  40.087  36.050  13.269
24233W        W91016  34.296  10.307   1.794
24234W        W91017  29.983  14.646   4.657
24235W        W91018  33.632  33.535  10.690
24236W        W91019   7.588   4.209   4.133
24237W        W91020  33.898  16.622   3.134
24238W        W91021  32.379  34.513   3.252
24239W        W91022  23.861   4.825   0.233
24240W        W91023  42.400  18.547  14.492
24241W        W91024  37.121  16.673   0.552
24242W        W91025  26.145  24.128  11.127
24243W        W91026  36.075   2.322  11.576
24244W        W91027  30.495  43.305  10.978
24245W        W91028  10.878  24.494   1.796
24246W        W91029  10.040  39.297   0.416
24247W        W91030  37.521   3.636   3.696
24248W        W91031  29.104  30.109  11.517
24249W        W91032  18.483  43.216   3.412
24250W        W91033   2.980  17.573   1.306
24251W        W91034  36.992  42.933   3.705
24252W        W91035   9.960  28.085   1.319
24253W        W91036  32.924  37.400  13.500
24254W        W91037   3.978  13.369  11.364
24255W        W91038  16.571  32.067  12.059
24256W        W91039  42.130  25.925   1.256
24257W        W91040  34.620  19.605   0.723
24258W        W91041  13.673  42.268   2.386
24259W        W91042  14.132  41.080  12.863
24260W        W91043   4.235  37.744   3.869
24261W        W91044  40.675   3.963   0.689
24262W        W91045  36.809  28.297  11.588
24263W        W91046  20.963  39.650  14.880
24264W        W91047  32.539  17.089   0.829
24265W        W91048  20.535  21.984   0.421
24266W        W91049   9.642  27.718   3.329
24267W        W91050   2.005  20.763  10.735
24268W        W91051  28.690  22.967   4.651
24269W        W91052  32.354  17.092   2.181
24270W        W91053  11.608  15.830   4.240
24271W        W91054  31.860  26.952   4.315
24272W        W91055  30.644  15.797   3.241
24273W        W91056  41.051  16.665   2.696
24274W        W91057  24.746  25.228   2.334
24275W        W91058  32.007  14.835  14.430
24276W        W91059  30.722  43.905  14.333
24277W        W91060  24.133  19.200  11.205
24278W        W91061   5.219  32.631   0.844
24279W        W91062   9.210   6.907  13.917
24280W        W91063   4.293  29.126  12.343
24281W        W91064  12.553  34.342  13.433
24282W        W91065  14.925  38.514  13.936
24283W        W91066   6.405  15.704  12.817
24284W        W91067  31.249  40.373   2.152
24285W        W91068  25.700  30.517  13.400
24286W        W91069   7.130   1.333  11.919
24287W        W91070  26.516  34.251   4.748
24288W        W91071  33.462  43.744  10.341
24289W        W91072  34.606  18.636  13.385
24290W        W91073  29.839   1.022   3.330
24291W        W91074  34.976  29.532   3.196
24292W        W91075  30.036   3.833   4.492
24293W        W91076  16.146  42.977   3.238
24294W        W91077   4.900  28.703  13.474
24295W        W91078  35.617   6.851   2.764
24296W        W91079   0.283  16.574   4.178
24297W        W91080  35.258  14.238  13.281
24298W        W91081  34.434  33.957  10.354
24299W        W91082  33.057  19.813   1.239
24300W        W91083  27.561  29.999   2.223
24301W        W91084  20.405  35.842  11.930
24302W        W91085  28.705   1.968   0.469
24303W        W91086  10.772   8.254  14.532
24304W        W91087  31.648  27.377   4.128
24305W        W91088  26.469   7.549   4.160
24306W        W91089  10.048  39.531   1.373
24307W        W91090   7.179  10.800  13.537
24308W        W91091  30.525  24.896  12.338
24309W        W91092  30.278  35.286  13.911
24310W        W91093  24.235  14.563   2.270
24311W        W91094  27.030  41.750   0.075
24312W        W91095   2.642  26.580   4.690
24313W        W91096  31.733  15.872  12.922
24314W        W91097   7.249  20.239   4.363
24315W        W91098   3.131   4.158   2.921
24316W        W91099  32.264  11.134  12.072
24317W        W91100  29.267   9.814   3.136
24318W        W91101  18.035  11.244   4.124
24319W        W91102   5.023   7.174  14.781
24320W        W91103  35.119  13.330   2.579
24321W        W91104  26.130   5.192   4.632
24322W        W91105  39.763   9.225   4.154
24323W        W91106  22.524  21.945  10.030
24324W        W91107  44.259  41.247   3.642
24325W        W91108   6.723  30.359   1.582
24326W        W91109  19.732  12.075   0.827
24327W        W91110  10.957  19.914   3.628
24328W        W91111   2.218  44.896  12.940
24329W        W91112  32.241  18.538  13.016
24330W        W91113   7.752  39.570   0.893
24331W        W91114  16.941  39.462  14.886
24332W        W91115  10.697  37.598  13.010
24333W        W91116   3.079  26.025  11.369
24334W        W91117  11.969  26.256   2.419
24335W        W91118   8.193   5.749   0.294
24336W        W91119  15.148  42.803  12.233
24337W        W91120   5.943  26.300  10.908
24338W        W91121  27.143   4.329   1.560
24339W        W91122  14.256  30.540   1.954
24340W        W91123  18.174  36.072   2.842
24341W        W91124  40.390   8.993  13.541
24342W        W91125  44.314  34.619   4.593
24343W        W91126  24.112  30.483  11.225
24344W        W91127  26.088  43.948  12.662
24345W        W91128  14.673   5.916   0.885
24346W        W91129  25.642  14.087   2.174
24347W        W91130  36.001  21.123   4.637
24348W        W91131  14.523  30.953  11.287
24349W        W91132  18.029  15.761   3.988
24350W        W91133   6.391  32.992   2.885
24351W        W91134  40.836  10.395   2.123
24352W        W91135  27.052  29.723  12.864
24353W        W91136  44.423  27.338   1.236
24354W        W91137  44.303  29.070  12.653
24355W        W91138   4.931  37.112   1.398
24356W        W91139  15.622  29.510  11.671
24357W        W91140  18.129  37.612  12.476
24358W        W91141  22.228  26.043  14.475
24359W        W91142   4.938   7.383   4.146
24360W        W91143  35.848  15.559   4.244
24361W        W91144  31.170   5.298  13.938
24362W        W91145  17.557  12.130   4.581
24363W        W91146  18.241  10.687  12.510
24364W        W91147   5.637  35.080   4.243
24365W        W91148  35.118  38.775   3.597
24366W        W91149  26.050  19.851  12.790
24367W        W91150  16.212  23.502   3.729
24368W        W91151   1.716  41.822  14.582
24369W        W91152  32.867  18.057  13.535
24370W        W91153  12.212  12.098  13.008
24371W        W91154   7.068   0.433  13.873
24372W        W91155   2.470  13.929   5.049
24373W        W91156   6.721  12.164   2.820
24374W        W91157  22.878  28.579  14.408
24375W        W91158  33.098   3.462   2.502
24376W        W91159  21.667  24.650   4.593
24377W        W91160   7.897   4.947   0.256
24378W        W91161  38.503  38.749   1.407
24379W        W91162  23.609  38.810   1.739
24380W        W91163  15.979  19.112   2.922
24381W        W91164  19.799  27.401   3.892
24382W        W91165  11.244  37.274   2.880
24383W        W91166  31.131   3.811   1.554
24384W        W91167  10.762  21.667   0.692
24385W        W91168  19.277   0.393   3.353
24386W        W91169  25.524  27.038   4.954
24387W        W91170  37.167   9.151  10.263
24388W        W91171  22.528   7.912  14.777
24389W        W91172   6.950  37.916   1.443
24390W        W91173  21.642   4.705   0.367
24391W        W91174  13.821  13.346   2.136
24392W        W91175  27.773  33.490   4.523
24393W        W91176  30.117  18.349   1.235
24394W        W91177  35.435  13.346  14.856
24395W        W91178  43.170  11.262  14.862
24396W        W91179  28.057  33.655  12.197
24397W        W91180  16.678  41.389   1.808
24398W        W91181  17.566  33.129  12.555
24399W        W91182  25.485  27.899  12.939
24400W        W91183   2.885  27.659   0.343
24401W        W91184  21.824   9.081   4.474
24402W        W91185  32.873   6.823   2.331
24403W        W91186   7.164  34.970  10.668
24404W        W91187  40.882   0.370  11.541
24405W        W91188   7.285  27.477  11.577
24406W        W91189  43.947  21.466   4.523
24407W        W91190  29.499  44.717   0.036
24408W        W91191  23.266  36.571  14.997
24409W        W91192   6.649  40.987   2.276
24410W        W91193  28.018  23.661   2.737
24411W        W91194  20.291  31.551  12.971
24412W        W91195  32.790  43.493   4.106
24413W        W91196  19.424   9.348   0.793
24414W        W91197  28.175  19.584  11.095
24415W        W91198  40.042  10.256  10.468
24416W        W91199  37.115  32.937   0.455
24417W        W91200  30.917   6.766   0.817
24418W        W91201   8.001   6.171   5.075
24419W        W91202  42.443  17.842  12.423
24420W        W91203  26.224  39.769   1.806
24421W        W91204   3.365  33.569  13.426
24422W        W91205  26.766  19.980   5.044
24423W        W91206  12.584  20.540   4.674
24424W        W91207   2.268  19.989  10.830
24425W        W91208  39.334  23.290   1.938
24426W        W91209  23.018  38.445  12.883
24427W        W91210  37.956  42.899   3.992
24428W        W91211   9.328   8.124   0.489
24429W        W91212  22.029  10.282   4.402
24430W        W91213  40.821  18.596  12.426
24431W        W91214  11.543  20.593   0.052
24432W        W91215  24.001  28.670   2.313
24433W        W91216  43.504  27.777   3.547
24434W        W91217   7.342  17.730   3.486
24435W        W91218  19.473   5.995   1.360
24436W        W91219  28.332  28.921   5.157
24437W        W91220   4.932  30.469  12.937
24438W        W91221  26.234   4.853  14.550
24439W        W91222  35.467  15.674   0.953
24440W        W91223  27.707  12.555  13.013
24441W        W91224  31.595  17.117   4.524
24442W        W91225  42.813  25.204  11.045
24443W        W91226  42.811   4.315   2.474
24444W        W91227  40.452  44.482   2.375
24445W        W91228  39.354  25.544  14.261
24446W        W91229  34.522   6.387  12.919
24447W        W91230  25.299  17.774  12.109
24448W        W91231  41.031  44.188  12.032
24449W        W91232  33.548  16.860   1.914
24450W        W91233  27.181   4.652   0.449
24451W        W91234   9.546  41.584   3.980
24452W        W91235  11.278  26.618  11.712
24453W        W91236  23.719  18.859  12.560
24454W        W91237  25.872  21.598  11.885
24455W        W91238   6.606  32.421  14.841
24456W        W91239   8.586  13.049   4.243
24457W        W91240  39.280  13.919   3.162
24458W        W91241  32.158   6.677   1.477
24459W        W91242  18.548  41.525   3.181
24460W        W91243  34.251   1.654  12.146
24461W        W91244  40.811  40.292  11.998
24462W        W91245  32.051   9.626  10.933
24463W        W91246  37.336  22.155   3.271
24464W        W91247  12.039  31.082  14.410
24465W        W91248  31.526  17.928   1.147
24466W        W91249  31.369   1.352  12.053
24467W        W91250   8.440  23.632   1.443
24468W        W91251  37.464   5.233  11.846
24469W        W91252  28.848   3.130   0.813
24470W        W91253  41.326  25.538   4.488
24471W        W91254  24.743  29.236   4.189
24472W        W91255   2.645  15.681   1.905
24473W        W91256   8.637  22.222   3.887
24474W        W91257   8.776   7.063   4.154
24475W        W91258  27.109  23.545   0.708
24476W        W91259  30.545  28.005   0.362
24477W        W91260  41.329  11.449  10.645
24478W        W91261  19.353   2.970  14.886
24479W        W91262  42.633  13.541  11.479
24480W        W91263  14.627  28.045  14.313
24481W        W91264  44.288  15.674   3.326
24482W        W91265  42.498  17.520   4.593
24483W        W91266  29.940  35.835  11.685
24484W        W91267  43.305   4.650   0.438
24485W        W91268  21.347  33.389   0.658
24486W        W91269  22.599  16.030  14.927
24487W        W91270  15.907  29.386   0.301
24488W        W91271   2.684  25.082  11.657
24489W        W91272   7.271  33.011   1.920
24490W        W91273   4.361  42.702  13.991
24491W        W91274  31.535  30.609   5.030
24492W        W91275  31.016  37.470  13.187
24493W        W91276  10.203   8.589   1.459
24494W        W91277  23.525  43.885  10.699
24495W        W91278  11.697   5.135  14.988
24496W        W91279  29.499  29.349  10.723
24497W        W91280  39.828  43.686   3.996
24498W        W91281  37.000   5.722  13.377
24499W        W91282  26.979  21.508  12.031
24500W        W91283  34.124  12.172  14.092
24501W        W91284   2.341   9.859  11.592
24502W        W91285  38.745  25.842   0.783
24503W        W91286  33.376   9.856  10.740
24504W        W91287  28.612  14.012   0.912
24505W        W91288  15.624  17.568   3.112
24506W        W91289  20.336  12.646   3.735
24507W        W91290  18.309   2.408   2.368
24508W        W91291  21.710  17.807  11.999
24509W        W91292   1.752  43.849  14.950
24510W        W91293  34.997   8.097   0.883
24511W        W91294   3.751  26.180   1.644
24512W        W91295  19.732   3.762   0.226
24513W        W91296  11.584  34.331  12.518
24514W        W91297  12.339  16.390  11.649
24515W        W91298   0.903  14.167   3.848
24516W        W91299  31.817   4.982  12.521
24517W        W91300   4.391  40.523  11.947
24518W        W91301  44.508  19.211   3.695
24519W        W91302  23.940  12.170   2.479
24520W        W91303  22.238  16.547   4.853
24521W        W91304  36.287   3.428  10.749
24522W        W91305   7.739  28.605  13.274
24523W        W91306  43.014  43.085  12.595
24524W        W91307  41.898   0.906   4.872
24525W        W91308  20.938   4.222   4.033
24526W        W91309   1.917  11.241  11.344
24527W        W91310  12.814  36.100  13.037
24528W        W91311   3.454  29.830   2.247
24529W        W91312  32.353  14.217  11.307
24530W        W91313   2.685  10.330   2.826
24531W        W91314   8.191  41.218   2.506
24532W        W91315  43.518  40.916  12.991
24533W        W91316  13.201   0.530   2.440
24534W        W91317  30.500   0.123   2.788
24535W        W91318  39.370  35.563  11.084
24536W        W91319  18.134   4.995   4.272
24537W        W91320  43.786  15.249  11.254
24538W        W91321  34.470  16.145  13.633
24539W        W91322  31.928  33.029   0.710
24540W        W91323  44.264  12.503   0.440
24541W        W91324  14.798  37.129  13.900
24542W        W91325  15.145  18.010   4.843
24543W        W91326  37.601  14.316   2.356
24544W        W91327  24.337  43.980   3.765
24545W        W91328   1.386  17.188   2.836
24546W        W91329  20.949  21.558  13.966
24547W        W91330  27.552   4.823   1.318
24548W        W91331  13.023   1.878  14.584
24549W        W91332  39.985  22.207   1.262
24550W        W91333   7.942  36.269   2.732
24551W        W91334  18.899  22.766   0.263
24552W        W91335  28.237  41.369  10.292
24553W        W91336  25.684  14.839  12.035
24554W        W91337  25.151  12.440  13.009
24555W        W91338   9.247   3.759   1.875
24556W        W91339   6.171  12.766   0.973
24557W        W91340  30.562  29.978  10.801
24558W        W91341   4.343  26.052  14.952
24559W        W91342  17.343  16.440   4.104
24560W        W91343  24.420  29.031  13.371
24561W        W91344  32.081  18.980   1.421
24562W        W91345  24.128  43.894  11.449
24563W        W91346  10.401   5.143  10.668
24564W        W91347  17.648  25.462  14.797
24565W        W91348   5.303  17.768  14.871
24566W        W91349  15.554  27.734  11.084
24567W        W91350  41.449  17.027   4.333
24568W        W91351  18.777  21.720  12.752
24569W        W91352  31.970  24.623  14.982
24570W        W91353  33.617  18.254   2.714
24571W        W91354  30.545  37.456  12.977
24572W        W91355  18.572   8.105   4.018
24573W        W91356  21.504  43.425   3.685
24574W        W91357   7.358   6.143  11.703
24575W        W91358  12.213  28.662   0.307
24576W        W91359  23.160   6.716  13.324
24577W        W91360  22.381  36.150   1.264
24578W        W91361  17.091  31.069   1.322
24579W        W91362  12.037   6.270   0.322
24580W        W91363  14.836  15.600   4.596
24581W        W91364   9.833  35.483   3.686
24582W        W91365  19.277   0.735   1.685
24583W        W91366   6.192  41.065  12.052
24584W        W91367  30.009  29.823  13.987
24585W        W91368  43.260  31.032  10.750
24586W        W91369  40.401  20.659  10.530
24587W        W91370  33.918   9.164  12.727
24588W        W91371   9.241  10.572  10.624
24589W        W91372   2.107  41.900   2.675
24590W        W91373  30.536   2.359   3.575
24591W        W91374  35.614  43.398  14.926
24592W        W91375  35.804   7.927   1.801
24593W        W91376   5.369   8.071   0.353
24594W        W91377  16.632  25.365   1.875
24595W        W91378  21.266  44.079   1.710
24596W        W91379   5.769  25.144  11.881
24597W        W91380   4.774  26.437   4.617
24598W        W91381  17.311  34.645   1.396
24599W        W91382  42.867  35.912   4.202
24600W        W91383  30.942  33.356   4.119
24601W        W91384  24.297  33.671   0.632
24602W        W91385  39.949  24.462  14.004
24603W        W91386   3.830  32.958   4.760
24604W        W91387  25.518  32.865   1.308
24605W        W91388  32.698  23.634   4.977
24606W        W91389  17.252  29.503   2.155
24607W        W91390  22.102  40.866   2.465
24608W        W91391  26.925   1.101  14.310
24609W        W91392   3.393  35.948  10.709
24610W        W91393  42.197  41.748  13.680
24611W        W91394   8.400   2.501  14.385
24612W        W91395  10.613  37.325   1.395
24613W        W91396   8.630  10.523   4.707
24614W        W91397  21.057  11.876  12.475
24615W        W91398   9.120  22.892   1.252
24616W        W91399  20.463   0.517   4.653
24617W        W91400  31.056  32.009   4.629
24618W        W91401   1.046  41.571   1.757
24619W        W91402  29.246  24.047  10.278
24620W        W91403   3.407  20.244  11.025
24621W        W91404   9.285  16.051  14.825
24622W        W91405  18.259   2.224   0.733
24623W        W91406   0.290  26.648  10.100
24624W        W91407  34.843  12.215  12.722
24625W        W91408  27.361  30.724  11.486
24626W        W91409  17.024  18.223  12.610
24627W        W91410  16.449  27.119  13.794
24628W        W91411  10.809  10.161  13.299
24629W        W91412  18.783  28.412   1.475
24630W        W91413  10.668   3.669  12.413
24631W        W91414  37.364  19.608   2.857
24632W        W91415  16.527  33.479   1.294
24633W        W91416  44.573  10.820  11.966
24634W        W91417  19.007  28.191  12.478
24635W        W91418  17.550  30.843  11.749
24636W        W91419   4.234  29.370   2.720
24637W        W91420  33.745  42.106   2.400
24638W        W91421   6.620  27.989  10.587
24639W        W91422   0.550  32.561  12.482
24640W        W91423  37.710  27.671   2.835
24641W        W91424  33.471  31.788   4.667
24642W        W91425   3.896   8.171  11.529
24643W        W91426  14.806   4.873   4.522
24644W        W91427   8.447  43.365  14.039
24645W        W91428  38.834  30.078  13.737
24646W        W91429  23.213  12.844  10.730
24647W        W91430  37.384  39.908   1.654
24648W        W91431  24.868  20.268  14.032
24649W        W91432   1.524  22.768   4.497
24650W        W91433  34.355  39.345   0.868
24651W        W91434  22.699   1.270   2.922
24652W        W91435  43.427  23.465  11.463
24653W        W91436   7.376   4.196   0.169
24654W        W91437  32.379  10.869  10.555
24655W        W91438   8.637  15.369  14.938
24656W        W91439  29.635  16.670   4.137
24657W        W91440  15.647  34.644  14.554
24658W        W91441   3.610  41.881  14.634
24659W        W91442   2.890  21.158  13.824
24660W        W91443  32.133  11.236  10.252
24661W        W91444  31.887   0.867  12.967
24662W        W91445   0.813  41.656  10.879
24663W        W91446  24.097  31.164   2.892
24664W        W91447  10.782  16.721  14.745
24665W        W91448  31.255   8.505   5.504
24666W        W91449  14.760  10.208   0.060
24667W        W91450  40.509  40.370  13.046
24668W        W91451  28.953  21.100   3.650
24669W        W91452  17.654   0.200  12.145
24670W        W91453   4.676  39.803  14.274
24671W        W91454   9.740  39.418  11.690
24672W        W91455  29.955   6.152   0.833
24673W        W91456   2.287  18.876   4.247
24674W        W91457  12.110  12.747  11.143
24675W        W91458  17.039  43.449   3.247
24676W        W91459  27.479  44.119   1.835
24677W        W91460  43.568  23.977  14.598
24678W        W91461  37.959   8.202  13.812
24679W        W91462  38.774   3.880   2.246
24680W        W91463  21.065  12.980  13.418
24681W        W91464   9.425  20.091  11.503
24682W        W91465  10.870   6.312   0.053
24683W        W91466  23.000  17.040  13.551
24684W        W91467  28.920  36.994   1.531
24685W        W91468  31.974  40.229  12.445
24686W        W91469  32.017  17.344  11.516
24687W        W91470  22.246  21.783   3.556
24688W        W91471  24.512  32.700  12.582
24689W        W91472  25.503  12.797   0.519
24690W        W91473  12.537  38.510   0.147
24691W        W91474   9.275  14.615  12.989
24692W        W91475  21.467   6.463  12.528
24693W        W91476  31.366  15.326  11.608
24694W        W91477  14.742   7.638  14.021
24695W        W91478  32.207  44.064  10.811
24696W        W91479   2.778  26.012  12.376
24697W        W91480  36.377  37.875   3.145
24698W        W91481  31.941  42.495   3.655
24699W        W91482  44.405  36.678   4.620
24700W        W91483  10.928   8.418  12.612
24701W        W91484  32.534  14.124  14.487
24702W        W91485   0.081  10.155  11.521
24703W        W91486  42.550  10.175  11.643
24704W        W91487  14.677  29.142   1.426
24705W        W91488  26.474  16.471  10.728
24706W        W91489   4.946  11.739  10.856
24707W        W91490   6.772  29.176   3.179
24708W        W91491  11.069  10.434   0.092
24709W        W91492   4.579  41.869  11.781
24710W        W91493   8.196  37.565  12.118
24711W        W91494   8.835  11.232  12.775
24712W        W91495  25.646   1.428  13.843
24713W        W91496  28.134   5.653   2.165
24714W        W91497  26.899  43.562   4.189
24715W        W91498  30.507  16.315   1.294
24716W        W91499  20.798  41.242  13.533
24717W        W91500  32.462  39.976   0.449
24718W        W91501  11.312  15.742   1.466
24719W        W91502  33.086  20.238   3.119
24720W        W91503   8.880  39.383   4.103
24721W        W91504  37.866  24.710   3.073
24722W        W91505   7.096   0.298  12.743
24723W        W91506  26.885  27.763  14.921
24724W        W91507   0.957  24.975   9.973
24725W        W91508  23.234  27.520   2.671
24726W        W91509  23.119   8.586   2.825
24727W        W91510  35.108  40.439   4.826
24728W        W91511  42.317  19.295   2.151
24729W        W91512  35.362  13.721  11.016
24730W        W91513  10.662  34.485   1.214
24731W        W91514  40.897  14.728   3.326
24732W        W91515  15.057  12.653   4.125
24733W        W91516  34.020  23.135  13.583
24734W        W91517  24.427  43.483  12.832
24735W        W91518  35.408  17.555   0.018
24736W        W91519  38.117  23.039  10.738
24737W        W91520  25.680  31.025   1.164
24738W        W91521  30.046  19.195  14.354
24739W        W91522  43.334   0.259   1.538
24740W        W91523  20.608  24.703   2.713
24741W        W91524  37.325  26.765   3.721
24742W        W91525  21.408  38.358   2.179
24743W        W91526  20.846  33.131   2.414
24744W        W91527  21.451  43.474   2.765
24745W        W91528  27.099  38.309   2.786
24746W        W91529  31.832  23.237   0.039
24747W        W91530  31.144  27.319   0.603
24748W        W91531  33.099   4.078  12.423
24749W        W91532  11.708  29.897  11.563
24750W        W91533   4.732  40.487  11.039
24751W        W91534   7.217  30.223   1.678
24752W        W91535  44.698  29.089  13.110
24753W        W91536  20.051  41.487  14.605
24754W        W91537   0.234  43.266  10.455
24755W        W91538   4.137   8.369  13.954
24756W        W91539   0.296  23.465   3.582
24757W        W91540  43.458  22.037  10.565
24758W        W91541  32.035  20.976  12.391
24759W        W91542  25.576   4.766   0.309
24760W        W91543  23.826   0.022   2.819
24761W        W91544  16.336  41.940   3.156
24762W        W91545  44.990  16.029  14.383
24763W        W91546  22.700  37.975  13.664
24764W        W91547  44.279   4.455  12.895
24765W        W91548  22.705   4.639   5.163
24766W        W91549  38.645  25.517  14.741
24767W        W91550  27.490  34.579  14.972
24768W        W91551  39.952  24.763  12.998
24769W        W91552  23.012  21.673  14.198
24770W        W91553  23.808  27.561  14.396
24771W        W91554  22.107  14.866  11.509
24772W        W91555  43.610  20.599  11.163
24773W        W91556  31.210  24.635  13.340
24774W        W91557  30.151   8.820  12.085
24775W        W91558  18.142   8.380   2.789
24776W        W91559  19.998   2.733  13.398
24777W        W91560  32.405  28.046   4.174
24778W        W91561  35.534  17.534  11.168
24779W        W91562  11.398  32.509  12.642
24780W        W91563  16.366   6.161  10.838
24781W        W91564  42.847  15.637  12.535
24782W        W91565  12.739  18.329  11.564
24783W        W91566  12.727   4.224   1.972
24784W        W91567  22.810  19.574   4.212
24785W        W91568  25.310  28.519   5.529
24786W        W91569  19.566   3.440  14.802
24787W        W91570   6.346  31.399  13.093
24788W        W91571  44.849  41.638   1.842
24789W        W91572   9.312  41.349  14.947
24790W        W91573   2.068  14.077  10.278
24791W        W91574  19.531  15.584   1.711
24792W        W91575  40.070   4.244  10.774
24793W        W91576  35.448  40.357   3.910
24794W        W91577   2.721   2.790  12.533
24795W        W91578   1.317  27.556  14.775
24796W        W91579  28.824  44.914   0.916
24797W        W91580  16.217  41.140   1.741
24798W        W91581  27.554  20.758  10.685
24799W        W91582  41.344  12.668  14.369
24800W        W91583  31.955  13.884  13.443
24801W        W91584   3.517   8.859   1.958
24802W        W91585  40.352  33.846  14.447
24803W        W91586  29.849  12.530  13.701
24804W        W91587   6.632  30.588  13.859
24805W        W91588  20.543  15.585  14.028
24806W        W91589   9.286   5.997  12.040
24807W        W91590   1.993  10.234  12.915
24808W        W91591  27.433   0.899   3.219
24809W        W91592  13.201  12.263  13.322
24810W        W91593  10.322   6.161  11.535
24811W        W91594  41.498  12.185  14.538
24812W        W91595   9.645  42.435   4.506
24813W        W91596  10.704  34.925  10.714
24814W        W91597  44.885   9.930   1.708
24815W        W91598  21.457  26.562   4.526
24816W        W91599  13.784  11.708  14.797
24817W        W91600  10.537   3.233  12.838
24818W        W91601  21.777   4.329   1.509
24819W        W91602  17.163  17.225  12.190
24820W        W91603  17.478  32.198  14.952
24821W        W91604  42.320  18.590  11.465
24822W        W91605  10.343  34.898   3.130
24823W        W91606  16.091  44.863   2.871
24824W        W91607  37.846   3.962   2.287
24825W        W91608  26.214  10.114  11.514
24826W        W91609  30.452   7.666   3.792
24827W        W91610  42.387  25.460   3.773
24828W        W91611   9.754  17.299  12.848
24829W        W91612  25.521  21.806   0.902
24830W        W91613  11.557  14.231  10.716
24831W        W91614  17.694  13.433  14.587
24832W        W91615   3.599   3.219  13.339
24833W        W91616  21.967  30.142  11.495
24834W        W91617  22.108  38.942  14.860
24835W        W91618  10.361  20.498  13.939
24836W        W91619   2.524  43.777  12.450
24837W        W91620   6.624   5.776  12.130
24838W        W91621  41.175  34.473  13.780
24839W        W91622  14.957  18.599   3.707
24840W        W91623  33.413  14.560   4.732
24841W        W91624  32.564  13.189  11.213
24842W        W91625  30.703  32.951  14.514
24843W        W91626  43.756  30.466  13.948
24844W        W91627  39.594  29.481  12.343
24845W        W91628   2.791   0.832   2.162
24846W        W91629  25.211  12.704   1.589
24847W        W91630  26.289   6.394   0.200
24848W        W91631  20.011  21.674   4.557
24849W        W91632   1.551  43.700   3.149
24850W        W91633  24.506   2.457  11.225
24851W        W91634  29.582   9.777   4.064
24852W        W91635  26.382  24.579   2.421
24853W        W91636  16.781   5.402  13.554
24854W        W91637  15.678   1.463  12.980
24855W        W91638  14.765  23.190  11.590
24856W        W91639  10.234  13.126   1.173
24857W        W91640  27.592  33.285  13.966
24858W        W91641   9.790  37.718  10.272
24859W        W91642  22.679   2.054   9.991
24860W        W91643  27.214  28.066   0.894
24861W        W91644  32.646  12.772   4.117
24862W        W91645  26.433  17.770   2.251
24863W        W91646  25.343  34.061  13.640
24864W        W91647  40.986   6.082   0.657
24865W        W91648  24.695   5.949   4.224
24866W        W91649  38.031   1.969  14.799
24867W        W91650  30.376  33.902  11.240
24868W        W91651  36.286  27.335   4.959
24869W        W91652   4.937  43.707  12.709
24870W        W91653  40.968   3.898   3.590
24871W        W91654  10.438  27.521  11.629
24872W        W91655   1.263  37.105   2.177
24873W        W91656  21.623  37.438   2.821
24874W        W91657  43.224  40.293  11.984
24875W        W91658   1.228  38.165   2.783
24876W        W91659  13.949  27.676   2.837
24877W        W91660   3.488  35.961   5.038
24878W        W91661  10.631  23.074   0.778
24879W        W91662  14.749   5.965  14.878
24880W        W91663  26.022  20.010  12.295
24881W        W91664  29.927  23.612   4.670
24882W        W91665  44.055  18.194   0.503
24883W        W91666  15.564  29.620  13.413
24884W        W91667   1.824   2.507  12.192
24885W        W91668   9.704  12.953  10.710
24886W        W91669  33.838  13.743  12.249
24887W        W91670  20.112  13.102  14.379
24888W        W91671  12.435  39.545   1.949
24889W        W91672  38.262  28.700  10.582
24890W        W91673  17.985   5.327  14.811
24891W        W91674  31.101  43.098   1.447
24892W        W91675  18.742   3.773  14.324
24893W        W91676  16.680  42.401   0.343
24894W        W91677  29.090  11.558  12.550
24895W        W91678  32.297  31.242   2.768
24896W        W91679  29.602  40.294   4.072
24897W        W91680  31.885  15.963   1.584
24898W        W91681  27.732   5.704   1.830
24899W        W91682   5.202  28.138   1.222
24900W        W91683  10.328   5.967  12.844
24901W        W91684  15.983  23.573  11.165
24902W        W91685  37.289  19.348  12.797
24903W        W91686  15.540  34.901   4.924
24904W        W91687  27.605   9.780   2.805
24905W        W91688  34.908  33.034   4.257
24906W        W91689   8.867  32.557   2.333
24907W        W91690  38.911  17.764   5.298
24908W        W91691  16.518  17.744   3.587
24909W        W91692  40.456  19.108   4.880
24910W        W91693  24.162  20.035  12.421
24911W        W91694   0.720   1.230  11.331
24912W        W91695  27.495   2.263   1.229
24913W        W91696  32.857  44.354   1.435
24914W        W91697  13.579  21.550  10.544
24915W        W91698   2.891  25.179   1.133
24916W        W91699  38.069  25.081  14.118
24917W        W91700   8.809  26.167  14.043
24918W        W91701  28.470  20.001   3.327
24919W        W91702  27.509  19.447  13.092
24920W        W91703  28.573  13.509  13.961
24921W        W91704  31.397  33.205  13.911
24922W        W91705  44.000  18.748   2.328
24923W        W91706  22.260  34.109  14.063
24924W        W91707  31.670   9.590   4.151
24925W        W91708   0.683  20.043  12.642
24926W        W91709  34.110  35.898   4.249
24927W        W91710  28.989  33.144   0.493
24928W        W91711   0.119  28.146  13.943
24929W        W91712  20.649   3.074  11.126
24930W        W91713  13.147  23.777  13.322
24931W        W91714  44.079   2.851   3.165
24932W        W91715  20.115  23.435   0.282
24933W        W91716  11.859  32.047  11.705
24934W        W91717   5.377  12.616  11.177
24935W        W91718  34.922  34.175  10.286
24936W        W91719   8.760  31.839   4.461
24937W        W91720  32.623  28.004  11.469
24938W        W91721   2.739  37.310   3.152
24939W        W91722  37.922  21.055   1.445
24940W        W91723  39.346  12.667   0.864
24941W        W91724   2.678   0.785   4.515
24942W        W91725  21.333  30.214   3.807
24943W        W91726  23.656   9.599  10.991
24944W        W91727  40.414   4.877   1.839
24945W        W91728  17.283  28.364  13.936
24946W        W91729   1.702  10.688   1.842
24947W        W91730  43.098  42.701  11.067
24948W        W91731   7.890   7.373   3.258
24949W        W91732  43.957   0.204   2.741
24950W        W91733  37.830  31.874  10.441
24951W        W91734   5.380  28.016   4.256
24952W        W91735  36.579  37.480   1.432
24953W        W91736  10.831  20.984   3.750
24954W        W91737  18.704  18.617  13.545
24955W        W91738  34.712  26.468   0.678
24956W        W91739  17.512  32.992   0.451
24957W        W91740  40.815   6.294  11.163
24958W        W91741  20.783   9.697  14.702
24959W        W91742  42.868  22.638  11.727
24960W        W91743  10.650  25.494  12.965
24961W        W91744  25.147   4.886   4.556
24962W        W91745  10.362  28.306  11.246
24963W        W91746  39.400  35.812  11.558
24964W        W91747  21.296   2.465  13.391
24965W        W91748  16.328  41.171  13.370
24966W        W91749  24.681  35.825   3.240
24967W        W91750  36.168   6.223   0.988
24968W        W91751   3.292  31.309  13.020
24969W        W91752   9.162  12.554   1.801
24970W        W91753  11.103  30.002   3.884
24971W        W91754  34.926  15.627  14.231
24972W        W91755  22.208  20.470   0.180
24973W        W91756  38.956  40.019  10.915
24974W        W91757  15.334   9.720  12.988
24975W        W91758  13.696   3.847   1.794
24976W        W91759   8.651  18.583  12.142
24977W        W91760  18.146   8.553  14.848
24978W        W91761  24.464  15.529  11.208
24979W        W91762  36.600  27.987   3.685
24980W        W91763  15.620   0.365   1.266
24981W        W91764  13.303  32.189  13.023
24982W        W91765  35.913  38.823  13.333
24983W        W91766   4.412  38.413   0.002
24984W        W91767  28.359  29.539   1.749
24985W        W91768   9.567  17.817  12.821
24986W        W91769   5.344  11.229  10.535
24987W        W91770   9.524  21.337  12.030
24988W        W91771  16.608  28.503   0.022
24989W        W91772  12.313  44.935   0.302
24990W        W91773  32.630  25.521   2.746
24991W        W91774  36.772  17.715   1.375
24992W        W91775  31.521  34.060  13.594
24993W        W91776  11.798   4.765   2.796
24994W        W91777  21.961  12.940   0.779
24995W        W91778  35.039  24.466  10.706
24996W        W91779  36.807  18.125   4.057
24997W        W91780  33.002  16.734  10.553
24998W        W91781  30.947  41.324   1.715
24999W        W91782  29.554  18.782   0.862
25000W        W91783  12.863  29.821  12.562
25001W        W91784  36.226  40.356  11.595
25002W        W91785  33.024  22.669  11.547
25003W        W91786  44.282  32.862   1.492
25004W        W91787  42.033  21.741  11.604
25005W        W91788  41.414   1.274   1.431
25006W        W91789  15.548   6.216   2.381
25007W        W91790   8.320   3.540   1.927
25008W        W91791   4.715  19.722  14.464
25009W        W91792  28.606  27.594  13.791
25010W        W91793  43.264   8.585   1.159
25011W        W91794   3.942   4.462   3.213
25012W        W91795  19.219  30.899   2.435
25013W        W91796  36.990  22.047  14.251
25014W        W91797   5.760   1.425  14.056
25015W        W91798  44.943  29.946  14.886
25016W        W91799  27.719  16.779   0.977
25017W        W91800   3.896  36.123   4.775
25018W        W91801  29.907  40.412  10.150
25019W        W91802  30.708   6.175   4.895
25020W        W91803  24.623  42.371   0.508
25021W        W91804  10.755  37.031   4.468
25022W        W91805  20.153  12.583  10.274
25023W        W91806  13.344  33.914  13.021
25024W        W91807  20.543  22.674  14.799
25025W        W91808  23.978  41.212   0.898
25026W        W91809  13.901  34.665   0.777
25027W        W91810  37.858  39.012  10.714
25028W        W91811  37.722  36.054   4.359
25029W        W91812  18.157  39.780   3.130
25030W        W91813  31.051  12.312  14.406
25031W        W91814  15.127   3.749   1.126
25032W        W91815  29.526  29.052  13.942
25033W        W91816  30.572   0.292   1.760
25034W        W91817  33.183  32.931  11.185
25035W        W91818  33.407  10.753  10.599
25036W        W91819   9.907  22.629  10.748
25037W        W91820   6.831  33.430   0.027
25038W        W91821   9.834  41.018   2.671
25039W        W91822  41.465  39.908   4.617
25040W        W91823   5.767  10.282  14.339
25041W        W91824   0.002   8.674   1.170
25042W        W91825   7.991  38.590  14.973
25043W        W91826  20.095  31.414  10.707
25044W        W91827  22.425  11.188   4.291
25045W        W91828  42.020  39.433   1.284
25046W        W91829  23.657  26.722  12.378
25047W        W91830  26.031  16.729  10.676
25048W        W91831  44.444   9.839   1.439
25049W        W91832  39.831   6.728  12.951
25050W        W91833  17.370  18.205  13.448
25051W        W91834  11.172  14.316  14.524
25052W        W91835  19.438   4.848   4.933
25053W        W91836   1.349   7.335   1.286
25054W        W91837  15.555  16.036   4.237
25055W        W91838  20.702   8.276  14.792
25056W        W91839  13.197  29.031  11.044
25057W        W91840  22.315  30.921  13.863
25058W        W91841   6.484  18.783  12.896
25059W        W91842  32.404   9.827   0.521
25060W        W91843  11.205  44.269   3.214
25061W        W91844  19.761  23.086   4.496
25062W        W91845   6.858  12.227   0.406
25063W        W91846   5.964   0.682   0.614
25064W        W91847  32.083  37.047   1.926
25065W        W91848  10.530  27.931   4.168
25066W        W91849  27.734  17.139  12.561
25067W        W91850  30.837  21.625  12.925
25068W        W91851  30.619   0.835   2.179
25069W        W91852   9.139  18.925   4.471
25070W        W91853  21.026   3.776   1.418
25071W        W91854   6.715  21.699   3.174
25072W        W91855  12.148  36.054  10.638
25073W        W91856  17.175  38.999   3.651
25074W        W91857  22.988  40.476   3.322
25075W        W91858  43.035  24.634  14.025
25076W        W91859  34.862   6.429  13.298
25077W        W91860  43.385  27.973  12.321
25078W        W91861  25.729  14.540  11.202
25079W        W91862  33.460  28.401  10.251
25080W        W91863  35.782  20.331   0.733
25081W        W91864  13.276  20.712  10.432
25082W        W91865   5.460  32.075  13.279
25083W        W91866  13.876   0.877  14.897
25084W        W91867   6.393  37.106  14.500
25085W        W91868  20.847   8.257  10.743
25086W        W91869   0.209   0.814   1.326
25087W        W91870   0.499  39.458   1.936
25088W        W91871   6.397  36.097   4.809
25089W        W91872  37.982  32.680   4.376
25090W        W91873   5.166   1.763   1.710
25091W        W91874  24.673  23.297   2.324
25092W        W91875  12.735  41.953  12.049
25093W        W91876  37.273  33.312  11.105
25094W        W91877  26.973  36.127   0.987
25095W        W91878  19.448  40.458   2.286
25096W        W91879  21.240  31.639   3.664
25097W        W91880  19.721  31.115   0.697
25098W        W91881  13.188   7.467  11.972
25099W        W91882  27.463  16.158   0.376
25100W        W91883  27.216  19.712  12.009
25101W        W91884   4.243  13.561  12.928
25102W        W91885  25.771   9.204   0.061
25103W        W91886  33.453  44.031   3.670
25104W        W91887   6.760  14.343  13.419
25105W        W91888  24.611  18.242   3.915
25106W        W91889  11.777  30.637   3.857
25107W        W91890  18.258  36.544   1.816
25108W        W91891   3.708  18.993  14.333
25109W        W91892  22.168  14.233   2.867
25110W        W91893  14.825   6.825  12.178
25111W        W91894  32.721  27.001  13.512
25112W        W91895  20.121  14.472  11.164
25113W        W91896  33.950  26.189   1.054
25114W        W91897  11.615  40.014  12.790
25115W        W91898  37.472  39.869  10.758
25116W        W91899  11.371  33.379   3.903
25117W        W91900  35.916  10.150   0.406
25118W        W91901  34.348  37.737  11.987
25119W        W91902  26.414  29.229  14.301
25120W        W91903  23.458  43.113   0.485
25121W        W91904  30.712  35.852   1.846
25122W        W91905   8.476  26.345  11.463
25123W        W91906  42.810   1.378   2.204
25124W        W91907   1.726  18.626   0.690
25125W        W91908  40.281  31.895  12.066
25126W        W91909  32.801   7.982  11.174
25127W        W91910  22.703  17.771   4.885
25128W        W91911  43.790  35.834   0.116
25129W        W91912   0.317  42.260  13.910
25130W        W91913   9.863  16.700  14.005
25131W        W91914   8.400  30.854  13.563
25132W        W91915  38.813  13.585   3.098
25133W        W91916  41.922  11.369   2.706
25134W        W91917  32.765  36.753  12.524
25135W        W91918  43.778  24.474  13.370
25136W        W91919  43.077   2.258  13.822
25137W        W91920   5.316  22.250   0.835
25138W        W91921  11.287  37.592  12.606
25139W        W91922  19.437  35.725   4.601
25140W        W91923  40.905  38.781   1.125
25141W        W91924  10.585  12.127   4.845
25142W        W91925  28.983  41.594  14.517
25143W        W91926  12.803   9.849   2.269
25144W        W91927  25.541   4.568   4.400
25145W        W91928  10.023  22.782  11.603
25146W        W91929  33.942   9.389   1.169
25147W        W91930   6.876  41.616  13.007
25148W        W91931  37.557  12.787  11.620
25149W        W91932  17.495   0.422   2.689
25150W        W91933  12.602  14.655  10.561
25151W        W91934  28.617  34.554  11.978
25152W        W91935  25.485   1.595  10.800
25153W        W91936  40.231  20.229  12.168
25154W        W91937  42.723   6.524   4.503
25155W        W91938  15.395  29.022  12.487
25156W        W91939  36.314  19.795  13.381
25157W        W91940  21.079  25.648  11.647
25158W        W91941  28.089  42.483  13.013
25159W        W91942  11.613   1.965   2.998
25160W        W91943  36.392  40.711  12.581
25161W        W91944  13.300  34.226  12.027
25162W        W91945   4.465   4.046  13.644
25163W        W91946  38.897  27.410  10.324
25164W        W91947  21.693  44.805  14.245
25165W        W91948  27.544  38.073   2.624
25166W        W91949   8.224  15.379   3.863
25167W        W91950  25.983   5.965  11.761
25168W        W91951  38.633  14.184  13.877
25169W        W91952  11.608  38.534  13.329
25170W        W91953   7.288  12.862   2.216
25171W        W91954   7.319   8.381  11.995
25172W        W91955  22.295   2.443  13.481
25173W        W91956  42.004   1.974   3.650
25174W        W91957  22.600   9.869   1.852
25175W        W91958  26.936  16.749   3.710
25176W        W91959  20.038  21.538   3.724
25177W        W91960  28.177   2.816   0.345
25178W        W91961   0.923  34.952  13.819
25179W        W91962  25.498  26.279   0.014
25180W        W91963  22.090  26.441   4.129
25181W        W91964  27.007   1.906  13.641
25182W        W91965   0.634  10.800  11.214
25183W        W91966  16.144  32.408  14.961
25184W        W91967   4.159  29.010   0.016
25185W        W91968  16.721   0.783   3.032
25186W        W91969  18.362  16.543   2.570
25187W        W91970   5.950  12.882  14.385
25188W        W91971  36.733  13.160  13.376
25189W        W91972   5.325   4.649   0.874
25190W        W91973   2.223   4.214  13.050
25191W        W91974  24.595  17.876   4.808
25192W        W91975  11.502   1.627   3.799
25193W        W91976  13.168  31.852   2.275
25194W        W91977   3.628  33.474   4.716
25195W        W91978  13.734   2.796   3.429
25196W        W91979  32.301  35.984  10.395
25197W        W91980  26.166   2.264  11.337
25198W        W91981   6.307  26.003   2.337
25199W        W91982  19.655  15.113   1.584
25200W        W91983  13.269  32.740  12.985
25201W        W91984   4.507  16.710  11.423
25202W        W91985  33.930  24.122   1.822
25203W        W91986   2.002  34.598  12.438
25204W        W91987  23.235  28.501   3.655
25205W        W91988  27.550  29.125  12.389
25206W        W91989   8.371   9.869  12.858
25207W        W91990  38.818  28.485  14.822
25208W        W91991  44.027  12.949   4.466
25209W        W91992  32.691  35.585  13.824
25210W        W91993  11.263  37.591  11.604
25211W        W91994  36.379  40.003  13.004
25212W        W91995  14.426  20.597  13.308
25213W        W91996  37.820   8.686  13.964
25214W        W91997   3.995  20.729  11.362
25215W        W91998   0.837  12.805   0.440
25216W        W91999  38.542  43.081  12.009
25217W        W92000  20.323  37.943  13.371
25218W        W92001  24.256   9.766   2.778
25219W        W92002  31.174  18.690   1.444
25220W        W92003   8.784   1.420  11.616
25221W        W92004  39.951  25.151  11.609
25222W        W92005  35.953  27.459   4.497
25223W        W92006  19.260   1.218  11.167
25224W        W92007   0.640  10.688   0.774
25225W        W92008  23.757  14.692   2.402
25226W        W92009   7.207  24.515  12.876
25227W        W92010   8.685  34.708   3.374
25228W        W92011   8.367  34.393   4.560
25229W        W92012  30.807   9.583  12.183
25230W        W92013  13.268  21.625  11.776
25231W        W92014  14.109  13.118   4.109
25232W        W92015  29.940  26.963  13.065
25233W        W92016   5.732  30.796   1.583
25234W        W92017  34.078  15.545   0.954
25235W        W92018   0.537  16.625  13.103
25236W        W92019  18.362  15.574  13.739
25237W        W92020  34.344   5.689   5.717
25238W        W92021  21.118  24.080  12.970
25239W        W92022  16.422  33.091  11.240
25240W        W92023  40.239  37.974   0.714
25241W        W92024  32.594  38.729   1.383
25242W        W92025  13.860  11.635   0.361
25243W        W92026  21.758  17.555   2.392
25244W        W92027  24.223  42.578  14.369
25245W        W92028  43.507  38.408   0.228
25246W        W92029  24.256  17.124   0.880
25247W        W92030  37.296  33.865   2.093
25248W        W92031   2.246  35.928  11.188
25249W        W92032  25.908  23.651   4.559
25250W        W92033  42.297  10.759  13.290
25251W        W92034  34.383  10.759   5.077
25252W        W92035  30.025   4.712  14.801
25253W        W92036   6.321  28.019   2.741
25254W        W92037  28.170   8.178   0.989
25255W        W92038  41.470  14.270   0.272
25256W        W92039   3.381   6.147  10.691
25257W        W92040   9.392  31.112  11.209
25258W        W92041  35.360  37.114  13.366
25259W        W92042   9.324  34.547   3.541
25260W        W92043  16.846  42.300  13.575
25261W        W92044  22.280   8.003  10.602
25262W        W92045  20.041  30.852  14.398
25263W        W92046  22.636  43.337   3.787
25264W        W92047   4.387  19.276   2.023
25265W        W92048  30.402  27.396  11.525
25266W        W92049  14.877  20.342  13.460
25267W        W92050  18.905  28.927   3.605
25268W        W92051  18.502  33.334   2.161
25269W        W92052  18.631  32.645  13.808
25270W        W92053   6.957  38.345   0.821
25271W        W92054   0.689   3.229  11.517
25272W        W92055  18.280  43.378  11.513
25273W        W92056  19.670  10.334   3.601
25274W        W92057  24.298   8.324  12.960
25275W        W92058  28.388   7.682  13.884
25276W        W92059  12.711  27.726  13.848
25277W        W92060  34.862  41.537   1.784
25278W        W92061  27.236  40.028   1.685
25279W        W92062  34.146  30.410  14.767
25280W        W92063  22.752  30.821   3.591
25281W        W92064  18.611  21.017   0.783
25282W        W92065  10.735  27.631   1.146
25283W        W92066  23.881   3.571  10.781
25284W        W92067  14.717   2.762   0.384
25285W        W92068  41.082   0.537   3.793
25286W        W92069  15.072  21.243  12.428
25287W        W92070  21.621  42.572   2.608
25288W        W92071  36.843  18.175  14.288
25289W        W92072  11.882  35.082  12.933
25290W        W92073  32.103   6.345  14.223
25291W        W92074   4.862  11.851  12.134
25292W        W92075  31.555  20.829   2.969
25293W        W92076  10.276   5.473   2.233
25294W        W92077  25.506  19.102   3.131
25295W        W92078  23.278   6.372   3.145
25296W        W92079  41.544  30.293   0.372
25297W        W92080  13.983  32.508   2.587
25298W        W92081   9.380  40.059   1.804
25299W        W92082  26.152   9.593  11.518
25300W        W92083  38.497  38.453  14.752
25301W        W92084  15.842  29.099   2.154
25302W        W92085   1.171  42.446  11.131
25303W        W92086  21.453  36.263  12.618
25304W        W92087   1.470  43.512   0.779
25305W        W92088  33.714  11.250   3.794
25306W        W92089  23.671  42.768  12.820
25307W        W92090  17.274   0.228   4.170
25308W        W92091   1.284  40.376  12.499
25309W        W92092  14.646  13.079  14.489
25310W        W92093   4.428  38.048  10.688
25311W        W92094  43.952  32.861   2.625
25312W        W92095  39.047  22.464  10.049
25313W        W92096  34.117  30.500   0.789
25314W        W92097  28.041  32.541   0.808
25315W        W92098  16.789   7.969  12.071
25316W        W92099   1.475  21.025   1.380
25317W        W92100  33.962  33.647   2.719
25318W        W92101  39.067  38.408   1.165
25319W        W92102  29.721  28.008  14.894
25320W        W92103  12.248   1.864  11.163
25321W        W92104   6.796  21.748  12.372
25322W        W92105   8.443  43.786   4.373
25323W        W92106   7.443  10.143  11.369
25324W        W92107  27.437  44.089  10.594
25325W        W92108  36.542  41.567   1.941
25326W        W92109   4.047  34.407   0.729
25327W        W92110   2.799   4.538   2.315
25328W        W92111   1.802   9.405  10.862
25329W        W92112  31.485  42.225  12.549
25330W        W92113  18.611  19.984   3.244
25331W        W92114   5.583  39.064  14.521
25332W        W92115  31.612   0.479   3.806
25333W        W92116   3.430  40.425   3.399
25334W        W92117  41.458  11.854  12.782
25335W        W92118  20.167   8.334   1.311
25336W        W92119  25.618  27.702  10.187
25337W        W92120   4.144   8.651   2.431
25338W        W92121  38.001  19.121   3.278
25339W        W92122  11.574   0.927   3.691
25340W        W92123  20.105  39.780   1.828
25341W        W92124  11.644  12.229   0.349
25342W        W92125   1.539  19.598   2.373
25343W        W92126  41.071  43.682  11.977
25344W        W92127  20.722  41.869   2.808
25345W        W92128  27.901  14.174  10.710
25346W        W92129  12.244  16.641  12.954
25347W        W92130  44.783  17.205  10.754
25348W        W92131  33.575  39.609   4.629
25349W        W92132   7.953  19.673   1.720
25350W        W92133   0.040  21.200  13.172
25351W        W92134  16.127  13.530   0.495
25352W        W92135  24.214  13.745  13.790
25353W        W92136  26.243   2.911  12.527
25354W        W92137  13.793  17.429   4.961
25355W        W92138  33.595  14.693  13.415
25356W        W92139  31.204   6.700   9.792
25357W        W92140  33.581  42.942  11.400
25358W        W92141  44.257  42.400   0.955
25359W        W92142  28.325   3.334   1.949
25360W        W92143   6.673  13.323   3.429
25361W        W92144  22.762  14.111  13.863
25362W        W92145  34.590  31.034  11.953
25363W        W92146  14.749  17.770   0.373
25364W        W92147  25.930  12.108  13.400
25365W        W92148  21.909  43.715  11.411
25366W        W92149  23.099  17.231  10.788
25367W        W92150  22.656  34.286   1.943
25368W        W92151  20.531  34.634   3.290
25369W        W92152  10.621   8.775  12.872
25370W        W92153  40.498  23.110   4.943
25371W        W92154  16.166   5.226  14.674
25372W        W92155  44.566  37.620   1.608
25373W        W92156   3.824   3.338   0.233
25374W        W92157  30.928  35.838   5.144
25375W        W92158  11.765  33.849   5.361
25376W        W92159  37.331  34.957   4.587
25377W        W92160  14.727  14.236  13.480
25378W        W92161  17.704  11.972   2.761
25379W        W92162  18.661  26.477  11.141
25380W        W92163  44.830  26.146   3.026
25381W        W92164   3.729  13.358   3.006
25382W        W92165  23.488  15.362  11.141
25383W        W92166  36.196  26.977   4.593
25384W        W92167   8.308  43.007  11.522
25385W        W92168  18.679  33.425   3.653
25386W        W92169  15.411  39.081   1.565
25387W        W92170  14.015   3.697   3.382
25388W        W92171  20.567   8.394  14.024
25389W        W92172  39.276  17.728  14.296
25390W        W92173  11.658  22.786   4.453
25391W        W92174  33.132  29.740  14.835
25392W        W92175   0.452   2.999  14.520
25393W        W92176  19.155  34.081  12.863
25394W        W92177  32.822  36.106  12.486
25395W        W92178   4.748  24.244   3.193
25396W        W92179  42.585  36.586  12.485
25397W        W92180  23.998  37.543   3.175
25398W        W92181   6.874  19.001   1.761
25399W        W92182   8.883  13.732  11.074
25400W        W92183  40.532  43.086  12.196
25401W        W92184  33.061  42.253   1.376
25402W        W92185  35.501  22.250   2.707
25403W        W92186   3.176  19.068  11.279
25404W        W92187  42.899  41.330   2.243
25405W        W92188  39.272  12.350   3.003
25406W        W92189  38.749  14.218   0.232
25407W        W92190   5.920   0.437   2.758
25408W        W92191  39.927   0.432   0.885
25409W        W92192  25.638   0.282  11.574
25410W        W92193   3.473  15.686   1.480
25411W        W92194  27.455  16.981  14.359
25412W        W92195  19.039  36.945   1.838
25413W        W92196  36.597  12.124   1.001
25414W        W92197  43.036   1.975   3.377
25415W        W92198  30.688  33.603   1.394
25416W        W92199  17.146  26.442  14.611
25417W        W92200  44.203   7.746  13.086
25418W        W92201  27.712  28.065  14.889
25419W        W92202   9.303  19.167   2.154
25420W        W92203  26.101   4.332   3.336
25421W        W92204  28.465  18.113   2.315
25422W        W92205  24.701  40.843   3.076
25423W        W92206  22.813  25.282   1.733
25424W        W92207  17.530  44.708  12.033
25425W        W92208   1.919   7.449   4.151
25426W        W92209  28.492  31.632  13.892
25427W        W92210  43.050  34.430   3.916
25428W        W92211  36.477   7.206   0.889
25429W        W92212  20.572  13.748   4.153
25430W        W92213  24.280  42.276  14.795
25431W        W92214  26.006   4.666  11.746
25432W        W92215  35.027  39.114   3.102
25433W        W92216  14.301  14.603  11.595
25434W        W92217  30.960   8.829   1.893
25435W        W92218  35.617  25.270   2.209
25436W        W92219  22.315  14.676  12.374
25437W        W92220  16.686  22.508  12.802
25438W        W92221  42.595  28.581   2.314
25439W        W92222   0.197   3.042   3.663
25440W        W92223  44.743  12.747  14.349
25441W        W92224  26.548  38.804  10.224
25442W        W92225  38.047  28.215  13.342
25443W        W92226  16.815   8.611  14.096
25444W        W92227  26.192   6.858  12.117
25445W        W92228  41.244  22.087  14.007
25446W        W92229  10.661  11.171  13.664
25447W        W92230  16.866   9.831   4.590
25448W        W92231  38.927  12.595   4.403
25449W        W92232  20.543  24.724  13.309
25450W        W92233  12.201  12.670  12.183
25451W        W92234   5.535  30.069  11.549
25452W        W92235  43.657  18.599  12.015
25453W        W92236  44.811  29.131   0.737
25454W        W92237  38.538  32.536   2.595
25455W        W92238  13.148  35.131  12.070
25456W        W92239   1.732  44.932  13.895
25457W        W92240  40.817  24.430   1.068
25458W        W92241   9.364  36.182  13.044
25459W        W92242  16.995  30.485   2.814
25460W        W92243  40.886  24.088   1.483
25461W        W92244   7.544  33.614   0.037
25462W        W92245  38.043  34.983  11.190
25463W        W92246  10.241  44.295   0.166
25464W        W92247  26.829  25.346   3.894
25465W        W92248  17.752  18.789  13.865
25466W        W92249   1.268  21.294   4.100
25467W        W92250   7.029   8.331  13.379
25468W        W92251  36.026  12.309   2.790
25469W        W92252  36.663  12.878   2.573
25470W        W92253   1.872  15.531   4.077
25471W        W92254   8.483   2.772   3.122
25472W        W92255   9.567  39.936   0.815
25473W        W92256  32.165  12.717  10.711
25474W        W92257   3.476   9.194   0.730
25475W        W92258  40.066  43.832  12.925
25476W        W92259  21.935  16.961   1.911
25477W        W92260  16.483  19.175   4.518
25478W        W92261   0.931   8.682   1.385
25479W        W92262  21.499  24.260   2.850
25480W        W92263  27.230  14.389   3.245
25481W        W92264   8.875  20.992   5.238
25482W        W92265   8.464  27.586   1.747
25483W        W92266  16.804  36.290  14.756
25484W        W92267  42.695  10.520   0.184
25485W        W92268  41.736  25.921  11.555
25486W        W92269  14.087   8.758   0.905
25487W        W92270  16.885  30.709  11.842
25488W        W92271   9.658   5.658   4.006
25489W        W92272   2.412  10.691  12.087
25490W        W92273  37.439  37.338   2.699
25491W        W92274  15.557   9.092  11.032
25492W        W92275  21.304  23.152   1.837
25493W        W92276  17.576  26.107   3.629
25494W        W92277  12.188  39.591  11.652
25495W        W92278   1.793  44.120  13.575
25496W        W92279   3.756  19.058   3.258
25497W        W92280  31.693  30.045  12.877
25498W        W92281   1.461  18.156  12.093
25499W        W92282  30.081  14.610   3.208
25500W        W92283  13.062  31.047   3.876
25501W        W92284   3.943  36.362  13.005
25502W        W92285   7.709  36.913  10.397
25503W        W92286  38.026  18.002   3.958
25504W        W92287  37.476  34.004  14.756
25505W        W92288  18.125  12.199  12.939
25506W        W92289  36.394   0.755   2.432
25507W        W92290  34.937  30.615  11.398
25508W        W92291   7.820  37.868  13.042
25509W        W92292   8.969  28.568   3.264
25510W        W92293   7.325  24.887   0.947
25511W        W92294  21.666  16.096   3.183
25512W        W92295  42.300  11.945   4.563
25513W        W92296   7.584  15.141   4.600
25514W        W92297  27.786  12.661   2.752
25515W        W92298  20.776  11.806   0.862
25516W        W92299  20.645  43.865   3.351
25517W        W92300  32.070  11.325   1.299
25518W        W92301   8.739  23.635  14.450
25519W        W92302  24.656  38.367  12.015
25520W        W92303  41.903  17.707  12.369
25521W        W92304  15.735  44.446   4.985
25522W        W92305  31.508  27.909   2.367
25523W        W92306  14.108  36.918   2.125
25524W        W92307   4.979  38.956   1.979
25525W        W92308  10.151  44.424  12.865
25526W        W92309   9.762  35.862  11.842
25527W        W92310   0.333  29.518   4.268
25528W        W92311  13.331   4.101   3.691
25529W        W92312   7.911  16.939   3.552
25530W        W92313  31.239  34.956  11.533
25531W        W92314   8.741  29.169  11.054
25532W        W92315  24.259   8.423   3.166
25533W        W92316  14.749   2.501  12.913
25534W        W92317  25.434  30.496  10.159
25535W        W92318  16.870  24.545  13.452
25536W        W92319  36.139  39.834  12.478
25537W        W92320   1.958  35.590   2.648
25538W        W92321   1.652   6.173  11.122
25539W        W92322  27.159  42.482   1.421
25540W        W92323   9.636  11.576   3.238
25541W        W92324   3.367  34.721  10.463
25542W        W92325  11.637  41.439   2.423
25543W        W92326   6.755  14.368  12.149
25544W        W92327   0.861  23.006   2.901
25545W        W92328   9.770   2.729  10.686
25546W        W92329  44.462  44.800  13.550
25547W        W92330   2.303  27.615  11.982
25548W        W92331  23.043  32.975  11.933
25549W        W92332  31.180   0.950   0.752
25550W        W92333  39.045  10.504  10.902
25551W        W92334  12.926   1.203   3.736
25552W        W92335  25.776  27.103   4.488
25553W        W92336  36.536  21.671  12.444
25554W        W92337  42.202   6.691   0.709
25555W        W92338   9.775  25.431  11.224
25556W        W92339  43.828   7.764  14.425
25557W        W92340  33.076   8.085  13.606
25558W        W92341  33.551   7.872   1.948
25559W        W92342  43.665   0.299  14.779
25560W        W92343   9.327  10.314  11.947
25561W        W92344  21.187  16.744  13.971
25562W        W92345  28.140   1.168   0.329
25563W        W92346  10.260  20.092  13.624
25564W        W92347  31.088  21.460   3.220
25565W        W92348   4.154   7.483   2.194
25566W        W92349  19.115  16.281   0.068
25567W        W92350  44.823  35.308  12.969
25568W        W92351  20.972   7.384   1.720
25569W        W92352   9.829  40.580  13.590
25570W        W92353  43.072  36.475   2.772
25571W        W92354  43.887  42.426  11.586
25572W        W92355  29.875  35.619   2.235
25573W        W92356  38.887  38.286  13.497
25574W        W92357  31.636  11.385  10.405
25575W        W92358   4.886   8.540   2.041
25576W        W92359  28.662  35.453  11.763
25577W        W92360  39.816  14.627  14.319
25578W        W92361  26.871  33.912   2.704
25579W        W92362  11.420   5.452   2.180
25580W        W92363  12.330  42.078   2.203
25581W        W92364  34.571  10.794   0.412
25582W        W92365   5.589  39.225   3.345
25583W        W92366  38.337   3.771  14.625
25584W        W92367  34.900  13.878  11.173
25585W        W92368  42.924  32.317   1.982
25586W        W92369   8.400  16.810   3.566
25587W        W92370  10.892  40.001  11.322
25588W        W92371  42.413  12.183  12.458
25589W        W92372  39.094  34.395   3.708
25590W        W92373  32.033   7.438   1.001
25591W        W92374  11.687  35.832  12.431
25592W        W92375  12.174  22.296   3.640
25593W        W92376  41.302  22.631   0.719
25594W        W92377  20.595  43.519   3.740
25595W        W92378  21.257   3.884   1.865
25596W        W92379  17.258   2.730  11.910
25597W        W92380  43.928  28.696   0.383
25598W        W92381  24.334  14.018  12.016
25599W        W92382   6.269  23.504  11.653
25600W        W92383  17.573  41.068   1.354
25601W        W92384  14.397  14.789   4.712
25602W        W92385  44.026   2.805   2.243
25603W        W92386  25.072  40.526  14.367
25604W        W92387  25.068   4.457  10.702
25605W        W92388  35.600  11.946   1.346
25606W        W92389  31.376  38.718  11.906
25607W        W92390   5.736  19.014  13.214
25608W        W92391  19.133  39.115  12.005
25609W        W92392  33.965   6.122  14.485
25610W        W92393   1.947  31.765  11.174
25611W        W92394   3.864  16.220   0.527
25612W        W92395   1.710  17.746  12.478
25613W        W92396  27.896  40.896   0.182
25614W        W92397  27.912  22.207  13.388
25615W        W92398   4.801   5.415   1.874
25616W        W92399   7.704  16.038   3.576
25617W        W92400   6.472   0.809   4.119
25618W        W92401  27.429  24.076  13.556
25619W        W92402   9.206  36.810  13.711
25620W        W92403  19.041   4.507   3.818
25621W        W92404   5.084   7.906   0.793
25622W        W92405  11.661  19.248   0.640
25623W        W92406  22.700  38.096   2.332
25624W        W92407   0.392   4.105  13.514
25625W        W92408  39.582  32.359  10.745
25626W        W92409  36.042   7.093   1.780
25627W        W92410  33.209  40.421   4.737
25628W        W92411  23.122  14.662  14.823
25629W        W92412  14.976  30.465   2.749
25630W        W92413  10.278  41.382   1.808
25631W        W92414   0.505  13.814   2.754
25632W        W92415  30.184  13.378   2.814
25633W        W92416  33.243  40.485   0.859
25634W        W92417  21.996  39.044   1.864
25635W        W92418  37.634  25.477   2.366
25636W        W92419  38.138  28.263   3.163
25637W        W92420  25.660  38.885   4.964
25638W        W92421  31.459   6.900   2.181
25639W        W92422  42.431   6.661   4.945
25640W        W92423  10.139  29.967   2.260
25641W        W92424  42.344  15.326   4.701
25642W        W92425  28.994   0.840  11.708
25643W        W92426  38.779  40.001   4.179
25644W        W92427   4.976   1.137  12.572
25645W        W92428  15.422  23.210  12.453
25646W        W92429  39.242  37.136  10.574
25647W        W92430  35.110  40.243  12.184
25648W        W92431  14.230   9.195   2.732
25649W        W92432  35.170  16.880  11.652
25650W        W92433  33.306  17.316  11.098
25651W        W92434  30.918  39.257   0.916
25652W        W92435  28.901  31.971   1.920
25653W        W92436  15.539  14.108   1.973
25654W        W92437  41.320  32.596  13.500
25655W        W92438  14.610  31.079   4.498
25656W        W92439   2.894  16.552   4.220
25657W        W92440  21.223   8.076  12.069
25658W        W92441  19.159   8.508   2.924
25659W        W92442  21.604  21.160  11.478
25660W        W92443   9.137  16.718   2.187
25661W        W92444  31.102  23.682  12.312
25662W        W92445   2.400  12.356   4.856
25663W        W92446  22.128  42.309   3.212
25664W        W92447   7.405  33.814  12.286
25665W        W92448  44.980  12.104   3.105
25666W        W92449   0.871   6.988   1.740
25667W        W92450  29.898  25.674   1.449
25668W        W92451  37.054  34.628  13.600
25669W        W92452  29.210   8.410   4.252
25670W        W92453  15.165   6.671   0.370
25671W        W92454  16.054   2.015   3.472
25672W        W92455  32.619  32.020   3.216
25673W        W92456  28.994  41.443   2.964
25674W        W92457   6.636  25.317  11.952
25675W        W92458  22.632   0.237   5.075
25676W        W92459  16.172  41.046   3.225
25677W        W92460  21.026   4.450  13.406
25678W        W92461  35.645   8.423   1.766
25679W        W92462  22.569  23.183   0.542
25680W        W92463  29.349   5.912  12.171
25681W        W92464   4.622   6.211  13.963
25682W        W92465  13.687  39.963  11.936
25683W        W92466  12.177  43.511   2.762
25684W        W92467  19.211  33.854   3.817
25685W        W92468  17.302  28.185   0.491
25686W        W92469  24.128   2.287   2.678
25687W        W92470  43.461  41.297  13.819
25688W        W92471  27.925   2.425  14.313
25689W        W92472   0.511  35.163  14.970
25690W        W92473  39.935   2.387  14.327
25691W        W92474  41.323  20.072  12.177
25692W        W92475  23.634  40.294  10.564
25693W        W92476  40.035  33.447  13.792
25694W        W92477  42.789  18.450  10.635
25695W        W92478  34.632  32.507  10.712
25696W        W92479  39.022  43.855  14.784
25697W        W92480   1.054   0.211   3.440
25698W        W92481  15.227  10.863  13.410
25699W        W92482   0.849  29.222   0.932
25700W        W92483  13.860  13.738   0.843
25701W        W92484   1.773  35.866   1.292
25702W        W92485  33.101  18.794   0.358
25703W        W92486   1.556  31.856   4.150
25704W        W92487  20.013  29.073   0.223
25705W        W92488  26.699  11.181  14.754
25706W        W92489  27.074  13.841  10.626
25707W        W92490  39.938  12.826   4.894
25708W        W92491  15.631   3.739   0.750
25709W        W92492  33.108  12.116   1.740
25710W        W92493  10.823  31.989   1.484
25711W        W92494  19.124  25.874   4.069
25712W        W92495  34.963  23.006   0.834
25713W        W92496  27.462  32.159  11.404
25714W        W92497  29.959  17.046   1.442
25715W        W92498   4.558   4.838   3.739
25716W        W92499  40.199   2.442   3.694
25717W        W92500  15.580  38.875   4.471
25718W        W92501  23.095  39.159   3.665
25719W        W92502  44.898  21.722   4.376
25720W        W92503  27.510   4.214   3.241
25721W        W92504  12.701  19.686   4.084
25722W        W92505  17.849  39.451   0.360
25723W        W92506  32.687  44.058  11.590
25724W        W92507  18.002  12.429   2.731
25725W        W92508  26.991  43.817   3.726
25726W        W92509  24.090   8.678   0.920
25727W        W92510  42.436  22.348  14.065
25728W        W92511  30.935  32.468  14.755
25729W        W92512  44.411  32.089   0.274
25730W        W92513  37.889   0.524  14.840
25731W        W92514   3.480  13.284  11.409
25732W        W92515  25.558  23.798  11.559
25733W        W92516  13.397   6.991   1.929
25734W        W92517  21.990   9.439   2.263
25735W        W92518  33.060   0.574  14.020
25736W        W92519  12.597  17.790  10.721
25737W        W92520  25.699  13.926  10.640
25738W        W92521  43.050  23.485   0.369
25739W        W92522  20.841   3.768  13.597
25740W        W92523  18.310  38.480  12.575
25741W        W92524  23.470   3.418  14.429
25742W        W92525   3.212  20.496   1.398
25743W        W92526   8.376   6.383   2.291
25744W        W92527  43.028  12.561   3.560
25745W        W92528  31.968  11.382  12.489
25746W        W92529  36.521  16.064   1.784
25747W        W92530  32.438  42.091  11.390
25748W        W92531   5.360  11.718   1.675
25749W        W92532   0.717  19.317   3.259
25750W        W92533  19.642   6.474   3.844
25751W        W92534  16.708  39.815   0.896
25752W        W92535  41.832  37.889  14.830
25753W        W92536  18.047  14.177   0.880
25754W        W92537  22.155  33.486  12.811
25755W        W92538  28.516  36.356  10.588
25756W        W92539  37.874  19.097  13.403
25757W        W92540  10.787   6.244  10.649
25758W        W92541  38.542   5.714  13.928
25759W        W92542  40.276  24.720  12.572
25760W        W92543  40.051  42.373  13.463
25761W        W92544  41.306  42.895  10.691
25762W        W92545  26.540   2.237   5.014
25763W        W92546  42.268  30.642  11.564
25764W        W92547  29.040  21.463  12.543
25765W        W92548  22.534   7.123  10.668
25766W        W92549  30.060  22.994  14.463
25767W        W92550  13.673  11.625   2.365
25768W        W92551  30.604  23.666  11.472
25769W        W92552  23.794   2.484   0.935
25770W        W92553  28.102  41.978  13.086
25771W        W92554   8.721  12.082   3.227
25772W        W92555  40.040  18.751  11.143
25773W        W92556  26.101  44.196   4.645
25774W        W92557  28.193  12.886   0.397
25775W        W92558   7.995  10.465   4.304
25776W        W92559  26.442   6.926  13.887
25777W        W92560   9.842   2.971  11.544
25778W        W92561  18.121   8.747  10.990
25779W        W92562  12.251  31.604   4.130
25780W        W92563  44.068  10.388   3.253
25781W        W92564  18.218  18.801  12.858
25782W        W92565  32.347   3.863   4.575
25783W        W92566  42.338   0.734  11.204
25784W        W92567  42.433   6.112  13.926
25785W        W92568  34.533  15.637  10.594
25786W        W92569  42.196  22.642  12.359
25787W        W92570  37.054  42.950   0.988
25788W        W92571  39.595   7.844   0.369
25789W        W92572  12.655  42.038   4.146
25790W        W92573  34.300   3.849   0.423
25791W        W92574  31.732  13.045  12.002
25792W        W92575  42.746   3.255  14.001
25793W        W92576  21.231  36.767  14.293
25794W        W92577  26.243  24.288  10.634
25795W        W92578  24.295  29.579   3.225
25796W        W92579  31.155  14.078   3.677
25797W        W92580  11.198  15.884  10.570
25798W        W92581  10.127   1.196  14.053
25799W        W92582  43.214  31.783  10.447
25800W        W92583  23.176  39.464   2.329
25801W        W92584  23.781  16.169  12.795
25802W        W92585  37.902  17.548   3.685
25803W        W92586  19.817  17.766  10.939
25804W        W92587  42.221  34.558   4.306
25805W        W92588  29.639  36.514  13.422
25806W        W92589  36.590  33.348  13.455
25807W        W92590   6.849  42.379  13.426
25808W        W92591   4.903  38.756  13.797
25809W        W92592  33.574  26.263  13.471
25810W        W92593  17.991  28.187  10.816
25811W        W92594  15.129  16.350   0.415
25812W        W92595  14.865  19.571  12.412
25813W        W92596  27.821  15.100   1.389
25814W        W92597  17.426  32.132   4.143
25815W        W92598  23.603  11.306  14.986
25816W        W92599  39.428  21.181   4.613
25817W        W92600  11.890   9.136   1.985
25818W        W92601  35.222  26.429  13.990
25819W        W92602  44.147  39.516  10.109
25820W        W92603  17.052  20.696  14.062
25821W        W92604  40.744  41.302  12.115
25822W        W92605  32.091  36.079   0.271
25823W        W92606  28.719   4.869  12.866
25824W        W92607  43.856  25.422   1.632
25825W        W92608  16.604  19.397   1.733
25826W        W92609  28.107  23.293  10.719
25827W        W92610  22.713  42.517  11.198
25828W        W92611  24.644  11.153  10.991
25829W        W92612  42.577  38.120  11.846
25830W        W92613  29.019  22.148   4.613
25831W        W92614   9.564  37.935  13.188
25832W        W92615   3.922  12.423  13.808
25833W        W92616  40.985  41.195   1.847
25834W        W92617  37.017  10.181  11.692
25835W        W92618   0.815  34.024  13.858
25836W        W92619  14.143  32.391  10.605
25837W        W92620  29.396  42.658  11.433
25838W        W92621  30.636  14.646   0.275
25839W        W92622  44.838  18.664   4.634
25840W        W92623  23.271  17.816  14.737
25841W        W92624  11.364  44.447   3.685
25842W        W92625   5.550  18.601  14.204
25843W        W92626  41.035  39.888   1.650
25844W        W92627  41.918  42.744   2.029
25845W        W92628  11.276  11.674   1.599
25846W        W92629  39.977  17.238  10.830
25847W        W92630  23.694  38.090  14.980
25848W        W92631  28.693   8.903   2.188
25849W        W92632  21.805  27.697   2.847
25850W        W92633  35.157  37.411  12.017
25851W        W92634  23.339  37.930  14.657
25852W        W92635   8.917  38.155  12.402
25853W        W92636   7.133   0.315   0.809
25854W        W92637  15.989  35.376  12.434
25855W        W92638   8.316   2.197   4.899
25856W        W92639  16.584  35.081   1.220
25857W        W92640   7.393  13.778  13.841
25858W        W92641   6.310   2.878  13.342
25859W        W92642  36.401  44.721  13.031
25860W        W92643  25.453  24.606  12.080
25861W        W92644  35.866  18.750   4.707
25862W        W92645   6.779  19.453   4.170
25863W        W92646  31.150  17.771  12.038
25864W        W92647   3.162   1.310  11.974
25865W        W92648  35.505  21.378  12.150
25866W        W92649  15.568  44.566  12.411
25867W        W92650  43.757  15.552   3.067
25868W        W92651  24.466  14.694   0.105
25869W        W92652   9.083  32.517  13.803
25870W        W92653  32.988   1.428   3.902
25871W        W92654   3.942  43.920   3.217
25872W        W92655  19.507  27.406  14.719
25873W        W92656  29.643  41.803   1.468
25874W        W92657  31.839  15.764  11.137
25875W        W92658  41.339  32.655   1.024
25876W        W92659  34.349   9.663  11.616
25877W        W92660  43.976  38.049  11.662
25878W        W92661  29.109  26.590   1.229
25879W        W92662  26.502  14.325   1.271
25880W        W92663  30.690  20.684  10.678
25881W        W92664  28.590  11.783  14.978
25882W        W92665  22.010  34.032   0.853
25883W        W92666  15.072  28.891  14.031
25884W        W92667  41.842  10.157   2.319
25885W        W92668  19.707   0.006   4.675
25886W        W92669  36.608  41.017   2.834
25887W        W92670  22.771  41.514   4.084
25888W        W92671  29.479  25.679   4.122
25889W        W92672   7.349  23.230  12.535
25890W        W92673   0.069  38.674  13.565
25891W        W92674  26.552   5.871  11.951
25892W        W92675  24.045   6.135   4.964
25893W        W92676   7.406   4.892  12.062
25894W        W92677  24.730  26.746  15.000
25895W        W92678  15.208  26.439   2.394
25896W        W92679   0.289  26.935  11.625
25897W        W92680  31.990   5.852   1.810
25898W        W92681  13.294  20.006   0.127
25899W        W92682  10.384  11.354  12.277
25900W        W92683   6.620   0.485   0.178
25901W        W92684  34.117  11.947   3.168
25902W        W92685  27.420  33.094   3.121
25903W        W92686  44.807  23.009  11.263
25904W        W92687   1.721  24.650  11.633
25905W        W92688  31.502   1.800  13.765
25906W        W92689  23.387   2.892   3.461
25907W        W92690  27.160  41.042  13.833
25908W        W92691   3.553  36.505   3.872
25909W        W92692  26.531  22.929   2.493
25910W        W92693  28.580   7.778   4.899
25911W        W92694  36.725  19.651   2.241
25912W        W92695  24.543  35.004  12.891
25913W        W92696  29.969  28.757   1.071
25914W        W92697  38.808  37.564   3.966
25915W        W92698  30.013  22.131  14.521
25916W        W92699  43.522  29.138   1.466
25917W        W92700  40.581  23.571  12.066
25918W        W92701   6.777  37.944  10.725
25919W        W92702  43.272  43.919   1.235
25920W        W92703  10.298  27.947   2.381
25921W        W92704   3.490  32.821  12.419
25922W        W92705  25.685  13.137  13.526
25923W        W92706   7.220  21.720   2.617
25924W        W92707  43.102  15.164  14.622
25925W        W92708  10.281  38.230  11.725
25926W        W92709  24.213  23.274  13.406
25927W        W92710  13.235  28.140   4.569
25928W        W92711   8.928  15.573  13.838
25929W        W92712   7.661  21.002  14.965
25930W        W92713  38.415  27.656   3.593
25931W        W92714  39.847   9.735   0.097
25932W        W92715  40.039  22.432   0.759
25933W        W92716  25.635  22.315   5.522
25934W        W92717  26.737   6.871   0.306
25935W        W92718  25.032  31.685  10.668
25936W        W92719   1.010  40.875  13.332
25937W        W92720  26.927   0.404   2.448
25938W        W92721  18.893  36.923  11.700
25939W        W92722  12.487   9.341   1.365
25940W        W92723  24.762  11.518  12.842
25941W        W92724  31.055  16.375   3.206
25942W        W92725  42.253  39.475  11.761
25943W        W92726  15.445  18.462   2.818
25944W        W92727  37.450  40.722  10.889
25945W        W92728  41.320  36.952  12.086
25946W        W92729  38.590   7.744   4.052
25947W        W92730  41.406  37.967  11.566
25948W        W92731  43.486  11.199  13.918
25949W        W92732  37.957  38.175   0.508
25950W        W92733   5.813  18.132   1.833
25951W        W92734  34.720  44.476  13.008
25952W        W92735  20.751   0.359   1.181
25953W        W92736  15.649  44.940   4.036
25954W        W92737  42.544   8.800  12.915
25955W        W92738  32.600  34.453  14.684
25956W        W92739   1.349  38.971   2.229
25957W        W92740  34.894   6.834  12.930
25958W        W92741   7.766   0.517  14.622
25959W        W92742  18.495  33.165   4.627
25960W        W92743  11.265  21.966  14.443
25961W        W92744  42.316  22.590   3.170
25962W        W92745   6.391   8.425  12.849
25963W        W92746  17.652  30.242   2.397
25964W        W92747  24.174  19.581  12.698
25965W        W92748  43.110  11.765  10.302
25966W        W92749   4.157  43.309  11.435
25967W        W92750  20.061  33.612  11.185
25968W        W92751  15.809  33.597   2.892
25969W        W92752  34.963  17.282  12.527
25970W        W92753  13.273  19.573   0.427
25971W        W92754  34.461  20.493   0.087
25972W        W92755  41.068  21.594   0.677
25973W        W92756  29.366   3.152   0.944
25974W        W92757  37.522  33.822  13.915
25975W        W92758  13.386  44.405  12.975
25976W        W92759  13.654  33.371  13.548
25977W        W92760   7.843   6.008  14.476
25978W        W92761   1.868  35.586  11.257
25979W        W92762  23.607  29.961   4.155
25980W        W92763   8.363   7.826  14.510
25981W        W92764  31.906   6.265  14.980
25982W        W92765  10.688  19.768   4.049
25983W        W92766  12.600  10.566  14.894
25984W        W92767  19.694   7.652   2.183
25985W        W92768  41.011  44.978  14.059
25986W        W92769  42.455  23.064   1.387
25987W        W92770  42.594   2.283  13.618
25988W        W92771  41.977  16.895   4.274
25989W        W92772  40.978  14.171   0.062
25990W        W92773  28.668  10.397  12.590
25991W        W92774   6.205  28.371   3.708
25992W        W92775  44.223  41.433   2.693
25993W        W92776  14.165  41.312   3.623
25994W        W92777   4.819   7.781   1.651
25995W        W92778  17.545  23.443   4.174
25996W        W92779  14.885  14.782   1.860
25997W        W92780   1.691  31.094   1.514
25998W        W92781   3.426   6.213  13.343
25999W        W92782  30.638  19.813  14.088
26000W        W92783   6.497  25.763   0.303
26001W        W92784  38.852  40.113  14.374
26002W        W92785  26.051  19.725   3.483
26003W        W92786  42.972  25.591  12.082
26004W        W92787  24.182  23.713   4.721
26005W        W92788  30.921  34.001   4.754
26006W        W92789  40.148   6.738   4.640
26007W        W92790  15.727   2.492   1.246
26008W        W92791  17.460  38.067  11.956
26009W        W92792  16.780  12.905  14.990
26010W        W92793  15.194   8.194   1.733
26011W        W92794   0.703  35.981  12.944
26012W        W92795  22.972  24.411   4.134
26013W        W92796   0.619  12.083   4.850
26014W        W92797  27.899   1.606   3.078
26015W        W92798  25.269   9.205   0.860
26016W        W92799  29.655  42.307   4.169
26017W        W92800  10.773  23.314  12.048
26018W        W92801  33.628   0.394  12.106
26019W        W92802  11.487  35.431   4.031
26020W        W92803  26.026  43.613  13.273
26021W        W92804  28.517  37.366  10.500
26022W        W92805  43.946  35.011  12.664
26023W        W92806   7.191   4.416  12.106
26024W        W92807   3.100  35.513   3.496
26025W        W92808   9.257   8.359  11.293
26026W        W92809  18.636  44.340   1.930
26027W        W92810  31.499   3.160   3.108
26028W        W92811  25.197  30.136   1.302
26029W        W92812  42.330   2.756   1.691
26030W        W92813  24.965   2.837   1.778
26031W        W92814  11.698  19.514   1.140
26032W        W92815  23.319  22.507   1.794
26033W        W92816  31.931  14.352  11.038
26034W        W92817   0.377  21.239  14.446
26035W        W92818  35.999  27.991  14.949
26036W        W92819   3.747  44.935   4.266
26037W        W92820  41.761  28.028   0.267
26038W        W92821   6.456  33.548  14.245
26039W        W92822  22.909  11.308   4.397
26040W        W92823  13.207  28.277   0.361
26041W        W92824  24.565  15.437   0.846
26042W        W92825  20.310  10.914   2.872
26043W        W92826  37.001   4.236   0.842
26044W        W92827  22.526  25.028   2.074
26045W        W92828  20.281  12.086   0.234
26046W        W92829  29.503  12.405   2.284
26047W        W92830   5.052  43.993   4.731
26048W        W92831   6.199  28.120  14.839
26049W        W92832  11.310   1.228  13.016
26050W        W92833  21.783   8.628   4.218
26051W        W92834   9.841  34.994  12.006
26052W        W92835   8.856  29.097   1.670
26053W        W92836  17.820  26.498  13.810
26054W        W92837  12.169  37.797   0.528
26055W        W92838  35.141   6.479   1.282
26056W        W92839  23.270  10.141  13.508
26057W        W92840  14.326   6.139  10.358
26058W        W92841  17.782  16.230   3.944
26059W        W92842  22.514  27.969   3.077
26060W        W92843  20.993  26.046  10.443
26061W        W92844  15.679  21.140  14.413
26062W        W92845   2.232  23.354   2.159
26063W        W92846  25.704  37.831   3.780
26064W        W92847  17.312   1.718   1.835
26065W        W92848  25.944  37.583   2.195
26066W        W92849  27.669  18.597   4.141
26067W        W92850  41.984  43.955   2.576
26068W        W92851  25.693  32.499  13.852
26069W        W92852  43.849  27.116   1.970
26070W        W92853  33.465  30.558   0.278
26071W        W92854   9.080  17.181   2.973
26072W        W92855  36.541  19.905  10.080
26073W        W92856  30.461  22.664   0.624
26074W        W92857  33.956  12.885   1.336
26075W        W92858   0.698  38.109  14.803
26076W        W92859  44.853  23.456   2.841
26077W        W92860   4.283  28.512  14.182
26078W        W92861  15.830   5.215   4.223
26079W        W92862  44.527  24.092  14.935
26080W        W92863  12.582   9.355   2.313
26081W        W92864  38.691  16.104   2.373
26082W        W92865  24.594  17.343   4.172
26083W        W92866  14.139  43.785   3.740
26084W        W92867   3.048  33.083  14.675
26085W        W92868   0.585   3.016   4.162
26086W        W92869  13.415   2.850   4.081
26087W        W92870   1.754   6.514   0.846
26088W        W92871  11.214   9.716   2.205
26089W        W92872   0.996   8.854   4.038
26090W        W92873  26.017   2.504  14.455
26091W        W92874  21.946  43.814  13.387
26092W        W92875  33.174   4.980   0.284
26093W        W92876  33.574  17.183   1.189
26094W        W92877  42.708  27.162   2.255
26095W        W92878  39.150  19.601   4.920
26096W        W92879   6.717  37.059   1.746
26097W        W92880   7.201  23.120   1.330
26098W        W92881   7.873  29.663   2.752
26099W        W92882  23.236  22.596  13.585
26100W        W92883  36.588   5.678   3.568
26101W        W92884  33.703  43.898  12.553
26102W        W92885  40.821  40.774  13.907
26103W        W92886  13.876  32.130  12.355
26104W        W92887  38.573  10.645  12.001
26105W        W92888   7.108  13.677  12.499
26106W        W92889  34.100  18.675  12.976
26107W        W92890   9.351  32.648   2.574
26108W        W92891  37.418   6.337   4.107
26109W        W92892  17.796  14.565  12.059
26110W        W92893  28.617  13.645   3.780
26111W        W92894  42.362  15.187  11.528
26112W        W92895  38.539  33.557   4.587
26113W        W92896  34.446   3.528  12.607
26114W        W92897  25.047  29.775  13.929
26115W        W92898  15.853  27.521  11.505
26116W        W92899  26.155  31.981  14.484
26117W        W92900  43.805  29.190  12.841
26118W        W92901  35.017  37.708   5.197
26119W        W92902  16.809  33.328   1.684
26120W        W92903  34.075  34.978  12.489
26121W        W92904  32.183  18.599   3.303
26122W        W92905   4.608  41.561   4.901
26123W        W92906  19.003  28.219   4.544
26124W        W92907  13.258   2.381   4.199
26125W        W92908  23.199  13.118  11.159
26126W        W92909  24.408  23.542  11.952
26127W        W92910   9.198  26.663  14.794
26128W        W92911  43.342  44.946   4.174
26129W        W92912  22.401  32.907  11.120
26130W        W92913  29.400  35.416   2.326
26131W        W92914   8.216  42.082   4.102
26132W        W92915   2.646  17.305   5.075
26133W        W92916  38.476   9.184  11.797
26134W        W92917  17.500  29.026  11.192
26135W        W92918  11.533   2.851  12.117
26136W        W92919  21.422  42.712  14.920
26137W        W92920  16.281  32.047   2.750
26138W        W92921  23.648  19.198  13.957
26139W        W92922  17.208  38.286   1.254
26140W        W92923   8.941  34.984   2.384
26141W        W92924  27.671  17.263   0.743
26142W        W92925   0.882  40.652   1.833
26143W        W92926  26.848  24.484  10.228
26144W        W92927  22.742  38.022  10.263
26145W        W92928   5.024  36.603   2.909
26146W        W92929  22.277  36.447  11.504
26147W        W92930  15.616  26.503  13.880
26148W        W92931  17.245  32.323  11.410
26149W        W92932  29.914  29.086  13.584
26150W        W92933  28.594  26.443   0.474
26151W        W92934  18.919  38.813   5.171
26152W        W92935  12.728  27.534   4.212
26153W        W92936  33.913   1.835   0.084
26154W        W92937  43.779   2.844  11.188
26155W        W92938  44.816   6.016  11.690
26156W        W92939   8.943  19.736  13.781
26157W        W92940  20.772  42.773  13.489
26158W        W92941  36.524  31.955   4.033
26159W        W92942  42.851  33.293   2.232
26160W        W92943  18.695  18.340   2.646
26161W        W92944  27.481  26.364  12.125
26162W        W92945   4.990  13.787  12.091
26163W        W92946  24.381  21.099   4.029
26164W        W92947  42.145  33.541   3.774
26165W        W92948  42.703  28.482   0.829
26166W        W92949  16.887  11.796   5.047
26167W        W92950  21.166   6.760  11.171
26168W        W92951  23.616   6.213   4.680
26169W        W92952  40.289   6.411   0.897
26170W        W92953   2.887   0.297  11.611
26171W        W92954  43.034  17.884  10.339
26172W        W92955  24.555  12.769   3.786
26173W        W92956  30.264   5.303  13.474
26174W        W92957   7.614  31.649   2.380
26175W        W92958  24.179  37.246  11.188
26176W        W92959  16.094  19.581   4.301
26177W        W92960  23.647   0.180   2.367
26178W        W92961  26.785  36.478   3.650
26179W        W92962  37.153  10.724   1.851
26180W        W92963  22.258  12.618   2.316
26181W        W92964  36.454  17.435   3.197
26182W        W92965  16.991  13.499   4.497
26183W        W92966  21.718  11.059   4.890
26184W        W92967   9.731   1.936   0.152
26185W        W92968  33.234  15.334   0.215
26186W        W92969  24.761  36.935  13.871
26187W        W92970  16.060  24.554   1.462
26188W        W92971  21.621  29.069  14.872
26189W        W92972  21.938   8.669   4.766
26190W        W92973   1.803  35.069   3.186
26191W        W92974  26.571   0.879   1.287
26192W        W92975  22.198   6.477   0.823
26193W        W92976   9.100  44.502   4.112
26194W        W92977  36.249  25.429  12.575
26195W        W92978  10.292  30.838  11.386
26196W        W92979   2.202  12.365  13.407
26197W        W92980   7.388  16.384   1.898
26198W        W92981  18.614  27.377  11.387
26199W        W92982  35.670  24.123  11.652
26200W        W92983  43.009  15.849  12.979
26201W        W92984   0.343  20.037  11.452
26202W        W92985   5.942   3.380   1.699
26203W        W92986   8.539  38.094   1.313
26204W        W92987  20.674  34.908   3.750
26205W        W92988  12.428   4.862   3.415
26206W        W92989   6.678  32.272  11.488
26207W        W92990  15.652  28.702  14.995
26208W        W92991  38.333  34.645   1.177
26209W        W92992  18.242  37.292  14.237
26210W        W92993  42.632  12.222   4.853
26211W        W92994  18.043  10.802  14.810
26212W        W92995  27.670   0.884   2.339
26213W        W92996  25.518  35.080   0.936
26214W        W92997   0.443   3.715  10.697
26215W        W92998  34.793  13.177  11.400
26216W        W92999  29.398   0.850  13.152
26217W        W93000  23.162  25.228  13.870
26218W        W93001   7.908   7.712  14.724
26219W        W93002  33.354  36.516  10.853
26220W        W93003  38.952  19.495   2.672
26221W        W93004  17.666   6.983  11.588
26222W        W93005   4.673  26.011   2.942
26223W        W93006   5.431   0.705  13.218
26224W        W93007  14.854  37.056   1.299
26225W        W93008   1.247  15.854  13.275
26226W        W93009  25.570  38.583  12.433
26227W        W93010  21.812  25.644  13.908
26228W        W93011   3.313   5.438   4.167
26229W        W93012  21.117  20.040  14.415
26230W        W93013   5.858  16.719   0.532
26231W        W93014   0.478  27.419   3.113
26232W        W93015   9.028  34.928   3.701
26233W        W93016  28.278  26.616  10.398
26234W        W93017  19.005   7.914  11.492
26235W        W93018  37.501   8.683  13.532
26236W        W93019  24.583  29.243  12.950
26237W        W93020  22.731  26.071  14.371
26238W        W93021  14.194  43.700  14.359
26239W        W93022  40.598   5.464  12.062
26240W        W93023  25.170  41.731   3.141
26241W        W93024  35.949  12.658   3.217
26242W        W93025  17.275  29.962  10.337
26243W        W93026  24.240   4.713   3.582
26244W        W93027  21.755  23.725   0.545
26245W        W93028   8.719  31.061   2.091
26246W        W93029  29.212  35.647  10.562
26247W        W93030  35.834  15.946  12.121
26248W        W93031  31.961  15.109  10.747
26249W        W93032  14.036  17.386  13.111
26250W        W93033  12.162  16.834   1.007
26251W        W93034  36.968  34.451  11.226
26252W        W93035   6.304   7.358  14.508
26253W        W93036  43.342   8.152   2.097
26254W        W93037  26.506   1.375   1.419
26255W        W93038   2.853  21.658   3.893
26256W        W93039  35.069  20.245   9.376
26257W        W93040   1.909   1.789  14.361
26258W        W93041  37.634  20.055   4.659
26259W        W93042  16.319  39.098  14.875
26260W        W93043  20.112  43.210  12.920
26261W        W93044  38.887  29.217  13.843
26262W        W93045  35.054   6.691   1.773
26263W        W93046  16.562  35.645   2.222
26264W        W93047  34.454  12.853  13.924
26265W        W93048  25.924  43.022  14.986
26266W        W93049   5.279   4.746  12.143
26267W        W93050   9.432  24.463  13.059
26268W        W93051  11.950  30.261   4.301
26269W        W93052  40.005  32.875  13.847
26270W        W93053   6.339   0.389  10.547
26271W        W93054   2.873  43.518  14.545
26272W        W93055  31.433  37.856   3.697
26273W        W93056  26.311  43.477  12.842
26274W        W93057  35.465  24.529   3.346
26275W        W93058  15.561  32.957  13.277
26276W        W93059  38.417  44.351  10.677
26277W        W93060   6.693  22.953   3.921
26278W        W93061  12.393   2.414  11.111
26279W        W93062  10.939  30.411   5.059
26280W        W93063  26.983  33.535   2.395
26281W        W93064  43.481  31.121  12.959
26282W        W93065  18.786  27.337  14.930
26283W        W93066  23.647  36.939  12.143
26284W        W93067  17.464  18.759  13.434
26285W        W93068  22.327  39.348  12.181
26286W        W93069  43.018  14.291   2.586
26287W        W93070  14.035  28.038   1.628
26288W        W93071  22.899  36.282   1.352
26289W        W93072   1.722  24.453   1.002
26290W        W93073   0.368  21.018   2.178
26291W        W93074  39.948  33.490   0.207
26292W        W93075   0.704   3.651  11.802
26293W        W93076  30.330  15.762   3.686
26294W        W93077  33.022  43.081   1.875
26295W        W93078   4.046  26.551   1.413
26296W        W93079   2.422  29.447  10.562
26297W        W93080  42.066  38.329  11.056
26298W        W93081  40.280  24.157   3.217
26299W        W93082  18.597   5.276  11.432
26300W        W93083  42.796   2.208   1.191
26301W        W93084  34.113   4.389   2.608
26302W        W93085  13.287   1.163   3.340
26303W        W93086  30.507  22.044   1.304
26304W        W93087   2.710   2.017  10.278
26305W        W93088  11.213  28.966  14.325
26306W        W93089  36.808  44.060   3.704
26307W        W93090   7.155   4.502  13.479
26308W        W93091   2.712  36.588   4.203
26309W        W93092  28.034  38.867   4.174
26310W        W93093  26.889  20.165  11.049
26311W        W93094  16.567  13.849   0.428
26312W        W93095  17.994  10.576  11.172
26313W        W93096  42.318  40.401   0.387
26314W        W93097  15.492  41.724   3.293
26315W        W93098  10.236  30.410  12.534
26316W        W93099  14.877   2.188  11.968
26317W        W93100  36.365  40.278   3.791
26318W        W93101  15.581  12.174   1.176
26319W        W93102  28.647  35.566   0.333
26320W        W93103  30.316  35.433   3.081
26321W        W93104  38.006   1.968   2.317
26322W        W93105  23.654  30.825   1.907
26323W        W93106  38.866  19.874  10.443
26324W        W93107  27.239   2.357   4.423
26325W        W93108  12.375   1.430  12.776
26326W        W93109  43.769  39.762  13.055
26327W        W93110  10.389  12.426   5.227
26328W        W93111  12.813  40.953  11.237
26329W        W93112   8.113  24.095   3.961
26330W        W93113  27.400  28.004  13.083
26331W        W93114  17.940  22.680  13.306
26332W        W93115   5.938  17.980  11.610
26333W        W93116  28.965   8.805   0.696
26334W        W93117   2.288  25.084  12.141
26335W        W93118  35.422  40.508  13.279
26336W        W93119  18.315  27.397   2.813
26337W        W93120  29.943  11.333  12.976
26338W        W93121  32.652   4.366  12.439
26339W        W93122  30.912  31.434  14.979
26340W        W93123  36.542  28.700   0.533
26341W        W93124  13.507   3.731  12.882
26342W        W93125  25.632   1.783   1.328
26343W        W93126  32.402   5.425   4.022
26344W        W93127   6.433   6.321   0.876
26345W        W93128   2.171  41.027   4.514
26346W        W93129  41.453  11.802   0.186
26347W        W93130   4.416  13.703   3.356
26348W        W93131  29.898  40.693   4.545
26349W        W93132  34.947  40.662   2.032
26350W        W93133  15.358  44.567  14.478
26351W        W93134   7.287  17.186   2.679
26352W        W93135  21.346  34.368   1.273
26353W        W93136  12.754  13.655  13.094
26354W        W93137  20.724   8.672   3.990
26355W        W93138  39.809  34.453  14.000
26356W        W93139  39.021   0.278  12.056
26357W        W93140  17.147  23.978  14.521
26358W        W93141  16.805  31.507   2.395
26359W        W93142  25.587  31.510   4.402
26360W        W93143  14.579  13.693   1.347
26361W        W93144  18.866   4.256  11.969
26362W        W93145  23.400  24.009   0.771
26363W        W93146  43.272  35.277  11.112
26364W        W93147   2.207  15.314  12.880
26365W        W93148  17.775   2.822  14.033
26366W        W93149  36.811  13.495  12.427
26367W        W93150  41.849  20.156   4.086
26368W        W93151  29.087  30.615  14.491
26369W        W93152   2.159  15.098   4.122
26370W        W93153  30.982  43.443  14.379
26371W        W93154  14.699  37.262   4.527
26372W        W93155  37.411  40.910  13.231
26373W        W93156  39.395  43.951  13.352
26374W        W93157  15.660   8.352   0.308
26375W        W93158  44.988  10.577   2.431
26376W        W93159  43.477  41.329   0.900
26377W        W93160  43.287  19.865   1.342
26378W        W93161  20.520  42.361  12.948
26379W        W93162   2.363  33.989   4.625
26380W        W93163  28.934  25.549   2.719
26381W        W93164   8.834  36.875  12.891
26382W        W93165  16.366  42.468   2.478
26383W        W93166   3.854  33.626  12.643
26384W        W93167  37.804  27.678  12.024
26385W        W93168  39.824  39.658   0.266
26386W        W93169  42.334  31.432  14.936
26387W        W93170  18.139  15.127   3.228
26388W        W93171   0.743   5.454   3.791
26389W        W93172  35.888  14.311   0.085
26390W        W93173  12.818  27.804   3.773
26391W        W93174  43.979  43.947  12.160
26392W        W93175  35.240   6.021   4.147
26393W        W93176  21.083  18.518  11.971
26394W        W93177   5.336  44.872   0.696
26395W        W93178  27.074   6.922  10.812
26396W        W93179   7.318  38.751   2.352
26397W        W93180  31.906   8.866   1.772
26398W        W93181  10.798   4.959   2.790
26399W        W93182  38.336  44.303  11.655
26400W        W93183  40.909  39.582   0.713
26401W        W93184  44.950  25.116  14.525
26402W        W93185  17.353  27.579   4.163
26403W        W93186   0.741  34.524  12.504
26404W        W93187  19.325   3.173  12.884
26405W        W93188  29.200  32.091   3.308
26406W        W93189  18.070   8.116   4.188
26407W        W93190  16.085   2.768  12.795
26408W        W93191  38.433  16.308   4.749
26409W        W93192   6.153  16.682   1.389
26410W        W93193   8.282   8.120   3.585
26411W        W93194  32.856  24.144   4.044
26412W        W93195  19.249  38.838   4.730
26413W        W93196  23.936  33.827  11.528
26414W        W93197   9.598   3.228   0.404
26415W        W93198  14.385  35.282   5.076
26416W        W93199  16.581  19.621   0.812
26417W        W93200   9.767  19.580  11.877
26418W        W93201  37.634  29.429   2.397
26419W        W93202  34.092  20.567   0.447
26420W        W93203  10.710  39.519   4.598
26421W        W93204  42.060  27.190   0.282
26422W        W93205  11.659  27.905  11.470
26423W        W93206  22.463  32.960   1.169
26424W        W93207  30.036   5.995  11.427
26425W        W93208  13.887   6.796  11.175
26426W        W93209   5.308  26.732   2.224
26427W        W93210  14.755  18.656   2.110
26428W        W93211  27.570  26.058   3.278
26429W        W93212   3.444  34.503   9.768
26430W        W93213  15.042  22.619  12.004
26431W        W93214  26.938  27.514  14.071
26432W        W93215  33.199  15.909   1.843
26433W        W93216  19.958  42.830   1.412
26434W        W93217  38.088   8.704  11.810
26435W        W93218  40.108  39.904  14.896
26436W        W93219   3.018  25.093  11.262
26437W        W93220  24.592  31.516   3.602
26438W        W93221   0.319  16.112  14.788
26439W        W93222  33.400  31.266   0.001
26440W        W93223  14.247  24.008   0.569
26441W        W93224  43.932  35.531  11.352
26442W        W93225  44.634  26.879  14.043
26443W        W93226  10.422  15.811  14.007
26444W        W93227  24.117  27.142   2.275
26445W        W93228   0.999  29.598  12.566
26446W        W93229  32.886  43.655   2.731
26447W        W93230  14.192   8.555   0.436
26448W        W93231   6.968  23.031   4.367
26449W        W93232  12.610  15.004   0.868
26450W        W93233  17.779  41.217  11.134
26451W        W93234   3.356  16.565   4.906
26452W        W93235  11.203  28.520  10.890
26453W        W93236  14.342   1.700   2.915
26454W        W93237   7.732  25.485  14.758
26455W        W93238   1.364   6.073  12.496
26456W        W93239  40.215  23.702  12.487
26457W        W93240  44.990  19.033   3.730
26458W        W93241  16.645  24.162  11.238
26459W        W93242  14.313   7.989  12.158
26460W        W93243  40.846   4.703  14.351
26461W        W93244  11.115  37.916  12.978
26462W        W93245   6.260  44.364   1.321
26463W        W93246   5.734   6.813  10.690
26464W        W93247  36.406   6.301   2.874
26465W        W93248  43.536  35.066   0.379
26466W        W93249  42.873  15.600  14.786
26467W        W93250  44.507   4.876   1.850
26468W        W93251  29.823  28.837  13.115
26469W        W93252  40.460  31.320   1.458
26470W        W93253  42.497  11.532   2.443
26471W        W93254   2.201  27.716   3.291
26472W        W93255  27.478  14.539  12.646
26473W        W93256  39.365  42.385   4.586
26474W        W93257   3.306  11.312  12.656
26475W        W93258  11.727   9.834   3.989
26476W        W93259   8.678  26.042  14.959
26477W        W93260  33.166  22.394   3.197
26478W        W93261  43.700  19.213   3.281
26479W        W93262  41.018  42.054  10.992
26480W        W93263   2.888   2.856  10.792
26481W        W93264  33.145   8.213   1.858
26482W        W93265  20.668  23.652   2.862
26483W        W93266  34.659  43.743  11.923
26484W        W93267  39.385  30.456  10.584
26485W        W93268  23.650  42.488  10.811
26486W        W93269   5.906  21.774  12.785
26487W        W93270  28.154  28.410   2.770
26488W        W93271   7.346  31.523   2.844
26489W        W93272   0.447  21.646   1.316
26490W        W93273  13.124  33.118   1.319
26491W        W93274  34.532  21.231  12.782
26492W        W93275   1.429  26.096   1.464
26493W        W93276  12.373   4.827   4.823
26494W        W93277  43.930  22.680  14.871
26495W        W93278  17.758  12.363   0.897
26496W        W93279  33.965  36.076   2.856
26497W        W93280  19.892  31.587  14.763
26498W        W93281  33.391  28.547  14.989
26499W        W93282  20.972  17.741  10.949
26500W        W93283  21.018  14.687   5.050
26501W        W93284  30.935   1.308  14.481
26502W        W93285  15.109  15.356  12.890
26503W        W93286   0.125   1.465   3.641
26504W        W93287  15.540  18.353   5.024
26505W        W93288  17.757  39.974   4.557
26506W        W93289   9.761  26.543   0.549
26507W        W93290   4.433  41.560   4.420
26508W        W93291   4.524   8.957   2.221
26509W        W93292  32.456  41.810   1.757
26510W        W93293   2.203  22.586  12.408
26511W        W93294  39.806  30.345   4.653
26512W        W93295  13.166  14.579  11.705
26513W        W93296  26.222  37.021  10.699
26514W        W93297  33.019  43.282   1.387
26515W        W93298  11.469  16.546  13.293
26516W        W93299  16.278  35.611  12.032
26517W        W93300   9.874   9.744   1.785
26518W        W93301  11.654  41.658   0.983
26519W        W93302   1.487  16.611  12.869
26520W        W93303  25.984  22.631  10.733
26521W        W93304  38.004  13.036  11.493
26522W        W93305  12.201   0.430  12.685
26523W        W93306  14.789  37.044  11.213
26524W        W93307   8.402   0.023   0.864
26525W        W93308   6.941  11.411   4.560
26526W        W93309   4.776  35.880  13.431
26527W        W93310  34.964  43.982  10.970
26528W        W93311   7.230  38.744   3.719
26529W        W93312  44.969   5.360  12.448
26530W        W93313  25.200  20.952  11.728
26531W        W93314  28.048  24.933  13.921
26532W        W93315   2.387  30.861  13.999
26533W        W93316   5.257   9.228  13.100
26534W        W93317  37.570  41.938   2.871
26535W        W93318   6.112  12.152  11.444
26536W        W93319  28.143  36.372   1.968
26537W        W93320   9.397  39.959  10.575
26538W        W93321  20.621  34.789   1.862
26539W        W93322  42.354   4.506   2.266
26540W        W93323   2.359  27.204  12.266
26541W        W93324   2.139  40.924  12.550
26542W        W93325  40.031  37.539   0.943
26543W        W93326  18.567   0.444   2.766
26544W        W93327   6.818  24.554  11.957
26545W        W93328  35.408  37.522  14.824
26546W        W93329  15.733  44.375  10.626
26547W        W93330  23.568  15.497   3.752
26548W        W93331   5.420   3.413   4.117
26549W        W93332   3.418  17.415  13.097
26550W        W93333  30.592  11.738  14.969
26551W        W93334  42.456  16.155   4.578
26552W        W93335  12.135  10.920   3.963
26553W        W93336  43.816   0.633   1.133
26554W        W93337  33.909  17.584   0.887
26555W        W93338  16.326   6.832  14.951
26556W        W93339  43.466  29.023   4.775
26557W        W93340   3.078  17.811  13.093
26558W        W93341   1.985  10.286   4.722
26559W        W93342  24.151   3.656  12.779
26560W        W93343  16.183  10.836   4.240
26561W        W93344  24.884   1.498   2.368
26562W        W93345  11.049  21.511  14.306
26563W        W93346  37.585  31.888   0.807
26564W        W93347  43.920  40.033   0.793
26565W        W93348   2.309  13.092  12.734
26566W        W93349  40.117  44.874   2.343
26567W        W93350  25.510  11.415  14.252
26568W        W93351  34.820   1.987   3.705
26569W        W93352  19.729  30.889  12.185
26570W        W93353  29.699  33.388   3.746
26571W        W93354   3.408  13.117   4.577
26572W        W93355   9.771  21.784  12.047
26573W        W93356   0.451  22.317   0.806
26574W        W93357  34.684  40.005   1.296
26575W        W93358  33.099  31.675   0.991
26576W        W93359  26.603  42.940  14.481
26577W        W93360  44.609  12.768   0.003
26578W        W93361  25.962  18.602   3.817
26579W        W93362  23.215  38.226  14.247
26580W        W93363   0.833  26.929  14.431
26581W        W93364  34.018   4.885   1.809
26582W        W93365  15.577  43.700  13.105
26583W        W93366   7.246  28.945   0.286
26584W        W93367  37.377  28.388  14.976
26585W        W93368  27.014  34.425   2.506
26586W        W93369  19.652  28.683   2.215
26587W        W93370  26.123  24.550  11.907
26588W        W93371  36.275  19.699  11.575
26589W        W93372  29.194  21.633  13.540
26590W        W93373  19.177  16.584  11.406
26591W        W93374  21.873  24.042   1.749
26592W        W93375   1.639  38.864  11.516
26593W        W93376  15.097  13.798   4.275
26594W        W93377  24.697  36.435  14.874
26595W        W93378  18.511  42.513  12.018
26596W        W93379   4.180  31.970   0.321
26597W        W93380  41.784  12.534   5.103
26598W        W93381  40.934   6.786   1.216
26599W        W93382  20.570  32.643  12.598
26600W        W93383  29.103  37.815   0.408
26601W        W93384  31.002  21.794   1.325
26602W        W93385  44.569  23.621   0.396
26603W        W93386  41.875  22.187  14.464
26604W        W93387  31.149   9.089   4.056
26605W        W93388   1.510  19.720   3.283
26606W        W93389  20.120  35.774   4.114
26607W        W93390   1.268   3.858  13.455
26608W        W93391  25.218  44.429   4.140
26609W        W93392  34.537  24.468  11.945
26610W        W93393  17.536  29.072   2.789
26611W        W93394  30.466  36.442   1.614
26612W        W93395  26.507  44.340  13.232
26613W        W93396  39.918  39.792  11.167
26614W        W93397   8.393  41.861  14.985
26615W        W93398   3.928   6.279   1.924
26616W        W93399  42.943  28.162  12.537
26617W        W93400  25.436  17.791   4.391
26618W        W93401  22.991  25.679   3.686
26619W        W93402   0.418   1.757  12.978
26620W        W93403  17.703  39.545   3.180
26621W        W93404  14.066  23.658  14.803
26622W        W93405  25.561  27.981   9.746
26623W        W93406  16.810  35.832  13.330
26624W        W93407  16.857  17.262   0.709
26625W        W93408  26.411  22.496   4.374
26626W        W93409  17.828  11.167   3.126
26627W        W93410  43.262  25.991  11.207
26628W        W93411  35.891  20.622   2.382
26629W        W93412  21.279  44.906  14.493
26630W        W93413  35.367  19.734  14.388
26631W        W93414  25.515  18.620   5.078
26632W        W93415  32.982  27.326   4.198
26633W        W93416  30.556   5.228  11.712
26634W        W93417  15.748  27.194   3.182
26635W        W93418  35.424   8.521   3.354
26636W        W93419  22.353   9.679  13.424
26637W        W93420  16.852  29.718  12.113
26638W        W93421  18.007  23.016   3.589
26639W        W93422  41.949   3.554  12.985
26640W        W93423  27.641   7.642  14.485
26641W        W93424  18.994  22.134  13.001
26642W        W93425  27.017   9.878   4.283
26643W        W93426  44.398   4.252  13.367
26644W        W93427  38.317  39.753   2.796
26645W        W93428   4.841  26.444   2.275
26646W        W93429   0.214  44.492  13.477
26647W        W93430  26.029  25.577  14.462
26648W        W93431  30.928   6.611   4.163
26649W        W93432  44.180  15.591   3.995
26650W        W93433  34.650   5.348   5.453
26651W        W93434  34.406  14.342   3.966
26652W        W93435  28.171  22.838   3.109
26653W        W93436  28.019  43.894  11.412
26654W        W93437  32.893  24.520   9.731
26655W        W93438  32.454  26.310   2.318
26656W        W93439  33.965  32.322  13.967
26657W        W93440  12.934  18.062  13.918
26658W        W93441   7.363  37.890   3.684
26659W        W93442   7.091  35.085   0.274
26660W        W93443  41.010   0.450   4.652
26661W        W93444  39.094  11.951   2.723
26662W        W93445  29.530  37.013  14.703
26663W        W93446  12.057  19.057  10.515
26664W        W93447  20.574  38.459   0.805
26665W        W93448  38.536   1.940   0.686
26666W        W93449   6.868  42.214  10.822
26667W        W93450  19.646   9.776   0.539
26668W        W93451   8.692  30.691  10.017
26669W        W93452  30.165   7.834  11.905
26670W        W93453  44.370  18.059   4.624
26671W        W93454  30.493  39.161  10.035
26672W        W93455  21.481   1.373  14.711
26673W        W93456  17.801   3.267   1.255
26674W        W93457  38.553  25.510  10.346
26675W        W93458  41.658  43.810   2.201
26676W        W93459   9.272  12.939  11.064
26677W        W93460  32.842  41.813  11.159
26678W        W93461  25.058  16.167  12.438
26679W        W93462  12.788  36.125  11.272
26680W        W93463  25.559  18.260  13.259
26681W        W93464  15.904  26.702   4.352
26682W        W93465  31.955   3.524   1.445
26683W        W93466  25.643   0.696   1.396
26684W        W93467  32.014   2.415   0.755
26685W        W93468   1.445  11.741   4.742
26686W        W93469  43.578  42.541  12.495
26687W        W93470  19.685  22.290   2.434
26688W        W93471  37.427  24.902  11.953
26689W        W93472  34.623  10.338  13.939
26690W        W93473   7.306  19.036   0.334
26691W        W93474   0.335  13.750   1.136
26692W        W93475   3.520  34.953   1.809
26693W        W93476  40.062  41.337  14.476
26694W        W93477   3.521  30.848  13.116
26695W        W93478  36.234  31.337  12.440
26696W        W93479   3.975   4.610   2.719
26697W        W93480  31.255   4.002   2.029
26698W        W93481  31.659  27.855  12.522
26699W        W93482  43.509  15.789  13.012
26700W        W93483  34.454  13.783   3.162
26701W        W93484  13.848  20.545  11.790
26702W        W93485  35.180  44.244  12.941
26703W        W93486  24.481   6.437  12.007
26704W        W93487  33.385  12.933  12.364
26705W        W93488  32.829  33.607  12.522
26706W        W93489  17.247  21.658   3.325
26707W        W93490  17.285  29.394  12.114
26708W        W93491  20.221   7.544   3.295
26709W        W93492  19.987  29.964  14.269
26710W        W93493  26.636  43.768   2.282
26711W        W93494  11.581  26.456   3.207
26712W        W93495  16.193  26.608  14.316
26713W        W93496  37.397  10.630  12.468
26714W        W93497  28.662  30.639  14.829
26715W        W93498  36.605  34.504   0.384
26716W        W93499   6.273   6.793  12.059
26717W        W93500  43.956   4.458  14.385
26718W        W93501  28.432  21.452  12.108
26719W        W93502  16.827  15.294  13.502
26720W        W93503  19.929   3.830  10.766
26721W        W93504   5.224  23.261   4.509
26722W        W93505  41.220  11.623  13.747
26723W        W93506  39.332  33.669  13.103
26724W        W93507   5.909  12.942   3.262
26725W        W93508  15.094  28.934   4.135
26726W        W93509  10.737  32.558   0.788
26727W        W93510  30.479  39.964  13.081
26728W        W93511  25.581  10.311   4.605
26729W        W93512  15.075  16.538   0.965
26730W        W93513  26.629   3.935   2.573
26731W        W93514   3.738  23.146  14.814
26732W        W93515  43.784   3.799  12.180
26733W        W93516  39.054  17.730   0.745
26734W        W93517  28.695  27.410   2.370
26735W        W93518  20.561  26.020   1.133
26736W        W93519  29.194   3.278   2.349
26737W        W93520  31.004   2.919  11.560
26738W        W93521  36.679  21.326   1.621
26739W        W93522   6.488   1.304   2.752
26740W        W93523  19.786   4.267  12.843
26741W        W93524  32.628  44.424   4.554
26742W        W93525  31.477   0.824   3.173
26743W        W93526  42.083  26.992  12.970
26744W        W93527  27.913  36.479   0.971
26745W        W93528   3.737  22.638   4.295
26746W        W93529  43.914  19.296   0.880
26747W        W93530  43.749  32.585   1.776
26748W        W93531  29.998  42.064   1.137
26749W        W93532  41.731  18.659   4.164
26750W        W93533  37.020   5.946  11.921
26751W        W93534  13.418  32.491   0.512
26752W        W93535  26.129  35.483  13.867
26753W        W93536   8.141  17.034  11.626
26754W        W93537  12.088  15.167  10.617
26755W        W93538   3.930   3.412  14.229
26756W        W93539  34.684   1.850   1.429
26757W        W93540  14.222  25.058   0.356
26758W        W93541   6.472  26.958  13.431
26759W        W93542   9.922   1.692   2.185
26760W        W93543  44.273  37.370  12.547
26761W        W93544  20.968  15.558  12.031
26762W        W93545  24.629  11.820   4.787
26763W        W93546  37.812  12.144   2.903
26764W        W93547   9.431  17.492   2.765
26765W        W93548   2.996   0.698   3.531
26766W        W93549  36.614  29.597  13.904
26767W        W93550  38.546   4.743   2.318
26768W        W93551  43.761  12.396   0.226
26769W        W93552  38.391  16.875   1.838
26770W        W93553  24.165  32.663   0.399
26771W        W93554  17.486  39.913  14.358
26772W        W93555  10.624  11.152   1.017
26773W        W93556  43.811  14.998  14.716
26774W        W93557  32.751  10.752   2.992
26775W        W93558  17.551   4.344  13.535
26776W        W93559  27.706  25.065  10.896
26777W        W93560  15.821  17.654  11.862
26778W        W93561   5.751  13.266   1.522
26779W        W93562  41.017  43.200  12.119
26780W        W93563  41.079  29.799  13.413
26781W        W93564  32.441  34.356  11.953
26782W        W93565  23.819  34.810  10.034
26783W        W93566   9.253   1.967  14.878
26784W        W93567   5.467  21.599  13.022
26785W        W93568   8.889  36.817   2.553
26786W        W93569  17.643   5.878  14.226
26787W        W93570   8.236  24.095   0.021
26788W        W93571   3.482   9.690   3.798
26789W        W93572  10.569   2.745  14.192
26790W        W93573  15.049  10.897  14.327
26791W        W93574  12.845  16.984   4.993
26792W        W93575  38.354  31.194   2.789
26793W        W93576  36.981  33.896   0.626
26794W        W93577  28.538  16.173  13.058
26795W        W93578  21.593  44.532   0.566
26796W        W93579  21.708  35.126   0.868
26797W        W93580  40.274   4.149  13.487
26798W        W93581  30.914  34.706   1.889
26799W        W93582  14.259  16.573  13.844
26800W        W93583   8.474  23.274   1.832
26801W        W93584  39.939   3.332  14.488
26802W        W93585  18.061  36.316   3.269
26803W        W93586  11.477  34.953  13.810
26804W        W93587   4.426   5.715   2.086
26805W        W93588   4.259  34.292   0.246
26806W        W93589  38.327  22.020   1.681
26807W        W93590  16.087  16.042   1.974
26808W        W93591  19.617  18.868   3.139
26809W        W93592   5.672   4.710   1.295
26810W        W93593  31.663  33.444  14.790
26811W        W93594  23.928   4.258   4.200
26812W        W93595  43.583  22.589   0.401
26813W        W93596  20.503  42.274   2.569
26814W        W93597  24.956  38.029   2.428
26815W        W93598  41.512   5.791  11.587
26816W        W93599  24.904  35.482  12.115
26817W        W93600   4.479   1.685  13.322
26818W        W93601  24.175  12.033  13.828
26819W        W93602  39.956  12.146  14.443
26820W        W93603   3.685  21.642   2.273
26821W        W93604   5.000   4.607   3.615
26822W        W93605   6.471   4.227   2.707
26823W        W93606  11.391   6.660  11.247
26824W        W93607  34.442  23.670  10.635
26825W        W93608  41.129  28.513   4.400
26826W        W93609  37.185  39.779  11.206
26827W        W93610  21.261  24.178   0.442
26828W        W93611  21.216  42.939  13.722
26829W        W93612   7.271  43.355   4.366
26830W        W93613  43.226   8.412   4.377
26831W        W93614  11.264   2.731  14.910
26832W        W93615   0.275  33.848   0.423
26833W        W93616  12.772  14.421   5.071
26834W        W93617  43.447  21.288  10.086
26835W        W93618   8.808  30.480  13.486
26836W        W93619  31.673  12.422  11.095
26837W        W93620  29.998  29.055   1.878
26838W        W93621  19.970  26.093  10.674
26839W        W93622  19.192  19.098   2.382
26840W        W93623  10.788   6.369  12.596
26841W        W93624  39.123   6.620   3.328
26842W        W93625  30.609  41.931   0.307
26843W        W93626  17.572  29.555   2.988
26844W        W93627  30.423  43.818  12.629
26845W        W93628  41.777  40.160   0.302
26846W        W93629  33.996  13.185  14.363
26847W        W93630  32.645  10.567  14.305
26848W        W93631   3.011  10.234   0.349
26849W        W93632  37.592  15.136  11.062
26850W        W93633  12.829  33.644  12.488
26851W        W93634  32.443  41.952   0.366
26852W        W93635  17.543  33.466   1.283
26853W        W93636  16.647  23.868   2.294
26854W        W93637  33.013  43.021   3.230
26855W        W93638  28.893  19.304   1.406
26856W        W93639  11.875  13.240   0.534
26857W        W93640   7.375  39.487  12.405
26858W        W93641  27.402  30.717   4.168
26859W        W93642  22.321  26.569   3.246
26860W        W93643  44.809  33.639   0.531
26861W        W93644   9.748  15.086  10.487
26862W        W93645  30.642  39.330   1.335
26863W        W93646   5.746  42.983  11.457
26864W        W93647   1.715  21.570   1.875
26865W        W93648   9.747   8.302   3.879
26866W        W93649  19.073  21.860  14.432
26867W        W93650  30.594   1.744   3.338
26868W        W93651  38.310  18.221   0.801
26869W        W93652  28.752  30.702   4.353
26870W        W93653   5.377  29.125   0.285
26871W        W93654  43.058  41.680  11.095
26872W        W93655   4.317  39.135  11.596
26873W        W93656  26.642  21.603  13.362
26874W        W93657  11.269   2.668  13.012
26875W        W93658  23.074  39.938  12.123
26876W        W93659   6.483  28.547  10.513
26877W        W93660  28.193  35.005  12.902
26878W        W93661   3.889  42.922  14.040
26879W        W93662  16.072  13.408  14.376
26880W        W93663  37.003  31.442   3.570
26881W        W93664  14.098  41.187  10.302
26882W        W93665  16.183  30.761  14.235
26883W        W93666   5.159  26.396  10.494
26884W        W93667   2.430  16.587  12.545
26885W        W93668  38.419   0.767   3.574
26886W        W93669  14.319  28.800   1.298
26887W        W93670   7.369  10.302  14.817
26888W        W93671  15.947  37.611  12.447
26889W        W93672  42.325  19.714   1.797
26890W        W93673  39.274   1.933  11.079
26891W        W93674  17.136  41.569   4.727
26892W        W93675  14.262  13.040   2.068
26893W        W93676  31.690  23.352   1.781
26894W        W93677  16.696  39.319   0.898
26895W        W93678   4.191  44.291  11.534
26896W        W93679  39.035  28.199   4.263
26897W        W93680  17.152   1.991   3.231
26898W        W93681  27.872  33.036   3.344
26899W        W93682   8.967   8.919   0.023
26900W        W93683  14.530  35.416  13.495
26901W        W93684   0.273  16.192   3.156
26902W        W93685  12.366  23.837   3.640
26903W        W93686  18.131   1.573   4.786
26904W        W93687  26.242  15.330   2.202
26905W        W93688  35.205  21.202  10.038
26906W        W93689  25.010  37.363   1.083
26907W        W93690  37.506  17.508   4.130
26908W        W93691   3.952  18.539   2.870
26909W        W93692  13.884  17.795  12.866
26910W        W93693  40.695  24.587   3.284
26911W        W93694   5.877  38.950   1.797
26912W        W93695  33.759   6.298  12.530
26913W        W93696  44.927  43.596  13.079
26914W        W93697  22.488  32.033  12.503
26915W        W93698  31.091   9.206   4.820
26916W        W93699  31.156  37.003  13.025
26917W        W93700   2.675  18.547  12.461
26918W        W93701  42.772  29.413  13.947
26919W        W93702   0.970   3.937  12.143
26920W        W93703  10.908  22.579  13.000
26921W        W93704  34.885  36.916  10.769
26922W        W93705  43.375  29.412   4.469
26923W        W93706  37.166  39.980  13.457
26924W        W93707  39.887  20.089   4.033
26925W        W93708   5.687  37.382   0.860
26926W        W93709  18.628   7.378   3.698
26927W        W93710  16.243  24.493  12.975
26928W        W93711  21.683   8.768   2.787
26929W        W93712  31.205  20.102  10.601
26930W        W93713  40.369  12.757   3.197
26931W        W93714  32.820  16.157  13.972
26932W        W93715  29.244   0.920  14.018
26933W        W93716  41.525  29.517  13.599
26934W        W93717  16.996   5.120   2.332
26935W        W93718  43.866   5.980   2.299
26936W        W93719   9.609  30.025  13.848
26937W        W93720  12.821  24.132  13.621
26938W        W93721  26.623  43.943  13.584
26939W        W93722  17.817  11.478   2.705
26940W        W93723  11.668  41.616  13.290
26941W        W93724  31.673  10.798   2.466
26942W        W93725  19.821  44.789  13.506
26943W        W93726  35.464  33.686   1.325
26944W        W93727   8.914   4.388   4.565
26945W        W93728  22.920  17.668  14.376
26946W        W93729  32.145  44.579  12.250
26947W        W93730  32.188  20.045   0.136
26948W        W93731  26.146  36.525  11.776
26949W        W93732   2.815  21.013  11.053
26950W        W93733  41.579  18.289   0.127
26951W        W93734  16.599  42.475  14.402
26952W        W93735  17.841  33.814  10.933
26953W        W93736  44.176  29.846   2.399
26954W        W93737  38.764  27.049  14.859
26955W        W93738  27.603   5.350   3.380
26956W        W93739  38.902  16.842   0.252
26957W        W93740  22.776  34.838  10.181
26958W        W93741  30.638  26.349  13.910
26959W        W93742   1.955  12.078   2.033
26960W        W93743  24.001  10.096  11.342
26961W        W93744   1.746  12.137  13.477
26962W        W93745  36.531  27.564   3.410
26963W        W93746  22.003  43.971  13.860
26964W        W93747  21.889  36.097  11.592
26965W        W93748  15.412  17.695   4.068
26966W        W93749  20.321  41.830  14.900
26967W        W93750  32.013  23.137  13.959
26968W        W93751  34.431  40.417   0.055
26969W        W93752  35.764   4.112  13.794
26970W        W93753   9.207  31.637   4.631
26971W        W93754   9.636  12.189   4.691
26972W        W93755  41.993  38.524   1.928
26973W        W93756  10.782   0.849   3.601
26974W        W93757  32.575  27.125   2.617
26975W        W93758  44.257  16.022  11.059
26976W        W93759   9.073  13.286  14.932
26977W        W93760  10.699  10.780  14.436
26978W        W93761   4.083  37.436  11.406
26979W        W93762  15.086  43.529   0.328
26980W        W93763   5.866  28.979   0.218
26981W        W93764  12.790   6.092   3.177
26982W        W93765   0.348  24.545   2.593
26983W        W93766  23.369   1.953  11.663
26984W        W93767  10.802  41.884  12.764
26985W        W93768  33.955  42.391   1.635
26986W        W93769  27.989  44.280   0.536
26987W        W93770  23.502  10.838  13.435
26988W        W93771   3.375  27.982   4.638
26989W        W93772  18.193  14.235   1.855
26990W        W93773  21.060  16.225   4.173
26991W        W93774  42.439  25.470  14.823
26992W        W93775  35.864  14.411   1.564
26993W        W93776  23.068  30.964  10.792
26994W        W93777  25.220   5.199   2.805
26995W        W93778  41.881  36.345  12.897
26996W        W93779  36.844  44.439   0.756
26997W        W93780  22.542  39.651   3.754
26998W        W93781   2.255  10.729   4.745
26999W        W93782  34.533  38.931  14.525
27000W        W93783  29.014  31.642   0.387
27001W        W93784  38.683  39.571   0.901
27002W        W93785  30.142  11.628   3.812
27003W        W93786  19.176  41.407  13.385
27004W        W93787  29.939  22.635   4.689
27005W        W93788  23.669   3.081   3.067
27006W        W93789   4.280   3.917  12.390
27007W        W93790  17.355   1.383  10.716
27008W        W93791  23.783  25.063   2.032
27009W        W93792  39.815   6.643  10.329
27010W        W93793  35.885  15.042   3.682
27011W        W93794  28.101   0.513  11.019
27012W        W93795  26.536  24.538   0.992
27013W        W93796   1.425  24.978  14.564
27014W        W93797  42.085   9.048  13.807
27015W        W93798  13.628   9.810  13.529
27016W        W93799  19.649   4.323  14.189
27017W        W93800  22.930  26.768  14.338
27018W        W93801  40.060   0.691  10.716
27019W        W93802  31.095  22.343  13.415
27020W        W93803   1.787  16.979  13.079
27021W        W93804  14.308  30.513   0.289
27022W        W93805  21.614  32.703   3.336
27023W        W93806   2.145  32.535   3.417
27024W        W93807  34.789  27.927   4.202
27025W        W93808   1.384  29.287   3.187
27026W        W93809  33.684  36.250   2.448
27027W        W93810   2.088  32.590  11.040
27028W        W93811   6.879   8.416   4.788
27029W        W93812  44.818  29.199  14.446
27030W        W93813  23.003   2.453  10.953
27031W        W93814  40.078   5.476  12.034
27032W        W93815  29.993  36.859  11.538
27033W        W93816  29.294  34.037  11.997
27034W        W93817  29.168  21.742  12.048
27035W        W93818  22.838  22.686  12.594
27036W        W93819  18.757  15.601  11.968
27037W        W93820  16.798  29.954   0.862
27038W        W93821  22.518   4.556  14.007
27039W        W93822  19.694  27.649   2.234
27040W        W93823  20.261  30.836  11.530
27041W        W93824  39.108  15.540   0.774
27042W        W93825  19.813  19.588   1.795
27043W        W93826  18.722   6.659  11.084
27044W        W93827  41.260  17.846   0.849
27045W        W93828  33.677  22.683   2.669
27046W        W93829  25.259  31.427  13.470
27047W        W93830  23.319  20.064  13.553
27048W        W93831  31.974  24.372   4.878
27049W        W93832  27.941  10.042   4.566
27050W        W93833   1.654  12.528   3.746
27051W        W93834  17.021   0.229  11.428
27052W        W93835  12.018   0.856  11.098
27053W        W93836   5.906  33.913   2.828
27054W        W93837  20.059  40.558  14.366
27055W        W93838  22.692  29.073  10.433
27056W        W93839  19.438  32.531   2.204
27057W        W93840  11.939  31.445   0.899
27058W        W93841  21.507   7.795   4.239
27059W        W93842  24.625  36.113   1.815
27060W        W93843   8.221  15.924   3.807
27061W        W93844  14.383  41.771   4.331
27062W        W93845  18.859  16.333  14.052
27063W        W93846  19.628   1.453  10.243
27064W        W93847  22.987  22.609  14.041
27065W        W93848  35.314   4.781   4.407
27066W        W93849   9.715  37.983  10.716
27067W        W93850  14.118   0.520  12.456
27068W        W93851   2.868  35.284  14.970
27069W        W93852  38.655  43.571  12.138
27070W        W93853  11.743  23.087  13.892
27071W        W93854  16.677  10.158   1.307
27072W        W93855   4.822  27.681   4.429
27073W        W93856  12.153  12.279   3.772
27074W        W93857  31.949  33.498   4.023
27075W        W93858  20.976  44.049  14.905
27076W        W93859   3.712  34.589  11.088
27077W        W93860  21.352  14.837   5.455
27078W        W93861  40.932  29.148  11.998
27079W        W93862  38.784  37.374  14.047
27080W        W93863   8.770   2.791  10.545
27081W        W93864  10.127  30.466   2.989
27082W        W93865   4.418   4.758   1.727
27083W        W93866  34.922  22.207   2.872
27084W        W93867  39.351  42.045  13.468
27085W        W93868  21.228   5.434  11.461
27086W        W93869  13.854  21.248  14.174
27087W        W93870  29.060   5.281   3.531
27088W        W93871  35.362   2.355  14.111
27089W        W93872  18.334  31.803   1.426
27090W        W93873   2.784   0.490   3.074
27091W        W93874  17.847   5.399  14.321
27092W        W93875   5.778  32.985   4.035
27093W        W93876   1.991   0.244   0.996
27094W        W93877  15.798  29.403   2.738
27095W        W93878  25.027  29.574  11.908
27096W        W93879  32.855  35.540   1.394
27097W        W93880  40.465  28.427  11.045
27098W        W93881  14.308  42.012   3.177
27099W        W93882   0.339  10.295   3.720
27100W        W93883  15.740  38.420   4.704
27101W        W93884  17.195  15.016  12.294
27102W        W93885   4.823  29.207   1.423
27103W        W93886  24.128  11.976  12.094
27104W        W93887  21.127   4.504   3.618
27105W        W93888  41.335  34.154  12.549
27106W        W93889  39.377  26.668  13.587
27107W        W93890  33.420  14.680   1.923
27108W        W93891   1.303  44.606   1.182
27109W        W93892  41.576   7.365   0.234
27110W        W93893  21.851  11.502  13.923
27111W        W93894  21.119  38.872   4.575
27112W        W93895   7.750  23.289  13.872
27113W        W93896  15.254   6.627  13.472
27114W        W93897  19.223  29.985   2.398
27115W        W93898  11.554  17.093  11.070
27116W        W93899  30.361  10.943   3.218
27117W        W93900  41.626  36.910   4.787
27118W        W93901  24.895  42.460   4.254
27119W        W93902  15.956  25.626  14.042
27120W        W93903  19.235  12.208  12.757
27121W        W93904  20.304  25.044  10.914
27122W        W93905   0.725  18.112   3.293
27123W        W93906  22.281   1.885   1.190
27124W        W93907  23.480  40.957  11.384
27125W        W93908  15.355  22.526   4.696
27126W        W93909  35.691  39.847  13.940
27127W        W93910  32.522  23.984  13.133
27128W        W93911  38.028  32.112  12.322
27129W        W93912   7.821  23.403  10.199
27130W        W93913   0.904  37.734   0.803
27131W        W93914  39.888  33.057  14.330
27132W        W93915  14.825  16.940   4.159
27133W        W93916  42.481  33.190  13.172
27134W        W93917   9.425  41.578  13.327
27135W        W93918  22.409  41.454   0.872
27136W        W93919  19.736  22.910   1.577
27137W        W93920  41.781   6.237   2.804
27138W        W93921  29.430   7.384   4.254
27139W        W93922  18.780  21.185  10.601
27140W        W93923  18.223   0.944  11.009
27141W        W93924  38.902   2.985   0.021
27142W        W93925  25.524  16.075  13.843
27143W        W93926   4.706  15.162  11.247
27144W        W93927  32.927   2.070   0.469
27145W        W93928  35.411  43.471   2.233
27146W        W93929  26.454   2.992  13.033
27147W        W93930  44.902  17.864  14.339
27148W        W93931  30.624   9.635  13.698
27149W        W93932  27.678  16.675  12.984
27150W        W93933  35.023  26.549  11.581
27151W        W93934   7.315   1.768  11.633
27152W        W93935  33.326  33.576  12.474
27153W        W93936  29.557  41.834  11.165
27154W        W93937   6.209   6.795   0.993
27155W        W93938  39.479  22.263  12.360
27156W        W93939  12.480  18.183  13.378
27157W        W93940  27.259   5.810   2.208
27158W        W93941  20.336  24.255   4.573
27159W        W93942  21.283   0.409   1.132
27160W        W93943  41.950  25.467   0.003
27161W        W93944  28.441  18.684   0.146
27162W        W93945  21.758  26.777  11.547
27163W        W93946  11.282  34.313   2.298
27164W        W93947  23.229  23.744   0.381
27165W        W93948  42.254  44.547   2.773
27166W        W93949   7.858  13.293  11.069
27167W        W93950  36.306  31.106   4.227
27168W        W93951  31.462  38.059   0.805
27169W        W93952  14.861  21.494  13.005
27170W        W93953  30.429  21.224   0.764
27171W        W93954  16.754   1.232  10.571
27172W        W93955   3.525  41.502  11.136
27173W        W93956  18.992  34.892  13.603
27174W        W93957  20.693  16.055   2.277
27175W        W93958   0.059  15.754   3.923
27176W        W93959   5.574  34.656   1.159
27177W        W93960  42.452  22.047   4.778
27178W        W93961  40.786   5.766   3.641
27179W        W93962  28.535  34.877   4.627
27180W        W93963  35.493  27.019  14.823
27181W        W93964  28.939  21.790  11.184
27182W        W93965  34.626  31.348  13.354
27183W        W93966   5.332   5.739  14.312
27184W        W93967  36.520  41.995  11.732
27185W        W93968  41.499  23.127  10.695
27186W        W93969  26.125  11.150   1.921
27187W        W93970  29.649  34.644  14.969
27188W        W93971   7.046  13.725   4.039
27189W        W93972   8.396  35.075  12.046
27190W        W93973  27.157  44.495   1.387
27191W        W93974   5.470  22.292  10.770
27192W        W93975  24.670  27.588  14.043
27193W        W93976  30.499  11.007   4.129
27194W        W93977  13.285   1.882   0.669
27195W        W93978  11.440  44.920  12.602
27196W        W93979   8.339  43.338   1.341
27197W        W93980   9.251  18.527   1.729
27198W        W93981  27.745   9.837   3.860
27199W        W93982  34.963   6.267  11.601
27200W        W93983   3.935   2.567  12.556
27201W        W93984  12.417  24.257  14.883
27202W        W93985   4.897  29.568   2.359
27203W        W93986  39.791  41.201   2.783
27204W        W93987  29.378   6.715  10.704
27205W        W93988   2.995  30.616  11.038
27206W        W93989  15.968  15.570   1.182
27207W        W93990  10.584  14.845  12.007
27208W        W93991  39.914  41.724   2.785
27209W        W93992   2.424  30.092  12.517
27210W        W93993  21.664  35.601  13.339
27211W        W93994  24.986  26.651   4.512
27212W        W93995  19.088  12.315  12.270
27213W        W93996  41.423  43.644  11.594
27214W        W93997  43.611   7.923  12.498
27215W        W93998   8.712   0.046   4.626
27216W        W93999  10.275  41.474  11.791
27217W        W94000  42.450  22.041  11.529
27218W        W94001  19.529  10.276  13.638
27219W        W94002   0.011  15.338  11.151
27220W        W94003  44.907  38.004   0.474
27221W        W94004   4.134   0.504   4.159
27222W        W94005   1.359  28.678  12.945
27223W        W94006   0.810  11.792   4.083
27224W        W94007  25.242  33.314  11.972
27225W        W94008  31.132  36.016   2.149
27226W        W94009  18.974  29.392  13.756
27227W        W94010  39.128  32.476  14.755
27228W        W94011   4.219  31.344   2.722
27229W        W94012   8.173  32.996   3.337
27230W        W94013  32.013  23.956  10.991
27231W        W94014  39.032  42.485   0.260
27232W        W94015   6.396  28.732   2.316
27233W        W94016  41.999  10.862  14.888
27234W        W94017  43.773  24.802  10.597
27235W        W94018  30.366  32.009  10.523
27236W        W94019  18.833   2.355   2.561
27237W        W94020  27.180  41.529   1.328
27238W        W94021   3.836  39.047   3.816
27239W        W94022   0.718  29.102  12.516
27240W        W94023  39.085  27.162   3.925
27241W        W94024  13.812  38.987  14.867
27242W        W94025  41.580   7.121   1.276
27243W        W94026  24.669  16.976  14.966
27244W        W94027   9.262  26.912  12.898
27245W        W94028  10.048   6.348   1.168
27246W        W94029  28.078  10.757  14.936
27247W        W94030   8.316  35.861  11.602
27248W        W94031  35.031   3.262  14.504
27249W        W94032  33.927  38.780  13.835
27250W        W94033  31.542  21.263  14.429
27251W        W94034   6.662  26.088   4.115
27252W        W94035   7.689  37.599  14.937
27253W        W94036  42.361  34.926   2.171
27254W        W94037  12.653  26.358   4.917
27255W        W94038  22.558  24.498   1.248
27256W        W94039  26.294  17.024   2.627
27257W        W94040  13.715  38.202   1.282
27258W        W94041   9.235  13.180   2.650
27259W        W94042   8.401  15.085   0.329
27260W        W94043   4.351   9.652  13.657
27261W        W94044  44.930   1.994  12.032
27262W        W94045  24.407  28.996   3.821
27263W        W94046  14.810   6.737   1.703
27264W        W94047   1.052  25.987  11.535
27265W        W94048   0.787  33.096   1.369
27266W        W94049  28.867   0.928   4.134
27267W        W94050   6.779  15.114   2.780
27268W        W94051   1.396  37.847  10.928
27269W        W94052  26.271  38.556  12.348
27270W        W94053   2.293  41.466   2.447
27271W        W94054  34.403  34.120   3.871
27272W        W94055   5.249   1.223   0.796
27273W        W94056  31.439  28.720  12.085
27274W        W94057  31.387  17.336   4.104
27275W        W94058  14.903  43.719  12.507
27276W        W94059   0.888  33.666   3.885
27277W        W94060   9.424   7.085   1.235
27278W        W94061  33.402   4.452  13.986
27279W        W94062  10.595   1.370   3.667
27280W        W94063  13.651  34.238   2.228
27281W        W94064  41.705   7.153  14.799
27282W        W94065  22.816  44.313   4.029
27283W        W94066   7.936  35.980  11.215
27284W        W94067  15.238  29.777  13.931
27285W        W94068   0.048   7.665   4.142
27286W        W94069  36.939  26.449  13.357
27287W        W94070  19.557   1.008   3.228
27288W        W94071  18.465  34.909  13.461
27289W        W94072  13.636   7.940  14.476
27290W        W94073  41.283  17.294   1.503
27291W        W94074   2.744  13.235  13.758
27292W        W94075  31.839  30.521  12.032
27293W        W94076  23.229  22.020   4.083
27294W        W94077  21.714  20.674   0.884
27295W        W94078  43.353  28.516   4.707
27296W        W94079   2.709   0.010   2.610
27297W        W94080  21.244  16.519  13.524
27298W        W94081  35.509   4.307  12.378
27299W        W94082   7.531  28.100  10.777
27300W        W94083   8.174  33.318  12.552
27301W        W94084  10.280  23.636   3.719
27302W        W94085  15.170  11.346   3.091
27303W        W94086   1.689  32.993  12.059
27304W        W94087  41.520  30.194   1.345
27305W        W94088  11.206  16.327   3.264
27306W        W94089   6.161  26.282  14.079
27307W        W94090  19.808  39.786  12.402
27308W        W94091  24.643  37.047   2.297
27309W        W94092  42.464  42.328   3.627
27310W        W94093  32.686   0.760   3.585
27311W        W94094  34.722  28.361   0.998
27312W        W94095   9.346  27.923  12.591
27313W        W94096   2.966   5.415   3.320
27314W        W94097   4.889   4.952   0.973
27315W        W94098  40.500  37.442  13.349
27316W        W94099  23.559  20.196   1.368
27317W        W94100  38.387  17.627   3.916
27318W        W94101  16.744  26.356   0.863
27319W        W94102  36.368  18.013  11.106
27320W        W94103  28.947  36.930   4.187
27321W        W94104  17.501   4.884   0.335
27322W        W94105  29.263  25.527  13.912
27323W        W94106  26.149  17.663   0.468
27324W        W94107   3.033  39.103  13.847
27325W        W94108  11.292   0.465   4.559
27326W        W94109  25.104  21.926  13.329
27327W        W94110  15.680  24.150   2.187
27328W        W94111   0.892   9.318   0.304
27329W        W94112  34.700  29.859   0.458
27330W        W94113  22.620  21.804  14.503
27331W        W94114  17.878  38.516   4.080
27332W        W94115  15.377  12.270   3.974
27333W        W94116   3.195   9.824   3.064
27334W        W94117   4.518  39.865  10.676
27335W        W94118  34.468  27.267   0.304
27336W        W94119  19.819   8.416   4.202
27337W        W94120  38.032  16.040   1.790
27338W        W94121  22.485  31.530  11.294
27339W        W94122  14.221  10.085  13.908
27340W        W94123  31.208  10.358   3.853
27341W        W94124  16.132  39.449   1.969
27342W        W94125  19.594  17.230   4.364
27343W        W94126  30.939   4.209  14.820
27344W        W94127  30.421  35.671  11.622
27345W        W94128  32.879  38.379  12.735
27346W        W94129  18.676  38.106  12.988
27347W        W94130  17.203  36.466   3.746
27348W        W94131  42.549   9.712   1.985
27349W        W94132  32.673  44.831  12.233
27350W        W94133   5.380  29.715   4.187
27351W        W94134  22.278  31.036   2.262
27352W        W94135   9.701   0.875   4.146
27353W        W94136  43.261  32.310  12.587
27354W        W94137   5.116  19.375  13.583
27355W        W94138  17.730  35.964   0.746
27356W        W94139  21.724  12.284   4.111
27357W        W94140   8.883  22.541  13.938
27358W        W94141   4.494   4.899  13.356
27359W        W94142  16.981   7.349   3.767
27360W        W94143  19.609  39.079   4.126
27361W        W94144  44.571  28.264   4.157
27362W        W94145  43.417  42.026   2.355
27363W        W94146  15.559  35.968  11.660
27364W        W94147  34.165  22.668   2.835
27365W        W94148  38.965  29.513  14.380
27366W        W94149  17.067  23.783  13.127
27367W        W94150   3.247  17.034  12.492
27368W        W94151  21.524  41.942   0.557
27369W        W94152  32.413  10.787  13.851
27370W        W94153  37.049  25.055  13.544
27371W        W94154  41.607  31.564  11.064
27372W        W94155   1.476  38.823  12.626
27373W        W94156  37.084  13.807   2.758
27374W        W94157  16.184   6.483  11.211
27375W        W94158  28.736  39.425   0.767
27376W        W94159   7.823  37.897   1.285
27377W        W94160  40.263  23.297   1.882
27378W        W94161  21.639  24.712  11.631
27379W        W94162   3.092  22.536  11.548
27380W        W94163  23.429  18.606  14.680
27381W        W94164  13.112  21.808  10.474
27382W        W94165   9.132  10.633  11.545
27383W        W94166  27.306  15.345  11.588
27384W        W94167  28.401  20.078   1.715
27385W        W94168  38.810  23.518   3.272
27386W        W94169  14.131   7.665   4.197
27387W        W94170   9.135  25.609  11.136
27388W        W94171  21.230   4.995  14.533
27389W        W94172  42.051  24.771  13.423
27390W        W94173   5.933  11.320   3.823
27391W        W94174  23.596  39.275   3.807
27392W        W94175   3.883   8.424  11.082
27393W        W94176  31.161  11.310  14.613
27394W        W94177  38.140   3.029   2.235
27395W        W94178  43.479  37.942   2.239
27396W        W94179  25.102  42.498   0.312
27397W        W94180  17.764  26.618   2.359
27398W        W94181   1.795  32.693  12.793
27399W        W94182  29.645  30.215   2.635
27400W        W94183  13.061   1.941   3.328
27401W        W94184  26.723  36.599   4.555
27402W        W94185  19.564  24.581   2.103
27403W        W94186  40.343  16.707   1.290
27404W        W94187   8.238  35.171   1.107
27405W        W94188  40.526  29.536  11.179
27406W        W94189  25.681  36.586  11.577
27407W        W94190  39.425  34.693   4.600
27408W        W94191  43.493  27.987  13.330
27409W        W94192  20.516  29.603   4.168
27410W        W94193   8.293  38.029   0.428
27411W        W94194  40.816   3.220   2.866
27412W        W94195  25.468  25.126   0.400
27413W        W94196  28.686  41.995  11.473
27414W        W94197   3.157  21.256   0.311
27415W        W94198   2.369  13.389  11.949
27416W        W94199  15.082  33.505   3.759
27417W        W94200  41.527   9.746  14.554
27418W        W94201   4.688  12.620  14.969
27419W        W94202  31.565  29.601  11.575
27420W        W94203  32.015  41.565  13.565
27421W        W94204  19.248  43.167   3.667
27422W        W94205   8.866  31.919   3.518
27423W        W94206  23.337   4.034   5.121
27424W        W94207  23.950  44.817  14.114
27425W        W94208  23.223  15.331   0.468
27426W        W94209  39.007  32.723  12.006
27427W        W94210  21.176  20.084  13.388
27428W        W94211   7.565  23.160   1.707
27429W        W94212  16.655   9.630   2.250
27430W        W94213  28.822  36.520  10.968
27431W        W94214   5.822  25.115  12.894
27432W        W94215  22.290  24.641   2.757
27433W        W94216  29.535  10.861  14.828
27434W        W94217  36.872  42.510  12.376
27435W        W94218  29.155   2.402   1.424
27436W        W94219  33.584  11.966   4.568
27437W        W94220  36.577   3.613   2.888
27438W        W94221  25.248   9.956   0.477
27439W        W94222  32.063  29.368   1.319
27440W        W94223  13.094   6.822  13.579
27441W        W94224   9.826  28.709   4.868
27442W        W94225  18.254  19.844   1.832
27443W        W94226  21.345  35.864   2.256
27444W        W94227  35.510  35.592  13.467
27445W        W94228   5.826  36.036  11.824
27446W        W94229  39.216  22.045  11.969
27447W        W94230  19.120  33.849  12.409
27448W        W94231  30.228  28.011   3.533
27449W        W94232  28.831   9.913  14.299
27450W        W94233  21.518  44.480   1.465
27451W        W94234  36.783  19.430  14.348
27452W        W94235   1.829  23.796  14.262
27453W        W94236   1.359  30.459   0.740
27454W        W94237   7.695  14.800   0.768
27455W        W94238  24.181  40.842  13.097
27456W        W94239  35.979  31.606  13.260
27457W        W94240  20.750  39.247  12.351
27458W        W94241  11.616  14.895   4.485
27459W        W94242   3.951  14.596   2.185
27460W        W94243  14.633  42.414   1.768
27461W        W94244  26.616  24.418  12.009
27462W        W94245  33.546  14.359   3.693
27463W        W94246  38.564   3.360  14.853
27464W        W94247  22.033  10.901   2.670
27465W        W94248   1.270  30.669  12.183
27466W        W94249  35.572  20.630   1.351
27467W        W94250   1.749  28.504   3.238
27468W        W94251  16.660  10.314  10.568
27469W        W94252  27.070   5.798   3.549
27470W        W94253  36.816  30.901   1.909
27471W        W94254  16.723   9.871   1.749
27472W        W94255   8.995  36.625  11.453
27473W        W94256  43.314  17.402  10.228
27474W        W94257   9.963   5.809   1.835
27475W        W94258  23.703  27.073  14.264
27476W        W94259  29.323  21.026   4.366
27477W        W94260  41.011  31.104   3.603
27478W        W94261  44.932  42.521   4.876
27479W        W94262  34.607  26.988   1.387
27480W        W94263  43.961  43.409  12.423
27481W        W94264  13.124  44.857  12.850
27482W        W94265  11.660  23.285   4.560
27483W        W94266  25.922   9.359   1.915
27484W        W94267  10.618  42.274   4.617
27485W        W94268  18.765  25.039   3.247
27486W        W94269  39.649  17.076   2.801
27487W        W94270  12.183  39.131   2.401
27488W        W94271  44.751  27.367  12.138
27489W        W94272  26.910  27.212   3.573
27490W        W94273  32.994  29.086   0.927
27491W        W94274  19.798  34.883   1.267
27492W        W94275  44.103   1.932  13.084
27493W        W94276  14.502   1.482  11.548
27494W        W94277   6.307   3.102  11.602
27495W        W94278  44.743  18.655   2.881
27496W        W94279  38.849  26.661  13.507
27497W        W94280  24.607  12.668  11.134
27498W        W94281  43.002  23.643  11.682
27499W        W94282  38.349  40.620   2.312
27500W        W94283  29.202   1.718   4.202
27501W        W94284  39.458  32.389   0.502
27502W        W94285   6.248   1.973  10.994
27503W        W94286  31.294   1.805  11.107
27504W        W94287   3.375  15.780  10.385
27505W        W94288  28.005  34.472  14.262
27506W        W94289   1.778  10.302   2.839
27507W        W94290  40.043  11.049  12.884
27508W        W94291  18.698  18.599  14.050
27509W        W94292  22.086  10.663  13.418
27510W        W94293  18.595  10.743   1.808
27511W        W94294   0.061  29.214   0.294
27512W        W94295  33.402   5.392  12.162
27513W        W94296   9.856  43.857   3.788
27514W        W94297  14.872  42.478  11.854
27515W        W94298   1.311  43.256   3.026
27516W        W94299   7.297   7.439  12.956
27517W        W94300   0.613  18.586  11.238
27518W        W94301  16.875  43.918   0.442
27519W        W94302  35.384  14.843  14.041
27520W        W94303   7.826  24.778   3.694
27521W        W94304  42.081   8.846   2.147
27522W        W94305  43.830  30.962   2.680
27523W        W94306  15.145   9.891  14.389
27524W        W94307   5.193  11.866   0.203
27525W        W94308  39.846   1.889  13.880
27526W        W94309  23.228  10.802   1.317
27527W        W94310  25.721   5.395   2.871
27528W        W94311  42.933  38.537   3.235
27529W        W94312   5.290  35.408  13.421
27530W        W94313  11.220  38.838   4.113
27531W        W94314  44.415  32.551   4.539
27532W        W94315  27.930   6.187  12.110
27533W        W94316  23.899  19.539  14.920
27534W        W94317  27.105  28.764  12.434
27535W        W94318  38.857   6.624   2.016
27536W        W94319  18.386  29.093   0.726
27537W        W94320  31.918  40.191   1.671
27538W        W94321   0.728   4.404  12.870
27539W        W94322  21.525   0.027  12.019
27540W        W94323  38.356  28.205  10.679
27541W        W94324  15.261  13.316   4.126
27542W        W94325  32.853  24.987  11.486
27543W        W94326   2.903  23.724   4.194
27544W        W94327  25.144  28.484   1.199
27545W        W94328  40.893  10.088  10.638
27546W        W94329  36.150  23.513   0.712
27547W        W94330   4.370  32.082   3.827
27548W        W94331  36.358  36.599   1.876
27549W        W94332  40.016   0.691   1.806
27550W        W94333  15.302  20.031  13.443
27551W        W94334  37.580  30.608   1.448
27552W        W94335   3.293  39.920   3.411
27553W        W94336   7.023  14.985  13.995
27554W        W94337  33.891  37.270   0.267
27555W        W94338  42.018   8.154  12.877
27556W        W94339  34.106  10.562   0.480
27557W        W94340  20.732  13.378   2.019
27558W        W94341   6.823  39.946  11.447
27559W        W94342  16.169  41.466  14.806
27560W        W94343  30.097  21.281  13.345
27561W        W94344  32.570  14.323   4.156
27562W        W94345  10.750  38.878  12.533
27563W        W94346  12.383   9.439   0.529
27564W        W94347  43.794  35.101  13.145
27565W        W94348   4.103  17.542  12.541
27566W        W94349   5.653  41.996  12.045
27567W        W94350   2.407  12.609   0.318
27568W        W94351  17.131  21.162   4.467
27569W        W94352  33.776  29.019  12.157
27570W        W94353  14.290   9.912  12.984
27571W        W94354  26.465   1.801   2.461
27572W        W94355  24.462  17.534  10.623
27573W        W94356  13.695  43.246   1.343
27574W        W94357  35.048  22.439  13.808
27575W        W94358   5.220  28.640  11.695
27576W        W94359  15.397  42.533  11.865
27577W        W94360  25.195  33.809  11.908
27578W        W94361  11.332  15.603   0.381
27579W        W94362  10.654  24.740   2.184
27580W        W94363  22.105  34.389  13.288
27581W        W94364  28.013  20.845   4.523
27582W        W94365  17.777  17.713  10.677
27583W        W94366  24.279  36.937  14.832
27584W        W94367  30.707  18.805   1.290
27585W        W94368  19.457   1.301  12.862
27586W        W94369   8.951  41.769  11.287
27587W        W94370   5.791   6.360  13.462
27588W        W94371  38.903  12.876  12.904
27589W        W94372  12.679  31.267   1.711
27590W        W94373  27.159  19.262   3.412
27591W        W94374  11.815   2.367   0.596
27592W        W94375  21.035  10.307  14.687
27593W        W94376   7.858  39.801   4.096
27594W        W94377  18.084  17.503  13.907
27595W        W94378  13.246  19.644   2.408
27596W        W94379  22.219   6.551  11.874
27597W        W94380  11.752   5.350   1.477
27598W        W94381  38.868  40.662  14.454
27599W        W94382   3.341   1.380   3.838
27600W        W94383  40.846  35.866   2.549
27601W        W94384  43.897  14.720  12.143
27602W        W94385  41.333  40.284  11.267
27603W        W94386  16.221  26.602   3.578
27604W        W94387   4.496   6.131   3.677
27605W        W94388   0.817  16.779   3.713
27606W        W94389   2.962  19.078   0.578
27607W        W94390  24.478   1.806  10.739
27608W        W94391  27.017  27.401   0.316
27609W        W94392  25.250  35.493   2.159
27610W        W94393  19.329  35.376   0.663
27611W        W94394  22.037  19.530   0.321
27612W        W94395  38.844  25.697  14.273
27613W        W94396   5.746  27.986  11.949
27614W        W94397   1.616  10.939   3.625
27615W        W94398   0.666  14.578  14.981
27616W        W94399  12.603  32.475   0.866
27617W        W94400  37.810  21.737   0.556
27618W        W94401   1.191  41.938   3.210
27619W        W94402  40.770   9.164   1.685
27620W        W94403  29.552  18.722  10.756
27621W        W94404  15.599  36.153  12.608
27622W        W94405  24.995  21.914   2.560
27623W        W94406  23.702  30.727  11.025
27624W        W94407  19.495  20.535  11.125
27625W        W94408  38.415  20.973   0.748
27626W        W94409  20.629   1.291  12.825
27627W        W94410   7.499  44.270   9.919
27628W        W94411  39.502  24.790   2.209
27629W        W94412  17.509   7.840   3.081
27630W        W94413  23.914  41.256  12.958
27631W        W94414   2.216   2.798  12.684
27632W        W94415  24.945  37.135   3.750
27633W        W94416  20.677  30.150  11.046
27634W        W94417   8.916  17.872  11.433
27635W        W94418   4.641  18.104  13.061
27636W        W94419  41.957  43.367   1.298
27637W        W94420  15.241  18.013  13.404
27638W        W94421  14.779   3.791   2.815
27639W        W94422  24.441  12.842   4.628
27640W        W94423  29.478  36.264   0.508
27641W        W94424   0.132  10.711  13.328
27642W        W94425   2.119  29.414  11.511
27643W        W94426  18.821   5.454   4.457
27644W        W94427   0.778   7.672   1.403
27645W        W94428  39.220  32.985   3.110
27646W        W94429  22.015   7.904   4.237
27647W        W94430  36.986  32.016  13.329
27648W        W94431  17.636  42.104   3.205
27649W        W94432  13.235   2.061   3.794
27650W        W94433  36.337  42.072  13.854
27651W        W94434  22.087  22.882   2.736
27652W        W94435  14.315  25.130  12.862
27653W        W94436   1.854  17.235  14.780
27654W        W94437   3.548   6.334   3.830
27655W        W94438   5.951  38.329   4.887
27656W        W94439   7.500   2.030   2.338
27657W        W94440  31.000   9.714   1.993
27658W        W94441   7.241  23.052   4.843
27659W        W94442  34.585  32.670  14.427
27660W        W94443  30.537   3.405   1.374
27661W        W94444   2.775  23.016  12.943
27662W        W94445  23.153  36.903  12.279
27663W        W94446  14.137  42.497   1.359
27664W        W94447  11.172   2.329  10.650
27665W        W94448  13.803  14.669  13.376
27666W        W94449  24.637  33.988   4.715
27667W        W94450  43.690  26.989  10.390
27668W        W94451  20.094  24.677   2.154
27669W        W94452  26.466  11.916  14.374
27670W        W94453  17.581  42.453  11.516
27671W        W94454  10.562  31.124   2.382
27672W        W94455  20.278   6.174   2.770
27673W        W94456  11.210  43.769  10.645
27674W        W94457  27.554  10.366  10.688
27675W        W94458  32.253  43.471   3.386
27676W        W94459  24.481  19.048  11.554
27677W        W94460  38.948  23.241  13.903
27678W        W94461  15.393  37.059   1.305
27679W        W94462  23.420  37.009   2.637
27680W        W94463   7.369  37.875   1.765
27681W        W94464   3.586  26.362  14.310
27682W        W94465   9.213  39.337   2.835
27683W        W94466  13.792  22.696   2.209
27684W        W94467  24.240   5.600   2.784
27685W        W94468  23.708   4.819   1.612
27686W        W94469  31.436  25.561  12.458
27687W        W94470  17.777  19.119  10.958
27688W        W94471  24.019   8.294  14.268
27689W        W94472   4.734  42.447  13.464
27690W        W94473   8.366   7.901   1.766
27691W        W94474  43.897   2.334  12.822
27692W        W94475  41.075  24.029   1.970
27693W        W94476   1.840  15.562  11.100
27694W        W94477  17.808  37.479  14.029
27695W        W94478  26.628  28.859  10.284
27696W        W94479  13.015  16.506  11.250
27697W        W94480   6.923  14.273  14.854
27698W        W94481  38.432  15.660  11.226
27699W        W94482   6.241   9.995  12.873
27700W        W94483   8.165   5.236  13.897
27701W        W94484  34.951   6.044  12.048
27702W        W94485  26.864  34.261   3.798
27703W        W94486  28.643  25.761  12.286
27704W        W94487  21.710  39.205   2.308
27705W        W94488  25.534  44.360   0.881
27706W        W94489  39.453   2.045   1.417
27707W        W94490  29.626  40.346  12.577
27708W        W94491   1.256  15.834  14.835
27709W        W94492  13.368  39.776  14.713
27710W        W94493  11.180   7.358   1.850
27711W        W94494   6.846  20.854  11.681
27712W        W94495  18.004  37.967   1.824
27713W        W94496  29.522  31.684  12.967
27714W        W94497  28.447  41.295   3.247
27715W        W94498   7.607  16.379   0.255
27716W        W94499   8.708  43.257   0.846
27717W        W94500  14.166  39.473   3.584
27718W        W94501  41.361  21.033   1.383
27719W        W94502   8.317  13.302   1.899
27720W        W94503  11.136  11.671   3.255
27721W        W94504   9.482  35.887   3.481
27722W        W94505   7.694  16.334   0.767
27723W        W94506   4.323  29.342   1.446
27724W        W94507  21.316  15.181  12.012
27725W        W94508  11.282  39.258   3.794
27726W        W94509  24.007   1.276   1.438
27727W        W94510   8.350  19.451  11.279
27728W        W94511  25.214  34.756   4.691
27729W        W94512  36.959  42.402   0.517
27730W        W94513   6.999  13.178  12.596
27731W        W94514  36.248  15.573  14.843
27732W        W94515  35.548  44.352   4.636
27733W        W94516  36.759  29.204  12.834
27734W        W94517  42.267  37.381   2.245
27735W        W94518  39.888  38.316  12.663
27736W        W94519  21.126  38.107  10.540
27737W        W94520  41.583  30.143  14.785
27738W        W94521  13.637   5.271   0.762
27739W        W94522  15.000  41.131  11.584
27740W        W94523  10.827  28.974  10.695
27741W        W94524  25.567  37.452  14.863
27742W        W94525  26.954   1.944   2.655
27743W        W94526  26.641  10.185  14.976
27744W        W94527  16.711  31.449  14.417
27745W        W94528  25.532  40.380  14.569
27746W        W94529  43.317  39.252  12.039
27747W        W94530   9.316   5.678  10.527
27748W        W94531  19.625  37.258   1.352
27749W        W94532  42.735  43.350  13.547
27750W        W94533  27.477  17.177  13.007
27751W        W94534  22.613  20.686   1.382
27752W        W94535   6.448  15.673   1.248
27753W        W94536   7.702  11.045  13.095
27754W        W94537   9.292  39.270  13.335
27755W        W94538   6.792  21.979   3.588
27756W        W94539  43.428  31.236   0.543
27757W        W94540  30.074  19.303   4.227
27758W        W94541  43.056   8.799   2.335
27759W        W94542  24.680  22.342  11.560
27760W        W94543  21.557  23.547   1.480
27761W        W94544  13.777  14.312  14.982
27762W        W94545  42.635  33.468  13.574
27763W        W94546  24.717   3.269  11.675
27764W        W94547  40.439  10.097  13.447
27765W        W94548   8.748  19.082  12.017
27766W        W94549   8.135   8.334   2.672
27767W        W94550  18.567   3.903  10.970
27768W        W94551  37.444  40.182   4.571
27769W        W94552  33.455   2.482  11.086
27770W        W94553  35.385  15.549   3.324
27771W        W94554   0.835   1.490   0.475
27772W        W94555  22.582  29.656  14.823
27773W        W94556  28.593  26.592   2.864
27774W        W94557  43.331  24.377  11.178
27775W        W94558  34.314  39.868  12.924
27776W        W94559  28.975   9.720  13.456
27777W        W94560  12.614   8.645   3.225
27778W        W94561  25.496  15.902   1.255
27779W        W94562  37.539  23.173   3.274
27780W        W94563   7.275   4.694   1.287
27781W        W94564  12.815  13.034  13.155
27782W        W94565  19.575  16.875  14.427
27783W        W94566  39.693  10.624  13.566
27784W        W94567  35.780  24.711  14.938
27785W        W94568  26.980  24.582  11.099
27786W        W94569  43.300  11.596   4.695
27787W        W94570   0.672  28.094   0.008
27788W        W94571  29.907  34.956   3.804
27789W        W94572  41.822  40.609  12.069
27790W        W94573   6.103   5.761  11.325
27791W        W94574  25.483  34.050   1.927
27792W        W94575  14.218  13.372   1.151
27793W        W94576  21.244  21.656  12.014
27794W        W94577   0.053   2.737   2.487
27795W        W94578  41.025  14.653   0.934
27796W        W94579  21.482   7.181  13.127
27797W        W94580   3.534   7.711   4.556
27798W        W94581  19.266  37.387   1.673
27799W        W94582  40.125   1.916   3.586
27800W        W94583  29.160  42.821  11.875
27801W        W94584  17.729  35.306  12.251
27802W        W94585  28.911   7.645  13.902
27803W        W94586  32.205  25.267  12.785
27804W        W94587  11.298  32.497   0.340
27805W        W94588  19.088  33.556   0.045
27806W        W94589  23.539  13.155   3.239
27807W        W94590  14.903  39.143   3.239
27808W        W94591  33.921   9.628  13.522
27809W        W94592  17.187   5.302  12.536
27810W        W94593   3.044  32.113  13.515
27811W        W94594  13.675   8.445   0.317
27812W        W94595  32.587  14.507  13.315
27813W        W94596  28.541  23.897   0.869
27814W        W94597   5.657  12.335   0.002
27815W        W94598  19.645  11.658  13.497
27816W        W94599  33.147  12.391   1.274
27817W        W94600  41.204   6.918   1.691
27818W        W94601   3.816  35.194   2.782
27819W        W94602   5.616   1.662  13.609
27820W        W94603  20.135   1.949   2.667
27821W        W94604  39.092  24.734  13.400
27822W        W94605  17.520   8.075  12.580
27823W        W94606   4.101  12.174   1.297
27824W        W94607   6.121   1.440   0.863
27825W        W94608  37.608  20.723  11.630
27826W        W94609  39.634  36.797  12.750
27827W        W94610   8.607  36.376  14.858
27828W        W94611  28.361  31.996   9.950
27829W        W94612  44.344   2.448   3.731
27830W        W94613  40.083  28.599   1.412
27831W        W94614   8.334  16.863   1.243
27832W        W94615  38.838  11.317   2.175
27833W        W94616  42.874  38.524  10.669
27834W        W94617  18.820  27.409   2.694
27835W        W94618  23.483   4.344   2.942
27836W        W94619  44.293  28.191  14.993
27837W        W94620  20.754  10.988  11.078
27838W        W94621  17.660  28.512   0.734
27839W        W94622  26.068  33.397   4.514
27840W        W94623  31.564  17.259   0.027
27841W        W94624  31.915  18.958  14.268
27842W        W94625   3.954   2.459   0.020
27843W        W94626  34.895  28.241  12.080
27844W        W94627   7.719  38.352   1.496
27845W        W94628  12.435  10.664   2.789
27846W        W94629  38.018  40.357   2.599
27847W        W94630  33.691  31.928  11.138
27848W        W94631  44.471  20.326   1.951
27849W        W94632  28.308  19.572  13.076
27850W        W94633  40.060  19.996  11.454
27851W        W94634  31.005   5.413  13.015
27852W        W94635  32.960  20.835   1.173
27853W        W94636  33.543  31.551   1.306
27854W        W94637  39.289  31.405  12.125
27855W        W94638  25.771   2.104  13.199
27856W        W94639  16.352  28.437   2.415
27857W        W94640  40.710  29.066   0.818
27858W        W94641  26.942  35.006   1.821
27859W        W94642   1.549  35.993   1.748
27860W        W94643  13.822  28.429   3.545
27861W        W94644  16.844   2.380   4.625
27862W        W94645  41.550  37.660   1.708
27863W        W94646  22.602  29.408   3.341
27864W        W94647  43.148  14.623  12.510
27865W        W94648   9.184  29.032   4.976
27866W        W94649   9.311  20.696   0.779
27867W        W94650  42.311  29.927   0.789
27868W        W94651   6.471  28.219   2.296
27869W        W94652  21.785  41.807  14.800
27870W        W94653  18.828  34.020   1.436
27871W        W94654  12.645   6.173   3.703
27872W        W94655  19.511  27.140   1.372
27873W        W94656  16.621   7.505   2.771
27874W        W94657  25.184  36.349   4.674
27875W        W94658  36.957  35.130   2.201
27876W        W94659  20.804   1.923  14.476
27877W        W94660  35.981  20.932  11.579
27878W        W94661  20.070  44.496   0.703
27879W        W94662  23.855  20.805  14.415
27880W        W94663   0.464  17.037  14.837
27881W        W94664  40.406  14.979   3.266
27882W        W94665   8.328  18.374  10.685
27883W        W94666  26.639   2.559   0.769
27884W        W94667  44.761  32.933  10.486
27885W        W94668  41.114  29.427   4.511
27886W        W94669  16.384  16.697   1.269
27887W        W94670  30.869  16.567   0.939
27888W        W94671  11.682   9.908  13.053
27889W        W94672  39.058   8.957   2.364
27890W        W94673  13.487  35.827  10.265
27891W        W94674  37.232  20.569   4.241
27892W        W94675  12.957   2.759   1.420
27893W        W94676  22.515  11.375   2.697
27894W        W94677   3.802  28.841  11.145
27895W        W94678  16.852  19.187  14.502
27896W        W94679  26.434  28.438   4.134
27897W        W94680  41.887  14.889   1.720
27898W        W94681  36.177  32.360  12.624
27899W        W94682  29.036  33.357  14.800
27900W        W94683  38.630  12.269  14.691
27901W        W94684  38.191   5.339  14.264
27902W        W94685  14.342  32.513  11.055
27903W        W94686  25.902  32.933  11.176
27904W        W94687  16.209  28.915  13.276
27905W        W94688  38.852   2.655  14.601
27906W        W94689  38.570  15.623  13.821
27907W        W94690  24.712   1.690  12.494
27908W        W94691  39.969   0.337   1.403
27909W        W94692  27.605  32.013   3.158
27910W        W94693  35.579  41.012  12.088
27911W        W94694  23.247  14.234  14.500
27912W        W94695  44.008   5.759  14.965
27913W        W94696  21.287  43.973  14.499
27914W        W94697  39.799   8.440   3.815
27915W        W94698   1.693   2.370   4.365
27916W        W94699   0.406   1.350   0.229
27917W        W94700  22.012  39.763  10.906
27918W        W94701  36.493   2.656   2.552
27919W        W94702  24.517  11.372   5.039
27920W        W94703   7.319  13.290   4.074
27921W        W94704  36.721  24.218   2.796
27922W        W94705   7.909  32.074   2.418
27923W        W94706  28.948  25.685   0.337
27924W        W94707  35.937  29.269  11.625
27925W        W94708  12.832  21.741  14.115
27926W        W94709  14.265  27.961  10.737
27927W        W94710  11.226  14.342   3.262
27928W        W94711  38.272  31.961   4.356
27929W        W94712  42.428  40.908   4.731
27930W        W94713   2.247   6.295  12.057
27931W        W94714  35.111  39.452  12.888
27932W        W94715   4.422  39.700   4.135
27933W        W94716  16.113  21.727   2.013
27934W        W94717   7.884  28.428  10.483
27935W        W94718  44.471   2.248  12.069
27936W        W94719  30.615  33.104  11.828
27937W        W94720   3.640  16.051  12.914
27938W        W94721  18.173  20.678   4.428
27939W        W94722   0.331  38.474  14.841
27940W        W94723  33.593  14.206   1.739
27941W        W94724   5.920  21.606  13.283
27942W        W94725  18.968  41.829   2.251
27943W        W94726   2.746   3.915   3.168
27944W        W94727  29.213  39.941   9.991
27945W        W94728  21.102  29.852   4.152
27946W        W94729  37.476  14.851   3.290
27947W        W94730   8.701  25.944  11.182
27948W        W94731  38.439   9.192   3.772
27949W        W94732  38.447  33.141   4.889
27950W        W94733  33.094  18.252   2.814
27951W        W94734  32.591  41.245   3.912
27952W        W94735  20.679   4.908  12.114
27953W        W94736  13.319  10.017   3.225
27954W        W94737  11.640  39.280   3.388
27955W        W94738  38.353   0.955   4.566
27956W        W94739  14.773   2.730   2.190
27957W        W94740  18.109  14.146  11.230
27958W        W94741  30.213   1.083   1.972
27959W        W94742  40.208  16.662  11.933
27960W        W94743   3.762  21.655  14.074
27961W        W94744  34.289  28.641   0.915
27962W        W94745  30.336  20.182   1.757
27963W        W94746  35.144   2.036   4.841
27964W        W94747  12.872  11.608  14.898
27965W        W94748  10.359   8.908   2.854
27966W        W94749  17.532   9.343  11.919
27967W        W94750  34.104  16.828   0.393
27968W        W94751  41.035   4.693  13.302
27969W        W94752  22.418  16.781   1.894
27970W        W94753  44.195  26.904  10.467
27971W        W94754  42.068  28.474   2.319
27972W        W94755  43.408  12.749   0.680
27973W        W94756   9.757  36.876  12.056
27974W        W94757  37.195   1.844   4.144
27975W        W94758   1.904  23.071   4.237
27976W        W94759   7.881  40.230  11.130
27977W        W94760  13.547   4.985  14.580
27978W        W94761  38.469   6.337  13.065
27979W        W94762  11.732  14.848  11.926
27980W        W94763  17.338  16.574  13.915
27981W        W94764   1.500  38.922   0.945
27982W        W94765  42.067  18.109  12.656
27983W        W94766  16.076   7.025   4.330
27984W        W94767  43.955  32.110  14.776
27985W        W94768   1.281  36.038   1.292
27986W        W94769  37.325   5.051   3.665
27987W        W94770  29.920   4.780  14.291
27988W        W94771  18.738  32.865  14.258
27989W        W94772  33.878  34.108  13.329
27990W        W94773  30.541  28.618  14.114
27991W        W94774  30.631  44.737  13.178
27992W        W94775  11.604  18.226  12.852
27993W        W94776  41.545  25.364   3.666
27994W        W94777  43.867   3.483   0.359
27995W        W94778  16.078   3.356  10.752
27996W        W94779  17.801  13.561   5.329
27997W        W94780  20.928  38.971   1.851
27998W        W94781  17.087  20.688   3.682
27999W        W94782  19.310  15.987  14.226
28000W        W94783  40.934  29.494   0.529
28001W        W94784  24.197   7.812   1.273
28002W        W94785  20.129   4.872   0.816
28003W        W94786  11.963  29.596  12.424
28004W        W94787  36.841   3.857   2.318
28005W        W94788  42.960  22.000   3.512
28006W        W94789  11.049  36.498   9.734
28007W        W94790  41.045  10.925  14.398
28008W        W94791  28.836  29.166  12.505
28009W        W94792  26.717  37.041   4.247
28010W        W94793   4.926  31.215   1.261
28011W        W94794  19.079  20.516  13.961
28012W        W94795  33.387   5.620   3.713
28013W        W94796   4.714  19.338  14.838
28014W        W94797  14.934  29.615  13.055
28015W        W94798  23.097  31.571  12.956
28016W        W94799   2.485  28.137  11.278
28017W        W94800  31.903  11.728  14.383
28018W        W94801  16.186  11.611   0.988
28019W        W94802  14.292  11.070   3.191
28020W        W94803  14.913  18.317   2.842
28021W        W94804  38.636  17.686   2.453
28022W        W94805   5.050   8.866   4.684
28023W        W94806  23.119   5.499  10.746
28024W        W94807  15.655  28.037   5.055
28025W        W94808  18.723  37.727  10.352
28026W        W94809  30.405  23.249   2.014
28027W        W94810  11.212  29.508  11.160
28028W        W94811  41.498  17.555  11.238
28029W        W94812  27.161  38.047   3.656
28030W        W94813  15.529  14.746   5.432
28031W        W94814  36.517   4.048  12.034
28032W        W94815   5.520  31.487  11.406
28033W        W94816  26.464  39.437   2.245
28034W        W94817  29.100  36.054  13.991
28035W        W94818  28.362  18.761   2.834
28036W        W94819  15.570  37.036   1.812
28037W        W94820  18.318  26.548   5.169
28038W        W94821  36.570   4.786  11.068
28039W        W94822  16.101  38.929  14.317
28040W        W94823  29.077  30.559  10.825
28041W        W94824  22.319  29.499  13.766
28042W        W94825   6.277  22.693   4.130
28043W        W94826  44.361   4.712  11.530
28044W        W94827  32.396  28.727   3.226
28045W        W94828   1.014  35.878   1.724
28046W        W94829  14.315  33.412  11.299
28047W        W94830  13.068   0.688   3.745
28048W        W94831  11.627  44.750  14.568
28049W        W94832  42.386  26.018  11.526
28050W        W94833  31.477  22.148  10.795
28051W        W94834  20.647   8.886  13.099
28052W        W94835  36.487  37.405  11.196
28053W        W94836  24.462  24.574   2.173
28054W        W94837   4.384   1.480   4.367
28055W        W94838  33.400  27.716   9.796
28056W        W94839  19.082   7.810  10.984
28057W        W94840  43.194   8.075   1.234
28058W        W94841  22.589   7.313   3.812
28059W        W94842  11.574  24.334  10.181
28060W        W94843  17.750  24.421   2.676
28061W        W94844   1.977  37.911  12.610
28062W        W94845  25.143  33.254   1.281
28063W        W94846   2.263  38.745  12.083
28064W        W94847   9.129  22.523   2.958
28065W        W94848  24.305  22.821   1.730
28066W        W94849  11.638  16.332   4.753
28067W        W94850  33.143  33.120   3.778
28068W        W94851  32.999  16.808  14.010
28069W        W94852  21.690  15.352   2.356
28070W        W94853  32.313   7.902  11.069
28071W        W94854  30.683  20.672  12.550
28072W        W94855  36.797   7.208  12.605
28073W        W94856   5.837  43.106   3.057
28074W        W94857  20.890  42.954   4.855
28075W        W94858  26.867  38.520   2.320
28076W        W94859  11.679  37.489   3.128
28077W        W94860  25.797  42.846   4.548
28078W        W94861   7.541  38.475   0.805
28079W        W94862  30.906  39.864   4.106
28080W        W94863  16.237   7.212   1.752
28081W        W94864  19.537  33.198   2.773
28082W        W94865  24.798  33.395  13.596
28083W        W94866   5.826  22.505  13.319
28084W        W94867  30.190  25.814  12.041
28085W        W94868  23.464  27.221   0.119
28086W        W94869  16.589  23.088   0.326
28087W        W94870  23.174  39.005  11.187
28088W        W94871  32.929  41.915  12.160
28089W        W94872  32.034  20.519  14.362
28090W        W94873  25.208  30.065  12.050
28091W        W94874  20.181  39.730  12.878
28092W        W94875  11.825  26.955  12.899
28093W        W94876  43.340  16.679   4.618
28094W        W94877  36.560   1.271   1.245
28095W        W94878  22.516  23.556  11.939
28096W        W94879  17.703  41.750   1.950
28097W        W94880  23.236  10.756   2.252
28098W        W94881   5.221  36.099   3.989
28099W        W94882  22.220  19.757   2.918
28100W        W94883  31.508  31.199   3.606
28101W        W94884   0.474  19.489  13.887
28102W        W94885  24.622  22.664   3.354
28103W        W94886  42.962   9.172   0.700
28104W        W94887   1.040  12.453   2.787
28105W        W94888  12.728   9.554   2.834
28106W        W94889  33.540  16.392  11.368
28107W        W94890  26.379  11.867   3.321
28108W        W94891  12.211  32.861   2.759
28109W        W94892  18.913  42.739   1.332
28110W        W94893  21.223  40.040  14.651
28111W        W94894  20.965  12.237   2.351
28112W        W94895  29.117  43.554  10.731
28113W        W94896  16.796   4.210   0.511
28114W        W94897  41.303  22.504  12.566
28115W        W94898  30.530  23.150   0.248
28116W        W94899  21.822  25.309  14.919
28117W        W94900  13.434  40.095  14.239
28118W        W94901  40.426   3.500  11.968
28119W        W94902  20.868   6.139  13.942
28120W        W94903  28.692   7.159  14.118
28121W        W94904  16.063  15.649  11.164
28122W        W94905  16.681  40.847   2.695
28123W        W94906   5.580  42.294  11.197
28124W        W94907  37.406  43.974  12.537
28125W        W94908  35.091  26.488   2.113
28126W        W94909  41.625  21.192  13.622
28127W        W94910  27.617  13.188   0.503
28128W        W94911  29.290   4.365   4.006
28129W        W94912  34.168  18.553  12.092
28130W        W94913   5.994  40.249   0.195
28131W        W94914  37.566  11.396  13.024
28132W        W94915  29.934  43.799   0.657
28133W        W94916  11.038   5.136   0.601
28134W        W94917  20.113  32.388  12.533
28135W        W94918   4.762  28.213  13.536
28136W        W94919  36.304  13.773  12.911
28137W        W94920  17.840   1.438   0.739
28138W        W94921  14.675  16.114   0.320
28139W        W94922  44.534  33.045   3.292
28140W        W94923  24.243  11.821  11.607
28141W        W94924  41.819  33.902  12.564
28142W        W94925  14.071   6.809   3.694
28143W        W94926  17.631   9.793   1.772
28144W        W94927  28.616  24.110  14.714
28145W        W94928   5.174   4.270   2.340
28146W        W94929  39.781  43.411  14.945
28147W        W94930  14.327   4.428  13.001
28148W        W94931  11.641  17.158   1.359
28149W        W94932  23.054  19.500  11.318
28150W        W94933  35.060  14.720  11.652
28151W        W94934  33.193  37.278   2.796
28152W        W94935  23.532  39.334   0.433
28153W        W94936   0.980   9.977   2.457
28154W        W94937   9.950   9.255   4.657
28155W        W94938   5.953   5.416  12.166
28156W        W94939   2.225   4.360  14.091
28157W        W94940   7.173  23.924   4.888
28158W        W94941  13.317  39.071   2.400
28159W        W94942  34.616  38.063   4.603
28160W        W94943   4.431   4.852   1.193
28161W        W94944  19.117  40.938  14.497
28162W        W94945  25.869  14.956   1.753
28163W        W94946   4.472  41.345  14.055
28164W        W94947   2.427  26.405  13.893
28165W        W94948  28.835  10.498   1.297
28166W        W94949   0.764  43.152   0.373
28167W        W94950  17.257  25.471   2.375
28168W        W94951  22.736   7.238  12.900
28169W        W94952  20.467  37.956   0.841
28170W        W94953  35.334  17.648  14.518
28171W        W94954  33.956  30.602   4.628
28172W        W94955  15.241  37.929   2.897
28173W        W94956  19.548  36.880   3.137
28174W        W94957   9.405  26.185   2.735
28175W        W94958  38.222  27.806  14.565
28176W        W94959  18.585  40.466  14.790
28177W        W94960  28.133   3.023  14.857
28178W        W94961   1.746  27.448  14.509
28179W        W94962  26.679  32.607   0.348
28180W        W94963   5.368  13.705  13.089
28181W        W94964  24.011  39.912  12.593
28182W        W94965  29.043  18.609   2.155
28183W        W94966  33.129   1.983  10.423
28184W        W94967  29.908  33.189  12.935
28185W        W94968   6.673  35.383   2.062
28186W        W94969   8.745  34.057   2.325
28187W        W94970  10.438  33.713   3.723
28188W        W94971   9.217   9.391   3.954
28189W        W94972  33.033  13.158   4.081
28190W        W94973  23.995  32.197   0.247
28191W        W94974  33.529  21.906  11.990
28192W        W94975  12.144  32.042   2.185
28193W        W94976  42.832  22.210   1.522
28194W        W94977   5.413  18.309   3.372
28195W        W94978  24.384  16.649   0.711
28196W        W94979  15.084  24.934   1.360
28197W        W94980  29.106   2.916  12.514
28198W        W94981  30.894  36.788   4.656
28199W        W94982   3.455  18.100  11.025
28200W        W94983  42.541  23.112  10.611
28201W        W94984  12.284  16.257  14.802
28202W        W94985   3.319  28.690  11.263
28203W        W94986   0.978  14.299  14.450
28204W        W94987  11.334  29.170   2.873
28205W        W94988   6.473  14.056   1.458
28206W        W94989  29.565  15.240   1.834
28207W        W94990  44.988  37.589  12.931
28208W        W94991  27.076   4.647  12.592
28209W        W94992  34.209  13.661  14.740
28210W        W94993  16.920  16.573  11.117
28211W        W94994  28.510  36.305  12.474
28212W        W94995  41.139  16.119   2.801
28213W        W94996   2.001   8.423   1.804
28214W        W94997  40.003  36.966  14.452
28215W        W94998  10.125  16.367  12.694
28216W        W94999  27.721  40.508  13.360
28217W        W95000  43.526  17.071  13.259
28218W        W95001  40.133  44.691  12.914
28219W        W95002  19.851   0.770   3.584
28220W        W95003   2.679   1.797  13.373
28221W        W95004  32.581  17.688  10.792
28222W        W95005  13.070  22.023   2.223
28223W        W95006  17.012  11.832   3.077
28224W        W95007   1.820   5.521  12.995
28225W        W95008  30.899  36.591   2.473
28226W        W95009   9.618  15.365   3.313
28227W        W95010   3.286  24.795   4.673
28228W        W95011   2.956  29.400  11.174
28229W        W95012   0.427  35.686   3.051
28230W        W95013  37.993  13.332  12.876
28231W        W95014  13.985  17.131   3.253
28232W        W95015  18.717  39.649  15.000
28233W        W95016  35.867   8.817  13.969
28234W        W95017   6.456   4.987   0.484
28235W        W95018  13.851  26.436   0.003
28236W        W95019  16.114  12.124   0.958
28237W        W95020  43.442   5.243   0.932
28238W        W95021   7.663  13.142   2.498
28239W        W95022  42.096   9.682  14.509
28240W        W95023  24.684  26.763  10.117
28241W        W95024  10.311   5.934  10.252
28242W        W95025  34.431  44.059   1.387
28243W        W95026  43.503  44.489   2.416
28244W        W95027  31.072  28.850   0.660
28245W        W95028  25.602  12.586   2.416
28246W        W95029  28.853  25.696   3.602
28247W        W95030  13.595  17.136  11.590
28248W        W95031  27.433   2.746   2.951
28249W        W95032  28.069  22.506   2.208
28250W        W95033  32.626  33.511  10.574
28251W        W95034  16.546   8.637  13.556
28252W        W95035  43.346  32.003   3.200
28253W        W95036  21.722  30.616  14.540
28254W        W95037  38.346  38.588   3.419
28255W        W95038   9.333  35.876   1.004
28256W        W95039  30.563   6.233  13.251
28257W        W95040  39.284  26.767  10.073
28258W        W95041   8.406  30.952   0.341
28259W        W95042  34.496   7.420   0.673
28260W        W95043  17.782   6.085   0.948
28261W        W95044  29.195  27.755  11.457
28262W        W95045   4.351  14.092   3.726
28263W        W95046  25.111  38.301  14.158
28264W        W95047  22.151  43.957   2.138
28265W        W95048  29.309   8.174   3.352
28266W        W95049  34.864  10.722  10.684
28267W        W95050  36.488  30.894   3.205
28268W        W95051   9.183   5.513  11.864
28269W        W95052  15.345   7.236  10.386
28270W        W95053  26.626  20.970   0.062
28271W        W95054  30.502   4.765   2.703
28272W        W95055   9.779  25.441   3.943
28273W        W95056  40.858  33.094   2.219
28274W        W95057  18.679   3.544   4.618
28275W        W95058  37.869  39.749  11.957
28276W        W95059  33.173  14.423  11.134
28277W        W95060  31.160  31.591  11.313
28278W        W95061   6.640  31.514   3.662
28279W        W95062   9.838   1.581  12.509
28280W        W95063  43.735  17.272  12.000
28281W        W95064  20.176  33.184  12.099
28282W        W95065   9.269  30.268  10.655
28283W        W95066   7.359  13.836  11.538
28284W        W95067  22.422  17.371   3.711
28285W        W95068  43.183  15.847   0.749
28286W        W95069  39.579  18.952   2.319
28287W        W95070   5.830  17.683   4.083
28288W        W95071  29.182  19.035  10.527
28289W        W95072  25.573  34.694  13.845
28290W        W95073  39.493  35.699  14.068
28291W        W95074  21.757  16.131   0.579
28292W        W95075  24.983  29.636   1.795
28293W        W95076  27.696  31.844   1.740
28294W        W95077   5.703  30.647  11.111
28295W        W95078   1.059  10.936   5.080
28296W        W95079   1.752  29.468   4.553
28297W        W95080  17.274   9.462  14.455
28298W        W95081  29.008   0.317  12.467
28299W        W95082   8.785  16.635   1.385
28300W        W95083  26.700   6.710   4.223
28301W        W95084  41.942  11.633  12.059
28302W        W95085   3.671  18.632  12.546
28303W        W95086   4.881  31.981  10.446
28304W        W95087  38.845  41.549   3.692
28305W        W95088  11.615  44.433   1.715
28306W        W95089  37.578  35.331   4.271
28307W        W95090  18.432   9.061  11.493
28308W        W95091  11.365  42.339  13.781
28309W        W95092  35.607  17.968  10.456
28310W        W95093   1.980  17.782   4.699
28311W        W95094  40.851  20.841  10.723
28312W        W95095   4.807  25.038   2.617
28313W        W95096  21.431  34.966  14.933
28314W        W95097  28.429  34.067   4.219
28315W        W95098  31.216  20.602   2.271
28316W        W95099  17.740  28.589  10.574
28317W        W95100   2.328  18.588   0.801
28318W        W95101  41.356  16.828  12.478
28319W        W95102   0.868  44.696   4.053
28320W        W95103   6.224  14.159   4.049
28321W        W95104  32.058  14.058   0.783
28322W        W95105  39.828  27.751   0.502
28323W        W95106  20.704  31.242  14.961
28324W        W95107   3.231  26.131   1.275
28325W        W95108   9.768  29.679   4.670
28326W        W95109  10.106  18.692  14.989
28327W        W95110  38.814  23.934   0.404
28328W        W95111  28.776   4.524   0.903
28329W        W95112  23.995  43.454   1.251
28330W        W95113  33.058   5.777  11.576
28331W        W95114   0.773  28.165   2.614
28332W        W95115   2.057  17.574  11.903
28333W        W95116  42.795   9.905   2.948
28334W        W95117  20.635  21.515  13.545
28335W        W95118  35.953  10.611   1.311
28336W        W95119  26.994   2.151   1.287
28337W        W95120  17.665   9.409  13.746
28338W        W95121  16.377  13.241  13.943
28339W        W95122  10.797   8.381   2.377
28340W        W95123  26.596  13.595   0.505
28341W        W95124  20.102  36.248  14.676
28342W        W95125  25.520  43.250  14.384
28343W        W95126   0.423  28.580  14.967
28344W        W95127  26.850  26.699  11.380
28345W        W95128  30.412  14.919   3.581
28346W        W95129  14.157  31.628  12.041
28347W        W95130  30.951  39.327   9.818
28348W        W95131  27.534  43.809  14.602
28349W        W95132  33.559  32.050   3.209
28350W        W95133  15.323  44.225  10.938
28351W        W95134  18.131  41.608  11.996
28352W        W95135   7.817  41.536   2.697
28353W        W95136  39.417  10.574   0.286
28354W        W95137  21.201  43.337  11.979
28355W        W95138  43.915  21.535  10.849
28356W        W95139  36.038   3.446   2.137
28357W        W95140  12.820  26.448   2.409
28358W        W95141  42.454  16.055   2.023
28359W        W95142  15.011  40.147   5.547
28360W        W95143  12.141  26.220  10.652
28361W        W95144   1.652  18.851   0.226
28362W        W95145  26.961   5.955  12.917
28363W        W95146  11.655  13.835   3.631
28364W        W95147  23.625  44.045  12.182
28365W        W95148   5.518  15.122  13.928
28366W        W95149  27.667  20.832   2.519
28367W        W95150  20.096  10.715   1.886
28368W        W95151  36.319   4.616  14.898
28369W        W95152  30.253  12.734  11.079
28370W        W95153  15.162   2.500  13.510
28371W        W95154  33.921  12.298  13.136
28372W        W95155  11.180  12.643  13.895
28373W        W95156  39.497  39.748   3.712
28374W        W95157  21.606  37.130   4.382
28375W        W95158   3.407   9.211   4.533
28376W        W95159  17.806  41.420  13.504
28377W        W95160  18.094  25.142  11.864
28378W        W95161   2.174  23.979  11.383
28379W        W95162  11.804  10.043  11.201
28380W        W95163  39.587   7.415  10.715
28381W        W95164  22.805  17.434   1.667
28382W        W95165  13.764   5.765   3.265
28383W        W95166  16.391  38.948   3.225
28384W        W95167  13.653  14.283   4.215
28385W        W95168   3.453  13.142  10.605
28386W        W95169  18.169  21.712   0.334
28387W        W95170  17.810  38.465  12.404
28388W        W95171   0.265   4.359  13.961
28389W        W95172  23.092  22.169   0.391
28390W        W95173   0.493  16.162  14.291
28391W        W95174   7.755  40.325   0.285
28392W        W95175  32.992  14.324   4.929
28393W        W95176  41.030   5.921  11.504
28394W        W95177  32.581  44.778   1.346
28395W        W95178  27.425  20.737   3.308
28396W        W95179   5.506  23.287   4.075
28397W        W95180  12.138   4.437   2.244
28398W        W95181  25.431   5.255   3.276
28399W        W95182  24.278  13.710  13.010
28400W        W95183   5.507  20.839  14.189
28401W        W95184  11.906  18.724   0.646
28402W        W95185   6.896   3.782   1.394
28403W        W95186   5.674   5.204   2.010
28404W        W95187   9.696  44.145  12.940
28405W        W95188  24.944   0.057  13.911
28406W        W95189   3.875  12.380   0.889
28407W        W95190  10.029  14.837  13.941
28408W        W95191  40.387  33.316   4.574
28409W        W95192  21.246  12.553   2.863
28410W        W95193  44.334   8.868  12.354
28411W        W95194  30.485   8.703   4.536
28412W        W95195  39.569  23.171  11.910
28413W        W95196  21.710  20.535  12.566
28414W        W95197   5.693  19.036   0.160
28415W        W95198   3.785  24.132  11.641
28416W        W95199  15.060  40.825  10.719
28417W        W95200  16.652  10.620  12.401
28418W        W95201  25.540  34.326   0.256
28419W        W95202  38.649  36.143  11.934
28420W        W95203   0.473  26.230  11.055
28421W        W95204   3.147  19.736   2.206
28422W        W95205  34.894  33.939   3.109
28423W        W95206  24.234  23.840   0.706
28424W        W95207  43.903  24.487  11.362
28425W        W95208  25.112   5.983   3.893
28426W        W95209  20.884  28.919  11.256
28427W        W95210  28.974  44.730   1.418
28428W        W95211  22.082  11.175  13.260
28429W        W95212  12.401  37.008   1.147
28430W        W95213  38.375   7.292  10.568
28431W        W95214  27.510   4.701   0.036
28432W        W95215  22.002  17.624   3.769
28433W        W95216  32.416  44.308   5.012
28434W        W95217  15.790  42.542  11.081
28435W        W95218  21.334   0.104  13.267
28436W        W95219   6.504   2.770  11.958
28437W        W95220  30.076  23.645   1.941
28438W        W95221  19.133  22.061   0.770
28439W        W95222   7.135  29.503   2.304
28440W        W95223  27.086   4.487  10.449
28441W        W95224  20.527  12.590  12.795
28442W        W95225  19.799  17.596  13.691
28443W        W95226  17.716  29.962   0.585
28444W        W95227  30.242  20.553   0.380
28445W        W95228  36.895  33.472   0.335
28446W        W95229  37.723  37.541   3.093
28447W        W95230  36.702  24.289  11.916
28448W        W95231  41.529  33.909   4.435
28449W        W95232  28.675  26.377   2.408
28450W        W95233  13.522  28.018   1.469
28451W        W95234   6.455  25.575  10.839
28452W        W95235  39.560  27.680  12.958
28453W        W95236  36.523  13.026   3.822
28454W        W95237   3.532  14.670   1.856
28455W        W95238  42.308  33.978  13.491
28456W        W95239   0.833   5.187   4.245
28457W        W95240  32.849   9.107  13.406
28458W        W95241   3.487   8.942   0.258
28459W        W95242  14.397  10.240  13.432
28460W        W95243   3.914  28.349  11.317
28461W        W95244  39.370  13.274   4.283
28462W        W95245   2.025  23.056   1.802
28463W        W95246   4.604   4.490   2.189
28464W        W95247  44.820  44.691  12.402
28465W        W95248  31.710  12.346   3.637
28466W        W95249  23.631   1.420  13.734
28467W        W95250  37.010   6.770   1.909
28468W        W95251  25.610  33.641  13.447
28469W        W95252  20.029  29.065  10.939
28470W        W95253  35.963  16.873   4.549
28471W        W95254  29.477  24.700   1.908
28472W        W95255  28.441   0.391   3.646
28473W        W95256  23.921  43.984  14.782
28474W        W95257  44.843  35.099   0.702
28475W        W95258  22.932   7.240  12.065
28476W        W95259   9.614  25.109  10.631
28477W        W95260  21.428  37.421  12.898
28478W        W95261  30.015  40.034  13.851
28479W        W95262  27.030  10.118  13.084
28480W        W95263  32.014  34.827   4.952
28481W        W95264   1.692  12.375   2.361
28482W        W95265  29.169  27.252   3.461
28483W        W95266  19.240   9.363  13.207
28484W        W95267  19.281  14.577  12.133
28485W        W95268  37.342   7.277   3.238
28486W        W95269  44.374   0.222  10.257
28487W        W95270  26.182   1.034   2.159
28488W        W95271  39.506  16.611  14.941
28489W        W95272  29.814  15.584   2.210
28490W        W95273  19.559  17.872   1.290
28491W        W95274   9.861  18.236   0.208
28492W        W95275   5.395  10.298  10.002
28493W        W95276  44.319  41.035   9.903
28494W        W95277  22.597  28.489   2.198
28495W        W95278  40.111  12.291   3.128
28496W        W95279   7.394  37.027  13.131
28497W        W95280  12.597  34.364   0.012
28498W        W95281   7.406  34.138  11.192
28499W        W95282  22.632  24.963   1.043
28500W        W95283  35.295  26.156   1.018
28501W        W95284  43.325  35.555  10.674
28502W        W95285   7.519   0.795  10.787
28503W        W95286  36.626  40.274  13.393
28504W        W95287  32.750  20.527  12.573
28505W        W95288   0.795  10.394  14.448
28506W        W95289  20.462  37.269   0.530
28507W        W95290   5.704   1.218  14.528
28508W        W95291   2.982   3.459  12.031
28509W        W95292   1.529  18.699   2.187
28510W        W95293  11.185  14.914   2.476
28511W        W95294  41.376  22.648  12.027
28512W        W95295  31.290  33.433   3.183
28513W        W95296  18.474  16.844  10.053
28514W        W95297  28.487  33.804  12.465
28515W        W95298   2.653  36.563  13.775
28516W        W95299  30.956  44.332   2.529
28517W        W95300  15.454  40.838  12.468
28518W        W95301   7.166  21.529  12.071
28519W        W95302   3.472  16.578  13.438
28520W        W95303  30.152  35.006   3.334
28521W        W95304   1.254   1.248   1.347
28522W        W95305  27.223  36.337  13.939
28523W        W95306   2.331  24.292  12.593
28524W        W95307  30.693  15.392   3.578
28525W        W95308   4.129   2.805   4.151
28526W        W95309   8.752  29.639  11.273
28527W        W95310   6.104   1.814  10.526
28528W        W95311  20.888  20.797  13.838
28529W        W95312   7.422  41.810   1.347
28530W        W95313  37.712  12.917  10.254
28531W        W95314   1.361   1.115  14.926
28532W        W95315  35.051  12.150   0.608
28533W        W95316  17.805  28.082   0.442
28534W        W95317  14.454  12.261   4.204
28535W        W95318  32.279  21.118  13.981
28536W        W95319  16.117  10.258  14.380
28537W        W95320  38.942  44.249  11.944
28538W        W95321  12.321  10.665   4.384
28539W        W95322   9.672  32.009  13.524
28540W        W95323  26.125  35.054  13.350
28541W        W95324  26.716  43.609  13.990
28542W        W95325  10.918  25.029   0.766
28543W        W95326  29.550  32.222  14.750
28544W        W95327  32.632  18.578   3.557
28545W        W95328  44.575   7.645   0.588
28546W        W95329   7.170  40.873  14.078
28547W        W95330  14.438  13.799  14.933
28548W        W95331  15.664   1.976  12.936
28549W        W95332   5.305  15.572  14.084
28550W        W95333  11.876  19.009   1.084
28551W        W95334  18.597  24.687   4.937
28552W        W95335  22.700   9.417  11.911
28553W        W95336  19.552  40.328   0.801
28554W        W95337  15.238  10.144  14.834
28555W        W95338  12.180  17.332  13.813
28556W        W95339  41.791  15.701  13.460
28557W        W95340  26.238  32.874   0.349
28558W        W95341  27.192  43.000   1.286
28559W        W95342  27.577  36.799  13.424
28560W        W95343  17.686   8.881   1.904
28561W        W95344  25.458  23.927   2.372
28562W        W95345  44.142  35.835   3.173
28563W        W95346  16.550  22.048   1.864
28564W        W95347   9.179   8.068   1.433
28565W        W95348  19.551   9.441  11.312
28566W        W95349  31.917   6.844  13.409
28567W        W95350  31.094  34.448   3.760
28568W        W95351  33.447  17.633  11.484
28569W        W95352  33.447  20.944   3.230
28570W        W95353   1.373  32.871  10.628
28571W        W95354  30.578  11.910   2.155
28572W        W95355  27.543  38.225   3.940
28573W        W95356  15.755   3.946   4.704
28574W        W95357  16.543  14.222  11.475
28575W        W95358  15.016  16.973  14.006
28576W        W95359   5.603  13.435   2.496
28577W        W95360  35.940  31.093  13.292
28578W        W95361  29.306  26.221  11.897
28579W        W95362  20.729   7.351  14.270
28580W        W95363  21.200  16.203  13.936
28581W        W95364  18.027   7.285   0.420
28582W        W95365   6.494   8.905  11.473
28583W        W95366  10.789  42.417  13.488
28584W        W95367  42.618  29.662   3.323
28585W        W95368  18.119   0.906   1.271
28586W        W95369   8.322  40.847   4.935
28587W        W95370   1.768  11.663   3.008
28588W        W95371   8.145  42.280  12.735
28589W        W95372  33.452   6.815   1.737
28590W        W95373  22.596  33.235  11.917
28591W        W95374  10.353  17.555  13.403
28592W        W95375  16.136  14.797   2.129
28593W        W95376  37.623  30.354   4.261
28594W        W95377   4.008   5.447   3.145
28595W        W95378  15.819  33.058   2.914
28596W        W95379  33.638  21.412   1.048
28597W        W95380  13.357   8.120   3.585
28598W        W95381  38.816  15.709  11.555
28599W        W95382  14.285   9.689   1.609
28600W        W95383  40.103  40.591   4.686
28601W        W95384   2.707  23.729  13.413
28602W        W95385  42.693  33.110  11.596
28603W        W95386  44.766  39.100  13.465
28604W        W95387  34.771  27.681   3.734
28605W        W95388   2.893  32.373  14.316
28606W        W95389  44.798  10.826  12.911
28607W        W95390  21.701   8.222   4.525
28608W        W95391   4.442  10.362   2.447
28609W        W95392  33.616  18.670  11.068
28610W        W95393   1.656   1.606  13.396
28611W        W95394   9.161  21.388  12.869
28612W        W95395  21.055  12.397  12.543
28613W        W95396   8.206  16.929  10.808
28614W        W95397  15.133  23.675   1.038
28615W        W95398  37.386   1.931  14.001
28616W        W95399  26.523  14.559   2.283
28617W        W95400  25.770  42.340  13.412
28618W        W95401  33.764  11.248  13.744
28619W        W95402   8.314  11.224  11.968
28620W        W95403   1.493  28.110  10.924
28621W        W95404  12.074  25.922  14.732
28622W        W95405  25.756  17.055   1.773
28623W        W95406  44.433   6.728  10.649
28624W        W95407  32.703   7.620   0.857
28625W        W95408  15.609  16.441   0.231
28626W        W95409  15.241  15.850   2.094
28627W        W95410  18.222   0.278   4.491
28628W        W95411  18.823  29.861  14.508
28629W        W95412  22.959  30.462   5.059
28630W        W95413  24.688  28.984  10.262
28631W        W95414  18.545  12.683  10.623
28632W        W95415   8.925   7.603  11.079
28633W        W95416  11.143  12.136   0.360
28634W        W95417   3.462  21.314  12.136
28635W        W95418   0.606   3.646  12.321
28636W        W95419   7.715  27.507   2.352
28637W        W95420   4.028   4.960  11.532
28638W        W95421  28.167  23.515   0.837
28639W        W95422   1.876   6.373   4.615
28640W        W95423  38.235  11.668  14.087
28641W        W95424  16.342  38.469   3.446
28642W        W95425  12.097  36.101  13.398
28643W        W95426  21.631  16.162  13.539
28644W        W95427  31.038  43.778   3.239
28645W        W95428   0.135  34.549  13.913
28646W        W95429  22.150  21.875  11.578
28647W        W95430   9.362  29.352  14.427
28648W        W95431  16.375  29.033  14.331
28649W        W95432  10.037  34.853   5.085
28650W        W95433   0.181  42.431   0.547
28651W        W95434  40.551  42.494   0.431
28652W        W95435   4.303  18.520  10.619
28653W        W95436  34.927   7.180   1.846
28654W        W95437  35.540  20.097   3.058
28655W        W95438  33.618   6.477  13.006
28656W        W95439  23.424  42.331   3.198
28657W        W95440  16.164  29.336   4.497
28658W        W95441   9.733  39.334  14.946
28659W        W95442  40.860  33.563  12.594
28660W        W95443  44.835  26.515  12.435
28661W        W95444  22.407  15.371   4.633
28662W        W95445  34.990   7.554  14.543
28663W        W95446  14.816  39.078  11.553
28664W        W95447  10.796   0.039   1.214
28665W        W95448  38.270  39.470   3.250
28666W        W95449  18.819  38.525   3.274
28667W        W95450   3.512   9.639  12.480
28668W        W95451  27.959  14.343  13.504
28669W        W95452  23.572  15.659   0.815
28670W        W95453  33.380  22.992  10.356
28671W        W95454  31.147  23.067   0.832
28672W        W95455  26.443  43.463  11.965
28673W        W95456  24.742   9.388   4.401
28674W        W95457  41.902  42.823  12.927
28675W        W95458  42.963  38.438  12.009
28676W        W95459  37.696   9.435   9.751
28677W        W95460  36.550  37.927   1.706
28678W        W95461  17.234  18.461  13.022
28679W        W95462  16.524   6.434   2.691
28680W        W95463   6.681  16.191  10.803
28681W        W95464  11.702   4.339   2.508
28682W        W95465  42.485  11.149  10.278
28683W        W95466  18.923  38.426  11.726
28684W        W95467   5.203  34.587   3.142
28685W        W95468  11.298  27.950  14.453
28686W        W95469  35.319   9.237  14.331
28687W        W95470  18.739  39.962   4.347
28688W        W95471  10.028   8.180  12.423
28689W        W95472  31.695  26.208   3.730
28690W        W95473  11.689   4.339  10.700
28691W        W95474  37.464  13.446   4.519
28692W        W95475  10.927  40.451  11.100
28693W        W95476  16.227   6.935   3.328
28694W        W95477  12.440  31.102  12.598
28695W        W95478  29.171  23.192  13.045
28696W        W95479  37.322  28.877  13.563
28697W        W95480  37.669  40.482   2.951
28698W        W95481  34.403  33.102  12.538
28699W        W95482  22.604   2.198   2.235
28700W        W95483  39.139  15.140   3.392
28701W        W95484   7.303  35.986  14.766
28702W        W95485  24.916  18.703   0.987
28703W        W95486  17.697  23.390   2.802
28704W        W95487  41.256  42.841  11.864
28705W        W95488  32.035  12.696   2.681
28706W        W95489  24.614  17.374  13.134
28707W        W95490  28.900  22.584   1.862
28708W        W95491  25.180  44.316   2.145
28709W        W95492  34.754   9.688   2.704
28710W        W95493  30.779   5.635   1.245
28711W        W95494  34.453  40.106   4.370
28712W        W95495   5.968  32.916   4.522
28713W        W95496  30.054  29.106   0.421
28714W        W95497  25.545   2.343  12.651
28715W        W95498   8.991   6.387   0.911
28716W        W95499  11.654   2.288   4.993
28717W        W95500  16.223   1.473  12.412
28718W        W95501  22.061  35.103   1.324
28719W        W95502  35.850  29.964   3.275
28720W        W95503  14.169  35.416   3.373
28721W        W95504  28.963  17.896  13.524
28722W        W95505  30.519  43.316  12.508
28723W        W95506  34.602  29.658  10.751
28724W        W95507  16.072   9.206  14.135
28725W        W95508   6.738  43.264  14.930
28726W        W95509  38.540  23.704   3.682
28727W        W95510   2.240  38.253  13.481
28728W        W95511  38.097  32.055  14.365
28729W        W95512  40.706  13.236   1.289
28730W        W95513   0.435  17.865  14.403
28731W        W95514  40.244  21.153   2.649
28732W        W95515  17.500  25.252  13.486
28733W        W95516  16.159  35.466   3.803
28734W        W95517  36.523  29.954   4.227
28735W        W95518  17.267   9.803   2.310
28736W        W95519  23.411  34.092   2.494
28737W        W95520   3.262   4.813   0.343
28738W        W95521  11.822   8.337   3.524
28739W        W95522  33.080   3.260   0.013
28740W        W95523  32.006  13.162   5.083
28741W        W95524  40.554  35.009  11.191
28742W        W95525  28.489  23.214  11.062
28743W        W95526  34.373   5.036  11.578
28744W        W95527  25.541  23.091   1.365
28745W        W95528  25.685   3.427   1.113
28746W        W95529  21.245  12.675   2.345
28747W        W95530   0.864  18.626   4.607
28748W        W95531  31.855  21.258   3.680
28749W        W95532  37.807  25.373   3.594
28750W        W95533  40.452  27.162   3.064
28751W        W95534  36.440  31.087   2.695
28752W        W95535  14.574  13.025   4.677
28753W        W95536  32.578  24.652   3.277
28754W        W95537  33.658  43.048   4.220
28755W        W95538   1.302  10.052  10.988
28756W        W95539  35.622  15.746   9.922
28757W        W95540  21.274  12.326  13.057
28758W        W95541  26.259   4.871  10.823
28759W        W95542  43.409   5.256   4.126
28760W        W95543  14.136  26.915  12.021
28761W        W95544  21.272   0.018   0.774
28762W        W95545  24.731  37.188   0.662
28763W        W95546   0.761  19.217   2.231
28764W        W95547  36.832  25.316   3.664
28765W        W95548  17.274  39.572  11.628
28766W        W95549  10.476  15.593  12.108
28767W        W95550  12.660  39.737   4.905
28768W        W95551  44.441   2.310   3.227
28769W        W95552  36.667  27.980   3.168
28770W        W95553  35.167  23.946   1.104
28771W        W95554  25.897  24.682   2.202
28772W        W95555  28.068  27.810   3.761
28773W        W95556  38.814  33.047  11.095
28774W        W95557  39.816  11.659   1.222
28775W        W95558  25.931   3.735   5.446
28776W        W95559  32.474  20.120  14.001
28777W        W95560  11.306  38.142  13.940
28778W        W95561  21.083   1.790   0.337
28779W        W95562  23.600  12.943  14.859
28780W        W95563   5.751  10.307  13.795
28781W        W95564  29.278  36.131  10.313
28782W        W95565  20.065  12.157  14.778
28783W        W95566  23.665  44.173   2.351
28784W        W95567  44.163  36.461  13.927
28785W        W95568  29.245  17.833   4.305
28786W        W95569  19.173  12.749   4.757
28787W        W95570  10.864  42.736   4.571
28788W        W95571  37.482  40.768   0.384
28789W        W95572   6.776   6.823  10.770
28790W        W95573  24.431  27.670  10.907
28791W        W95574  27.071  44.864  11.670
28792W        W95575  16.875  39.044   3.256
28793W        W95576  23.656  15.634  14.435
28794W        W95577  15.866  26.915   0.689
28795W        W95578   8.492  26.348   4.496
28796W        W95579  23.184  28.554   4.155
28797W        W95580   2.371  36.439  11.119
28798W        W95581  20.722   2.831  14.607
28799W        W95582  34.605  29.153   1.824
28800W        W95583   9.890   4.305  12.211
28801W        W95584  23.219  33.498   3.207
28802W        W95585  26.542  17.058  12.144
28803W        W95586  31.833  43.283  11.028
28804W        W95587  13.149  35.312  11.118
28805W        W95588  10.121  19.783  10.228
28806W        W95589   0.832   0.232  14.169
28807W        W95590   8.372  12.820  11.879
28808W        W95591   6.218   2.701  12.400
28809W        W95592  29.016  28.862   3.996
28810W        W95593  33.099  31.603   3.823
28811W        W95594  21.523  17.564  14.505
28812W        W95595   1.287  13.046  13.365
28813W        W95596   0.301  21.319   1.772
28814W        W95597  23.197  32.605   2.241
28815W        W95598   1.771  13.157  13.600
28816W        W95599  12.111  34.886  10.780
28817W        W95600  22.073  27.247  11.930
28818W        W95601  15.255   3.508   3.836
28819W        W95602  28.062  15.574   2.359
28820W        W95603  18.063  20.711  12.221
28821W        W95604   5.369   4.072  14.289
28822W        W95605  11.386  19.799  14.171
28823W        W95606  14.526  25.485  13.779
28824W        W95607  42.797  42.747  12.931
28825W        W95608  17.696  31.079   2.649
28826W        W95609  29.761  21.022  11.552
28827W        W95610  37.301  19.473  11.493
28828W        W95611  30.961  22.015   2.339
28829W        W95612  37.440  20.088  14.477
28830W        W95613  38.826   4.428   0.958
28831W        W95614  25.619   5.901  10.749
28832W        W95615  34.770  36.334   2.667
28833W        W95616  21.426  16.754   9.825
28834W        W95617  22.527  30.165  11.446
28835W        W95618   8.166  19.605  10.843
28836W        W95619   6.634  34.471   2.374
28837W        W95620   3.007  11.755   0.671
28838W        W95621  17.199  17.743   3.529
28839W        W95622  30.729  15.525  14.169
28840W        W95623  17.506  43.421   4.498
28841W        W95624   5.072  10.619   1.918
28842W        W95625  29.428  42.515   4.593
28843W        W95626  15.356  20.552  13.415
28844W        W95627  12.487  20.963  14.335
28845W        W95628   3.474  35.604   2.862
28846W        W95629  44.454  35.470   2.954
28847W        W95630  26.653  41.612   5.084
28848W        W95631  10.707  15.109   2.394
28849W        W95632  26.371  24.138   3.237
28850W        W95633  10.658  14.597   4.767
28851W        W95634  14.567  37.062   4.049
28852W        W95635  43.390   8.574  10.732
28853W        W95636  24.182  30.577  10.247
28854W        W95637  16.232  23.392  13.595
28855W        W95638   8.749  10.382   3.994
28856W        W95639  28.409  12.023   2.832
28857W        W95640  18.651  44.074   1.004
28858W        W95641  31.366  38.260  13.334
28859W        W95642  22.558  20.500   4.439
28860W        W95643   8.422  13.331  10.623
28861W        W95644  36.788  23.055  12.995
28862W        W95645   7.711  23.991   1.186
28863W        W95646  35.833   6.278   3.553
28864W        W95647  43.782  38.594   3.918
28865W        W95648   5.784  27.718   0.735
28866W        W95649  31.114   3.712   4.367
28867W        W95650   7.696  35.944  10.406
28868W        W95651  10.213  28.957  11.171
28869W        W95652  38.108  39.276  12.104
28870W        W95653   1.459  28.611   4.575
28871W        W95654  17.290  12.641   0.867
28872W        W95655  40.562  37.109  13.757
28873W        W95656   1.528  35.924   4.600
28874W        W95657  43.530  41.827   3.833
28875W        W95658  23.028  43.008  14.240
28876W        W95659  36.560  30.972   3.722
28877W        W95660  16.747  39.331  13.728
28878W        W95661  24.971  35.508  11.222
28879W        W95662  24.280  44.911   2.675
28880W        W95663  35.422  11.603  10.668
28881W        W95664   3.708  44.196  11.698
28882W        W95665   8.273  10.661   2.118
28883W        W95666  24.653   4.486  11.004
28884W        W95667  43.571  42.513  10.988
28885W        W95668  41.468  25.015   4.504
28886W        W95669  24.571   1.375   3.650
28887W        W95670  33.447  30.927  10.958
28888W        W95671  30.330   1.469  11.168
28889W        W95672   2.150  11.862  14.786
28890W        W95673  30.068  11.940  13.529
28891W        W95674  26.638  28.221   3.701
28892W        W95675  34.905  15.085  11.971
28893W        W95676  20.999   0.840   3.260
28894W        W95677  39.540  31.144  13.073
28895W        W95678  23.561  28.698  13.287
28896W        W95679  31.683  43.995   3.812
28897W        W95680  24.712  18.574   2.651
28898W        W95681   4.417   3.769   1.825
28899W        W95682   4.937  23.998   2.766
28900W        W95683  40.749  29.301   4.129
28901W        W95684  15.991   7.279   3.613
28902W        W95685  11.256  12.857  14.839
28903W        W95686  39.491  23.585   4.606
28904W        W95687  29.536  17.831   2.145
28905W        W95688  39.279  13.636  10.105
28906W        W95689  29.682   9.874   1.913
28907W        W95690  16.337   9.326   2.681
28908W        W95691  10.317   1.861  10.723
28909W        W95692  26.271   8.266  13.824
28910W        W95693  12.347  37.094   4.192
28911W        W95694   9.924  33.578  11.148
28912W        W95695  43.401  30.625   0.311
28913W        W95696  11.650  10.838   2.351
28914W        W95697   7.236  42.463   3.931
28915W        W95698  19.783  41.869   4.660
28916W        W95699  31.585  44.832   3.158
28917W        W95700  24.274   3.427   2.772
28918W        W95701  28.749  13.302   4.914
28919W        W95702  17.825  41.550   0.530
28920W        W95703  37.346  14.509   4.628
28921W        W95704  40.530  18.662  11.155
28922W        W95705   6.183  25.249   0.504
28923W        W95706  16.497  33.928   1.034
28924W        W95707  43.264  30.792   0.808
28925W        W95708  27.792  33.109  14.508
28926W        W95709  21.656  43.579  14.519
28927W        W95710  28.087  13.375   0.267
28928W        W95711  35.997  17.631   3.369
28929W        W95712  17.757  33.076   0.947
28930W        W95713   9.992  41.765   3.274
28931W        W95714   8.781  27.445  14.919
28932W        W95715  27.146  12.218  12.493
28933W        W95716  40.016   5.997   2.288
28934W        W95717   7.176  36.141  14.271
28935W        W95718  26.612  44.509   3.866
28936W        W95719  43.536  15.242   2.671
28937W        W95720   5.303  17.873   0.589
28938W        W95721  26.356  18.340   1.104
28939W        W95722   4.438  27.173   0.851
28940W        W95723   1.879  13.263   2.651
28941W        W95724  15.322  11.565   0.638
28942W        W95725  38.238  23.605   4.089
28943W        W95726  40.475  21.566   2.868
28944W        W95727  18.844   2.464  11.403
28945W        W95728   4.769  36.253   3.235
28946W        W95729  32.275  30.391   3.711
28947W        W95730  40.601  16.545   0.695
28948W        W95731  28.401  40.830   0.057
28949W        W95732  13.844  17.543   3.576
28950W        W95733  20.752   6.766  12.158
28951W        W95734   4.866   9.382   4.622
28952W        W95735   5.533  19.129  11.113
28953W        W95736   4.543  30.027  10.692
28954W        W95737   9.539   1.933   4.263
28955W        W95738  25.055  29.072  11.718
28956W        W95739   5.067   2.439  11.174
28957W        W95740  19.157  21.014   2.359
28958W        W95741   8.201   9.017  10.602
28959W        W95742  30.599  27.553  11.954
28960W        W95743   4.489   1.847  14.376
28961W        W95744  26.168  12.152  14.799
28962W        W95745  43.448   2.374  13.051
28963W        W95746  11.613   8.720  12.052
28964W        W95747  24.233   0.247   2.228
28965W        W95748  19.511  10.108   2.683
28966W        W95749  26.508  35.265  10.571
28967W        W95750  25.577  15.122   2.375
28968W        W95751  10.431  41.431   2.334
28969W        W95752  23.136  30.614   0.834
28970W        W95753  20.733  28.435  11.160
28971W        W95754  24.461  21.895  11.513
28972W        W95755  18.580  41.588  13.090
28973W        W95756  10.221  23.222   4.633
28974W        W95757   3.512  26.141   2.489
28975W        W95758  26.647   9.519   4.335
28976W        W95759   3.730  22.117  13.093
28977W        W95760  44.836  28.463  11.579
28978W        W95761  42.036  14.215   3.531
28979W        W95762   9.358   0.829  14.480
28980W        W95763   3.887   7.805   1.191
28981W        W95764  17.872  16.654   2.722
28982W        W95765  40.022   3.438   4.062
28983W        W95766  44.741  44.043   2.438
28984W        W95767   2.926   1.290  11.511
28985W        W95768  27.153  40.451   1.391
28986W        W95769   6.668  39.569  13.514
28987W        W95770  12.187  37.621  12.628
28988W        W95771  38.192  11.577   3.561
28989W        W95772  14.967  33.354  13.836
28990W        W95773  18.750  30.709  12.021
28991W        W95774  15.493  26.250  10.251
28992W        W95775   2.101  32.981   2.038
28993W        W95776  21.496  35.601  11.168
28994W        W95777  21.509  10.031   4.214
28995W        W95778  34.575  10.134   4.403
28996W        W95779  16.054  10.277  11.667
28997W        W95780  28.691  25.904  10.684
28998W        W95781  29.726  22.947   3.297
28999W        W95782  23.596  26.409   1.211
29000W        W95783  20.166  16.271  14.888
29001W        W95784   1.546  10.568   1.337
29002W        W95785  20.571  44.931   0.009
29003W        W95786  11.907  29.673  11.165
29004W        W95787   1.847  42.411  14.793
29005W        W95788   2.818  24.905   0.144
29006W        W95789  26.863  29.955  13.718
29007W        W95790  28.375   4.161   1.318
29008W        W95791   9.227   5.891   4.157
29009W        W95792   5.159   4.791  13.076
29010W        W95793  25.666   5.538  11.133
29011W        W95794  35.438  39.409   2.323
29012W        W95795  42.888  42.899   3.142
29013W        W95796  17.321  13.078   3.196
29014W        W95797  28.420  22.807  10.763
29015W        W95798  16.273  34.111  13.414
29016W        W95799  44.182  15.754   2.852
29017W        W95800  22.308  33.187  14.486
29018W        W95801  29.889   0.181  13.636
29019W        W95802  32.207  41.125   0.267
29020W        W95803  44.910  40.114   0.762
29021W        W95804  25.062  37.199  14.966
29022W        W95805  16.338  16.581  14.823
29023W        W95806  10.871  22.570   1.653
29024W        W95807  13.845  28.514  10.979
29025W        W95808  36.533  36.517  12.496
29026W        W95809  19.748  43.271   2.304
29027W        W95810  20.021  16.671   3.445
29028W        W95811  32.077   1.894  12.899
29029W        W95812   6.340  28.601   4.545
29030W        W95813  23.169  27.899  11.839
29031W        W95814  33.083  31.630   1.519
29032W        W95815   7.301  31.935  13.683
29033W        W95816   8.292  32.001   4.319
29034W        W95817  27.794  14.037  13.894
29035W        W95818  39.971  34.876   1.619
29036W        W95819   1.100   8.923  14.322
29037W        W95820  16.344  31.525  11.526
29038W        W95821  32.174  37.304   4.605
29039W        W95822  40.758  13.388  13.280
29040W        W95823  11.794   1.425  14.468
29041W        W95824  33.641  34.006   0.176
29042W        W95825  17.085  14.840  14.387
29043W        W95826  31.364  34.925  10.759
29044W        W95827   1.150   7.097   0.835
29045W        W95828   7.926  10.277   1.221
29046W        W95829  26.788  23.399   1.613
29047W        W95830  22.283  27.694   2.643
29048W        W95831  26.395  25.270   2.872
29049W        W95832   5.366  25.095   4.449
29050W        W95833   6.801  27.035  11.637
29051W        W95834  18.369   6.567  10.727
29052W        W95835  39.268  36.280   3.754
29053W        W95836  28.343   6.556  10.865
29054W        W95837  26.259  18.258  12.488
29055W        W95838  29.198  23.005  12.571
29056W        W95839   4.722  13.279   4.611
29057W        W95840  36.441  33.641  13.062
29058W        W95841  31.473  39.233   2.635
29059W        W95842   1.314   9.600   4.491
29060W        W95843  36.961  26.761  10.242
29061W        W95844  17.484   9.963  14.330
29062W        W95845  18.360   8.304  11.027
29063W        W95846  30.591  44.315   2.159
29064W        W95847  10.459   4.219  14.276
29065W        W95848   3.623  30.607  12.156
29066W        W95849  40.892   3.703  11.858
29067W        W95850  44.869   8.162  13.365
29068W        W95851  23.122  28.053  12.327
29069W        W95852   4.234  34.552  11.187
29070W        W95853   5.232  33.725  11.282
29071W        W95854  22.273  37.894  12.544
29072W        W95855  30.887  12.131   3.672
29073W        W95856  22.170  17.733  12.329
29074W        W95857  30.646  13.103  13.366
29075W        W95858  16.058  26.383   2.765
29076W        W95859  11.678  37.779   0.788
29077W        W95860  15.670  27.123  10.739
29078W        W95861   0.383  25.419   2.094
29079W        W95862  31.130   0.821   4.618
29080W        W95863  21.264  25.105   0.699
29081W        W95864  28.006  20.345  13.449
29082W        W95865  39.760  24.595  12.546
29083W        W95866  12.547  37.001  11.563
29084W        W95867  11.733  31.325  14.069
29085W        W95868  32.213  21.581  11.620
29086W        W95869  16.388   3.164   2.210
29087W        W95870  32.982   2.459   4.685
29088W        W95871  15.178   0.028   3.763
29089W        W95872   0.300  11.882   9.776
29090W        W95873  19.345   8.313  11.950
29091W        W95874  23.023   3.953  12.268
29092W        W95875  12.540  36.672   4.994
29093W        W95876  40.665  44.971   2.376
29094W        W95877  16.862   4.433  11.167
29095W        W95878  40.305  33.841   0.253
29096W        W95879  41.695  25.087   1.195
29097W        W95880  41.889  15.722  10.787
29098W        W95881   1.716  38.346   2.784
29099W        W95882  33.825  22.563   4.126
29100W        W95883  22.694  42.321  11.659
29101W        W95884  32.575   1.762  12.465
29102W        W95885  24.739  15.050  13.503
29103W        W95886  33.802  22.259   0.872
29104W        W95887  15.228  17.791  11.582
29105W        W95888  43.311  34.515   2.383
29106W        W95889  14.151   3.813   0.939
29107W        W95890  43.481   0.353   2.832
29108W        W95891  41.287  13.309   0.381
29109W        W95892  25.558  26.027  11.887
29110W        W95893  10.830  42.461   0.442
29111W        W95894  32.137  21.254  13.135
29112W        W95895  33.306  36.501   2.182
29113W        W95896   9.880  21.656   4.901
29114W        W95897  41.002  19.130   2.610
29115W        W95898  30.136   6.393   1.279
29116W        W95899  25.504  24.162  12.558
29117W        W95900  41.351  23.880   3.710
29118W        W95901  40.585  35.587   1.287
29119W        W95902  11.733  38.437   1.369
29120W        W95903  43.806  13.088   1.444
29121W        W95904  20.461  12.373   3.278
29122W        W95905  18.174  10.926  14.295
29123W        W95906  20.853  38.997   2.399
29124W        W95907  43.756  40.423  13.745
29125W        W95908  40.166  34.430   1.812
29126W        W95909  19.101   7.982  13.745
29127W        W95910  39.461  38.876   2.756
29128W        W95911   4.235  16.824   1.740
29129W        W95912   9.578  29.124  13.453
29130W        W95913   5.883  40.618   4.713
29131W        W95914  16.136   0.788   2.410
29132W        W95915  28.403  28.831  14.735
29133W        W95916  27.294  31.470   0.022
29134W        W95917  23.476  20.236  14.063
29135W        W95918   0.307  31.826   1.377
29136W        W95919  36.671   3.324   4.687
29137W        W95920  39.267  17.149   1.234
29138W        W95921  42.179  38.985   1.844
29139W        W95922   2.710  26.542   3.761
29140W        W95923   5.224  32.195   4.404
29141W        W95924  20.808   0.849   1.015
29142W        W95925  22.207  12.129   4.091
29143W        W95926  23.270   6.376  13.962
29144W        W95927  44.795  25.593   2.776
29145W        W95928  20.242  13.650  10.742
29146W        W95929  37.573   6.813   3.956
29147W        W95930  10.586   5.311  13.445
29148W        W95931  42.007   8.191  13.430
29149W        W95932  38.943   8.838   5.205
29150W        W95933   1.964  38.097  14.653
29151W        W95934  27.138  10.156  14.725
29152W        W95935  33.907  20.901  12.471
29153W        W95936  24.645  38.004   1.610
29154W        W95937  40.965  30.679   3.297
29155W        W95938  39.217  43.544  13.080
29156W        W95939  14.272  20.190   0.433
29157W        W95940  37.527   2.687  11.091
29158W        W95941  19.274  41.920  14.048
29159W        W95942  24.059  22.550   1.308
29160W        W95943   0.434  23.446  12.951
29161W        W95944   5.964  40.536  13.482
29162W        W95945  23.016   4.710  14.856
29163W        W95946  15.393  33.998  14.665
29164W        W95947  29.973   4.479  10.632
29165W        W95948  32.418  29.796  11.526
29166W        W95949   1.347  20.039   2.151
29167W        W95950  24.072  31.674   5.056
29168W        W95951  17.190   6.309   5.273
29169W        W95952  44.344  26.466  13.873
29170W        W95953   1.078  11.666  12.430
29171W        W95954  31.452  14.103  11.857
29172W        W95955  26.061  40.832   3.794
29173W        W95956  14.322  26.650  14.993
29174W        W95957  17.563  37.084  13.250
29175W        W95958  25.698  39.329  11.955
29176W        W95959  28.597  21.411  11.199
29177W        W95960  26.654  41.584   1.343
29178W        W95961   1.221  36.988  11.251
29179W        W95962  24.538  38.074   2.119
29180W        W95963  20.333  41.434  11.981
29181W        W95964  19.182  14.276  13.182
29182W        W95965  41.878   4.663  12.201
29183W        W95966  27.419  35.650  14.459
29184W        W95967  36.953  28.778  12.100
29185W        W95968   9.471  11.159  14.485
29186W        W95969  19.114  44.920   3.859
29187W        W95970  41.331   3.385   1.182
29188W        W95971  24.069  30.446  14.984
29189W        W95972  19.090  32.148   2.249
29190W        W95973  17.186  27.908  13.719
29191W        W95974  41.445   3.176  12.550
29192W        W95975  15.355   5.700  13.405
29193W        W95976  24.205  29.342  14.717
29194W        W95977  37.543  28.899   1.816
29195W        W95978  40.284  18.594  13.280
29196W        W95979  29.957  30.207  12.638
29197W        W95980  31.056  22.299   4.217
29198W        W95981  36.866  31.021   2.419
29199W        W95982  36.114  44.019  14.869
29200W        W95983   6.250  13.553  14.792
29201W        W95984  23.762  27.703   3.907
29202W        W95985   2.311   5.225   0.694
29203W        W95986  23.607  41.446  10.017
29204W        W95987  28.321  32.352   4.457
29205W        W95988  12.394  27.247  13.899
29206W        W95989  28.109   3.142  11.660
29207W        W95990  11.671   7.061   1.005
29208W        W95991  13.978   6.328  13.047
29209W        W95992  10.065  24.450  12.103
29210W        W95993  26.508  17.842   1.254
29211W        W95994  17.156  29.194   3.173
29212W        W95995  39.799   4.734   0.843
29213W        W95996  31.030  14.283  10.774
29214W        W95997   3.960  14.170  14.527
29215W        W95998   7.790  29.109  10.848
29216W        W95999  29.614  25.204  14.698
29217W        W96000   0.354  22.122  13.476
29218W        W96001   3.073   7.223  13.978
29219W        W96002  16.139   0.090   1.874
29220W        W96003  35.195  11.857  12.731
29221W        W96004  21.683  40.306  13.523
29222W        W96005   2.937   7.651  11.090
29223W        W96006  30.941   5.786   4.465
29224W        W96007  20.562   1.237   0.761
29225W        W96008  26.626  44.965  11.985
29226W        W96009  25.096  21.587   2.177
29227W        W96010   8.230  10.780   3.168
29228W        W96011   5.096   7.171   2.199
29229W        W96012  10.271   2.868   1.962
29230W        W96013   6.373  29.585   3.590
29231W        W96014  34.420  25.226   4.130
29232W        W96015   1.905  19.339  12.420
29233W        W96016  25.630  29.617   3.061
29234W        W96017  13.207   9.919   0.367
29235W        W96018  36.637  42.848  10.133
29236W        W96019  35.053  22.635  12.899
29237W        W96020  25.605   4.881   2.933
29238W        W96021  35.462  20.250  14.371
29239W        W96022  39.041  31.412  14.045
29240W        W96023  24.477  15.237  13.910
29241W        W96024   9.241   7.086   4.923
29242W        W96025  16.678  32.789  10.542
29243W        W96026   5.459  40.861  12.436
29244W        W96027  36.898  15.527  11.667
29245W        W96028  20.609  39.738   0.821
29246W        W96029   0.779  14.790  13.190
29247W        W96030  33.501  38.021  14.688
29248W        W96031   2.346  35.436   4.685
29249W        W96032  17.212  31.589   0.383
29250W        W96033   8.624   1.514  11.127
29251W        W96034   0.337   1.715   0.566
29252W        W96035  31.916  36.379   5.035
29253W        W96036  15.303  25.207  13.828
29254W        W96037   3.053   9.023   1.807
29255W        W96038  12.276   6.233  10.799
29256W        W96039  16.513   1.920  14.520
29257W        W96040  43.310  11.226  12.932
29258W        W96041  31.911  36.112  11.659
29259W        W96042  39.515  20.531  12.975
29260W        W96043  42.761  31.621  12.212
29261W        W96044  42.562   4.036  12.504
29262W        W96045  16.811  17.290  12.545
29263W        W96046   1.909   9.461   2.796
29264W        W96047  13.078  23.125   4.610
29265W        W96048  24.412  25.054  11.984
29266W        W96049  32.466  43.809  13.858
29267W        W96050  23.456  39.976   4.388
29268W        W96051   1.972   0.373  13.051
29269W        W96052  39.359   9.688  12.092
29270W        W96053   4.722  20.960  14.774
29271W        W96054  39.565  17.785  12.519
29272W        W96055   6.101  16.313   2.357
29273W        W96056  20.814   0.433  13.924
29274W        W96057  43.315  20.242  10.987
29275W        W96058  18.236  18.719   4.196
29276W        W96059   3.914  10.192  12.520
29277W        W96060  20.218   9.767   1.411
29278W        W96061   0.397  29.252   1.403
29279W        W96062  20.982  17.794  12.989
29280W        W96063  33.037  42.742   0.432
29281W        W96064  30.490  44.206   0.417
29282W        W96065  18.454  16.813   5.164
29283W        W96066  14.180  15.363  12.935
29284W        W96067  10.348  42.068  13.403
29285W        W96068  42.828   3.722  10.821
29286W        W96069  23.319  17.994   0.696
29287W        W96070  17.075  41.052   1.920
29288W        W96071  11.618  24.220   1.320
29289W        W96072  28.687   3.791  13.984
29290W        W96073  32.397   9.297  11.419
29291W        W96074   2.217  11.582   2.765
29292W        W96075  29.846  39.339  13.618
29293W        W96076  33.438  38.761  12.538
29294W        W96077  24.704  37.971   1.091
29295W        W96078  22.708   1.801   0.898
29296W        W96079  27.080   1.930  11.909
29297W        W96080   8.904  17.102   4.914
29298W        W96081   2.298   5.148  14.352
29299W        W96082  41.827  38.773  11.099
29300W        W96083  10.778  20.729   4.186
29301W        W96084   3.911  28.461  10.817
29302W        W96085   0.826  36.673  11.270
29303W        W96086  32.375  36.084   4.501
29304W        W96087  24.528  16.521   3.056
29305W        W96088  28.958  24.244   2.351
29306W        W96089   4.137  15.682  10.752
29307W        W96090  34.622  15.852   2.040
29308W        W96091   6.331  40.459  10.985
29309W        W96092  30.037  40.553   2.825
29310W        W96093   8.765   1.837   4.931
29311W        W96094   7.480  11.003  10.893
29312W        W96095  42.763  40.401  11.714
29313W        W96096  41.456  21.270   4.215
29314W        W96097  29.426  26.732  14.384
29315W        W96098   6.425  37.976   3.731
29316W        W96099  37.415  39.911  12.952
29317W        W96100   9.402  41.820   0.225
29318W        W96101  16.211  10.213   1.891
29319W        W96102  39.137  21.290   1.799
29320W        W96103  16.131  34.546  13.771
29321W        W96104   1.517  25.125   4.705
29322W        W96105  21.237  34.130   0.494
29323W        W96106  20.007   3.007   2.462
29324W        W96107   1.010   7.819   0.429
29325W        W96108  38.484  35.937   0.782
29326W        W96109  30.557  30.337  12.498
29327W        W96110   4.344  16.718  13.089
29328W        W96111  22.747   4.436   3.569
29329W        W96112   2.692  29.077  14.027
29330W        W96113  22.184  36.920  14.555
29331W        W96114  16.073   2.439  11.577
29332W        W96115  10.585   6.851  11.664
29333W        W96116   2.814   7.257  13.020
29334W        W96117  27.433   0.438   0.493
29335W        W96118  20.314  29.913  14.686
29336W        W96119  26.447  41.044  14.341
29337W        W96120  30.687  10.741   4.557
29338W        W96121  31.389  37.448   4.210
29339W        W96122  10.581  32.169   0.486
29340W        W96123  25.669  13.825  11.965
29341W        W96124  14.815  31.539   4.848
29342W        W96125  26.900  29.904   0.864
29343W        W96126   2.794  23.711   3.194
29344W        W96127  16.410   5.268  11.526
29345W        W96128   7.729   9.120   1.666
29346W        W96129  41.993   8.416   1.859
29347W        W96130  34.029  32.015  10.307
29348W        W96131  30.059  31.945  13.024
29349W        W96132  25.360  43.200   3.171
29350W        W96133  35.069  40.986   0.044
29351W        W96134  16.057  14.286  11.973
29352W        W96135  44.399  15.448  13.984
29353W        W96136  12.101  23.037  14.900
29354W        W96137  15.344   5.332  13.040
29355W        W96138  44.581  29.618   0.803
29356W        W96139   9.255  44.892  10.312
29357W        W96140  26.187  24.652   1.791
29358W        W96141   7.057   5.710  11.874
29359W        W96142   1.276  21.038  10.899
29360W        W96143  25.336  25.653   0.780
29361W        W96144  25.473  39.567   0.827
29362W        W96145  23.591  40.593   2.651
29363W        W96146   6.788   9.137   1.827
29364W        W96147  32.478  13.077   2.827
29365W        W96148  29.557  27.531  11.719
29366W        W96149   4.352  25.132   2.370
29367W        W96150  12.386  44.522  14.538
29368W        W96151  12.361  19.071   1.272
29369W        W96152  32.793  14.365   1.932
29370W        W96153  21.763  26.262  11.551
29371W        W96154  13.329  16.065  12.909
29372W        W96155  42.832  41.382  12.556
29373W        W96156  19.316   5.283   4.363
29374W        W96157  40.676  28.443   2.263
29375W        W96158  14.788  25.774   0.376
29376W        W96159  23.716  16.627  11.583
29377W        W96160  42.844  40.264  14.479
29378W        W96161   1.791  42.006   4.708
29379W        W96162   6.904  36.638   3.634
29380W        W96163   6.342  37.323   3.291
29381W        W96164   8.284  17.491   1.831
29382W        W96165   4.379  22.016   0.752
29383W        W96166   5.656  16.132   2.501
29384W        W96167  22.579  22.418  12.955
29385W        W96168  31.841  40.527   2.939
29386W        W96169  29.840  31.065   2.386
29387W        W96170  30.566  29.575   2.892
29388W        W96171  13.089  17.821   4.850
29389W        W96172  37.264  15.571   3.963
29390W        W96173  36.436  28.746  10.752
29391W        W96174  15.776  23.013  11.529
29392W        W96175  28.642  16.680   2.654
29393W        W96176   7.448  28.497  14.117
29394W        W96177   7.844   0.883   1.439
29395W        W96178   9.299  38.264  13.585
29396W        W96179   1.929  16.018   3.188
29397W        W96180  30.944   5.156  12.566
29398W        W96181  17.096  39.692  13.641
29399W        W96182  14.994  26.045  11.147
29400W        W96183   3.086  38.659   4.097
29401W        W96184  33.815   5.523   0.335
29402W        W96185  12.361  44.318   3.547
29403W        W96186   9.290  15.669   3.637
29404W        W96187  33.397   2.451  12.028
29405W        W96188  28.549   7.821   4.373
29406W        W96189  32.371  26.482  14.510
29407W        W96190  44.806  17.484   3.759
29408W        W96191  28.439  43.426   3.980
29409W        W96192  28.418  14.588  13.613
29410W        W96193  10.829  30.095   0.991
29411W        W96194  35.550  21.858  13.527
29412W        W96195  30.901  35.822  11.577
29413W        W96196   2.569  12.581   1.352
29414W        W96197  32.869   0.376   2.320
29415W        W96198  22.577  37.577  10.684
29416W        W96199  33.853   3.865   2.450
29417W        W96200  17.093   5.527  14.866
29418W        W96201  33.578  31.425   3.939
29419W        W96202  18.247  21.906   1.242
29420W        W96203   7.062  11.730  13.059
29421W        W96204  27.538  13.285   4.595
29422W        W96205  26.596  43.711  11.439
29423W        W96206  26.836   1.953   4.172
29424W        W96207  10.213  37.864   1.945
29425W        W96208   4.065   0.975  10.590
29426W        W96209  33.350   1.446  11.232
29427W        W96210  24.123  37.596  10.358
29428W        W96211   6.143  28.255  11.253
29429W        W96212   6.261  40.049   4.112
29430W        W96213  13.328  27.446  13.572
29431W        W96214   1.732  27.923   3.267
29432W        W96215   4.083   5.570   0.025
29433W        W96216  15.196   6.162  13.207
29434W        W96217   5.489   9.396   0.113
29435W        W96218  25.610  41.902  10.587
29436W        W96219  10.336  14.321  11.265
29437W        W96220  43.195  37.094   1.332
29438W        W96221   2.924  22.539   2.301
29439W        W96222   2.793  37.487   4.492
29440W        W96223  26.473  28.220  12.973
29441W        W96224   7.820  10.124  13.573
29442W        W96225   9.936  36.656  14.569
29443W        W96226  23.690   1.706   0.552
29444W        W96227   2.473  12.677  13.038
29445W        W96228  38.141  37.552   1.235
29446W        W96229  40.750  28.186   0.283
29447W        W96230  37.590  11.022  10.271
29448W        W96231  39.038  31.929   1.197
29449W        W96232  21.287  38.967  10.669
29450W        W96233   3.281  10.132   3.660
29451W        W96234   5.479  26.051   3.345
29452W        W96235  36.515  42.156  12.540
29453W        W96236  44.542  25.685  14.924
29454W        W96237  40.956   7.186  12.704
29455W        W96238  36.596  21.580   4.618
29456W        W96239   8.470  14.117  13.304
29457W        W96240  10.072   8.222  14.202
29458W        W96241  10.703   3.249  11.568
29459W        W96242  41.040  35.751  13.547
29460W        W96243  39.543  11.621  13.478
29461W        W96244  44.728  44.332   2.861
29462W        W96245   5.951   6.683   0.176
29463W        W96246  36.333  35.538  10.752
29464W        W96247  18.732  28.816   4.556
29465W        W96248  22.199  37.745   4.725
29466W        W96249  44.416   9.341   1.898
29467W        W96250  33.578   3.914  10.623
29468W        W96251   3.584   1.182  10.503
29469W        W96252  31.142   8.578   4.006
29470W        W96253  29.501   2.758   2.603
29471W        W96254  34.831  34.000   4.161
29472W        W96255   1.803  10.680   4.365
29473W        W96256  42.402  28.271  10.399
29474W        W96257  18.827  25.942  12.899
29475W        W96258  25.283  14.734   1.140
29476W        W96259  19.242  41.019  11.141
29477W        W96260  31.633  37.955  11.514
29478W        W96261  37.138  25.970   1.625
29479W        W96262  26.665   9.329  11.861
29480W        W96263  34.880  35.368  11.602
29481W        W96264   1.348   9.767  11.544
29482W        W96265  10.357  12.580  12.174
29483W        W96266   7.760   5.849   2.115
29484W        W96267  37.514  23.065  14.974
29485W        W96268  11.808  12.098  10.155
29486W        W96269  20.447   1.303   5.052
29487W        W96270  11.169  33.003   4.835
29488W        W96271  12.731  19.618   2.524
29489W        W96272  20.622  36.670   4.127
29490W        W96273   3.840  12.302  11.596
29491W        W96274  20.656  35.922   4.580
29492W        W96275  31.448  11.713  13.838
29493W        W96276  22.039   4.812   0.780
29494W        W96277   2.222  40.241   5.208
29495W        W96278   0.693  19.356  14.382
29496W        W96279   6.124  31.123   2.823
29497W        W96280  16.684  10.849  11.357
29498W        W96281  24.887  21.153   1.963
29499W        W96282  30.838  11.372   1.845
29500W        W96283  12.275   3.991   1.939
29501W        W96284  44.255  39.360   1.792
29502W        W96285  28.164   5.727   3.912
29503W        W96286   2.852  33.616  13.397
29504W        W96287  14.810  38.547  11.549
29505W        W96288   2.033  26.463   0.826
29506W        W96289  10.322  44.056  11.675
29507W        W96290   4.940   3.953  13.482
29508W        W96291  27.476   6.328   4.706
29509W        W96292  14.738  14.314   9.710
29510W        W96293  20.426  15.262  11.674
29511W        W96294   9.135   4.887  11.114
29512W        W96295  42.374  35.936   2.473
29513W        W96296   3.764   7.851  12.371
29514W        W96297  41.420  43.856  13.774
29515W        W96298  16.503  33.853   3.306
29516W        W96299  32.611  22.158  12.955
29517W        W96300  26.801  27.195  11.167
29518W        W96301  30.917  21.589   4.978
29519W        W96302  42.828  41.864  12.014
29520W        W96303  30.062  13.663  12.032
29521W        W96304  28.228  12.014   1.737
29522W        W96305   9.343  15.323  13.611
29523W        W96306  11.454  20.885  12.975
29524W        W96307  32.098   7.727   1.429
29525W        W96308   8.168  38.603  14.484
29526W        W96309  39.124  27.310   1.601
29527W        W96310   6.260  37.904  12.003
29528W        W96311  42.873  24.239   4.092
29529W        W96312  18.413  26.455  12.300
29530W        W96313  20.043  16.256   3.798
29531W        W96314  16.021   6.704   1.024
29532W        W96315  13.885   5.427  12.588
29533W        W96316  43.738  40.902  13.488
29534W        W96317   0.236  39.849  10.696
29535W        W96318  33.963  24.616   1.983
29536W        W96319   4.346  29.328  14.178
29537W        W96320  17.289  28.989   2.326
29538W        W96321  44.019  17.638   3.286
29539W        W96322  35.997   6.916  11.910
29540W        W96323  32.810  30.646  14.051
29541W        W96324  35.580   0.297  14.044
29542W        W96325   8.955  15.848  12.105
29543W        W96326   7.432  33.862  10.743
29544W        W96327  24.128  10.278  11.809
29545W        W96328  10.731   3.958  11.860
29546W        W96329  31.649   8.399   1.804
29547W        W96330  41.267  14.343  11.641
29548W        W96331  31.956   3.819   3.754
29549W        W96332   7.195  27.582   2.213
29550W        W96333  35.458  37.644  12.891
29551W        W96334   9.157  21.536  14.043
29552W        W96335  33.035   3.182   2.930
29553W        W96336  35.434   4.351  14.082
29554W        W96337  43.310  36.519  13.565
29555W        W96338  25.436  29.084  12.554
29556W        W96339   2.807  14.101   2.356
29557W        W96340  29.989  17.841   0.346
29558W        W96341  32.584  24.057   3.597
29559W        W96342   3.266  37.732   4.630
29560W        W96343   4.732  19.193  14.319
29561W        W96344  28.566  33.953   3.312
29562W        W96345  34.966  39.280  10.461
29563W        W96346  13.849  32.692   0.783
29564W        W96347  37.053   4.975  14.501
29565W        W96348  24.580  24.975   4.526
29566W        W96349  26.188   8.094  13.032
29567W        W96350   8.534  23.672  13.973
29568W        W96351  22.104  12.109  10.715
29569W        W96352   3.731  29.693  14.586
29570W        W96353  27.564  37.351   1.661
29571W        W96354   8.239  21.285  12.920
29572W        W96355   1.269  13.117   2.693
29573W        W96356  14.600  32.640   3.366
29574W        W96357  28.677  29.414   2.314
29575W        W96358  25.235  12.836   2.087
29576W        W96359  24.785  17.241   2.759
29577W        W96360  12.385  37.997   4.973
29578W        W96361   0.195   4.838   3.374
29579W        W96362   1.610  37.947   2.445
29580W        W96363  33.838  22.820   3.259
29581W        W96364  42.784  14.073   1.778
29582W        W96365  12.316  41.409   4.568
29583W        W96366   5.710  10.289  14.858
29584W        W96367  25.426  43.083  14.900
29585W        W96368   4.787  18.636  12.387
29586W        W96369   6.266  29.023   3.170
29587W        W96370  25.547  33.836  14.479
29588W        W96371  13.227  29.414  11.951
29589W        W96372   6.632  17.127  13.282
29590W        W96373  32.243  37.724   4.262
29591W        W96374   8.194   6.800   0.492
29592W        W96375  33.140   7.476   3.001
29593W        W96376  33.361  30.619  14.339
29594W        W96377  10.893  34.917   4.393
29595W        W96378  24.536  33.024  11.912
29596W        W96379  32.482  17.882  11.817
29597W        W96380  25.615  39.068  11.491
29598W        W96381  32.773   4.294   1.872
29599W        W96382  21.233  28.425  12.481
29600W        W96383  32.467   1.667  14.759
29601W        W96384  26.619  35.975   3.126
29602W        W96385  22.029  40.545  13.883
29603W        W96386  33.497   8.138   4.464
29604W        W96387  33.876   2.796   0.354
29605W        W96388  40.593  28.981   2.200
29606W        W96389   4.113  17.159   3.730
29607W        W96390  14.034  22.131  14.495
29608W        W96391  17.212  15.123   2.634
29609W        W96392  15.081  11.053   2.116
29610W        W96393   3.441   7.319  13.652
29611W        W96394   8.985  16.177   4.824
29612W        W96395   1.416  37.786   4.635
29613W        W96396  44.781  37.331  13.331
29614W        W96397  42.959  41.840   2.191
29615W        W96398   8.755   0.700   3.496
29616W        W96399  37.857  11.445   1.063
29617W        W96400  34.235  19.771   5.013
29618W        W96401  25.159  16.561  14.457
29619W        W96402  29.599  10.209   3.300
29620W        W96403   3.179  28.162  13.056
29621W        W96404  33.595  13.273   0.853
29622W        W96405  24.093  25.148   1.148
29623W        W96406  41.506  17.066   3.818
29624W        W96407  28.460  35.610  14.381
29625W        W96408   0.147  13.723   3.960
29626W        W96409  36.678  14.779  12.736
29627W        W96410   5.652  35.562  11.923
29628W        W96411   5.269   4.465   2.792
29629W        W96412  31.826   3.141   4.307
29630W        W96413   0.848  41.489   4.059
29631W        W96414  31.293  26.566   3.825
29632W        W96415   1.676  43.827  12.119
29633W        W96416  26.563  15.316  12.123
29634W        W96417  38.153  39.491   0.850
29635W        W96418  15.103   0.725  11.354
29636W        W96419   8.804   4.296   1.502
29637W        W96420  38.342  33.394   2.208
29638W        W96421  20.429  43.711  10.935
29639W        W96422  30.869  21.824   4.156
29640W        W96423  36.080   6.645   2.690
29641W        W96424  12.782  18.481  12.472
29642W        W96425  19.811  21.791   3.343
29643W        W96426   0.466  12.259  12.055
29644W        W96427  41.341  34.164  14.472
29645W        W96428  20.662  25.101  14.166
29646W        W96429  33.395  12.307   0.778
29647W        W96430  23.961  30.701   2.680
29648W        W96431  37.085  15.153  10.849
29649W        W96432  23.016  15.617  13.690
29650W        W96433   0.883  43.207  10.992
29651W        W96434  17.828  18.601  11.069
29652W        W96435  36.278   2.958   1.197
29653W        W96436  35.090  41.806   4.936
29654W        W96437  41.324  10.187   2.134
29655W        W96438   1.099  12.703  11.034
29656W        W96439   0.022   8.507   1.687
29657W        W96440   3.966  18.121   0.931
29658W        W96441   7.291  29.745   1.870
29659W        W96442  28.164  14.552  13.076
29660W        W96443  28.013  21.104   4.050
29661W        W96444  15.287  32.944  12.233
29662W        W96445  10.115  37.019  12.419
29663W        W96446  22.500  35.811  10.308
29664W        W96447  43.263   4.210  13.869
29665W        W96448   1.247  28.638   0.217
29666W        W96449  38.414   4.500  13.387
29667W        W96450  34.293   9.176  11.700
29668W        W96451  42.337  14.777   2.715
29669W        W96452  41.369  25.591   1.420
29670W        W96453  30.504  44.317  12.311
29671W        W96454  17.739  13.773  11.546
29672W        W96455   1.440  37.709   2.892
29673W        W96456  22.073  38.527  11.191
29674W        W96457  32.082  16.865   0.673
29675W        W96458  44.754   0.804  14.474
29676W        W96459   1.048  33.045   1.815
29677W        W96460   5.221  14.238   3.852
29678W        W96461  40.668  10.558   4.153
29679W        W96462  33.407   6.823  14.433
29680W        W96463  23.710  25.947  12.994
29681W        W96464  16.250  40.470   1.901
29682W        W96465  28.223  37.351  12.044
29683W        W96466  12.783  19.130   2.763
29684W        W96467  32.076  29.056   2.389
29685W        W96468  16.366  41.573   0.890
29686W        W96469  15.642  43.415   1.022
29687W        W96470   8.648  14.375  11.672
29688W        W96471  44.717  20.511   2.838
29689W        W96472   3.206   4.923   3.251
29690W        W96473  25.138   7.698   4.993
29691W        W96474   6.893  41.291  10.858
29692W        W96475   3.810  11.131  11.527
29693W        W96476  21.505  19.740  13.152
29694W        W96477  44.118   7.082  10.883
29695W        W96478  17.806   8.587   2.369
29696W        W96479  14.157  38.095  13.815
29697W        W96480  43.474  40.814   0.828
29698W        W96481  20.032   1.742   0.014
29699W        W96482   6.983   8.390   3.779
29700W        W96483  42.861  24.905  14.437
29701W        W96484  26.878  31.541   2.812
29702W        W96485  33.954  12.237   3.610
29703W        W96486  41.707  39.599  12.490
29704W        W96487  39.889  33.582  14.281
29705W        W96488  43.120  19.317   0.993
29706W        W96489   8.095  15.752   1.738
29707W        W96490  42.798  15.796   2.657
29708W        W96491  21.756  41.050  11.123
29709W        W96492  28.481  32.986  11.827
29710W        W96493  29.863  39.191  13.083
29711W        W96494  10.670   8.361  13.584
29712W        W96495  29.523  33.873  12.463
29713W        W96496  34.675  43.748  14.782
29714W        W96497   5.724  29.035   3.161
29715W        W96498   2.890  18.611   1.982
29716W        W96499  34.500   0.954  10.789
29717W        W96500  16.274  43.380  14.758
29718W        W96501  15.529  28.931   3.704
29719W        W96502  22.587  25.712  11.875
29720W        W96503   1.847  20.695   1.204
29721W        W96504   7.114  27.118   0.875
29722W        W96505  39.703  12.667  13.761
29723W        W96506   4.942   9.386  11.525
29724W        W96507  35.822   6.179  12.452
29725W        W96508  13.848   0.901   3.194
29726W        W96509  22.273  12.184  13.038
29727W        W96510  21.812  24.216  14.279
29728W        W96511  44.892  12.882   4.129
29729W        W96512  12.894  20.934  11.936
29730W        W96513  13.312  40.292   1.749
29731W        W96514  18.595  41.434  12.164
29732W        W96515  39.552   6.725   0.777
29733W        W96516  11.258  26.205  12.800
29734W        W96517  20.288  44.332  12.259
29735W        W96518   4.986   9.424  14.989
29736W        W96519  27.265  34.969  12.590
29737W        W96520  17.565  10.273  10.623
29738W        W96521  38.236  30.874   2.388
29739W        W96522  37.989  12.911  14.545
29740W        W96523  17.399  14.785  11.833
29741W        W96524  39.232  33.167  14.924
29742W        W96525  38.859  36.455   1.420
29743W        W96526  21.791  12.320   1.205
29744W        W96527   1.449  30.132  13.425
29745W        W96528  43.302  42.377   0.667
29746W        W96529   3.543  20.111   3.270
29747W        W96530  40.463   1.586   3.304
29748W        W96531  15.599  13.827  11.567
29749W        W96532  35.219  28.460   0.905
29750W        W96533   5.326  22.586   1.570
29751W        W96534  33.559  16.762  13.152
29752W        W96535  37.811  28.237   4.097
29753W        W96536  23.146  20.234  12.442
29754W        W96537   3.809  40.002  14.354
29755W        W96538   3.914  30.154   0.398
29756W        W96539  44.979  27.449  14.635
29757W        W96540  39.601  34.504   0.351
29758W        W96541  40.128  17.421   0.148
29759W        W96542  15.742  26.286   3.363
29760W        W96543   8.784   2.480   0.901
29761W        W96544  12.188  28.641  14.437
29762W        W96545   7.316  26.225   2.248
29763W        W96546  27.777   3.815   0.461
29764W        W96547  21.837  14.194  13.952
29765W        W96548  10.451  40.315   0.741
29766W        W96549  23.955  42.915  13.287
29767W        W96550  17.266   1.886   1.326
29768W        W96551  30.167   7.406  13.876
29769W        W96552  28.068   4.892  10.248
29770W        W96553  28.886  15.836   3.384
29771W        W96554  32.121  35.789   2.693
29772W        W96555  18.987  32.459  11.587
29773W        W96556  32.645  28.717   4.555
29774W        W96557  34.062  10.455  13.151
29775W        W96558   0.579  13.522  14.148
29776W        W96559   2.452  15.675  12.445
29777W        W96560   4.362  31.065  11.154
29778W        W96561  15.567  38.803   3.953
29779W        W96562  38.874  21.558   2.192
29780W        W96563   6.298   3.413  13.302
29781W        W96564  27.194  10.566   3.222
29782W        W96565   4.576  15.172  12.063
29783W        W96566  31.865  44.763  14.771
29784W        W96567  30.551  32.733   5.020
29785W        W96568  18.494  41.827   1.368
29786W        W96569  30.368   3.672  13.381
29787W        W96570   6.972  23.578  10.522
29788W        W96571   0.362  26.023   4.557
29789W        W96572  44.758  39.576  11.899
29790W        W96573  31.862  23.182  11.694
29791W        W96574  36.550  30.692   1.495
29792W        W96575  31.684   6.812  12.928
29793W        W96576  16.081   0.521   4.505
29794W        W96577  28.558   0.592   4.913
29795W        W96578  21.567  25.347  10.569
29796W        W96579  37.143  25.283  14.564
29797W        W96580  28.392  24.254  12.895
29798W        W96581  21.716  23.572  12.281
29799W        W96582  31.044  26.896   3.225
29800W        W96583  11.797   5.642   0.880
29801W        W96584  36.429  44.335   9.988
29802W        W96585   4.994  29.942   0.808
29803W        W96586  18.044  32.926  12.918
29804W        W96587  17.052  42.380   0.959
29805W        W96588  32.654   5.443  12.816
29806W        W96589  20.559   6.786   4.783
29807W        W96590  19.134   6.625   0.037
29808W        W96591  37.084  33.463  13.841
29809W        W96592  11.382  23.644   4.838
29810W        W96593  27.555  26.127  13.509
29811W        W96594  24.384   1.899   1.781
29812W        W96595  14.728  17.998  14.440
29813W        W96596   3.743   1.776  11.114
29814W        W96597  14.750  20.587  12.904
29815W        W96598  36.876  36.289  13.099
29816W        W96599  10.083  37.330  10.565
29817W        W96600   3.817  39.869   5.020
29818W        W96601   6.300  30.182   3.882
29819W        W96602  10.423   7.025  13.019
29820W        W96603  19.214   2.420   0.513
29821W        W96604  39.135  38.728  13.738
29822W        W96605  15.707   8.149   3.163
29823W        W96606  12.429   1.610   2.874
29824W        W96607  38.730  36.480  14.082
29825W        W96608  34.535  26.469  12.587
29826W        W96609   2.751  10.188  10.264
29827W        W96610  11.351  33.160  14.985
29828W        W96611  10.561   1.446  13.805
29829W        W96612  12.153  42.372   3.554
29830W        W96613  43.175  37.303  11.983
29831W        W96614  40.005  40.655  11.791
29832W        W96615   3.371  31.818   2.361
29833W        W96616  20.348  32.352  13.427
29834W        W96617  18.038  21.799   3.653
29835W        W96618  12.713  25.123   0.380
29836W        W96619  42.335  27.375  11.050
29837W        W96620  19.596   1.586  11.137
29838W        W96621  15.579  27.274   2.349
29839W        W96622  11.038  40.561   3.482
29840W        W96623  11.925   8.277  11.677
29841W        W96624  27.290  24.390   4.527
29842W        W96625  14.580   6.205   0.297
29843W        W96626  35.073  10.971  10.272
29844W        W96627  40.554  16.762   2.803
29845W        W96628  23.103  42.947   1.358
29846W        W96629  16.375  18.726   0.962
29847W        W96630  26.095  34.840   0.014
29848W        W96631  34.807  12.153   2.153
29849W        W96632  39.997  26.714  12.055
29850W        W96633  33.127  10.926   0.341
29851W        W96634  11.299   4.697   2.636
29852W        W96635  27.769   8.274  14.985
29853W        W96636  10.255   9.170  13.845
29854W        W96637   4.233  10.449   0.252
29855W        W96638  12.611  39.961   4.032
29856W        W96639   4.512  31.975   1.708
29857W        W96640   7.205  10.309   2.780
29858W        W96641  22.497  41.112   2.827
29859W        W96642  29.067   2.821  10.981
29860W        W96643   0.221  34.362  11.090
29861W        W96644   0.298  36.729  11.996
29862W        W96645  33.344   3.723  11.930
29863W        W96646  31.193  24.966   4.644
29864W        W96647  22.178  28.561  12.424
29865W        W96648  21.479  21.565   1.439
29866W        W96649  33.975  19.833  12.156
29867W        W96650  35.616  27.155  11.070
29868W        W96651  21.000  33.064   1.673
29869W        W96652  21.530  25.167   1.886
29870W        W96653   1.287   4.916   4.325
29871W        W96654  40.562   1.455   0.347
29872W        W96655  33.365  14.279  12.154
29873W        W96656  28.067  17.339  13.452
29874W        W96657   4.100   7.770   2.847
29875W        W96658  38.405   2.405   4.766
29876W        W96659  13.170  44.011  12.065
29877W        W96660  25.232   9.951   3.699
29878W        W96661  36.906  16.231   2.659
29879W        W96662  13.798  39.742   0.319
29880W        W96663  33.626  15.367  12.670
29881W        W96664   7.852  11.360   0.323
29882W        W96665  38.575  44.314   3.749
29883W        W96666  39.090  33.636  11.823
29884W        W96667   9.157  40.381  10.747
29885W        W96668  38.762   2.251   3.304
29886W        W96669  43.314  26.992   1.994
29887W        W96670   0.838  30.772  14.540
29888W        W96671  18.259  26.203   0.476
29889W        W96672  30.572  40.329  11.164
29890W        W96673  34.526  13.296   2.965
29891W        W96674  36.588   9.105  11.608
29892W        W96675  25.545  26.521  12.040
29893W        W96676  40.826  18.535  13.324
29894W        W96677  17.184  34.000  13.435
29895W        W96678  35.604   3.761  14.150
29896W        W96679   6.517   9.821   5.008
29897W        W96680  25.604  34.663   3.210
29898W        W96681  23.989  14.127   4.632
29899W        W96682  32.280   0.033  13.022
29900W        W96683   4.033   7.817  12.844
29901W        W96684  37.042  13.289   2.727
29902W        W96685  32.492  29.548  14.767
29903W        W96686  36.313  17.317  10.680
29904W        W96687  30.654  28.512  12.760
29905W        W96688   8.894   9.086  11.817
29906W        W96689  40.300  25.894  14.328
29907W        W96690  24.312  23.771  13.473
29908W        W96691  11.941   5.044   3.352
29909W        W96692  24.454  35.524  11.188
29910W        W96693  22.204   6.693  14.484
29911W        W96694   8.533  29.024   1.218
29912W        W96695  22.716  19.473  12.552
29913W        W96696  40.371  20.066  13.979
29914W        W96697  41.407   4.175   2.303
29915W        W96698  26.997   6.796  12.526
29916W        W96699  31.065   4.867  13.001
29917W        W96700  13.970  37.901  12.068
29918W        W96701  27.606  25.129   2.848
29919W        W96702  30.649  20.247   0.498
29920W        W96703  43.058  23.102   3.170
29921W        W96704  13.670  15.568   3.997
29922W        W96705   6.330  11.624  12.082
29923W        W96706  33.612  28.435   4.484
29924W        W96707  10.371  21.554  12.977
29925W        W96708  35.835  14.730  13.763
29926W        W96709  18.452   0.443   3.632
29927W        W96710  27.491   6.897  12.511
29928W        W96711  34.558  31.990   5.205
29929W        W96712  29.979   6.444  12.167
29930W        W96713  15.670   4.649   0.372
29931W        W96714  32.624  35.910  12.942
29932W        W96715  13.497   5.375   0.250
29933W        W96716  25.371  44.217  11.003
29934W        W96717  25.615  30.441   3.649
29935W        W96718  19.257  39.890   0.708
29936W        W96719   8.328  43.846  13.904
29937W        W96720   0.955  24.499  10.959
29938W        W96721  37.490  30.414  14.940
29939W        W96722   2.943  41.471  14.598
29940W        W96723   5.855  15.801   3.840
29941W        W96724  35.479  28.210  10.674
29942W        W96725  25.246  19.046   1.217
29943W        W96726  40.917  34.226   1.181
29944W        W96727  20.719  19.457  14.798
29945W        W96728  44.470  13.642  13.435
29946W        W96729   5.741  37.450   4.199
29947W        W96730  22.102  29.851  12.951
29948W        W96731  19.864   2.714  10.679
29949W        W96732   1.442   9.719  14.876
29950W        W96733  16.345   2.892  11.442
29951W        W96734   4.743  11.611   0.514
29952W        W96735  43.324  13.127  12.488
29953W        W96736  34.006  21.782   0.886
29954W        W96737  33.483  38.492   0.488
29955W        W96738  18.299  20.132   4.328
29956W        W96739  21.146  22.971  14.368
29957W        W96740  28.724  15.766  11.908
29958W        W96741  26.769   0.780  14.874
29959W        W96742  37.544  26.944   4.140
29960W        W96743  35.353  21.812   1.796
29961W        W96744  39.101  18.415   1.489
29962W        W96745   0.263  34.299  12.320
29963W        W96746  36.139  16.206  13.877
29964W        W96747  17.507  16.095  13.024
29965W        W96748  42.629  28.007   5.139
29966W        W96749  43.777  14.187  12.172
29967W        W96750  29.198   4.702   2.273
29968W        W96751  28.241  19.302  12.630
29969W        W96752   9.131  17.989   3.455
29970W        W96753  30.369  42.400   2.225
29971W        W96754  27.386  29.472   1.368
29972W        W96755  11.618  42.289  12.932
29973W        W96756   5.707  26.665  14.910
29974W        W96757  16.945  26.416  11.488
29975W        W96758  26.567   5.910   1.866
29976W        W96759   0.296  21.835   1.773
29977W        W96760  29.610  22.307  11.552
29978W        W96761   6.865  24.295   4.582
29979W        W96762  37.915  13.577  13.830
29980W        W96763  18.589   4.811   1.753
29981W        W96764  42.770   7.887  14.392
29982W        W96765  22.531  38.142   4.622
29983W        W96766  11.669  16.143  10.527
29984W        W96767  37.320  32.744   3.227
29985W        W96768  13.851  19.106  13.368
29986W        W96769  17.104  23.497   0.799
29987W        W96770  18.223   3.462   2.341
29988W        W96771  31.544  11.644   2.325
29989W        W96772   3.285  16.573  12.101
29990W        W96773  21.506  38.768  12.024
29991W        W96774   6.861  26.390   2.834
29992W        W96775   1.764  26.218  13.445
29993W        W96776   5.476   3.057   1.691
29994W        W96777   1.984  29.515  10.833
29995W        W96778  20.079  16.636   1.967
29996W        W96779   4.856  44.066  14.984
29997W        W96780   7.180  19.160  14.342
29998W        W96781   5.206  12.257   2.727
29999W        W96782  29.881  27.202  12.209
30000W        W96783  24.147   5.239  14.400
30001W        W96784   1.523  34.932   3.740
30002W        W96785   9.419  13.591  13.933
30003W        W96786  43.455  41.638   4.308
30004W        W96787  34.365  18.588   0.685
30005W        W96788  26.103   1.609   4.454
30006W        W96789  31.949  12.628   1.713
30007W        W96790  14.618  13.016   2.468
30008W        W96791   9.073  16.806  12.445
30009W        W96792  42.009  28.407  10.051
30010W        W96793  42.074   2.866   0.222
30011W        W96794  27.627  42.974   0.266
30012W        W96795  11.497  32.935  11.481
30013W        W96796  16.296   5.323   1.723
30014W        W96797  44.384  20.205   3.901
30015W        W96798   5.646  13.362   3.518
30016W        W96799  15.045  11.177  13.033
30017W        W96800  15.483  32.884   2.502
30018W        W96801   2.659  39.567   3.629
30019W        W96802  42.347   9.736  11.458
30020W        W96803  28.924  12.660  13.719
30021W        W96804  35.016  36.289  13.209
30022W        W96805  11.692  29.756   1.913
30023W        W96806  21.260   7.142  10.460
30024W        W96807  44.257  31.032   0.573
30025W        W96808  14.571  20.292   4.180
30026W        W96809   4.546   7.835  12.913
30027W        W96810   0.499  30.327   0.397
30028W        W96811  14.098  17.196   1.938
30029W        W96812   6.006  11.898  13.280
30030W        W96813  17.068   1.177  14.872
30031W        W96814  11.037   3.758   3.206
30032W        W96815  30.712  44.006  13.813
30033W        W96816   8.696   3.845   2.780
30034W        W96817  11.666  12.708  11.420
30035W        W96818  21.829  12.529  14.531
30036W        W96819  21.421  36.575   3.153
30037W        W96820  21.670  37.412   9.963
30038W        W96821   0.977  15.787  11.503
30039W        W96822  17.117  38.117   0.634
30040W        W96823  22.096  19.237   3.365
30041W        W96824   6.281  25.676  14.816
30042W        W96825  21.965  30.979   4.042
30043W        W96826  24.416  18.832  13.184
30044W        W96827  27.525  29.158   4.587
30045W        W96828  20.121  38.248  13.009
30046W        W96829  39.408  33.121   4.604
30047W        W96830  27.318   4.939   4.130
30048W        W96831  28.076  22.256  11.539
30049W        W96832  24.728  28.749   4.332
30050W        W96833  20.109  12.376   1.079
30051W        W96834   9.656   9.286   4.224
30052W        W96835  40.398   9.157   0.844
30053W        W96836  33.085  20.286   0.310
30054W        W96837  40.018  19.696  14.109
30055W        W96838  22.959  23.090  11.056
30056W        W96839  14.246   5.161  13.477
30057W        W96840  42.425  32.012  14.809
30058W        W96841  22.516  26.994  12.581
30059W        W96842  13.322  25.673   2.032
30060W        W96843  14.637  40.388  12.401
30061W        W96844  26.316   3.626   1.921
30062W        W96845  14.849  10.224   4.347
30063W        W96846  31.464  18.993  13.963
30064W        W96847  11.380  31.009   0.318
30065W        W96848   1.838  23.784  13.346
30066W        W96849   5.474   4.306  11.961
30067W        W96850  29.069   3.390  11.183
30068W        W96851  23.982   2.705   1.380
30069W        W96852  34.014  12.275  12.093
30070W        W96853  36.944   0.273  12.383
30071W        W96854  28.445  40.948  12.301
30072W        W96855  19.352  42.797   2.223
30073W        W96856  39.862  35.438  13.774
30074W        W96857  28.986   0.779  12.228
30075W        W96858   0.406  33.144  14.511
30076W        W96859  25.446   1.860   1.791
30077W        W96860  32.114  30.075  14.130
30078W        W96861  25.490  28.030  14.459
30079W        W96862  43.026  11.831  11.210
30080W        W96863  39.529  24.728  12.077
30081W        W96864  44.877  15.767  14.843
30082W        W96865  16.046  22.637  14.363
30083W        W96866  12.084  24.520  12.017
30084W        W96867  11.101  42.252  12.965
30085W        W96868  30.539  21.230   4.966
30086W        W96869  18.426  28.043  10.595
30087W        W96870   4.166  35.837   0.314
30088W        W96871   2.245  33.372  12.915
30089W        W96872   9.810  44.346   3.625
30090W        W96873   0.931  37.119   1.348
30091W        W96874  41.342  43.946   3.323
30092W        W96875  25.246  22.783  13.736
30093W        W96876  26.188  30.134  12.013
30094W        W96877   0.386   2.544  13.538
30095W        W96878  20.198  34.870   0.911
30096W        W96879  12.808  17.373  14.567
30097W        W96880  23.796   8.739   4.036
30098W        W96881   9.717  11.080  13.837
30099W        W96882  41.325  33.890  13.639
30100W        W96883   3.428  29.234  12.823
30101W        W96884  27.066   1.508   4.024
30102W        W96885   1.582  14.762  13.876
30103W        W96886  43.678  12.206  12.119
30104W        W96887   8.289  40.949   4.437
30105W        W96888  40.973  19.562  14.882
30106W        W96889   4.737   9.411   4.084
30107W        W96890   6.667  41.735  10.650
30108W        W96891   4.530  19.404   1.199
30109W        W96892  42.154  20.944  13.790
30110W        W96893  10.532  31.582  11.956
30111W        W96894  12.122  33.441  11.916
30112W        W96895  38.114  30.933   0.658
30113W        W96896  12.112  44.898   2.108
30114W        W96897  34.235  36.087   3.306
30115W        W96898   1.065  24.482  13.459
30116W        W96899  21.810  42.166  13.004
30117W        W96900  19.860  39.469   3.697
30118W        W96901  27.870  33.877   2.876
30119W        W96902  32.919  28.476   1.793
30120W        W96903   3.783  29.095  12.035
30121W        W96904  15.132  36.634   1.195
30122W        W96905   5.036  13.051  10.759
30123W        W96906  25.538  35.753   2.510
30124W        W96907  23.502  24.708   5.376
30125W        W96908  12.435  13.767  11.445
30126W        W96909  10.654  24.766   0.331
30127W        W96910   7.007  18.530   2.610
30128W        W96911  22.509  44.788  14.567
30129W        W96912  18.719  32.470   0.509
30130W        W96913  43.690  11.763  13.386
30131W        W96914  19.090   1.054   2.339
30132W        W96915  21.577   6.196  11.100
30133W        W96916  40.066  24.718  10.766
30134W        W96917  27.046  26.356  12.607
30135W        W96918  25.715  41.905  12.962
30136W        W96919   0.677   3.955  14.947
30137W        W96920  22.217  17.773   2.281
30138W        W96921  32.077  21.970   2.352
30139W        W96922  16.140  28.874   4.743
30140W        W96923  25.787  18.258  12.270
30141W        W96924   3.412  14.076   0.648
30142W        W96925  17.110  13.581  12.451
30143W        W96926  30.546  41.777   4.327
30144W        W96927   8.803  32.894  12.658
30145W        W96928  36.633   6.357   1.924
30146W        W96929  23.029  18.640  11.053
30147W        W96930  12.851   9.612  13.011
30148W        W96931  14.348  16.584   2.740
30149W        W96932  30.195  42.503  12.131
30150W        W96933  31.029  12.303   4.740
30151W        W96934   4.875  24.732  12.833
30152W        W96935  28.670   5.703   3.761
30153W        W96936  15.883  39.820  10.947
30154W        W96937  38.494  23.043  11.664
30155W        W96938   5.177  38.381   1.505
30156W        W96939   3.773  24.774  13.567
30157W        W96940  42.743  37.406   4.573
30158W        W96941  42.313   2.215   0.786
30159W        W96942   2.004   1.349  11.267
30160W        W96943  20.358  21.790  11.833
30161W        W96944  42.638  21.143  13.863
30162W        W96945  40.066  28.573   4.536
30163W        W96946  13.559  19.584   4.428
30164W        W96947  21.303   0.293  13.766
30165W        W96948   8.914  15.182  11.494
30166W        W96949  10.635   8.128   2.820
30167W        W96950  18.295   7.614   4.135
30168W        W96951  10.897   9.714   2.589
30169W        W96952   1.839   4.365   1.998
30170W        W96953   2.372   7.739   4.872
30171W        W96954  16.533   1.857   3.266
30172W        W96955  28.069  37.941   1.345
30173W        W96956  32.223   6.893  11.241
30174W        W96957  20.851  33.371   0.448
30175W        W96958  21.575  26.265   2.697
30176W        W96959   2.385  36.670   4.610
30177W        W96960  14.373  24.601   2.377
30178W        W96961  35.965  37.243   4.708
30179W        W96962  40.576  11.766  12.544
30180W        W96963  16.142   3.440  14.308
30181W        W96964   0.502  43.820  14.749
30182W        W96965  38.850  17.155   1.730
30183W        W96966  14.859  44.099   3.624
30184W        W96967  11.402  44.249   0.335
30185W        W96968  29.656  29.510   1.940
30186W        W96969   3.491  43.827  12.411
30187W        W96970   2.342  27.266   2.395
30188W        W96971   5.577   8.422  13.706
30189W        W96972   4.094  15.318   2.784
30190W        W96973  41.431  29.593   0.827
30191W        W96974   9.291  38.492   0.993
30192W        W96975   1.231  18.278  11.621
30193W        W96976  32.569  18.849  13.559
30194W        W96977  27.154   0.381  12.886
30195W        W96978   9.973   0.456  12.737
30196W        W96979   1.145  32.757   4.191
30197W        W96980  27.978  22.990   3.569
30198W        W96981  32.794   0.479  14.465
30199W        W96982  26.784  19.252   3.851
30200W        W96983  17.765  43.878  11.959
30201W        W96984   5.398  39.868  10.734
30202W        W96985  40.128  17.655  13.809
30203W        W96986   0.904  19.276   1.729
30204W        W96987  27.762  30.917  14.038
30205W        W96988  23.116  37.767  13.329
30206W        W96989  26.112  30.398  12.456
30207W        W96990  34.034  23.893  11.471
30208W        W96991  42.010  10.560  12.930
30209W        W96992  31.585   5.818  12.465
30210W        W96993  26.461  15.739  13.873
30211W        W96994  44.772   3.584   0.465
30212W        W96995  23.717  41.910   3.157
30213W        W96996  41.794  10.831   1.800
30214W        W96997   0.779  17.950  12.417
30215W        W96998  16.461  32.566  14.274
30216W        W96999  29.379   7.279  11.124
30217W        W97000  11.607  11.378  11.049
30218W        W97001  23.382  13.383   2.430
30219W        W97002   0.257  25.438  10.650
30220W        W97003  22.869  18.307   2.636
30221W        W97004   1.269  33.423   3.398
30222W        W97005  15.744  39.984   3.472
30223W        W97006  28.994   2.139   1.953
30224W        W97007  14.115  20.087   2.422
30225W        W97008  39.789  11.711  12.130
30226W        W97009  18.659  34.382  11.618
30227W        W97010  36.560  10.228   2.141
30228W        W97011  27.696  27.184   1.471
30229W        W97012   6.200  22.628  13.624
30230W        W97013  14.207  35.810  10.707
30231W        W97014  34.964   3.198  10.734
30232W        W97015  25.938  11.724  11.156
30233W        W97016   3.916  35.978  10.875
30234W        W97017  35.495  43.857   3.444
30235W        W97018  31.852  23.991   3.211
30236W        W97019  43.895  18.607   0.115
30237W        W97020   0.832  43.945  12.136
30238W        W97021  43.834   4.679   3.042
30239W        W97022  13.621  14.814  11.908
30240W        W97023  23.498  44.495   0.494
30241W        W97024  34.175  37.892  14.013
30242W        W97025   3.778   7.457  13.126
30243W        W97026  16.482   1.456  14.756
30244W        W97027  42.458  38.832  10.778
30245W        W97028  27.184  41.330   2.180
30246W        W97029  35.908   2.350   1.324
30247W        W97030   3.592  17.902  13.148
30248W        W97031  20.098  12.256  11.183
30249W        W97032  14.509  43.293  14.470
30250W        W97033   5.828  26.707   2.874
30251W        W97034   3.708   2.215  14.260
30252W        W97035  29.077  14.047   2.071
30253W        W97036  32.542  15.839  13.248
30254W        W97037  14.151  22.995   0.126
30255W        W97038   9.786  42.741   1.765
30256W        W97039  28.967  10.205  13.778
30257W        W97040  14.186  29.154  11.185
30258W        W97041  28.015  16.579   2.125
30259W        W97042   5.734   0.050  13.897
30260W        W97043   9.872  34.929   2.489
30261W        W97044   6.460  13.118   1.201
30262W        W97045   6.846  36.502   4.132
30263W        W97046  39.704  33.964  10.727
30264W        W97047  14.776  22.964   1.237
30265W        W97048   1.991  20.432   0.750
30266W        W97049  18.757  10.865  13.769
30267W        W97050  24.177  39.096  11.417
30268W        W97051  40.554  31.819  14.436
30269W        W97052   2.695   2.988   3.111
30270W        W97053  28.057  33.563   1.634
30271W        W97054   9.275  34.077  11.125
30272W        W97055  30.930  18.653  11.203
30273W        W97056  11.817   5.427   0.386
30274W        W97057  12.710   5.202   4.096
30275W        W97058  38.438  18.685   3.865
30276W        W97059  11.675   8.706   0.284
30277W        W97060   3.378  40.784   4.070
30278W        W97061  42.197  43.722  12.483
30279W        W97062  35.297   0.942   0.270
30280W        W97063  42.079  25.714   2.420
30281W        W97064  13.328  44.309   0.062
30282W        W97065   1.273   8.795  13.852
30283W        W97066  34.086   6.316   0.457
30284W        W97067  28.917  38.115   0.786
30285W        W97068  10.857  34.022   1.806
30286W        W97069   1.277  39.578  12.052
30287W        W97070  20.748   2.240   2.334
30288W        W97071  17.615  30.995  11.256
30289W        W97072  25.436  22.165   2.650
30290W        W97073   4.341  30.197   1.843
30291W        W97074  19.567   8.861   1.725
30292W        W97075   8.398  15.136  13.107
30293W        W97076  23.932  40.731   1.879
30294W        W97077   9.176  19.134   0.717
30295W        W97078   6.417  43.329   0.335
30296W        W97079   8.287   6.344  14.494
30297W        W97080  35.907   3.377   4.045
30298W        W97081   5.181  24.721  13.420
30299W        W97082  26.786  25.444  13.604
30300W        W97083   8.237  36.240   2.277
30301W        W97084  28.145  21.107   3.006
30302W        W97085  14.306  25.898  14.311
30303W        W97086  24.096   4.166   1.436
30304W        W97087  28.112  35.028  14.202
30305W        W97088  42.537  25.289   2.574
30306W        W97089  14.051  36.392   2.092
30307W        W97090  18.442  28.490  13.169
30308W        W97091  44.455  41.010  10.421
30309W        W97092  28.209  41.428  13.350
30310W        W97093   0.981  20.746  13.081
30311W        W97094   2.094  35.753   2.153
30312W        W97095  29.477  35.801   1.385
30313W        W97096   6.233  32.756  11.657
30314W        W97097   1.206   4.644  12.838
30315W        W97098  10.896  11.796   4.616
30316W        W97099  22.516  24.137   3.068
30317W        W97100  23.513  23.989  11.015
30318W        W97101  40.681  14.387   3.984
30319W        W97102  42.814  27.571  11.146
30320W        W97103  29.544   3.305   1.414
30321W        W97104  27.891   9.474  11.192
30322W        W97105  20.687  38.960   3.380
30323W        W97106  44.543   4.845  11.079
30324W        W97107  17.991   4.294  11.521
30325W        W97108  32.985   0.755  14.920
30326W        W97109  12.183  26.986   1.104
30327W        W97110   5.293  17.867  10.481
30328W        W97111  30.933  39.048  14.518
30329W        W97112   0.050  25.848   1.263
30330W        W97113  42.931  16.807   1.864
30331W        W97114  26.650   6.432   5.028
30332W        W97115  34.003  26.588   2.771
30333W        W97116   2.457  27.270  12.798
30334W        W97117   0.332   7.744   1.649
30335W        W97118  33.804  38.435  10.512
30336W        W97119   9.844  16.643  11.419
30337W        W97120   2.987  18.290   0.309
30338W        W97121   1.902  13.084   1.889
30339W        W97122  41.779  16.953  13.165
30340W        W97123  19.952  17.112   2.196
30341W        W97124  10.750   7.396   1.514
30342W        W97125  16.164  24.180  12.515
30343W        W97126  40.930  35.384  11.156
30344W        W97127  23.527   0.555   0.975
30345W        W97128  40.786  22.670   3.165
30346W        W97129  35.673  22.726   2.591
30347W        W97130  27.988  38.475   0.486
30348W        W97131   0.972  15.497  10.105
30349W        W97132  44.444  23.165   4.079
30350W        W97133   5.839   0.291  13.456
30351W        W97134  38.002  28.099   3.646
30352W        W97135  23.046  28.467  11.057
30353W        W97136  20.686  27.676   3.384
30354W        W97137  44.722  10.306  14.430
30355W        W97138  21.486   8.078   2.865
30356W        W97139  37.163  43.961  12.055
30357W        W97140   8.960  22.869   5.091
30358W        W97141  23.974  36.834  13.406
30359W        W97142  20.094  11.246   3.844
30360W        W97143  17.842   7.167  14.478
30361W        W97144  19.507   4.445   4.603
30362W        W97145  11.529  32.004   5.191
30363W        W97146  35.461  20.800   2.670
30364W        W97147  42.583  38.408  11.066
30365W        W97148   1.235   7.371  11.666
30366W        W97149  34.866  29.354   4.603
30367W        W97150  15.535  21.981   0.411
30368W        W97151  17.654  25.086   0.905
30369W        W97152  32.456  29.719   1.346
30370W        W97153  24.676  43.156   2.937
30371W        W97154   5.747  42.617   2.349
30372W        W97155  40.301  25.503   0.328
30373W        W97156   8.168  31.526  13.829
30374W        W97157   5.334  43.025  11.120
30375W        W97158   5.651  29.544  11.129
30376W        W97159  19.822  13.133   2.234
30377W        W97160   6.649  35.021  10.886
30378W        W97161  34.116  35.627  14.874
30379W        W97162  25.687   8.252  13.060
30380W        W97163  12.517  32.679   4.123
30381W        W97164  38.381  10.308  10.649
30382W        W97165  36.733   3.904   3.288
30383W        W97166   7.716   9.295  10.271
30384W        W97167   0.908  43.730   3.666
30385W        W97168   3.642   6.359   5.134
30386W        W97169  42.729  21.316  11.920
30387W        W97170  12.652  10.267   3.677
30388W        W97171  13.202  23.137   0.185
30389W        W97172  44.237  32.669  11.214
30390W        W97173  14.070  37.474   0.873
30391W        W97174   5.300  18.378   0.515
30392W        W97175  37.865  21.501   4.161
30393W        W97176  38.862  11.251   3.532
30394W        W97177  39.556  40.961   1.784
30395W        W97178  19.313  29.594  13.405
30396W        W97179  42.555  18.638   1.181
30397W        W97180  18.172  42.924  14.880
30398W        W97181  31.766  19.054   3.866
30399W        W97182  26.100  35.602  14.999
30400W        W97183  23.591  31.737  11.949
30401W        W97184  43.350  39.079   2.251
30402W        W97185  20.800   4.627   2.428
30403W        W97186  16.129   2.887   4.270
30404W        W97187  42.899  24.181   5.148
30405W        W97188   9.878  41.335   4.310
30406W        W97189   0.353   4.810  14.934
30407W        W97190  13.368  13.058   2.031
30408W        W97191  22.322  13.592   4.674
30409W        W97192   5.777  37.628   2.134
30410W        W97193  44.092   1.970   2.951
30411W        W97194  14.726  18.210  10.824
30412W        W97195  15.740  12.264   2.176
30413W        W97196  36.023  29.931  14.834
30414W        W97197  13.500   8.143   4.104
30415W        W97198  42.058  42.427   0.612
30416W        W97199  20.184  26.242  14.071
30417W        W97200  19.390  36.069  12.073
30418W        W97201  10.956  23.452  12.850
30419W        W97202  29.465  35.704   2.755
30420W        W97203   4.342  20.142   3.672
30421W        W97204  19.589   5.140  10.711
30422W        W97205   0.403  44.168  12.014
30423W        W97206  10.567  31.531  10.666
30424W        W97207  40.184  20.064  13.494
30425W        W97208   6.960  15.781   0.210
30426W        W97209   1.486  37.068   1.250
30427W        W97210  44.182  10.896   1.329
30428W        W97211  24.658   1.084   4.157
30429W        W97212  32.966  11.236  14.804
30430W        W97213   1.412  19.533  10.467
30431W        W97214  27.813  15.343  11.481
30432W        W97215  44.019  11.704   2.877
30433W        W97216  42.792   2.671   1.458
30434W        W97217  19.972   9.732   3.845
30435W        W97218  26.235  28.112   0.603
30436W        W97219  13.871   6.383  11.693
30437W        W97220  41.540  39.612   1.395
30438W        W97221  24.551  37.637  14.343
30439W        W97222   8.001  44.172  14.221
30440W        W97223   0.914   0.873  14.819
30441W        W97224  21.400  35.816   9.818
30442W        W97225  16.145  11.275   3.514
30443W        W97226  26.002  20.019   2.394
30444W        W97227  27.972  12.718  11.560
30445W        W97228  25.597   0.878   0.914
30446W        W97229  16.830  24.276   1.278
30447W        W97230  24.471  31.469  14.976
30448W        W97231   2.209  21.632  13.366
30449W        W97232  36.160  11.675  11.764
30450W        W97233  39.308  17.095  14.911
30451W        W97234  17.617   8.796   0.031
30452W        W97235  37.593  23.573  14.819
30453W        W97236  40.408  34.917   0.321
30454W        W97237  12.468  26.529   0.273
30455W        W97238  41.822  36.360   0.377
30456W        W97239  25.211  13.752   0.005
30457W        W97240  19.656   6.348   3.336
30458W        W97241  36.054   8.207   4.063
30459W        W97242  22.199  36.370   3.585
30460W        W97243   7.637   8.934  14.504
30461W        W97244  20.925  11.239   2.257
30462W        W97245   9.750   0.398   2.903
30463W        W97246  18.131   9.185   3.280
30464W        W97247  32.428  30.350  10.617
30465W        W97248  32.132  20.006   3.734
30466W        W97249  37.858  18.030  14.863
30467W        W97250   3.275  42.943  10.704
30468W        W97251  37.397  34.745   3.566
30469W        W97252  29.892   5.869  13.992
30470W        W97253  31.553   5.641  14.283
30471W        W97254   4.643  28.798  13.014
30472W        W97255  23.501   4.122  13.919
30473W        W97256  36.009  18.196  10.758
30474W        W97257  22.489  25.557   0.348
30475W        W97258  27.019  39.126  14.379
30476W        W97259  19.690  26.668   3.367
30477W        W97260  39.319  26.156   2.126
30478W        W97261  40.052  42.034  13.064
30479W        W97262  42.894  32.130   9.912
30480W        W97263  35.126  34.478   4.381
30481W        W97264  22.113  41.859  11.957
30482W        W97265  16.645  15.094   2.060
30483W        W97266  28.257  30.156  13.919
30484W        W97267  31.934   6.969  10.787
30485W        W97268   8.188  21.701   2.872
30486W        W97269  10.848  41.651   3.830
30487W        W97270   2.932  17.685   3.881
30488W        W97271  22.119  41.736  11.449
30489W        W97272  21.806   2.012   1.372
30490W        W97273  41.905  19.513   0.150
30491W        W97274  24.727  12.620   1.190
30492W        W97275  33.870   4.926  14.493
30493W        W97276  42.515  24.618  14.131
30494W        W97277   0.949  27.745  13.934
30495W        W97278  44.752   4.336  13.909
30496W        W97279  18.704  27.892  11.623
30497W        W97280  16.262  43.224   3.749
30498W        W97281  24.758  34.568   2.113
30499W        W97282  14.586  33.581   3.618
30500W        W97283  11.173  18.207   1.517
30501W        W97284  34.792  30.092  14.383
30502W        W97285  28.091   0.405   1.799
30503W        W97286  33.531   4.657   1.204
30504W        W97287  19.578  26.583   1.953
30505W        W97288  18.769   7.222  14.339
30506W        W97289  37.864  18.100   2.535
30507W        W97290  14.332  36.812  10.978
30508W        W97291   5.684  34.195   1.337
30509W        W97292  31.159  44.941   0.350
30510W        W97293  31.122   5.157   2.884
30511W        W97294   9.063   9.711   3.214
30512W        W97295  19.992  16.090   0.354
30513W        W97296  29.567  35.849  14.106
30514W        W97297  37.122  15.060  12.468
30515W        W97298  37.889  36.067  12.517
30516W        W97299  33.565  25.098   1.469
30517W        W97300  36.562  32.199   0.645
30518W        W97301  24.167   4.926  14.807
30519W        W97302  32.051  37.803   4.719
30520W        W97303  32.600  29.630  12.446
30521W        W97304  23.529   7.363   2.800
30522W        W97305  13.702  33.904  12.113
30523W        W97306  43.216  23.017  14.253
30524W        W97307   8.927  40.067  10.395
30525W        W97308   7.716  40.277  10.650
30526W        W97309  17.036  25.481   3.294
30527W        W97310  38.952   0.521  11.615
30528W        W97311   7.310  37.133   1.263
30529W        W97312  37.101  21.147  12.216
30530W        W97313  20.179  18.101  10.707
30531W        W97314  24.575  26.585   4.175
30532W        W97315  30.121  30.007   1.765
30533W        W97316  18.713  41.358   0.765
30534W        W97317   3.419  18.547   3.679
30535W        W97318  34.121   8.652  11.506
30536W        W97319   7.448   4.818   2.178
30537W        W97320  24.952  25.201   2.804
30538W        W97321   9.394  38.012  12.253
30539W        W97322  10.911  19.746   3.123
30540W        W97323  14.950  19.770   0.984
30541W        W97324  42.765   2.923   1.936
30542W        W97325  13.208   6.686  10.695
30543W        W97326  28.456   2.228  12.683
30544W        W97327  36.653   2.398   4.585
30545W        W97328   4.319  12.256  11.384
30546W        W97329  38.737  11.778  13.881
30547W        W97330   8.846   1.037  12.899
30548W        W97331  27.631  23.602  11.905
30549W        W97332  16.674  12.923  14.319
30550W        W97333  13.283  44.630   2.297
30551W        W97334  20.045  40.358  11.297
30552W        W97335  17.682  32.865  10.603
30553W        W97336  20.200  10.709   2.407
30554W        W97337  20.912  26.664  13.495
30555W        W97338  19.030  40.827   3.667
30556W        W97339  12.588  14.131   3.705
30557W        W97340  20.812  31.390  12.977
30558W        W97341  40.349   2.257   2.309
30559W        W97342  19.831  32.840  11.951
30560W        W97343  20.228  25.023  11.441
30561W        W97344  36.502  21.075   4.562
30562W        W97345  44.728  41.848  13.127
30563W        W97346  31.510  41.896   3.815
30564W        W97347  22.199  14.328   3.375
30565W        W97348  10.955  31.203  13.936
30566W        W97349   5.431  19.512  13.967
30567W        W97350  17.658  32.144  13.310
30568W        W97351  36.535  17.747   2.804
30569W        W97352  33.030  17.551  11.792
30570W        W97353  15.752  28.752  13.569
30571W        W97354  18.059  14.741  13.531
30572W        W97355   2.543  23.996   2.793
30573W        W97356  23.263  25.444  12.502
30574W        W97357  16.207  39.884   3.712
30575W        W97358  23.992   0.907  12.172
30576W        W97359  18.344  28.698   1.527
30577W        W97360  29.118  40.511   2.803
30578W        W97361  34.957  31.751   4.964
30579W        W97362  14.749  30.579  12.438
30580W        W97363  39.593  39.638   1.467
30581W        W97364   9.117  22.493   3.855
30582W        W97365   3.887  37.797  14.376
30583W        W97366  36.675   8.114  12.497
30584W        W97367  27.044  37.235   2.798
30585W        W97368  14.696  29.218   3.923
30586W        W97369  17.292  24.454  10.709
30587W        W97370  42.482  27.411  11.548
30588W        W97371  19.641  39.906   4.524
30589W        W97372  34.742   0.887  14.721
30590W        W97373  43.885  34.531  11.865
30591W        W97374  36.347  41.896  14.345
30592W        W97375  37.519  32.563   0.331
30593W        W97376  28.020  25.770  14.392
30594W        W97377  31.731   8.197   5.433
30595W        W97378  20.666   8.354  13.092
30596W        W97379  21.157   7.988   0.511
30597W        W97380  34.771   4.628  12.276
30598W        W97381  20.482  44.332   1.446
30599W        W97382  32.317   3.047   4.142
30600W        W97383   0.518   8.673   3.207
30601W        W97384  43.837  35.539  12.865
30602W        W97385  38.458  15.121   0.389
30603W        W97386  42.269  17.143   1.152
30604W        W97387   2.451  30.951  12.086
30605W        W97388  44.794  39.858   2.277
30606W        W97389   9.155  11.776   3.207
30607W        W97390   7.317  30.831  11.968
30608W        W97391  18.272  18.137   1.821
30609W        W97392  22.500  43.022   2.333
30610W        W97393  25.761   3.532   2.761
30611W        W97394   6.670  19.556   2.842
30612W        W97395  35.916  16.468  12.074
30613W        W97396   5.773  19.780   2.886
30614W        W97397  18.589  11.647   0.666
30615W        W97398  29.888  43.769   3.247
30616W        W97399  25.620  40.374   3.135
30617W        W97400   1.981  27.875  14.338
30618W        W97401  12.844  13.430   3.324
30619W        W97402  13.105  36.015  11.668
30620W        W97403  34.654  42.907  12.873
30621W        W97404  28.890   3.758  14.456
30622W        W97405  29.971   4.340   2.182
30623W        W97406  44.876  15.583   2.459
30624W        W97407  39.363  43.318  11.670
30625W        W97408  39.937   2.256  12.308
30626W        W97409  29.732  31.151   4.545
30627W        W97410  16.155  10.465   3.840
30628W        W97411  37.661  26.938   2.417
30629W        W97412  24.694  38.982  10.690
30630W        W97413  23.490  43.854  13.846
30631W        W97414  37.534  40.244   2.474
30632W        W97415  36.567   8.821  14.243
30633W        W97416   6.724  26.667   4.541
30634W        W97417  36.599  28.497   3.732
30635W        W97418  23.953   7.604   0.866
30636W        W97419  34.371  14.065   2.347
30637W        W97420  28.017   7.201  10.484
30638W        W97421  20.695  16.448  14.779
30639W        W97422   5.066  17.073   4.887
30640W        W97423  16.809  10.244  12.934
30641W        W97424  15.110   6.154   0.245
30642W        W97425  33.078  38.525   1.460
30643W        W97426  30.303  32.988   3.306
30644W        W97427   8.653  30.899   0.801
30645W        W97428  40.510  14.097   2.172
30646W        W97429  43.834  11.150  12.957
30647W        W97430  17.643  26.634   1.826
30648W        W97431  26.589  15.101   1.887
30649W        W97432  11.148  17.317  10.796
30650W        W97433  19.384  11.904  12.142
30651W        W97434  44.413  14.609   0.973
30652W        W97435  16.825  32.972   4.350
30653W        W97436  10.040   5.950   4.212
30654W        W97437  41.036  35.278   2.622
30655W        W97438  10.759  18.190  12.855
30656W        W97439  42.771  30.609   3.566
30657W        W97440  15.889  35.410   1.757
30658W        W97441  30.423  39.767   3.238
30659W        W97442  25.878  13.986  12.396
30660W        W97443  36.206  33.580   2.826
30661W        W97444  29.998   3.779  11.156
30662W        W97445  11.869  13.132  11.698
30663W        W97446  27.995  31.567   0.799
30664W        W97447  28.975  26.743  10.416
30665W        W97448  22.964  44.115  13.515
30666W        W97449  12.188  23.712   0.701
30667W        W97450  21.155  37.371  11.547
30668W        W97451   2.151   1.658  11.649
30669W        W97452   0.331  19.685   0.854
30670W        W97453  29.192  40.075  13.431
30671W        W97454  14.835  42.664   0.255
30672W        W97455  44.923  10.900   2.811
30673W        W97456  20.630  34.818  11.579
30674W        W97457  42.670  15.881   0.729
30675W        W97458  20.016  40.789  11.560
30676W        W97459  41.821  43.216   0.801
30677W        W97460   7.398  31.054  14.180
30678W        W97461   1.798   4.253   0.922
30679W        W97462  28.278  31.119   5.093
30680W        W97463  17.189  22.483  12.030
30681W        W97464  34.796   8.298  11.522
30682W        W97465  41.978  12.088  12.991
30683W        W97466  13.726  12.288   0.751
30684W        W97467  20.518  10.307  11.521
30685W        W97468  14.574  30.891   0.511
30686W        W97469  35.980  28.456   1.305
30687W        W97470  41.576  40.977   2.285
30688W        W97471  12.373  18.252  12.671
30689W        W97472  43.566  39.879  11.646
30690W        W97473  42.307   8.813  13.397
30691W        W97474  25.190  11.888   3.690
30692W        W97475  32.974  24.485  12.507
30693W        W97476   8.633  42.828  10.468
30694W        W97477  24.969  24.560  14.874
30695W        W97478  25.335   4.076  13.993
30696W        W97479  18.945  42.511  14.690
30697W        W97480  12.709  24.654   1.782
30698W        W97481  15.263  26.700  10.089
30699W        W97482   1.871   4.638   4.740
30700W        W97483  35.997  24.572   4.580
30701W        W97484  23.968  21.280   1.788
30702W        W97485   2.511   9.272   0.365
30703W        W97486  20.391   4.206   4.028
30704W        W97487  21.502   6.617   1.858
30705W        W97488   3.801  39.578  12.111
30706W        W97489  38.408   7.279   3.246
30707W        W97490  43.080  18.078   3.708
30708W        W97491   5.732   2.531   4.521
30709W        W97492  37.855  41.075  12.521
30710W        W97493  13.354  35.492   1.983
30711W        W97494  10.054   7.986   3.580
30712W        W97495  16.650  31.655   1.932
30713W        W97496  14.812  42.032   4.105
30714W        W97497  42.932  11.807   2.336
30715W        W97498  23.698  27.622   0.355
30716W        W97499  38.029  35.149  14.975
30717W        W97500  12.874  44.390  12.840
30718W        W97501  10.710  41.525  10.677
30719W        W97502  11.916  22.308   1.467
30720W        W97503  35.909  22.979  12.723
30721W        W97504   0.324   7.426   2.776
30722W        W97505   2.288  11.313  14.753
30723W        W97506   0.338  44.079  10.189
30724W        W97507  18.235  44.746   0.812
30725W        W97508  30.014   1.528  13.556
30726W        W97509  11.660   0.975   1.266
30727W        W97510  10.734  31.450  14.993
30728W        W97511  26.536   5.150   1.450
30729W        W97512  36.955  24.291   4.497
30730W        W97513  33.704  38.332   3.328
30731W        W97514  41.526  44.940  14.119
30732W        W97515  15.787  20.750   3.884
30733W        W97516  30.990  19.583  11.891
30734W        W97517  31.562  22.104  13.361
30735W        W97518  25.525  14.916  10.780
30736W        W97519  33.655  33.525   1.964
30737W        W97520  39.384   1.710  11.808
30738W        W97521  15.478  40.613  12.939
30739W        W97522  19.058  29.418  12.119
30740W        W97523  11.078  27.133  11.810
30741W        W97524  28.577  16.802   1.196
30742W        W97525  25.987  24.744  12.758
30743W        W97526   3.733  29.384   0.012
30744W        W97527  12.852  40.832   3.154
30745W        W97528   9.172   7.833  11.915
30746W        W97529  30.186   5.867   2.836
30747W        W97530  12.297  27.579   1.236
30748W        W97531   2.887   1.520   3.191
30749W        W97532  34.992  13.211  11.862
30750W        W97533  21.347  22.766  14.849
30751W        W97534   0.146   2.628   0.326
30752W        W97535  20.114  41.894  12.113
30753W        W97536   9.454  38.257   1.437
30754W        W97537   0.382  13.760   0.093
30755W        W97538  19.289  34.862   2.197
30756W        W97539  34.934  35.790   0.924
30757W        W97540  18.010   2.328  13.673
30758W        W97541  38.497  36.431  13.434
30759W        W97542  40.114  17.210   2.306
30760W        W97543  44.790  11.172   3.654
30761W        W97544  39.926   4.285  14.291
30762W        W97545  19.151  30.000   0.523
30763W        W97546  24.572   8.908  13.964
30764W        W97547  42.509  12.197   4.178
30765W        W97548  24.863   1.261  12.718
30766W        W97549  40.540  13.894  14.865
30767W        W97550  22.279   4.836   1.808
30768W        W97551   6.767  25.805  11.901
30769W        W97552  28.689   2.216  13.634
30770W        W97553  31.111  37.525   1.246
30771W        W97554  13.613  17.235  10.568
30772W        W97555  41.507   9.405  10.634
30773W        W97556  11.375  44.356  14.811
30774W        W97557   1.510  10.151   0.212
30775W        W97558  26.076  15.719  11.495
30776W        W97559  35.305  13.451  13.318
30777W        W97560  21.008  44.949  14.053
30778W        W97561  17.251  40.959  14.734
30779W        W97562  33.432  29.919   1.302
30780W        W97563   1.095  17.946   1.879
30781W        W97564  28.921   4.738  13.315
30782W        W97565  19.680   6.208  14.881
30783W        W97566  13.547  14.288   3.686
30784W        W97567  32.718   4.782   3.537
30785W        W97568   3.299  10.088  12.333
30786W        W97569   6.024   1.284  10.477
30787W        W97570  41.121  32.420   4.140
30788W        W97571  19.090   9.007   3.032
30789W        W97572  40.373  23.018   3.923
30790W        W97573  14.285  17.716  11.599
30791W        W97574   1.738  33.203  12.946
30792W        W97575  29.118  25.980  11.484
30793W        W97576  27.394  37.912  14.787
30794W        W97577  33.494  35.903   1.918
30795W        W97578  26.071  37.327   2.644
30796W        W97579  16.721  40.620   0.719
30797W        W97580   7.901  26.266   3.817
30798W        W97581  17.142   7.749  14.970
30799W        W97582  26.894  23.425   4.959
30800W        W97583  43.867  28.758  11.891
30801W        W97584  22.328   1.634  13.795
30802W        W97585  31.460   0.580  12.938
30803W        W97586  36.184   0.849   1.173
30804W        W97587   9.293  23.905   2.680
30805W        W97588   2.505  19.267   0.383
30806W        W97589  31.574  16.786   2.076
30807W        W97590  15.463  43.751  11.157
30808W        W97591  19.186  41.849   4.656
30809W        W97592   2.229  36.106  13.040
30810W        W97593   6.234  27.631   3.098
30811W        W97594  16.602   5.151  13.973
30812W        W97595   7.602  17.571  13.331
30813W        W97596  31.129  30.526   1.784
30814W        W97597  19.779  21.988   3.848
30815W        W97598   8.096   1.313   0.717
30816W        W97599  30.182  18.923   3.835
30817W        W97600   7.680  10.697   3.943
30818W        W97601  21.077   7.729   0.945
30819W        W97602   9.755  21.138   1.450
30820W        W97603  28.706   2.818   1.311
30821W        W97604   3.608   4.399  11.644
30822W        W97605   2.400  15.713   1.439
30823W        W97606  11.177   9.770  13.327
30824W        W97607   1.354  32.943  11.164
30825W        W97608   4.988   3.323  13.999
30826W        W97609   2.796  42.040   3.125
30827W        W97610   6.393  35.506  13.109
30828W        W97611  24.640  24.775   2.614
30829W        W97612  24.633  16.457  13.296
30830W        W97613  10.514  22.583   0.253
30831W        W97614  26.955  31.305  14.663
30832W        W97615  19.711  34.118  13.006
30833W        W97616  33.021  38.318   0.548
30834W        W97617  44.644  26.630   4.555
30835W        W97618  42.375  10.870  13.766
30836W        W97619  21.221  43.615  10.196
30837W        W97620   4.244   3.514  13.371
30838W        W97621  21.197  31.150  14.728
30839W        W97622  20.828  40.260   1.975
30840W        W97623   4.849   8.020   2.136
30841W        W97624   2.441  19.855   2.398
30842W        W97625  41.337  34.362  12.062
30843W        W97626  20.881  30.301   2.848
30844W        W97627  21.578  41.993  13.509
30845W        W97628   3.911  30.360  11.236
30846W        W97629  27.231  15.581   4.758
30847W        W97630   2.997  23.261  13.429
30848W        W97631   5.977  42.771  14.400
30849W        W97632  33.071   2.411  13.775
30850W        W97633  10.317  41.760  10.953
30851W        W97634  21.537  26.139   0.964
30852W        W97635  12.219  31.015  13.945
30853W        W97636  41.558  14.699   0.888
30854W        W97637  23.280  28.654   5.013
30855W        W97638   1.325  14.001   2.492
30856W        W97639   1.830   6.857  12.699
30857W        W97640  22.507   2.195  14.298
30858W        W97641   2.416  18.696   3.296
30859W        W97642  31.520   5.397   3.273
30860W        W97643  35.305  28.753   1.341
30861W        W97644  17.761   5.077  13.233
30862W        W97645  43.683  14.764  12.983
30863W        W97646  43.279  27.775  11.291
30864W        W97647  32.888   1.314  12.939
30865W        W97648   9.394   0.431   1.683
30866W        W97649  20.650  14.077  10.285
30867W        W97650  18.703   7.710   0.059
30868W        W97651  37.561  12.683   1.739
30869W        W97652  25.050  12.376  11.183
30870W        W97653  12.183   6.777  13.072
30871W        W97654  22.499  44.039   4.359
30872W        W97655   9.179  34.287  14.907
30873W        W97656  28.152  13.032  14.719
30874W        W97657   7.870  13.016   5.069
30875W        W97658  40.136  35.540   2.806
30876W        W97659  30.416  11.648   2.711
30877W        W97660   5.507  15.796   2.846
30878W        W97661  29.673   9.721  11.054
30879W        W97662  15.210   8.284  12.095
30880W        W97663  31.514  18.495   3.151
30881W        W97664  28.967  14.590   2.702
30882W        W97665  28.456  16.628  13.857
30883W        W97666  18.301  37.929   2.281
30884W        W97667  18.576  13.669   2.384
30885W        W97668  31.242  30.939  11.616
30886W        W97669  29.578  21.722   2.489
30887W        W97670  36.834  32.801  11.965
30888W        W97671  19.199   1.365  14.590
30889W        W97672  34.477   0.446   1.900
30890W        W97673  27.182  44.176   2.768
30891W        W97674  37.585  30.985   0.797
30892W        W97675   4.853   6.434  14.404
30893W        W97676  32.473  35.379  12.319
30894W        W97677  41.864  38.948   1.391
30895W        W97678  26.929  40.919  10.257
30896W        W97679  42.230  21.206   3.734
30897W        W97680  13.935  33.431  14.029
30898W        W97681  33.982  41.715   4.128
30899W        W97682  25.771  13.286  12.008
30900W        W97683  26.914  10.273   4.869
30901W        W97684  36.007  15.692  11.648
30902W        W97685  10.777   6.385  11.526
30903W        W97686  27.825  42.126  14.940
30904W        W97687   0.995  11.777  10.581
30905W        W97688   0.056  39.025  11.595
30906W        W97689  26.446  44.407   0.615
30907W        W97690  14.768  25.248  13.136
30908W        W97691   1.814   3.976  13.405
30909W        W97692   5.262   5.000   2.785
30910W        W97693  22.652  19.534  10.385
30911W        W97694  23.626   8.660  14.429
30912W        W97695  37.463   3.840  11.850
30913W        W97696  37.297  17.603   4.612
30914W        W97697  31.562   5.621   0.988
30915W        W97698  41.279  35.991   0.891
30916W        W97699  30.525  23.601  14.437
30917W        W97700  40.426  40.319  14.949
30918W        W97701  15.035  44.972  12.518
30919W        W97702   5.827  40.790   3.874
30920W        W97703  43.477   6.239   0.785
30921W        W97704  40.280  41.273   5.052
30922W        W97705  31.715  16.342  11.624
30923W        W97706  13.637   5.472   9.840
30924W        W97707  16.103   2.207   2.451
30925W        W97708  32.137  21.917   1.812
30926W        W97709  31.105  18.522  13.822
30927W        W97710   5.736  17.600  13.445
30928W        W97711  15.241   8.418   1.246
30929W        W97712  41.458  41.977   4.209
30930W        W97713  25.786   0.427   3.260
30931W        W97714   3.697  35.538   4.851
30932W        W97715  44.718  32.410  14.307
30933W        W97716  40.694  17.679   2.773
30934W        W97717  41.059   2.591   3.625
30935W        W97718  12.355   8.716  14.577
30936W        W97719   5.344   8.700   1.854
30937W        W97720   2.505  23.404   4.039
30938W        W97721  43.748   5.257   1.724
30939W        W97722   2.819  32.087   3.672
30940W        W97723   4.610  25.871   1.150
30941W        W97724  25.690  14.624   0.822
30942W        W97725   0.555  35.858  13.816
30943W        W97726  15.521  36.327  13.511
30944W        W97727   7.001  32.567   4.606
30945W        W97728  10.079  44.966  12.857
30946W        W97729   5.240  33.164  13.842
30947W        W97730  19.636  20.304  10.684
30948W        W97731  38.504  36.035  14.237
30949W        W97732  38.979  24.990  11.260
30950W        W97733  11.228   2.015  12.422
30951W        W97734  37.591  21.078  12.058
30952W        W97735  13.951  29.004  14.177
30953W        W97736   0.237  16.782  10.937
30954W        W97737  13.955   4.242   4.129
30955W        W97738  13.111  39.448  13.490
30956W        W97739  16.835   8.752   3.250
30957W        W97740  25.766   9.381   4.767
30958W        W97741   2.677   9.488   4.261
30959W        W97742  27.898   0.853  12.940
30960W        W97743  24.214  42.029   1.918
30961W        W97744  12.799  43.596  14.029
30962W        W97745  41.770  15.631   3.686
30963W        W97746   1.905   8.107   3.594
30964W        W97747   8.236  31.782   9.960
30965W        W97748  35.675  22.803   1.684
30966W        W97749  13.405  11.849   0.695
30967W        W97750  13.381   7.509  11.045
30968W        W97751  26.368   2.593   2.869
30969W        W97752  34.820  31.455   3.691
30970W        W97753  15.729  24.128  13.649
30971W        W97754  25.622  42.660  10.994
30972W        W97755  26.003  39.031   9.816
30973W        W97756  25.634  18.486  11.557
30974W        W97757  40.761  44.928  14.517
30975W        W97758   0.431  44.936  14.406
30976W        W97759  40.314  17.870  11.977
30977W        W97760  33.675   7.023  12.915
30978W        W97761   9.097   5.515   1.908
30979W        W97762  23.050  30.784  13.377
30980W        W97763   2.377  31.106  13.519
30981W        W97764  19.389  12.230  13.294
30982W        W97765  35.077   2.835  13.026
30983W        W97766  18.062  32.092  12.438
30984W        W97767  14.309  30.403   1.452
30985W        W97768  38.244  12.230   2.193
30986W        W97769  32.506   9.086  12.476
30987W        W97770  21.660  28.995   4.481
30988W        W97771  11.625  33.023  12.798
30989W        W97772  24.133  11.281   1.445
30990W        W97773  12.680   3.803  10.501
30991W        W97774  20.140  19.721  14.295
30992W        W97775  43.764  22.054  14.105
30993W        W97776  31.845  38.935  11.955
30994W        W97777  32.830  39.993   1.761
30995W        W97778  42.950   9.412   1.188
30996W        W97779  20.504   0.399   3.716
30997W        W97780  11.858  28.516  12.022
30998W        W97781  13.214  14.570   2.136
30999W        W97782   8.454  10.160   1.166
31000W        W97783  20.018  15.083  13.539
31001W        W97784   2.722  15.348  13.552
31002W        W97785  33.915  10.349  10.737
31003W        W97786  17.331  31.490   2.489
31004W        W97787  24.519  30.754   1.859
31005W        W97788  39.108  23.077  13.419
31006W        W97789  44.397  25.615   0.786
31007W        W97790   9.907   2.319   4.160
31008W        W97791  40.013  24.013   0.740
31009W        W97792  29.248  35.691   3.221
31010W        W97793  22.023   2.239   0.926
31011W        W97794  22.431  16.188  13.344
31012W        W97795  22.351  12.583  10.782
31013W        W97796   2.180  35.470  12.060
31014W        W97797  35.876  14.651   0.764
31015W        W97798  37.820  30.005  14.090
31016W        W97799  35.991  25.087   0.821
31017W        W97800  11.239  17.093   4.118
31018W        W97801  27.929  29.880   2.592
31019W        W97802  35.420  12.901   1.317
31020W        W97803   2.592  19.815   0.394
31021W        W97804  28.014  31.849   0.369
31022W        W97805  24.267  28.170   1.340
31023W        W97806  19.119  19.185   0.987
31024W        W97807  42.538   6.287   0.673
31025W        W97808  10.754  25.646  10.659
31026W        W97809  37.836   0.851   2.837
31027W        W97810   9.387  24.159   4.168
31028W        W97811  11.809   4.263  11.727
31029W        W97812  28.954  39.720   4.533
31030W        W97813  28.910  21.807   4.222
31031W        W97814  42.591  41.051   3.261
31032W        W97815  29.564  32.513   9.994
31033W        W97816  38.271  43.001  10.579
31034W        W97817   1.841   2.512   3.864
31035W        W97818  19.762  23.105   0.513
31036W        W97819   2.180  27.523   4.632
31037W        W97820  40.930   2.313  13.320
31038W        W97821  23.633  43.558  13.048
31039W        W97822  42.905  21.769  14.613
31040W        W97823   0.569  35.475  11.624
31041W        W97824   3.910  40.399  14.731
31042W        W97825  22.036  22.761   3.675
31043W        W97826  11.104  16.720  14.323
31044W        W97827  22.236  24.478  13.009
31045W        W97828  17.812  10.409  12.587
31046W        W97829  44.279  39.574  12.066
31047W        W97830  31.032  14.692   4.386
31048W        W97831  20.042  18.526  12.447
31049W        W97832  35.008  17.107   1.136
31050W        W97833  38.463   1.890   4.618
31051W        W97834  17.099  33.162   1.294
31052W        W97835  16.004  11.427   3.061
31053W        W97836  26.779  15.787   1.356
31054W        W97837  36.944   1.664   3.729
31055W        W97838   2.252  44.956  13.934
31056W        W97839  38.313  11.111   1.214
31057W        W97840  28.550  34.072   0.317
31058W        W97841  38.391  37.337  12.494
31059W        W97842  29.732  34.764   0.468
31060W        W97843  28.539  34.681   2.775
31061W        W97844   7.043   9.082   4.538
31062W        W97845  21.374  34.505  12.550
31063W        W97846   3.067  11.407  11.396
31064W        W97847  17.539   7.708   4.493
31065W        W97848  20.093  32.161   3.195
31066W        W97849  41.021  44.006   0.416
31067W        W97850  43.433   6.714   0.485
31068W        W97851  33.842  18.588  10.168
31069W        W97852  37.681   6.670   1.456
31070W        W97853   5.638  32.062   2.551
31071W        W97854  20.201   8.826   3.926
31072W        W97855  16.083  10.811  14.464
31073W        W97856  17.489  43.455   0.065
31074W        W97857  16.350   5.329  13.272
31075W        W97858   8.598  16.290  13.888
31076W        W97859  30.943  31.960  14.909
31077W        W97860  15.882  31.032   1.975
31078W        W97861   9.645  13.546  12.455
31079W        W97862   2.960  42.985  13.653
31080W        W97863  44.864  26.190   3.738
31081W        W97864   2.773  10.950  14.116
31082W        W97865  36.596  25.851  12.618
31083W        W97866  17.249  34.083  12.492
31084W        W97867  42.351   5.013   0.322
31085W        W97868  13.794   3.771  14.721
31086W        W97869  30.106  15.783   0.286
31087W        W97870   1.667  44.276   4.440
31088W        W97871  20.832  21.583   4.153
31089W        W97872   1.837   4.524  13.372
31090W        W97873   0.802  12.714   3.894
31091W        W97874  27.007  30.012   3.472
31092W        W97875   9.758   8.738   1.776
31093W        W97876  14.262  36.541  11.866
31094W        W97877  28.149  23.036   4.631
31095W        W97878  44.641  17.301  11.248
31096W        W97879  34.541  10.369  12.885
31097W        W97880  37.518  14.866   1.945
31098W        W97881  44.576   5.946   2.493
31099W        W97882  18.046  26.598  14.293
31100W        W97883   2.134   6.973  14.040
31101W        W97884  23.377  19.731  10.994
31102W        W97885  33.398   0.021   3.772
31103W        W97886  17.129   3.224  10.738
31104W        W97887  41.708   7.482   3.624
31105W        W97888  32.044  38.698   4.581
31106W        W97889   8.772  27.556   3.226
31107W        W97890  33.588  21.682  12.449
31108W        W97891  30.426  25.167   2.275
31109W        W97892  24.751  18.513  10.792
31110W        W97893  11.755  29.645   3.809
31111W        W97894  26.129  31.797   1.848
31112W        W97895   8.109   5.637  13.541
31113W        W97896  23.028  41.968   3.075
31114W        W97897  10.309  43.770   1.418
31115W        W97898  27.573   6.386  12.426
31116W        W97899  11.838  14.153  12.341
31117W        W97900  14.602  18.669   2.592
31118W        W97901  26.200  29.022  11.075
31119W        W97902  17.311  39.077  11.816
31120W        W97903   2.598  19.764   4.670
31121W        W97904  37.174   5.417   3.315
31122W        W97905  15.761   9.972   4.026
31123W        W97906  18.248  35.074  12.862
31124W        W97907   8.065  17.873  13.432
31125W        W97908  31.132  23.012  14.463
31126W        W97909   8.628   2.560   1.933
31127W        W97910   6.819  21.516   0.883
31128W        W97911  18.350  43.731   1.259
31129W        W97912  42.362   4.357  11.217
31130W        W97913   3.750  40.911   4.417
31131W        W97914   4.861  42.970   3.205
31132W        W97915   5.234  20.062   4.947
31133W        W97916  44.397  44.118   3.784
31134W        W97917  18.052  40.858  10.746
31135W        W97918  15.727  19.060   3.788
31136W        W97919   7.213  15.005   0.926
31137W        W97920   5.845   2.319   2.822
31138W        W97921  14.869  40.369   4.339
31139W        W97922  33.900  11.196   4.278
31140W        W97923  33.421   3.472   1.742
31141W        W97924  22.028  33.502   2.221
31142W        W97925   6.956  39.432  12.128
31143W        W97926  41.139  17.589  13.638
31144W        W97927  41.452   3.004   3.891
31145W        W97928   8.002  22.099   3.213
31146W        W97929  35.113   0.947  12.058
31147W        W97930  41.247  16.302   2.336
31148W        W97931  23.336  32.549  11.989
31149W        W97932  23.516   6.094  11.845
31150W        W97933   9.289  12.653  11.488
31151W        W97934  33.550  38.057   1.288
31152W        W97935  39.084  20.277   2.873
31153W        W97936   8.722  22.091   0.695
31154W        W97937  40.847   1.479   4.534
31155W        W97938  18.707  11.110   0.486
31156W        W97939  34.891   5.367   0.170
31157W        W97940  39.415  38.388   1.829
31158W        W97941  36.468  11.361   4.722
31159W        W97942  36.682  10.831  13.003
31160W        W97943  34.518  15.303  14.280
31161W        W97944  27.430  37.627   2.094
31162W        W97945  13.062  33.033  14.911
31163W        W97946  41.037  33.345  11.931
31164W        W97947   3.432  28.979   2.937
31165W        W97948  29.407  38.051   0.041
31166W        W97949  29.166  31.137  14.453
31167W        W97950  41.925   8.659   0.852
31168W        W97951  22.264  22.175   4.508
31169W        W97952  23.224   4.423   4.451
31170W        W97953  23.692  10.608  11.172
31171W        W97954  16.110  40.484   2.929
31172W        W97955  21.525  41.931   2.395
31173W        W97956  44.815  16.364   3.338
31174W        W97957  35.882  44.845   4.205
31175W        W97958  37.007   9.703   3.275
31176W        W97959  38.850  42.604   3.685
31177W        W97960  29.669  16.644  10.640
31178W        W97961   9.252  34.161  10.621
31179W        W97962  20.902  22.916  10.990
31180W        W97963  40.820  21.584  12.499
31181W        W97964  13.413  11.885  10.089
31182W        W97965  27.493  35.762  13.529
31183W        W97966  27.477  42.136   3.155
31184W        W97967  14.622  19.180  10.749
31185W        W97968  21.210  29.244   3.155
31186W        W97969   1.740  44.522  11.445
31187W        W97970  24.683   5.067  13.520
31188W        W97971  34.134  17.331  11.098
31189W        W97972  13.207  17.341  14.889
31190W        W97973  17.717  17.173   1.006
31191W        W97974   8.543  34.996   3.917
31192W        W97975  23.201  26.601   0.650
31193W        W97976  44.214  37.451  14.803
31194W        W97977  31.132  32.703  14.315
31195W        W97978  35.807   9.421   3.307
31196W        W97979   1.861   8.235   2.278
31197W        W97980  11.379  29.437   2.194
31198W        W97981  25.646  22.755  11.568
31199W        W97982  22.518  14.371  11.030
31200W        W97983  43.808  16.315  14.954
31201W        W97984   2.110   4.138  11.538
31202W        W97985  14.853  24.840  11.629
31203W        W97986  37.866   6.055   5.021
31204W        W97987   1.313  13.355  12.869
31205W        W97988  12.409   7.919   2.210
31206W        W97989  18.259  12.923   1.182
31207W        W97990  33.561  37.101  14.894
31208W        W97991  10.593  44.813  12.061
31209W        W97992  29.151  37.395  11.080
31210W        W97993  20.296   1.002  11.108
31211W        W97994   0.420   9.142  13.126
31212W        W97995  33.521   2.467   4.155
31213W        W97996   0.994  40.461   4.015
31214W        W97997  20.833  17.182   0.394
31215W        W97998  37.643   9.199  12.979
31216W        W97999   0.436  25.465  12.430
31217W        W98000  21.042   0.548  13.407
31218W        W98001   5.393  33.612   0.181
31219W        W98002  39.489   2.735   3.813
31220W        W98003  12.288  28.806   4.461
31221W        W98004  42.979  23.998  11.184
31222W        W98005  42.268  12.915   2.686
31223W        W98006  42.514  12.914   4.667
31224W        W98007   4.332  15.611   1.055
31225W        W98008   8.127  14.324   1.874
31226W        W98009   1.139  25.456   2.599
31227W        W98010  40.825   9.270   5.059
31228W        W98011   8.334   5.830  14.432
31229W        W98012  14.372  28.976  12.544
31230W        W98013  32.969  40.521  13.563
31231W        W98014  23.309   1.474  14.730
31232W        W98015  10.526   9.756   4.971
31233W        W98016  11.626  12.267   4.877
31234W        W98017   8.279  36.855   3.633
31235W        W98018  36.982  39.763   4.180
31236W        W98019  42.353  29.014  14.091
31237W        W98020  24.536  36.773   3.366
31238W        W98021  22.568  39.729  11.536
31239W        W98022  28.303  25.260  12.922
31240W        W98023  32.918  28.119  11.885
31241W        W98024  28.980  36.571  12.304
31242W        W98025  11.820  15.377  11.015
31243W        W98026  11.817   4.947  11.158
31244W        W98027  42.479  43.202   1.424
31245W        W98028   1.713  11.666  11.117
31246W        W98029  35.518  31.404  11.188
31247W        W98030   4.860  37.825  11.576
31248W        W98031  14.343  40.585  11.998
31249W        W98032  37.504  30.512  12.008
31250W        W98033  24.331  25.513  14.886
31251W        W98034   0.454  18.900  10.796
31252W        W98035  33.068  19.991   4.161
31253W        W98036  35.080  16.221  10.489
31254W        W98037   6.123   9.542  13.122
31255W        W98038   6.332  21.963  14.447
31256W        W98039   0.771   0.999   0.335
31257W        W98040  44.437  17.044  13.820
31258W        W98041   2.174  26.082   2.245
31259W        W98042  42.858  23.166  13.878
31260W        W98043   5.077  19.805   1.790
31261W        W98044  37.400  38.971  14.763
31262W        W98045  40.096  42.205   1.809
31263W        W98046  24.596  44.225  14.456
31264W        W98047  38.029  43.223  14.315
31265W        W98048  44.571  41.287  12.430
31266W        W98049  24.166  16.907  11.570
31267W        W98050  40.403  28.044  14.312
31268W        W98051   3.802  30.611   5.074
31269W        W98052  27.531  16.035   1.722
31270W        W98053  36.790   9.719  14.366
31271W        W98054  20.507  29.203  12.955
31272W        W98055  25.648  42.006   1.804
31273W        W98056  30.088   2.973  10.489
31274W        W98057  20.304  37.013  12.457
31275W        W98058  28.029   5.032   1.474
31276W        W98059   3.498  29.997  11.526
31277W        W98060  20.086  44.125  10.820
31278W        W98061  16.184  12.263   1.922
31279W        W98062  41.945  11.077  14.398
31280W        W98063  15.144  20.555  11.255
31281W        W98064  32.553  21.617  13.946
31282W        W98065  10.798  14.599   2.326
31283W        W98066   8.281  34.140   2.627
31284W        W98067   5.569  34.457  13.335
31285W        W98068  29.956  42.360   1.920
31286W        W98069  29.434   1.467  11.137
31287W        W98070  44.321  27.933   0.501
31288W        W98071  20.839  33.393  13.145
31289W        W98072  21.574  40.745  13.292
31290W        W98073  22.264  41.453   3.131
31291W        W98074  10.650  41.172  13.397
31292W        W98075  28.009  26.266  14.657
31293W        W98076  37.413  26.061  11.476
31294W        W98077  23.487  40.549   1.129
31295W        W98078  19.340  22.740  14.259
31296W        W98079   7.227   5.028   3.604
31297W        W98080  11.748  38.301   0.859
31298W        W98081  25.036  14.398  13.818
31299W        W98082  39.323  35.507   3.099
31300W        W98083   2.253  39.567  12.926
31301W        W98084  37.498  20.707   1.376
31302W        W98085   8.962   4.384  12.539
31303W        W98086   3.807  41.416  12.937
31304W        W98087  32.058  32.490  13.962
31305W        W98088  23.050   5.247  14.919
31306W        W98089  37.429  37.594  10.333
31307W        W98090  32.134  27.027  11.680
31308W        W98091  19.712  23.317   3.320
31309W        W98092  12.724  23.580  12.988
31310W        W98093  10.501   4.258  11.428
31311W        W98094  20.118  24.480  13.479
31312W        W98095  11.386  42.084   1.260
31313W        W98096   6.624  42.820   3.346
31314W        W98097  11.665   6.777  13.821
31315W        W98098  34.577  44.198   3.594
31316W        W98099   3.568  15.217  12.018
31317W        W98100  25.907  26.930  12.952
31318W        W98101  22.823  38.930   5.137
31319W        W98102   6.167  27.928   1.006
31320W        W98103  21.977  44.567   5.000
31321W        W98104  12.715   0.498  14.425
31322W        W98105  17.643   2.205   4.718
31323W        W98106  13.498  25.466  12.897
31324W        W98107   1.973  26.674  13.880
31325W        W98108   4.251  23.700  12.381
31326W        W98109  37.984  20.362   0.442
31327W        W98110   4.729  33.796   1.258
31328W        W98111   3.726  28.728  11.644
31329W        W98112  29.215  35.876  12.140
31330W        W98113  22.565  14.233  12.301
31331W        W98114   5.615  42.709   3.351
31332W        W98115   7.217  15.548   0.931
31333W        W98116   5.217  23.465   1.870
31334W        W98117   9.599  29.328  14.905
31335W        W98118   1.743  15.140   1.370
31336W        W98119  18.096   3.951   2.358
31337W        W98120  35.931  16.170   2.996
31338W        W98121  10.109  32.851  12.489
31339W        W98122  29.370  15.145  10.667
31340W        W98123  31.334  30.060   4.671
31341W        W98124  29.381  44.364  13.058
31342W        W98125  35.779  11.075  13.964
31343W        W98126  43.513  28.485  12.428
31344W        W98127   2.271  27.584  14.699
31345W        W98128   0.651  28.442   1.635
31346W        W98129  11.275   5.353  11.829
31347W        W98130  44.535  41.988   3.697
31348W        W98131   7.319  43.852   1.627
31349W        W98132  40.363  25.972   4.674
31350W        W98133  19.039   2.805  13.126
31351W        W98134  35.348  29.579   1.490
31352W        W98135  19.523   0.059   1.337
31353W        W98136  18.095  41.287  10.429
31354W        W98137   0.833  37.046  10.911
31355W        W98138  32.031  22.503  12.453
31356W        W98139   4.968  28.481  10.819
31357W        W98140   5.824  12.801   4.590
31358W        W98141  15.680   9.694   2.383
31359W        W98142   3.260  23.468   1.291
31360W        W98143  34.778  28.472   3.128
31361W        W98144  26.250  11.249   3.679
31362W        W98145  41.613  41.909  14.880
31363W        W98146  17.295  34.618   4.082
31364W        W98147  44.537  11.804   2.836
31365W        W98148  29.069  33.922   2.695
31366W        W98149  20.930  10.949  12.890
31367W        W98150  42.315   4.026  10.768
31368W        W98151  36.779   0.836  12.808
31369W        W98152  43.507  43.372   4.539
31370W        W98153  11.106  24.977   2.361
31371W        W98154  28.835  24.012  10.605
31372W        W98155  41.247  32.076   4.491
31373W        W98156  15.808   7.147  12.521
31374W        W98157  25.441  31.895   0.074
31375W        W98158   5.932  32.941   2.608
31376W        W98159  17.397   0.480  11.772
31377W        W98160  36.946  12.295   2.799
31378W        W98161  11.634   0.999  11.948
31379W        W98162  16.636  40.022  11.887
31380W        W98163   5.158  29.346  11.181
31381W        W98164  31.282  21.504   5.358
31382W        W98165  29.070  25.987  14.843
31383W        W98166   5.287  18.571   2.127
31384W        W98167  30.580  19.128  14.239
31385W        W98168   4.859  14.745  14.927
31386W        W98169  22.001  11.266  11.306
31387W        W98170  22.869  34.600   4.001
31388W        W98171  12.560  17.865  12.969
31389W        W98172  28.758  12.074  14.086
31390W        W98173  40.482  27.001   4.583
31391W        W98174  34.033   7.549  14.258
31392W        W98175  33.402   9.357   1.386
31393W        W98176  21.468   7.336   0.069
31394W        W98177  23.506  42.113  11.139
31395W        W98178  27.015  17.073   0.740
31396W        W98179  16.089   7.195   2.731
31397W        W98180  32.951  15.412  11.046
31398W        W98181  17.901   4.864  11.885
31399W        W98182  34.387  18.601  12.558
31400W        W98183  18.328   5.800  10.717
31401W        W98184  18.120   7.931  11.279
31402W        W98185  20.732  37.185   4.110
31403W        W98186   7.019  15.539  11.586
31404W        W98187   7.753  22.670  11.983
31405W        W98188   8.768  22.590   4.232
31406W        W98189  20.338   9.323   1.793
31407W        W98190  29.088  10.316   3.231
31408W        W98191   3.473  40.624  11.560
31409W        W98192  17.086  12.911   4.294
31410W        W98193  30.149   5.137   0.863
31411W        W98194  16.028  18.193  10.308
31412W        W98195   2.297  33.748  10.207
31413W        W98196  10.627  10.635   0.958
31414W        W98197   7.224  35.174  12.934
31415W        W98198  29.995  28.116  10.609
31416W        W98199  27.355   8.173  13.080
31417W        W98200  14.425   9.734  10.094
31418W        W98201  25.601  17.620   2.841
31419W        W98202   6.417  13.256  10.839
31420W        W98203  39.787  42.548  13.877
31421W        W98204  34.643  30.906  13.786
31422W        W98205  43.272  10.335  10.174
31423W        W98206   9.940  33.510   3.739
31424W        W98207   4.535  18.297   9.612
31425W        W98208  20.147  37.848   1.714
31426W        W98209  13.360   3.674   2.815
31427W        W98210  23.148   4.918   5.187
31428W        W98211  19.818  24.792   1.689
31429W        W98212  10.591   9.681  12.021
31430W        W98213  23.783   7.772  12.026
31431W        W98214  11.263  24.096  14.793
31432W        W98215  33.998  30.535   0.245
31433W        W98216  21.021  35.032  10.692
31434W        W98217  24.950  39.460  13.546
31435W        W98218  42.238  25.479  13.970
31436W        W98219   4.115   5.289   0.488
31437W        W98220  40.028   4.462  11.887
31438W        W98221  14.179  42.987  11.196
31439W        W98222  39.567   1.086  13.830
31440W        W98223  31.822  40.435  11.575
31441W        W98224  22.442  32.542  12.546
31442W        W98225  42.799  15.818  14.326
31443W        W98226  10.141  16.764   3.267
31444W        W98227   0.270   2.984  11.650
31445W        W98228  34.997  30.924   3.627
31446W        W98229   9.216  16.824   1.139
31447W        W98230   4.697  28.733  11.690
31448W        W98231  39.318  28.496  13.263
31449W        W98232  35.609  26.188  12.410
31450W        W98233  41.873  15.640   1.309
31451W        W98234  32.879  28.222   2.370
31452W        W98235  28.021  16.207  14.551
31453W        W98236  33.649   1.285  10.833
31454W        W98237  40.288  32.558   2.936
31455W        W98238  11.327  39.575   4.750
31456W        W98239  40.867   2.492   1.162
31457W        W98240   1.889   2.563  14.829
31458W        W98241  26.934  31.369   1.823
31459W        W98242  32.017  35.439  14.484
31460W        W98243   4.519  27.584  14.539
31461W        W98244  17.358   5.875   0.698
31462W        W98245   1.900  23.293  14.346
31463W        W98246  20.560   4.445   1.029
31464W        W98247  22.690   8.130   2.199
31465W        W98248  39.485  37.717  14.416
31466W        W98249  17.347  12.242   5.037
31467W        W98250  31.919  27.293   1.874
31468W        W98251  23.647  23.561   3.383
31469W        W98252  12.285  38.960  12.343
31470W        W98253   9.166   8.581  12.857
31471W        W98254  41.968   1.375   1.798
31472W        W98255  35.522  36.994  14.755
31473W        W98256  41.205  24.934  14.004
31474W        W98257  28.653  28.487  13.965
31475W        W98258  38.968  12.267  13.762
31476W        W98259   7.897   6.138  11.939
31477W        W98260  15.870  23.989   1.349
31478W        W98261   6.871  33.102  10.580
31479W        W98262  21.086   8.648  12.948
31480W        W98263  28.134  16.527   1.166
31481W        W98264  23.017  41.827  10.652
31482W        W98265  15.118   9.362  11.089
31483W        W98266  31.150   2.817   4.763
31484W        W98267  16.683   8.195  13.814
31485W        W98268  16.052   7.788  10.756
31486W        W98269   4.660  41.833  12.280
31487W        W98270  25.503  40.080  11.461
31488W        W98271   5.215  19.890  11.889
31489W        W98272  19.062   5.065   3.989
31490W        W98273   4.307  33.597   1.006
31491W        W98274  42.253  31.997  10.565
31492W        W98275  34.415  43.367   0.469
31493W        W98276   8.667  33.158   3.275
31494W        W98277  24.658  33.900  14.436
31495W        W98278  34.624   4.156  12.061
31496W        W98279  19.720  34.971  11.084
31497W        W98280   3.806  12.887   2.787
31498W        W98281  18.787  44.231   0.475
31499W        W98282  29.458  29.503   1.467
31500W        W98283  40.136  15.651  12.038
31501W        W98284  41.156  31.140   2.578
31502W        W98285  36.619  28.377   2.352
31503W        W98286   3.687  27.897  13.126
31504W        W98287   0.710  26.220  10.580
31505W        W98288   8.540  31.347  14.941
31506W        W98289  17.600  22.168   1.450
31507W        W98290   4.594  43.441   2.186
31508W        W98291  33.999  41.202  14.796
31509W        W98292  16.261  36.404   0.312
31510W        W98293  18.993  42.797  12.469
31511W        W98294  36.374  20.337   3.326
31512W        W98295  36.988  36.357   3.727
31513W        W98296  44.457  19.946  14.451
31514W        W98297  28.957  29.157  11.554
31515W        W98298  23.411  41.963   0.412
31516W        W98299  26.215   7.435   2.866
31517W        W98300  24.902   0.416  14.850
31518W        W98301  24.035  34.667   4.575
31519W        W98302  33.090   2.167  10.910
31520W        W98303  38.314  29.468  10.809
31521W        W98304  15.378  33.893   3.581
31522W        W98305   0.672  41.808   3.115
31523W        W98306   4.346  40.041  11.680
31524W        W98307  31.370   6.685  12.525
31525W        W98308  29.669  12.765   0.790
31526W        W98309  22.670  32.311   3.792
31527W        W98310  31.018   5.762  12.028
31528W        W98311  29.009  10.596   2.758
31529W        W98312  43.476  26.693  11.462
31530W        W98313  22.963  38.445   4.899
31531W        W98314  29.581  19.287  12.222
31532W        W98315   9.834  13.196   4.162
31533W        W98316  41.972  28.412  12.913
31534W        W98317  20.948  27.300  10.171
31535W        W98318  17.937  37.580   2.438
31536W        W98319  31.412  44.384  10.713
31537W        W98320  16.672   8.182  13.302
31538W        W98321  17.742   1.273  14.323
31539W        W98322  17.664  39.537  10.586
31540W        W98323  10.742  11.627  10.378
31541W        W98324  31.844  38.834   0.853
31542W        W98325  34.974  41.100  12.527
31543W        W98326   5.548  33.497   3.857
31544W        W98327  42.371  34.054   1.391
31545W        W98328  13.401  28.156  13.953
31546W        W98329  27.174   7.845  14.525
31547W        W98330   1.898  16.316   4.528
31548W        W98331   2.010  21.689   0.917
31549W        W98332  22.726  15.526   3.707
31550W        W98333  26.224   2.479   3.639
31551W        W98334   2.867   8.340   2.445
31552W        W98335  39.811   5.795   4.466
31553W        W98336  21.587  34.062  12.413
31554W        W98337  16.807  12.401  12.456
31555W        W98338  23.347   1.293   4.194
31556W        W98339  31.947  44.528   2.166
31557W        W98340   0.341  33.401   2.936
31558W        W98341  23.167  14.820  10.690
31559W        W98342  28.249  38.544  10.601
31560W        W98343  34.929  38.269   1.818
31561W        W98344  34.431   9.370   2.064
31562W        W98345  11.574   8.342  10.825
31563W        W98346   2.374  19.732  13.796
31564W        W98347  32.990  18.463   2.290
31565W        W98348  40.879  12.153   2.678
31566W        W98349  21.961  41.068   4.923
31567W        W98350  42.318  27.735   3.414
31568W        W98351  10.187  32.348   4.114
31569W        W98352   0.271  31.317  11.140
31570W        W98353   6.441  12.280  13.855
31571W        W98354  25.102   2.436   3.263
31572W        W98355   9.816   5.708   1.363
31573W        W98356  19.350  25.287  10.884
31574W        W98357  40.343   7.376   2.004
31575W        W98358   1.527  26.447   4.190
31576W        W98359  26.612  14.990   4.274
31577W        W98360  25.205  39.160  11.119
31578W        W98361  36.278  39.082  10.651
31579W        W98362  42.188  38.577  12.911
31580W        W98363  32.390  17.603   4.154
31581W        W98364  29.691  13.938   1.503
31582W        W98365  15.662  12.102  12.477
31583W        W98366   1.783   4.283  13.849
31584W        W98367  23.391   0.913   1.822
31585W        W98368  13.432  11.784   1.603
31586W        W98369  11.903  13.204  14.075
31587W        W98370  41.244  28.982   1.789
31588W        W98371   7.370   6.319  14.852
31589W        W98372  13.330   8.387  13.379
31590W        W98373  18.243  22.655   3.909
31591W        W98374  22.572  12.211   4.442
31592W        W98375  13.905  22.733  13.793
31593W        W98376  27.388  24.430   0.239
31594W        W98377  10.000  17.939  13.466
31595W        W98378  42.458  32.051   2.793
31596W        W98379   9.921  13.330  12.875
31597W        W98380  25.469  42.930   0.867
31598W        W98381  11.273  32.716  13.974
31599W        W98382   1.115  40.829   3.672
31600W        W98383  34.989  43.879   3.764
31601W        W98384   3.013   4.367   0.436
31602W        W98385  29.006  21.562  10.709
31603W        W98386   8.382  14.343   3.255
31604W        W98387  17.789  42.335   0.491
31605W        W98388   5.281  37.619  10.517
31606W        W98389  24.060  34.145  11.117
31607W        W98390  21.342  39.887   1.178
31608W        W98391  29.583  41.216  13.053
31609W        W98392  10.431   1.843  12.178
31610W        W98393  16.067  30.226  12.491
31611W        W98394   1.406  24.688   4.230
31612W        W98395   4.647  11.253  14.748
31613W        W98396  32.564   1.302  13.430
31614W        W98397  26.515  14.705  13.055
31615W        W98398  42.855  30.640   0.469
31616W        W98399  37.499  27.921   3.737
31617W        W98400  37.932  13.595   3.157
31618W        W98401   6.046  13.187  11.607
31619W        W98402  26.620  15.855   0.404
31620W        W98403  28.477  19.518  14.826
31621W        W98404  24.799  19.678  13.333
31622W        W98405  41.561  16.319   1.503
31623W        W98406  41.827  19.898   1.690
31624W        W98407  14.333  19.206  13.048
31625W        W98408  29.676  26.922  12.602
31626W        W98409  37.489  13.172   0.853
31627W        W98410  30.459  11.446   3.171
31628W        W98411  20.551  10.241   4.235
31629W        W98412  23.911  16.648   0.920
31630W        W98413  14.312   1.000  11.601
31631W        W98414  18.159  36.854  14.491
31632W        W98415  10.032  27.937   0.341
31633W        W98416  34.369   0.384  12.602
31634W        W98417  11.204  31.889   1.163
31635W        W98418  10.165  37.051   1.378
31636W        W98419  39.132  15.351  12.132
31637W        W98420  12.753  39.940  10.934
31638W        W98421  10.844   5.324  12.763
31639W        W98422  24.771   6.884   0.484
31640W        W98423  24.159   3.329  13.387
31641W        W98424  26.918  41.302   0.943
31642W        W98425  27.966   1.429  14.463
31643W        W98426   6.948   4.259  13.950
31644W        W98427  29.638  35.059  13.071
31645W        W98428  29.241  26.936   9.936
31646W        W98429  21.915  36.086  14.805
31647W        W98430  34.948  35.883  10.697
31648W        W98431  17.795  37.927   2.810
31649W        W98432  38.264  35.453  13.364
31650W        W98433  14.076   4.354   1.712
31651W        W98434  13.200  32.705   2.515
31652W        W98435  40.189  29.601   1.339
31653W        W98436  35.191  23.616   2.735
31654W        W98437  15.974   1.864   3.986
31655W        W98438  43.748  40.841   1.354
31656W        W98439  11.195  43.031  14.304
31657W        W98440  17.722   3.134   2.678
31658W        W98441  31.642  11.210   1.577
31659W        W98442   2.746  17.055  12.525
31660W        W98443  21.125  32.515  11.869
31661W        W98444  29.137  24.798  13.534
31662W        W98445  37.557  40.010   3.076
31663W        W98446   4.649   8.426   4.072
31664W        W98447  41.390  24.682   2.666
31665W        W98448  28.977   2.330  12.133
31666W        W98449   3.625  25.862  14.441
31667W        W98450  38.522  14.669   3.749
31668W        W98451  28.061   7.411  14.860
31669W        W98452  34.295  26.654  11.075
31670W        W98453  23.586   2.152   2.253
31671W        W98454   8.710   2.366  13.526
31672W        W98455  31.362   1.999  12.349
31673W        W98456   3.059  23.974   2.240
31674W        W98457   7.160  44.996   3.215
31675W        W98458  24.599  41.457  12.151
31676W        W98459  39.069  25.431   4.145
31677W        W98460  37.518  10.714  13.610
31678W        W98461  13.639   8.300  11.083
31679W        W98462   4.781   6.214  14.877
31680W        W98463  18.255   7.499  11.028
31681W        W98464  35.013  32.916   2.313
31682W        W98465  37.873  34.056   0.588
31683W        W98466  28.105  17.842  13.424
31684W        W98467  43.501  29.463  11.349
31685W        W98468  23.201  37.412  12.081
31686W        W98469   8.285  37.922  11.068
31687W        W98470   8.092  12.941   4.162
31688W        W98471  30.534  26.963   4.394
31689W        W98472  32.949  41.727   0.429
31690W        W98473   8.623  41.721   4.051
31691W        W98474  13.035  12.361  11.873
31692W        W98475   1.062  11.054   0.797
31693W        W98476   2.662   3.047   4.027
31694W        W98477  14.294  21.471  12.419
31695W        W98478  17.804  36.476   4.523
31696W        W98479  23.051  42.951  11.109
31697W        W98480  36.900  39.583   2.902
31698W        W98481  27.668   7.251  14.065
31699W        W98482   4.124   9.978   2.308
31700W        W98483   6.301  11.916   2.370
31701W        W98484  37.830  40.589   0.732
31702W        W98485  44.345  16.572   2.838
31703W        W98486  23.682  37.517   0.438
31704W        W98487  34.518  11.657  12.337
31705W        W98488  25.081  29.440   2.285
31706W        W98489  35.373   9.906   1.214
31707W        W98490   0.567  22.119   3.724
31708W        W98491  36.411  16.229   2.839
31709W        W98492  34.381   9.430  14.314
31710W        W98493  12.374   3.249   4.719
31711W        W98494  11.628  15.950   5.122
31712W        W98495  23.543  13.843   2.628
31713W        W98496  44.363   5.346  13.755
31714W        W98497   0.306  26.756  11.095
31715W        W98498  40.765   6.858  10.424
31716W        W98499  17.765  23.923   0.259
31717W        W98500  41.491  29.111   2.216
31718W        W98501  33.344  30.110   0.826
31719W        W98502  29.183  38.561  14.960
31720W        W98503   2.405  27.459   3.708
31721W        W98504  13.634  18.714  14.798
31722W        W98505   1.035  44.118  13.164
31723W        W98506  28.094   5.892  13.449
31724W        W98507  34.142  24.701   3.462
31725W        W98508  41.909   7.146  13.498
31726W        W98509  34.584  38.013   3.576
31727W        W98510  21.260  20.618  13.361
31728W        W98511  38.031   7.767  14.380
31729W        W98512  27.341   3.365   4.971
31730W        W98513   4.708  16.593  13.972
31731W        W98514  15.356  43.881   1.831
31732W        W98515  26.499  27.733  11.156
31733W        W98516  38.648  28.748  13.844
31734W        W98517  16.521   4.218   3.213
31735W        W98518  21.184   6.990  14.308
31736W        W98519  36.916   9.747  13.830
31737W        W98520  22.691  36.572   1.711
31738W        W98521  13.066  30.708  12.999
31739W        W98522  37.034   9.365  11.542
31740W        W98523  12.787  35.904  14.002
31741W        W98524  39.132  22.325  11.279
31742W        W98525  11.662  30.916   1.731
31743W        W98526  26.580  11.788  12.924
31744W        W98527   4.749  12.610  14.447
31745W        W98528   9.296  32.820  14.702
31746W        W98529  20.981   1.326   4.907
31747W        W98530  24.694  11.859   3.667
31748W        W98531  10.867  42.392   4.166
31749W        W98532   5.219  23.014   2.850
31750W        W98533  37.554  36.923   4.651
31751W        W98534  10.893   4.444  12.637
31752W        W98535   4.921  17.021   1.497
31753W        W98536  43.600  33.664   4.356
31754W        W98537   9.848   1.179  10.672
31755W        W98538  37.168  15.261  11.338
31756W        W98539   4.220  16.669  14.848
31757W        W98540  30.436  31.184   0.730
31758W        W98541  20.525  22.678  12.352
31759W        W98542  38.946  32.017   2.553
31760W        W98543  16.780  16.527   0.950
31761W        W98544  27.540  42.859  14.741
31762W        W98545   4.966  31.568  14.081
31763W        W98546   4.876  19.335   1.803
31764W        W98547  37.872   4.113  14.540
31765W        W98548  43.018   9.816   1.489
31766W        W98549  30.062  32.725  13.515
31767W        W98550  42.850   7.416  13.254
31768W        W98551  24.403   1.234  12.493
31769W        W98552   5.462  41.086   3.598
31770W        W98553  42.282  32.952  11.289
31771W        W98554  24.017  21.604  14.026
31772W        W98555  37.533  42.341  13.430
31773W        W98556  26.477  34.093  12.158
31774W        W98557  40.464   6.272   2.827
31775W        W98558   4.546  13.133  10.589
31776W        W98559  22.356   9.294   4.613
31777W        W98560  44.034  22.887  10.764
31778W        W98561  10.731  30.527  10.675
31779W        W98562  44.289  27.174  12.353
31780W        W98563  40.283  33.908  13.577
31781W        W98564  14.811   9.782  14.783
31782W        W98565  18.833  26.428  14.039
31783W        W98566   0.201  11.631  12.716
31784W        W98567   9.385  20.973  14.263
31785W        W98568  42.533  39.517   3.717
31786W        W98569  35.378   7.242   3.634
31787W        W98570  24.549  19.963   0.889
31788W        W98571  14.100  21.229  12.816
31789W        W98572  44.780  34.173  11.525
31790W        W98573  11.901  19.793   2.405
31791W        W98574  16.268  31.353   1.763
31792W        W98575  43.221  10.742  11.277
31793W        W98576  28.853  32.551  11.178
31794W        W98577  44.855  29.191   2.616
31795W        W98578  34.033   7.407   2.799
31796W        W98579  12.715  10.250  11.156
31797W        W98580   4.456   4.940   0.675
31798W        W98581  10.322  40.045   2.392
31799W        W98582  42.074  42.694  11.010
31800W        W98583  35.502  26.313  10.785
31801W        W98584  36.825  12.862  11.262
31802W        W98585  41.419  44.370   3.619
31803W        W98586  21.265  34.844   1.485
31804W        W98587  43.008   7.219  12.786
31805W        W98588  30.741  14.847   1.188
31806W        W98589  29.918  14.073   1.060
31807W        W98590  15.574  24.954   2.618
31808W        W98591   5.459  29.524   4.660
31809W        W98592   6.096   1.898  13.625
31810W        W98593  12.246  11.269   0.769
31811W        W98594  42.331  22.243  12.020
31812W        W98595  19.438  20.563   2.576
31813W        W98596   2.789  32.170  14.806
31814W        W98597   9.887  38.239   3.213
31815W        W98598  42.490  29.172   4.646
31816W        W98599  32.899   2.837   0.506
31817W        W98600  21.994  15.735  14.908
31818W        W98601  29.374  33.704  13.936
31819W        W98602  17.187  31.693  14.474
31820W        W98603  25.181  19.946  13.578
31821W        W98604   5.773  12.427  14.499
31822W        W98605  29.079  11.592   4.656
31823W        W98606   8.258  34.323   0.793
31824W        W98607   2.927  36.086  10.463
31825W        W98608  31.090  26.260  11.273
31826W        W98609   6.649  25.598   2.330
31827W        W98610  20.662  37.442  11.625
31828W        W98611  34.077   4.963   9.949
31829W        W98612   5.959  38.032   0.799
31830W        W98613  25.268  42.531   1.754
31831W        W98614  42.845  32.521   3.414
31832W        W98615  26.008  12.681   0.270
31833W        W98616  22.582  11.227  13.959
31834W        W98617   5.188  13.353  11.182
31835W        W98618  30.617   3.236  13.484
31836W        W98619  33.524  29.118  11.704
31837W        W98620   6.752  11.705  14.538
31838W        W98621  22.400  42.927   0.007
31839W        W98622  39.440  15.627   2.337
31840W        W98623  34.603   5.414   1.624
31841W        W98624  37.471   2.005  12.138
31842W        W98625   8.237  31.601  14.327
31843W        W98626  42.686  21.519   3.662
31844W        W98627   2.345  37.980   5.019
31845W        W98628  23.846  40.651   0.267
31846W        W98629   3.005  40.746  12.910
31847W        W98630  17.619   2.883   4.111
31848W        W98631  10.347  39.907   0.019
31849W        W98632   6.704   0.577  12.537
31850W        W98633  10.094   5.704  11.560
31851W        W98634  36.110  29.970  12.101
31852W        W98635  21.992  29.312  12.076
31853W        W98636  29.104  24.619  12.452
31854W        W98637  16.296  15.596   3.759
31855W        W98638   7.740  12.112   9.885
31856W        W98639  11.863  44.435   5.025
31857W        W98640  39.182  26.053   4.557
31858W        W98641  10.589  19.030   3.501
31859W        W98642  22.659  16.310   3.201
31860W        W98643  39.076  12.834   0.260
31861W        W98644   4.935  38.796   0.502
31862W        W98645  26.457   4.098   2.114
31863W        W98646  35.096  43.929   4.735
31864W        W98647  36.661  21.474  11.050
31865W        W98648  26.692   7.659   1.415
31866W        W98649   7.663  23.781  11.119
31867W        W98650  17.578  12.751  10.850
31868W        W98651   6.382   3.819  12.070
31869W        W98652  29.921   0.743   4.155
31870W        W98653  24.102  40.998   4.199
31871W        W98654  22.805  35.999   3.876
31872W        W98655  25.299  26.308  14.529
31873W        W98656  16.803  18.101   2.807
31874W        W98657  44.956  19.030  13.917
31875W        W98658  35.541  10.907  12.854
31876W        W98659  39.796   0.296  14.909
31877W        W98660  25.824  25.751   0.985
31878W        W98661  17.445  23.085  10.661
31879W        W98662   8.591  26.890   4.726
31880W        W98663  38.127   2.702  12.095
31881W        W98664  10.208  33.807   0.828
31882W        W98665  19.333  39.338   0.445
31883W        W98666  36.888  23.547  12.940
31884W        W98667  27.171  28.381   0.495
31885W        W98668  41.893  40.516  14.453
31886W        W98669  17.345   0.376  13.120
31887W        W98670  35.812  13.135  11.531
31888W        W98671   9.843  10.202  14.586
31889W        W98672  27.058  38.598  14.415
31890W        W98673  19.954  36.531   4.665
31891W        W98674  39.515  15.351  13.966
31892W        W98675  20.665  36.072   2.000
31893W        W98676  12.282   7.412   2.170
31894W        W98677  40.606  39.356  10.987
31895W        W98678   1.193  14.495   0.875
31896W        W98679  32.874  23.052   1.707
31897W        W98680  12.296  24.051   1.831
31898W        W98681  23.031  21.977   2.642
31899W        W98682  17.670  20.748  13.329
31900W        W98683  29.111  15.348   3.356
31901W        W98684  28.436  33.339  11.011
31902W        W98685  42.132  21.627   2.191
31903W        W98686   6.326  26.922   2.670
31904W        W98687  14.387   4.752  11.190
31905W        W98688  35.421  31.910   1.793
31906W        W98689  29.505  11.075   0.319
31907W        W98690  19.799   3.358   5.147
31908W        W98691   9.062   5.395   4.002
31909W        W98692   0.341  35.180   0.749
31910W        W98693  14.763   1.144   1.329
31911W        W98694   7.949  17.607   2.287
31912W        W98695   6.247  15.016  11.329
31913W        W98696  24.926  36.475  12.968
31914W        W98697  14.092  24.631  12.043
31915W        W98698  18.517  13.839  11.091
31916W        W98699  35.245  28.937   2.817
31917W        W98700  42.018  17.721  13.311
31918W        W98701  40.879   9.443  14.318
31919W        W98702  24.580  16.647  12.413
31920W        W98703  24.390  39.962  11.765
31921W        W98704  34.537  13.994  11.538
31922W        W98705   8.146  14.598   0.991
31923W        W98706  13.831  18.990   0.816
31924W        W98707  43.484  10.003   0.317
31925W        W98708  21.511   2.234   2.230
31926W        W98709  27.421  18.930  12.992
31927W        W98710  40.935  10.295  12.513
31928W        W98711  39.594  17.707  13.894
31929W        W98712  33.447  13.311   1.852
31930W        W98713  37.103   7.637   5.124
31931W        W98714  23.905  18.832  14.352
31932W        W98715  17.258  15.060   3.138
31933W        W98716   6.659   8.133   3.448
31934W        W98717  34.171  40.378   1.831
31935W        W98718  16.553  35.914   3.193
31936W        W98719  38.858  25.380   2.100
31937W        W98720  10.424  39.446   0.821
31938W        W98721  12.749  26.092   0.928
31939W        W98722  22.276   4.387   1.567
31940W        W98723  24.242  15.288  13.462
31941W        W98724   0.655   2.476   0.393
31942W        W98725  42.405  27.851  11.278
31943W        W98726   5.638  23.680   4.395
31944W        W98727  28.886  43.665  11.183
31945W        W98728   2.218  21.108  12.509
31946W        W98729  30.208  44.407   4.246
31947W        W98730  31.064  13.787   4.437
31948W        W98731  17.409  18.831   4.422
31949W        W98732  16.652  38.543  13.048
31950W        W98733   9.554  44.178   4.061
31951W        W98734  21.610  27.671   0.803
31952W        W98735  41.307  12.418  11.436
31953W        W98736   1.736  40.280  12.734
31954W        W98737  39.550  31.489  14.056
31955W        W98738   1.965  39.823   3.874
31956W        W98739  16.331   2.951  10.507
31957W        W98740  15.121  12.379  13.425
31958W        W98741  25.737  27.097   1.342
31959W        W98742  23.409   4.473   1.933
31960W        W98743  39.167  30.272  10.132
31961W        W98744   2.487  23.327  10.824
31962W        W98745   5.193  35.524   0.456
31963W        W98746  43.510  13.570   3.613
31964W        W98747  11.310  16.144   1.855
31965W        W98748   2.099   4.542  12.592
31966W        W98749  22.699  44.412  12.804
31967W        W98750  37.575  30.719  11.186
31968W        W98751  29.990   3.565   4.988
31969W        W98752  38.437  42.394   1.700
31970W        W98753  37.944  10.093  11.541
31971W        W98754  18.716   5.808  11.480
31972W        W98755  35.463  29.157  10.771
31973W        W98756  34.284   2.462   0.443
31974W        W98757  24.271   0.504  11.999
31975W        W98758  34.121  15.945  10.692
31976W        W98759  10.636  28.722  13.746
31977W        W98760  21.844   8.390  10.534
31978W        W98761   5.483  27.714   3.673
31979W        W98762  21.558  30.820   4.728
31980W        W98763  25.696   3.629  11.605
31981W        W98764   5.686  31.929  12.829
31982W        W98765   1.880  28.986   2.301
31983W        W98766  44.280  31.144   0.084
31984W        W98767   9.367  32.502   1.019
31985W        W98768   1.779   2.289  14.419
31986W        W98769  10.270  26.969  14.943
31987W        W98770  40.450  24.522  14.290
31988W        W98771  25.726  26.302  14.223
31989W        W98772  43.485  29.781  14.934
31990W        W98773  29.253   0.897   2.355
31991W        W98774  22.116   9.890   2.051
31992W        W98775  28.026   0.752  12.050
31993W        W98776  14.467  40.471  11.497
31994W        W98777   2.335   3.297  12.606
31995W        W98778   7.897  27.893  10.461
31996W        W98779  33.886  36.765   0.160
31997W        W98780  24.694  16.642   2.162
31998W        W98781  24.602  17.851   4.282
31999W        W98782  21.136   1.318   3.746
32000W        W98783  30.374   7.165   2.214
32001W        W98784  40.028  14.115  11.234
32002W        W98785  29.044  23.670   0.823
32003W        W98786  20.113  18.737   4.865
32004W        W98787  18.404  14.652  11.582
32005W        W98788   1.839  27.491   0.020
32006W        W98789  22.617  12.498  11.205
32007W        W98790  36.894  22.730   3.046
32008W        W98791  43.985  28.930  14.198
32009W        W98792   2.400  17.448  14.395
32010W        W98793  19.587  22.492  12.030
32011W        W98794   1.652  34.148  13.296
32012W        W98795  21.186  24.451   4.558
32013W        W98796  10.062  12.723  12.859
32014W        W98797  17.127  28.466  12.464
32015W        W98798   0.414   1.870   2.374
32016W        W98799  35.620  26.811  13.930
32017W        W98800  13.564  33.560   2.246
32018W        W98801   3.461  11.348   2.401
32019W        W98802  19.978  18.247  13.369
32020W        W98803   5.400   5.252   3.312
32021W        W98804  27.254  29.975  11.968
32022W        W98805   2.565  27.393  13.316
32023W        W98806  41.420   7.284  12.929
32024W        W98807  18.219   4.874  13.425
32025W        W98808  42.732  12.141   0.856
32026W        W98809  40.084  44.449  13.384
32027W        W98810  29.675  26.757   3.327
32028W        W98811  13.153  33.340   0.847
32029W        W98812  13.862  29.159   3.912
32030W        W98813   8.809  39.270   3.179
32031W        W98814  19.080  31.527  13.651
32032W        W98815  34.965  32.505   4.392
32033W        W98816  30.917  18.964   4.555
32034W        W98817  16.872  13.849  14.622
32035W        W98818  20.759  13.230   3.240
32036W        W98819  13.021   6.762   2.213
32037W        W98820  10.779  23.714   0.485
32038W        W98821  30.385  10.740   3.697
32039W        W98822  22.447  33.423  12.382
32040W        W98823  18.346  22.225   3.584
32041W        W98824   9.769   9.706   4.491
32042W        W98825  13.841  43.366  12.581
32043W        W98826  13.009  21.271   4.726
32044W        W98827  43.268  16.363  11.881
32045W        W98828   0.274  13.689  14.557
32046W        W98829  10.830  29.434   3.840
32047W        W98830   2.251  42.386   2.264
32048W        W98831  22.828  37.100  11.822
32049W        W98832  31.504   5.144  11.453
32050W        W98833   8.404  19.230   3.727
32051W        W98834  35.127  39.825   2.323
32052W        W98835  29.393  21.216  12.276
32053W        W98836  17.305  29.095   1.119
32054W        W98837  10.837  43.272  13.833
32055W        W98838   0.022  21.334   2.446
32056W        W98839  24.100   9.956   3.240
32057W        W98840   4.626  26.678   0.772
32058W        W98841   4.216  42.546   4.777
32059W        W98842  10.434  25.142   0.933
32060W        W98843  10.865  37.607   1.850
32061W        W98844   6.722  16.330   3.689
32062W        W98845  37.868  20.086  11.796
32063W        W98846  11.254  41.112  12.205
32064W        W98847   8.412  20.568  14.102
32065W        W98848  22.660  37.544   3.757
32066W        W98849  33.614  36.947   2.934
32067W        W98850   1.474  36.333  13.571
32068W        W98851  26.146  12.721   1.260
32069W        W98852  11.808  10.957   3.226
32070W        W98853  21.093  17.721  14.808
32071W        W98854  17.911  44.352  11.975
32072W        W98855  21.082  27.304   4.784
32073W        W98856  35.363  38.964   4.745
32074W        W98857  33.045  12.622   2.900
32075W        W98858  17.762  12.058  14.757
32076W        W98859  13.902  21.745  12.908
32077W        W98860  29.696  34.965   1.848
32078W        W98861   8.915  29.215  11.539
32079W        W98862  11.402  16.344  12.174
32080W        W98863  34.204  15.098   2.877
32081W        W98864  26.233  21.797   0.177
32082W        W98865   8.347   4.929  11.645
32083W        W98866   7.748   6.646  12.986
32084W        W98867   7.049  11.704   2.631
32085W        W98868  25.604  42.985  12.859
32086W        W98869  29.102  26.050   0.743
32087W        W98870  30.942  31.146  13.179
32088W        W98871  13.664  31.214  14.164
32089W        W98872  25.519  22.743   0.368
32090W        W98873   2.972  40.850   0.308
32091W        W98874  12.145  19.544  12.897
32092W        W98875  27.918  17.630   2.020
32093W        W98876   4.695  38.475   3.897
32094W        W98877  18.639  27.077   3.894
32095W        W98878  39.585  14.897  11.582
32096W        W98879  17.117   3.111   3.774
32097W        W98880  29.874  22.552   3.727
32098W        W98881  12.624  13.000   0.877
32099W        W98882  36.587   5.795  14.786
32100W        W98883  36.924  28.411   0.296
32101W        W98884   3.733  25.600  13.968
32102W        W98885  37.579  33.313  13.994
32103W        W98886   7.472  10.288   3.229
32104W        W98887  31.062  41.413  10.582
32105W        W98888  18.012  27.106   3.117
32106W        W98889  29.059  15.462  11.608
32107W        W98890  35.855  36.545   1.782
32108W        W98891  26.467   3.460  10.460
32109W        W98892  44.306  44.747  12.438
32110W        W98893   2.683  28.028  12.975
32111W        W98894   1.474   9.269  11.586
32112W        W98895  42.801  22.599  14.945
32113W        W98896  22.560  42.583   4.149
32114W        W98897  27.020  44.181  11.657
32115W        W98898  40.067  12.642   0.221
32116W        W98899  40.008   0.793  13.990
32117W        W98900   6.184  29.667  11.176
32118W        W98901  10.654  28.650  14.963
32119W        W98902  30.906  43.354  12.134
32120W        W98903  29.589   2.585   3.131
32121W        W98904  26.656  18.999  14.788
32122W        W98905  27.491  37.418  14.877
32123W        W98906  38.616   0.121  11.601
32124W        W98907   0.235  20.248   3.218
32125W        W98908   4.746  23.525   1.656
32126W        W98909  26.953  24.183  13.328
32127W        W98910  12.744  28.057   2.396
32128W        W98911  38.229   6.251   3.204
32129W        W98912  28.556   4.945  11.472
32130W        W98913  37.844  34.954   4.543
32131W        W98914  36.999  39.325  11.066
32132W        W98915  36.827   5.256  11.139
32133W        W98916  31.503  30.676  14.759
32134W        W98917  20.643  22.038  13.570
32135W        W98918  31.607   7.800   3.376
32136W        W98919  18.012  17.755  10.221
32137W        W98920   0.321   0.036  11.154
32138W        W98921   9.700  37.154  11.099
32139W        W98922  20.593  29.235   3.803
32140W        W98923  37.428   3.453   1.862
32141W        W98924   2.310   5.743   0.528
32142W        W98925  33.586  23.716  12.130
32143W        W98926  44.051  33.299  14.914
32144W        W98927  15.796  44.503  14.199
32145W        W98928  11.972   1.580   3.182
32146W        W98929  25.091  23.308   5.082
32147W        W98930  19.379   3.098   5.027
32148W        W98931   7.193  11.837   4.777
32149W        W98932  19.253  27.968   2.140
32150W        W98933  11.086  33.930   0.410
32151W        W98934  20.650   7.718   2.588
32152W        W98935  22.037  44.272   0.337
32153W        W98936  30.432  23.988   2.274
32154W        W98937   8.447  16.310   3.237
32155W        W98938  20.738   6.431  11.362
32156W        W98939  37.985   7.926   3.730
32157W        W98940  16.010  32.768  11.061
32158W        W98941  12.750   9.026   3.987
32159W        W98942  10.980  38.502   1.727
32160W        W98943  33.924  16.185  11.618
32161W        W98944  12.203   6.190   4.717
32162W        W98945  14.076  34.032   4.986
32163W        W98946   4.489  43.561  11.976
32164W        W98947   2.867   2.434   0.864
32165W        W98948  43.848  28.656   4.453
32166W        W98949   6.665  38.926   4.628
32167W        W98950  11.873  27.982  13.886
32168W        W98951   0.214  44.206   4.590
32169W        W98952  15.746  18.938   0.321
32170W        W98953  41.978  15.862   3.289
32171W        W98954  20.504   6.912  14.061
32172W        W98955  25.570  26.577  12.555
32173W        W98956  23.689  12.378  14.081
32174W        W98957  24.842  24.331  11.426
32175W        W98958   6.142   8.846  12.882
32176W        W98959  11.585  20.511   1.360
32177W        W98960  23.558  12.091   4.268
32178W        W98961  41.909  17.730   4.414
32179W        W98962   7.301   2.240  11.364
32180W        W98963  14.635  42.934  14.824
32181W        W98964  40.426  31.913   3.907
32182W        W98965  18.266  30.590  12.120
32183W        W98966  21.756  16.658  10.644
32184W        W98967   4.173  35.314   2.276
32185W        W98968  13.369  32.458  12.566
32186W        W98969   4.694  37.842   0.407
32187W        W98970   8.283   9.706   3.599
32188W        W98971   4.858  17.155  14.428
32189W        W98972  15.821  31.236   3.257
32190W        W98973  22.660  16.541  14.888
32191W        W98974  42.968  17.863   0.929
32192W        W98975  23.109   2.395   0.078
32193W        W98976  39.866   3.785  14.771
32194W        W98977  31.864  27.954  11.924
32195W        W98978  38.042   7.594  12.913
32196W        W98979  21.986  22.627   2.249
32197W        W98980  18.737  16.257  10.962
32198W        W98981   8.001  35.766   2.877
32199W        W98982  20.666  19.206  12.902
32200W        W98983  22.601   1.449   4.253
32201W        W98984  10.350  32.369  11.547
32202W        W98985  36.892   9.635  11.114
32203W        W98986  44.411  39.886   0.880
32204W        W98987  43.695  42.231   1.625
32205W        W98988  11.845  27.400   1.077
32206W        W98989  22.120  35.106   0.508
32207W        W98990  39.968   7.407   9.898
32208W        W98991   4.460   9.755  10.496
32209W        W98992  13.424   3.504  12.014
32210W        W98993  26.520  26.577  11.754
32211W        W98994  36.829  42.492   1.023
32212W        W98995  24.194  23.703   5.547
32213W        W98996  20.257   7.176  11.587
32214W        W98997  13.371   5.680   1.511
32215W        W98998   1.648  30.196   1.273
32216W        W98999  26.068  19.498  13.701
32217W        W99000  24.382  33.699  13.520
32218W        W99001  37.291   0.547   0.433
32219W        W99002  10.739  30.105   0.003
32220W        W99003   2.397   8.174   2.143
32221W        W99004  26.146  42.839   5.184
32222W        W99005   3.806  25.511   2.898
32223W        W99006  28.485  40.362  10.179
32224W        W99007  43.938  12.769   1.036
32225W        W99008  17.616  31.971  11.202
32226W        W99009  11.336  23.122   3.208
32227W        W99010   9.081  30.214   5.058
32228W        W99011  28.451  41.013  13.568
32229W        W99012  35.668   5.401   0.618
32230W        W99013  18.290   0.890   3.824
32231W        W99014  16.811   7.811  11.250
32232W        W99015  23.084  22.210  11.705
32233W        W99016  37.525  40.271   0.454
32234W        W99017  21.160  28.900   0.913
32235W        W99018   0.981  17.285  13.583
32236W        W99019   0.610  17.975  12.937
32237W        W99020  11.464  17.660   4.139
32238W        W99021  12.720  10.537   1.920
32239W        W99022  15.729  25.137   0.765
32240W        W99023  32.545  44.907  11.739
32241W        W99024   6.144  12.240  10.419
32242W        W99025  14.223  42.218   4.573
32243W        W99026  23.963  31.392  14.984
32244W        W99027  28.174  40.829   0.608
32245W        W99028  27.965  25.518   4.716
32246W        W99029  40.073  40.128  12.010
32247W        W99030   3.837  22.749   0.896
32248W        W99031   3.875  43.795  14.531
32249W        W99032  27.746  34.388  13.504
32250W        W99033  35.881  30.320   0.278
32251W        W99034  31.251  20.015  12.074
32252W        W99035  39.373  35.556   1.662
32253W        W99036  36.019   6.666   0.324
32254W        W99037  11.803  16.307   4.243
32255W        W99038  40.751  21.984   2.725
32256W        W99039  38.458  10.045   3.583
32257W        W99040  32.507  34.533  11.483
32258W        W99041  32.677   0.025   2.741
32259W        W99042  39.860  42.036   0.261
32260W        W99043  20.204  11.008   3.380
32261W        W99044  10.131  23.648  12.560
32262W        W99045  19.214   6.522  11.653
32263W        W99046  13.143   3.826  13.898
32264W        W99047  11.477  11.290   5.080
32265W        W99048  43.932  29.136   4.629
32266W        W99049   8.219  35.568  11.155
32267W        W99050  10.032   6.284  13.980
32268W        W99051  26.964  43.311  12.010
32269W        W99052   3.428  23.477  11.596
32270W        W99053   5.827  31.165  11.109
32271W        W99054  24.221  15.958   4.137
32272W        W99055   7.533   7.523  14.423
32273W        W99056   6.131   1.775   3.854
32274W        W99057  11.716  44.556   3.202
32275W        W99058  35.376  31.623  12.652
32276W        W99059   2.979   4.665  14.005
32277W        W99060  17.693  26.118  11.054
32278W        W99061   5.990  35.711  12.810
32279W        W99062  36.796  36.108   4.207
32280W        W99063  32.197   6.940  12.077
32281W        W99064   8.387  19.495   2.258
32282W        W99065   8.676  32.366   4.491
32283W        W99066  36.875  10.567   0.276
32284W        W99067   1.738   5.859   2.769
32285W        W99068  12.955   4.312   2.437
32286W        W99069   8.792  43.035  14.889
32287W        W99070  34.415  20.088  14.259
32288W        W99071  19.644  19.972  12.663
32289W        W99072  30.957  43.301   0.308
32290W        W99073  41.681  34.989   0.743
32291W        W99074  28.108  27.520  13.861
32292W        W99075  37.137  20.124  13.464
32293W        W99076  11.147  25.983  13.271
32294W        W99077  17.757  35.337   3.124
32295W        W99078   7.043  39.925  12.716
32296W        W99079  32.673  35.584  11.372
32297W        W99080  37.321   0.671   4.589
32298W        W99081  16.209  14.433   3.259
32299W        W99082  35.803  21.738  11.915
32300W        W99083  25.791  36.327  13.965
32301W        W99084   1.218   8.166  11.134
32302W        W99085  13.634  11.760  10.643
32303W        W99086  11.224   5.311  14.241
32304W        W99087  40.021  10.606  13.157
32305W        W99088  17.620  41.948   0.805
32306W        W99089  31.244  14.255   4.593
32307W        W99090  30.589  22.801   3.365
32308W        W99091  35.729  10.439   0.857
32309W        W99092  13.522  32.018  13.492
32310W        W99093  15.724  13.119  12.559
32311W        W99094  26.894  43.486  11.084
32312W        W99095  33.688  39.483  14.470
32313W        W99096   3.919  19.196   2.293
32314W        W99097  33.636  23.491  13.931
32315W        W99098  29.679  17.044  14.278
32316W        W99099  26.777  28.166  11.137
32317W        W99100  26.743  21.307   3.584
32318W        W99101  41.433  18.345   3.221
32319W        W99102  20.343  12.117  10.715
32320W        W99103  24.636  38.544  13.422
32321W        W99104  34.659  35.325   1.753
32322W        W99105  12.230  15.010  14.241
32323W        W99106  37.423  42.298  10.532
32324W        W99107  37.936  29.598  13.424
32325W        W99108  19.225   0.309   0.132
32326W        W99109  39.731  12.597  12.039
32327W        W99110  26.177  44.909  11.051
32328W        W99111  12.776   0.040   4.317
32329W        W99112   2.376  38.260   3.686
32330W        W99113  37.993  41.559  12.464
32331W        W99114  10.305  18.580  14.474
32332W        W99115  38.967  40.811   3.115
32333W        W99116  30.179  16.626  10.544
32334W        W99117  17.673   1.436  12.619
32335W        W99118  21.236  40.540  12.326
32336W        W99119  41.024  22.209   3.120
32337W        W99120  44.381  43.095   1.158
32338W        W99121   8.765   9.193  12.799
32339W        W99122  24.191   4.953  11.493
32340W        W99123  40.749  21.078  12.511
32341W        W99124  43.343  36.085   0.383
32342W        W99125  24.291  38.091  11.693
32343W        W99126  27.527  34.968   2.682
32344W        W99127  27.159  22.264  11.477
32345W        W99128  43.326   6.290   0.197
32346W        W99129  39.050   5.199  11.949
32347W        W99130  37.504  14.292   4.190
32348W        W99131  44.998   7.271   3.226
32349W        W99132   7.496  33.895   1.694
32350W        W99133  29.528  39.422  14.776
32351W        W99134  43.967  13.669  13.589
32352W        W99135  37.366   8.451  10.980
32353W        W99136   0.965  24.036   3.717
32354W        W99137  27.656  35.972  11.120
32355W        W99138  39.630  38.327   4.099
32356W        W99139  42.372  40.873  13.649
32357W        W99140   9.640   5.819   4.513
32358W        W99141  19.981  35.020  14.930
32359W        W99142  31.934  36.777   4.177
32360W        W99143  39.158  11.274  12.431
32361W        W99144  37.316  31.631  14.450
32362W        W99145   5.151   2.959   1.274
32363W        W99146  36.389  41.933   3.824
32364W        W99147  39.675   4.231   1.861
32365W        W99148  43.939  34.873   1.424
32366W        W99149  18.731  28.014   0.504
32367W        W99150   5.283   8.237  13.314
32368W        W99151   5.557  12.828  14.735
32369W        W99152  15.148   5.651  14.931
32370W        W99153   0.281  27.538   0.159
32371W        W99154  17.851  26.979  12.811
32372W        W99155   9.601  31.151  13.158
32373W        W99156  20.765  40.521   2.883
32374W        W99157   2.481   9.846   1.701
32375W        W99158  44.816  28.992  12.600
32376W        W99159  18.009  29.357   4.226
32377W        W99160  24.671  35.007   0.462
32378W        W99161   5.670  31.224  13.288
32379W        W99162   3.949   9.365  13.023
32380W        W99163  39.909  22.976  14.035
32381W        W99164   9.209   9.220  10.747
32382W        W99165  39.111  37.954  10.890
32383W        W99166  18.724  42.760  13.291
32384W        W99167  17.651   1.838  10.931
32385W        W99168   2.164  42.173   0.146
32386W        W99169  40.600  36.810  11.515
32387W        W99170  37.012  43.813   2.179
32388W        W99171  17.642  16.407  11.536
32389W        W99172   8.240  42.513   1.059
32390W        W99173   8.073  37.383   3.088
32391W        W99174  34.863  25.998   0.766
32392W        W99175  36.971  24.045  12.863
32393W        W99176   3.476   0.491  12.843
32394W        W99177  35.089   8.618  13.512
32395W        W99178  30.224  17.574  11.442
32396W        W99179   1.058  17.632   2.293
32397W        W99180   6.696  39.715  14.597
32398W        W99181  34.665  28.152   1.754
32399W        W99182  22.528  43.755   0.388
32400W        W99183  28.966  13.187  14.832
32401W        W99184  18.566  42.530   3.475
32402W        W99185   6.489  22.021   4.939
32403W        W99186  43.053  11.168  11.520
32404W        W99187  41.084  23.448  12.602
32405W        W99188  13.427  42.554   3.076
32406W        W99189   9.317  28.468   4.208
32407W        W99190  21.085  13.077   0.875
32408W        W99191   6.311  17.103   1.696
32409W        W99192  12.250   6.785  12.553
32410W        W99193  40.256   5.205  13.316
32411W        W99194  26.491  33.127   1.513
32412W        W99195  43.474  31.344  12.466
32413W        W99196  37.001   5.803   4.688
32414W        W99197  18.752  15.277  13.576
32415W        W99198   1.795  33.840  14.235
32416W        W99199  17.218  43.542  10.712
32417W        W99200  32.944   7.873  14.811
32418W        W99201  43.013  43.331   2.329
32419W        W99202   7.670  21.329  12.073
32420W        W99203  40.858  25.214   3.750
32421W        W99204   4.651  29.915   1.558
32422W        W99205  18.192  18.478   2.715
32423W        W99206  26.949   7.247  12.805
32424W        W99207  36.195   2.441   0.781
32425W        W99208  12.169  35.007  11.532
32426W        W99209   4.792   5.149  12.974
32427W        W99210  21.755  15.321  14.721
32428W        W99211  36.448  22.690   2.702
32429W        W99212  13.322  35.952   0.679
32430W        W99213  12.647  36.783   5.492
32431W        W99214  10.670   6.243  12.035
32432W        W99215  18.799   2.743  12.319
32433W        W99216  24.931  12.161   4.058
32434W        W99217  43.709  42.855   0.316
32435W        W99218   6.903  30.442   2.089
32436W        W99219  14.816  35.985  12.164
32437W        W99220  38.856  30.510   0.798
32438W        W99221  22.475  20.063  13.120
32439W        W99222   5.484  22.740   0.814
32440W        W99223  13.589  44.873  12.603
32441W        W99224  23.436  27.165  12.578
32442W        W99225  39.814   4.014   3.187
32443W        W99226   5.736  23.749   3.902
32444W        W99227  19.565  30.538  10.366
32445W        W99228  28.077  14.683   1.188
32446W        W99229  35.088  16.273  13.839
32447W        W99230  33.511   8.999  11.119
32448W        W99231   6.849  24.139   2.241
32449W        W99232  11.666  10.437  14.380
32450W        W99233   8.610  19.130  10.551
32451W        W99234  27.437  14.342  14.838
32452W        W99235  15.860  21.651   2.853
32453W        W99236  14.847  32.391   2.831
32454W        W99237  30.381  35.405   1.004
32455W        W99238  33.549  34.070  11.314
32456W        W99239   6.167   9.353   4.062
32457W        W99240  12.758  30.652   3.779
32458W        W99241   9.404  15.148   0.634
32459W        W99242  23.128  32.334  13.423
32460W        W99243  11.804  40.074   0.816
32461W        W99244   5.288  16.706   3.830
32462W        W99245  12.055   5.717   4.948
32463W        W99246   5.510   0.881   0.442
32464W        W99247   5.404   1.306   1.848
32465W        W99248   4.186  18.196   3.696
32466W        W99249  26.706  20.279  14.548
32467W        W99250  43.855   6.677  12.354
32468W        W99251  28.621   0.577   1.721
32469W        W99252  41.045  36.337   2.662
32470W        W99253  23.814  25.500  14.811
32471W        W99254  27.061   0.787   1.113
32472W        W99255  19.769  43.911   4.562
32473W        W99256   5.016  32.538   1.868
32474W        W99257  21.077   4.736   0.621
32475W        W99258  20.428  27.487   1.311
32476W        W99259   2.240  32.441  10.557
32477W        W99260  22.120  10.717   0.388
32478W        W99261  36.234  13.813  11.076
32479W        W99262  18.589  38.849   0.301
32480W        W99263  14.367   1.711   0.063
32481W        W99264   2.347  26.938   2.002
32482W        W99265  11.684  39.455  11.642
32483W        W99266  11.323  25.966   0.414
32484W        W99267  25.919  32.660  13.396
32485W        W99268  33.844  43.313  12.813
32486W        W99269  28.868  27.941  14.052
32487W        W99270  15.108  15.126  13.395
32488W        W99271   2.887  28.207  13.498
32489W        W99272  28.975  42.633   1.794
32490W        W99273  28.486  11.278  13.093
32491W        W99274  24.002  25.625  11.637
32492W        W99275  27.918  11.792   3.140
32493W        W99276  30.949  43.536  13.405
32494W        W99277  19.116  39.522  14.086
32495W        W99278  42.992  29.072  14.774
32496W        W99279  41.414  17.192  13.907
32497W        W99280  27.929   7.710  12.458
32498W        W99281  32.621   2.563  11.117
32499W        W99282   2.486  30.793   3.925
32500W        W99283  12.086   5.366  11.214
32501W        W99284   6.837   8.801  10.622
32502W        W99285  42.723  17.589   2.823
32503W        W99286   9.525   0.938   1.543
32504W        W99287  36.536  43.052   1.962
32505W        W99288  20.447  36.486   0.034
32506W        W99289  36.147  39.499  12.864
32507W        W99290  44.686  31.987   4.565
32508W        W99291  42.881   1.524   3.624
32509W        W99292  38.061   8.297   0.838
32510W        W99293  22.016  12.567  11.734
32511W        W99294  35.582   7.291  13.350
32512W        W99295  21.504   2.455  12.501
32513W        W99296  12.296  26.039  12.513
32514W        W99297  20.136   6.725  10.706
32515W        W99298  41.409  38.850   4.630
32516W        W99299  43.556  11.895   0.249
32517W        W99300  20.633  44.595  14.108
32518W        W99301  13.414  27.666   4.776
32519W        W99302  34.772  33.079   0.837
32520W        W99303  33.463  19.636  13.022
32521W        W99304   2.702   4.247  13.885
32522W        W99305   2.296   0.374  12.496
32523W        W99306  17.108  21.688  13.060
32524W        W99307  37.558  13.590   1.882
32525W        W99308  20.446  35.840   1.059
32526W        W99309   0.699   1.992   5.027
32527W        W99310  24.789  39.344   0.482
32528W        W99311  38.556   8.344   0.860
32529W        W99312  15.724  36.599   3.304
32530W        W99313  11.902  31.556   2.281
32531W        W99314  27.116   5.776  11.258
32532W        W99315  29.482  15.603  12.606
32533W        W99316  35.025   5.373  14.244
32534W        W99317   5.623  41.004  14.178
32535W        W99318  16.649  13.856   1.292
32536W        W99319  38.436   7.796  10.641
32537W        W99320  39.365   5.785   4.117
32538W        W99321  35.970   3.413  14.323
32539W        W99322  36.641  33.724  14.964
32540W        W99323   9.549   9.844  11.430
32541W        W99324  34.224  18.115  11.589
32542W        W99325   1.108  24.021  12.024
32543W        W99326  37.880  35.860   3.663
32544W        W99327  27.930  43.586  14.346
32545W        W99328  20.689  27.518   3.899
32546W        W99329  18.357  28.280   1.190
32547W        W99330  12.651  17.358  13.054
32548W        W99331  41.822   3.685  12.102
32549W        W99332  41.775  41.361   1.335
32550W        W99333  19.162  20.197  13.359
32551W        W99334  25.593  15.724   4.264
32552W        W99335  15.134  32.673   2.168
32553W        W99336  33.585  36.680   3.936
32554W        W99337  35.152  35.446   4.365
32555W        W99338  34.389  27.259   3.240
32556W        W99339   1.254   2.066   2.712
32557W        W99340  43.931  29.088   0.738
32558W        W99341  23.328  22.204  13.975
32559W        W99342  12.703  17.291  10.622
32560W        W99343  22.115  27.390   2.259
32561W        W99344  40.065  15.689  14.907
32562W        W99345  22.679  10.359   4.109
32563W        W99346   5.742  15.714   2.166
32564W        W99347  25.107  32.680  12.921
32565W        W99348  24.940   9.689   4.034
32566W        W99349  13.232   6.302   2.287
32567W        W99350  21.685  27.985   3.523
32568W        W99351  21.549  17.561   2.856
32569W        W99352  32.116  28.230  14.269
32570W        W99353  26.590  37.771   1.231
32571W        W99354  16.806  15.321   0.400
32572W        W99355   3.461  32.037   1.707
32573W        W99356  37.362  24.147   1.925
32574W        W99357  31.478  15.594   3.019
32575W        W99358   1.975  35.826   4.328
32576W        W99359  17.243  15.852   1.355
32577W        W99360   1.264  11.158  12.625
32578W        W99361  11.924  10.696   2.764
32579W        W99362  16.903  42.463  13.109
32580W        W99363  13.430  43.928   1.040
32581W        W99364  18.050   6.777   3.263
32582W        W99365  16.744  41.004  14.513
32583W        W99366  42.511  16.779  14.652
32584W        W99367  20.239  12.489   0.581
32585W        W99368  21.525  36.544   1.373
32586W        W99369  35.050   1.561  10.419
32587W        W99370  22.790   7.078  13.397
32588W        W99371  43.717  21.424   2.777
32589W        W99372  11.382  40.079   4.227
32590W        W99373  25.855  30.198   3.242
32591W        W99374  15.491  22.637  11.732
32592W        W99375  12.273   9.132   0.919
32593W        W99376  41.116  39.340  11.155
32594W        W99377  40.169  15.085   1.370
32595W        W99378   7.399   5.911   0.885
32596W        W99379  39.441  43.367   3.998
32597W        W99380  32.040  17.225   2.653
32598W        W99381   1.162  16.346  13.178
32599W        W99382  13.290   7.556   4.638
32600W        W99383  17.099  12.248  13.373
32601W        W99384  24.691  36.554  10.627
32602W        W99385  40.542  12.442  13.831
32603W        W99386   2.255   0.958  11.048
32604W        W99387  27.695  33.437  14.953
32605W        W99388   6.441  11.783  13.015
32606W        W99389  44.018  22.249   3.625
32607W        W99390  30.346  37.850   0.802
32608W        W99391  34.621  29.529   0.050
32609W        W99392  14.245   7.388   2.698
32610W        W99393  23.459  39.670  12.854
32611W        W99394  20.154   8.178  13.725
32612W        W99395   3.986  32.515   3.677
32613W        W99396   4.863  29.981  13.888
32614W        W99397  15.129  26.742  14.366
32615W        W99398   1.375   4.350  13.374
32616W        W99399  25.616  24.736  14.337
32617W        W99400   9.921  26.248   0.965
32618W        W99401  42.373  22.799  13.856
32619W        W99402  13.862  31.618  12.486
32620W        W99403  25.787  34.088  14.871
32621W        W99404  25.053  32.464  11.359
32622W        W99405   7.798  29.526  12.746
32623W        W99406  40.441   3.352   9.849
32624W        W99407   8.014  37.365  13.130
32625W        W99408  14.167  36.695   3.994
32626W        W99409  42.577  23.660   0.322
32627W        W99410  37.976  30.915   3.736
32628W        W99411  42.830  31.857   4.098
32629W        W99412  11.752  35.327  11.584
32630W        W99413  11.692   9.481  12.758
32631W        W99414  40.461  44.792   3.695
32632W        W99415  18.381   5.392  14.301
32633W        W99416  17.790  26.397   5.069
32634W        W99417   6.687  26.198  13.976
32635W        W99418  42.457  14.431  12.050
32636W        W99419  26.549  19.089   0.277
32637W        W99420  20.653  19.163  12.399
32638W        W99421  40.030  40.995   2.300
32639W        W99422   0.872   4.096   2.333
32640W        W99423  12.167  25.070   4.148
32641W        W99424  41.934  33.166   2.281
32642W        W99425  35.086  37.279  12.915
32643W        W99426  38.726  24.447   2.039
32644W        W99427  43.925   8.972  14.610
32645W        W99428  20.258  28.057  14.344
32646W        W99429   3.424  38.636   0.834
32647W        W99430  23.055   0.954   2.224
32648W        W99431  34.596  11.777  10.990
32649W        W99432  32.420   6.851  14.333
32650W        W99433   9.584  33.711   3.042
32651W        W99434  29.541  21.109  14.487
32652W        W99435  32.407   2.390  14.440
32653W        W99436  31.420  44.418  12.880
32654W        W99437   3.303  18.715  10.515
32655W        W99438  11.260  17.916   0.761
32656W        W99439  32.925  37.551   1.761
32657W        W99440  10.854  35.733  11.473
32658W        W99441   5.255  19.041   4.744
32659W        W99442   8.195   9.485   3.112
32660W        W99443  20.229  27.318   3.069
32661W        W99444   6.281  19.432  11.522
32662W        W99445  38.822  15.850  12.396
32663W        W99446  16.753   4.419  14.316
32664W        W99447  41.347  19.841  14.006
32665W        W99448  40.028  38.787  11.610
32666W        W99449   5.844  26.676  13.912
32667W        W99450  14.814  14.124  10.645
32668W        W99451  27.435   1.379   2.285
32669W        W99452  40.254  16.016  14.209
32670W        W99453   4.658  21.947   3.756
32671W        W99454  23.253  26.411  12.211
32672W        W99455  16.295  17.214  12.451
32673W        W99456  32.489  41.106   2.425
32674W        W99457  21.878  38.566   4.001
32675W        W99458  39.972  24.079  14.827
32676W        W99459  19.803   5.404   4.441
32677W        W99460  15.673   1.027  14.999
32678W        W99461  42.598  31.856   0.274
32679W        W99462  24.609  37.497  12.592
32680W        W99463  14.755   1.998   3.054
32681W        W99464   4.974  23.625  10.565
32682W        W99465   1.055  12.943  11.940
32683W        W99466  21.547  23.754  14.286
32684W        W99467   1.483  12.726   4.694
32685W        W99468  27.860  30.791  10.270
32686W        W99469  41.359   4.813  11.516
32687W        W99470  15.696   4.738  10.708
32688W        W99471  43.770  13.191  11.174
32689W        W99472  43.884  25.448   0.756
32690W        W99473  39.126  32.123  10.628
32691W        W99474  11.190   5.381  10.179
32692W        W99475  21.980  24.122  12.319
32693W        W99476  10.072  39.998  13.990
32694W        W99477  22.681  14.166   2.586
32695W        W99478  25.077   4.237   3.229
32696W        W99479  44.613  30.198   0.181
32697W        W99480   0.386  19.754   4.859
32698W        W99481  29.376  25.583   3.613
32699W        W99482  35.600   3.918  14.984
32700W        W99483  14.755   6.694   1.171
32701W        W99484  11.748  33.588  13.153
32702W        W99485  11.506   6.274   4.876
32703W        W99486  20.772  41.018   4.110
32704W        W99487  42.991  18.196  13.881
32705W        W99488  43.200  20.311   2.282
32706W        W99489  28.436  31.948   3.755
32707W        W99490  19.015  23.963  14.969
32708W        W99491   9.979  23.067   1.424
32709W        W99492  41.941  33.462  11.859
32710W        W99493  28.782  15.136   4.674
32711W        W99494   1.227  16.068   2.834
32712W        W99495  16.094  15.214  14.893
32713W        W99496  31.173  11.653  11.538
32714W        W99497  40.661   2.440  11.526
32715W        W99498  38.105   8.822   4.137
32716W        W99499  31.839  13.633  12.539
32717W        W99500  37.072  41.117   4.554
32718W        W99501  16.027  28.514   2.010
32719W        W99502  13.298   8.214  14.761
32720W        W99503  33.213  11.573   4.615
32721W        W99504  41.967  41.426  13.002
32722W        W99505  22.713  12.062  14.356
32723W        W99506  26.374  20.562  11.730
32724W        W99507   2.108   6.456  12.905
32725W        W99508  29.077  11.595  14.947
32726W        W99509  27.748  35.589  10.738
32727W        W99510   7.210   4.755  11.067
32728W        W99511   3.345  43.716  14.409
32729W        W99512  22.754  25.155  14.431
32730W        W99513  39.861  19.673   0.120
32731W        W99514  30.887  10.171  11.161
32732W        W99515  20.976  23.213   3.028
32733W        W99516  28.088  40.727   3.222
32734W        W99517   5.405  35.766  13.928
32735W        W99518  11.744  26.668  13.322
32736W        W99519  23.987  44.896   3.678
32737W        W99520  39.979  23.194  13.068
32738W        W99521  26.595  38.257   0.478
32739W        W99522  36.171  10.193   0.866
32740W        W99523   4.269  37.661   0.640
32741W        W99524  28.400  21.014   4.803
32742W        W99525  22.260  11.732   2.391
32743W        W99526  29.391  26.998  13.925
32744W        W99527  26.522  29.663  12.937
32745W        W99528  24.518  16.884  14.426
32746W        W99529   8.208   3.549  10.603
32747W        W99530  39.830  33.931  13.919
32748W        W99531  24.098   1.384   3.862
32749W        W99532  14.328  13.611   3.201
32750W        W99533  22.354  34.909   0.941
32751W        W99534  12.148  36.128  12.522
32752W        W99535   1.332  37.138  10.782
32753W        W99536  35.653  27.097   1.290
32754W        W99537  37.693  13.781   1.399
32755W        W99538  17.051  31.053   2.258
32756W        W99539  29.632  16.070  14.577
32757W        W99540  43.126   5.755  10.102
32758W        W99541  10.951  11.739   2.787
32759W        W99542  36.542  16.748   4.213
32760W        W99543  13.043  29.309   0.277
32761W        W99544  31.329  10.558  11.358
32762W        W99545  20.459  17.045   2.324
32763W        W99546  29.401  40.451  10.022
32764W        W99547  18.202  33.256   0.752
32765W        W99548   6.241  18.051   2.132
32766W        W99549   2.008   6.263   2.614
32767W        W99550  38.006  28.169   2.655
32768W        W99551  39.924  13.164  12.806
32769W        W99552   7.212  16.333   3.069
32770W        W99553  24.080  19.711   0.866
32771W        W99554  43.546  11.743  13.900
32772W        W99555   8.302  12.032  14.772
32773W        W99556  13.963  16.921   2.785
32774W        W99557  13.581  30.176   1.223
32775W        W99558  32.074  18.194   1.931
32776W        W99559  41.418  31.220   1.419
32777W        W99560  10.880  29.570  12.446
32778W        W99561  42.274  13.271   1.294
32779W        W99562   0.400  27.240  12.025
32780W        W99563  29.032  14.802   3.186
32781W        W99564  34.111  39.304   3.780
32782W        W99565   4.509  22.629   3.265
32783W        W99566  31.466   8.253   4.572
32784W        W99567  41.337  42.366   4.542
32785W        W99568  37.617  21.400  12.613
32786W        W99569  36.616  40.229   1.355
32787W        W99570  15.969  17.724   3.762
32788W        W99571  11.840  31.725  11.013
32789W        W99572   5.071  21.143   5.121
32790W        W99573  39.825   7.123   4.792
32791W        W99574  27.482   1.189  14.368
32792W        W99575  20.157   6.314  11.013
32793W        W99576   8.904  38.201   2.352
32794W        W99577  35.247  16.668   3.053
32795W        W99578  35.783  43.190  13.560
32796W        W99579  41.621   4.367   3.360
32797W        W99580  44.216  29.999  10.777
32798W        W99581  25.987   2.368   4.133
32799W        W99582  26.696  39.867  14.485
32800W        W99583  37.810  25.141  10.758
32801W        W99584  14.305  11.838  12.016
32802W        W99585  33.645   8.326   1.709
32803W        W99586   2.896  44.363   2.236
32804W        W99587  19.616  40.540  14.906
32805W        W99588  25.824  25.828   1.634
32806W        W99589   4.945  40.891  12.530
32807W        W99590  25.568   8.107  11.992
32808W        W99591  22.092  38.362  13.495
32809W        W99592   4.322   0.454  13.056
32810W        W99593  28.018  39.443   0.985
32811W        W99594   5.174  16.139   2.651
32812W        W99595  31.522  37.215  13.306
32813W        W99596  11.076  11.279   1.924
32814W        W99597   4.731   2.013  14.813
32815W        W99598  35.211   7.153  14.294
32816W        W99599   7.654  23.667   1.848
32817W        W99600  18.092   3.843   4.277
32818W        W99601   0.476   7.035  10.136
32819W        W99602  27.033  13.348   0.296
32820W        W99603   8.832  28.539   1.053
32821W        W99604  27.597  32.845  12.057
32822W        W99605  44.573  38.320  12.437
32823W        W99606  12.380  32.860  12.756
32824W        W99607  16.853  30.610   0.412
32825W        W99608   8.575   6.667  11.373
32826W        W99609   5.373   0.348   1.890
32827W        W99610  17.237  26.962  14.336
32828W        W99611  36.445  39.861  11.665
32829W        W99612  12.552   2.135  12.410
32830W        W99613  32.040   9.894   4.394
32831W        W99614  29.073  30.874  14.016
32832W        W99615  32.514   5.349   0.735
32833W        W99616  29.598  31.867   2.466
32834W        W99617  37.873   5.785   1.749
32835W        W99618  12.604   0.282   3.707
32836W        W99619   3.980  33.042   2.360
32837W        W99620   8.950  10.743   4.304
32838W        W99621  19.736  24.099   3.768
32839W        W99622  42.392  21.986  14.424
32840W        W99623   8.819  31.375  11.192
32841W        W99624  22.969  35.567   4.128
32842W        W99625  34.473  40.591  11.546
32843W        W99626  15.650  10.161   0.167
32844W        W99627  44.452  15.965  13.971
32845W        W99628  37.436  27.053  10.666
32846W        W99629  17.553   2.426  12.718
32847W        W99630  20.519  17.542  12.984
32848W        W99631  39.240   6.881   0.383
32849W        W99632  30.422  10.509   4.168
32850W        W99633   4.223  12.103  12.393
32851W        W99634  15.327  43.307   3.032
32852W        W99635  12.534   6.880   0.922
32853W        W99636  12.764  42.347   2.361
32854W        W99637  19.024   9.713  12.447
32855W        W99638  22.565  42.062   4.111
32856W        W99639   9.146  13.770  11.559
32857W        W99640  18.568   8.629   3.737
32858W        W99641  29.637   1.831   0.887
32859W        W99642   7.441  44.528   3.170
32860W        W99643  43.993  18.979   4.597
32861W        W99644   0.326  44.670   4.771
32862W        W99645  43.796  23.032  13.906
32863W        W99646  30.550  28.150   0.949
32864W        W99647  21.749   1.767   0.936
32865W        W99648  41.736  12.331   3.809
32866W        W99649  25.147  31.570  12.957
32867W        W99650  10.771  22.796  12.060
32868W        W99651  39.950  25.919   3.288
32869W        W99652   7.657   3.775  14.035
32870W        W99653  36.386  23.305   1.145
32871W        W99654  32.514   6.871   1.168
32872W        W99655  35.709   8.929   1.846
32873W        W99656  25.223  43.298  10.562
32874W        W99657   9.324  15.366  10.632
32875W        W99658   3.767   4.908   1.870
32876W        W99659   1.300  36.029   3.093
32877W        W99660  40.131   5.071   3.326
32878W        W99661  39.540  28.087   4.156
32879W        W99662  44.162  20.448   4.806
32880W        W99663  39.953  31.324   3.258
32881W        W99664  28.340   6.512  12.156
32882W        W99665  16.232   9.739  10.683
32883W        W99666  21.785  33.585  11.046
32884W        W99667  35.592  25.396   3.697
32885W        W99668  41.730  13.796   3.560
32886W        W99669  31.839  32.025  13.841
32887W        W99670  34.756  11.873   0.925
32888W        W99671  33.225  26.544   2.222
32889W        W99672  37.763  26.772  12.334
32890W        W99673  24.245  17.327   1.776
32891W        W99674  41.920  17.410  13.979
32892W        W99675  14.751  25.800  11.611
32893W        W99676  11.332  11.217  11.545
32894W        W99677  38.417  39.975   1.852
32895W        W99678  20.360  31.953   4.163
32896W        W99679  30.007  36.895  14.940
32897W        W99680  39.916  11.317   4.492
32898W        W99681   9.152  31.531  14.292
32899W        W99682  12.947   1.853   2.840
32900W        W99683  31.099  22.860  13.401
32901W        W99684  22.322  27.270  10.691
32902W        W99685   1.277  20.568  11.966
32903W        W99686  13.807  28.851   0.030
32904W        W99687  14.330  30.220   2.362
32905W        W99688  35.541  32.808  14.224
32906W        W99689  44.749  19.067  12.906
32907W        W99690   2.838  24.726   2.923
32908W        W99691  15.147   1.489   2.047
32909W        W99692  27.036  25.166   2.159
32910W        W99693  10.839  40.138   2.206
32911W        W99694  40.559  38.528   4.207
32912W        W99695   5.972  25.643  13.564
32913W        W99696  33.387  42.545  12.808
32914W        W99697  37.117  22.131  12.775
32915W        W99698  23.762   7.039   5.059
32916W        W99699  32.677  22.577  14.073
32917W        W99700  28.894  31.188   4.225
32918W        W99701  40.294  10.377  14.984
32919W        W99702  27.540   1.266  11.108
32920W        W99703  26.432  20.115  11.992
32921W        W99704  16.752  16.336  12.651
32922W        W99705  17.461  36.891   4.693
32923W        W99706   8.563  34.170   0.345
32924W        W99707   3.843   0.363   4.568
32925W        W99708  35.883  40.056   0.269
32926W        W99709  15.532  15.788   1.258
32927W        W99710  44.443  26.500  10.205
32928W        W99711   4.750   1.047   0.832
32929W        W99712  36.114  10.319  11.247
32930W        W99713   4.668  37.933   4.640
32931W        W99714  34.595  44.529  11.682
32932W        W99715   7.650  40.549  12.928
32933W        W99716   2.302  14.301   2.418
32934W        W99717  20.475   7.839  13.973
32935W        W99718  43.701  44.651  11.095
32936W        W99719  36.085   2.401   2.805
32937W        W99720  35.501  19.475  14.832
32938W        W99721   5.886  21.025   4.167
32939W        W99722  10.656  38.062   0.767
32940W        W99723   1.845  43.114  11.259
32941W        W99724   0.757  20.100   4.205
32942W        W99725  44.583  34.014   3.433
32943W        W99726  36.647  13.818   3.065
32944W        W99727  25.745   5.568  14.021
32945W        W99728  44.403  23.976   1.874
32946W        W99729  34.022  44.803   4.809
32947W        W99730  15.712  26.704  11.061
32948W        W99731  26.725  41.889   2.854
32949W        W99732   2.244  20.377  10.489
32950W        W99733  15.045  12.088  11.127
32951W        W99734   0.499   9.766   2.443
32952W        W99735  44.382  24.700   1.136
32953W        W99736  41.965  28.102   4.569
32954W        W99737  37.355  15.117   3.722
32955W        W99738  16.919   9.171  12.489
32956W        W99739  17.168  18.562   4.054
32957W        W99740  12.051  22.784  13.596
32958W        W99741  12.344  27.660   0.333
32959W        W99742  25.492  12.417   0.176
32960W        W99743  44.836   8.142  12.363
32961W        W99744   0.791  35.382  10.714
32962W        W99745  13.714   3.325  14.370
32963W        W99746  14.578  42.059  14.557
32964W        W99747   0.336   8.497   0.047
32965W        W99748   5.980   9.894  12.361
32966W        W99749  27.545   5.802  12.116
32967W        W99750  11.748  24.528   4.714
32968W        W99751  37.171  28.006   3.138
32969W        W99752  32.949  39.082  11.072
32970W        W99753  41.404  11.319  12.810
32971W        W99754  27.422  11.187  12.504
32972W        W99755  14.255   5.596  10.440
32973W        W99756  36.849   8.404  10.680
32974W        W99757  14.676   5.295  10.561
32975W        W99758   8.512  12.702  13.636
32976W        W99759   8.351  33.708   0.490
32977W        W99760  29.497   4.465   1.920
32978W        W99761  24.864  15.164  11.184
32979W        W99762  14.669  35.830  14.995
32980W        W99763  17.230   1.459   0.311
32981W        W99764  43.309  39.548   1.968
32982W        W99765  39.095  44.346   5.143
32983W        W99766  39.054  24.245  14.076
32984W        W99767   7.389  30.692   2.347
32985W        W99768   6.162  27.988  10.827
32986W        W99769   4.105   6.235  13.988
32987W        W99770  40.661  33.066  12.502
32988W        W99771  23.489   4.662   3.334
32989W        W99772  36.140   0.277  13.441
32990W        W99773  43.827  32.463  10.946
32991W        W99774   5.930   1.262   1.846
32992W        W99775   2.344   1.443  14.918
32993W        W99776   1.016  17.770  14.782
32994W        W99777   8.279  30.082   2.710
32995W        W99778   5.903  16.200   3.502
32996W        W99779  34.101  43.613  11.512
32997W        W99780   5.194   7.844  14.313
32998W        W99781  41.360  42.968   4.983
32999W        W99782  10.658  11.611   5.026
33000W        W99783  20.690  18.274  11.763
33001W        W99784  20.485  40.032   3.926
33002W        W99785  26.014  14.618  14.389
33003W        W99786  31.331  17.167   2.326
33004W        W99787  25.435  38.585   1.544
33005W        W99788  23.823  22.272   2.367
33006W        W99789  36.622  27.579  11.586
33007W        W99790  40.783   7.171  14.925
33008W        W99791  38.855  29.486   2.921
33009W        W99792  29.664  36.003  14.575
33010W        W99793   9.285  16.308  13.448
33011W        W99794  11.889  39.547  12.117
33012W        W99795  23.958   7.684  12.616
33013W        W99796  33.622  32.499  10.486
33014W        W99797  20.577   3.193   3.173
33015W        W99798  19.447  21.624  10.765
33016W        W99799  23.193  30.572   4.234
33017W        W99800   3.871  28.666   3.164
33018W        W99801  18.776  21.267   4.268
33019W        W99802  12.135  38.416  14.456
33020W        W99803  17.729  35.091  13.988
33021W        W99804  28.712  32.196   4.113
33022W        W99805  40.318  40.571   2.354
33023W        W99806  40.838  28.936   2.686
33024W        W99807  16.700   6.521  10.988
33025W        W99808  23.279  32.590  13.000
33026W        W99809  11.269  17.333   1.749
33027W        W99810  12.364  33.135  14.672
33028W        W99811   1.165   4.222   0.738
33029W        W99812  40.979  20.655   0.149
33030W        W99813  29.552  28.692  12.451
33031W        W99814  41.737  13.885   1.798
33032W        W99815   0.915  31.600   4.887
33033W        W99816   3.939   0.764  12.858
33034W        W99817   0.457  32.918  11.167
33035W        W99818   8.171  26.213  11.892
33036W        W99819  10.231  43.731  13.912
33037W        W99820   0.466  31.000   4.589
33038W        W99821  38.962   7.018   2.413
33039W        W99822  30.815  30.181   0.765
33040W        W99823   2.788   9.686   1.321
33041W        W99824  42.998  25.043  12.945
33042W        W99825   1.865  33.759   3.617
33043W        W99826  24.961  14.319   3.750
33044W        W99827  44.969   3.252  12.807
33045W        W99828   4.615   0.969   1.707
33046W        W99829  44.854   6.651   4.284
33047W        W99830  16.887   0.525   0.350
33048W        W99831  43.774  25.710   3.118
33049W        W99832  27.060  26.042  10.212
33050W        W99833  30.518  33.084   4.087
33051W        W99834  15.033   3.309   3.284
33052W        W99835  31.124  11.711  12.607
33053W        W99836  44.499   9.462   3.203
33054W        W99837  23.746  23.174  12.369
33055W        W99838   6.274  15.239  12.028
33056W        W99839  19.646  36.871   2.636
33057W        W99840  30.823  21.038   1.707
33058W        W99841  12.744   0.105   0.807
33059W        W99842  16.270  40.783   3.787
33060W        W99843  12.637  27.854  11.924
33061W        W99844  41.428  20.030  14.539
33062W        W99845  31.335   9.887   0.433
33063W        W99846   8.483   5.872  12.485
33064W        W99847  38.284  41.283   2.911
33065W        W99848  36.724   5.084  13.352
33066W        W99849  44.246  18.332   1.400
33067W        W99850   9.269  35.306  14.762
33068W        W99851  19.840  27.011  13.470
33069W        W99852  36.384  17.830  10.624
33070W        W99853  42.870  40.593   5.063
33071W        W99854  35.046  34.822  13.998
33072W        W99855  19.825   8.454   0.881
33073W        W99856   1.037  14.787   4.110
33074W        W99857  10.859  38.461   4.250
33075W        W99858   6.192  23.159  13.768
33076W        W99859  35.854  16.218  12.550
33077W        W99860   1.517  20.474  14.493
33078W        W99861   7.815  19.188  14.654
33079W        W99862  35.913  17.796   2.007
33080W        W99863   8.767  13.143   1.097
33081W        W99864  26.734  40.786  12.067
33082W        W99865  15.270  17.239   3.849
33083W        W99866  11.646   0.158  14.256
33084W        W99867  26.628  22.958   4.211
33085W        W99868   9.325  16.517   2.644
33086W        W99869  13.542  38.386  13.566
33087W        W99870  14.378  20.772  14.654
33088W        W99871  26.546  20.109   0.384
33089W        W99872  14.704  17.855   5.128
33090W        W99873  32.455   3.789  13.481
33091W        W99874   0.873  12.682  10.563
33092W        W99875  42.728  44.346   0.755
33093W        W99876  17.622   8.282   3.368
33094W        W99877  38.305  22.467   1.936
33095W        W99878  37.158  17.122   4.115
33096W        W99879  27.538  30.409   0.382
33097W        W99880  31.930  44.101  13.267
33098W        W99881  41.865  41.431   5.051
33099W        W99882  42.558  34.736  11.395
33100W        W99883  38.165  28.098   1.622
33101W        W99884  27.597  38.400  10.767
33102W        W99885  31.068  33.352  11.623
33103W        W99886   7.548  31.069   4.542
33104W        W99887  11.337   4.456   2.179
33105W        W99888   5.596  44.493   9.949
33106W        W99889  17.771   0.917  12.586
33107W        W99890  35.204  36.379  13.926
33108W        W99891  43.949   0.424  12.860
33109W        W99892  29.355   6.375  11.071
33110W        W99893  32.086   7.747   2.296
33111W        W99894  12.553  23.440  12.085
33112W        W99895  28.148  43.185   1.764
33113W        W99896  10.944  31.424   2.223
33114W        W99897  14.075  31.403  13.875
33115W        W99898   9.273   2.856  10.670
33116W        W99899  34.626  23.037  10.985
33117W        W99900  37.208   3.750   0.702
33118W        W99901   3.353  10.984  11.344
33119W        W99902  34.995  17.947   0.816
33120W        W99903  25.801  13.891   4.057
33121W        W99904  37.053  30.119   3.605
33122W        W99905   7.535  18.797  11.159
33123W        W99906   8.635  23.987   4.673
33124W        W99907   6.442  26.659  13.878
33125W        W99908  32.424   1.114  13.898
33126W        W99909  16.800  29.041  10.437
33127W        W99910  14.043  31.488  14.978
33128W        W99911  39.402  33.670  14.055
33129W        W99912   4.647   4.991   2.123
33130W        W99913  26.531  26.102  11.992
33131W        W99914   3.390  35.455  14.844
33132W        W99915  34.171  32.510  10.474
33133W        W99916  34.923  32.356  13.798
33134W        W99917  27.397  42.417   0.021
33135W        W99918  20.108  27.996   4.465
33136W        W99919  27.083  40.187  14.296
33137W        W99920  31.632  26.973   3.802
33138W        W99921  24.263   7.729   5.362
33139W        W99922  10.271   5.489   0.140
33140W        W99923   2.801  28.075  10.550
33141W        W99924  44.894   1.313  13.111
33142W        W99925   7.116  40.591   1.178
33143W        W99926  36.616   6.491  10.835
33144W        W99927  12.382   4.231  14.250
33145W        W99928  32.614   4.987   0.321
33146W        W99929  43.059  19.737  11.684
33147W        W99930  12.839   1.460   3.212
33148W        W99931  33.004  13.956   0.757
33149W        W99932  30.567  34.283  10.625
33150W        W99933  42.484   1.545  11.678
33151W        W99934  31.473   3.917  13.414
33152W        W99935  18.158   1.119  11.784
33153W        W99936  35.927  42.887  13.977
33154W        W99937  37.955  20.241   1.823
33155W        W99938  39.590  36.461   4.193
33156W        W99939  17.010  12.204  11.980
33157W        W99940   5.924   6.591   4.582
33158W        W99941  15.285  16.084  12.425
33159W        W99942  17.336  22.046   0.769
33160W        W99943  26.674  39.792  11.253
33161W        W99944  44.921  38.625   0.125
33162W        W99945  17.132  31.493   1.979
33163W        W99946   0.999  41.770  13.115
33164W        W99947  18.138  32.872  10.866
33165W        W99948   5.346  25.365  14.978
33166W        W99949  39.840   1.511  14.446
33167W        W99950  22.546  36.877  11.311
33168W        W99951  30.900  18.104  11.109
33169W        W99952   1.499  30.888   4.611
33170W        W99953  29.898  42.262   4.629
33171W        W99954  41.259   6.413   4.054
33172W        W99955  33.602  34.427  12.834
33173W        W99956  14.420  37.058  14.805
33174W        W99957  10.150  15.879   3.204
33175W        W99958   4.302  43.086   2.492
33176W        W99959   1.243  17.037  13.974
33177W        W99960  33.181  14.788  10.489
33178W        W99961   2.276  24.894  13.865
33179W        W99962  20.488  33.664   0.694
33180W        W99963  23.979  10.531  12.533
33181W        W99964   1.515  32.929   4.681
33182W        W99965   0.217   2.334  14.349
33183W        W99966   2.788  20.599   2.402
33184W        W99967   8.136   7.666   4.989
33185W        W99968  34.594  16.342   2.196
33186W        W99969  38.528  32.886   0.508
33187W        W99970  24.945  35.878   4.693
33188W        W99971  35.181  41.761  11.674
33189W        W99972   3.232   6.172   0.223
33190W        W99973   8.689  39.141  12.493
33191W        W99974  11.205   3.566  14.588
33192W        W99975  10.627  32.006  14.515
33193W        W99976  32.695  17.580   3.185
33194W        W99977   4.232  17.810   3.066
33195W        W99978  20.394   5.746  12.574
33196W        W99979  18.714  19.096  13.784
33197W        W99980  18.740  16.022   4.580
33198W        W99981  13.812  14.342  11.649
33199W        W99982  12.299   9.888   0.237
33200W        W99983  38.422  36.177   2.678
33201W        W99984  41.953  23.996  12.658
33202W        W99985  27.958  11.041   4.638
33203W        W99986  17.549  44.011   3.674
33204W        W99987  37.180   3.255   0.861
33205W        W99988   5.406  43.827  12.078
33206W        W99989   0.052  29.407  12.345
33207W        W99990   7.659  42.281  13.062
33208W        W99991  33.356  23.355  11.136
33209W        W99992  25.978  20.858  12.518
33210W        W99993  10.201   1.410   4.652
33211W        W99994  24.666  43.319  10.654
33212W        W99995   5.143  27.055  11.573
33213W        W99996  36.294  28.461   3.326
33214W        W99997   7.047  37.344  12.942
33215W        W99998   9.320   0.748   0.379
33216W        W99999  39.415  31.630  14.956
33217W        W    0  19.580  23.890   1.368
33218W        W    1  38.823   6.067  11.914
33219W        W    2  42.354  18.190   1.352
33220W        W    3  33.308  11.813   0.822
33221W        W    4  43.303  14.775   9.985
33222W        W    5  35.712  21.791   4.134
33223W        W    6  30.339  41.993  12.094
33224W        W    7  31.910  21.072   0.845
33225W        W    8  37.569   3.350   0.530
33226W        W    9   0.490   5.772  13.904
33227W        W   10  20.683  22.731  14.252
33228W        W   11   7.363  28.236   4.659
33229W        W   12  32.580  15.254   1.980
33230W        W   13  35.186  22.335  12.385
33231W        W   14  13.723  13.100   0.339
33232W        W   15  11.109  11.303   3.618
33233W        W   16  33.493  39.995  11.124
33234W        W   17   2.657  33.883  11.155
33235W        W   18  30.114  29.101   2.730
33236W        W   19  30.607   2.876   3.608
33237W        W   20  19.898   2.253   4.798
33238W        W   21  15.039  36.011   4.153
33239W        W   22   7.405  39.122  10.248
33240W        W   23  39.922  35.712  11.936
33241W        W   24  21.684  33.405  13.153
33242W        W   25   8.288  35.274  14.146
33243W        W   26  11.958   8.394  14.406
33244W        W   27  14.603   7.643   1.639
33245W        W   28  39.394   2.216   4.125
33246W        W   29  14.124   4.626   4.887
33247W        W   30  43.482   9.898   1.747
33248W        W   31   0.912  33.469   0.727
33249W        W   32   3.502   1.779   2.884
33250W        W   33   5.194  23.766   4.673
33251W        W   34  23.334  11.262  10.673
33252W        W   35  24.111   6.799   1.258
33253W        W   36  39.709  24.240  13.532
33254W        W   37   5.626  10.749  14.554
33255W        W   38  35.444   2.431  12.991
33256W        W   39  31.546  12.470  13.269
33257W        W   40   7.281  26.048  12.827
33258W        W   41  43.097   0.962   4.230
33259W        W   42  24.841   3.141  12.531
33260W        W   43   3.249  36.545  14.349
33261W        W   44  29.817   8.470  13.326
33262W        W   45  28.882   8.642  12.513
33263W        W   46  37.412   5.721  13.041
33264W        W   47  37.511  34.374   3.888
33265W        W   48   7.193   5.282   2.279
33266W        W   49  11.298   6.117   2.809
33267W        W   50  32.863   9.755   4.660
33268W        W   51  19.571  33.964   3.325
33269W        W   52  13.265  13.265   3.108
33270W        W   53  11.632  23.239   1.538
33271W        W   54  38.704  17.183   3.152
33272W        W   55   2.259  15.533  13.898
33273W        W   56   7.394  19.488   2.357
33274W        W   57  24.800  37.600   2.837
33275W        W   58  31.855  31.651   1.764
33276W        W   59   4.466  24.711   0.261
33277W        W   60  29.174  22.493   0.796
33278W        W   61  20.214  44.810  12.460
33279W        W   62  12.249  36.969   3.626
33280W        W   63  43.840  44.389  14.673
33281W        W   64  39.091  33.607   3.226
33282W        W   65  44.796  25.630  12.721
33283W        W   66  17.126  15.193  14.780
33284W        W   67   3.770  12.344   0.378
33285W        W   68  36.814  15.311  12.122
33286W        W   69  17.320   5.226   2.777
33287W        W   70  13.594  40.081  12.947
33288W        W   71  19.678  25.097  12.343
33289W        W   72   0.449  43.276   4.929
33290W        W   73  19.311   9.736   1.219
33291W        W   74   5.894  41.442  13.955
33292W        W   75  33.048  16.569   1.139
33293W        W   76  11.899   3.409   0.848
33294W        W   77   2.374  35.955  14.365
33295W        W   78  42.628  15.316  14.435
33296W        W   79  16.881  15.936   9.831
33297W        W   80  39.544   5.722   0.011
33298W        W   81  16.724  19.068  11.591
33299W        W   82  10.435  24.869  11.084
33300W        W   83  14.048  29.880  12.145
33301W        W   84  17.345  10.691   4.644
33302W        W   85  27.974  32.077  12.141
33303W        W   86  27.204  10.376   3.852
33304W        W   87  35.488  17.067  10.909
33305W        W   88  37.503  43.862   2.854
33306W        W   89  21.099  41.842  11.989
33307W        W   90  18.178  42.348   4.186
33308W        W   91   9.119  22.934   0.425
33309W        W   92  43.903  31.562   1.386
33310W        W   93  24.315   0.871   2.701
33311W        W   94  44.866  18.548  12.970
33312W        W   95  36.922  12.709   4.770
33313W        W   96  31.911  38.271  14.014
33314W        W   97  22.458  20.155   3.631
33315W        W   98  27.131  33.628  12.620
33316W        W   99  30.860  13.200  14.202
33317W        W  100  10.706   3.530   3.856
33318W        W  101  41.046   5.651  12.514
33319W        W  102  29.964  19.283   1.458
33320W        W  103   5.869  34.564   1.628
33321W        W  104  21.333  17.049   4.637
33322W        W  105  10.270  42.853   0.664
33323W        W  106   6.397  39.999  11.173
33324W        W  107  29.351  34.634  12.935
33325W        W  108   6.175  37.072  12.163
33326W        W  109   3.970  31.978   0.802
33327W        W  110  14.258   9.291   4.548
33328W        W  111  30.500  30.006   3.163
33329W        W  112  13.642  25.093  10.678
33330W        W  113  28.178  18.053  13.926
33331W        W  114  36.176   2.482  13.795
33332W        W  115  30.367  43.760  13.504
33333W        W  116  15.816   0.822  14.557
33334W        W  117  36.509  37.079  10.790
33335W        W  118  30.744   2.873  12.440
33336W        W  119  15.102   8.840  10.871
33337W        W  120  27.801   4.852   5.165
33338W        W  121  41.486  24.854  14.427
33339W        W  122  31.592  14.251  13.484
33340W        W  123  32.120  12.621   0.189
33341W        W  124  11.128  31.143  12.972
33342W        W  125  12.593   4.351   4.658
33343W        W  126   9.280  24.976  12.863
33344W        W  127  21.237   4.312   3.138
33345W        W  128  22.140  42.435   0.655
33346W        W  129  11.307  10.232   2.202
33347W        W  130  18.527  12.379  10.218
33348W        W  131   5.498  32.463   0.306
33349W        W  132   6.831  31.206   1.355
33350W        W  133  27.584  20.299   2.396
33351W        W  134  29.568  29.458   4.140
33352W        W  135   3.441  23.637   0.831
33353W        W  136   4.436  28.457  14.705
33354W        W  137  15.180   2.359   2.176
33355W        W  138   0.242  17.565  13.499
33356W        W  139  21.707  20.655   1.431
33357W        W  140  25.233  37.277   2.871
33358W        W  141  21.194  43.552   0.800
33359W        W  142  37.027  11.143  10.909
33360W        W  143  23.796  10.111  12.824
33361W        W  144   7.399  15.246  12.809
33362W        W  145  23.584   7.728   2.429
33363W        W  146  28.530  39.906  13.503
33364W        W  147  33.078  21.684   4.481
33365W        W  148  39.931  39.233  10.426
33366W        W  149  15.278   1.739  13.861
33367W        W  150  41.898  29.202  12.479
33368W        W  151  44.409  34.459   3.610
33369W        W  152   9.877  35.418  14.441
33370W        W  153  42.467   1.368  13.410
33371W        W  154  37.452   3.111   2.266
33372W        W  155   1.665   3.409  11.551
33373W        W  156  22.169  26.758  10.704
33374W        W  157  21.573  19.262  14.526
33375W        W  158  43.527  17.514  12.417
33376W        W  159  13.732  33.741   0.967
33377W        W  160  38.193  17.869   1.592
33378W        W  161  17.010  34.773   3.230
33379W        W  162  30.433  18.337  11.170
33380W        W  163  11.826  19.571   3.740
33381W        W  164  28.094  44.291  10.138
33382W        W  165  15.315  41.807  14.831
33383W        W  166   9.935  31.198  13.957
33384W        W  167  35.388  13.391   0.383
33385W        W  168  33.653  29.843  11.161
33386W        W  169   5.285  39.812  12.107
33387W        W  170   4.933  36.397  11.804
33388W        W  171   2.310  15.701   3.395
33389W        W  172  38.921  39.957   2.285
33390W        W  173  11.763   8.343   2.189
33391W        W  174  36.955  17.049  12.394
33392W        W  175  24.493  37.065   1.773
33393W        W  176   9.215   8.937   1.879
33394W        W  177  33.932  39.815  11.635
33395W        W  178  44.951  31.387   3.721
33396W        W  179  18.729  27.038  10.579
33397W        W  180  41.346  35.033   1.333
33398W        W  181   0.959  10.047  11.728
33399W        W  182  17.011  18.729  14.295
33400W        W  183  40.041  37.537  14.515
33401W        W  184  39.452  39.368  10.573
33402W        W  185  28.364  32.307  11.190
33403W        W  186  32.005  42.464   0.113
33404W        W  187  19.681   6.368  13.355
33405W        W  188  39.484  38.280  11.082
33406W        W  189   2.665   9.355  12.292
33407W        W  190  15.396  10.626  14.977
33408W        W  191  29.126   2.457  13.668
33409W        W  192   0.654   4.051  10.371
33410W        W  193  25.617   2.151   3.195
33411W        W  194   7.348  15.896  13.655
33412W        W  195  28.953  25.313  14.459
33413W        W  196  38.008  33.638   3.369
33414W        W  197  24.244  16.138  13.402
33415W        W  198  36.401   8.720   0.758
33416W        W  199   8.276  38.482  13.552
33417W        W  200  12.162  28.607   2.757
33418W        W  201   7.595  24.578  11.474
33419W        W  202  44.057  42.403  11.097
33420W        W  203  18.217  12.529  13.412
33421W        W  204  14.578  28.776  13.792
33422W        W  205  39.302  35.303   3.588
33423W        W  206   7.302  15.258  14.353
33424W        W  207  32.901  23.190   1.003
33425W        W  208  36.109   0.990   1.647
33426W        W  209  18.716   3.700   3.183
33427W        W  210  40.643  26.954   1.076
33428W        W  211  29.108  30.908  13.095
33429W        W  212   0.728  37.405   4.980
33430W        W  213   7.800  41.153   1.699
33431W        W  214  36.347  24.055  11.166
33432W        W  215  28.023  17.776  10.430
33433W        W  216  26.608   8.925   3.139
33434W        W  217  42.760  39.533  13.016
33435W        W  218  29.386   0.264  14.321
33436W        W  219  38.338  13.278   4.690
33437W        W  220  23.716  15.950   2.796
33438W        W  221  12.173  18.609  13.572
33439W        W  222  43.180  15.587   4.224
33440W        W  223  15.866   6.493  14.844
33441W        W  224  36.908   9.857   1.273
33442W        W  225   8.832  39.032  13.405
33443W        W  226  20.471  31.656   2.076
33444W        W  227  38.503  22.617   2.907
33445W        W  228  22.543  22.878   1.518
33446W        W  229  36.021  28.722  14.331
33447W        W  230  28.753  13.047  10.990
33448W        W  231  14.199  34.482   3.263
33449W        W  232  11.397  14.893  11.517
33450W        W  233  29.758  18.204   2.793
33451W        W  234   9.764  31.409   2.144
33452W        W  235  19.598  29.732   0.536
33453W        W  236  12.604  19.255   3.238
33454W        W  237  17.714  29.484  11.393
33455W        W  238   7.638  42.507   2.919
33456W        W  239   8.996  13.186   0.619
33457W        W  240  40.569   4.508  14.950
33458W        W  241   7.710  26.524   2.862
33459W        W  242   8.395  15.522  13.790
33460W        W  243  29.374  38.390   3.717
33461W        W  244  36.986  43.312   1.376
33462W        W  245  32.987  27.411  14.306
33463W        W  246  44.790  27.922   2.349
33464W        W  247  15.705   2.470  12.954
33465W        W  248  17.642  19.796   3.501
33466W        W  249  20.694  31.855   1.651
33467W        W  250  24.122   8.782  14.224
33468W        W  251   6.931  37.828   5.024
33469W        W  252  30.490  36.999   0.192
33470W        W  253   8.948   1.024   0.133
33471W        W  254  29.526  32.542   4.160
33472W        W  255   2.801  21.238  10.535
33473W        W  256  43.983  31.600  11.500
33474W        W  257   4.301  31.668  10.698
33475W        W  258  42.495  20.269  13.528
33476W        W  259  32.109   1.886   4.581
33477W        W  260  40.289  37.325  10.704
33478W        W  261  24.627  25.292  14.430
33479W        W  262   1.984  20.433  12.964
33480W        W  263  39.528  33.160   2.742
33481W        W  264  42.120  30.092   3.758
33482W        W  265  11.617  13.459   4.905
33483W        W  266  39.797   9.400  10.274
33484W        W  267   1.443  17.520  14.948
33485W        W  268  17.775   1.036  13.507
33486W        W  269   8.843  34.860  12.994
33487W        W  270  18.029  36.039  12.441
33488W        W  271  24.150  16.502  13.017
33489W        W  272   0.366  42.605  11.660
33490W        W  273  30.441  40.930  14.927
33491W        W  274  15.793  31.476   4.440
33492W        W  275  26.474  23.327  10.690
33493W        W  276  39.939  21.542   3.587
33494W        W  277  34.854  35.871   3.550
33495W        W  278   3.729  35.055  12.397
33496W        W  279  25.109  23.070  11.346
33497W        W  280  35.606  17.097  11.430
33498W        W  281  11.879  37.035   4.017
33499W        W  282  22.670  38.823  11.335
33500W        W  283  17.354  31.841  13.013
33501W        W  284  38.105   7.933  12.535
33502W        W  285  25.625  28.943  14.485
33503W        W  286   7.524  28.170  10.222
33504W        W  287  31.485  17.071   3.262
33505W        W  288  19.936  23.635  10.799
33506W        W  289  42.013  42.719  10.245
33507W        W  290  26.215  36.344  12.246
33508W        W  291  30.187  19.407   3.669
33509W        W  292  38.159  26.556  10.039
33510W        W  293   6.186  25.040   2.669
33511W        W  294  40.499   1.702  10.362
33512W        W  295  42.975  16.809   0.790
33513W        W  296  26.460  29.451   1.823
33514W        W  297  12.503  25.521  13.144
33515W        W  298  15.778   5.546  11.101
33516W        W  299  20.736  41.451   1.426
33517W        W  300  29.516  19.727   2.974
33518W        W  301   8.474  41.423  13.495
33519W        W  302  18.033  18.129   3.110
33520W        W  303  13.974   5.248   2.657
33521W        W  304  17.168  12.602   3.098
33522W        W  305   7.696  44.975  11.226
33523W        W  306   7.827  42.361   0.743
33524W        W  307  36.713  15.377   0.327
33525W        W  308  26.460  21.689   3.368
33526W        W  309   5.481   6.313   4.524
33527W        W  310  10.385   2.322   3.176
33528W        W  311  43.070   6.157  14.748
33529W        W  312  19.573   5.021   0.811
33530W        W  313  18.608  38.290   4.523
33531W        W  314  29.477  44.654   1.310
33532W        W  315  30.664  42.398  11.938
33533W        W  316  14.616  42.617  10.348
33534W        W  317  22.364  15.136   2.783
33535W        W  318  10.983  33.121   1.699
33536W        W  319  32.040  21.620  12.489
33537W        W  320   4.245  31.594   1.911
33538W        W  321  18.296  27.454  14.032
33539W        W  322   6.786  12.667   2.178
33540W        W  323  41.775   2.313   2.668
33541W        W  324  19.338  33.859  11.950
33542W        W  325  27.598  10.906   3.393
33543W        W  326  14.218  25.893  11.614
33544W        W  327  12.439  10.250   2.292
33545W        W  328  39.546  36.044  13.318
33546W        W  329  31.979  20.249  11.431
33547W        W  330   7.723  22.510   3.456
33548W        W  331   7.940  44.519  12.453
33549W        W  332  31.679  22.113   1.725
33550W        W  333  33.086  17.072  14.869
33551W        W  334  33.355   1.716  10.800
33552W        W  335  13.889  18.059  14.828
33553W        W  336  16.528  43.467   1.049
33554W        W  337  30.613  17.845  11.982
33555W        W  338  40.566  26.660  13.131
33556W        W  339   0.938   0.373  12.890
33557W        W  340  24.372  42.907  10.544
33558W        W  341  19.350  10.197   4.809
33559W        W  342  10.043  38.970   2.755
33560W        W  343   6.107  33.411  12.853
33561W        W  344  22.467  12.882  12.871
33562W        W  345  14.918   3.807  13.835
33563W        W  346  30.959  37.419  10.872
33564W        W  347  13.306  13.127  13.933
33565W        W  348  36.374  20.044   2.119
33566W        W  349  44.721  14.402  12.316
33567W        W  350   2.685   9.396  11.079
33568W        W  351   4.731  37.565  10.629
33569W        W  352  39.886  24.354   4.234
33570W        W  353   2.762  16.271  11.431
33571W        W  354   8.709   1.256   3.544
33572W        W  355  14.639  43.364   4.657
33573W        W  356  23.530  38.256   1.709
33574W        W  357   1.442  44.689  11.928
33575W        W  358  34.972  39.420   4.191
33576W        W  359  41.560  29.976  13.356
33577W        W  360  43.294  44.970  10.954
33578W        W  361  42.191  29.051   1.683
33579W        W  362  16.964   0.940   2.220
33580W        W  363  38.789  29.191  12.868
33581W        W  364  23.157   2.810  13.057
33582W        W  365  20.220   1.359   4.586
33583W        W  366  43.579  38.767  10.639
33584W        W  367  10.038   1.722   4.248
33585W        W  368  29.099  32.108   2.393
33586W        W  369  39.500  42.878  14.663
33587W        W  370  34.151  44.360  11.265
33588W        W  371  22.153  33.918   3.969
33589W        W  372   7.089  36.557  12.976
33590W        W  373   0.494  44.204   2.329
33591W        W  374  26.595  20.136   2.605
33592W        W  375  30.588  41.346  12.833
33593W        W  376  18.723  42.217  13.286
33594W        W  377  10.866  31.999  10.739
33595W        W  378   2.181  16.975  14.451
33596W        W  379   2.112  24.002  12.216
33597W        W  380  28.598  24.577   1.754
33598W        W  381   5.272  25.503  10.788
33599W        W  382   9.828  14.360  13.969
33600W        W  383  28.970  20.287  13.432
33601W        W  384   5.340  25.125  12.673
33602W        W  385   3.496  33.495  13.925
33603W        W  386  14.022  37.374   2.355
33604W        W  387  36.567  15.838   4.633
33605W        W  388  16.456  22.221   2.383
33606W        W  389  36.354  42.599  13.896
33607W        W  390  39.551  26.463  14.035
33608W        W  391   3.657  42.476  13.836
33609W        W  392  37.989   7.428  12.413
33610W        W  393  27.755  40.561   3.585
33611W        W  394  29.384   1.738  11.576
33612W        W  395  38.782  33.385  12.781
33613W        W  396  27.578  44.930   0.442
33614W        W  397  39.019  44.997  10.741
33615W        W  398   6.246   2.170  12.411
33616W        W  399   2.420  14.295   1.437
33617W        W  400  44.442  35.434   0.661
33618W        W  401  35.036  27.567   2.903
33619W        W  402  33.589  25.329   3.157
33620W        W  403  24.281  19.104   4.323
33621W        W  404  36.054  18.682  14.816
33622W        W  405   9.263   0.265   2.697
33623W        W  406  38.907  16.758   1.214
33624W        W  407  13.855  16.673  10.728
33625W        W  408   0.142   8.981   0.096
33626W        W  409  43.582   2.522  14.522
33627W        W  410  15.122  29.425  11.678
33628W        W  411   7.131   2.663  13.139
33629W        W  412  44.909  12.990  12.470
33630W        W  413  18.274  14.178  10.730
33631W        W  414  37.587  28.188   0.412
33632W        W  415  14.291  13.853   3.649
33633W        W  416  13.582  41.998  12.841
33634W        W  417   2.305  35.161   1.239
33635W        W  418  37.817  43.266   1.792
33636W        W  419   9.678   7.151  12.932
33637W        W  420  33.077  16.049  11.985
33638W        W  421  25.536  38.597  10.256
33639W        W  422  44.948  28.148   0.872
33640W        W  423  20.336  22.092   4.597
33641W        W  424  33.424  41.013  12.164
33642W        W  425  22.927  30.100   0.723
33643W        W  426  38.289  18.839   1.516
33644W        W  427  33.773  11.196  10.195
33645W        W  428  20.541   8.746   1.894
33646W        W  429  43.359  33.951   2.736
33647W        W  430  30.656  39.129  13.483
33648W        W  431  44.847   9.591  12.418
33649W        W  432  29.233  18.009  13.943
33650W        W  433   5.313  38.421   0.506
33651W        W  434  13.602   6.685   0.870
33652W        W  435  40.803   9.542   0.891
33653W        W  436   0.319  35.089  12.868
33654W        W  437  31.610   8.131   0.457
33655W        W  438  39.427  38.051  11.755
33656W        W  439  41.298  23.556   0.814
33657W        W  440  34.569  33.870  12.030
33658W        W  441  21.153  20.675  14.288
33659W        W  442  43.326  16.542  12.367
33660W        W  443  43.310  15.645   2.355
33661W        W  444   9.595  26.483  13.049
33662W        W  445  39.034   3.687   3.637
33663W        W  446   9.817  42.756  11.605
33664W        W  447  23.081   9.293  11.601
33665W        W  448  34.992  34.442  10.727
33666W        W  449  44.856   8.194  11.853
33667W        W  450  28.708  20.215  14.334
33668W        W  451   8.194  39.076  10.693
33669W        W  452   5.675  38.618  11.541
33670W        W  453  19.311  10.774   2.631
33671W        W  454   9.611  27.048   0.628
33672W        W  455  15.145   2.596  10.896
33673W        W  456   7.061  32.288  13.998
33674W        W  457  34.096  37.466  12.784
33675W        W  458   8.771   5.192  13.575
33676W        W  459  11.673   1.879  14.234
33677W        W  460  20.931  40.650   1.668
33678W        W  461  15.537   0.591   4.537
33679W        W  462   5.847   4.305  14.301
33680W        W  463  25.990  17.179  14.231
33681W        W  464  11.447  40.430   0.990
33682W        W  465  28.644  24.612  14.844
33683W        W  466  41.770   5.327  14.067
33684W        W  467   1.844  25.121   2.312
33685W        W  468   4.823  43.812  14.511
33686W        W  469  16.707  32.121   4.660
33687W        W  470   6.797   0.426  14.316
33688W        W  471  21.215   5.818  13.634
33689W        W  472  36.817   4.305   1.377
33690W        W  473  18.614  22.654  14.510
33691W        W  474  16.338   0.973  14.545
33692W        W  475  25.967  23.670  14.550
33693W        W  476  37.607  39.982  12.406
33694W        W  477  37.416   7.342   5.549
33695W        W  478   8.082  38.364   4.533
33696W        W  479  36.605  26.048   4.648
33697W        W  480   6.185   7.913   3.436
33698W        W  481  30.672  30.023   2.142
33699W        W  482  40.350  37.573  11.183
33700W        W  483  24.778  15.908  11.045
33701W        W  484   0.257  11.144  14.022
33702W        W  485  24.896  12.183   2.794
33703W        W  486  41.034  34.080  11.211
33704W        W  487  17.340  40.092   2.403
33705W        W  488  41.798  31.829   5.082
33706W        W  489  33.560  16.245   0.752
33707W        W  490  29.033  18.297  14.331
33708W        W  491  23.120  34.402  11.871
33709W        W  492  41.621  16.046   2.602
33710W        W  493  42.861   3.871  14.460
33711W        W  494  24.550  16.799   2.627
33712W        W  495   4.897  21.950   0.745
33713W        W  496  29.636  32.437  13.384
33714W        W  497  40.196  15.595  12.565
33715W        W  498   0.999  12.049   1.888
33716W        W  499  13.308  17.800   0.948
33717W        W  500  37.448  26.039  12.561
33718W        W  501  14.852  25.193   0.521
33719W        W  502   7.358   2.888  13.547
33720W        W  503  44.559  25.559   4.393
33721W        W  504   2.417  12.930  12.227
33722W        W  505   8.916  43.281  13.856
33723W        W  506  32.510  14.861  12.919
33724W        W  507  19.311  44.413  14.681
33725W        W  508  13.185  43.217   1.797
33726W        W  509  27.235  42.064   4.196
33727W        W  510  42.307   8.120   1.446
33728W        W  511  42.410  39.544  13.650
33729W        W  512  28.111   9.632   1.501
33730W        W  513  24.941  39.461  10.606
33731W        W  514   3.581  14.312   5.036
33732W        W  515  34.350   3.206   0.777
33733W        W  516  13.937  42.880   3.846
33734W        W  517  19.674  26.611   9.822
33735W        W  518   2.820  39.943   4.877
33736W        W  519  39.886  29.384   1.688
33737W        W  520   8.131  42.554   1.545
33738W        W  521  35.958  30.495  12.118
33739W        W  522  23.301   5.377   2.856
33740W        W  523  14.777  19.359  13.491
33741W        W  524  14.293   4.965   4.543
33742W        W  525  12.654  14.253  11.005
33743W        W  526  42.843   4.941   3.752
33744W        W  527  27.521  19.081   3.047
33745W        W  528  36.496  29.144   0.232
33746W        W  529  21.773  17.300  12.960
33747W        W  530   2.175   2.208   2.458
33748W        W  531  28.632  28.574   2.719
33749W        W  532  33.445  42.847   1.724
33750W        W  533  33.096  21.521  12.515
33751W        W  534  32.534  26.076  10.669
33752W        W  535  38.390  42.505   0.790
33753W        W  536   2.461  26.642   4.205
33754W        W  537   9.671   2.297  13.302
33755W        W  538  16.795  32.453  12.847
33756W        W  539  30.565  18.463  13.986
33757W        W  540  13.213  42.519   1.213
33758W        W  541   6.679  31.617  11.148
33759W        W  542  30.732  26.720   1.834
33760W        W  543  36.392  29.180  10.463
33761W        W  544  29.196  36.590   4.522
33762W        W  545  36.232  13.376  12.577
33763W        W  546  11.400  37.882   1.682
33764W        W  547  39.439  27.186  12.943
33765W        W  548  13.243  43.032   1.307
33766W        W  549  32.057  30.530   1.923
33767W        W  550  27.263  24.432  11.494
33768W        W  551  29.552   1.920  13.782
33769W        W  552   4.916  40.991  13.445
33770W        W  553  21.764  37.014   0.471
33771W        W  554  15.959  18.414  11.612
33772W        W  555  41.174  29.431   1.530
33773W        W  556   6.872  20.291  14.786
33774W        W  557  13.809   1.291   2.270
33775W        W  558   5.400  40.516   4.923
33776W        W  559  18.678  20.641   2.925
33777W        W  560   0.628  25.829  11.826
33778W        W  561   5.320  11.315  11.471
33779W        W  562  44.804  36.318  13.208
33780W        W  563  24.069  25.411  14.330
33781W        W  564  39.449   9.695   2.436
33782W        W  565  43.303  12.463  10.343
33783W        W  566  29.764  28.713  14.782
33784W        W  567  32.407  25.512  11.548
33785W        W  568   2.297  35.927   3.514
33786W        W  569  29.580  19.741  12.521
33787W        W  570  33.625  27.984   0.873
33788W        W  571   2.403  24.478   2.631
33789W        W  572  33.010  12.270   4.557
33790W        W  573   2.956  44.730   0.796
33791W        W  574  32.055   2.752  13.118
33792W        W  575   5.915   6.502   0.686
33793W        W  576   6.813   9.690   4.157
33794W        W  577  40.436   5.621   2.251
33795W        W  578  27.568  27.756   3.820
33796W        W  579  28.888  15.768   4.416
33797W        W  580  35.065   2.818  11.886
33798W        W  581  15.340  16.450   2.737
33799W        W  582  29.898  42.314  12.505
33800W        W  583  13.996   9.472  13.112
33801W        W  584  30.052  20.503  14.080
33802W        W  585  19.159   1.912   1.379
33803W        W  586  38.232   4.954  13.505
33804W        W  587  43.204  19.625  12.608
33805W        W  588   7.807  29.092   4.808
33806W        W  589   3.159  40.521  13.785
33807W        W  590  32.027  12.613  13.830
33808W        W  591  34.022  26.113  12.122
33809W        W  592  31.418   7.812   0.076
33810W        W  593  43.794  40.203   4.311
33811W        W  594  37.980  41.536   3.648
33812W        W  595  17.657   9.661  14.724
33813W        W  596  26.274  16.578   1.274
33814W        W  597  33.515  37.522   0.525
33815W        W  598   1.968  16.948  10.731
33816W        W  599  12.368  19.568  11.245
33817W        W  600  39.692  11.086   0.853
33818W        W  601  26.483  39.324   5.096
33819W        W  602  30.371  13.795  14.689
33820W        W  603  26.502  18.300  12.021
33821W        W  604  24.463   4.937  14.002
33822W        W  605  11.389  22.694  13.904
33823W        W  606  36.254  34.529  12.955
33824W        W  607  38.483  13.824   3.610
33825W        W  608  30.315  10.969   2.214
33826W        W  609   9.140   0.055  11.860
33827W        W  610  14.171  25.075   2.389
33828W        W  611   0.432   8.318  14.082
33829W        W  612  19.547  10.160  13.137
33830W        W  613  10.353  11.726   2.406
33831W        W  614  26.677   0.634   3.812
33832W        W  615  41.779   1.211   2.265
33833W        W  616  27.216  25.993  10.709
33834W        W  617  44.950  44.442  12.946
33835W        W  618  40.856  15.011  11.145
33836W        W  619  18.776   8.666  14.466
33837W        W  620   0.290  35.885  14.259
33838W        W  621  35.948  10.925   0.907
33839W        W  622  41.298  32.517  14.882
33840W        W  623  12.088  41.780  14.999
33841W        W  624  43.403  41.806  12.860
33842W        W  625  20.040  39.025  13.447
33843W        W  626  40.024  19.576   3.878
33844W        W  627  33.339   2.218   1.276
33845W        W  628   1.792  19.655   1.916
33846W        W  629   1.365  33.010  11.674
33847W        W  630  16.664  37.781   3.744
33848W        W  631  38.386  36.587   4.658
33849W        W  632  31.340   0.335  13.382
33850W        W  633  13.222  29.515   0.717
33851W        W  634  16.120  26.279  13.796
33852W        W  635  11.306  10.392   3.713
33853W        W  636  43.001  41.574   4.034
33854W        W  637  15.339  39.091   5.708
33855W        W  638   3.462  33.151  14.318
33856W        W  639  23.187  39.131   2.729
33857W        W  640  43.432  40.762   4.223
33858W        W  641  33.582  24.056   2.325
33859W        W  642   8.710  26.599   3.727
33860W        W  643  29.665  10.296   1.426
33861W        W  644   5.281  40.157   4.552
33862W        W  645  39.360  18.149  10.703
33863W        W  646  11.553  24.571  13.581
33864W        W  647  36.051  13.089   4.088
33865W        W  648  27.877  40.475   0.848
33866W        W  649  18.727   5.447  11.880
33867W        W  650  36.988  16.313   1.727
33868W        W  651  39.665   4.216  11.627
33869W        W  652  28.938  44.992   4.569
33870W        W  653  32.205  38.854  10.566
33871W        W  654  18.417  23.636  14.515
33872W        W  655  33.052  21.853   0.968
33873W        W  656  18.332   3.299  12.916
33874W        W  657  29.144  13.189  10.705
33875W        W  658  25.155  23.126  11.869
33876W        W  659   6.215  39.566   2.658
33877W        W  660  17.335  36.010  14.549
33878W        W  661  34.640   5.769   3.598
33879W        W  662  17.579  33.203   4.569
33880W        W  663  44.383   7.252   0.848
33881W        W  664   2.382  41.502   1.274
33882W        W  665  13.586  22.140  13.069
33883W        W  666  25.668  12.624   1.836
33884W        W  667  15.630  43.246   4.313
33885W        W  668  28.647  28.497   0.764
33886W        W  669  23.231  33.944  11.070
33887W        W  670  37.535  37.633   3.567
33888W        W  671  44.342  20.033  13.060
33889W        W  672  40.254   3.697   0.451
33890W        W  673  32.158  27.159  14.364
33891W        W  674  34.403   3.672   3.555
33892W        W  675   7.507  29.297   2.699
33893W        W  676  32.663  37.048  13.813
33894W        W  677  31.745  28.023  14.588
33895W        W  678  39.862  42.007  12.178
33896W        W  679   8.753  40.435   1.479
33897W        W  680  15.898   2.912   3.279
33898W        W  681  13.859  26.073  14.611
33899W        W  682  27.521  43.150  13.335
33900W        W  683  43.740  41.288   0.456
33901W        W  684   6.958  38.966  11.910
33902W        W  685   5.795  28.488   4.269
33903W        W  686  32.348  23.776   1.402
33904W        W  687  13.091   0.190   1.896
33905W        W  688  20.468  35.776   1.603
33906W        W  689  11.632  34.649  10.812
33907W        W  690   2.204   3.895   1.365
33908W        W  691  15.555  13.108  13.069
33909W        W  692  27.221   4.246  11.497
33910W        W  693  24.976  19.795   1.498
33911W        W  694  18.937  36.993   3.756
33912W        W  695  43.344   8.874   4.572
33913W        W  696  40.270  38.841  10.268
33914W        W  697  36.879  12.749  13.671
33915W        W  698  26.466  32.055   1.289
33916W        W  699  12.894   3.773   2.197
33917W        W  700  19.373  28.129  12.853
33918W        W  701  32.586  41.743   0.820
33919W        W  702  22.170  25.745   1.227
33920W        W  703  17.301  43.318   3.689
33921W        W  704  38.209  14.731   1.363
33922W        W  705  39.555   0.817  14.827
33923W        W  706  17.060   7.687   0.918
33924W        W  707  28.175  12.777   1.267
33925W        W  708  32.188  27.348   1.406
33926W        W  709  21.647  38.289  11.051
33927W        W  710  20.661   0.849  12.577
33928W        W  711   1.896   1.165  12.562
33929W        W  712   9.806  22.008  13.411
33930W        W  713  44.617  13.543  11.184
33931W        W  714  27.470  22.977   3.379
33932W        W  715  22.601  28.628  11.283
33933W        W  716  39.438  41.609  12.577
33934W        W  717   7.815  12.820   4.597
33935W        W  718  11.459  15.355   2.368
33936W        W  719  21.608  33.646   1.315
33937W        W  720  37.523   7.749   3.575
33938W        W  721   3.478  13.650   3.815
33939W        W  722  12.224  11.131   2.639
33940W        W  723   9.171  27.543   4.664
33941W        W  724   0.886  21.266   2.236
33942W        W  725  29.628  30.642  12.955
33943W        W  726  24.327  30.638   5.028
33944W        W  727  37.415  11.306   4.607
33945W        W  728  27.470   3.757  14.035
33946W        W  729  34.948  38.524   2.286
33947W        W  730  41.126   1.829  13.337
33948W        W  731   6.943   8.870  14.919
33949W        W  732  38.669  43.878  11.720
33950W        W  733   4.297  12.221  10.878
33951W        W  734   5.505  21.083   4.850
33952W        W  735  29.448  24.587  14.447
33953W        W  736  38.534  16.080   1.510
33954W        W  737  10.721  10.289  10.682
33955W        W  738   9.103  19.454  14.544
33956W        W  739  37.812  23.833  10.276
33957W        W  740   1.930  15.145  13.879
33958W        W  741   3.624  22.196  11.068
33959W        W  742  27.653  29.650  11.124
33960W        W  743  33.099  15.741   2.829
33961W        W  744  37.396  11.639   0.916
33962W        W  745  19.738   6.458   1.427
33963W        W  746   4.883  39.023   0.035
33964W        W  747  39.554  18.499   3.288
33965W        W  748  25.688  29.359  12.149
33966W        W  749  26.920  17.609   3.933
33967W        W  750  29.340   9.308  11.072
33968W        W  751   7.837  39.308   0.462
33969W        W  752   1.035  36.474   0.702
33970W        W  753  24.612  24.884  13.000
33971W        W  754   4.350  38.656   1.511
33972W        W  755  19.673  43.304  12.285
33973W        W  756  33.515  39.431  10.120
33974W        W  757  39.395  32.659  12.672
33975W        W  758  26.506  34.012  11.517
33976W        W  759  15.344   8.591   0.767
33977W        W  760   2.234   1.274  14.050
33978W        W  761   1.325  35.896  11.136
33979W        W  762   3.429  39.415  12.964
33980W        W  763  22.535  35.524   3.866
33981W        W  764  42.819   8.669  14.376
33982W        W  765   7.684  27.455   4.721
33983W        W  766  15.218   3.336   0.817
33984W        W  767  11.266  25.546  10.619
33985W        W  768  14.544  21.130   4.531
33986W        W  769  23.491  32.655  11.127
33987W        W  770  13.497  26.207  11.916
33988W        W  771  33.736  29.403  13.894
33989W        W  772  32.846  23.631  14.818
33990W        W  773  28.015  42.627  14.739
33991W        W  774  12.765  39.095  12.547
33992W        W  775  28.042  24.640  10.850
33993W        W  776  24.498  24.984   1.425
33994W        W  777  23.173  35.978   4.750
33995W        W  778  21.527  11.156  12.558
33996W        W  779   1.853  24.073  10.749
33997W        W  780   4.442  44.078  11.974
33998W        W  781  13.839  30.123  12.615
33999W        W  782   2.312  16.081  14.073
34000W        W  783  22.395  14.313  14.645
34001W        W  784  20.316  21.561   3.294
34002W        W  785   0.532  23.398  11.549
34003W        W  786   7.274  14.415   2.033
34004W        W  787  30.142  38.836  11.332
34005W        W  788  21.434  31.560   0.842
34006W        W  789   3.886  43.802  10.762
34007W        W  790  11.362  24.038   4.073
34008W        W  791  42.036  16.930  11.866
34009W        W  792  40.376  43.341  12.622
34010W        W  793  13.423   2.506  11.067
34011W        W  794   1.793  22.984  13.928
34012W        W  795  39.651   6.090  13.434
34013W        W  796  35.841  29.709   3.729
34014W        W  797  43.813  36.947   2.930
34015W        W  798  32.625  28.515  11.685
34016W        W  799  40.828   5.227  14.297
34017W        W  800  21.207  11.238   4.987
34018W        W  801  15.396  18.836  13.807
34019W        W  802  24.530  30.419  13.729
34020W        W  803  11.124  44.686  13.966
34021W        W  804  44.767  26.579   2.675
34022W        W  805  17.074   8.860   1.324
34023W        W  806  21.142  21.349  11.524
34024W        W  807  40.327  32.157  10.756
34025W        W  808  30.112  39.637  14.909
34026W        W  809  13.638   3.997  12.489
34027W        W  810  32.107   3.405  10.503
34028W        W  811   7.915  26.972  14.988
34029W        W  812  27.642  38.528  12.808
34030W        W  813  34.269  13.788  11.956
34031W        W  814  40.577   4.263  10.679
34032W        W  815  22.828  38.173   3.710
34033W        W  816   1.374   0.196   4.683
34034W        W  817  43.093   0.006  14.421
34035W        W  818  11.709   6.759   4.899
34036W        W  819   4.173  26.588  13.384
34037W        W  820  15.066   4.208   0.886
34038W        W  821  11.729  13.278   4.453
34039W        W  822   6.122  14.622  13.620
34040W        W  823  13.093  37.780  12.930
34041W        W  824  29.132  29.312   2.671
34042W        W  825   8.844   7.747  13.795
34043W        W  826   4.509   9.634   3.616
34044W        W  827  25.977  16.180  10.698
34045W        W  828   3.884   5.454   4.609
34046W        W  829  26.182  14.836  14.882
34047W        W  830  30.092  40.376  11.482
34048W        W  831  37.826  11.721   0.625
34049W        W  832  43.456  28.337   1.973
34050W        W  833  42.639   8.243   2.693
34051W        W  834  29.076  10.587  14.820
34052W        W  835  14.517  21.204  13.590
34053W        W  836  12.046  39.537  13.608
34054W        W  837   8.984   3.680  10.533
34055W        W  838   5.832  19.179   1.167
34056W        W  839  20.652  11.468   1.267
34057W        W  840  14.732  17.767  13.443
34058W        W  841  14.626   4.435  11.568
34059W        W  842  27.654  19.585  13.601
34060W        W  843   7.361  22.914  11.221
34061W        W  844  13.979  42.172   5.024
34062W        W  845  16.602  21.745   2.306
34063W        W  846   2.273  25.702  12.872
34064W        W  847  38.343   7.850   0.778
34065W        W  848  27.510  13.611  13.968
34066W        W  849  16.530  36.540  10.107
34067W        W  850  34.527  44.988   4.157
34068W        W  851  39.459   2.225   2.385
34069W        W  852  23.934  35.531   3.616
34070W        W  853   1.516   2.620  11.807
34071W        W  854  24.023  13.255   1.263
34072W        W  855  16.929  37.607   4.224
34073W        W  856  35.347  32.040   2.278
34074W        W  857  20.219  35.243   4.150
34075W        W  858  15.500  25.932   4.580
34076W        W  859   4.894  35.041  10.722
34077W        W  860  21.969  37.498  13.810
34078W        W  861   1.215  13.620   1.011
34079W        W  862  43.036  10.879  10.816
34080W        W  863  44.419  12.815  12.392
34081W        W  864  31.878  44.862   3.794
34082W        W  865  38.420  28.464  12.998
34083W        W  866  39.047  18.350   3.123
34084W        W  867   4.536   7.314  14.723
34085W        W  868  10.270  28.921  12.050
34086W        W  869  15.517  42.344  14.142
34087W        W  870  38.431  41.522   3.350
34088W        W  871   9.570  13.311  14.859
34089W        W  872  38.303  23.206   3.597
34090W        W  873  41.272  38.464  12.910
34091W        W  874   3.219   2.479   3.687
34092W        W  875   8.658  36.048   3.242
34093W        W  876   7.245   3.194  13.147
34094W        W  877  30.093  24.859  13.862
34095W        W  878  36.263  17.032   1.695
34096W        W  879   5.248  44.618  12.384
34097W        W  880  13.078  14.814  14.977
34098W        W  881  13.072  39.516  11.503
34099W        W  882  23.480  27.077   3.200
34100W        W  883   7.020   5.923  11.391
34101W        W  884  18.729   9.773  11.193
34102W        W  885   4.454  16.206  14.816
34103W        W  886  19.042  33.948  10.653
34104W        W  887   9.697   0.441   4.432
34105W        W  888  39.848  17.321  13.103
34106W        W  889  33.768  21.580  12.924
34107W        W  890  26.623  22.062   4.170
34108W        W  891  31.942  18.588   0.985
34109W        W  892   8.638  41.376  11.154
34110W        W  893  31.851  10.554  14.730
34111W        W  894  23.161   1.112  10.762
34112W        W  895  14.619  21.480   0.445
34113W        W  896   5.683  44.983   4.913
34114W        W  897  12.756  31.696   0.599
34115W        W  898  36.973  38.379   0.977
34116W        W  899  18.013   6.242  14.306
34117W        W  900  29.170  19.512  14.013
34118W        W  901   1.750  17.756   2.688
34119W        W  902  18.324  19.148   3.907
34120W        W  903  30.856  25.137   4.175
34121W        W  904  32.818  32.557   1.061
34122W        W  905  11.281  16.168   4.431
34123W        W  906  44.474  19.135   2.641
34124W        W  907   5.973  33.633  14.475
34125W        W  908   9.207  30.792  12.099
34126W        W  909  22.170  36.418  13.900
34127W        W  910  36.556   5.856  11.718
34128W        W  911  39.223  13.660  11.432
34129W        W  912  13.639  29.856  14.860
34130W        W  913  31.718  21.786   3.096
34131W        W  914  32.991   4.410  12.028
34132W        W  915   8.048  37.659   3.552
34133W        W  916   8.464   8.518   5.383
34134W        W  917   1.435  43.244   1.471
34135W        W  918  31.822  40.696   0.768
34136W        W  919   0.393   9.504   0.426
34137W        W  920  12.359  34.338  10.340
34138W        W  921  14.554  10.394  12.942
34139W        W  922  39.809   6.345  12.173
34140W        W  923  11.720  23.719   0.425
34141W        W  924  25.858  38.775   1.811
34142W        W  925  27.938  42.983   2.473
34143W        W  926  32.496  30.140  12.404
34144W        W  927  20.132  19.088  12.436
34145W        W  928  33.739   5.952   0.593
34146W        W  929  35.324  32.869  11.144
34147W        W  930  39.140  39.309   1.011
34148W        W  931  19.951  32.579   3.440
34149W        W  932   5.431   0.935  12.717
34150W        W  933   2.555   1.156  14.505
34151W        W  934  43.449  31.913  13.875
34152W        W  935  30.647  35.912  12.013
34153W        W  936  44.388   8.247  13.114
34154W        W  937   6.357  14.424  12.487
34155W        W  938   3.230   3.910   3.365
34156W        W  939  29.178  30.703  11.299
34157W        W  940  32.061  38.478   1.372
34158W        W  941   1.057  15.681  12.434
34159W        W  942  10.163  36.614  11.874
34160W        W  943  12.878   1.651  12.015
34161W        W  944  37.298  42.500  13.866
34162W        W  945  22.022  36.976   0.919
34163W        W  946  41.490  20.206  11.716
34164W        W  947  44.604  35.797   1.994
34165W        W  948  35.053  23.745   3.695
34166W        W  949   0.435   9.316   2.175
34167W        W  950  37.821  19.189  11.601
34168W        W  951  34.354  39.886  14.456
34169W        W  952  14.166  21.784   2.327
34170W        W  953  10.922  22.213   0.066
34171W        W  954  44.199  29.061  10.680
34172W        W  955  15.207  10.060  13.880
34173W        W  956   3.470  32.536  13.878
34174W        W  957  10.104  38.739   3.262
34175W        W  958   8.885  13.436  10.425
34176W        W  959  14.276  10.714  12.451
34177W        W  960   9.702  42.347  10.809
34178W        W  961  36.195  18.026   0.029
34179W        W  962  26.746  31.531  10.637
34180W        W  963  24.082  11.199   2.456
34181W        W  964  31.427   5.960  10.342
34182W        W  965  26.416  26.595   0.158
34183W        W  966  13.083  41.842  13.715
34184W        W  967  10.240  11.637  11.837
34185W        W  968  16.816  42.927  14.311
34186W        W  969  22.973  22.021  12.930
34187W        W  970  17.397  16.298  14.415
34188W        W  971  29.240  22.125  13.320
34189W        W  972  32.996  30.806  11.213
34190W        W  973  14.178  17.251   2.435
34191W        W  974  22.665  44.950  12.137
34192W        W  975  20.031  30.656   1.477
34193W        W  976   6.864   4.224   0.010
34194W        W  977   5.403  42.062  12.927
34195W        W  978  17.261   7.955   3.533
34196W        W  979   4.562   2.466  11.149
34197W        W  980  40.926  24.821  10.891
34198W        W  981  27.499  21.484   1.699
34199W        W  982  28.231  37.846   3.679
34200W        W  983  36.306   5.139  14.832
34201W        W  984  25.748  43.813   2.580
34202W        W  985  15.365   5.105   3.154
34203W        W  986  43.733   2.718  12.419
34204W        W  987  13.896  23.599  11.995
34205W        W  988   2.693  29.449   4.716
34206W        W  989  19.638  27.764  12.419
34207W        W  990   3.238   5.865   1.244
34208W        W  991  40.726   0.503   2.515
34209W        W  992  24.685  32.573   3.891
34210W        W  993  23.775  33.959   1.535
34211W        W  994  42.570  33.035  12.137
34212W        W  995  41.901  26.531   3.086
34213W        W  996  19.984  31.848  14.285
34214W        W  997   3.419  25.731  13.539
34215W        W  998   4.889  39.314   2.847
34216W        W  999  21.160  32.418  11.370
34217W        W 1000  42.422  10.406   3.789
34218W        W 1001   7.904  31.017  11.163
34219W        W 1002  18.745  22.220  12.525
34220W        W 1003  39.534  40.844   2.333
34221W        W 1004  18.567  36.352   2.219
34222W        W 1005  40.491  29.467  12.056
34223W        W 1006   0.371  33.551  13.094
34224W        W 1007  29.816  25.823  11.139
34225W        W 1008  44.859  35.986  12.189
34226W        W 1009   8.445  40.871  14.696
34227W        W 1010  23.120   7.324  12.584
34228W        W 1011  15.149  38.035   1.060
34229W        W 1012  27.526  21.708   2.757
34230W        W 1013  18.954  14.010  14.290
34231W        W 1014  39.713   1.012   3.663
34232W        W 1015  43.290  24.152  12.890
34233W        W 1016   4.474  12.902  12.170
34234W        W 1017  27.397   0.952  13.030
34235W        W 1018   6.228  18.555   4.177
34236W        W 1019  30.177  41.757   3.686
34237W        W 1020  18.824   7.676  12.556
34238W        W 1021  21.680   5.298  14.566
34239W        W 1022  18.000  11.142  13.455
34240W        W 1023   6.224  24.022  10.668
34241W        W 1024  22.503  37.299  14.793
34242W        W 1025  32.517   6.483   4.138
34243W        W 1026  11.520   4.819   5.100
34244W        W 1027  36.933  37.158  11.167
34245W        W 1028  44.889   5.223  14.976
34246W        W 1029  20.520  17.017  12.437
34247W        W 1030  30.894  44.660  11.187
34248W        W 1031   6.851  34.395   4.578
34249W        W 1032  40.389  25.489   4.896
34250W        W 1033   5.540  34.808   2.794
34251W        W 1034  25.704  43.994   4.111
34252W        W 1035  16.959  23.363  12.075
34253W        W 1036  16.594   1.372   1.571
34254W        W 1037   6.223   8.816  11.883
34255W        W 1038  40.414   9.075   9.902
34256W        W 1039  42.116  18.943  11.148
34257W        W 1040   8.660  26.063  12.502
34258W        W 1041  19.766  13.616  13.358
34259W        W 1042   3.190  15.383   2.391
34260W        W 1043   2.406  13.206  10.654
34261W        W 1044  30.500   3.767   3.149
34262W        W 1045  15.146   8.071   0.816
34263W        W 1046  34.745  41.579   3.480
34264W        W 1047   4.265   1.806  10.962
34265W        W 1048  19.634  21.223   0.816
34266W        W 1049  35.479   3.490   2.159
34267W        W 1050  36.051   3.071  13.063
34268W        W 1051  24.591  13.006   0.465
34269W        W 1052   2.360  36.016  12.562
34270W        W 1053  37.097  27.568   2.200
34271W        W 1054   0.221  17.186   2.232
34272W        W 1055  20.800   5.698   1.781
34273W        W 1056  26.475  31.355   0.925
34274W        W 1057  42.592  42.714  11.051
34275W        W 1058  34.254   9.713   4.169
34276W        W 1059   1.861  15.324  11.554
34277W        W 1060  42.481   7.714  14.803
34278W        W 1061  39.889  18.537   1.393
34279W        W 1062  29.694  32.482   3.220
34280W        W 1063   0.764  27.682   0.930
34281W        W 1064  16.559   9.553  13.485
34282W        W 1065  16.227  11.995   2.381
34283W        W 1066   2.779  27.521  14.847
34284W        W 1067  32.543  36.518   0.057
34285W        W 1068  25.146  25.503   3.481
34286W        W 1069   0.700  30.529   4.314
34287W        W 1070  44.585   6.864  12.638
34288W        W 1071  16.567  28.456  12.538
34289W        W 1072  14.641   2.787  14.341
34290W        W 1073  35.487   4.109  14.533
34291W        W 1074  13.592  39.007   0.739
34292W        W 1075  38.443  35.940  13.280
34293W        W 1076  26.609  19.216   4.671
34294W        W 1077  32.435  23.664   4.506
34295W        W 1078   4.107  30.163   4.603
34296W        W 1079   8.359   2.683  14.972
34297W        W 1080   2.727  16.671  11.112
34298W        W 1081  39.308  20.219  14.742
34299W        W 1082  36.322   6.038   0.164
34300W        W 1083  41.916   2.495  10.317
34301W        W 1084  16.711  43.985   4.154
34302W        W 1085  19.927  29.504  14.567
34303W        W 1086   7.148  27.147   1.885
34304W        W 1087   9.767  19.347   1.864
34305W        W 1088  44.202  29.994  14.255
34306W        W 1089  12.504   6.854  10.280
34307W        W 1090  34.177  15.611   2.788
34308W        W 1091   5.591   5.565   2.937
34309W        W 1092  39.203   1.199  11.157
34310W        W 1093   4.837   3.490  11.186
34311W        W 1094   3.853   7.102  10.717
34312W        W 1095  25.430  15.869  14.781
34313W        W 1096   4.247  35.585  13.510
34314W        W 1097  19.147   2.966   1.419
34315W        W 1098  18.139   7.924   1.845
34316W        W 1099  24.255  12.564   2.404
34317W        W 1100  16.721  40.912  13.546
34318W        W 1101  27.100   9.791  12.489
34319W        W 1102  13.950  27.732   4.772
34320W        W 1103  29.465  19.235   2.728
34321W        W 1104  37.025  30.787  12.083
34322W        W 1105  27.356  32.569  12.437
34323W        W 1106  19.981  33.454  14.763
34324W        W 1107   1.171  37.957  14.892
34325W        W 1108  27.558  29.457  12.823
34326W        W 1109   7.818  33.888   3.311
34327W        W 1110  41.225   9.880   0.953
34328W        W 1111   5.178  28.415   2.843
34329W        W 1112   6.754  39.702   4.801
34330W        W 1113  42.316  21.915   2.656
34331W        W 1114  20.663  31.034  11.753
34332W        W 1115   4.732   5.124   5.112
34333W        W 1116   3.687  14.269   2.977
34334W        W 1117   2.811  21.116  12.972
34335W        W 1118  34.636   8.782  11.627
34336W        W 1119  27.493  37.627  11.632
34337W        W 1120  11.887  23.164   4.093
34338W        W 1121  41.854  21.233  14.091
34339W        W 1122   0.834  28.949   1.403
34340W        W 1123   4.653  23.743   0.201
34341W        W 1124  36.953  30.531  13.286
34342W        W 1125  10.921  16.036  10.985
34343W        W 1126  26.242  14.110   3.288
34344W        W 1127  21.005   5.888   4.178
34345W        W 1128   1.496  42.999   0.718
34346W        W 1129  12.003  27.240   1.539
34347W        W 1130  38.027  32.368   0.889
34348W        W 1131  38.606  10.350  11.115
34349W        W 1132  38.818  38.302  14.380
34350W        W 1133   6.733  19.569  10.426
34351W        W 1134  14.580  36.574  14.548
34352W        W 1135  41.763  19.069   1.251
34353W        W 1136   0.896  35.457   1.461
34354W        W 1137  27.862  17.665  14.910
34355W        W 1138  35.704  32.674  10.852
34356W        W 1139   8.763  11.670  13.456
34357W        W 1140  31.153  41.917  11.680
34358W        W 1141  28.170  35.914  11.171
34359W        W 1142  28.672   1.269  14.819
34360W        W 1143  44.608  37.360  14.004
34361W        W 1144  18.801  13.227   2.233
34362W        W 1145   9.828  17.870  11.949
34363W        W 1146  18.815  40.847   0.813
34364W        W 1147  23.738  28.943  11.399
34365W        W 1148  30.601  29.040  12.373
34366W        W 1149   2.834   6.212  13.850
34367W        W 1150  29.072  35.888   4.058
34368W        W 1151  39.267  28.479   1.030
34369W        W 1152  34.053  19.324   3.790
34370W        W 1153  35.000  11.785   4.880
34371W        W 1154  22.652  29.930  13.924
34372W        W 1155  35.125  18.829  13.467
34373W        W 1156  10.291   8.362   0.712
34374W        W 1157  29.240  13.524  14.007
34375W        W 1158  24.595  34.673  13.306
34376W        W 1159  40.059  42.473  14.319
34377W        W 1160  30.923  41.266   0.780
34378W        W 1161   1.002  28.162  13.593
34379W        W 1162  36.047   1.923   1.576
34380W        W 1163   2.395  42.289  13.341
34381W        W 1164  37.876  42.569  12.534
34382W        W 1165  35.521  28.563  11.411
34383W        W 1166   0.470  27.720  14.166
34384W        W 1167   7.762  25.152   0.805
34385W        W 1168  24.658  20.675  12.127
34386W        W 1169  13.775  20.688  10.588
34387W        W 1170  43.727  24.335   3.670
34388W        W 1171   5.666  33.293   0.471
34389W        W 1172  34.602  39.231   2.771
34390W        W 1173   9.338  40.378  10.255
34391W        W 1174  25.732  17.971   0.270
34392W        W 1175  30.424   8.661   0.075
34393W        W 1176  20.445  22.213   1.863
34394W        W 1177  36.149  33.566  14.894
34395W        W 1178  41.775   4.633   4.546
34396W        W 1179   6.261  26.698   4.770
34397W        W 1180  14.888  21.626   4.357
34398W        W 1181  12.150  31.103   1.787
34399W        W 1182  11.080  18.005   0.238
34400W        W 1183  17.299  37.077   1.961
34401W        W 1184  28.010   8.687  11.570
34402W        W 1185  19.559   3.042  13.879
34403W        W 1186   7.586  12.279   1.308
34404W        W 1187  13.092  29.427   4.166
34405W        W 1188  11.139   1.204  10.773
34406W        W 1189  37.136  23.170  12.035
34407W        W 1190  23.055  25.129   1.288
34408W        W 1191  24.050  24.240  14.002
34409W        W 1192  18.690  17.217  11.850
34410W        W 1193  43.090   1.836   0.910
34411W        W 1194  44.857  42.060  12.213
34412W        W 1195  11.637  21.064  10.927
34413W        W 1196  24.178  40.452  11.794
34414W        W 1197  26.657  38.012   2.723
34415W        W 1198  16.053  12.782  13.706
34416W        W 1199  21.693  37.226   3.483
34417W        W 1200  26.077  36.207   0.894
34418W        W 1201  43.873  38.577  14.867
34419W        W 1202  34.875  43.423   2.307
34420W        W 1203  32.613   7.238  13.443
34421W        W 1204   1.690  40.808  12.795
34422W        W 1205  36.517  39.482   2.580
34423W        W 1206  21.518  22.086  13.577
34424W        W 1207  33.896  21.731  11.655
34425W        W 1208  12.801  43.504   0.780
34426W        W 1209  31.063  28.419   3.210
34427W        W 1210  16.608   7.845  10.780
34428W        W 1211  38.360  14.796  11.954
34429W        W 1212  30.307   1.522  11.831
34430W        W 1213   0.951   2.464  14.875
34431W        W 1214   2.455  40.780  14.367
34432W        W 1215  40.006  30.152   2.328
34433W        W 1216  38.097   5.488   3.144
34434W        W 1217   8.550  39.042  12.978
34435W        W 1218  27.580   9.297   4.729
34436W        W 1219  43.275  20.088  12.414
34437W        W 1220   0.893   5.609   0.872
34438W        W 1221   5.988   2.945  11.984
34439W        W 1222  31.226  27.132  11.497
34440W        W 1223  37.661  19.809   3.772
34441W        W 1224   1.452  11.420   0.947
34442W        W 1225  40.423  31.148   4.645
34443W        W 1226  38.455  14.282   1.282
34444W        W 1227  29.958  23.939  14.415
34445W        W 1228  44.472   5.151  12.367
34446W        W 1229   8.308  44.264   4.517
34447W        W 1230  36.416  32.511  11.578
34448W        W 1231  16.101  23.028  11.981
34449W        W 1232  11.293  33.364  10.685
34450W        W 1233  25.707  32.876   3.678
34451W        W 1234  37.020  41.173   3.224
34452W        W 1235  12.908  44.158   2.721
34453W        W 1236  18.268  27.757   1.242
34454W        W 1237  36.804  27.110  13.836
34455W        W 1238   5.812  44.471  12.529
34456W        W 1239  18.593  23.480  14.044
34457W        W 1240  43.462  11.723  12.923
34458W        W 1241  28.781   6.727   0.376
34459W        W 1242  30.459   3.389   2.794
34460W        W 1243  37.971  14.304  12.104
34461W        W 1244  23.175  11.725   0.965
34462W        W 1245  34.983  15.343   1.653
34463W        W 1246  43.379   3.177  11.621
34464W        W 1247   1.897  25.120  14.741
34465W        W 1248  42.378  30.892   0.559
34466W        W 1249  31.115  42.224   2.609
34467W        W 1250  30.546  35.881  14.334
34468W        W 1251  10.783  33.207  10.593
34469W        W 1252  14.040  42.470  12.865
34470W        W 1253   3.679  14.188   1.969
34471W        W 1254  11.329   5.888  10.225
34472W        W 1255   1.524   4.742  13.783
34473W        W 1256  36.988  33.670  13.360
34474W        W 1257  19.125  19.068  12.439
34475W        W 1258   0.298  29.667   3.411
34476W        W 1259  16.664  28.707  12.118
34477W        W 1260  44.699   6.246   4.589
34478W        W 1261  36.927   7.651   1.915
34479W        W 1262  14.220  44.490   2.311
34480W        W 1263  15.188  30.711   2.303
34481W        W 1264  26.603  16.091   4.881
34482W        W 1265  36.885  11.708  13.509
34483W        W 1266   9.084  23.096  12.779
34484W        W 1267   1.877   8.871   4.095
34485W        W 1268  25.536  32.477   0.904
34486W        W 1269  26.727   4.827  11.065
34487W        W 1270  42.412  32.492  12.537
34488W        W 1271  28.569   5.710   2.816
34489W        W 1272  40.863   8.104  12.439
34490W        W 1273  40.460  18.128  13.418
34491W        W 1274  18.956  31.635   3.128
34492W        W 1275  34.769   1.200   2.391
34493W        W 1276   1.265  12.906   1.821
34494W        W 1277  10.765  41.342   4.797
34495W        W 1278  33.992   5.282   4.668
34496W        W 1279  15.033   3.168   1.271
34497W        W 1280  40.431   9.100   2.251
34498W        W 1281  16.253  25.179  14.861
34499W        W 1282  28.205   0.870  12.535
34500W        W 1283  33.158  18.822  13.228
34501W        W 1284  43.380   8.133   3.606
34502W        W 1285  43.646   5.700  11.067
34503W        W 1286   5.963  43.423  11.633
34504W        W 1287  16.377  16.834   0.264
34505W        W 1288  26.055   9.777   1.132
34506W        W 1289  31.076  17.038   0.854
34507W        W 1290  27.139  17.293  13.926
34508W        W 1291  28.850  40.062  14.836
34509W        W 1292  41.436   5.278  11.145
34510W        W 1293   3.148  26.161  10.805
34511W        W 1294  14.894  42.422   2.235
34512W        W 1295  18.220  24.407   3.806
34513W        W 1296  32.140  14.073  12.517
34514W        W 1297  34.715  19.019   3.119
34515W        W 1298  29.546  34.919  12.557
34516W        W 1299   9.948  22.170   1.436
34517W        W 1300  42.781   4.339   1.976
34518W        W 1301   9.455  44.359  13.374
34519W        W 1302  12.849  40.821  12.464
34520W        W 1303   3.941  12.890  11.551
34521W        W 1304  33.115   7.006  11.516
34522W        W 1305  12.127  15.303  12.923
34523W        W 1306  27.082  36.668   2.661
34524W        W 1307  13.643  34.870  10.243
34525W        W 1308  14.662  39.958   4.592
34526W        W 1309  32.422   2.246  12.437
34527W        W 1310  26.005   4.869  13.554
34528W        W 1311   8.949  28.291  11.138
34529W        W 1312  38.063  35.106  12.136
34530W        W 1313  28.473  44.924   3.387
34531W        W 1314   4.876  29.672  10.852
34532W        W 1315  37.640  39.538   0.900
34533W        W 1316  27.075   1.576  14.357
34534W        W 1317   7.571  15.376   5.064
34535W        W 1318  34.820   1.876  14.820
34536W        W 1319   8.065  13.683   3.805
34537W        W 1320  20.514  23.616  13.355
34538W        W 1321  22.491  44.723   5.103
34539W        W 1322  35.921  13.824  12.571
34540W        W 1323  13.466  19.681   1.422
34541W        W 1324  43.827  20.127  11.075
34542W        W 1325   7.161   6.397   4.079
34543W        W 1326   9.471  40.403   4.038
34544W        W 1327  13.228  23.243   2.708
34545W        W 1328   0.855   9.583   3.313
34546W        W 1329  19.545  13.741  13.965
34547W        W 1330  31.934  18.590   4.771
34548W        W 1331  18.652  44.519  12.538
34549W        W 1332  20.097  28.909   2.259
34550W        W 1333  11.345  35.186   4.473
34551W        W 1334  40.094  28.023  13.388
34552W        W 1335  43.337   4.577   4.624
34553W        W 1336  19.797  17.155   3.355
34554W        W 1337  21.214  26.035  12.936
34555W        W 1338   6.401  38.037   4.792
34556W        W 1339   0.428  20.136  14.998
34557W        W 1340  26.098  14.622   1.381
34558W        W 1341  15.594  11.360   2.776
34559W        W 1342  24.544  15.087   4.091
34560W        W 1343  39.454   2.888  13.456
34561W        W 1344  35.538   6.446   0.362
34562W        W 1345  38.897  27.188   4.405
34563W        W 1346   3.877  44.367  13.437
34564W        W 1347  42.650   2.020   4.822
34565W        W 1348  21.314  10.760   4.177
34566W        W 1349  22.593  28.747  12.752
34567W        W 1350   7.151   5.516   3.618
34568W        W 1351   5.805  21.035   0.912
34569W        W 1352   8.091  12.756   1.849
34570W        W 1353  37.003  39.772  13.906
34571W        W 1354  43.795   6.475  14.220
34572W        W 1355   6.791  34.109   3.176
34573W        W 1356  37.928  19.343   0.264
34574W        W 1357  28.584  13.669  10.663
34575W        W 1358   7.826  30.299  14.498
34576W        W 1359  40.063  19.245   0.748
34577W        W 1360  28.448   1.359  12.816
34578W        W 1361  30.221  32.751  14.355
34579W        W 1362  13.888  10.261  13.531
34580W        W 1363  12.885  33.723   0.607
34581W        W 1364   4.290  35.145  14.884
34582W        W 1365   6.847  32.520  11.083
34583W        W 1366  44.384  38.248   2.366
34584W        W 1367  18.325  21.016  12.550
34585W        W 1368  22.990  42.925  14.743
34586W        W 1369  14.211  14.225  14.714
34587W        W 1370  36.018  40.264   4.573
34588W        W 1371  44.377   9.805  11.260
34589W        W 1372  44.226  20.018   4.410
34590W        W 1373   2.010  41.158   0.217
34591W        W 1374   5.861   7.336  10.743
34592W        W 1375  28.262  27.915  10.516
34593W        W 1376  37.818  35.452   0.649
34594W        W 1377  14.767   7.470   5.138
34595W        W 1378  36.587  39.643  14.484
34596W        W 1379  28.162  40.485  14.293
34597W        W 1380   8.215  21.269   0.927
34598W        W 1381  32.873  15.372  14.390
34599W        W 1382  18.665  28.954  10.632
34600W        W 1383   0.962  29.535   5.052
34601W        W 1384  31.825  42.643  12.595
34602W        W 1385  31.270   3.257  12.951
34603W        W 1386   8.081   5.711   4.810
34604W        W 1387  21.649  29.280  14.397
34605W        W 1388  32.058  13.966  11.629
34606W        W 1389  41.728   4.688  14.466
34607W        W 1390  16.747  11.779  10.785
34608W        W 1391   4.209  33.654  14.546
34609W        W 1392  30.528  10.357  12.291
34610W        W 1393  22.962   0.047  14.394
34611W        W 1394  38.238  16.285  11.998
34612W        W 1395  27.462  22.827   2.118
34613W        W 1396  19.650  23.307   2.411
34614W        W 1397   6.185  21.487  10.236
34615W        W 1398   7.760  36.432  10.618
34616W        W 1399  11.585  11.612  13.045
34617W        W 1400  18.572  16.729  14.407
34618W        W 1401   2.708  16.147  12.437
34619W        W 1402  26.541  43.595   3.582
34620W        W 1403   7.787  17.814  12.912
34621W        W 1404  43.900   0.107   0.889
34622W        W 1405  32.198  42.893  13.905
34623W        W 1406   6.820  40.962  11.565
34624W        W 1407  32.862  32.137  11.699
34625W        W 1408  41.843  35.062  13.201
34626W        W 1409  38.513  44.539  12.084
34627W        W 1410  31.383  39.069   0.886
34628W        W 1411  28.313  40.012  14.402
34629W        W 1412  25.715   2.750  14.814
34630W        W 1413  13.263  11.031   3.371
34631W        W 1414  30.456  13.910  13.413
34632W        W 1415   2.038   1.807   3.185
34633W        W 1416  25.489  25.967  13.129
34634W        W 1417  32.618  39.739  13.332
34635W        W 1418   1.537  34.675   1.780
34636W        W 1419  14.375  15.705   0.141
34637W        W 1420  20.086  32.434  10.814
34638W        W 1421  28.591  43.520  10.657
34639W        W 1422   5.780  29.434  14.789
34640W        W 1423  19.120  19.253  14.522
34641W        W 1424  16.578  40.308   3.672
34642W        W 1425   4.377  11.179   4.420
34643W        W 1426   7.201  19.034   3.469
34644W        W 1427  36.139  40.394   1.427
34645W        W 1428  28.594  31.455   3.875
34646W        W 1429  24.636  20.849   3.660
34647W        W 1430  17.631  44.959  14.369
34648W        W 1431  28.435   8.879  12.836
34649W        W 1432   5.923  26.709   0.379
34650W        W 1433  26.328  29.315   1.311
34651W        W 1434  42.865   8.946  14.816
34652W        W 1435  40.766   7.992  14.301
34653W        W 1436  27.176  29.858  11.069
34654W        W 1437  25.528  19.828   3.556
34655W        W 1438   2.368  14.281  13.599
34656W        W 1439  30.442  41.368  11.186
34657W        W 1440  33.896  16.710  11.114
34658W        W 1441  25.607  19.791  14.368
34659W        W 1442  19.627  22.731  12.491
34660W        W 1443  11.003  38.949  14.474
34661W        W 1444  21.483  39.438  13.996
34662W        W 1445  17.211   2.928   1.278
34663W        W 1446  29.902  33.282  11.909
34664W        W 1447   5.847   1.946  12.657
34665W        W 1448  19.425  34.618  13.618
34666W        W 1449   5.353  35.001  14.421
34667W        W 1450  12.981   2.822  14.974
34668W        W 1451   8.175  14.631   0.470
34669W        W 1452  11.646  19.277  10.747
34670W        W 1453   1.957  14.623   4.141
34671W        W 1454  39.351  29.492   2.601
34672W        W 1455  32.492   3.412  12.163
34673W        W 1456  12.805  34.800  13.400
34674W        W 1457  29.996  25.954   1.891
34675W        W 1458  40.313  20.276   3.799
34676W        W 1459  18.165  35.858   1.006
34677W        W 1460  42.638  25.856   1.244
34678W        W 1461  29.891   4.421  12.393
34679W        W 1462  26.641  23.132  11.602
34680W        W 1463  32.524  17.850  10.301
34681W        W 1464  39.834   4.849   4.690
34682W        W 1465  42.474  29.152  11.733
34683W        W 1466  15.606  11.928   3.646
34684W        W 1467  43.781  31.670  12.080
34685W        W 1468  15.642  10.633  10.940
34686W        W 1469  15.819  41.270  13.302
34687W        W 1470  28.004  27.236   1.896
34688W        W 1471  39.454   6.287   1.249
34689W        W 1472   5.855   2.246   0.382
34690W        W 1473  29.961   2.467   0.439
34691W        W 1474  44.988  27.422   2.298
34692W        W 1475   2.993   1.930   4.540
34693W        W 1476  37.432   7.778   3.074
34694W        W 1477  19.800   6.417   2.804
34695W        W 1478   9.791  37.555   1.891
34696W        W 1479   1.902  26.038  12.984
34697W        W 1480   9.490  15.791  12.125
34698W        W 1481  26.029  22.771  12.442
34699W        W 1482  33.494  28.410  12.954
34700W        W 1483  10.109  17.713  13.940
34701W        W 1484  36.302   3.872   1.260
34702W        W 1485  25.013  43.994   1.759
34703W        W 1486   4.928  13.695  13.431
34704W        W 1487  29.657  37.954  13.614
34705W        W 1488  34.600  41.362  12.227
34706W        W 1489  40.433  26.140   2.403
34707W        W 1490  10.244  30.643  12.992
34708W        W 1491  31.825  24.313   4.103
34709W        W 1492  26.164  28.442   2.419
34710W        W 1493  15.883  15.831  14.442
34711W        W 1494  34.076   9.392   4.610
34712W        W 1495  30.104  37.596   2.808
34713W        W 1496  33.918  17.113  14.441
34714W        W 1497  44.980  37.562   3.315
34715W        W 1498  12.310  44.829  10.433
34716W        W 1499  40.873  32.663  14.620
34717W        W 1500  35.896  27.917  12.992
34718W        W 1501  27.872  10.925  13.600
34719W        W 1502  11.831   8.559  12.476
34720W        W 1503  33.221  13.728  14.242
34721W        W 1504   2.889  44.762  11.667
34722W        W 1505  13.561  35.702   1.452
34723W        W 1506  21.217  23.470   3.750
34724W        W 1507   3.273   5.914   3.330
34725W        W 1508  35.696  17.541   2.439
34726W        W 1509  22.663  43.559   4.345
34727W        W 1510  19.270   5.591  10.654
34728W        W 1511  29.972  39.718   9.485
34729W        W 1512  30.172   8.146   1.802
34730W        W 1513  22.980  28.763   4.577
34731W        W 1514  16.039  12.202   0.300
34732W        W 1515  41.438  39.936   3.210
34733W        W 1516  21.753   4.445  12.005
34734W        W 1517  40.288  16.263   1.523
34735W        W 1518   1.003   6.190   4.112
34736W        W 1519  39.547  42.444  14.352
34737W        W 1520   0.883  30.751   1.753
34738W        W 1521  14.911  30.361  11.986
34739W        W 1522  30.652  22.912  10.303
34740W        W 1523  36.095   1.467  12.174
34741W        W 1524  43.215   3.302   5.154
34742W        W 1525  26.442  16.852   0.142
34743W        W 1526  43.861  31.027  11.575
34744W        W 1527   2.510  24.994  11.181
34745W        W 1528  36.109  31.242   3.736
34746W        W 1529  11.845  44.746  12.910
34747W        W 1530  15.637  21.736   0.846
34748W        W 1531  10.487   1.924  13.596
34749W        W 1532   4.698  37.073   3.725
34750W        W 1533  17.240  13.713   3.697
34751W        W 1534  35.811  38.478  11.647
34752W        W 1535  31.606  32.535  12.447
34753W        W 1536   7.849   0.233   4.689
34754W        W 1537  30.403   5.689  10.662
34755W        W 1538   1.483  34.329   4.622
34756W        W 1539  23.245   5.892   2.765
34757W        W 1540  34.337  14.283   3.220
34758W        W 1541  18.313  15.369  12.102
34759W        W 1542  25.587  35.275   0.228
34760W        W 1543  39.857  40.434   0.346
34761W        W 1544  23.026  37.982  11.950
34762W        W 1545  13.864  44.308   0.047
34763W        W 1546  21.790  30.940  13.844
34764W        W 1547  22.921  41.035  13.965
34765W        W 1548   4.630  23.739   3.133
34766W        W 1549  33.327  24.210  10.937
34767W        W 1550  14.287  26.558  11.067
34768W        W 1551  10.666  21.361  10.373
34769W        W 1552  10.929   3.638  10.655
34770W        W 1553  43.372   9.109   1.119
34771W        W 1554  42.044  29.539   1.511
34772W        W 1555  25.179  44.118  11.498
34773W        W 1556  43.402  16.992   1.999
34774W        W 1557   6.782  21.168   0.476
34775W        W 1558  11.844  32.223  10.834
34776W        W 1559   7.212  14.745  14.452
34777W        W 1560  16.034  21.157   0.243
34778W        W 1561  32.535   1.957   4.251
34779W        W 1562  41.313   0.620   0.769
34780W        W 1563   8.933   1.819  12.010
34781W        W 1564   5.179  30.676  14.268
34782W        W 1565  15.261  24.237   0.471
34783W        W 1566  23.370   8.742   5.090
34784W        W 1567  13.319  18.434  13.908
34785W        W 1568   8.926  17.635   4.086
34786W        W 1569  17.463  37.447  14.990
34787W        W 1570  14.276  37.356  14.397
34788W        W 1571   9.982  44.279  12.373
34789W        W 1572  21.970  17.155  13.452
34790W        W 1573  30.907  19.008  12.563
34791W        W 1574   3.858  38.845   1.015
34792W        W 1575  33.619  11.258  11.573
34793W        W 1576   0.190  33.318   4.410
34794W        W 1577  35.687  16.719  12.611
34795W        W 1578  15.201  15.088  11.595
34796W        W 1579  16.875   6.967  11.142
34797W        W 1580  42.837  36.916   2.902
34798W        W 1581  41.894  21.665   0.214
34799W        W 1582   0.237  16.907   4.556
34800W        W 1583  11.619  42.774   4.119
34801W        W 1584  42.061   3.247   4.652
34802W        W 1585  38.038  22.985   2.262
34803W        W 1586  33.867   2.998   2.354
34804W        W 1587   3.915  18.581   1.205
34805W        W 1588  35.956  34.520   1.204
34806W        W 1589   4.387  23.956  12.859
34807W        W 1590  38.888   7.193  10.553
34808W        W 1591  21.326  14.266  13.840
34809W        W 1592  31.880   7.698   0.368
34810W        W 1593  40.002   0.038   3.790
34811W        W 1594  17.711   8.730  13.153
34812W        W 1595  38.096   3.377   0.299
34813W        W 1596  30.621  10.416   1.503
34814W        W 1597  16.069   7.361  11.102
34815W        W 1598  10.452  23.525  12.949
34816W        W 1599  19.283   6.884  12.264
34817W        W 1600  40.860  43.380   1.668
34818W        W 1601   7.223  20.497   2.702
34819W        W 1602  26.300  41.504   5.453
34820W        W 1603  12.168  39.128   3.248
34821W        W 1604  23.086  39.264  13.632
34822W        W 1605  22.058  10.665  10.634
34823W        W 1606  29.982  42.517   1.423
34824W        W 1607   6.219  42.329   0.697
34825W        W 1608  36.443  24.331   3.782
34826W        W 1609  10.464   8.362  12.195
34827W        W 1610  15.144  35.398  11.573
34828W        W 1611  27.670  17.556  11.322
34829W        W 1612  18.632  10.275   9.952
34830W        W 1613  25.448  13.126   3.723
34831W        W 1614  19.494  40.110  11.459
34832W        W 1615   8.664  39.759  10.733
34833W        W 1616  10.140  26.520   0.205
34834W        W 1617  39.603   6.347   3.265
34835W        W 1618  31.075  32.565   1.713
34836W        W 1619  15.085   4.192  13.507
34837W        W 1620   1.361  36.580   0.311
34838W        W 1621  23.477   9.038   0.353
34839W        W 1622   4.299  44.087   4.168
34840W        W 1623  13.628  30.609  10.593
34841W        W 1624  16.686  38.239  10.639
34842W        W 1625  26.112  41.942  14.897
34843W        W 1626   7.395  14.651   3.807
34844W        W 1627  20.528  34.128   3.120
34845W        W 1628  37.388   2.765  11.602
34846W        W 1629  18.006  38.936  12.536
34847W        W 1630  30.044  32.069   1.468
34848W        W 1631   4.751   4.239   2.640
34849W        W 1632   6.309  14.551  10.894
34850W        W 1633  28.720  23.679   1.291
34851W        W 1634  29.986  26.101   0.910
34852W        W 1635  20.572  43.876  11.408
34853W        W 1636  30.773  36.054  12.899
34854W        W 1637   9.245  42.762  14.824
34855W        W 1638  30.358  10.812  14.186
34856W        W 1639   5.188  26.772   4.628
34857W        W 1640  26.054  15.608   2.880
34858W        W 1641  31.928  41.817  12.108
34859W        W 1642   8.229  22.063   4.699
34860W        W 1643   8.820  37.559  13.527
34861W        W 1644   1.769   8.115   1.424
34862W        W 1645   1.574  33.003   1.792
34863W        W 1646  25.114  28.560  12.052
34864W        W 1647   9.059  25.447  12.999
34865W        W 1648   1.025   6.283   3.586
34866W        W 1649   6.650  25.019   1.249
34867W        W 1650  23.298  12.807  14.048
34868W        W 1651  43.505  33.352   3.932
34869W        W 1652   9.792   4.778   3.078
34870W        W 1653  13.683  28.585   3.068
34871W        W 1654  12.392   5.437   2.220
34872W        W 1655  31.045  14.285   1.666
34873W        W 1656   7.150   0.706   2.791
34874W        W 1657  11.768  25.002  14.055
34875W        W 1658  21.678   8.359   2.440
34876W        W 1659  24.619  41.552  14.149
34877W        W 1660   5.377  41.371  14.441
34878W        W 1661   7.220  12.554  14.328
34879W        W 1662  41.457  12.480  12.635
34880W        W 1663  28.122  15.636  10.577
34881W        W 1664   9.790   0.755   0.130
34882W        W 1665  18.763  35.028  13.041
34883W        W 1666  32.309   8.950   0.297
34884W        W 1667  33.115  23.108  10.763
34885W        W 1668  18.311  32.276   3.648
34886W        W 1669  35.951  28.488  10.630
34887W        W 1670   8.380  13.798  12.832
34888W        W 1671  39.454  35.514   4.064
34889W        W 1672  11.204  35.972  13.934
34890W        W 1673  18.591   4.708   2.643
34891W        W 1674  19.606  26.808  14.407
34892W        W 1675  22.607  31.561  12.329
34893W        W 1676  17.145   1.752   3.740
34894W        W 1677   6.914  22.663   1.292
34895W        W 1678  40.856  20.781   2.188
34896W        W 1679  39.506  22.476  14.834
34897W        W 1680   9.076  37.108   3.151
34898W        W 1681  20.156   6.520   3.150
34899W        W 1682  16.991  29.120   0.237
34900W        W 1683  30.456  24.887  11.838
34901W        W 1684  24.464  25.906   3.149
34902W        W 1685  26.725   4.302  12.395
34903W        W 1686  30.185   2.398  12.847
34904W        W 1687   6.328   1.617   1.318
34905W        W 1688   7.814  13.036  11.540
34906W        W 1689  37.934  28.645  13.023
34907W        W 1690  31.946  38.288   2.474
34908W        W 1691  41.064   5.459  13.034
34909W        W 1692   2.771  11.948   4.153
34910W        W 1693  42.385  42.824   3.200
34911W        W 1694  24.791   1.767   0.425
34912W        W 1695   7.542  35.303  13.350
34913W        W 1696  14.294   9.197   1.793
34914W        W 1697  42.978  22.399   9.813
34915W        W 1698  38.624  33.921   1.484
34916W        W 1699  16.688  20.694  13.688
34917W        W 1700   4.851  32.938  10.689
34918W        W 1701  42.760  28.132   4.195
34919W        W 1702  17.835  20.667   1.006
34920W        W 1703  21.655  43.218   2.352
34921W        W 1704   2.390  33.031   4.123
34922W        W 1705  20.541  18.685   1.473
34923W        W 1706   4.778  43.303  14.475
34924W        W 1707   8.630  34.642  14.006
34925W        W 1708  29.251  19.203   3.711
34926W        W 1709  16.745   5.996   3.667
34927W        W 1710  13.445  29.012  10.602
34928W        W 1711  29.549  17.154   3.833
34929W        W 1712  38.764  21.134  13.979
34930W        W 1713  43.992   1.921   4.869
34931W        W 1714  40.815  36.478  14.469
34932W        W 1715   8.217  17.816  13.986
34933W        W 1716  27.501  43.603  13.579
34934W        W 1717  18.674  35.979  10.691
34935W        W 1718  43.093  15.339  13.080
34936W        W 1719  11.639  41.997  10.248
34937W        W 1720  35.986  22.682  10.581
34938W        W 1721  19.681   2.783  14.336
34939W        W 1722  28.806  36.521   0.822
34940W        W 1723  22.715  15.115  10.537
34941W        W 1724  41.247  22.699  10.494
34942W        W 1725  23.601  20.493   3.157
34943W        W 1726   9.223  35.026  10.833
34944W        W 1727  10.677  26.273  14.284
34945W        W 1728  40.262  34.458  11.965
34946W        W 1729  36.898  38.398   0.441
34947W        W 1730  22.027  37.140   2.672
34948W        W 1731  38.956  20.251   3.884
34949W        W 1732  22.119   0.755   4.526
34950W        W 1733  32.999  12.714   3.723
34951W        W 1734  31.471  28.148  10.649
34952W        W 1735  39.885  36.206   1.306
34953W        W 1736  29.794  44.342  13.992
34954W        W 1737  28.513  11.228   3.278
34955W        W 1738   1.526  43.851   4.690
34956W        W 1739  13.514   9.676   0.033
34957W        W 1740  15.395  43.103  10.334
34958W        W 1741  19.568  12.050  14.908
34959W        W 1742  31.372   6.200  11.172
34960W        W 1743  14.700   7.129  13.967
34961W        W 1744   5.261  37.043  13.877
34962W        W 1745  23.123  34.139   0.495
34963W        W 1746  35.883  27.742   2.867
34964W        W 1747   5.805   5.601   4.785
34965W        W 1748  27.192  39.017  13.042
34966W        W 1749  23.670  26.398   0.700
34967W        W 1750  18.210  39.196  10.102
34968W        W 1751  16.864  15.258   1.239
34969W        W 1752   4.273   1.031   4.096
34970W        W 1753  44.439   1.579  13.306
34971W        W 1754  34.454   4.702   3.515
34972W        W 1755  41.752  35.551  13.422
34973W        W 1756  41.721  42.321   0.997
34974W        W 1757  38.802  20.080  10.914
34975W        W 1758  13.880  31.421  11.669
34976W        W 1759  38.405  41.452   1.916
34977W        W 1760   6.713  23.325  14.465
34978W        W 1761  10.540  27.182   0.397
34979W        W 1762  10.390  22.047  13.898
34980W        W 1763  19.614  36.419   1.372
34981W        W 1764  30.132  23.977   0.462
34982W        W 1765  27.709  30.126   4.743
34983W        W 1766  13.830   8.158  14.925
34984W        W 1767  26.771  37.754   0.600
34985W        W 1768  14.209   6.548  10.819
34986W        W 1769   4.755  24.654  10.729
34987W        W 1770  42.979  23.011  12.079
34988W        W 1771  38.196  18.975  10.770
34989W        W 1772   4.275  38.247   3.710
34990W        W 1773  11.364  26.157   0.905
34991W        W 1774  35.491  10.635   9.572
34992W        W 1775  20.097   6.031   4.101
34993W        W 1776   6.035  29.019   3.619
34994W        W 1777  44.256  40.553  13.578
34995W        W 1778   0.088  29.571   0.735
34996W        W 1779  16.507  11.131   2.409
34997W        W 1780  27.105  22.745   1.612
34998W        W 1781  16.006  21.674   0.455
34999W        W 1782  31.397  41.016  10.697
35000W        W 1783   0.150  44.707  13.940
35001W        W 1784  42.852  44.258  11.527
35002W        W 1785  27.643  27.700  11.119
35003W        W 1786  32.113  44.936  10.599
35004W        W 1787   0.241  23.672  12.425
35005W        W 1788   8.692  40.305   5.138
35006W        W 1789  40.422  19.535  14.419
35007W        W 1790   7.831  22.359  12.640
35008W        W 1791  11.155  29.663   3.072
35009W        W 1792  25.776  16.538   4.469
35010W        W 1793  11.880  36.507  10.649
35011W        W 1794  17.286  27.645  11.638
35012W        W 1795  28.688   2.320  13.126
35013W        W 1796  43.386  39.758   0.858
35014W        W 1797   9.149   5.362  11.363
35015W        W 1798  19.064  14.114   1.080
35016W        W 1799  14.790   2.829   4.302
35017W        W 1800   1.854  27.093   1.902
35018W        W 1801  30.624  13.976   3.678
35019W        W 1802  16.194  31.474  14.921
35020W        W 1803  43.575  38.777   1.644
35021W        W 1804  36.654  10.167  14.975
35022W        W 1805  18.238  17.477  10.612
35023W        W 1806   4.229   4.223   4.404
35024W        W 1807  20.980  24.020  12.069
35025W        W 1808  31.415  10.204  12.565
35026W        W 1809  39.980  22.958   0.690
35027W        W 1810  15.241   5.583  11.098
35028W        W 1811   5.963  13.270   4.432
35029W        W 1812  27.571  19.638  10.557
35030W        W 1813  20.642  34.951  12.304
35031W        W 1814   3.915  24.592  14.034
35032W        W 1815   4.107  41.209   4.633
35033W        W 1816  22.278   9.878   0.982
35034W        W 1817  34.101  11.320  10.605
35035W        W 1818  30.468  17.108   4.289
35036W        W 1819  22.991  15.199  12.385
35037W        W 1820   8.561  18.640  11.061
35038W        W 1821  32.020  22.120  10.737
35039W        W 1822  26.728   0.439   4.368
35040W        W 1823  17.089   4.314  11.612
35041W        W 1824  24.674  25.424   3.169
35042W        W 1825  21.304  19.907   4.990
35043W        W 1826  27.027  42.440   3.870
35044W        W 1827  35.976  15.639   2.507
35045W        W 1828  41.785  33.192   5.131
35046W        W 1829  42.977  21.655  12.634
35047W        W 1830  34.054   5.825   9.814
35048W        W 1831  26.905   1.407  12.067
35049W        W 1832  13.749  19.937   4.086
35050W        W 1833  25.181  42.883  12.602
35051W        W 1834  17.667   7.440  12.799
35052W        W 1835  25.174   4.752   3.215
35053W        W 1836   0.490  19.908  11.937
35054W        W 1837  10.639  13.513  10.772
35055W        W 1838  37.408  32.807  11.113
35056W        W 1839  16.999  31.446   2.865
35057W        W 1840  43.924  43.832  14.455
35058W        W 1841   1.882  28.118  10.585
35059W        W 1842  21.778  19.642   2.663
35060W        W 1843  35.412  18.933  13.928
35061W        W 1844  40.430  11.321  10.874
35062W        W 1845  31.667  41.202   3.763
35063W        W 1846   3.403  33.992   2.179
35064W        W 1847  33.452  34.495  11.034
35065W        W 1848  29.993  23.275   1.559
35066W        W 1849  14.198  42.366   3.572
35067W        W 1850   8.472  11.629   0.946
35068W        W 1851  27.025  42.212  14.615
35069W        W 1852  16.318  13.019  10.689
35070W        W 1853  42.485  35.285  11.552
35071W        W 1854   2.909  31.401  12.698
35072W        W 1855  33.723  32.709   0.454
35073W        W 1856  40.931   5.993   5.400
35074W        W 1857   9.846   4.509   4.910
35075W        W 1858  37.773  40.298  10.852
35076W        W 1859  11.679  33.073   0.387
35077W        W 1860   7.031  29.097   0.739
35078W        W 1861  19.976  38.504  11.736
35079W        W 1862   5.013  36.966   4.762
35080W        W 1863  40.994   5.310   0.513
35081W        W 1864  11.138  36.653   1.403
35082W        W 1865  24.088  10.172   9.902
35083W        W 1866  12.095  21.253   4.157
35084W        W 1867  18.232  29.356   3.762
35085W        W 1868  38.942   1.747  13.866
35086W        W 1869  40.604  41.848  13.895
35087W        W 1870  19.106   1.766   4.723
35088W        W 1871  34.465  32.332   4.479
35089W        W 1872  20.221  22.674   1.760
35090W        W 1873  37.964  27.924   0.656
35091W        W 1874  32.290  13.107  13.622
35092W        W 1875  15.261   1.891   2.362
35093W        W 1876   3.386  14.611   0.775
35094W        W 1877  36.407  19.647   2.844
35095W        W 1878  24.708  29.507  12.331
35096W        W 1879  16.114  38.710  11.735
35097W        W 1880  12.277   9.250   4.488
35098W        W 1881   6.789  44.002  11.632
35099W        W 1882  16.767  18.779   0.418
35100W        W 1883   8.101   2.003  11.581
35101W        W 1884  40.372   5.544   4.905
35102W        W 1885  12.431  26.061   2.303
35103W        W 1886  41.144  26.201  11.936
35104W        W 1887  37.004  38.356   3.634
35105W        W 1888  13.451  40.188  10.179
35106W        W 1889  38.980  40.452  10.666
35107W        W 1890  39.549  23.476   3.725
35108W        W 1891  34.733  37.896  13.892
35109W        W 1892  14.607  36.954   0.818
35110W        W 1893  29.129  34.973   1.388
35111W        W 1894  30.149  20.602   4.610
35112W        W 1895  30.321  13.397   2.313
35113W        W 1896  11.702  21.296   9.765
35114W        W 1897  32.158  42.921  11.214
35115W        W 1898  38.967  42.549   1.609
35116W        W 1899  36.948  43.529   5.002
35117W        W 1900  24.674  29.554  13.593
35118W        W 1901  10.279  13.563  13.834
35119W        W 1902  20.616  17.239  10.671
35120W        W 1903  21.768   7.874  10.650
35121W        W 1904  20.317  18.791  11.141
35122W        W 1905  21.301  11.673   0.699
35123W        W 1906  36.014   8.691   4.678
35124W        W 1907  20.666  14.832  14.387
35125W        W 1908  16.863   9.741  13.122
35126W        W 1909  30.161   9.602  11.142
35127W        W 1910  27.776  35.427   3.263
35128W        W 1911   8.931  27.681   0.812
35129W        W 1912   1.879   5.936  11.888
35130W        W 1913  11.768   9.963   3.127
35131W        W 1914  38.507  44.283  12.555
35132W        W 1915  35.032  40.789  12.136
35133W        W 1916   8.907  17.624   3.175
35134W        W 1917  32.043  36.313   2.759
35135W        W 1918  41.422  42.796  12.380
35136W        W 1919  17.194  38.118  10.235
35137W        W 1920  12.826   0.199  12.057
35138W        W 1921  29.131  15.106  11.122
35139W        W 1922  10.187  22.187  10.708
35140W        W 1923   9.829  26.663  10.630
35141W        W 1924  32.236  28.404  13.447
35142W        W 1925   1.062  41.383  13.459
35143W        W 1926   4.905  40.750   0.165
35144W        W 1927  11.579   6.235  11.537
35145W        W 1928  14.709  37.551  11.479
35146W        W 1929  16.783  28.082  14.783
35147W        W 1930  44.918   5.126  12.917
35148W        W 1931   0.428   0.699  14.909
35149W        W 1932  11.331   5.866  11.105
35150W        W 1933  30.609  33.586   4.888
35151W        W 1934  41.921  40.442   5.111
35152W        W 1935  12.508  13.908   1.335
35153W        W 1936   8.786  40.749  10.670
35154W        W 1937  28.409  26.219  12.888
35155W        W 1938   3.436  14.855   3.896
35156W        W 1939  37.433  28.199  11.590
35157W        W 1940  22.549   5.813  14.426
35158W        W 1941  32.716  13.653  14.352
35159W        W 1942  35.438   1.242   3.634
35160W        W 1943  24.745   4.457  11.540
35161W        W 1944  10.805  18.351   4.511
35162W        W 1945  25.932  20.559   3.267
35163W        W 1946  36.813   4.280  13.921
35164W        W 1947  41.855  32.022  10.880
35165W        W 1948  37.558  30.582   0.465
35166W        W 1949   5.196   7.628   1.975
35167W        W 1950  13.867  22.600  13.087
35168W        W 1951  36.105   7.031  14.343
35169W        W 1952  39.634  36.384   0.910
35170W        W 1953  40.355   9.892   1.390
35171W        W 1954   3.747  31.623   3.411
35172W        W 1955  26.949  40.399  12.977
35173W        W 1956   5.618  18.797   3.361
35174W        W 1957  20.331  44.934   1.908
35175W        W 1958   4.347  40.512   1.275
35176W        W 1959  26.507  22.467   4.975
35177W        W 1960  43.032  43.126   0.602
35178W        W 1961  17.828  22.193  12.536
35179W        W 1962   3.347   3.827  14.890
35180W        W 1963   0.221  16.777   1.897
35181W        W 1964  29.660  39.363  10.600
35182W        W 1965  25.924  32.652  14.856
35183W        W 1966  39.427  13.773  10.968
35184W        W 1967   4.390   7.963   3.398
35185W        W 1968  31.935   5.486  12.190
35186W        W 1969  10.632  22.029   2.829
35187W        W 1970   6.696  20.808  12.447
35188W        W 1971   8.629  28.611   1.525
35189W        W 1972  21.534   5.290   2.224
35190W        W 1973  17.640   9.570  12.910
35191W        W 1974   2.257   9.974   1.259
35192W        W 1975   9.700  33.173   1.881
35193W        W 1976  21.175  36.076   2.784
35194W        W 1977  13.133  14.632  12.985
35195W        W 1978   7.015  25.441  11.637
35196W        W 1979  34.983  19.676   4.920
35197W        W 1980  20.041   0.498   0.503
35198W        W 1981  43.114   4.764   4.185
35199W        W 1982  41.997  29.840  14.747
35200W        W 1983  28.563   0.867  13.533
35201W        W 1984  19.697  26.951   2.950
35202W        W 1985   6.208  17.933  14.793
35203W        W 1986   5.288  28.675  12.544
35204W        W 1987   9.049   0.830  13.514
35205W        W 1988  36.086  42.944   0.730
35206W        W 1989  44.860  24.945   1.208
35207W        W 1990   9.678  30.594   1.716
35208W        W 1991  43.647  35.364   1.720
35209W        W 1992  31.555  42.669  11.711
35210W        W 1993   8.822  42.947   4.791
35211W        W 1994  36.363   1.201   4.610
35212W        W 1995  24.992  30.979  13.471
35213W        W 1996   1.937   6.189   3.117
35214W        W 1997  25.138   4.265   4.228
35215W        W 1998   1.319  17.826   0.346
35216W        W 1999  24.980   6.743   1.117
35217W        W 2000   5.731   5.380   3.819
35218W        W 2001  11.464   5.192  13.772
35219W        W 2002  39.825  16.206   0.820
35220W        W 2003   1.783  34.042   0.718
35221W        W 2004  32.207  39.155   4.335
35222W        W 2005   9.261  43.999  14.180
35223W        W 2006   9.090  10.954  10.259
35224W        W 2007   8.301  28.402  11.262
35225W        W 2008  33.360  32.137  14.870
35226W        W 2009  40.889  12.735   1.850
35227W        W 2010  37.048  37.928   0.745
35228W        W 2011  26.720  31.175   3.708
35229W        W 2012  43.097  36.202   5.064
35230W        W 2013  34.008  32.079   9.602
35231W        W 2014  12.296  32.900  10.601
35232W        W 2015  21.144  14.357   9.941
35233W        W 2016  19.600   4.163  11.551
35234W        W 2017  18.118   7.930  10.764
35235W        W 2018  20.627   7.694  14.792
35236W        W 2019  25.728  34.890  11.137
35237W        W 2020  35.407  36.545   4.507
35238W        W 2021  40.368  44.062   4.227
35239W        W 2022  27.737  17.739   1.004
35240W        W 2023  28.177  44.493   2.667
35241W        W 2024  28.429  32.441   2.247
35242W        W 2025   6.897   5.996   2.698
35243W        W 2026  20.635  29.058  12.141
35244W        W 2027  34.395  42.355  14.311
35245W        W 2028  33.585   9.921   0.773
35246W        W 2029  10.070  37.004   0.858
35247W        W 2030  15.081  37.046   2.318
35248W        W 2031  27.389  22.492   4.234
35249W        W 2032   9.266  26.081  13.655
35250W        W 2033  42.510  15.680  11.595
35251W        W 2034  16.695  23.484  13.848
35252W        W 2035  38.023  28.621  11.047
35253W        W 2036  30.902  19.660  10.659
35254W        W 2037  44.635  23.174   4.566
35255W        W 2038  36.921  38.849   0.735
35256W        W 2039  18.210  37.314  12.896
35257W        W 2040  13.124   8.836  12.488
35258W        W 2041  10.868  44.680  13.253
35259W        W 2042  22.298  31.192  12.141
35260W        W 2043  13.212  30.332  10.723
35261W        W 2044   3.948   5.749  14.063
35262W        W 2045  19.684  42.973  14.992
35263W        W 2046   2.375  28.829   0.314
35264W        W 2047  39.730  31.059   1.839
35265W        W 2048  25.994  15.046   3.173
35266W        W 2049  30.385  12.145   1.223
35267W        W 2050  16.535  18.753   1.462
35268W        W 2051  40.833  17.158  12.948
35269W        W 2052  13.840  11.383   4.140
35270W        W 2053  36.374  20.458   2.440
35271W        W 2054  42.029   7.317   0.464
35272W        W 2055  43.604  37.428  13.932
35273W        W 2056   2.836  30.089   1.903
35274W        W 2057  18.563  18.753   1.343
35275W        W 2058   7.123  30.925  11.523
35276W        W 2059  20.083   9.783  10.689
35277W        W 2060  23.326  13.347   0.951
35278W        W 2061  29.079   7.717  11.083
35279W        W 2062  34.008  29.144  12.600
35280W        W 2063   5.413  32.889   1.754
35281W        W 2064   7.344   9.861  13.685
35282W        W 2065  40.418   1.896  12.982
35283W        W 2066   6.451  14.460   0.042
35284W        W 2067  19.352  14.580   1.009
35285W        W 2068   8.174   8.418  11.721
35286W        W 2069  26.160   9.964  12.910
35287W        W 2070  34.555  23.503  12.102
35288W        W 2071  13.281  28.653  13.086
35289W        W 2072  27.148   4.720   3.696
35290W        W 2073   1.471  31.344   1.045
35291W        W 2074  23.110  21.360  11.169
35292W        W 2075  14.219  27.054  10.884
35293W        W 2076   3.307  43.325   5.190
35294W        W 2077  21.866   7.673  11.517
35295W        W 2078  11.885  21.526   5.092
35296W        W 2079  26.377  18.803  12.979
35297W        W 2080  27.453  21.492   4.107
35298W        W 2081   7.032  23.238   3.395
35299W        W 2082  43.514   6.400   2.301
35300W        W 2083  20.457  37.961  12.721
35301W        W 2084  34.511   8.915  14.504
35302W        W 2085   6.513  22.701  12.145
35303W        W 2086   3.169   6.082   2.007
35304W        W 2087   4.860  25.958  12.986
35305W        W 2088  27.460  28.014   4.638
35306W        W 2089  14.224  14.051  13.403
35307W        W 2090  28.510  32.046   1.596
35308W        W 2091  34.579  12.869  13.024
35309W        W 2092  44.303  29.655  11.129
35310W        W 2093  21.503   8.662   3.574
35311W        W 2094   9.403  26.994   2.874
35312W        W 2095  26.991   9.184   2.919
35313W        W 2096  43.841   3.934  14.409
35314W        W 2097  37.504  32.946  12.499
35315W        W 2098  23.658  23.939   3.738
35316W        W 2099   8.901  27.151   4.401
35317W        W 2100  13.608  24.578   3.372
35318W        W 2101  21.010  14.072  13.436
35319W        W 2102  28.518   0.953  12.114
35320W        W 2103  12.571  44.815   2.308
35321W        W 2104  38.731   7.169  13.505
35322W        W 2105  24.220  40.987   1.301
35323W        W 2106  28.565  35.194   2.784
35324W        W 2107  36.576   2.210   2.820
35325W        W 2108  18.820  33.390  12.448
35326W        W 2109  37.089  35.417  14.786
35327W        W 2110  14.058  10.856  11.993
35328W        W 2111  13.796   9.715  14.044
35329W        W 2112   3.500  22.715   1.693
35330W        W 2113  32.207  32.932  14.209
35331W        W 2114  29.367  28.359  10.184
35332W        W 2115  39.060  23.621   3.712
35333W        W 2116  30.032  11.131   0.913
35334W        W 2117  13.499  12.334   4.172
35335W        W 2118  42.216  15.524  13.174
35336W        W 2119  15.265  12.308   3.462
35337W        W 2120  22.606  13.159   4.526
35338W        W 2121  36.892  36.172   1.323
35339W        W 2122  31.501  44.740   1.896
35340W        W 2123  39.530  35.146  13.383
35341W        W 2124  17.243  34.787   5.045
35342W        W 2125  10.320  15.970  12.436
35343W        W 2126  23.177  12.071  12.930
35344W        W 2127   6.980  19.506   1.899
35345W        W 2128  14.573  20.120  11.420
35346W        W 2129   3.982   8.108   2.350
35347W        W 2130  37.311  17.262   2.757
35348W        W 2131  28.368  41.600  11.521
35349W        W 2132  15.076   0.307   3.330
35350W        W 2133  28.927  20.304  14.804
35351W        W 2134  26.297  30.825   4.274
35352W        W 2135  23.077  36.247  13.659
35353W        W 2136  42.482  10.626  10.427
35354W        W 2137  17.237   2.744  10.891
35355W        W 2138  19.639  35.989   2.254
35356W        W 2139  10.618   6.790  13.862
35357W        W 2140  31.165   0.668   2.749
35358W        W 2141   7.968  33.370   2.156
35359W        W 2142  43.821  30.370  12.366
35360W        W 2143   0.500  22.168  14.854
35361W        W 2144  16.597   8.180  14.346
35362W        W 2145   0.378  28.664   3.237
35363W        W 2146  29.077  10.076  14.808
35364W        W 2147  41.553   7.445  14.412
35365W        W 2148  30.871  42.561   3.690
35366W        W 2149   9.705  21.399   1.963
35367W        W 2150  19.377   1.103  13.401
35368W        W 2151  21.398  33.247  11.119
35369W        W 2152  21.057  41.974  11.050
35370W        W 2153  20.261  39.444   2.184
35371W        W 2154  36.375  34.994  14.242
35372W        W 2155  13.094   6.799  14.510
35373W        W 2156  15.336  41.006   2.793
35374W        W 2157  38.504  40.987   3.270
35375W        W 2158  15.743  10.645   2.812
35376W        W 2159  14.625   4.418   3.415
35377W        W 2160  37.433   2.962   4.866
35378W        W 2161   2.257  15.296   2.633
35379W        W 2162  41.915  32.620   3.081
35380W        W 2163  34.598  11.287  10.378
35381W        W 2164   8.055   0.140  13.855
35382W        W 2165  19.547  44.600   3.856
35383W        W 2166  43.751  33.439  13.769
35384W        W 2167   7.341  43.153  11.951
35385W        W 2168  11.360  25.060  14.811
35386W        W 2169   4.396  32.481  10.965
35387W        W 2170   7.254  20.510  11.645
35388W        W 2171  22.874  27.039   4.397
35389W        W 2172  42.376  24.264  12.862
35390W        W 2173  33.200  39.534   0.268
35391W        W 2174  27.693  21.722  13.470
35392W        W 2175  41.763   8.698  14.030
35393W        W 2176   5.238   4.034   3.302
35394W        W 2177   3.272  12.816  13.524
35395W        W 2178  16.409  40.014  12.627
35396W        W 2179   8.414   4.346  12.865
35397W        W 2180  13.711  30.933   0.839
35398W        W 2181  21.587   3.694  13.083
35399W        W 2182  41.058  11.087   1.695
35400W        W 2183  16.084   8.733  10.594
35401W        W 2184   5.791  42.351  11.673
35402W        W 2185  41.303   2.933  11.952
35403W        W 2186  26.718  39.301   5.639
35404W        W 2187   7.514  10.263   4.140
35405W        W 2188  22.207  12.855  13.871
35406W        W 2189  43.580  34.682  13.431
35407W        W 2190  35.026  10.726   1.032
35408W        W 2191  26.036  18.194  14.833
35409W        W 2192  43.485  26.190  11.642
35410W        W 2193  39.881   0.734  13.105
35411W        W 2194  42.879   7.535   3.144
35412W        W 2195  37.013  11.127  11.441
35413W        W 2196  44.731  16.794   4.843
35414W        W 2197  24.007  26.982   2.782
35415W        W 2198  32.648  13.677  10.678
35416W        W 2199  33.148  11.863   4.204
35417W        W 2200  31.783  33.595   3.113
35418W        W 2201  35.980   3.222  12.058
35419W        W 2202   9.584  10.173   1.762
35420W        W 2203  41.601  34.415   0.218
35421W        W 2204  44.422   1.358  14.297
35422W        W 2205  22.967  20.329  10.692
35423W        W 2206   3.977  10.307   4.854
35424W        W 2207  22.766  11.885  11.653
35425W        W 2208  11.484  14.130  13.810
35426W        W 2209   2.737  43.325   2.327
35427W        W 2210  31.068  10.656   0.719
35428W        W 2211   7.854  20.608   3.719
35429W        W 2212  40.810  37.867  14.776
35430W        W 2213  11.261  41.513  11.407
35431W        W 2214  34.121  36.099  14.652
35432W        W 2215   8.892  27.696  11.420
35433W        W 2216   2.328   0.911  12.391
35434W        W 2217   0.450  35.327  11.124
35435W        W 2218  37.484  32.396   0.827
35436W        W 2219   4.266  41.952   1.885
35437W        W 2220  34.363  44.202  10.817
35438W        W 2221  28.869  36.396   2.678
35439W        W 2222  41.950  16.650  14.455
35440W        W 2223  27.743  39.422   0.428
35441W        W 2224  10.746  22.221  11.454
35442W        W 2225  21.667  28.749  13.488
35443W        W 2226  16.200  29.164  14.901
35444W        W 2227   8.854  35.853   0.724
35445W        W 2228   6.294  24.424  12.877
35446W        W 2229  40.412   3.591   0.932
35447W        W 2230  43.184  14.819  12.991
35448W        W 2231   3.804  12.912   0.439
35449W        W 2232  24.468  42.418  11.110
35450W        W 2233  27.519   4.224   0.255
35451W        W 2234  25.695  42.804  12.369
35452W        W 2235  37.950  17.363  13.141
35453W        W 2236  42.755  20.797   4.600
35454W        W 2237   0.679   7.224  14.784
35455W        W 2238   1.833  29.915   4.792
35456W        W 2239  44.835   4.176   2.966
35457W        W 2240  44.723  44.353  13.518
35458W        W 2241  42.653  12.919  12.829
35459W        W 2242  27.616   3.936  11.542
35460W        W 2243  19.837  11.258  11.080
35461W        W 2244  24.247  32.824   3.604
35462W        W 2245   8.961  19.952  10.657
35463W        W 2246  13.745  31.075   2.471
35464W        W 2247  31.628  26.142  11.634
35465W        W 2248  44.329   3.987  14.801
35466W        W 2249  25.819  41.970  12.049
35467W        W 2250  29.088  31.988  12.782
35468W        W 2251  17.322   1.708   0.774
35469W        W 2252  14.740   6.308   4.412
35470W        W 2253   9.806  10.506  14.981
35471W        W 2254  11.400   8.256  11.705
35472W        W 2255   5.623   6.195  13.937
35473W        W 2256  11.167   1.212   3.879
35474W        W 2257  17.593  30.457  14.764
35475W        W 2258  23.259  13.203   3.782
35476W        W 2259   8.954  42.393   0.505
35477W        W 2260   7.306   9.764   0.053
35478W        W 2261  19.758  34.601   0.808
35479W        W 2262  10.761  26.140   3.187
35480W        W 2263  15.957  41.985   2.750
35481W        W 2264  10.957  15.067  13.628
35482W        W 2265  19.047   0.843   3.237
35483W        W 2266   3.284  26.136  12.174
35484W        W 2267  42.845   3.432  12.670
35485W        W 2268  14.197  26.121  12.629
35486W        W 2269  15.842  36.777   2.737
35487W        W 2270  22.567  20.861  12.184
35488W        W 2271  36.454  40.187   2.269
35489W        W 2272  31.581  16.880  12.568
35490W        W 2273  18.261  18.880  11.040
35491W        W 2274   5.291  23.297   0.976
35492W        W 2275   6.364  33.116   0.815
35493W        W 2276  10.082  27.563  12.058
35494W        W 2277  22.043   7.405   2.372
35495W        W 2278  30.608   0.445  13.774
35496W        W 2279  37.724   1.924   1.422
35497W        W 2280  41.137  35.827   1.752
35498W        W 2281   9.497  35.005   4.345
35499W        W 2282  44.197  12.319  14.929
35500W        W 2283  24.694   1.268   0.540
35501W        W 2284  43.407  19.957  13.507
35502W        W 2285  18.348  41.805  12.448
35503W        W 2286   9.771   4.304  13.994
35504W        W 2287   0.341  19.454   0.355
35505W        W 2288  17.269  35.884   4.986
35506W        W 2289  13.838  19.254  12.008
35507W        W 2290   0.046  24.723   1.692
35508W        W 2291   2.531  11.310   1.157
35509W        W 2292  31.578   3.953   4.348
35510W        W 2293   4.831   6.149   2.395
35511W        W 2294  44.735  27.052  14.912
35512W        W 2295  15.069   3.340  11.475
35513W        W 2296  20.004   1.498   1.364
35514W        W 2297  39.803  37.832  13.566
35515W        W 2298  21.702  34.735   1.218
35516W        W 2299  21.349  40.315  13.081
35517W        W 2300  12.967  19.549   1.584
35518W        W 2301  31.330  33.196   1.887
35519W        W 2302   8.655  21.672   2.608
35520W        W 2303  30.137  19.603   0.736
35521W        W 2304  19.004  15.586  11.513
35522W        W 2305   5.390  11.195  13.451
35523W        W 2306  13.585  41.604  14.840
35524W        W 2307  21.630  13.804   3.863
35525W        W 2308  17.404   7.369  10.709
35526W        W 2309  35.530  42.253  14.546
35527W        W 2310  13.852  33.965   3.976
35528W        W 2311   0.390  24.905   2.174
35529W        W 2312   8.673  33.406  10.481
35530W        W 2313   6.738  24.770  14.082
35531W        W 2314  14.247  34.856  14.362
35532W        W 2315  19.080  44.695  12.817
35533W        W 2316  31.460  19.731  11.675
35534W        W 2317  25.968  29.608   2.684
35535W        W 2318   1.042  12.387   4.850
35536W        W 2319  13.081  32.903  13.505
35537W        W 2320   3.815  35.924  14.307
35538W        W 2321   5.181   8.746  12.911
35539W        W 2322  42.889  44.075   0.307
35540W        W 2323   8.551  40.825  12.101
35541W        W 2324   3.002  35.395  12.483
35542W        W 2325  35.814  37.047   2.242
35543W        W 2326  13.658  44.514  13.517
35544W        W 2327   9.713  19.095   2.865
35545W        W 2328  38.408  35.915  14.753
35546W        W 2329  14.929  30.179   4.413
35547W        W 2330   2.009  25.483  12.044
35548W        W 2331  34.954  41.447  14.297
35549W        W 2332  27.889  29.343   1.842
35550W        W 2333  11.579   8.201  13.942
35551W        W 2334  17.987   1.999  14.418
35552W        W 2335  38.315  22.014  13.931
35553W        W 2336  37.078   2.163   2.852
35554W        W 2337  44.211  34.554   9.908
35555W        W 2338  25.199  34.609   2.446
35556W        W 2339  33.134  44.530  11.145
35557W        W 2340  29.639  18.686  12.124
35558W        W 2341  11.425  40.965   2.339
35559W        W 2342  16.703  21.305  10.752
35560W        W 2343  15.607   9.715  13.883
35561W        W 2344  12.000  11.562  10.669
35562W        W 2345  40.962  15.337   3.768
35563W        W 2346  24.186   9.327   2.217
35564W        W 2347   5.999  27.516  11.776
35565W        W 2348   3.315  22.656   0.719
35566W        W 2349  20.263  33.392   3.915
35567W        W 2350   1.944  18.683  13.418
35568W        W 2351  15.064   8.784  13.439
35569W        W 2352  16.272  22.479   3.827
35570W        W 2353   1.172  43.314  14.464
35571W        W 2354  29.593  33.381  10.551
35572W        W 2355  35.294  20.165  13.456
35573W        W 2356  20.836   6.320  11.864
35574W        W 2357   3.075   6.156   3.769
35575W        W 2358   4.255  30.036   2.332
35576W        W 2359  26.412  11.404  14.375
35577W        W 2360  15.729  10.657   1.315
35578W        W 2361  41.055  25.976   1.290
35579W        W 2362   1.908  34.762  11.626
35580W        W 2363  23.946  35.056  14.166
35581W        W 2364  10.114  33.890  12.443
35582W        W 2365  23.044  10.899  14.295
35583W        W 2366  13.376  42.428  14.587
35584W        W 2367  40.598  38.019   4.154
35585W        W 2368   7.704  32.327   3.277
35586W        W 2369  14.302  34.599  13.884
35587W        W 2370  24.731   7.174   0.898
35588W        W 2371  11.174  36.105   2.187
35589W        W 2372  40.797  20.062   2.456
35590W        W 2373  44.600  10.330   3.408
35591W        W 2374   0.415  28.840   0.470
35592W        W 2375   9.801  11.091   3.192
35593W        W 2376   9.815  23.160  14.531
35594W        W 2377  41.941  35.503   4.366
35595W        W 2378  41.996  22.990  10.015
35596W        W 2379  32.701   4.925  12.499
35597W        W 2380   4.283  32.541  12.037
35598W        W 2381  31.618  42.382  11.088
35599W        W 2382  39.422  13.892   1.297
35600W        W 2383  13.875  14.099   0.450
35601W        W 2384  25.625  12.039  13.904
35602W        W 2385   5.380  30.750   4.088
35603W        W 2386  33.848  29.092   2.883
35604W        W 2387  11.535   1.032  11.202
35605W        W 2388  43.629  15.083   0.504
35606W        W 2389  42.147  14.705  11.545
35607W        W 2390  24.172  24.774   1.792
35608W        W 2391   9.840  25.507   0.338
35609W        W 2392  41.518  17.747  13.960
35610W        W 2393  28.649  43.099  10.305
35611W        W 2394  32.897  10.660  13.617
35612W        W 2395  22.089  43.573  14.187
35613W        W 2396  39.011  12.037  11.915
35614W        W 2397  17.011  24.725   1.462
35615W        W 2398  27.072  27.886   0.411
35616W        W 2399   6.329  40.793  12.825
35617W        W 2400  20.672   1.343  13.335
35618W        W 2401  38.761  33.997   3.763
35619W        W 2402  10.780  38.433   2.191
35620W        W 2403  17.655   4.863   4.486
35621W        W 2404  31.892   5.977   2.318
35622W        W 2405  14.374  14.060  12.443
35623W        W 2406  26.246  21.431  14.174
35624W        W 2407   4.338  13.036   3.744
35625W        W 2408   7.426  19.952   0.501
35626W        W 2409  15.038  20.460  12.487
35627W        W 2410   9.228   2.698   2.668
35628W        W 2411   0.502  19.165   2.796
35629W        W 2412  24.602  17.754  11.424
35630W        W 2413  15.182  31.932   2.852
35631W        W 2414   3.883  15.278  12.990
35632W        W 2415  17.731  44.403   2.763
35633W        W 2416  12.482   1.072   1.420
35634W        W 2417  21.752   6.203   0.824
35635W        W 2418   3.833   7.810  14.846
35636W        W 2419  27.117  21.395  13.864
35637W        W 2420  10.612  38.823  14.150
35638W        W 2421   9.868  20.682  14.245
35639W        W 2422  36.561  20.704  11.486
35640W        W 2423  36.518  17.712  12.945
35641W        W 2424  44.682  15.161   0.266
35642W        W 2425  23.101  24.071  14.998
35643W        W 2426  15.625  26.574  11.970
35644W        W 2427  15.332   9.227  10.597
35645W        W 2428   4.302  14.599   0.060
35646W        W 2429  11.654  20.679  10.127
35647W        W 2430  14.024  12.309  12.965
35648W        W 2431  12.316  20.544  10.858
35649W        W 2432   1.929  44.463   3.193
35650W        W 2433   7.326   6.295   2.582
35651W        W 2434  31.394  42.368   4.567
35652W        W 2435   0.766  10.910  10.344
35653W        W 2436  31.924  18.445  13.497
35654W        W 2437  19.875  27.968  13.252
35655W        W 2438   5.002   7.683  12.029
35656W        W 2439  35.365  44.930   3.985
35657W        W 2440   3.953  24.253  13.035
35658W        W 2441  30.005  23.134   9.501
35659W        W 2442  31.580   1.294  13.653
35660W        W 2443  32.494   4.652   2.747
35661W        W 2444  10.210  26.653  12.870
35662W        W 2445  21.948   5.295   3.165
35663W        W 2446  23.257  34.192  13.072
35664W        W 2447   6.056  33.030  10.997
35665W        W 2448  37.323   4.387  11.209
35666W        W 2449  26.406  40.270  11.267
35667W        W 2450  10.222  26.522   2.751
35668W        W 2451  35.526  31.212   4.522
35669W        W 2452  42.518  17.765  10.218
35670W        W 2453  18.275  39.053   4.689
35671W        W 2454  37.005  10.709  13.397
35672W        W 2455  29.663   0.274   4.067
35673W        W 2456  42.099  27.347  14.767
35674W        W 2457  12.124  38.057  12.888
35675W        W 2458  41.956  34.016   2.639
35676W        W 2459  27.976  37.994   0.310
35677W        W 2460  41.047  17.245  12.451
35678W        W 2461  24.618  34.278  12.942
35679W        W 2462  43.910  13.694  12.071
35680W        W 2463  43.299   5.940   4.521
35681W        W 2464  38.908  40.357   1.898
35682W        W 2465  43.289  43.178  14.418
35683W        W 2466  31.641  28.963   3.835
35684W        W 2467  15.722  15.193   9.959
35685W        W 2468   8.404  38.014  12.456
35686W        W 2469  33.138  26.532   4.667
35687W        W 2470  30.051  14.884  14.049
35688W        W 2471  10.675  17.560   2.947
35689W        W 2472   0.422  34.523   3.257
35690W        W 2473   3.203  26.065   2.079
35691W        W 2474   3.947  26.918  13.036
35692W        W 2475  34.511  26.672   2.872
35693W        W 2476  34.212  26.723  10.550
35694W        W 2477  11.823   2.723  13.424
35695W        W 2478  17.230   4.472   0.432
35696W        W 2479  18.508  39.273   3.624
35697W        W 2480  28.497  42.039   4.451
35698W        W 2481  24.757  13.652   1.722
35699W        W 2482  18.533  21.715   3.653
35700W        W 2483  14.992  13.695  12.503
35701W        W 2484  26.663  24.984  11.142
35702W        W 2485   2.781   1.819   1.189
35703W        W 2486  17.637  22.954  13.822
35704W        W 2487   9.273   0.082   4.142
35705W        W 2488   4.513  27.670   3.607
35706W        W 2489   6.839  23.567  12.021
35707W        W 2490   4.863  25.980   2.477
35708W        W 2491  43.713  28.548  14.399
35709W        W 2492   3.861  32.897   3.350
35710W        W 2493  24.404  22.180   3.232
35711W        W 2494  43.575  13.670   0.196
35712W        W 2495  30.367  31.646  11.714
35713W        W 2496   3.751  31.890  14.062
35714W        W 2497  39.534  39.035   3.263
35715W        W 2498  41.025  21.996  14.986
35716W        W 2499  38.893  38.452   0.664
35717W        W 2500   6.223  33.193   9.883
35718W        W 2501  14.055  26.393  11.946
35719W        W 2502  37.483   6.676  11.893
35720W        W 2503  43.003  27.648  12.497
35721W        W 2504  37.897  26.533   2.204
35722W        W 2505  25.259  33.642   4.000
35723W        W 2506   8.883  26.968   1.389
35724W        W 2507   5.000  11.383   9.812
35725W        W 2508  17.770  17.907   4.910
35726W        W 2509  31.563  40.874   4.618
35727W        W 2510  15.555  11.686   3.194
35728W        W 2511   5.502  38.802   1.402
35729W        W 2512  35.694  36.664   3.200
35730W        W 2513  35.496  23.528  13.128
35731W        W 2514  12.235  36.061   3.981
35732W        W 2515   7.432  38.721   1.259
35733W        W 2516  15.115  24.681  14.566
35734W        W 2517  17.615   5.613   1.658
35735W        W 2518  43.636   0.038  12.998
35736W        W 2519  34.844  25.760   4.960
35737W        W 2520  33.977  32.107   3.745
35738W        W 2521  33.792  40.010  12.085
35739W        W 2522   9.154  22.387   1.282
35740W        W 2523  24.138  43.911   1.576
35741W        W 2524   6.115  35.438   2.119
35742W        W 2525  31.839  23.696   0.292
35743W        W 2526  31.733   9.095   2.790
35744W        W 2527  33.852  38.535  12.972
35745W        W 2528  30.873   3.881  11.515
35746W        W 2529  35.121  27.413   4.011
35747W        W 2530  28.037  23.905  13.061
35748W        W 2531  29.603  16.641  12.496
35749W        W 2532   6.440  27.186  14.859
35750W        W 2533  28.931  40.340   9.850
35751W        W 2534  12.355  43.866  13.811
35752W        W 2535  28.657  39.822   4.979
35753W        W 2536  34.490  43.947  12.963
35754W        W 2537   7.255  27.904  13.492
35755W        W 2538  43.311  23.654  10.460
35756W        W 2539  26.014  41.706   2.599
35757W        W 2540  44.540  19.621   4.571
35758W        W 2541  37.997  42.730   5.031
35759W        W 2542  44.854   8.322  12.859
35760W        W 2543  31.441   8.807   3.649
35761W        W 2544  43.284   1.272   0.847
35762W        W 2545   6.678  17.588  13.526
35763W        W 2546  44.359  18.948  11.521
35764W        W 2547   4.447  38.529   2.856
35765W        W 2548  34.529  19.675   3.696
35766W        W 2549  44.467   3.322  11.141
35767W        W 2550  23.199   1.289  13.993
35768W        W 2551  14.687  14.844   3.135
35769W        W 2552  18.844  13.265  14.007
35770W        W 2553  25.577  14.068   4.566
35771W        W 2554  34.814  13.128   4.081
35772W        W 2555   0.725   4.437  14.763
35773W        W 2556  12.275  36.606   4.468
35774W        W 2557  11.659  20.030   1.212
35775W        W 2558  34.986  41.183   2.152
35776W        W 2559  43.260  23.001   0.451
35777W        W 2560  43.062  42.400   2.249
35778W        W 2561  39.869  21.000   0.313
35779W        W 2562  18.471  32.618   3.279
35780W        W 2563  34.431   7.772   1.515
35781W        W 2564  40.320  41.392  13.983
35782W        W 2565  26.519  35.336  13.577
35783W        W 2566  39.728   1.620   2.835
35784W        W 2567  23.257  40.577  14.349
35785W        W 2568   2.912   2.441  14.912
35786W        W 2569   6.157  18.849   3.202
35787W        W 2570  20.254  11.713   2.853
35788W        W 2571  20.650  20.677   2.121
35789W        W 2572  30.826  28.550   2.310
35790W        W 2573   3.344  25.458   3.113
35791W        W 2574  39.938  27.497   1.395
35792W        W 2575  27.237  11.120  12.996
35793W        W 2576   5.817   8.906   1.726
35794W        W 2577  28.396  25.736  13.766
35795W        W 2578   1.730   8.704   4.722
35796W        W 2579  31.548  16.930   3.750
35797W        W 2580  26.638  32.087   0.314
35798W        W 2581  16.558  43.488   4.247
35799W        W 2582  16.812  24.654  14.799
35800W        W 2583  33.566  26.344   0.682
35801W        W 2584  21.695  38.130  13.241
35802W        W 2585  19.736   0.481   3.165
35803W        W 2586  26.585  10.003   4.559
35804W        W 2587  43.248  28.167  10.917
35805W        W 2588  10.239   1.473  13.404
35806W        W 2589  18.471  38.492  13.468
35807W        W 2590  29.442  13.161   0.502
35808W        W 2591  40.006  38.967   3.476
35809W        W 2592  36.977   2.019  14.312
35810W        W 2593  16.682  26.173   0.341
35811W        W 2594  40.530  16.591  14.714
35812W        W 2595  37.370  30.982   5.025
35813W        W 2596  37.925   1.172   0.956
35814W        W 2597  19.074  30.442  11.273
35815W        W 2598  16.559   3.653   2.141
35816W        W 2599  18.079  11.886   1.366
35817W        W 2600  22.373  31.957  14.675
35818W        W 2601  44.513   7.384  12.583
35819W        W 2602   2.475   1.913  10.741
35820W        W 2603  25.797  43.461  12.817
35821W        W 2604  25.107  10.454   2.445
35822W        W 2605   3.889  36.892  14.537
35823W        W 2606   7.861   8.027   1.602
35824W        W 2607  10.431   5.163  14.719
35825W        W 2608  15.429  30.037   3.198
35826W        W 2609  16.597  38.478   4.825
35827W        W 2610   0.887  11.593  11.539
35828W        W 2611   2.497  16.716  11.594
35829W        W 2612  21.258   9.849  14.488
35830W        W 2613  31.608  15.426  13.134
35831W        W 2614   8.425  27.678  11.599
35832W        W 2615  40.468  15.401  10.759
35833W        W 2616  38.332  39.790   0.425
35834W        W 2617  28.504  16.208   2.871
35835W        W 2618  18.500   9.644  13.142
35836W        W 2619   3.932  34.600   2.654
35837W        W 2620  41.954  15.945  13.016
35838W        W 2621  25.901  11.911   4.241
35839W        W 2622  39.793   0.273  10.887
35840W        W 2623  38.639   6.491   4.617
35841W        W 2624  31.271  28.681  13.419
35842W        W 2625   1.866  21.812  14.586
35843W        W 2626  28.471  20.317   2.153
35844W        W 2627  41.322  16.564   3.844
35845W        W 2628  22.993  18.237  14.805
35846W        W 2629  34.895  26.359   4.117
35847W        W 2630   2.762  43.197   5.055
35848W        W 2631  21.315  10.747  11.044
35849W        W 2632  35.259   1.512  11.547
35850W        W 2633  41.854  19.425   4.651
35851W        W 2634  15.203  19.039   3.874
35852W        W 2635  25.701  30.963   2.697
35853W        W 2636  14.713  13.817   3.934
35854W        W 2637  24.213  31.012  11.104
35855W        W 2638  22.983  21.212   0.406
35856W        W 2639  35.211  42.830   0.621
35857W        W 2640  41.405  36.825   1.320
35858W        W 2641  19.520  25.071   4.920
35859W        W 2642  38.343   9.118  10.391
35860W        W 2643  14.147   6.904  10.408
35861W        W 2644  28.499  41.169  10.693
35862W        W 2645  40.216  21.589   0.997
35863W        W 2646  26.616  19.586  11.398
35864W        W 2647  16.707  33.837  13.338
35865W        W 2648  23.309  44.355   4.201
35866W        W 2649  17.568  28.535   4.490
35867W        W 2650  26.123  18.877   1.631
35868W        W 2651  23.786  43.479  14.049
35869W        W 2652  44.034  39.340  13.231
35870W        W 2653   5.311  35.172  10.059
35871W        W 2654  27.377   5.699  10.829
35872W        W 2655   0.914  15.435  14.789
35873W        W 2656   9.667  15.702  14.928
35874W        W 2657  22.646  28.672  12.252
35875W        W 2658   6.608  43.736  13.645
35876W        W 2659   1.395  10.839   3.156
35877W        W 2660  35.795  34.007  10.921
35878W        W 2661  32.075  19.981   2.233
35879W        W 2662  13.485  18.147   3.168
35880W        W 2663  24.039  30.885  11.566
35881W        W 2664  24.679  20.985   2.826
35882W        W 2665  44.750   9.111   2.786
35883W        W 2666  26.188  44.354  14.002
35884W        W 2667  31.890  17.701  12.779
35885W        W 2668  38.795  24.078  14.510
35886W        W 2669  16.279  14.145  12.407
35887W        W 2670  38.960  25.480   1.107
35888W        W 2671  35.821  33.454  12.495
35889W        W 2672  31.628  24.680   2.294
35890W        W 2673  42.922  21.403  10.099
35891W        W 2674  32.427  23.802  14.491
35892W        W 2675  41.323  39.388   0.985
35893W        W 2676  32.147  11.253  14.346
35894W        W 2677  20.685  18.547   2.311
35895W        W 2678  31.358   8.251   5.067
35896W        W 2679  17.173   8.705  10.685
35897W        W 2680  13.926  33.511  11.842
35898W        W 2681  35.451  38.551   3.930
35899W        W 2682  33.518  28.872   4.807
35900W        W 2683  39.379  14.380  10.855
35901W        W 2684  23.546  37.826   2.016
35902W        W 2685   0.947  22.489   3.749
35903W        W 2686  32.394  10.596   4.972
35904W        W 2687  40.029  13.071  14.307
35905W        W 2688   9.633  17.294   3.707
35906W        W 2689  18.627  11.233   0.980
35907W        W 2690  14.765  43.863   1.041
35908W        W 2691  15.248  43.048  11.792
35909W        W 2692   2.496  33.047  11.625
35910W        W 2693  44.100   3.215  12.917
35911W        W 2694   4.154  31.201   4.390
35912W        W 2695  24.389   1.900  11.470
35913W        W 2696  18.984  33.881   0.962
35914W        W 2697  22.994   3.367   0.334
35915W        W 2698  35.768  36.375  12.881
35916W        W 2699  37.012  40.042  12.505
35917W        W 2700  13.455   8.948   0.271
35918W        W 2701   4.182  26.328  11.804
35919W        W 2702  44.306   2.389   0.981
35920W        W 2703  29.188  12.311  11.622
35921W        W 2704   4.801   9.069   2.708
35922W        W 2705  25.512  29.573  13.886
35923W        W 2706  40.517   9.629   3.915
35924W        W 2707  17.831  28.323   2.323
35925W        W 2708  41.822  40.456  10.359
35926W        W 2709  37.443   9.136   2.733
35927W        W 2710  39.989  18.794   3.239
35928W        W 2711   6.561   7.664  11.090
35929W        W 2712  26.965  23.852  12.917
35930W        W 2713  37.331  14.782   2.417
35931W        W 2714   3.278   7.352   1.175
35932W        W 2715  33.732  29.705   0.931
35933W        W 2716   1.418   2.028   0.913
35934W        W 2717  13.740  11.891   4.163
35935W        W 2718   4.032  10.394   1.964
35936W        W 2719  26.624   5.435   0.012
35937W        W 2720  33.506  35.947  10.899
35938W        W 2721  33.450  36.493   4.406
35939W        W 2722   7.682  32.331  10.716
35940W        W 2723  10.402   6.739   1.137
35941W        W 2724  24.553   6.761  11.525
35942W        W 2725   5.021  27.698  14.656
35943W        W 2726  29.364  24.580  11.021
35944W        W 2727  20.525  43.814   0.865
35945W        W 2728  11.638   8.392  12.902
35946W        W 2729  17.063  27.048  12.450
35947W        W 2730   0.904  37.326  13.394
35948W        W 2731  21.713  31.823  10.176
35949W        W 2732   1.651  11.041  11.743
35950W        W 2733  17.754  20.975  12.853
35951W        W 2734  31.971  40.050   4.178
35952W        W 2735   6.391   4.025  10.658
35953W        W 2736  27.308  23.536   4.619
35954W        W 2737  39.522  14.350  12.153
35955W        W 2738   8.353  44.799  12.524
35956W        W 2739  33.415  31.356  13.945
35957W        W 2740  22.258  17.160  10.637
35958W        W 2741   3.201  38.556   3.270
35959W        W 2742  15.991  41.544   5.122
35960W        W 2743  21.689  27.549   0.308
35961W        W 2744  15.969  18.346   4.620
35962W        W 2745  41.907  40.863   1.438
35963W        W 2746  22.142  37.911  10.690
35964W        W 2747  24.749  44.462  12.869
35965W        W 2748  26.977  16.143   0.190
35966W        W 2749  29.932  18.971  13.457
35967W        W 2750   0.937  20.716   3.272
35968W        W 2751  35.560   1.490  13.273
35969W        W 2752  44.826  32.943   4.552
35970W        W 2753  14.730  27.436   1.683
35971W        W 2754  39.316   2.913  11.484
35972W        W 2755  30.280   2.380  14.308
35973W        W 2756  37.990  24.595  14.930
35974W        W 2757   3.921  27.042   4.429
35975W        W 2758  38.146  20.553   0.899
35976W        W 2759  36.563  18.044  12.509
35977W        W 2760  44.470  17.564   4.585
35978W        W 2761  30.717  25.007  11.094
35979W        W 2762  14.532  39.224   1.267
35980W        W 2763  44.191  23.546  10.318
35981W        W 2764   3.919  29.935   4.159
35982W        W 2765  20.522   1.675   1.795
35983W        W 2766  41.090  40.454  13.578
35984W        W 2767  24.558  27.498  11.390
35985W        W 2768  17.317  23.006  12.805
35986W        W 2769  29.483  36.304   1.431
35987W        W 2770  31.451  20.190  11.385
35988W        W 2771  42.997  18.050   2.830
35989W        W 2772  37.315  28.564   3.242
35990W        W 2773  12.158  37.444   3.844
35991W        W 2774  15.411  41.493  13.062
35992W        W 2775  14.834  19.128   2.444
35993W        W 2776  38.627  18.687   5.020
35994W        W 2777  36.405   4.555  12.072
35995W        W 2778  27.039  10.409  13.893
35996W        W 2779  27.619  44.260   1.360
35997W        W 2780   4.570   9.867  11.523
35998W        W 2781  15.929  24.694   0.975
35999W        W 2782  38.110   8.111   9.781
36000W        W 2783  12.337  44.297   2.122
36001W        W 2784  30.723  26.307  10.922
36002W        W 2785  26.520  36.453   4.104
36003W        W 2786  27.671  26.321   3.736
36004W        W 2787  37.948  13.859   3.635
36005W        W 2788  36.699  14.202  13.446
36006W        W 2789  35.453  42.460   2.263
36007W        W 2790   2.354  11.821   1.852
36008W        W 2791   1.031  32.924   3.396
36009W        W 2792  40.369  25.728  11.455
36010W        W 2793  14.821   9.177   1.852
36011W        W 2794  35.167   5.326   0.634
36012W        W 2795  44.306  17.199   1.816
36013W        W 2796  18.423  12.283   4.963
36014W        W 2797  37.560  25.172  14.877
36015W        W 2798  12.846   1.470   0.361
36016W        W 2799  38.051  40.060  14.696
36017W        W 2800  39.174   7.175  10.992
36018W        W 2801   5.182  26.568  11.865
36019W        W 2802  16.285  37.436  12.111
36020W        W 2803  35.414  24.520   0.275
36021W        W 2804  20.573  24.986   3.150
36022W        W 2805   0.830   1.552   1.408
36023W        W 2806  24.814  11.757   0.252
36024W        W 2807   8.883  37.523   3.674
36025W        W 2808  36.797  10.368  12.635
36026W        W 2809   2.633  38.947   4.036
36027W        W 2810  32.305  15.890  11.519
36028W        W 2811  34.387  21.268   0.388
36029W        W 2812  44.007   1.057  10.892
36030W        W 2813  20.676  31.876  13.030
36031W        W 2814   2.517  41.006   1.253
36032W        W 2815  38.472   9.601   0.251
36033W        W 2816  28.822   5.699  14.727
36034W        W 2817  39.808   7.989   2.848
36035W        W 2818  38.027  43.843   2.962
36036W        W 2819  37.425   0.839   0.026
36037W        W 2820  26.697   3.031   4.130
36038W        W 2821  40.790  33.160  10.702
36039W        W 2822  38.037  16.661   4.760
36040W        W 2823  21.838   5.409  14.093
36041W        W 2824  30.275  30.158   0.831
36042W        W 2825  16.680   8.582   0.161
36043W        W 2826  37.482  35.775  14.794
36044W        W 2827   2.256  32.738  13.528
36045W        W 2828  14.708  27.520  11.520
36046W        W 2829   5.139   1.315   4.580
36047W        W 2830  41.330  30.551  14.962
36048W        W 2831  22.654   9.168  12.869
36049W        W 2832   9.251  27.420   4.136
36050W        W 2833  39.437  15.135   0.503
36051W        W 2834  22.162   1.047  13.971
36052W        W 2835   1.312  37.921  13.013
36053W        W 2836   4.643  34.571  11.534
36054W        W 2837  29.088  32.902  13.940
36055W        W 2838  38.950   4.087  14.416
36056W        W 2839   4.339  40.279  14.985
36057W        W 2840  34.535  30.140   3.703
36058W        W 2841  21.267  44.315  12.014
36059W        W 2842  28.617  12.252   1.476
36060W        W 2843  37.237  32.326  11.190
36061W        W 2844  27.630   3.235  11.868
36062W        W 2845   9.924  43.284  13.027
36063W        W 2846  24.767  37.050   2.802
36064W        W 2847  18.210  21.792   1.794
36065W        W 2848  12.239  14.027   4.580
36066W        W 2849   5.340   9.720  10.371
36067W        W 2850   5.303  42.418   2.497
36068W        W 2851   6.801  42.869  13.295
36069W        W 2852  43.506  22.130   4.545
36070W        W 2853  28.969  20.533  12.673
36071W        W 2854   8.664   7.682   0.732
36072W        W 2855   6.738  20.356  11.611
36073W        W 2856  22.641  41.047  11.098
36074W        W 2857  13.433  10.715   3.743
36075W        W 2858  20.733  39.631   4.687
36076W        W 2859  43.944  28.473   2.206
36077W        W 2860   0.972  36.922  12.197
36078W        W 2861  38.094  19.326   4.172
36079W        W 2862  41.570  12.192   1.419
36080W        W 2863  32.947  23.973  13.459
36081W        W 2864  39.235  18.788   1.931
36082W        W 2865  38.756  18.513   3.513
36083W        W 2866  13.486   6.244  12.924
36084W        W 2867  18.248  27.074   4.215
36085W        W 2868  25.798  23.152   1.819
36086W        W 2869   7.634   9.869  11.989
36087W        W 2870   4.538  27.077  14.915
36088W        W 2871  39.889  33.535  12.441
36089W        W 2872  36.245  30.289   1.408
36090W        W 2873  38.972   0.246  13.363
36091W        W 2874  21.688  29.259  13.485
36092W        W 2875  11.419   0.380   0.730
36093W        W 2876  39.461  25.776   4.160
36094W        W 2877  30.136  16.780  12.544
36095W        W 2878  18.359  44.572  11.136
36096W        W 2879   7.816  22.014   0.734
36097W        W 2880  16.297  34.961  10.657
36098W        W 2881  37.066  32.921  13.840
36099W        W 2882  16.097   1.003   0.360
36100W        W 2883   0.852  24.389  11.447
36101W        W 2884  38.958   7.315   0.464
36102W        W 2885  30.471  29.915   0.401
36103W        W 2886   2.558  35.132  12.930
36104W        W 2887  23.155  15.987  10.404
36105W        W 2888  17.724  12.585   4.424
36106W        W 2889   4.271  31.094   3.888
36107W        W 2890  22.109  16.726   1.433
36108W        W 2891  26.616  25.025   4.260
36109W        W 2892  11.154  30.457  13.338
36110W        W 2893   9.620  35.697  14.796
36111W        W 2894  30.165  35.675  12.129
36112W        W 2895  38.626  26.568  10.531
36113W        W 2896  18.697  10.214   3.628
36114W        W 2897  29.485  20.600  11.844
36115W        W 2898  41.815  35.883   0.770
36116W        W 2899  22.097  23.716   1.387
36117W        W 2900   5.150  40.427  14.814
36118W        W 2901   6.365  19.980   2.953
36119W        W 2902  17.775  41.773   4.501
36120W        W 2903  41.514  14.200   2.175
36121W        W 2904  25.232  33.432  11.478
36122W        W 2905  32.522  30.287   2.048
36123W        W 2906   3.220  37.181   0.401
36124W        W 2907  42.432  25.205  14.361
36125W        W 2908  39.403  13.689   2.313
36126W        W 2909   2.280  23.027  13.124
36127W        W 2910  25.952  17.128  13.070
36128W        W 2911  12.646  36.010   0.485
36129W        W 2912  12.012  35.340  14.530
36130W        W 2913   1.455  14.129  14.245
36131W        W 2914  18.977  36.923   0.895
36132W        W 2915  14.156   2.027   0.428
36133W        W 2916  26.404  29.340   5.031
36134W        W 2917   8.180  23.065   3.703
36135W        W 2918  14.818  34.429   0.765
36136W        W 2919  14.115  29.692  11.618
36137W        W 2920  29.715  42.375  11.128
36138W        W 2921  10.732  32.167   1.949
36139W        W 2922   3.321   2.692   0.330
36140W        W 2923   8.703  43.234  10.788
36141W        W 2924  22.786  20.032  12.014
36142W        W 2925  36.395  35.998   4.574
36143W        W 2926  33.062  44.680   2.844
36144W        W 2927  19.641   5.724  13.896
36145W        W 2928   8.147  20.241  11.597
36146W        W 2929  42.614  34.378  13.371
36147W        W 2930  29.613  10.773   1.698
36148W        W 2931  33.937   9.909   3.809
36149W        W 2932  31.966  11.962   2.323
36150W        W 2933  44.871  13.702   9.832
36151W        W 2934   4.687  22.998   3.597
36152W        W 2935   9.301  37.287  13.901
36153W        W 2936  14.707  43.767  14.394
36154W        W 2937  41.278  38.606   2.820
36155W        W 2938  22.020  42.055  10.935
36156W        W 2939  28.995  19.049   0.390
36157W        W 2940   0.700  13.638   3.218
36158W        W 2941  34.012   3.390   1.569
36159W        W 2942  15.651  26.721  14.406
36160W        W 2943  40.356  22.013  11.919
36161W        W 2944  18.608  24.665   2.253
36162W        W 2945  26.495  17.812  12.490
36163W        W 2946  13.376  31.526   1.378
36164W        W 2947  11.366  28.627   4.594
36165W        W 2948  19.690  17.783  11.889
36166W        W 2949   3.768  41.073  11.773
36167W        W 2950  15.842   4.495   5.016
36168W        W 2951  33.600   9.612  14.819
36169W        W 2952  18.860  17.152   2.265
36170W        W 2953  35.957  24.978  12.645
36171W        W 2954  17.148  37.841  14.651
36172W        W 2955   7.687   5.183   3.758
36173W        W 2956   8.467  31.624  11.520
36174W        W 2957  21.771  13.139  14.046
36175W        W 2958  41.510  41.313   3.597
36176W        W 2959  11.804  15.256   1.132
36177W        W 2960  28.527  32.175  12.916
36178W        W 2961  25.133  34.156  14.520
36179W        W 2962  25.141   5.895  10.519
36180W        W 2963  42.457   9.325   3.337
36181W        W 2964   5.857  40.429   3.167
36182W        W 2965  23.132  33.225   4.736
36183W        W 2966  22.946  15.626   0.038
36184W        W 2967   6.205  30.916   4.370
36185W        W 2968  10.431  12.537  14.402
36186W        W 2969  22.537  18.845  14.405
36187W        W 2970  38.310  21.842  12.120
36188W        W 2971  17.901  25.931  11.485
36189W        W 2972  44.365   8.194   3.599
36190W        W 2973  38.436  31.009   1.364
36191W        W 2974  16.011  12.290  12.062
36192W        W 2975  34.785  23.081  12.854
36193W        W 2976  31.506  30.463  13.265
36194W        W 2977   0.415  35.720   0.773
36195W        W 2978  34.996  34.998   0.537
36196W        W 2979  17.444   6.797   0.668
36197W        W 2980  20.103  27.284   4.297
36198W        W 2981  32.399  39.114  12.767
36199W        W 2982  24.764  35.189   3.845
36200W        W 2983  27.581  14.619  10.570
36201W        W 2984   4.300   6.628   1.944
36202W        W 2985   1.190   0.202  14.989
36203W        W 2986  21.543   1.921  12.551
36204W        W 2987  41.414  43.355   1.378
36205W        W 2988  11.400  40.987  14.347
36206W        W 2989  14.110  20.019   1.906
36207W        W 2990  42.441  39.453  10.685
36208W        W 2991  44.697   8.844  11.434
36209W        W 2992  25.387  35.040   1.905
36210W        W 2993  25.375   1.740  11.550
36211W        W 2994  15.531  15.763   3.780
36212W        W 2995  28.101  14.470   3.267
36213W        W 2996  32.678  15.792   1.906
36214W        W 2997  16.016   8.005  13.124
36215W        W 2998   9.263  12.144  13.736
36216W        W 2999  39.564  17.408  11.078
36217W        W 3000  21.245   3.768   0.943
36218W        W 3001  37.962  29.602   2.792
36219W        W 3002   5.772  16.671   3.679
36220W        W 3003  10.788  31.966   2.831
36221W        W 3004  26.982  37.847   1.873
36222W        W 3005   1.692   0.660   3.838
36223W        W 3006   9.020   3.457   2.890
36224W        W 3007  15.654  41.316  12.381
36225W        W 3008  43.767   9.112   2.792
36226W        W 3009   9.232  19.976  14.464
36227W        W 3010  35.499   4.081  13.114
36228W        W 3011  14.730  20.063  12.613
36229W        W 3012   9.849  25.699   2.451
36230W        W 3013  17.302  25.118   1.286
36231W        W 3014  26.239  38.411  11.007
36232W        W 3015  32.204   6.402  12.229
36233W        W 3016   5.222  29.594   1.940
36234W        W 3017   6.328  27.923  11.594
36235W        W 3018   0.892  15.573   4.489
36236W        W 3019   7.355  34.245   4.596
36237W        W 3020  20.842  32.204  13.995
36238W        W 3021  24.107  11.722  10.651
36239W        W 3022  34.884  19.266   3.657
36240W        W 3023  22.389  28.961   3.109
36241W        W 3024  41.924  25.159   4.717
36242W        W 3025  14.614  27.869  14.824
36243W        W 3026   6.066   5.766   2.938
36244W        W 3027  37.418  44.533   0.399
36245W        W 3028  32.547   8.344   1.438
36246W        W 3029  19.091  29.924  12.149
36247W        W 3030  25.243  42.972   0.392
36248W        W 3031   8.236  23.592   3.797
36249W        W 3032  11.287  43.416   4.560
36250W        W 3033  41.960   1.922   1.797
36251W        W 3034   1.887  14.633   2.143
36252W        W 3035   6.247   5.848   0.722
36253W        W 3036  15.215  44.969   4.614
36254W        W 3037  32.322  34.105   3.808
36255W        W 3038   4.707  34.445   0.478
36256W        W 3039  20.223  36.080  10.445
36257W        W 3040  18.499  40.861   4.866
36258W        W 3041  43.752  21.074  11.062
36259W        W 3042  41.760  22.577   2.325
36260W        W 3043  11.583  20.220  11.983
36261W        W 3044  14.657   7.855   0.801
36262W        W 3045  27.755   9.206  12.398
36263W        W 3046  32.133  37.433  11.722
36264W        W 3047   1.351  21.473  11.623
36265W        W 3048  34.859  15.965   0.246
36266W        W 3049  19.475  37.404  10.702
36267W        W 3050  44.973  12.684  11.995
36268W        W 3051  40.944  16.891  14.770
36269W        W 3052  42.277   9.360  12.133
36270W        W 3053   8.803   3.588  12.799
36271W        W 3054  34.087  21.238   0.833
36272W        W 3055  40.751  21.465   4.195
36273W        W 3056  17.685  39.015   3.132
36274W        W 3057   7.719  39.546   1.829
36275W        W 3058  17.073  20.441   1.233
36276W        W 3059  41.046  34.492  10.650
36277W        W 3060  38.667  11.382  12.449
36278W        W 3061  39.258  39.923  13.415
36279W        W 3062   0.250  18.698   2.811
36280W        W 3063  22.669  12.959  14.758
36281W        W 3064  11.630  31.676   3.787
36282W        W 3065   5.335  37.349   4.517
36283W        W 3066  44.518  30.476   1.886
36284W        W 3067  23.544  11.962   2.232
36285W        W 3068  19.613  12.824  13.838
36286W        W 3069  31.094  28.618   0.203
36287W        W 3070  25.211  26.616   4.966
36288W        W 3071   9.869  23.478   2.662
36289W        W 3072  28.600   9.732   1.296
36290W        W 3073  39.268  41.332   2.325
36291W        W 3074  27.631   5.691  13.074
36292W        W 3075  16.001   3.482   1.263
36293W        W 3076  36.056   0.332   2.351
36294W        W 3077  41.515  30.133   2.203
36295W        W 3078   7.853  42.832  14.358
36296W        W 3079  21.763  35.884   1.860
36297W        W 3080  36.626   9.128  12.677
36298W        W 3081   3.840  17.261  10.754
36299W        W 3082  36.838  40.488  14.632
36300W        W 3083  31.341   6.760  13.953
36301W        W 3084  36.755  14.200  14.006
36302W        W 3085   9.753  41.560  14.094
36303W        W 3086  24.543   6.418   2.829
36304W        W 3087  14.571  38.541   2.474
36305W        W 3088  11.684  44.751  13.422
36306W        W 3089  42.055  21.042   0.894
36307W        W 3090   6.212  32.816  13.973
36308W        W 3091  19.713  37.825   3.351
36309W        W 3092  38.892  26.380   1.864
36310W        W 3093  33.393  11.634   2.461
36311W        W 3094  14.819  26.251  13.527
36312W        W 3095  12.566  44.791  11.865
36313W        W 3096  27.277  28.430  12.812
36314W        W 3097   9.788  19.035  12.913
36315W        W 3098  40.384  25.582  12.410
36316W        W 3099  19.469  15.311  14.154
36317W        W 3100  29.665  11.897   1.152
36318W        W 3101  34.888  41.747  12.095
36319W        W 3102   1.912  36.902  12.574
36320W        W 3103  19.487  18.161   4.232
36321W        W 3104   6.282  16.067  11.093
36322W        W 3105  31.172  19.066  11.553
36323W        W 3106  40.361  24.028  12.083
36324W        W 3107  15.150  24.597   4.460
36325W        W 3108  29.570  15.080  13.401
36326W        W 3109  24.734  34.188  14.863
36327W        W 3110  18.142  24.613  13.874
36328W        W 3111  18.288  21.964  12.496
36329W        W 3112  42.845  31.271   4.753
36330W        W 3113  41.010  18.183   3.830
36331W        W 3114  18.672  11.214  11.941
36332W        W 3115  17.553  16.472   2.340
36333W        W 3116   8.817  44.292  11.930
36334W        W 3117  14.715  16.696  11.212
36335W        W 3118  43.962  33.930   4.655
36336W        W 3119  20.297  22.638  13.026
36337W        W 3120  33.445  41.224   3.850
36338W        W 3121   0.875  19.078   4.896
36339W        W 3122  27.486  34.041   3.289
36340W        W 3123  43.274  37.495  13.528
36341W        W 3124  13.806  28.867   0.809
36342W        W 3125  26.124  18.101  10.408
36343W        W 3126  41.895  22.253   1.332
36344W        W 3127   7.813   1.665   4.553
36345W        W 3128  28.133   2.187   2.342
36346W        W 3129   3.124  20.192   2.465
36347W        W 3130  23.169   5.243  14.408
36348W        W 3131  26.717  20.081   3.104
36349W        W 3132   3.990  23.694  13.953
36350W        W 3133   5.251  13.251   2.820
36351W        W 3134   1.895   5.622   3.906
36352W        W 3135  15.242  29.959  12.792
36353W        W 3136  15.412  40.978  13.317
36354W        W 3137  31.951  43.773  11.150
36355W        W 3138  37.132  27.167  12.900
36356W        W 3139  18.656  23.972  13.324
36357W        W 3140  10.833  37.289  12.609
36358W        W 3141  31.043  33.440   4.627
36359W        W 3142  41.860  43.088  13.377
36360W        W 3143  31.570  10.687   3.993
36361W        W 3144  33.421   9.174  11.624
36362W        W 3145  24.453  17.805  14.273
36363W        W 3146  37.342  22.296   2.273
36364W        W 3147  26.707  30.150  11.952
36365W        W 3148  40.892   1.514   2.205
36366W        W 3149  37.952  36.493  14.811
36367W        W 3150  31.728   5.684   3.687
36368W        W 3151  34.925  11.875   3.795
36369W        W 3152  18.475  30.923   2.257
36370W        W 3153  12.628  35.823  11.633
36371W        W 3154  18.294  39.857   0.267
36372W        W 3155   2.761  32.023   4.582
36373W        W 3156   1.206  37.559   4.120
36374W        W 3157   0.033   9.389   3.120
36375W        W 3158  39.583  39.903  12.020
36376W        W 3159  43.888  11.105  10.702
36377W        W 3160   7.341  20.119  12.010
36378W        W 3161  15.262  42.913   4.457
36379W        W 3162   0.411  31.211   2.250
36380W        W 3163  24.697  22.975   2.751
36381W        W 3164  12.648   0.972   1.903
36382W        W 3165  41.193  35.400  10.716
36383W        W 3166   4.218  21.154  10.709
36384W        W 3167   9.733  39.379  13.060
36385W        W 3168   1.942  26.199   4.981
36386W        W 3169  43.004   1.351   1.690
36387W        W 3170  37.736  43.423  13.011
36388W        W 3171  40.987  30.062  11.598
36389W        W 3172  29.124  42.390   1.338
36390W        W 3173  33.563  13.169  10.792
36391W        W 3174   9.433   6.345  13.408
36392W        W 3175  22.800  20.850  14.818
36393W        W 3176  19.257  27.306   0.829
36394W        W 3177  37.109   4.964  12.102
36395W        W 3178  37.807  30.984   4.587
36396W        W 3179  37.995   3.193   1.733
36397W        W 3180   3.021   5.346  12.952
36398W        W 3181   6.938  16.836  11.971
36399W        W 3182  42.936  38.732   1.431
36400W        W 3183  20.484  23.466  12.872
36401W        W 3184   5.787  39.553   2.971
36402W        W 3185  17.638  23.655   0.727
36403W        W 3186  28.116   3.754   2.166
36404W        W 3187  27.406  30.689  13.046
36405W        W 3188  30.935  37.289  11.362
36406W        W 3189   0.517  38.865  10.762
36407W        W 3190  20.297  35.530   4.563
36408W        W 3191  38.693  19.247   1.386
36409W        W 3192  30.095   0.509  12.695
36410W        W 3193  31.798  28.532  10.667
36411W        W 3194  14.763  15.145   4.831
36412W        W 3195  38.950  25.697   3.692
36413W        W 3196  28.137  13.673   2.613
36414W        W 3197  30.466  18.364  10.231
36415W        W 3198   9.385   5.987   3.129
36416W        W 3199   2.336  35.030  11.765
36417W        W 3200  31.021  13.341   4.689
36418W        W 3201  39.608  28.923  13.559
36419W        W 3202  14.683   0.140   3.649
36420W        W 3203   8.709  22.228  11.714
36421W        W 3204   6.172  11.210  14.818
36422W        W 3205   9.738  25.938  13.008
36423W        W 3206  33.983  10.346  11.747
36424W        W 3207  18.185  13.483  10.169
36425W        W 3208  37.960  38.820   1.462
36426W        W 3209   4.486   7.618  11.989
36427W        W 3210   8.149  37.896  13.948
36428W        W 3211   3.431   6.806   2.581
36429W        W 3212  34.087  43.302   4.047
36430W        W 3213  19.199  43.233   4.936
36431W        W 3214  20.559  37.020  14.784
36432W        W 3215  39.954  36.060   2.651
36433W        W 3216  44.755  22.180   0.346
36434W        W 3217  37.251  33.985   3.604
36435W        W 3218  39.021   5.927   1.358
36436W        W 3219  30.596  39.858  12.596
36437W        W 3220  13.705  29.268  12.090
36438W        W 3221   7.268  26.613   2.596
36439W        W 3222  26.531  31.908  12.513
36440W        W 3223  29.748   0.845   2.107
36441W        W 3224  13.042  24.312   1.469
36442W        W 3225  10.422  39.187   2.290
36443W        W 3226  22.725  25.981  13.860
36444W        W 3227   4.576  33.906  14.218
36445W        W 3228  22.612  25.279  13.464
36446W        W 3229   7.228  27.984  11.455
36447W        W 3230  10.741  30.856  11.157
36448W        W 3231  20.292  33.273  14.401
36449W        W 3232  29.406  13.447  14.907
36450W        W 3233  41.069  10.903   3.243
36451W        W 3234  23.560  34.620   4.773
36452W        W 3235  18.600   3.695  13.129
36453W        W 3236  39.495  11.787   3.333
36454W        W 3237  15.903  36.990   1.411
36455W        W 3238  15.246  35.094   4.119
36456W        W 3239  10.151  10.554  13.555
36457W        W 3240  44.246  40.566   1.302
36458W        W 3241  29.178   0.440   0.926
36459W        W 3242  14.077  16.143  10.543
36460W        W 3243   2.459  12.295  14.296
36461W        W 3244  40.038  27.571  13.102
36462W        W 3245  37.449  38.273  11.736
36463W        W 3246  42.328  15.691  14.681
36464W        W 3247  31.095   1.771  12.916
36465W        W 3248  35.410   4.897   0.853
36466W        W 3249  38.136   2.467  14.910
36467W        W 3250   0.465  17.699   0.551
36468W        W 3251  37.797  18.667  12.143
36469W        W 3252   4.855  22.044  14.871
36470W        W 3253  23.306   4.805  11.289
36471W        W 3254  15.535  36.601  14.222
36472W        W 3255   1.827  43.295   2.310
36473W        W 3256   5.260  15.617   2.431
36474W        W 3257  22.660   4.122   1.363
36475W        W 3258   5.131  33.435   2.795
36476W        W 3259  42.646  35.965   3.338
36477W        W 3260  16.880  18.236   0.430
36478W        W 3261  34.855  12.445   2.600
36479W        W 3262  24.615  33.891   0.284
36480W        W 3263  19.432   2.697   1.741
36481W        W 3264  12.939  16.710   2.235
36482W        W 3265  30.608  14.659   2.688
36483W        W 3266  26.668  24.789   2.007
36484W        W 3267  43.319  10.937  14.441
36485W        W 3268  19.742  34.589  13.201
36486W        W 3269  11.627  13.604   2.785
36487W        W 3270   0.321  18.608   3.689
36488W        W 3271  34.028  39.420  13.051
36489W        W 3272  36.524  30.072  10.696
36490W        W 3273  13.530  43.218  13.541
36491W        W 3274  34.877  37.120  13.533
36492W        W 3275  32.627  26.973   4.054
36493W        W 3276  15.030  10.948   3.370
36494W        W 3277  24.824   0.832   2.669
36495W        W 3278  18.632  10.692  14.246
36496W        W 3279  31.654   3.633   3.251
36497W        W 3280  28.630  31.469  11.604
36498W        W 3281  32.396   5.194   1.264
36499W        W 3282   0.329  13.580  12.682
36500W        W 3283   8.843  19.312  14.077
36501W        W 3284  42.560  31.376   3.205
36502W        W 3285  19.652   0.440  11.485
36503W        W 3286  33.075  40.847  12.548
36504W        W 3287  21.656  25.550  13.412
36505W        W 3288  17.640  20.615   2.735
36506W        W 3289  25.442  27.495   2.468
36507W        W 3290  10.548  24.112   3.629
36508W        W 3291  34.777  19.210  11.573
36509W        W 3292   4.675  11.275  12.798
36510W        W 3293  25.056  16.401  11.583
36511W        W 3294  40.749  38.702  14.406
36512W        W 3295   7.397  21.481   4.861
36513W        W 3296  21.732   9.617  12.565
36514W        W 3297  32.529   7.644  11.625
36515W        W 3298   1.649  43.805   3.681
36516W        W 3299  30.062  22.776  11.825
36517W        W 3300  36.881  30.066  13.742
36518W        W 3301  44.887  16.216  13.919
36519W        W 3302  43.463  17.391  11.568
36520W        W 3303  30.371  16.640  13.024
36521W        W 3304  20.452  30.156  14.215
36522W        W 3305  43.353   9.424   1.564
36523W        W 3306  19.206  17.202   4.022
36524W        W 3307  18.044  43.524   1.852
36525W        W 3308  18.621  34.126  12.989
36526W        W 3309  17.183  31.364   0.901
36527W        W 3310  27.101  26.476   1.451
36528W        W 3311  41.256   6.875  14.863
36529W        W 3312  22.886   9.164  11.118
36530W        W 3313  35.088  22.263  10.894
36531W        W 3314   9.682  31.434   4.492
36532W        W 3315  14.158   3.008  14.295
36533W        W 3316   1.210  12.027  12.795
36534W        W 3317  27.424   0.315   2.351
36535W        W 3318   1.072  35.353  11.579
36536W        W 3319  15.260  20.882  14.828
36537W        W 3320   3.569  36.027   2.171
36538W        W 3321  29.581  27.091  11.443
36539W        W 3322  28.089  39.620  13.476
36540W        W 3323  28.827  42.124   3.121
36541W        W 3324  13.368   5.247   1.218
36542W        W 3325  21.000  42.845  11.085
36543W        W 3326   1.752  10.258  13.382
36544W        W 3327  41.197   2.269   2.595
36545W        W 3328   7.418  33.133  12.167
36546W        W 3329   1.659  40.546   0.745
36547W        W 3330  42.002  36.545  11.491
36548W        W 3331  28.843  36.908   0.262
36549W        W 3332   7.945  13.152  12.512
36550W        W 3333  38.904  17.293  11.678
36551W        W 3334  24.195  11.648  14.423
36552W        W 3335  27.568  38.139   1.200
36553W        W 3336  43.539  15.026  12.527
36554W        W 3337  25.546  25.397   1.749
36555W        W 3338  18.190  27.253   1.385
36556W        W 3339  22.712   2.372   1.757
36557W        W 3340   9.315  19.815  11.944
36558W        W 3341  32.003   7.182   3.027
36559W        W 3342  25.926  41.546   0.820
36560W        W 3343   2.905  31.606   2.194
36561W        W 3344  38.870  38.845  14.776
36562W        W 3345   0.017  39.894   4.473
36563W        W 3346  21.036  11.735   3.328
36564W        W 3347   2.732  16.721  13.840
36565W        W 3348   5.150   2.516   4.407
36566W        W 3349  12.779  34.895   1.211
36567W        W 3350  20.268  18.008  11.615
36568W        W 3351  43.381  17.950   0.620
36569W        W 3352  15.039  37.335  13.407
36570W        W 3353  13.262  10.790   5.039
36571W        W 3354  44.785  40.497   0.397
36572W        W 3355   8.421   8.076   4.074
36573W        W 3356   6.157  36.229  12.904
36574W        W 3357   5.451  14.578   0.767
36575W        W 3358  12.854  40.435  14.741
36576W        W 3359  26.013   3.987   1.670
36577W        W 3360  26.133  25.472   1.324
36578W        W 3361  19.733   1.187  11.999
36579W        W 3362   2.814  19.896  12.482
36580W        W 3363   1.352  23.691  14.433
36581W        W 3364  23.163  27.525  11.476
36582W        W 3365  16.081  16.134  14.792
36583W        W 3366  39.028  28.864   1.503
36584W        W 3367  28.720   2.834  14.338
36585W        W 3368  12.915  27.246  13.812
36586W        W 3369  27.217  10.335  11.401
36587W        W 3370   7.519  40.139   2.621
36588W        W 3371  32.020  23.069  14.585
36589W        W 3372  18.122   1.640  11.662
36590W        W 3373  13.728  21.726  13.433
36591W        W 3374  39.934  34.536   4.576
36592W        W 3375  37.155  43.276   2.279
36593W        W 3376  12.211  33.741  12.905
36594W        W 3377   7.890   6.403  14.823
36595W        W 3378  25.022  36.802  11.616
36596W        W 3379   0.327  26.327  14.945
36597W        W 3380   2.276  12.779  10.374
36598W        W 3381  38.805  15.241  11.759
36599W        W 3382   3.662  27.556  14.755
36600W        W 3383  27.700   0.879  14.741
36601W        W 3384   9.588  34.126   3.352
36602W        W 3385  35.898  15.419   3.314
36603W        W 3386  22.684  35.619   2.212
36604W        W 3387  43.252  44.329   1.930
36605W        W 3388  27.180  39.522   3.399
36606W        W 3389  35.021   1.985  11.543
36607W        W 3390  34.883  27.652  14.821
36608W        W 3391  26.066  40.843   0.002
36609W        W 3392  37.347  30.876   1.821
36610W        W 3393  20.298   4.131  14.317
36611W        W 3394   6.109  20.564   4.105
36612W        W 3395  43.481  27.473   2.163
36613W        W 3396  14.004   3.724  13.836
36614W        W 3397   9.180  22.142  11.518
36615W        W 3398  36.812   3.704  10.654
36616W        W 3399  43.478  18.735   3.244
36617W        W 3400  11.112   3.230  14.980
36618W        W 3401   4.156  22.559   2.362
36619W        W 3402  43.949  23.470   2.387
36620W        W 3403  40.744  22.259  14.043
36621W        W 3404  21.237   1.269  11.932
36622W        W 3405   9.145   8.977  12.497
36623W        W 3406  12.676   3.318  11.649
36624W        W 3407  36.336  26.128   4.217
36625W        W 3408   6.844   6.961   2.551
36626W        W 3409  40.894   2.320  12.355
36627W        W 3410  23.678  27.436   1.327
36628W        W 3411  14.654  15.935  14.719
36629W        W 3412  23.822  13.964  12.115
36630W        W 3413  13.857  36.555   3.214
36631W        W 3414  12.991  30.064  14.000
36632W        W 3415  39.990  20.811  10.790
36633W        W 3416  31.416  25.580   0.216
36634W        W 3417  22.549  15.190  12.640
36635W        W 3418  30.585  19.320   3.353
36636W        W 3419  33.027  11.821  14.535
36637W        W 3420  17.237   6.843  14.689
36638W        W 3421  26.957   9.264  11.453
36639W        W 3422  10.992  14.263  14.016
36640W        W 3423  28.126  40.787  11.294
36641W        W 3424   4.726  39.743   0.458
36642W        W 3425  34.636   6.736   3.601
36643W        W 3426   8.271  40.607  10.790
36644W        W 3427  29.511  42.815   4.166
36645W        W 3428  19.488  36.483   2.309
36646W        W 3429  24.050  29.358   3.661
36647W        W 3430   4.861  14.572   4.322
36648W        W 3431  43.382   8.182   2.628
36649W        W 3432  27.134   6.999   4.235
36650W        W 3433   7.872  29.987   4.750
36651W        W 3434  19.593  39.490   0.857
36652W        W 3435   7.939   7.314   0.470
36653W        W 3436   9.907  21.412  12.385
36654W        W 3437  22.929  19.011  10.647
36655W        W 3438  12.346   6.457   2.300
36656W        W 3439  25.789  34.044  10.574
36657W        W 3440  41.572  40.249  14.856
36658W        W 3441  20.470  21.630   1.247
36659W        W 3442  11.481  10.193   0.410
36660W        W 3443  27.357  32.638   1.295
36661W        W 3444  35.943  40.557   4.058
36662W        W 3445  20.182  19.037  11.568
36663W        W 3446  25.488  24.907   1.954
36664W        W 3447  32.550  13.793   4.143
36665W        W 3448  25.175  14.257   2.336
36666W        W 3449  17.846   4.221   1.130
36667W        W 3450  42.918   7.474  14.649
36668W        W 3451   9.303  17.689   0.365
36669W        W 3452  19.761  17.718   4.168
36670W        W 3453  14.703  37.042  14.385
36671W        W 3454  24.782  19.491  11.557
36672W        W 3455  18.606  35.126  11.115
36673W        W 3456  27.107  16.542   2.176
36674W        W 3457   2.809   4.378   4.392
36675W        W 3458  38.707   5.833  10.557
36676W        W 3459  28.367   7.422  11.249
36677W        W 3460  12.588  12.383  11.078
36678W        W 3461  25.106  18.088  13.027
36679W        W 3462  35.963   9.885   4.248
36680W        W 3463  14.807  25.492   4.397
36681W        W 3464   5.585  35.741   1.927
36682W        W 3465   3.215  43.918  13.951
36683W        W 3466  11.911  34.816   5.301
36684W        W 3467   8.873  14.217   0.042
36685W        W 3468   4.958  22.014   4.244
36686W        W 3469  17.692  27.011   2.712
36687W        W 3470  18.496  21.566  10.790
36688W        W 3471  13.856   4.678   4.440
36689W        W 3472  39.407  43.773  12.383
36690W        W 3473   9.778  12.414  11.592
36691W        W 3474   4.287  18.350   3.218
36692W        W 3475   9.271  19.295   2.647
36693W        W 3476   1.385  41.947   1.880
36694W        W 3477  13.267  20.655   2.299
36695W        W 3478  24.281  22.420  10.007
36696W        W 3479  18.000  17.334  14.998
36697W        W 3480  40.846  32.841   4.261
36698W        W 3481  29.808  43.864  13.416
36699W        W 3482  35.821  44.332   0.909
36700W        W 3483  42.281  19.089   1.232
36701W        W 3484  38.395  10.430  13.352
36702W        W 3485  12.688   2.009  10.443
36703W        W 3486  12.365  32.017   0.685
36704W        W 3487  20.760  24.062   1.202
36705W        W 3488  16.233  37.133   0.707
36706W        W 3489  23.766  24.983   1.515
36707W        W 3490  30.050  41.030   1.351
36708W        W 3491  43.337  34.607  14.375
36709W        W 3492  32.975  29.239   3.790
36710W        W 3493  43.338  15.110  11.594
36711W        W 3494  41.364   6.332  14.957
36712W        W 3495   5.750  17.510  11.653
36713W        W 3496  44.981  26.591  11.897
36714W        W 3497   1.752   5.171   4.109
36715W        W 3498  36.273  38.005  14.879
36716W        W 3499  16.689  20.146   0.965
36717W        W 3500  33.831   2.875   3.253
36718W        W 3501  13.672   5.348   2.248
36719W        W 3502  36.480  15.853   0.229
36720W        W 3503  29.987  42.017  11.370
36721W        W 3504  26.682  14.538  12.597
36722W        W 3505  38.747  36.985  10.614
36723W        W 3506  17.662  19.489  11.328
36724W        W 3507  37.790  11.644  13.793
36725W        W 3508  38.054  31.999   3.111
36726W        W 3509  18.225  35.850   1.511
36727W        W 3510   1.915  34.344  14.339
36728W        W 3511  24.114  40.341   3.712
36729W        W 3512  39.788   6.969  14.786
36730W        W 3513  36.745  44.322  12.990
36731W        W 3514   4.901  34.675  12.856
36732W        W 3515  21.915  23.534   3.276
36733W        W 3516  13.751  18.178  12.588
36734W        W 3517  17.301  11.775   0.266
36735W        W 3518  35.407  25.940  14.887
36736W        W 3519  37.853  26.002   0.988
36737W        W 3520  24.438  33.558   2.760
36738W        W 3521  24.262  23.266  12.414
36739W        W 3522   5.368   0.479  10.397
36740W        W 3523  43.844  20.862   0.797
36741W        W 3524  29.020  27.644  11.001
36742W        W 3525   6.975  29.952  12.423
36743W        W 3526  16.477   2.246  13.418
36744W        W 3527  25.164  10.180  14.066
36745W        W 3528  31.575   8.418  11.455
36746W        W 3529  11.192  11.602  10.660
36747W        W 3530  38.020  11.778   4.583
36748W        W 3531  44.864   8.430  14.795
36749W        W 3532   5.688  12.328  13.421
36750W        W 3533  15.150  18.300   2.168
36751W        W 3534  40.281  18.169   4.505
36752W        W 3535  21.228  43.476   3.241
36753W        W 3536   8.687  36.503   3.888
36754W        W 3537  17.849   6.835   1.411
36755W        W 3538  31.958   7.161  10.103
36756W        W 3539  33.017  43.895  11.136
36757W        W 3540   4.837  30.137  11.114
36758W        W 3541  34.540  29.142  10.696
36759W        W 3542  33.500  14.755  11.944
36760W        W 3543   8.808  33.879   3.765
36761W        W 3544  30.205  21.088  11.818
36762W        W 3545  22.202  12.212  11.232
36763W        W 3546  12.151  14.664  14.963
36764W        W 3547   6.305  17.645  12.058
36765W        W 3548   1.570  13.043   2.277
36766W        W 3549  41.218  41.687   3.844
36767W        W 3550  22.495  25.592  14.496
36768W        W 3551  23.940   3.709  11.814
36769W        W 3552   4.128  32.941  12.937
36770W        W 3553  21.587  12.866   1.785
36771W        W 3554  40.134  31.049   4.213
36772W        W 3555  34.961  24.733  12.097
36773W        W 3556  11.928  16.936  12.443
36774W        W 3557  16.702  26.414  13.368
36775W        W 3558  42.906   2.260   1.721
36776W        W 3559  44.985  41.307  14.833
36777W        W 3560   7.558  17.654   0.034
36778W        W 3561  25.153  27.674   9.951
36779W        W 3562  27.024  35.924   4.825
36780W        W 3563   7.824  38.765  11.574
36781W        W 3564  15.232   2.369   3.120
36782W        W 3565   3.052  15.301   0.773
36783W        W 3566  28.724  27.058  11.199
36784W        W 3567  17.478  25.993   4.909
36785W        W 3568   8.057   7.034   3.605
36786W        W 3569   9.764  25.945  13.526
36787W        W 3570   2.139  12.623  10.864
36788W        W 3571  37.128   2.308  14.772
36789W        W 3572  42.232  17.690   2.646
36790W        W 3573   3.648   5.918   0.886
36791W        W 3574  31.132   3.247   2.733
36792W        W 3575  14.897  23.241  12.455
36793W        W 3576  41.515  17.980   2.853
36794W        W 3577   9.356  14.139   0.885
36795W        W 3578  18.739  13.759   1.323
36796W        W 3579   3.666  41.945  12.590
36797W        W 3580  12.857   9.831  13.810
36798W        W 3581  30.706   5.249  10.665
36799W        W 3582  43.395  10.717  10.476
36800W        W 3583  39.059  35.839  12.011
36801W        W 3584  17.161  20.246  11.147
36802W        W 3585   5.082  18.738   5.184
36803W        W 3586  32.485  43.428   2.946
36804W        W 3587  38.033  11.212  11.049
36805W        W 3588  43.724  29.239  11.910
36806W        W 3589  41.484   0.904  14.527
36807W        W 3590   7.109  24.560   4.152
36808W        W 3591  41.710  29.022   4.209
36809W        W 3592  43.640  43.999   4.063
36810W        W 3593  10.697  28.413   4.031
36811W        W 3594  32.351  20.259  13.517
36812W        W 3595   1.749  12.762  14.375
36813W        W 3596  40.285  21.245   9.804
36814W        W 3597  34.838  31.341   2.194
36815W        W 3598  16.309  26.908   2.006
36816W        W 3599  32.581  15.646   2.837
36817W        W 3600   0.525  27.659  12.486
36818W        W 3601  22.552  10.468   3.612
36819W        W 3602   2.277  18.215   4.764
36820W        W 3603  20.662  12.439   2.758
36821W        W 3604  22.473  20.551  12.958
36822W        W 3605  25.308  31.947   3.216
36823W        W 3606  31.464  32.070  14.957
36824W        W 3607  16.748   0.981  11.733
36825W        W 3608  16.737  14.860  12.517
36826W        W 3609  16.806  33.541   3.575
36827W        W 3610  35.535  24.172  13.893
36828W        W 3611  43.869   9.344  14.977
36829W        W 3612  24.395  35.442  12.137
36830W        W 3613  18.259  10.813   4.531
36831W        W 3614  27.903  20.652  14.445
36832W        W 3615  19.668  43.310   1.171
36833W        W 3616  39.502  14.093   0.779
36834W        W 3617  25.252  21.690  11.092
36835W        W 3618  29.431  38.942   4.534
36836W        W 3619  25.354  42.393  14.306
36837W        W 3620  15.080  36.096   3.237
36838W        W 3621  37.079  32.989  14.401
36839W        W 3622   2.132  14.616  13.275
36840W        W 3623  28.424  29.925  13.399
36841W        W 3624   7.828  41.568  12.484
36842W        W 3625   4.476  21.686  12.047
36843W        W 3626  36.835  26.647  14.815
36844W        W 3627  28.475   9.844  10.633
36845W        W 3628  22.357  35.554   0.438
36846W        W 3629  18.567  39.464   4.496
36847W        W 3630  28.115  31.583  13.536
36848W        W 3631  16.109  39.270   0.336
36849W        W 3632  11.399   3.887  10.659
36850W        W 3633  34.351  12.340   1.917
36851W        W 3634  31.634  33.213   1.384
36852W        W 3635   2.744  41.956   4.572
36853W        W 3636   5.871   5.808  10.462
36854W        W 3637  21.618  20.331   1.844
36855W        W 3638  21.679  37.984   1.890
36856W        W 3639  15.249  25.114  14.837
36857W        W 3640   4.163   4.344  10.770
36858W        W 3641  16.280  17.028   4.027
36859W        W 3642   7.296  21.057   1.240
36860W        W 3643  36.771  11.763  12.688
36861W        W 3644  15.140  12.770   3.229
36862W        W 3645  18.737  20.001  13.571
36863W        W 3646  19.024  42.388   3.158
36864W        W 3647  21.379  13.873  12.108
36865W        W 3648  23.378  10.264   1.717
36866W        W 3649  16.183  20.730   1.860
36867W        W 3650   8.175  22.687   2.741
36868W        W 3651  21.492   5.479   3.274
36869W        W 3652  24.103  28.210  12.494
36870W        W 3653  13.240  20.207   3.650
36871W        W 3654  19.193  16.379   1.929
36872W        W 3655  36.547  14.491   4.611
36873W        W 3656   6.606  22.167   0.417
36874W        W 3657  33.150  21.297  12.031
36875W        W 3658   9.003  42.542  11.441
36876W        W 3659  11.666  20.705   3.617
36877W        W 3660   9.333  44.269   1.253
36878W        W 3661  32.080  17.049  13.320
36879W        W 3662  22.238   9.662  11.156
36880W        W 3663  44.451  19.516   2.246
36881W        W 3664   1.767  23.260  13.416
36882W        W 3665  16.128  23.300  14.942
36883W        W 3666  40.887  21.239   1.371
36884W        W 3667  29.209  29.185  11.103
36885W        W 3668  43.219   2.740  11.836
36886W        W 3669  21.776   7.740   4.727
36887W        W 3670  37.825  36.519  14.281
36888W        W 3671  29.098  26.569   0.696
36889W        W 3672  30.404  13.252   0.975
36890W        W 3673  36.525  38.782   0.420
36891W        W 3674   1.968  19.325  14.663
36892W        W 3675  43.260  28.610  10.671
36893W        W 3676  42.142  28.836   4.428
36894W        W 3677  18.181  21.292   3.679
36895W        W 3678  32.507  36.272   0.507
36896W        W 3679   2.369  34.797   2.902
36897W        W 3680   1.556  23.009  10.660
36898W        W 3681  30.937  37.549   3.087
36899W        W 3682  13.141  23.243   3.709
36900W        W 3683  28.205   2.925   3.616
36901W        W 3684  31.921   5.031  13.037
36902W        W 3685  40.361  36.939   4.096
36903W        W 3686  35.902  14.605   4.012
36904W        W 3687   7.021   7.596   5.349
36905W        W 3688  11.242  13.154   4.271
36906W        W 3689  27.289  40.824   3.573
36907W        W 3690  23.408  33.653  12.514
36908W        W 3691  38.239   4.220  14.874
36909W        W 3692   8.845  12.866  11.669
36910W        W 3693  42.427   9.707  13.051
36911W        W 3694   4.177  24.722   4.242
36912W        W 3695  33.610  26.007  10.796
36913W        W 3696   8.220  27.783   2.616
36914W        W 3697  25.492   3.909  11.229
36915W        W 3698   8.728  11.532  11.944
36916W        W 3699  27.471   9.952   3.343
36917W        W 3700  23.460  17.526  12.527
36918W        W 3701   9.802   9.160  14.543
36919W        W 3702  42.534  29.626  13.492
36920W        W 3703  25.116  24.702   2.789
36921W        W 3704  10.225  39.093   4.149
36922W        W 3705  41.001   7.016  14.421
36923W        W 3706  21.535  16.556   0.763
36924W        W 3707  19.633  26.531   4.257
36925W        W 3708  36.043  31.925  12.142
36926W        W 3709   1.320  10.389  14.254
36927W        W 3710  44.925  36.526   3.292
36928W        W 3711  28.064  18.220  14.429
36929W        W 3712  37.351   4.951  10.595
36930W        W 3713  19.664  33.952   0.906
36931W        W 3714  42.477  22.261   2.289
36932W        W 3715  20.047  10.047   0.319
36933W        W 3716  43.394  35.510   2.136
36934W        W 3717   7.194  44.872  11.447
36935W        W 3718  42.912  36.441  14.514
36936W        W 3719  37.915  28.467  12.441
36937W        W 3720   5.534  32.957   4.800
36938W        W 3721  42.242  33.480  12.829
36939W        W 3722  14.870   6.403  11.446
36940W        W 3723  28.897  27.028  13.947
36941W        W 3724  17.631  37.081  10.628
36942W        W 3725  38.916  28.504  14.301
36943W        W 3726  37.069  14.895   1.674
36944W        W 3727  14.110  36.647  14.756
36945W        W 3728  23.320  35.798   3.816
36946W        W 3729  21.338  15.175  10.567
36947W        W 3730   1.455   5.395  11.544
36948W        W 3731   0.035  44.450   2.374
36949W        W 3732  22.680  33.728  12.012
36950W        W 3733  38.675  38.954   0.513
36951W        W 3734  42.359  39.857  12.886
36952W        W 3735  16.157  44.572   1.913
36953W        W 3736  38.825  17.267  14.980
36954W        W 3737  40.351  20.743  14.366
36955W        W 3738  34.888  25.251   4.854
36956W        W 3739   0.747  15.811   2.747
36957W        W 3740  11.388   2.465  11.103
36958W        W 3741   6.429  15.748  10.683
36959W        W 3742  28.119  34.899   1.367
36960W        W 3743  19.129  19.628  13.520
36961W        W 3744   5.820  28.821  14.210
36962W        W 3745  12.755  38.358  12.856
36963W        W 3746   2.989  19.392   4.633
36964W        W 3747  31.369  12.286  13.758
36965W        W 3748   2.841   4.359  14.393
36966W        W 3749   2.471  34.393  10.693
36967W        W 3750  43.505  22.792   1.427
36968W        W 3751  30.960  23.746   0.194
36969W        W 3752   3.081  18.981   2.793
36970W        W 3753  42.859  14.903  14.222
36971W        W 3754  43.046   4.101   3.934
36972W        W 3755  38.062  17.809   4.724
36973W        W 3756  11.199   8.906  14.968
36974W        W 3757  12.781  42.074   1.888
36975W        W 3758  12.605  20.041  13.858
36976W        W 3759  16.540  29.494   0.930
36977W        W 3760  36.407   0.746   4.208
36978W        W 3761  42.509   3.869   0.831
36979W        W 3762  17.058   8.331  12.370
36980W        W 3763   2.314  42.942  12.002
36981W        W 3764  44.387  14.376  10.239
36982W        W 3765  16.414  29.904  11.439
36983W        W 3766   8.202   1.089  13.970
36984W        W 3767  34.159   8.376   1.797
36985W        W 3768  22.580  34.349  14.454
36986W        W 3769  10.170   2.053   0.913
36987W        W 3770  12.872   3.357  14.927
36988W        W 3771  24.169  12.527  13.973
36989W        W 3772   0.568  24.588   0.477
36990W        W 3773  23.284  19.576  13.747
36991W        W 3774   6.804  16.886  14.194
36992W        W 3775  42.525  33.612   4.145
36993W        W 3776  36.340  17.760   0.452
36994W        W 3777  24.713  28.987  13.771
36995W        W 3778  41.989  28.729  11.550
36996W        W 3779   1.980  16.732  11.556
36997W        W 3780  32.372   0.384   4.886
36998W        W 3781   2.447  19.040  14.874
36999W        W 3782  11.829  11.129  13.094
37000W        W 3783  22.944  16.606  11.145
37001W        W 3784  27.102   3.263   4.392
37002W        W 3785  30.072  37.634  12.936
37003W        W 3786  13.606  32.348   1.086
37004W        W 3787  11.615   3.770  12.454
37005W        W 3788  15.551  35.369   2.349
37006W        W 3789  16.905  14.674  12.029
37007W        W 3790  36.558  33.925   1.492
37008W        W 3791  20.699  18.795  11.648
37009W        W 3792   3.278  10.671  10.951
37010W        W 3793  13.935  23.870  12.445
37011W        W 3794   2.437  11.428   2.180
37012W        W 3795  32.119  23.646  10.587
37013W        W 3796  19.189  11.599   3.891
37014W        W 3797  37.017  17.205  14.170
37015W        W 3798  34.741  24.131  13.513
37016W        W 3799  40.574   5.137   5.248
37017W        W 3800  39.935   0.823   1.289
37018W        W 3801  39.945  33.520  10.731
37019W        W 3802  31.655  10.383  11.713
37020W        W 3803   6.734  27.846  13.330
37021W        W 3804  30.961  24.756   3.823
37022W        W 3805  40.133  34.211  14.899
37023W        W 3806   6.875  42.652  14.321
37024W        W 3807   0.851  38.927   2.667
37025W        W 3808  29.552   8.039  13.489
37026W        W 3809  44.065  10.203  11.572
37027W        W 3810   0.577  32.035   0.847
37028W        W 3811   3.372  17.142  14.811
37029W        W 3812   7.603  33.469   0.867
37030W        W 3813  34.975  25.241  11.144
37031W        W 3814  21.950  43.874   4.376
37032W        W 3815   3.709  14.690  11.526
37033W        W 3816  42.685  30.445  13.855
37034W        W 3817  43.782  31.164   1.739
37035W        W 3818   5.402  13.633   1.451
37036W        W 3819  13.362   3.990   2.358
37037W        W 3820   1.819   0.666   0.063
37038W        W 3821  41.993  36.774   2.861
37039W        W 3822  22.046   0.106  11.275
37040W        W 3823  39.375   0.843   2.637
37041W        W 3824  36.590   8.822   3.117
37042W        W 3825  25.162  19.659  11.196
37043W        W 3826  36.829  28.222  13.136
37044W        W 3827  28.549  22.087  14.539
37045W        W 3828  21.526   6.786  11.737
37046W        W 3829  26.621  14.804   1.425
37047W        W 3830  19.573  13.395  12.926
37048W        W 3831  31.826  19.551  10.661
37049W        W 3832   1.781  34.411  14.840
37050W        W 3833  38.300  11.725  12.480
37051W        W 3834  38.242  43.825   0.190
37052W        W 3835   0.358   7.614   5.117
37053W        W 3836   6.911  25.069   4.106
37054W        W 3837  26.759   6.447   0.845
37055W        W 3838  39.759  30.736  11.475
37056W        W 3839  21.425  18.867  11.129
37057W        W 3840  19.714  23.816   2.395
37058W        W 3841  31.674  13.002  14.521
37059W        W 3842  39.796  26.575   1.418
37060W        W 3843  12.777   8.912   1.300
37061W        W 3844  29.646  21.866  13.464
37062W        W 3845  44.389  37.147   4.877
37063W        W 3846   7.171  39.597   1.406
37064W        W 3847  30.435  38.510  13.014
37065W        W 3848  26.572   5.273  10.750
37066W        W 3849   6.100   3.240   2.665
37067W        W 3850  38.707   4.108  10.982
37068W        W 3851  22.625  17.903  13.963
37069W        W 3852  37.633  41.330  12.943
37070W        W 3853  29.540  25.989  13.976
37071W        W 3854   1.286   8.747  10.708
37072W        W 3855  12.125  33.932  10.567
37073W        W 3856  19.837  13.472  10.459
37074W        W 3857  44.780  33.316  14.290
37075W        W 3858  26.436  30.337   4.270
37076W        W 3859   9.745  38.014  11.211
37077W        W 3860  28.667  42.363   4.103
37078W        W 3861  36.987  40.591   1.333
37079W        W 3862  38.512  35.653  11.541
37080W        W 3863  24.579  26.233  13.398
37081W        W 3864   4.733  20.670  13.149
37082W        W 3865  12.424  36.825   9.961
37083W        W 3866  32.376  38.055  13.934
37084W        W 3867   7.903  17.118  13.333
37085W        W 3868  23.606  41.594   5.380
37086W        W 3869  21.947  31.562  12.134
37087W        W 3870  21.404   4.002   5.210
37088W        W 3871  28.331  27.192   0.962
37089W        W 3872  41.646  15.138   1.294
37090W        W 3873  13.808   0.641  13.149
37091W        W 3874  41.960  31.258  12.304
37092W        W 3875   4.914  34.071   1.730
37093W        W 3876  33.915  15.735  11.119
37094W        W 3877  39.822   8.318   0.455
37095W        W 3878   1.781   7.322   0.266
37096W        W 3879  18.251  14.096   3.219
37097W        W 3880  37.288   6.706  13.425
37098W        W 3881   6.850  37.306  12.050
37099W        W 3882  34.030   9.708   0.085
37100W        W 3883  30.891   8.791  13.351
37101W        W 3884  37.148  10.277   2.090
37102W        W 3885  27.466  15.660  13.238
37103W        W 3886  25.954  37.024   4.632
37104W        W 3887  18.664   5.808  14.503
37105W        W 3888  33.450  42.808   0.746
37106W        W 3889  34.554  30.618   3.959
37107W        W 3890  10.610  34.985   1.906
37108W        W 3891  29.662   6.292  10.611
37109W        W 3892  39.695  13.894  12.285
37110W        W 3893   6.637   1.890  10.605
37111W        W 3894  23.904   7.177  11.201
37112W        W 3895  32.502   3.213   1.213
37113W        W 3896  29.869  44.360  10.790
37114W        W 3897  13.292   7.777   5.094
37115W        W 3898  29.564  13.639   0.985
37116W        W 3899  15.640  16.314   1.189
37117W        W 3900  15.406  16.156   5.252
37118W        W 3901  17.767  13.341  12.605
37119W        W 3902  38.395   3.547   1.810
37120W        W 3903  27.304  23.119   5.059
37121W        W 3904  31.940  10.585  10.649
37122W        W 3905   3.329  31.738  13.285
37123W        W 3906   1.939  32.196  12.690
37124W        W 3907  43.112  41.987   4.642
37125W        W 3908   7.639  21.565   1.735
37126W        W 3909  31.866  28.769  10.204
37127W        W 3910  36.112  21.290  13.963
37128W        W 3911  42.967   7.381  11.880
37129W        W 3912  31.409   0.131  11.612
37130W        W 3913  28.182  13.797   1.125
37131W        W 3914  26.899  12.738   3.093
37132W        W 3915  23.984   8.767  12.422
37133W        W 3916  40.868  12.491  11.145
37134W        W 3917  34.923  32.650  14.853
37135W        W 3918  18.119  43.258   1.272
37136W        W 3919  41.542  13.398  13.004
37137W        W 3920  31.207  26.066  13.502
37138W        W 3921   5.864  30.667   2.875
37139W        W 3922   3.403  41.081   2.259
37140W        W 3923  20.183  26.233   0.832
37141W        W 3924   5.739  25.639  12.028
37142W        W 3925  15.324  31.394  12.422
37143W        W 3926   9.734  16.163   2.748
37144W        W 3927   7.805  15.627   0.034
37145W        W 3928  42.520  23.128  13.490
37146W        W 3929  30.400   6.714   4.238
37147W        W 3930  41.006  36.086  13.162
37148W        W 3931  16.185  34.174   3.080
37149W        W 3932  19.551  20.309  14.006
37150W        W 3933  17.266  40.981  12.218
37151W        W 3934  34.041  14.421   3.623
37152W        W 3935   3.209  10.061  14.492
37153W        W 3936  24.567  27.159  14.763
37154W        W 3937  44.470  19.640   3.171
37155W        W 3938  33.141  17.786   0.463
37156W        W 3939  11.523  38.038  11.458
37157W        W 3940   8.304  18.605   4.522
37158W        W 3941  32.984  41.818  11.660
37159W        W 3942  17.170  22.043   4.308
37160W        W 3943  28.628   1.988   2.401
37161W        W 3944  40.891   8.479  14.320
37162W        W 3945  41.159  20.637  13.798
37163W        W 3946  13.668   2.019   4.220
37164W        W 3947   7.852  34.623  10.756
37165W        W 3948  37.640  30.989   3.060
37166W        W 3949  21.999  13.448   0.699
37167W        W 3950  42.063  37.030  14.480
37168W        W 3951  21.936  32.071  12.374
37169W        W 3952  28.166  30.849   4.633
37170W        W 3953   6.964   3.983  13.494
37171W        W 3954  13.232  14.306  14.378
37172W        W 3955  34.894  32.586  11.143
37173W        W 3956  35.707  19.613  12.636
37174W        W 3957  39.841  10.897  13.998
37175W        W 3958  15.803   7.785  11.225
37176W        W 3959  20.259  26.832   3.292
37177W        W 3960  26.452  22.925   4.706
37178W        W 3961  19.360   9.796  13.492
37179W        W 3962  23.670  37.600  14.367
37180W        W 3963  39.842  16.798   2.160
37181W        W 3964  13.854  38.447  12.628
37182W        W 3965  23.056  27.966   1.985
37183W        W 3966   7.341  10.815  14.033
37184W        W 3967   8.849  26.195   3.427
37185W        W 3968   2.690  20.235  10.709
37186W        W 3969  38.539  41.035  10.617
37187W        W 3970   7.255   5.190   1.525
37188W        W 3971  39.386  27.419  13.885
37189W        W 3972   2.204   7.774  14.552
37190W        W 3973  22.334   4.299   5.039
37191W        W 3974  31.587   1.987  11.506
37192W        W 3975   7.892  35.459   0.037
37193W        W 3976  32.673  34.106   0.448
37194W        W 3977  19.185  16.596  13.573
37195W        W 3978  24.330  23.336  10.276
37196W        W 3979   5.421  40.751   3.161
37197W        W 3980  43.248  29.718  11.701
37198W        W 3981  16.046  42.504   4.428
37199W        W 3982  33.869   4.850   0.805
37200W        W 3983  43.658  36.894  13.076
37201W        W 3984  35.765  36.390   4.160
37202W        W 3985  27.450   6.834   2.449
37203W        W 3986  24.317  41.496   4.123
37204W        W 3987  18.860  18.610   4.572
37205W        W 3988   2.296  40.509  10.729
37206W        W 3989  21.295  44.001  12.684
37207W        W 3990  29.533  40.751   1.911
37208W        W 3991  34.636  10.882  12.820
37209W        W 3992   1.182   3.901   1.364
37210W        W 3993  43.005   3.527  11.677
37211W        W 3994   7.842  31.422  10.457
37212W        W 3995   6.493  40.921   2.781
37213W        W 3996  39.276  43.815   0.245
37214W        W 3997  34.132  38.080   3.202
37215W        W 3998  30.507  22.998  13.001
37216W        W 3999   6.459  24.540  14.465
37217W        W 4000  18.694  19.502  10.403
37218W        W 4001  26.890  40.386   1.828
37219W        W 4002  25.675  25.261   0.885
37220W        W 4003  32.886   2.048   1.681
37221W        W 4004  42.907  12.056  14.662
37222W        W 4005  29.735  18.650   3.845
37223W        W 4006  29.064  12.822  11.537
37224W        W 4007  39.838   8.406  14.508
37225W        W 4008  18.868  12.059  11.471
37226W        W 4009   4.970  13.857  11.169
37227W        W 4010   8.808   6.964   4.662
37228W        W 4011  20.582  38.778  12.279
37229W        W 4012  13.229   2.012  11.099
37230W        W 4013  41.573   0.168   0.817
37231W        W 4014  40.852  32.832   0.895
37232W        W 4015   6.000  13.055  11.104
37233W        W 4016  39.265   8.113  12.029
37234W        W 4017   1.653  25.250  13.393
37235W        W 4018   8.353  30.048   4.565
37236W        W 4019  27.872  26.584  13.567
37237W        W 4020  36.365  39.866  10.793
37238W        W 4021  12.228  37.053   2.205
37239W        W 4022  29.205  18.233   4.674
37240W        W 4023  24.159  41.352  11.867
37241W        W 4024  29.333  28.838   3.556
37242W        W 4025  38.488  39.032  11.512
37243W        W 4026  15.721  17.257   4.572
37244W        W 4027  29.262  21.634   1.813
37245W        W 4028   8.863  37.736  11.573
37246W        W 4029  19.596  23.538  12.980
37247W        W 4030  14.509  26.967  12.403
37248W        W 4031  13.871   5.715   1.396
37249W        W 4032  12.139  15.176  14.734
37250W        W 4033   4.671  28.149   3.133
37251W        W 4034  21.143  24.619  10.957
37252W        W 4035   1.922   5.810  13.867
37253W        W 4036   9.257   6.239   4.564
37254W        W 4037  21.283  22.732   3.057
37255W        W 4038   1.030  16.607   3.273
37256W        W 4039  35.548  28.197   1.210
37257W        W 4040  38.286  40.228   1.386
37258W        W 4041  21.409  34.062   3.262
37259W        W 4042  24.491   0.714   0.277
37260W        W 4043  18.636  40.253  11.351
37261W        W 4044   5.274   6.243   3.237
37262W        W 4045  31.013  40.835   2.913
37263W        W 4046  36.309   0.238   4.725
37264W        W 4047  28.711   0.923   2.391
37265W        W 4048   0.169   0.458  13.539
37266W        W 4049  40.369  11.472   2.821
37267W        W 4050  38.040   9.830   2.737
37268W        W 4051  24.038  17.031   4.572
37269W        W 4052  38.929  12.348  12.360
37270W        W 4053  41.847  15.574   4.689
37271W        W 4054  35.942  18.045   0.559
37272W        W 4055  44.912  36.351  11.475
37273W        W 4056  38.344  32.510  12.962
37274W        W 4057  13.186  32.602   1.410
37275W        W 4058  29.895  34.172   2.434
37276W        W 4059  23.405  13.256  11.890
37277W        W 4060   0.474  17.260   1.804
37278W        W 4061  31.019  32.514   0.775
37279W        W 4062  12.455  26.590  11.393
37280W        W 4063  31.614  20.222   2.286
37281W        W 4064  37.517  28.646  12.717
37282W        W 4065   9.266   3.832  14.379
37283W        W 4066  17.485   8.103   0.974
37284W        W 4067  18.271  18.783  13.778
37285W        W 4068  28.300  37.052   0.231
37286W        W 4069   4.441  44.033  13.540
37287W        W 4070  43.696  11.725  14.450
37288W        W 4071  12.837  33.260  14.495
37289W        W 4072   2.932   0.815  11.700
37290W        W 4073   0.754  44.641   5.108
37291W        W 4074   9.506  41.978  11.140
37292W        W 4075  16.584   9.571  12.185
37293W        W 4076  32.052  19.981  14.329
37294W        W 4077   5.133  44.402  11.623
37295W        W 4078  33.260  28.939   0.312
37296W        W 4079  21.082  33.514  11.402
37297W        W 4080   5.163   3.766  12.570
37298W        W 4081  40.284  37.272   5.012
37299W        W 4082   3.507  10.263   0.315
37300W        W 4083  24.877  34.399   0.754
37301W        W 4084  35.353   5.818   0.890
37302W        W 4085  41.743  26.388   5.085
37303W        W 4086  11.199  26.019   2.294
37304W        W 4087   7.567  24.689  10.973
37305W        W 4088  29.581  35.264   0.479
37306W        W 4089  41.482  34.819   1.810
37307W        W 4090  36.464  19.478  14.868
37308W        W 4091  27.409  34.294   3.756
37309W        W 4092  29.095  42.941   3.883
37310W        W 4093   7.576  40.927  14.414
37311W        W 4094  26.735  14.427  14.434
37312W        W 4095  39.720   8.800   4.637
37313W        W 4096  41.761  10.712   0.860
37314W        W 4097  30.614   8.514  13.009
37315W        W 4098   1.009  31.428   4.400
37316W        W 4099   4.645   3.777  13.121
37317W        W 4100  25.121  35.486   3.597
37318W        W 4101  26.783  22.220  14.947
37319W        W 4102  28.048  25.678   3.159
37320W        W 4103   8.175   2.553   3.924
37321W        W 4104  43.453  28.170   1.071
37322W        W 4105  35.430  34.216  10.625
37323W        W 4106  31.876  28.098   4.188
37324W        W 4107  12.397   4.688  11.152
37325W        W 4108  29.001  35.018  13.311
37326W        W 4109  29.991  35.647   1.718
37327W        W 4110   6.840  42.778  13.808
37328W        W 4111  42.185  42.333   1.190
37329W        W 4112  39.608  10.912  13.125
37330W        W 4113  12.607  31.413  13.926
37331W        W 4114  21.147  43.843  13.527
37332W        W 4115  37.962  34.392   1.936
37333W        W 4116  25.964   3.948   2.190
37334W        W 4117  23.302  17.850   3.648
37335W        W 4118  17.257  16.709   0.297
37336W        W 4119   6.377   7.242   3.302
37337W        W 4120   1.281  19.155  11.245
37338W        W 4121  31.752   9.720  14.902
37339W        W 4122   2.229  10.768   1.872
37340W        W 4123  15.041  23.053   2.247
37341W        W 4124   6.855  23.095  12.226
37342W        W 4125  31.161  17.106  13.509
37343W        W 4126  23.627  12.173   1.400
37344W        W 4127  36.141  11.413   0.929
37345W        W 4128  43.780  39.437  13.856
37346W        W 4129  16.516  22.249   0.408
37347W        W 4130  20.311  31.413   0.338
37348W        W 4131  30.830  14.560   0.755
37349W        W 4132  28.147  30.974   1.656
37350W        W 4133  18.023  13.849  13.275
37351W        W 4134  13.402  27.414  12.482
37352W        W 4135  24.242  43.849  14.368
37353W        W 4136   8.288   1.483   0.278
37354W        W 4137  39.872   0.324   2.409
37355W        W 4138  43.944   3.895  11.696
37356W        W 4139   8.952  23.091   1.701
37357W        W 4140  43.819  20.337   0.810
37358W        W 4141  23.544  20.414  14.543
37359W        W 4142   3.209  10.708   0.324
37360W        W 4143  10.581  14.765  14.987
37361W        W 4144  43.554  30.135   0.297
37362W        W 4145  19.208  11.133   0.273
37363W        W 4146   8.175  12.687  12.876
37364W        W 4147  14.124  13.213   2.548
37365W        W 4148   7.696  26.526  14.841
37366W        W 4149  41.648  19.695  12.999
37367W        W 4150  12.841   2.076   4.112
37368W        W 4151  19.731  22.225  14.959
37369W        W 4152  30.793  24.494   0.776
37370W        W 4153  20.701  27.151   3.011
37371W        W 4154  20.214   3.282   1.513
37372W        W 4155  16.212   6.877  12.384
37373W        W 4156   4.287  38.779   3.741
37374W        W 4157  23.056  36.038  12.816
37375W        W 4158  44.599  13.692  10.343
37376W        W 4159  20.074  33.344   0.777
37377W        W 4160  32.462  14.812   4.231
37378W        W 4161   8.942  12.868  13.898
37379W        W 4162  12.851   5.504  14.348
37380W        W 4163  32.373  20.087   1.716
37381W        W 4164  14.366   9.885   3.864
37382W        W 4165  17.159   7.237   0.011
37383W        W 4166  40.663  39.992  13.846
37384W        W 4167   0.884  17.960  13.412
37385W        W 4168  43.965  40.823   3.331
37386W        W 4169  12.711   1.425   2.161
37387W        W 4170  25.974  29.602   4.884
37388W        W 4171  16.139   1.194   1.213
37389W        W 4172  28.238  33.920   1.011
37390W        W 4173  25.212  22.851   4.886
37391W        W 4174   2.254  20.124  13.467
37392W        W 4175  28.905  18.151  12.264
37393W        W 4176  10.277   2.791  10.640
37394W        W 4177  39.842  10.709   1.725
37395W        W 4178  24.969  11.088  14.795
37396W        W 4179   3.589  35.886  13.787
37397W        W 4180   9.523  33.065   0.295
37398W        W 4181  10.335   4.669  10.482
37399W        W 4182   0.347   8.978   1.444
37400W        W 4183  16.337  19.754  11.513
37401W        W 4184  15.969  39.068   1.652
37402W        W 4185  37.477  20.225   0.485
37403W        W 4186   2.485  32.644   0.530
37404W        W 4187   4.691  30.410  11.519
37405W        W 4188   3.972   8.895  10.168
37406W        W 4189  29.478  28.044   0.491
37407W        W 4190  12.940  26.017   3.230
37408W        W 4191   8.137  41.584   3.984
37409W        W 4192   1.785  36.263   0.380
37410W        W 4193  24.995  23.653   9.784
37411W        W 4194   3.867  14.275  12.827
37412W        W 4195  29.815   2.535  14.464
37413W        W 4196  18.761  11.654   3.232
37414W        W 4197  15.148  39.477  11.011
37415W        W 4198   8.667  22.483   1.478
37416W        W 4199   6.413  27.209  14.348
37417W        W 4200  33.492   5.177   2.485
37418W        W 4201  34.372  35.826   1.821
37419W        W 4202  24.958  10.153   0.084
37420W        W 4203  36.564  34.128  13.024
37421W        W 4204  14.304  26.970   2.226
37422W        W 4205  42.134  15.210  14.371
37423W        W 4206  32.926  13.194   4.597
37424W        W 4207   5.879   3.905  10.653
37425W        W 4208  31.572  26.411  11.168
37426W        W 4209  22.667  34.451   0.358
37427W        W 4210  43.190  10.331   5.408
37428W        W 4211  31.567   6.416   3.133
37429W        W 4212  23.530  41.931   1.365
37430W        W 4213  22.632   0.500   1.690
37431W        W 4214  42.978  38.773  11.162
37432W        W 4215  25.198  23.207   4.114
37433W        W 4216  13.387  38.458  14.045
37434W        W 4217  31.631  17.311  13.412
37435W        W 4218   4.162   5.307  12.373
37436W        W 4219  44.441   2.410  14.873
37437W        W 4220   4.628  32.143  13.793
37438W        W 4221  38.046   1.158   3.208
37439W        W 4222  27.864   8.135  12.953
37440W        W 4223  40.819   6.769  11.792
37441W        W 4224   5.199  28.969  12.126
37442W        W 4225  18.787  16.886   4.762
37443W        W 4226  13.606  29.079   2.922
37444W        W 4227  44.388   3.221   0.306
37445W        W 4228  19.359  29.168  14.565
37446W        W 4229  32.088  35.858   2.171
37447W        W 4230  38.062  30.702   2.840
37448W        W 4231  14.100  19.438   0.888
37449W        W 4232  33.372  36.383  12.908
37450W        W 4233  30.703   6.907  11.936
37451W        W 4234  42.768  25.357  10.564
37452W        W 4235   6.351   3.107  14.568
37453W        W 4236  33.928  39.398   2.821
37454W        W 4237   1.291  16.143  11.710
37455W        W 4238  29.662   1.871   3.662
37456W        W 4239  28.258  13.156   4.790
37457W        W 4240   2.519  25.570  13.322
37458W        W 4241  32.002   6.548   4.848
37459W        W 4242  17.326  31.382   4.578
37460W        W 4243  14.655  24.078  14.987
37461W        W 4244  15.777   6.601  11.529
37462W        W 4245  24.300   5.654   1.868
37463W        W 4246   3.871  13.848   0.643
37464W        W 4247  22.411  16.600  10.102
37465W        W 4248  34.493   1.955  12.529
37466W        W 4249  19.656  23.590   3.753
37467W        W 4250   5.566   1.674  11.264
37468W        W 4251  16.111  11.643  13.998
37469W        W 4252  37.154  40.839   2.785
37470W        W 4253   4.727  43.052  14.035
37471W        W 4254  20.232  12.299   1.648
37472W        W 4255  21.256  12.043   2.729
37473W        W 4256  41.627  38.885   1.855
37474W        W 4257  33.145   5.290   1.996
37475W        W 4258  15.351   6.168  14.221
37476W        W 4259  36.394   0.797   2.952
37477W        W 4260   2.469   3.697   0.489
37478W        W 4261  34.630   4.562  14.263
37479W        W 4262  13.343  33.268   1.859
37480W        W 4263  22.165  31.965   5.150
37481W        W 4264   2.998  32.970  12.504
37482W        W 4265  37.696  17.612   2.359
37483W        W 4266  13.791   3.050  10.726
37484W        W 4267  32.203   2.990  12.130
37485W        W 4268  18.730  24.503   3.901
37486W        W 4269   6.909  13.368  12.134
37487W        W 4270   5.397  20.602   1.432
37488W        W 4271  23.662  19.566  11.949
37489W        W 4272  19.039  33.700   3.348
37490W        W 4273  44.957  10.373   3.015
37491W        W 4274   7.087  16.729   1.666
37492W        W 4275  13.793   0.755   4.452
37493W        W 4276  25.687  21.234   1.178
37494W        W 4277  23.553  36.484   2.370
37495W        W 4278  26.404   4.318   2.893
37496W        W 4279   1.572  41.360  13.520
37497W        W 4280  36.166  12.800  14.914
37498W        W 4281   9.720  19.682   2.272
37499W        W 4282  44.542  43.814  10.980
37500W        W 4283  38.423  22.030   4.764
37501W        W 4284  32.090  40.060   3.682
37502W        W 4285  28.548  26.590  12.492
37503W        W 4286  39.102  26.169  13.600
37504W        W 4287  27.484  31.212  12.358
37505W        W 4288  16.238   2.251  12.863
37506W        W 4289  15.298  34.051   1.907
37507W        W 4290  14.565   8.085  10.010
37508W        W 4291   0.918   7.661  14.920
37509W        W 4292   4.673  14.246  14.977
37510W        W 4293  42.951  20.170  13.296
37511W        W 4294   1.378  25.502  10.714
37512W        W 4295  20.662  27.652  13.708
37513W        W 4296  26.989   3.706  14.196
37514W        W 4297   2.976  11.376  14.396
37515W        W 4298   4.305  12.186   4.123
37516W        W 4299  12.951  33.560   1.666
37517W        W 4300  42.024  19.658   4.219
37518W        W 4301  42.040  40.427   3.701
37519W        W 4302  44.934  19.070  12.144
37520W        W 4303  17.065  29.513   0.930
37521W        W 4304  26.040  21.410  11.443
37522W        W 4305  35.551   3.421   9.605
37523W        W 4306  10.842  21.996  14.178
37524W        W 4307  20.047   9.866  12.086
37525W        W 4308  32.080  10.109  11.621
37526W        W 4309  26.024  14.373  13.920
37527W        W 4310  11.385  33.629  11.103
37528W        W 4311  30.538  16.303   3.184
37529W        W 4312   4.288  35.092   0.862
37530W        W 4313  34.035  21.806  12.161
37531W        W 4314  38.284  21.230   3.621
37532W        W 4315   9.375  42.455   3.375
37533W        W 4316  43.847  44.468  12.094
37534W        W 4317  23.488  12.816   4.554
37535W        W 4318  23.219   0.646   4.254
37536W        W 4319  16.499  26.710   3.156
37537W        W 4320   2.504  37.923  12.590
37538W        W 4321  43.443   3.204   0.496
37539W        W 4322   1.842  41.957  11.950
37540W        W 4323  26.381   0.276   4.028
37541W        W 4324  30.397   0.274  10.625
37542W        W 4325  16.165  40.416   2.415
37543W        W 4326  42.984  31.903   2.756
37544W        W 4327  25.539  31.492   3.909
37545W        W 4328  19.605  38.984   3.134
37546W        W 4329  10.975  34.498  12.898
37547W        W 4330  43.491  34.530   4.917
37548W        W 4331  16.202  10.905  11.137
37549W        W 4332  30.036   3.119   1.365
37550W        W 4333   9.130  42.778  12.104
37551W        W 4334  39.080  32.136   3.319
37552W        W 4335  21.445  38.973   2.715
37553W        W 4336  36.931  12.392   1.387
37554W        W 4337  26.699  39.634   3.240
37555W        W 4338  21.622  39.499   0.470
37556W        W 4339  42.325  35.957   4.407
37557W        W 4340  26.586  18.103  14.712
37558W        W 4341   1.690  16.655  11.965
37559W        W 4342  29.863  34.042  14.707
37560W        W 4343  19.730  26.868   3.842
37561W        W 4344  30.988  29.158  11.227
37562W        W 4345   7.109   3.701   0.915
37563W        W 4346  40.930  20.532  12.410
37564W        W 4347  17.082  28.531  14.828
37565W        W 4348  33.387  16.184   2.733
37566W        W 4349  14.130  30.100   0.523
37567W        W 4350  44.003  38.378   0.412
37568W        W 4351  42.813   8.658  13.324
37569W        W 4352  23.865  42.921  10.629
37570W        W 4353  43.211  26.291   3.158
37571W        W 4354  36.639  12.763  10.401
37572W        W 4355  16.323   9.118  13.660
37573W        W 4356   9.209  33.618   4.009
37574W        W 4357  10.244  28.884  14.711
37575W        W 4358  27.583  26.968   4.534
37576W        W 4359  36.810   6.273  12.628
37577W        W 4360   0.556  31.900   5.095
37578W        W 4361  10.104  24.982  10.687
37579W        W 4362  35.738  21.874  10.127
37580W        W 4363  37.764   8.465  12.163
37581W        W 4364  18.210  38.317  13.053
37582W        W 4365  41.071  22.602   3.831
37583W        W 4366   8.991  14.271   2.202
37584W        W 4367  36.831  43.830  12.427
37585W        W 4368  26.688  11.068  13.824
37586W        W 4369  23.991  27.370   0.881
37587W        W 4370  34.178  10.839   1.393
37588W        W 4371  10.102   7.460  13.093
37589W        W 4372  26.738  36.156  13.913
37590W        W 4373  44.948  20.742   1.222
37591W        W 4374  36.930  20.037   1.937
37592W        W 4375  13.368   7.226  12.856
37593W        W 4376  27.615   3.918  12.571
37594W        W 4377  23.674  10.947   0.370
37595W        W 4378  22.109  35.899  12.051
37596W        W 4379  17.051  29.418  14.016
37597W        W 4380  26.730  30.147  12.828
37598W        W 4381   0.877   6.455  13.181
37599W        W 4382  21.800  14.642  12.357
37600W        W 4383  42.001  30.064   0.215
37601W        W 4384  39.719  30.159   1.881
37602W        W 4385  30.166  31.949   4.524
37603W        W 4386  32.919  34.491   4.915
37604W        W 4387  16.049  35.020   4.837
37605W        W 4388  23.990  38.277   4.820
37606W        W 4389  12.125  41.501  13.050
37607W        W 4390  42.433  19.060  14.438
37608W        W 4391  14.723  26.102  12.605
37609W        W 4392  42.262  22.733  13.304
37610W        W 4393   8.854  33.071   4.504
37611W        W 4394  10.404  19.642  13.868
37612W        W 4395  22.658  37.854   3.328
37613W        W 4396  35.528  34.067   0.754
37614W        W 4397   4.275  15.712  14.009
37615W        W 4398  18.198  23.528   4.814
37616W        W 4399   6.854  13.151   0.863
37617W        W 4400  26.072  37.965  13.448
37618W        W 4401  24.894  36.470   1.151
37619W        W 4402   8.702  25.255  13.765
37620W        W 4403  17.387  25.605  12.025
37621W        W 4404  16.836  15.750   5.383
37622W        W 4405   0.453  24.134   2.901
37623W        W 4406  42.870  36.988   3.421
37624W        W 4407  14.784  18.420   4.177
37625W        W 4408  10.748   4.878   1.913
37626W        W 4409  16.787  26.509   3.868
37627W        W 4410  15.955  28.889  10.402
37628W        W 4411  11.082   8.277   4.068
37629W        W 4412  31.503   1.161   1.578
37630W        W 4413  28.195  30.610  14.190
37631W        W 4414  39.199   4.136  11.115
37632W        W 4415  31.236  18.100   4.579
37633W        W 4416  34.910   2.802   3.203
37634W        W 4417   2.406   0.356  13.510
37635W        W 4418   6.717  29.548  12.580
37636W        W 4419  34.404   2.984  13.437
37637W        W 4420  41.945  29.380   2.002
37638W        W 4421  41.577  37.073  11.084
37639W        W 4422  16.111  17.769   3.259
37640W        W 4423  39.971  43.309   2.643
37641W        W 4424  36.966  16.772  11.086
37642W        W 4425  35.572  35.581   1.885
37643W        W 4426  37.447  28.697   0.393
37644W        W 4427  44.452  16.470  10.377
37645W        W 4428   4.620  24.647   2.325
37646W        W 4429  35.624  10.204  14.056
37647W        W 4430  44.184  30.130  10.287
37648W        W 4431   1.690  14.571  11.148
37649W        W 4432  41.208  25.244   1.097
37650W        W 4433   5.493  42.711  12.454
37651W        W 4434   0.693  29.391  12.969
37652W        W 4435   6.416  25.483   2.783
37653W        W 4436  36.475   7.914   3.160
37654W        W 4437  18.510  35.856   2.491
37655W        W 4438  18.173   5.218  12.483
37656W        W 4439  11.438  20.310   0.778
37657W        W 4440  20.149  30.625   1.997
37658W        W 4441  20.479   7.391  12.961
37659W        W 4442  25.273  23.186   1.891
37660W        W 4443   7.628  44.022  12.018
37661W        W 4444  30.501  14.152  11.525
37662W        W 4445  15.718   1.704  12.451
37663W        W 4446  41.124   1.020  12.696
37664W        W 4447  17.601   3.787  11.065
37665W        W 4448  41.713  41.789   3.691
37666W        W 4449   5.448  40.428  13.434
37667W        W 4450  23.640  29.891   0.296
37668W        W 4451  26.207  19.586   2.226
37669W        W 4452  43.004   1.406  11.041
37670W        W 4453   4.896  43.542   1.764
37671W        W 4454  35.122  40.036  13.396
37672W        W 4455  34.965   9.397   1.907
37673W        W 4456  44.885  30.132  13.411
37674W        W 4457  10.169  24.466  11.316
37675W        W 4458  14.088  22.556  10.548
37676W        W 4459  14.377  26.183   1.310
37677W        W 4460   2.300   9.047  11.072
37678W        W 4461  13.859  15.597  12.499
37679W        W 4462  31.929  38.337  11.249
37680W        W 4463   9.432   6.739   3.588
37681W        W 4464  23.833  33.478  13.429
37682W        W 4465  17.586  27.889   2.275
37683W        W 4466   0.945  28.673   3.551
37684W        W 4467  24.061   7.886   2.231
37685W        W 4468  44.097   3.761   3.244
37686W        W 4469   7.473   8.957   4.264
37687W        W 4470  11.214  14.150  12.034
37688W        W 4471  23.445  35.099   3.262
37689W        W 4472  19.666   1.325   1.728
37690W        W 4473   3.705  32.979   1.923
37691W        W 4474  11.831   7.039  12.842
37692W        W 4475   8.886  32.932  10.649
37693W        W 4476  30.560  39.572   2.725
37694W        W 4477  22.440   5.816   2.252
37695W        W 4478  23.571   3.470   0.960
37696W        W 4479  27.705  31.051  12.831
37697W        W 4480  28.736  32.461   1.824
37698W        W 4481  20.091  30.878   0.964
37699W        W 4482  22.482  42.879  13.953
37700W        W 4483  12.932  11.363  13.990
37701W        W 4484  13.832  24.778   1.045
37702W        W 4485  38.322  36.510  12.069
37703W        W 4486  40.845   4.342   4.413
37704W        W 4487  18.593  40.763  14.375
37705W        W 4488  22.814  12.754  13.880
37706W        W 4489  22.306  12.859  11.432
37707W        W 4490  32.609  37.988   0.271
37708W        W 4491   6.835  25.689  13.937
37709W        W 4492  26.662  26.659  12.782
37710W        W 4493  15.597  28.090  10.664
37711W        W 4494  37.984  16.524   1.651
37712W        W 4495  34.235  31.055  12.309
37713W        W 4496  41.933  35.822  12.960
37714W        W 4497  12.815  18.072  11.119
37715W        W 4498   1.787  31.059  13.479
37716W        W 4499  32.140   0.834   4.748
37717W        W 4500  13.729  21.286  12.455
37718W        W 4501   9.157  10.076  12.932
37719W        W 4502  32.589   7.533   3.141
37720W        W 4503  43.960  16.065   4.150
37721W        W 4504  12.830   7.105   1.269
37722W        W 4505  43.279  38.854   0.411
37723W        W 4506  30.608  21.685  13.815
37724W        W 4507   1.946  22.993  12.156
37725W        W 4508  44.410  35.646  10.510
37726W        W 4509  35.538  20.128   4.663
37727W        W 4510  43.508  44.640  13.354
37728W        W 4511  34.475  38.408  14.396
37729W        W 4512  44.763  39.127   0.814
37730W        W 4513  27.708  40.386  12.525
37731W        W 4514  44.480  21.500   9.868
37732W        W 4515  42.281  11.249  11.141
37733W        W 4516  20.611  13.339   1.506
37734W        W 4517   0.270  37.128  13.425
37735W        W 4518   1.885  24.069   4.201
37736W        W 4519  38.087  27.508  12.782
37737W        W 4520  19.634  27.049   4.306
37738W        W 4521  22.759  15.046  11.913
37739W        W 4522  43.683  12.531  12.803
37740W        W 4523   3.188   7.851  14.758
37741W        W 4524   5.438  10.867   1.647
37742W        W 4525  28.185  18.564   2.379
37743W        W 4526  24.376  26.258  12.427
37744W        W 4527  26.447  19.494  14.948
37745W        W 4528  29.738  20.558   0.478
37746W        W 4529   9.910  29.477   1.714
37747W        W 4530  36.385  34.957   0.533
37748W        W 4531   0.279  39.408   1.443
37749W        W 4532  18.837  21.212  11.884
37750W        W 4533  24.090  29.846   3.884
37751W        W 4534  10.861  37.711   3.773
37752W        W 4535  43.723  12.785  14.655
37753W        W 4536  19.548   0.020   3.564
37754W        W 4537  20.939  43.263   1.866
37755W        W 4538  13.809  11.853  12.897
37756W        W 4539  31.684   6.034  11.546
37757W        W 4540   6.936  38.585   1.278
37758W        W 4541  14.720  40.663   2.440
37759W        W 4542  11.596  24.796   2.409
37760W        W 4543   1.023  29.230   1.806
37761W        W 4544   8.847  13.523  14.514
37762W        W 4545  20.730   4.563   3.184
37763W        W 4546   6.726   9.439   4.718
37764W        W 4547  14.328  26.299  14.617
37765W        W 4548  30.154  15.610   3.156
37766W        W 4549  10.408  17.861  12.604
37767W        W 4550  22.385  10.334   2.060
37768W        W 4551   4.270   1.861   1.186
37769W        W 4552   7.581  34.378   4.159
37770W        W 4553  33.644  35.838  14.766
37771W        W 4554  40.527   1.051  11.930
37772W        W 4555  16.773  13.357   0.432
37773W        W 4556  18.204  28.095  12.896
37774W        W 4557  25.579   7.552   1.315
37775W        W 4558  23.262  15.144  14.981
37776W        W 4559  37.138  10.624  12.908
37777W        W 4560  14.733  43.442   0.733
37778W        W 4561   9.803  29.655   0.286
37779W        W 4562  29.873  44.058   1.777
37780W        W 4563  37.980  15.272   0.575
37781W        W 4564   6.272  28.680  14.433
37782W        W 4565  23.202  14.071  13.443
37783W        W 4566  15.649  43.046  11.080
37784W        W 4567  24.614  14.090  13.874
37785W        W 4568   0.444   9.827   0.837
37786W        W 4569  36.103  35.828  12.047
37787W        W 4570  40.982  25.926  14.101
37788W        W 4571  12.869   9.502   4.442
37789W        W 4572  16.026   9.722   2.775
37790W        W 4573  19.770   5.696   1.759
37791W        W 4574  27.662  30.414  10.580
37792W        W 4575  24.128  31.510   2.358
37793W        W 4576  11.229   0.781  10.497
37794W        W 4577   0.013  24.162  10.709
37795W        W 4578  15.934  23.778   0.124
37796W        W 4579  25.153  24.123   4.266
37797W        W 4580   4.699  16.226  12.342
37798W        W 4581  40.946  34.660   4.400
37799W        W 4582  42.896  32.526  14.345
37800W        W 4583  10.407  27.772  11.182
37801W        W 4584  25.401   3.992  11.797
37802W        W 4585  41.760  11.306  11.125
37803W        W 4586  23.383  39.518   3.390
37804W        W 4587  39.383  41.572   3.320
37805W        W 4588  37.538  41.322  10.649
37806W        W 4589  31.639  21.699  13.695
37807W        W 4590   5.343  32.680  10.717
37808W        W 4591  39.043   2.850  10.141
37809W        W 4592  31.504  11.261   0.045
37810W        W 4593  25.036  40.489  12.864
37811W        W 4594  22.131  23.217   1.387
37812W        W 4595  22.768   0.375  10.969
37813W        W 4596  16.304  13.306   4.131
37814W        W 4597   6.719  12.641  12.669
37815W        W 4598   4.231   3.322  11.629
37816W        W 4599  29.557   4.449   4.435
37817W        W 4600  31.412  38.942  10.643
37818W        W 4601  16.109   2.905  10.990
37819W        W 4602   3.959  31.582   4.967
37820W        W 4603  21.277  19.545   2.747
37821W        W 4604  38.843  43.401  11.660
37822W        W 4605  33.521  32.438   2.571
37823W        W 4606   0.296   8.281  13.084
37824W        W 4607  37.411  40.398   3.397
37825W        W 4608  36.290  33.916   4.684
37826W        W 4609  36.056  29.467   3.296
37827W        W 4610  32.564  39.494   2.397
37828W        W 4611  43.879  38.948   4.781
37829W        W 4612  10.579  33.201   1.313
37830W        W 4613  21.280  40.371   0.492
37831W        W 4614  16.034   2.383  14.855
37832W        W 4615  26.741  38.904  10.716
37833W        W 4616  38.548  13.305  13.432
37834W        W 4617   4.484  12.783   2.370
37835W        W 4618   3.032  29.491  13.050
37836W        W 4619  41.231   1.815   1.958
37837W        W 4620  10.824   5.788  10.239
37838W        W 4621  24.233  20.120   2.148
37839W        W 4622  27.246  25.690   0.834
37840W        W 4623  29.940  18.597   2.464
37841W        W 4624   9.656   5.204   1.306
37842W        W 4625  30.832  27.971  14.930
37843W        W 4626   4.265  39.082   1.222
37844W        W 4627  11.175  17.471  12.917
37845W        W 4628  31.072  21.461  14.355
37846W        W 4629  32.988  30.226   1.385
37847W        W 4630  27.408  36.433   0.833
37848W        W 4631  20.876  21.593   0.311
37849W        W 4632  19.730  11.353  13.093
37850W        W 4633  40.251  35.493  14.490
37851W        W 4634  40.181  12.814  13.852
37852W        W 4635  29.441  18.264  12.422
37853W        W 4636  27.218  39.352  14.808
37854W        W 4637  17.249  10.562   0.039
37855W        W 4638  33.886   0.858   3.759
37856W        W 4639  37.789  42.493   2.163
37857W        W 4640  26.166  41.541   4.608
37858W        W 4641  18.092   7.014   1.817
37859W        W 4642   6.699  37.897  14.034
37860W        W 4643  14.045  10.034   1.910
37861W        W 4644  25.249   5.208  11.068
37862W        W 4645  42.287  23.280  13.959
37863W        W 4646  18.535  27.854   2.651
37864W        W 4647  27.532  34.597   0.490
37865W        W 4648  38.085  26.137   2.537
37866W        W 4649  38.790  15.957   0.696
37867W        W 4650  21.827   9.052  13.335
37868W        W 4651  18.585  35.093  11.982
37869W        W 4652  41.223  12.904  10.288
37870W        W 4653  19.256   8.870   3.859
37871W        W 4654   6.727  36.063   3.227
37872W        W 4655  38.233  10.542   1.250
37873W        W 4656  30.197  13.398  12.471
37874W        W 4657  10.521  11.123  11.838
37875W        W 4658   6.824   6.496   4.891
37876W        W 4659  34.112  31.354  14.477
37877W        W 4660   2.766   5.898   3.452
37878W        W 4661  13.218  29.853  13.380
37879W        W 4662  31.688  42.767   4.391
37880W        W 4663  28.578  17.650  14.323
37881W        W 4664  35.073  34.683  11.153
37882W        W 4665  13.918  29.686  12.893
37883W        W 4666   0.396  36.023  14.739
37884W        W 4667  22.202  39.935  14.962
37885W        W 4668  39.981  41.397   3.246
37886W        W 4669  21.678  27.410  14.803
37887W        W 4670  26.594  30.759   2.584
37888W        W 4671  31.477   9.769  13.414
37889W        W 4672  28.423   4.225   3.722
37890W        W 4673  43.297  40.586   1.254
37891W        W 4674  17.265  17.681  14.294
37892W        W 4675   4.855  42.246  11.456
37893W        W 4676   0.400  40.445  14.452
37894W        W 4677  18.883  44.881   4.350
37895W        W 4678  43.341  22.918  11.636
37896W        W 4679  10.322  33.158  12.877
37897W        W 4680  30.410  11.318  14.705
37898W        W 4681   9.956  29.139  11.640
37899W        W 4682  19.016  39.567   2.000
37900W        W 4683   3.076  12.472   1.337
37901W        W 4684  21.811  11.602  13.405
37902W        W 4685  28.415   4.466   3.248
37903W        W 4686  10.169  21.541  10.082
37904W        W 4687   9.823  33.535  14.727
37905W        W 4688   1.847   1.696  14.892
37906W        W 4689  30.098  30.491   2.503
37907W        W 4690   1.545  32.508  10.982
37908W        W 4691   0.991  11.153   1.690
37909W        W 4692  27.960  27.658   0.065
37910W        W 4693  22.238  33.163  11.549
37911W        W 4694   3.514  28.439   1.320
37912W        W 4695  29.151  16.766   2.715
37913W        W 4696  22.755   5.162   2.849
37914W        W 4697   7.926  37.437  12.561
37915W        W 4698   8.926  28.435  14.641
37916W        W 4699  19.725  38.981  13.038
37917W        W 4700  34.117  11.787  11.870
37918W        W 4701  13.658   1.929   0.322
37919W        W 4702  40.612  38.320   3.715
37920W        W 4703  27.641  29.169  14.289
37921W        W 4704  36.544  23.291   3.593
37922W        W 4705   3.536  29.646  13.127
37923W        W 4706  44.374  19.549   0.921
37924W        W 4707   7.908  39.066   1.918
37925W        W 4708  17.762  22.701  14.256
37926W        W 4709  32.668  18.729   4.113
37927W        W 4710  21.012   0.234   2.750
37928W        W 4711  30.174  32.979   1.004
37929W        W 4712  29.151  25.864   1.704
37930W        W 4713   6.841   3.937   2.930
37931W        W 4714  32.344  12.588  11.529
37932W        W 4715  27.474  33.513   2.324
37933W        W 4716  29.953  39.041   2.943
37934W        W 4717  13.396  25.583  10.729
37935W        W 4718  36.943  13.100   3.208
37936W        W 4719  12.694  30.166  14.932
37937W        W 4720  16.319  35.916  13.627
37938W        W 4721  28.960   1.432  12.765
37939W        W 4722   6.325   8.116  11.167
37940W        W 4723  25.931   5.345   3.369
37941W        W 4724  20.596   3.858   0.525
37942W        W 4725  22.633   8.808  13.500
37943W        W 4726  25.912  12.821   3.216
37944W        W 4727  20.983  32.079   3.112
37945W        W 4728  16.358   2.204  11.970
37946W        W 4729   0.365   4.225   2.211
37947W        W 4730  33.569   8.470  11.149
37948W        W 4731  38.655  23.504   0.792
37949W        W 4732  15.115   4.340  12.631
37950W        W 4733  22.532  19.528   3.268
37951W        W 4734   7.462  20.236   0.948
37952W        W 4735  39.813  12.045   1.599
37953W        W 4736  44.057   1.243  13.419
37954W        W 4737  34.190  29.699   1.209
37955W        W 4738  13.546   6.656  14.897
37956W        W 4739  18.054   6.208  13.783
37957W        W 4740  28.701  43.541  12.451
37958W        W 4741  20.972  16.374   3.668
37959W        W 4742  22.648   2.653  11.282
37960W        W 4743   9.285  37.854  10.460
37961W        W 4744  33.909  24.421  13.310
37962W        W 4745   0.926  34.281   3.162
37963W        W 4746  25.228  37.877  13.012
37964W        W 4747  18.324   4.961  14.920
37965W        W 4748  22.529   8.543  11.550
37966W        W 4749  22.617   8.491   4.160
37967W        W 4750  24.046  30.388  11.714
37968W        W 4751   3.261  22.269  10.087
37969W        W 4752  20.255  41.348   2.326
37970W        W 4753   3.369  20.425  13.033
37971W        W 4754  34.412   5.750   5.205
37972W        W 4755   5.239  42.107  13.873
37973W        W 4756  16.093   2.366   1.945
37974W        W 4757  39.878  44.938  14.521
37975W        W 4758  41.268  42.945   3.828
37976W        W 4759  28.020  11.081  12.924
37977W        W 4760   3.876  23.293  13.080
37978W        W 4761  35.957  28.135  14.445
37979W        W 4762  31.321  36.496   2.196
37980W        W 4763  29.957  18.081   2.326
37981W        W 4764  38.617  31.906   0.886
37982W        W 4765  30.670   6.751   2.230
37983W        W 4766  22.815  29.184   2.813
37984W        W 4767  37.349   4.338   2.898
37985W        W 4768  21.284   7.124   2.854
37986W        W 4769  42.304  10.741   1.044
37987W        W 4770  33.986  12.339   1.353
37988W        W 4771   4.200  23.194   3.637
37989W        W 4772  10.462   9.423   4.590
37990W        W 4773   7.907  43.602  14.837
37991W        W 4774  29.767  12.943   4.059
37992W        W 4775  38.484   9.571   3.414
37993W        W 4776   5.771  32.028   3.084
37994W        W 4777  29.684  30.107   0.726
37995W        W 4778  27.667  24.559  13.805
37996W        W 4779  30.408   9.897  12.077
37997W        W 4780   5.503  42.985   2.664
37998W        W 4781  20.509  15.765   2.686
37999W        W 4782  11.239  10.280   5.162
38000W        W 4783  20.570  36.557  12.659
38001W        W 4784  12.132   0.360  11.755
38002W        W 4785  30.498  40.302  14.374
38003W        W 4786  20.718  10.413   4.708
38004W        W 4787  14.581   0.330   3.175
38005W        W 4788  39.538  24.412  14.844
38006W        W 4789  42.730  21.555  10.617
38007W        W 4790   9.705   4.951   4.642
38008W        W 4791  11.558  20.579  11.161
38009W        W 4792  39.854  23.938   2.255
38010W        W 4793  29.126  41.996  13.671
38011W        W 4794  28.021   8.668   0.877
38012W        W 4795  12.810   4.356  14.502
38013W        W 4796  25.733  37.960   2.700
38014W        W 4797  28.696  44.363  14.021
38015W        W 4798   1.573  15.550   0.711
38016W        W 4799  31.081  24.621   3.098
38017W        W 4800   3.895   1.261  12.610
38018W        W 4801  28.980  44.530   3.678
38019W        W 4802   6.909  40.704  14.965
38020W        W 4803  42.792  17.088   1.261
38021W        W 4804  24.614  15.942   0.852
38022W        W 4805  42.295  24.124   1.975
38023W        W 4806  18.614  21.078  14.878
38024W        W 4807  21.315  31.412  11.082
38025W        W 4808  39.769  41.983   4.625
38026W        W 4809  24.441  39.576  12.793
38027W        W 4810  39.391  41.059   3.301
38028W        W 4811   0.802  34.021   4.862
38029W        W 4812  13.204  37.051  14.997
38030W        W 4813  41.904  37.384   1.451
38031W        W 4814  39.873  16.475   1.278
38032W        W 4815  34.453  16.835  12.865
38033W        W 4816  28.715  44.430  14.882
38034W        W 4817  10.349  23.381  14.343
38035W        W 4818  25.074  12.646  10.735
38036W        W 4819  32.193   0.414  10.303
38037W        W 4820  14.324  11.934   3.779
38038W        W 4821  22.801   6.355   2.237
38039W        W 4822  34.952  14.751  10.696
38040W        W 4823  41.559  16.143   3.116
38041W        W 4824  34.159  38.344   1.244
38042W        W 4825  37.755  33.964   3.672
38043W        W 4826  43.528  27.470  12.451
38044W        W 4827  39.837   7.655  12.806
38045W        W 4828  21.317  12.200  13.984
38046W        W 4829   9.854  33.614   1.647
38047W        W 4830   2.923  36.183  14.573
38048W        W 4831  36.849  31.513  14.291
38049W        W 4832  22.939  23.597  14.313
38050W        W 4833   8.818  41.656   5.328
38051W        W 4834  33.635  20.206  14.720
38052W        W 4835  15.741  39.466  11.999
38053W        W 4836   1.053  13.111   0.878
38054W        W 4837   2.011  32.967  14.831
38055W        W 4838   1.720  20.030  14.317
38056W        W 4839  23.446  18.212  11.902
38057W        W 4840  39.111   1.212  14.083
38058W        W 4841  30.620  14.395   1.411
38059W        W 4842  22.499   1.021   0.201
38060W        W 4843   4.853   3.683   5.117
38061W        W 4844  27.283  26.491   4.056
38062W        W 4845  14.818  28.192   2.858
38063W        W 4846  35.399  11.256   3.281
38064W        W 4847  12.924  42.486   4.129
38065W        W 4848  23.071   9.070  14.996
38066W        W 4849  40.772  36.949  13.314
38067W        W 4850  10.773   8.356  13.101
38068W        W 4851   4.126  34.495   1.553
38069W        W 4852   3.227  20.293   4.222
38070W        W 4853  13.197   4.369  11.045
38071W        W 4854   8.653  31.577  10.754
38072W        W 4855  30.492  31.692  14.780
38073W        W 4856  38.405  26.861  10.921
38074W        W 4857   1.888   4.297   1.471
38075W        W 4858  27.549  13.518  13.432
38076W        W 4859   8.009  40.972   3.404
38077W        W 4860  15.325   8.173  14.883
38078W        W 4861  43.275   5.129   1.892
38079W        W 4862   8.282   8.268   1.392
38080W        W 4863  35.603  44.463  14.103
38081W        W 4864  27.432  18.422  12.922
38082W        W 4865  39.114  12.617   3.718
38083W        W 4866  14.444  42.443   0.482
38084W        W 4867  20.245  43.337   4.103
38085W        W 4868  16.253   5.324  11.065
38086W        W 4869  18.652   4.292  14.354
38087W        W 4870  26.745  33.373   2.841
38088W        W 4871   3.462  30.600   1.536
38089W        W 4872   6.236  38.424  12.041
38090W        W 4873  33.117  27.094   4.637
38091W        W 4874  18.836  11.198   1.964
38092W        W 4875  30.786  21.876  12.054
38093W        W 4876  42.751  12.161   3.736
38094W        W 4877  28.086  33.084   1.890
38095W        W 4878   3.509  41.555   1.490
38096W        W 4879   3.989  25.221  11.654
38097W        W 4880  42.077  15.348  11.108
38098W        W 4881  35.304   7.198  13.780
38099W        W 4882  29.231  18.498   3.164
38100W        W 4883  41.367   2.813   0.899
38101W        W 4884  33.744  32.399   0.870
38102W        W 4885  26.500  12.336  10.714
38103W        W 4886   7.093  17.312   4.273
38104W        W 4887  16.607  10.130   2.213
38105W        W 4888  27.436  16.837  10.579
38106W        W 4889  10.566  17.281   1.239
38107W        W 4890  35.000   5.016  10.187
38108W        W 4891  37.078  11.187  10.364
38109W        W 4892   8.882  34.404   3.770
38110W        W 4893   6.346  13.618   3.802
38111W        W 4894  38.831  33.210  13.559
38112W        W 4895  12.476  12.625   4.629
38113W        W 4896   3.428  13.748  11.183
38114W        W 4897  26.064  28.628  13.274
38115W        W 4898  15.853  39.020   1.148
38116W        W 4899  19.023  30.606   3.712
38117W        W 4900  43.334  19.694  13.972
38118W        W 4901  30.165  36.280   3.405
38119W        W 4902  38.381  29.456   4.130
38120W        W 4903  18.493   1.410  14.891
38121W        W 4904  28.478   2.949   4.079
38122W        W 4905   3.396  35.377  10.764
38123W        W 4906  12.168  37.961  13.795
38124W        W 4907  42.029  16.360   3.411
38125W        W 4908   3.292  36.419  14.858
38126W        W 4909  21.802  17.610  10.390
38127W        W 4910  11.648  26.004  10.585
38128W        W 4911  39.820  38.011   1.006
38129W        W 4912  31.760  18.162   0.721
38130W        W 4913   9.104  43.271   4.343
38131W        W 4914   1.124   2.496  11.538
38132W        W 4915  20.864  38.863   0.894
38133W        W 4916  27.206  40.994   9.764
38134W        W 4917  43.642  39.450   4.809
38135W        W 4918  38.334  42.491  14.865
38136W        W 4919  16.054  35.532  13.914
38137W        W 4920  32.021  25.784  14.071
38138W        W 4921  38.923   6.027  13.681
38139W        W 4922  30.888   7.764  12.463
38140W        W 4923   5.307  35.509  14.364
38141W        W 4924  35.731   3.652   0.410
38142W        W 4925  22.147  23.290  12.191
38143W        W 4926  12.712  43.466   2.783
38144W        W 4927  22.046  20.926  14.389
38145W        W 4928  26.133  41.872  10.706
38146W        W 4929  35.641  25.949  11.096
38147W        W 4930  38.721  25.602  12.580
38148W        W 4931  22.528   5.904   0.347
38149W        W 4932  25.155   1.425   1.931
38150W        W 4933  16.853  12.320   0.692
38151W        W 4934  41.962  15.164  13.441
38152W        W 4935  33.102  37.793   3.275
38153W        W 4936  24.742  22.652  14.577
38154W        W 4937  16.152  33.063   1.754
38155W        W 4938  31.550  24.145   0.321
38156W        W 4939  38.034  36.942  14.049
38157W        W 4940  44.242  39.620  12.814
38158W        W 4941  19.625  15.349  11.258
38159W        W 4942  31.133  16.679   2.412
38160W        W 4943  41.561  37.774  14.343
38161W        W 4944  39.906  34.779   2.133
38162W        W 4945  10.158  42.841  12.892
38163W        W 4946  41.460   5.756   2.180
38164W        W 4947  38.089  30.414   2.206
38165W        W 4948  40.378  34.478   4.854
38166W        W 4949  38.400   6.302  14.597
38167W        W 4950  43.474  13.067   3.691
38168W        W 4951  24.754  32.104   4.961
38169W        W 4952  27.849  18.619   2.782
38170W        W 4953  29.608  11.087  13.308
38171W        W 4954  32.119  10.395   4.588
38172W        W 4955  15.087  13.755   1.383
38173W        W 4956  28.616  35.342   0.864
38174W        W 4957  30.701  31.505  12.081
38175W        W 4958   9.917  16.296  10.973
38176W        W 4959   3.842  12.179  10.646
38177W        W 4960  32.564  40.261  13.289
38178W        W 4961  38.955  24.405   4.278
38179W        W 4962  21.516  13.365   4.704
38180W        W 4963  36.419  30.451   3.586
38181W        W 4964  13.522  44.072   1.876
38182W        W 4965  12.064  19.573   1.943
38183W        W 4966   0.282   1.755  13.890
38184W        W 4967   2.216   8.223  12.767
38185W        W 4968  16.751  17.519  14.290
38186W        W 4969  16.266   0.978   1.702
38187W        W 4970   8.469  42.923   3.930
38188W        W 4971  17.784  31.482  11.129
38189W        W 4972  12.166  28.702   1.184
38190W        W 4973   7.692  11.781   4.612
38191W        W 4974  38.949  20.672   3.562
38192W        W 4975  32.949  16.663   3.656
38193W        W 4976  14.074  28.153   4.526
38194W        W 4977  24.210  36.426  10.748
38195W        W 4978   9.702  39.115   4.474
38196W        W 4979   7.658  16.798  13.862
38197W        W 4980  27.963   8.711   1.455
38198W        W 4981  19.516   0.147  14.414
38199W        W 4982  11.344   8.700  12.533
38200W        W 4983  38.396   3.845  11.608
38201W        W 4984   4.629  42.058   0.847
38202W        W 4985  38.042  33.913  14.085
38203W        W 4986  32.374  27.992   0.764
38204W        W 4987  13.652  20.547  14.887
38205W        W 4988  40.279  30.098   4.562
38206W        W 4989  28.061  44.191  14.071
38207W        W 4990  22.194  19.547  11.975
38208W        W 4991   3.140  14.158  11.067
38209W        W 4992  15.226  32.839   1.313
38210W        W 4993   2.226  25.217  13.057
38211W        W 4994  17.248  44.965  13.401
38212W        W 4995  14.834   5.754   0.386
38213W        W 4996   1.546  41.692   2.886
38214W        W 4997  36.590   3.440  12.621
38215W        W 4998  40.606   2.343   1.872
38216W        W 4999   2.007  29.463   2.520
38217W        W 5000  28.915   4.658  11.695
38218W        W 5001  33.130  34.882  14.091
38219W        W 5002  19.386   4.231  12.037
38220W        W 5003  40.411  31.480  14.943
38221W        W 5004  42.748  11.583  14.847
38222W        W 5005  31.508   1.932  14.270
38223W        W 5006  20.174  29.961  13.796
38224W        W 5007  41.497  28.724   1.422
38225W        W 5008  15.628  39.388  14.497
38226W        W 5009  20.526   5.201  10.686
38227W        W 5010  14.584  11.659  13.412
38228W        W 5011   0.252   7.311  14.445
38229W        W 5012   6.883  11.171   0.314
38230W        W 5013  16.765  35.472  12.030
38231W        W 5014  13.185  35.580  13.870
38232W        W 5015  29.655   4.161  12.799
38233W        W 5016  24.735  27.106   1.843
38234W        W 5017   5.673   7.658   0.427
38235W        W 5018   6.405   9.633  14.941
38236W        W 5019  32.599  21.207  13.598
38237W        W 5020  38.290   1.409  14.523
38238W        W 5021  43.513   1.885  10.560
38239W        W 5022  38.435  30.366   4.330
38240W        W 5023  22.635   1.622   3.727
38241W        W 5024  23.620   1.759  10.169
38242W        W 5025  43.538   4.120  11.440
38243W        W 5026  41.347   3.221   4.773
38244W        W 5027  44.494  14.521   3.999
38245W        W 5028   2.408   3.833   4.638
38246W        W 5029  34.443  16.324   0.981
38247W        W 5030   2.245   9.906  14.484
38248W        W 5031  20.870  22.481   4.034
38249W        W 5032  13.321  44.329   3.652
38250W        W 5033  38.487  19.609  11.227
38251W        W 5034  34.974  38.889  10.783
38252W        W 5035  13.036  14.532  10.248
38253W        W 5036  11.858  14.833  12.464
38254W        W 5037  19.533  21.780  13.684
38255W        W 5038  19.705  43.362   4.829
38256W        W 5039  33.828  34.811  14.779
38257W        W 5040   0.293  28.089   2.404
38258W        W 5041  20.392   2.872   1.919
38259W        W 5042  26.345  15.258   4.615
38260W        W 5043  19.142   2.215   0.966
38261W        W 5044  35.050  13.845   4.774
38262W        W 5045   3.926  42.441  11.869
38263W        W 5046  24.035  21.825   5.086
38264W        W 5047  33.611  15.581   1.811
38265W        W 5048  40.099   9.575   1.024
38266W        W 5049  34.630  27.503  13.358
38267W        W 5050  21.246  41.985  12.577
38268W        W 5051  42.947  17.297  13.805
38269W        W 5052  44.531   1.793   3.160
38270W        W 5053   4.632   9.864   2.334
38271W        W 5054  30.397  44.625   4.694
38272W        W 5055  31.128   4.451  10.551
38273W        W 5056   0.967  37.803  14.440
38274W        W 5057  11.570   9.914  14.295
38275W        W 5058  26.148  42.483   2.325
38276W        W 5059  30.030  11.604  13.983
38277W        W 5060   6.707  41.113  12.109
38278W        W 5061  36.557   5.131   4.329
38279W        W 5062  13.358   1.840   1.172
38280W        W 5063  11.289  14.867  14.500
38281W        W 5064  15.198  31.871  14.497
38282W        W 5065  19.006  36.384  10.685
38283W        W 5066  11.139  27.700  12.666
38284W        W 5067  35.489  44.393   2.588
38285W        W 5068  39.909  14.395   3.656
38286W        W 5069   6.926  30.500  11.862
38287W        W 5070  33.039  43.103   0.863
38288W        W 5071  23.992  24.091  11.215
38289W        W 5072  16.759  14.529   2.260
38290W        W 5073  26.161  12.794  11.546
38291W        W 5074  38.423  44.690  13.401
38292W        W 5075  13.614  15.845  12.118
38293W        W 5076  13.196  41.989   2.443
38294W        W 5077   4.452  25.673   1.609
38295W        W 5078  42.329  35.967  12.092
38296W        W 5079  23.184  20.030  14.495
38297W        W 5080  33.581  32.844   4.539
38298W        W 5081  17.560  33.322  13.026
38299W        W 5082  41.456  42.114  11.525
38300W        W 5083   5.772  21.609  13.929
38301W        W 5084  32.898  24.041  11.156
38302W        W 5085   7.739  42.322  10.663
38303W        W 5086  22.565   1.268  14.575
38304W        W 5087  41.462  18.640  14.761
38305W        W 5088   2.841  21.637   1.206
38306W        W 5089   8.038  18.446  13.259
38307W        W 5090  12.449  37.265   5.697
38308W        W 5091  23.648  15.169   3.365
38309W        W 5092  12.375  30.626   4.596
38310W        W 5093  16.863  16.267   0.440
38311W        W 5094   9.287  39.072   2.017
38312W        W 5095   4.255  40.034   0.417
38313W        W 5096  26.628  34.504  12.466
38314W        W 5097  34.458  31.521  12.434
38315W        W 5098  11.217   8.955  13.973
38316W        W 5099  14.319  19.153  13.564
38317W        W 5100  44.705  12.391  11.051
38318W        W 5101  39.880  13.370   0.278
38319W        W 5102  28.672  11.704  11.604
38320W        W 5103  28.157  26.629  10.921
38321W        W 5104  41.021  42.813  14.883
38322W        W 5105  40.517  25.994   4.187
38323W        W 5106  25.343  15.132   1.929
38324W        W 5107  28.687  13.074  10.477
38325W        W 5108  19.768  20.933  12.451
38326W        W 5109   7.127  37.745   2.238
38327W        W 5110  17.239  31.167   4.123
38328W        W 5111  15.235  21.775   3.176
38329W        W 5112   5.407  24.142   4.376
38330W        W 5113  26.866  42.807   3.554
38331W        W 5114  40.510  18.137  11.586
38332W        W 5115  13.280  16.497   2.596
38333W        W 5116   5.073  10.673   0.428
38334W        W 5117   3.313  20.280  12.171
38335W        W 5118  40.619  14.915  10.702
38336W        W 5119  12.085   4.867   1.905
38337W        W 5120   9.819  16.815  11.908
38338W        W 5121  18.501  33.873  11.645
38339W        W 5122  23.105   6.354  14.486
38340W        W 5123  39.220  26.040  14.154
38341W        W 5124  43.627  14.545   3.827
38342W        W 5125   9.841  41.977   1.178
38343W        W 5126  40.093   5.525   0.443
38344W        W 5127  20.714  26.229   1.589
38345W        W 5128   3.538  38.797  12.083
38346W        W 5129  42.028  26.193   2.223
38347W        W 5130  12.595  20.010  12.100
38348W        W 5131  44.385  21.515   3.085
38349W        W 5132   6.306  33.994   0.765
38350W        W 5133  33.607  36.301  14.518
38351W        W 5134   7.914  12.226  11.191
38352W        W 5135  38.064  38.026   1.003
38353W        W 5136   1.025   8.404  14.197
38354W        W 5137  15.261  23.476   3.683
38355W        W 5138  37.435  13.235  10.598
38356W        W 5139  21.139   4.453  12.876
38357W        W 5140  24.561  25.343  11.044
38358W        W 5141  35.884  37.730   0.883
38359W        W 5142  17.751  34.615   3.842
38360W        W 5143   8.220   2.966  10.663
38361W        W 5144  25.048   2.360   4.992
38362W        W 5145  35.560  43.781  10.652
38363W        W 5146   8.174  32.921  14.015
38364W        W 5147  19.995  20.569   0.048
38365W        W 5148  14.775  12.183   4.891
38366W        W 5149  27.935  33.541   2.127
38367W        W 5150  32.092  17.732   2.788
38368W        W 5151  17.956  26.979  14.883
38369W        W 5152  39.995  34.936  12.030
38370W        W 5153  21.628  43.737   2.342
38371W        W 5154  31.154  30.100   0.330
38372W        W 5155  39.998  22.752   1.189
38373W        W 5156  37.402  26.212   3.309
38374W        W 5157  26.949   2.759   4.469
38375W        W 5158  14.037  19.172   2.848
38376W        W 5159  44.563  31.920  10.570
38377W        W 5160  29.418  10.968  10.697
38378W        W 5161   3.543  42.561   2.205
38379W        W 5162   2.678  18.397  13.722
38380W        W 5163  27.511   5.242  12.761
38381W        W 5164  10.341  18.553  13.491
38382W        W 5165   8.226  41.577  12.081
38383W        W 5166  33.472  24.490   2.744
38384W        W 5167  35.430  32.901   1.890
38385W        W 5168  42.574  32.488   4.659
38386W        W 5169  24.492  43.173  12.395
38387W        W 5170   7.858  21.685   4.682
38388W        W 5171  31.889  38.788  14.055
38389W        W 5172  39.971  40.512  13.142
38390W        W 5173  13.730  19.577  13.218
38391W        W 5174  22.632  18.722  11.437
38392W        W 5175  33.057  37.818   0.504
38393W        W 5176  43.680  29.995  14.181
38394W        W 5177  25.736  42.503   1.060
38395W        W 5178  31.428  39.831   4.131
38396W        W 5179   8.110  29.204   3.552
38397W        W 5180  41.824  39.804   4.235
38398W        W 5181  16.893   8.705   4.233
38399W        W 5182  26.533   6.291  11.611
38400W        W 5183  39.555  24.106  14.032
38401W        W 5184  25.526  10.183  14.432
38402W        W 5185  12.316   4.453   1.723
38403W        W 5186  15.667   2.843  13.312
38404W        W 5187  36.779  20.262  11.661
38405W        W 5188  36.343  30.033  13.865
38406W        W 5189   7.191   8.787   2.444
38407W        W 5190  25.905  17.729   2.283
38408W        W 5191  40.816  15.247  13.897
38409W        W 5192  41.543  21.090   3.232
38410W        W 5193   6.135  10.662   0.483
38411W        W 5194  22.221  12.183   2.661
38412W        W 5195  15.202  32.133   4.567
38413W        W 5196  39.585  27.537  12.093
38414W        W 5197  42.871  23.986   3.653
38415W        W 5198  17.551  14.094   2.027
38416W        W 5199  38.398   7.108  12.360
38417W        W 5200  13.474   1.252  11.522
38418W        W 5201   8.300  38.536   0.383
38419W        W 5202  22.276   9.673  11.974
38420W        W 5203  11.193   2.385   2.092
38421W        W 5204  13.263  18.349  11.043
38422W        W 5205   4.787  22.131   1.714
38423W        W 5206  39.530  23.595   1.040
38424W        W 5207  15.560   0.233   1.771
38425W        W 5208  25.542  11.669   2.446
38426W        W 5209  36.047  23.970   3.776
38427W        W 5210  38.898  13.040   3.050
38428W        W 5211  15.182  28.281   1.828
38429W        W 5212  28.944  15.832   4.982
38430W        W 5213  25.435  39.312  10.631
38431W        W 5214  30.901  29.211   4.080
38432W        W 5215   4.404  34.831  12.823
38433W        W 5216  41.873   1.087  14.267
38434W        W 5217  30.071  23.440   3.779
38435W        W 5218  40.998  17.721   4.097
38436W        W 5219  18.129  17.247  14.493
38437W        W 5220   2.835  42.763  10.874
38438W        W 5221  32.525  43.448   1.445
38439W        W 5222  14.091  44.305   0.853
38440W        W 5223  29.465   8.585  11.647
38441W        W 5224  35.675  33.265  13.370
38442W        W 5225  14.762  18.211   1.807
38443W        W 5226  32.233  25.487   2.397
38444W        W 5227   3.772  23.319   3.213
38445W        W 5228  22.804  31.173  14.806
38446W        W 5229  43.683   3.570   1.303
38447W        W 5230  44.948  42.903  11.661
38448W        W 5231  42.456  39.809   0.746
38449W        W 5232  30.680  16.720  12.633
38450W        W 5233  24.488  20.012   2.738
38451W        W 5234   2.086  29.875  14.736
38452W        W 5235  33.091  14.177  12.598
38453W        W 5236  44.458  43.252  12.647
38454W        W 5237  38.801  29.384  14.881
38455W        W 5238  38.823  41.913  14.412
38456W        W 5239  14.045  39.733  11.628
38457W        W 5240  42.029   5.401   1.409
38458W        W 5241  16.246  18.071  13.900
38459W        W 5242  16.557  12.357   2.603
38460W        W 5243  15.029  13.196   2.738
38461W        W 5244  31.891  10.314   4.145
38462W        W 5245  43.557  42.455   2.074
38463W        W 5246  15.567  28.547   2.881
38464W        W 5247  23.118  32.503   1.308
38465W        W 5248  22.295  39.784  13.220
38466W        W 5249  42.749  32.575   0.777
38467W        W 5250  15.983   6.023  12.583
38468W        W 5251  38.082  34.057  12.862
38469W        W 5252  22.630  20.564   3.931
38470W        W 5253  16.395   9.182  12.477
38471W        W 5254  40.417   2.369   1.406
38472W        W 5255  31.455  34.859   2.863
38473W        W 5256  16.004  37.036  14.839
38474W        W 5257  41.431   7.408  13.505
38475W        W 5258  43.832  37.827   0.856
38476W        W 5259  31.139  24.561   2.122
38477W        W 5260  23.517  28.987   3.172
38478W        W 5261  14.094  35.015  11.030
38479W        W 5262  39.462   3.393  14.278
38480W        W 5263  21.629  14.115   1.016
38481W        W 5264  18.712  11.606   2.329
38482W        W 5265  21.076  15.801   2.760
38483W        W 5266  37.116  11.236  13.389
38484W        W 5267  15.182  39.012   0.480
38485W        W 5268  37.564  18.982   2.313
38486W        W 5269  44.090  27.550   2.274
38487W        W 5270  38.330  27.578  13.538
38488W        W 5271   8.446   4.458  11.481
38489W        W 5272  18.213  42.611   0.306
38490W        W 5273  24.312  30.779  14.034
38491W        W 5274  23.380  37.362   1.830
38492W        W 5275  36.040   1.146   4.199
38493W        W 5276   9.639   9.765  13.614
38494W        W 5277  32.176  33.874   4.267
38495W        W 5278  10.643  14.655   3.730
38496W        W 5279  18.123   4.882   4.766
38497W        W 5280   2.800  43.608   0.453
38498W        W 5281  11.987  36.932   3.173
38499W        W 5282  17.201  24.745   4.203
38500W        W 5283  16.239  34.584  13.234
38501W        W 5284   7.255  44.844   1.930
38502W        W 5285  24.735  31.411  14.532
38503W        W 5286  33.493  41.832   1.107
38504W        W 5287  42.002  36.994   4.057
38505W        W 5288  32.352  32.705   3.802
38506W        W 5289  28.670  35.577   4.054
38507W        W 5290  17.499  38.355  11.467
38508W        W 5291  26.584   9.006   0.475
38509W        W 5292   3.650  21.472  13.581
38510W        W 5293   5.098  14.115  12.899
38511W        W 5294  24.329  13.894   4.235
38512W        W 5295  23.287  14.697  14.286
38513W        W 5296  28.597   7.303   4.290
38514W        W 5297  33.633  31.697  14.801
38515W        W 5298   7.569  21.198  14.486
38516W        W 5299   9.264  22.744   4.267
38517W        W 5300  42.526  12.960   9.934
38518W        W 5301  13.211  19.625  10.648
38519W        W 5302  11.714  22.052   3.723
38520W        W 5303  39.692  40.429   0.860
38521W        W 5304  19.192  43.344  12.548
38522W        W 5305  19.400   6.502   5.131
38523W        W 5306  15.055  21.591   3.814
38524W        W 5307  40.778  17.595  13.227
38525W        W 5308   7.552  14.352  14.307
38526W        W 5309  20.040  23.630   1.149
38527W        W 5310  41.921  34.175   2.124
38528W        W 5311  44.946  41.340   2.305
38529W        W 5312  43.681  13.049   5.260
38530W        W 5313  13.248  35.815   3.146
38531W        W 5314   2.780  11.101   4.351
38532W        W 5315   6.114  34.580   2.502
38533W        W 5316  36.011  40.580  10.697
38534W        W 5317  28.727  40.767  13.179
38535W        W 5318  26.697  37.350   1.490
38536W        W 5319   1.297  14.266   1.641
38537W        W 5320  31.601  11.245   1.058
38538W        W 5321  32.079  14.330  14.372
38539W        W 5322  43.824  29.535   3.792
38540W        W 5323   1.505  17.631   4.506
38541W        W 5324  12.540   6.149   1.370
38542W        W 5325  23.034  18.696  14.228
38543W        W 5326   2.411  44.483   1.619
38544W        W 5327  34.392   6.050  10.763
38545W        W 5328  12.760  18.953   0.786
38546W        W 5329  32.926  28.725  14.893
38547W        W 5330  22.700  26.710  11.574
38548W        W 5331   9.660   0.492  11.415
38549W        W 5332  17.765  21.633   3.270
38550W        W 5333   7.672  19.716  12.033
38551W        W 5334  39.512  39.280   0.012
38552W        W 5335  36.805  16.867  11.925
38553W        W 5336  42.271  12.753  10.333
38554W        W 5337  24.157  29.495   4.682
38555W        W 5338  36.742   8.038  10.301
38556W        W 5339   6.726  24.434  10.422
38557W        W 5340  21.308  23.631   0.296
38558W        W 5341  26.973  10.857  12.606
38559W        W 5342  37.723  42.636  11.628
38560W        W 5343  33.859  42.320  12.845
38561W        W 5344  40.411  40.072  11.208
38562W        W 5345  26.221  26.496  14.188
38563W        W 5346  36.908  36.595   0.957
38564W        W 5347   1.556  29.030   1.846
38565W        W 5348  24.994   2.070   4.133
38566W        W 5349  42.353   1.013  14.075
38567W        W 5350  15.341  14.184  10.662
38568W        W 5351  38.336  16.244   2.765
38569W        W 5352  20.346  20.218   4.227
38570W        W 5353  41.610  30.990  14.865
38571W        W 5354  28.162   3.300   4.619
38572W        W 5355   8.686  14.569  13.508
38573W        W 5356  22.957  28.891   1.873
38574W        W 5357  19.071  36.030  12.475
38575W        W 5358  20.920  14.893   0.432
38576W        W 5359  42.526   6.908  11.499
38577W        W 5360   2.206  33.486   4.311
38578W        W 5361  15.569  38.085   1.416
38579W        W 5362  39.277  17.680  11.897
38580W        W 5363  43.460  24.634  12.940
38581W        W 5364   0.015  10.146  13.975
38582W        W 5365  10.843  31.086   3.348
38583W        W 5366  24.677  13.513  11.698
38584W        W 5367  15.565  32.454   1.243
38585W        W 5368  17.782   3.233   3.177
38586W        W 5369  26.759  12.227   4.182
38587W        W 5370  43.736  19.191  14.942
38588W        W 5371   1.083   3.235  13.402
38589W        W 5372  39.861  13.425   2.394
38590W        W 5373   5.603  34.021  14.433
38591W        W 5374   9.257   5.958  11.537
38592W        W 5375   8.387   0.142  14.287
38593W        W 5376  10.656  31.314  13.503
38594W        W 5377  18.494  35.048   1.771
38595W        W 5378   9.165   6.235   2.728
38596W        W 5379  21.271  40.893   3.239
38597W        W 5380  13.695   1.541  13.505
38598W        W 5381  16.384  24.710   2.424
38599W        W 5382  31.333  32.183  13.814
38600W        W 5383   0.779   1.891  12.577
38601W        W 5384  37.624  20.479   0.072
38602W        W 5385  11.425  16.353  14.518
38603W        W 5386  15.640   2.643   4.193
38604W        W 5387  21.595  40.837   2.705
38605W        W 5388  44.736  22.640   3.758
38606W        W 5389  11.241  31.030  10.506
38607W        W 5390  44.381   4.461   2.847
38608W        W 5391  40.663  31.942  10.446
38609W        W 5392  39.354  36.015   0.157
38610W        W 5393  31.039   2.688  14.732
38611W        W 5394   3.248  34.394  12.835
38612W        W 5395  15.075  42.466  14.380
38613W        W 5396  10.503  15.060  13.077
38614W        W 5397   8.998  21.493   0.465
38615W        W 5398  31.444  44.592   3.945
38616W        W 5399  27.884  12.270  14.588
38617W        W 5400  25.458   7.868  14.794
38618W        W 5401  33.434  36.373   1.696
38619W        W 5402  10.307   8.839   1.892
38620W        W 5403  32.053  16.534  13.372
38621W        W 5404  38.334  37.503   0.751
38622W        W 5405  17.260  44.913   1.851
38623W        W 5406  36.907  39.288  13.739
38624W        W 5407   1.240  30.410  14.654
38625W        W 5408  23.783  37.363   4.577
38626W        W 5409  31.950  23.812   4.089
38627W        W 5410   1.852  40.507   1.639
38628W        W 5411  11.118   1.150   1.948
38629W        W 5412   0.976  17.587   4.495
38630W        W 5413  27.912  16.111  10.955
38631W        W 5414  34.109  38.489  14.801
38632W        W 5415  44.077  33.501   3.586
38633W        W 5416  20.471  25.076   0.008
38634W        W 5417  18.263  17.501   2.822
38635W        W 5418  27.871   9.648   3.254
38636W        W 5419  29.540  32.361   2.326
38637W        W 5420  36.394  22.750  12.317
38638W        W 5421   5.382  37.273   5.013
38639W        W 5422  28.517  15.210  12.633
38640W        W 5423  23.636   4.531  13.355
38641W        W 5424  28.750   8.770   1.688
38642W        W 5425  35.398   0.285  11.681
38643W        W 5426  24.852  41.328   9.998
38644W        W 5427  43.071   9.828  12.980
38645W        W 5428  29.470  44.083   3.183
38646W        W 5429  15.603  21.614   1.852
38647W        W 5430  35.317  20.431   0.915
38648W        W 5431  31.237  35.721   0.700
38649W        W 5432  27.040  24.727  13.248
38650W        W 5433   4.828   2.223   3.862
38651W        W 5434   8.902   1.410   1.348
38652W        W 5435  39.697  40.415  14.313
38653W        W 5436  26.978  37.700  10.372
38654W        W 5437  12.068  16.221   3.139
38655W        W 5438  34.804   4.307  11.563
38656W        W 5439   7.358  14.067  12.198
38657W        W 5440  38.857   2.177   1.911
38658W        W 5441   3.198  38.621  12.481
38659W        W 5442  12.152  40.261  12.502
38660W        W 5443   0.635  24.563  12.539
38661W        W 5444  41.408  39.765  11.205
38662W        W 5445  19.386   9.356  11.787
38663W        W 5446  40.993  19.986  12.569
38664W        W 5447  42.432  12.809   4.156
38665W        W 5448   5.659  14.271  14.858
38666W        W 5449  42.599  11.616   0.895
38667W        W 5450   6.186  20.350  13.627
38668W        W 5451   9.775  13.260   0.941
38669W        W 5452  39.516  20.592   1.041
38670W        W 5453  22.502  35.843   2.978
38671W        W 5454  16.039  27.898  11.215
38672W        W 5455  14.092  23.572  13.310
38673W        W 5456   9.885  29.459  12.447
38674W        W 5457  35.498  34.172   3.729
38675W        W 5458  28.069  42.344  14.333
38676W        W 5459  38.287  43.483  14.795
38677W        W 5460  21.434  31.414  12.072
38678W        W 5461  33.341  24.140   1.015
38679W        W 5462   0.512  18.080  10.639
38680W        W 5463  28.980  21.450   0.988
38681W        W 5464   8.636   6.377   0.506
38682W        W 5465   4.292   9.286  14.504
38683W        W 5466  13.785  23.104   1.873
38684W        W 5467  27.447  42.282   3.645
38685W        W 5468  41.872   1.223   4.433
38686W        W 5469   3.407   6.558  12.957
38687W        W 5470   4.320   1.695  13.882
38688W        W 5471  34.612   3.669   0.805
38689W        W 5472   2.925  44.788   4.787
38690W        W 5473  23.519  29.185   3.655
38691W        W 5474   6.477  10.873   0.891
38692W        W 5475  33.583  12.621   1.134
38693W        W 5476   9.421  33.405  12.053
38694W        W 5477  35.530  11.293   2.783
38695W        W 5478   0.173  38.121  11.137
38696W        W 5479  44.324  38.902  13.315
38697W        W 5480  17.271  32.883   0.887
38698W        W 5481   7.454  44.532  11.149
38699W        W 5482  32.110  15.906   0.344
38700W        W 5483   8.648  20.272   1.703
38701W        W 5484  35.530  11.422   1.389
38702W        W 5485  25.976  14.810   4.446
38703W        W 5486  32.527   0.465   0.989
38704W        W 5487   3.317   8.496   1.681
38705W        W 5488  11.314  22.064  13.337
38706W        W 5489  17.959   3.328  13.404
38707W        W 5490   4.837  42.407   2.723
38708W        W 5491  26.459  36.863  12.009
38709W        W 5492  38.576  39.789   1.360
38710W        W 5493  37.008  25.417   0.776
38711W        W 5494  27.189  29.484   0.893
38712W        W 5495   4.408  22.864  14.028
38713W        W 5496   1.520   8.836   3.272
38714W        W 5497  24.599  11.666  10.836
38715W        W 5498   9.354  12.562  14.016
38716W        W 5499  27.656  16.631   2.961
38717W        W 5500   8.215  29.909  13.755
38718W        W 5501  12.877  24.472  14.946
38719W        W 5502  30.015  20.331  10.133
38720W        W 5503   6.316  10.151   9.891
38721W        W 5504  20.120  33.402  11.640
38722W        W 5505  13.153  38.370   4.587
38723W        W 5506   5.903  10.769  11.073
38724W        W 5507  39.938  39.129   1.736
38725W        W 5508  42.100  35.687  11.692
38726W        W 5509   5.839  24.105   2.121
38727W        W 5510  44.970  26.492  14.248
38728W        W 5511  27.740  23.872  12.349
38729W        W 5512  25.488  31.381  14.877
38730W        W 5513  16.663  23.257   3.766
38731W        W 5514   2.717  11.006  14.676
38732W        W 5515  29.175   7.429  14.302
38733W        W 5516   2.176  44.223  11.629
38734W        W 5517  15.590  39.773   2.797
38735W        W 5518  23.037   3.777   2.705
38736W        W 5519   5.493  42.305  14.310
38737W        W 5520  27.648  16.303   1.286
38738W        W 5521  29.064  30.475   4.724
38739W        W 5522  27.956   7.142  11.583
38740W        W 5523  22.608  14.879  10.976
38741W        W 5524  42.024  20.184   2.970
38742W        W 5525  15.839  44.400  11.520
38743W        W 5526  21.970  14.076   0.458
38744W        W 5527  27.156  14.643   0.749
38745W        W 5528  36.563  35.683   3.200
38746W        W 5529   1.788  33.954   2.687
38747W        W 5530  23.723  10.696   3.100
38748W        W 5531  26.719  15.647  12.477
38749W        W 5532  21.006  10.727  11.445
38750W        W 5533  16.846  33.819  14.770
38751W        W 5534  26.458  29.773   1.125
38752W        W 5535  17.052   4.922  12.898
38753W        W 5536  10.951  35.376  10.578
38754W        W 5537  20.091  43.832   4.118
38755W        W 5538  27.167  44.379  13.856
38756W        W 5539  24.961  38.944  13.608
38757W        W 5540   6.324  13.612  11.549
38758W        W 5541  39.352  35.609  13.578
38759W        W 5542  42.475   0.734  12.055
38760W        W 5543  18.631  36.796   2.654
38761W        W 5544  39.998  29.218   3.816
38762W        W 5545  37.556  16.095  13.385
38763W        W 5546   3.539  15.270  14.973
38764W        W 5547   9.064   3.242  13.066
38765W        W 5548   8.227   5.882   2.372
38766W        W 5549   8.012  32.627  11.088
38767W        W 5550   0.135  21.679   3.728
38768W        W 5551  16.334  30.587   0.323
38769W        W 5552  16.085  33.874   0.679
38770W        W 5553   6.872  25.708   0.724
38771W        W 5554  29.944  38.401   0.834
38772W        W 5555  22.481  28.595   4.604
38773W        W 5556  41.979  12.264   2.902
38774W        W 5557   2.434  21.547   3.609
38775W        W 5558  42.685  41.571   5.052
38776W        W 5559  21.061   6.299  10.983
38777W        W 5560   9.147  36.341  13.500
38778W        W 5561  19.735  43.687  14.369
38779W        W 5562  33.173  41.983   4.929
38780W        W 5563  42.674  21.235  12.457
38781W        W 5564   3.929  38.858  13.525
38782W        W 5565  26.726  27.342   1.263
38783W        W 5566  26.985   0.395  12.415
38784W        W 5567  24.861  13.274   4.643
38785W        W 5568  31.928  14.771   4.059
38786W        W 5569  32.071  44.848  13.863
38787W        W 5570   6.858   6.391  11.584
38788W        W 5571  11.368   9.815   2.754
38789W        W 5572  11.243  30.457   0.297
38790W        W 5573  35.497  22.130   3.204
38791W        W 5574   2.760  39.364   2.659
38792W        W 5575  23.963  15.697  13.305
38793W        W 5576  38.999  10.398   0.925
38794W        W 5577  24.892  14.726   1.476
38795W        W 5578   0.384  20.735  11.261
38796W        W 5579  36.100  28.011  11.265
38797W        W 5580  41.224  44.823   1.531
38798W        W 5581  35.839  38.281  14.782
38799W        W 5582  31.195  37.533  14.058
38800W        W 5583  36.611   4.323   2.386
38801W        W 5584   5.944  34.416  12.981
38802W        W 5585  42.665  35.422   1.403
38803W        W 5586  15.494  42.697  10.655
38804W        W 5587  29.649  43.323   1.332
38805W        W 5588  35.892  39.254   4.567
38806W        W 5589  40.365   1.410  14.299
38807W        W 5590  16.479   7.877   3.160
38808W        W 5591   9.394  22.887  14.571
38809W        W 5592  36.113  28.618   4.644
38810W        W 5593  42.712  36.071   4.714
38811W        W 5594  27.066  16.367   1.657
38812W        W 5595  19.217   7.995   2.873
38813W        W 5596  24.685  24.643  10.713
38814W        W 5597  25.063   2.825  11.961
38815W        W 5598  16.186  43.137  12.124
38816W        W 5599  31.807  23.470   3.281
38817W        W 5600  36.438  34.435   2.742
38818W        W 5601  10.515   3.953   4.065
38819W        W 5602  22.175  23.212  13.957
38820W        W 5603  11.898  21.638   3.130
38821W        W 5604   8.371  29.670   3.599
38822W        W 5605  23.997  39.665   5.044
38823W        W 5606  38.436   0.947  10.495
38824W        W 5607  26.142  19.057  10.737
38825W        W 5608  35.053  15.524  12.206
38826W        W 5609  44.963   3.464  10.377
38827W        W 5610  32.949  13.534   2.293
38828W        W 5611  13.578  25.642  14.764
38829W        W 5612   1.966  44.419  13.076
38830W        W 5613  36.622  26.699   0.301
38831W        W 5614  36.172  21.305   5.403
38832W        W 5615  37.828  37.576   0.787
38833W        W 5616  27.356  26.631  13.549
38834W        W 5617  15.573  24.316  14.493
38835W        W 5618   7.373  22.869   3.559
38836W        W 5619  21.244  21.347   2.370
38837W        W 5620  33.893  38.800   0.377
38838W        W 5621   3.415  22.141  14.367
38839W        W 5622  17.327  38.368  13.401
38840W        W 5623  38.588  37.111  12.923
38841W        W 5624   4.376  24.207   4.127
38842W        W 5625  14.836  40.945   5.036
38843W        W 5626  16.208  16.276  13.715
38844W        W 5627  34.071  35.668  11.686
38845W        W 5628  30.749  11.861   3.083
38846W        W 5629  29.940  22.560  10.676
38847W        W 5630  38.685  42.384   1.221
38848W        W 5631  16.700  18.754   3.946
38849W        W 5632   3.259  43.909   0.397
38850W        W 5633  28.070  32.653  14.343
38851W        W 5634  25.348  22.564   2.339
38852W        W 5635  14.008  24.369  12.466
38853W        W 5636   0.352  15.114   4.347
38854W        W 5637  38.940   8.416   2.700
38855W        W 5638   5.260  44.921  12.790
38856W        W 5639  18.104  12.413  11.934
38857W        W 5640  23.972  23.697  12.162
38858W        W 5641   6.200  44.787   4.724
38859W        W 5642  20.965  26.489  12.873
38860W        W 5643  32.952   2.235  12.295
38861W        W 5644  14.931  37.539  12.932
38862W        W 5645  30.935  17.783   1.839
38863W        W 5646  20.138  26.664  11.486
38864W        W 5647   3.168  33.580   1.887
38865W        W 5648  39.964  12.534   1.476
38866W        W 5649  30.630  34.557   4.908
38867W        W 5650  27.472   0.767   1.444
38868W        W 5651  36.383  10.215   4.301
38869W        W 5652  16.350  33.653  12.128
38870W        W 5653  26.522  40.438   4.508
38871W        W 5654  18.830  43.605   1.099
38872W        W 5655  21.774   0.772   0.936
38873W        W 5656  41.247  37.613   2.505
38874W        W 5657  18.436  20.509  11.129
38875W        W 5658  20.058  14.069   1.866
38876W        W 5659   6.389  26.588  13.042
38877W        W 5660  34.891  17.266  10.174
38878W        W 5661  36.272  35.310   0.164
38879W        W 5662  23.208  15.855   4.484
38880W        W 5663   7.353   8.690   1.400
38881W        W 5664  12.284   3.359  14.080
38882W        W 5665   3.873   0.754  14.560
38883W        W 5666  30.268  41.629  11.595
38884W        W 5667  25.197  34.150   1.061
38885W        W 5668  20.211  26.438  11.957
38886W        W 5669  12.798   1.547  11.157
38887W        W 5670   3.900  27.024   1.248
38888W        W 5671  32.128  26.565  11.956
38889W        W 5672  18.137  27.591   1.785
38890W        W 5673  42.119  33.795  11.105
38891W        W 5674  13.916  44.537   1.829
38892W        W 5675  23.156  16.688  13.919
38893W        W 5676  16.486   0.417   1.661
38894W        W 5677  33.109  26.666   0.017
38895W        W 5678  14.154   1.180   2.862
38896W        W 5679   4.740  20.762   3.439
38897W        W 5680   2.924  19.594  12.869
38898W        W 5681  13.713   4.567  10.309
38899W        W 5682  21.064  27.413   4.256
38900W        W 5683   5.350  10.678  12.163
38901W        W 5684  23.110  24.182  13.845
38902W        W 5685  30.495  34.059  12.615
38903W        W 5686   4.385  19.783   2.773
38904W        W 5687  26.735  11.191  11.077
38905W        W 5688   1.473   6.423  11.551
38906W        W 5689  17.846  11.699  14.366
38907W        W 5690  11.111   5.698   2.547
38908W        W 5691  24.416  34.156   0.726
38909W        W 5692   0.439  24.981  12.293
38910W        W 5693  15.200  41.843  12.756
38911W        W 5694   3.698  22.969   3.587
38912W        W 5695  34.996  35.938   0.404
38913W        W 5696   2.960  12.337  14.220
38914W        W 5697  40.426  24.401   3.689
38915W        W 5698  22.655  12.259   3.917
38916W        W 5699  21.186  13.597  10.558
38917W        W 5700  38.606   6.876   3.855
38918W        W 5701  40.010  30.493   1.628
38919W        W 5702  11.291  22.174  11.434
38920W        W 5703  13.050   5.212   0.795
38921W        W 5704  39.012  16.726  13.802
38922W        W 5705  14.779  17.666   4.634
38923W        W 5706  40.851   0.543   1.421
38924W        W 5707  19.060  43.945   4.085
38925W        W 5708  35.035  36.857   1.831
38926W        W 5709  21.118  11.419  12.765
38927W        W 5710  25.452  18.588  13.660
38928W        W 5711   3.056   0.927   4.826
38929W        W 5712  33.460  29.242   0.707
38930W        W 5713  26.757  29.217   2.661
38931W        W 5714   5.418  22.413   3.257
38932W        W 5715  38.809   1.965  10.117
38933W        W 5716  16.670  36.438  12.464
38934W        W 5717   5.935  17.528  12.989
38935W        W 5718   9.156  26.546  11.979
38936W        W 5719  40.028  19.254  11.966
38937W        W 5720   2.400  20.219  14.380
38938W        W 5721   8.280  44.796   1.839
38939W        W 5722  12.017  38.595   1.797
38940W        W 5723  31.408  29.346   4.071
38941W        W 5724  41.945  32.116  12.838
38942W        W 5725  44.933  14.662  14.423
38943W        W 5726   2.948  17.208  12.970
38944W        W 5727  11.207  24.995  12.841
38945W        W 5728   5.485  15.178   3.300
38946W        W 5729  32.020   4.920   1.010
38947W        W 5730  13.125  15.296  14.299
38948W        W 5731  23.916  11.218   4.373
38949W        W 5732  40.963  41.569  14.447
38950W        W 5733  11.743   2.478  12.944
38951W        W 5734  34.353   0.492  13.435
38952W        W 5735  44.141  23.283   4.527
38953W        W 5736  37.100  16.205  14.035
38954W        W 5737   3.626  41.936   4.123
38955W        W 5738  42.343  25.037  10.629
38956W        W 5739   7.370  22.964  12.989
38957W        W 5740  31.005   7.801  11.398
38958W        W 5741  24.685  34.437   3.137
38959W        W 5742   0.222   9.101  14.541
38960W        W 5743  31.016   3.425  14.272
38961W        W 5744  12.779  32.451   4.507
38962W        W 5745  36.655  25.965   1.891
38963W        W 5746   2.433  31.983   5.015
38964W        W 5747   4.403  25.504  11.701
38965W        W 5748  25.025  10.686   4.333
38966W        W 5749  24.611  11.942  14.268
38967W        W 5750  34.611  33.069  10.687
38968W        W 5751  43.226  34.289  13.986
38969W        W 5752  40.408  27.945   4.589
38970W        W 5753   8.373  43.818  14.957
38971W        W 5754  36.079  10.933   4.783
38972W        W 5755  23.158  33.904   3.540
38973W        W 5756  28.252  38.957  11.566
38974W        W 5757   6.485  40.699  12.346
38975W        W 5758  20.682  32.132  14.843
38976W        W 5759  30.166  10.329  11.909
38977W        W 5760  22.741  38.998  10.857
38978W        W 5761  31.490  22.151   2.246
38979W        W 5762  13.093   2.568   3.745
38980W        W 5763  40.022   9.873  10.142
38981W        W 5764   0.997  16.199   0.412
38982W        W 5765  28.945  32.398  13.984
38983W        W 5766  10.692   5.450   2.761
38984W        W 5767  35.169  32.503   0.506
38985W        W 5768  34.622  10.947  14.480
38986W        W 5769  20.058  19.535  11.524
38987W        W 5770   0.802   1.278   2.842
38988W        W 5771  38.852  20.220   0.508
38989W        W 5772  16.392   6.413   4.393
38990W        W 5773  26.183  19.598  10.934
38991W        W 5774  34.208   2.602  14.405
38992W        W 5775   9.383  28.429  11.873
38993W        W 5776  43.418  10.264   4.157
38994W        W 5777   6.468  21.158   4.663
38995W        W 5778   3.806   8.097  10.698
38996W        W 5779  28.443  33.652  12.957
38997W        W 5780  38.580   8.949  13.613
38998W        W 5781  14.530  37.892  11.861
38999W        W 5782  20.008   3.426   3.658
39000W        W 5783   1.177  22.619   2.775
39001W        W 5784   6.177   1.966   1.676
39002W        W 5785   9.329  30.583   0.729
39003W        W 5786   0.161  31.070  14.573
39004W        W 5787  42.425  28.357   4.525
39005W        W 5788  35.015  11.802  13.758
39006W        W 5789   4.673  43.400  11.519
39007W        W 5790  33.111  12.844   0.990
39008W        W 5791  30.438  18.206   3.761
39009W        W 5792  43.074   1.642  14.431
39010W        W 5793  40.327  21.221   3.684
39011W        W 5794  26.489  10.146   1.848
39012W        W 5795  35.049  24.316  13.893
39013W        W 5796  32.644   2.859  14.400
39014W        W 5797  15.755  39.334   0.739
39015W        W 5798   9.899  20.370   1.802
39016W        W 5799  23.451  39.899  11.353
39017W        W 5800  42.889  43.546   1.349
39018W        W 5801  11.699   2.899   4.186
39019W        W 5802  43.775  22.828   2.806
39020W        W 5803   0.315   2.219   4.783
39021W        W 5804  35.120  33.906   2.229
39022W        W 5805  44.938  20.712  11.506
39023W        W 5806   6.802  35.367  11.239
39024W        W 5807  23.009  26.230   2.854
39025W        W 5808   9.751  10.605  12.005
39026W        W 5809  26.256  33.321  11.101
39027W        W 5810  10.350  35.432   0.324
39028W        W 5811  35.873  23.036  13.985
39029W        W 5812  12.601   3.722   3.183
39030W        W 5813   9.363  39.727   1.357
39031W        W 5814  10.637  14.043  10.797
39032W        W 5815  15.660  44.913  14.775
39033W        W 5816  19.257  37.398   2.630
39034W        W 5817  12.833  34.038  12.875
39035W        W 5818  33.071  28.103   1.463
39036W        W 5819   3.417  11.599   0.387
39037W        W 5820  17.375  25.828  13.073
39038W        W 5821   4.999  44.806   2.240
39039W        W 5822   7.773  34.689   5.048
39040W        W 5823  12.805  16.351  13.533
39041W        W 5824  32.004  10.092  10.736
39042W        W 5825  32.922  30.066   2.322
39043W        W 5826  35.059   2.355  10.982
39044W        W 5827  21.076  14.419   0.255
39045W        W 5828  42.209  38.726  10.296
39046W        W 5829   5.142  13.150   4.330
39047W        W 5830  30.089  23.473  14.718
39048W        W 5831   0.822   4.842  12.116
39049W        W 5832  23.576  44.967  13.734
39050W        W 5833   7.623   2.453  12.601
39051W        W 5834  12.162  23.788  11.482
39052W        W 5835   4.467  19.206   3.655
39053W        W 5836  23.589  13.612   4.148
39054W        W 5837   0.272  21.744   3.226
39055W        W 5838  38.149   7.326   4.546
39056W        W 5839  23.713  33.716  11.077
39057W        W 5840  18.670  31.498   2.715
39058W        W 5841  38.530  20.869   2.769
39059W        W 5842  25.055  12.195  14.340
39060W        W 5843   3.138  33.488   4.523
39061W        W 5844  19.969  27.762   0.446
39062W        W 5845  40.783  29.194   1.758
39063W        W 5846  22.444  29.560   1.179
39064W        W 5847   3.642  31.747  10.200
39065W        W 5848   9.907  24.470  14.835
39066W        W 5849  24.286  27.661  14.535
39067W        W 5850  15.171   5.689  11.917
39068W        W 5851  24.866  35.891   2.736
39069W        W 5852  16.261   1.882   1.938
39070W        W 5853  29.929   0.545   3.597
39071W        W 5854  28.544  31.855  10.993
39072W        W 5855  27.462  17.598   4.846
39073W        W 5856   6.243  31.812   3.147
39074W        W 5857   1.006   9.942   4.744
39075W        W 5858  30.345  42.475   0.275
39076W        W 5859  33.205  34.048   5.010
39077W        W 5860  20.440   5.398   0.805
39078W        W 5861   4.353   2.520  13.048
39079W        W 5862  40.752   2.827   0.243
39080W        W 5863  15.785  11.388  12.001
39081W        W 5864  31.869   4.202   3.182
39082W        W 5865  42.765  34.135   3.568
39083W        W 5866  21.676   6.781  14.378
39084W        W 5867  14.100  34.156  12.388
39085W        W 5868  42.266  40.472  12.438
39086W        W 5869  43.783  23.581  13.380
39087W        W 5870  34.910   3.188  12.686
39088W        W 5871  35.879  42.367  13.992
39089W        W 5872   3.908  11.554   2.206
39090W        W 5873  17.507  41.866  11.041
39091W        W 5874   5.291  34.050  14.031
39092W        W 5875  28.106  35.560   3.655
39093W        W 5876  13.537   0.320   4.157
39094W        W 5877   2.225   1.703   3.674
39095W        W 5878  13.794  17.158  11.061
39096W        W 5879   1.344  32.305  13.982
39097W        W 5880  35.065  39.776   3.657
39098W        W 5881  11.663  41.902   4.152
39099W        W 5882  31.367  31.582  12.962
39100W        W 5883   0.502   8.909  11.111
39101W        W 5884  26.875  25.627   1.701
39102W        W 5885  10.333  19.041  13.279
39103W        W 5886   9.750  14.872   3.283
39104W        W 5887   7.860  42.406   2.452
39105W        W 5888  39.004  22.044  13.479
39106W        W 5889  21.974  17.229   1.458
39107W        W 5890   7.293   0.940   3.587
39108W        W 5891  14.687   5.670   3.098
39109W        W 5892  31.566   9.589  11.083
39110W        W 5893   2.474  17.397  12.813
39111W        W 5894   6.095  23.109   2.263
39112W        W 5895  14.292  29.108  11.666
39113W        W 5896   5.975  40.814  12.449
39114W        W 5897  10.434   1.280  11.947
39115W        W 5898  19.153  36.427  14.601
39116W        W 5899  32.104  16.698  14.314
39117W        W 5900  39.964  12.272  10.707
39118W        W 5901  23.396   8.849  11.717
39119W        W 5902  19.764  32.614  11.181
39120W        W 5903  23.305  23.006  14.961
39121W        W 5904  10.726  13.184   4.147
39122W        W 5905  33.888   1.376  12.914
39123W        W 5906   9.951  12.624   1.478
39124W        W 5907  33.072  37.252  11.973
39125W        W 5908  25.940  30.203  11.570
39126W        W 5909  13.375  11.045  13.860
39127W        W 5910  33.840   2.415   1.326
39128W        W 5911  27.812  21.139  12.849
39129W        W 5912  31.084   5.445  14.427
39130W        W 5913   0.983   6.861   0.409
39131W        W 5914  18.107   9.452   2.846
39132W        W 5915  35.046  10.732  13.973
39133W        W 5916  22.241  34.194   3.540
39134W        W 5917  13.252  27.759   0.445
39135W        W 5918   1.877  29.946   4.289
39136W        W 5919  30.560  40.109  11.626
39137W        W 5920  16.373   2.195   4.650
39138W        W 5921   9.882  28.973   0.951
39139W        W 5922  21.425  39.490  11.448
39140W        W 5923  36.579  32.602  10.686
39141W        W 5924  24.669  24.759  13.508
39142W        W 5925  37.435  23.716   2.207
39143W        W 5926  14.700  29.241  11.160
39144W        W 5927  24.506  44.216   0.249
39145W        W 5928  38.318  17.233   0.874
39146W        W 5929   6.731  17.849   2.295
39147W        W 5930  19.702   1.179   0.344
39148W        W 5931  23.258  14.234  13.958
39149W        W 5932  35.999  14.826   1.254
39150W        W 5933   5.908  43.681  12.098
39151W        W 5934  19.763  31.046  12.687
39152W        W 5935  22.028  14.651  12.807
39153W        W 5936  25.724  32.146   1.822
39154W        W 5937  23.016  43.470   1.895
39155W        W 5938  19.536   8.387  12.411
39156W        W 5939  35.448  10.898   5.069
39157W        W 5940  28.567   0.291  11.156
39158W        W 5941  15.281   7.786  11.226
39159W        W 5942   3.931  12.662   4.237
39160W        W 5943  39.852  31.205  10.520
39161W        W 5944  22.962  31.572  11.476
39162W        W 5945   0.302  25.127  13.305
39163W        W 5946  38.539   6.726  11.436
39164W        W 5947  29.134  24.498  14.848
39165W        W 5948  17.134  37.957  12.878
39166W        W 5949  13.352  25.104  12.526
39167W        W 5950  15.513  18.108   2.468
39168W        W 5951  29.998  35.122  14.358
39169W        W 5952  11.789   1.266   2.403
39170W        W 5953  39.307   4.389  13.034
39171W        W 5954   7.675  17.554  10.779
39172W        W 5955  24.492  44.369   0.757
39173W        W 5956  14.028  27.959  11.988
39174W        W 5957  24.121  14.737  14.708
39175W        W 5958  43.698   8.902  13.572
39176W        W 5959  15.662  31.561  12.844
39177W        W 5960  31.588   1.461  12.519
39178W        W 5961  25.533  28.612   2.147
39179W        W 5962  22.313  17.471  12.844
39180W        W 5963  26.621   2.200  13.519
39181W        W 5964  32.948  13.618   3.849
39182W        W 5965  35.146  41.572   0.777
39183W        W 5966  38.125   9.944   0.396
39184W        W 5967   4.513  38.423  12.847
39185W        W 5968   4.897  33.579  10.610
39186W        W 5969  33.913  42.703   0.145
39187W        W 5970  30.992  29.954   2.960
39188W        W 5971  19.739  40.981  12.466
39189W        W 5972  15.047  29.319   1.739
39190W        W 5973  42.318  42.309  11.246
39191W        W 5974  40.312  15.144  13.774
39192W        W 5975   5.262  28.429   0.770
39193W        W 5976  25.717  33.998  12.660
39194W        W 5977  13.771  28.227  14.325
39195W        W 5978  38.275   4.447   1.663
39196W        W 5979  14.060   2.580   2.671
39197W        W 5980   6.299  37.856  12.578
39198W        W 5981  30.063  38.453   2.322
39199W        W 5982  41.532   6.903  14.366
39200W        W 5983  36.093  29.388   1.280
39201W        W 5984  19.634  13.698  14.511
39202W        W 5985  10.816  40.844   3.896
39203W        W 5986   2.079   7.821  13.080
39204W        W 5987  31.930  26.052  11.172
39205W        W 5988  35.905  26.582  10.101
39206W        W 5989  31.321  19.810  12.585
39207W        W 5990  36.447  20.788  14.342
39208W        W 5991  27.380  32.417  10.481
39209W        W 5992  42.605  42.298  12.247
39210W        W 5993  44.204  44.930  14.003
39211W        W 5994  29.442   8.707   0.503
39212W        W 5995  18.234  10.965   1.212
39213W        W 5996  24.125  22.646   3.135
39214W        W 5997  42.353   4.004   0.315
39215W        W 5998  27.566  35.253   4.515
39216W        W 5999  17.481  34.999   0.796
39217W        W 6000   8.815   8.225   3.652
39218W        W 6001  23.097  44.021   1.810
39219W        W 6002  31.504   0.274  12.429
39220W        W 6003   1.314  42.777   0.298
39221W        W 6004   7.723  12.747   0.096
39222W        W 6005  30.940  18.185   3.630
39223W        W 6006  12.824   7.548   3.763
39224W        W 6007  18.594  44.319   4.099
39225W        W 6008  39.960   7.673  12.301
39226W        W 6009   0.272  11.663   2.191
39227W        W 6010  36.508  24.766   1.025
39228W        W 6011  29.022  29.101  13.430
39229W        W 6012  36.024  26.046  12.060
39230W        W 6013  30.649  24.968  14.104
39231W        W 6014  23.044  43.481  14.475
39232W        W 6015  13.714  13.111  11.694
39233W        W 6016  32.875  40.419  10.734
39234W        W 6017  12.549  18.102   1.152
39235W        W 6018   6.120  35.285   0.349
39236W        W 6019  33.952  26.253  13.044
39237W        W 6020  34.735  30.554  12.859
39238W        W 6021  36.878   2.217  10.956
39239W        W 6022  10.265  26.523   1.685
39240W        W 6023  27.583   6.736   5.026
39241W        W 6024  23.738  27.599  12.660
39242W        W 6025  33.088   5.219  10.888
39243W        W 6026  21.537  27.630   4.369
39244W        W 6027  10.981  24.272  14.054
39245W        W 6028  18.668  12.754  13.252
39246W        W 6029  43.388   0.471  11.139
39247W        W 6030  34.876   7.242  10.801
39248W        W 6031  32.475  23.766   4.003
39249W        W 6032  30.935  34.863   4.658
39250W        W 6033  20.102  33.870  10.733
39251W        W 6034  39.984   8.095   1.405
39252W        W 6035  38.390   7.842   4.558
39253W        W 6036   7.192  28.651  13.156
39254W        W 6037  16.051  15.275  10.333
39255W        W 6038  38.923  30.009   2.896
39256W        W 6039  22.196  16.155   2.329
39257W        W 6040  40.087  38.449   0.903
39258W        W 6041  28.347   7.432  12.235
39259W        W 6042   8.316  39.562   4.197
39260W        W 6043  20.448  33.627   2.977
39261W        W 6044  22.298  42.522  10.913
39262W        W 6045  15.624  32.487  12.950
39263W        W 6046  41.307  41.206   4.062
39264W        W 6047   2.274  11.170  13.874
39265W        W 6048  29.637  15.360   3.349
39266W        W 6049   7.365  27.584   0.870
39267W        W 6050   6.490   6.611  12.499
39268W        W 6051  12.771  31.585   2.745
39269W        W 6052  17.385  10.550   3.555
39270W        W 6053  29.526  32.253  11.859
39271W        W 6054  12.925   9.834   3.688
39272W        W 6055  16.046   8.206  11.093
39273W        W 6056  33.033  21.770   0.423
39274W        W 6057  18.475  10.745  11.088
39275W        W 6058  33.023  42.763   1.427
39276W        W 6059  20.404   3.217  14.719
39277W        W 6060  25.817  31.819  10.971
39278W        W 6061  23.773  34.842   2.860
39279W        W 6062  14.701  18.175   4.657
39280W        W 6063  43.659  19.134  12.929
39281W        W 6064  37.419  33.369   2.256
39282W        W 6065  30.127   0.298  11.049
39283W        W 6066  22.956  29.814  12.357
39284W        W 6067  34.184  13.618   2.187
39285W        W 6068  42.157  34.947  11.048
39286W        W 6069  39.556  39.418   1.952
39287W        W 6070  40.459  33.738   4.213
39288W        W 6071  29.823  43.563   2.726
39289W        W 6072  12.273   1.230  11.852
39290W        W 6073   6.640  16.284   0.458
39291W        W 6074  40.362  40.636   3.188
39292W        W 6075  24.489  15.269  12.087
39293W        W 6076   7.904  29.567   0.227
39294W        W 6077   2.943  43.089  11.251
39295W        W 6078  17.352  35.495  14.768
39296W        W 6079  17.137  43.000  13.938
39297W        W 6080  23.886  13.898  11.228
39298W        W 6081  25.942  35.112  11.540
39299W        W 6082   8.271  20.643   4.071
39300W        W 6083   3.013  39.881   3.858
39301W        W 6084  35.314  22.461   0.242
39302W        W 6085   6.494   5.924  14.756
39303W        W 6086   2.177  23.218  11.758
39304W        W 6087  24.118  38.585   4.388
39305W        W 6088  16.771   7.315   3.267
39306W        W 6089  30.817   4.640  12.580
39307W        W 6090   8.875   1.871   0.796
39308W        W 6091  16.161  16.214  10.615
39309W        W 6092  22.123  15.735   4.858
39310W        W 6093  35.568  38.832   0.472
39311W        W 6094  43.432  14.087   0.541
39312W        W 6095  43.497  39.301  14.293
39313W        W 6096  35.624  18.766  10.316
39314W        W 6097  15.368  22.829   4.257
39315W        W 6098   3.302   2.874  13.145
39316W        W 6099   2.342   1.763   2.015
39317W        W 6100   2.394  43.002   0.732
39318W        W 6101  25.634   5.146  10.230
39319W        W 6102  40.308   9.853  14.831
39320W        W 6103   8.432  44.974  13.052
39321W        W 6104  19.985  43.760  14.853
39322W        W 6105  18.085  29.103   0.300
39323W        W 6106  23.877  26.458  13.077
39324W        W 6107   3.426  19.653   1.781
39325W        W 6108  33.142  10.744   4.799
39326W        W 6109   8.646   1.346   4.767
39327W        W 6110  26.223  29.019   4.131
39328W        W 6111  23.801  30.601   4.867
39329W        W 6112  29.413   8.380  12.437
39330W        W 6113  27.604  35.646   2.176
39331W        W 6114  23.405  18.220   2.653
39332W        W 6115   7.736  39.916   2.208
39333W        W 6116  10.719  24.581  12.576
39334W        W 6117   1.810  24.883  11.184
39335W        W 6118   9.761   5.277   3.248
39336W        W 6119   4.340  36.333   0.232
39337W        W 6120  16.308  33.343  11.708
39338W        W 6121   9.690   7.386  11.409
39339W        W 6122  27.673   2.533   4.733
39340W        W 6123   2.366  25.619   4.818
39341W        W 6124  14.487  42.471  13.775
39342W        W 6125  34.085  10.091   2.811
39343W        W 6126   1.236  39.992   2.230
39344W        W 6127  25.818   8.709   4.198
39345W        W 6128  10.257   9.949   4.554
39346W        W 6129  24.816  11.282   2.730
39347W        W 6130  16.116   0.692  14.944
39348W        W 6131   2.918  34.023  12.426
39349W        W 6132  44.979   7.754   3.034
39350W        W 6133   1.296  38.554  12.207
39351W        W 6134  21.560   0.525   4.587
39352W        W 6135  29.687   0.461   3.105
39353W        W 6136  40.572  29.093   3.714
39354W        W 6137  11.793  10.721  12.418
39355W        W 6138  15.402  19.506   3.719
39356W        W 6139  37.945  18.485   1.753
39357W        W 6140  35.557  14.680   4.694
39358W        W 6141  32.947  42.602   3.643
39359W        W 6142  10.849  10.299   1.316
39360W        W 6143  30.970  34.933   1.102
39361W        W 6144  25.952   5.513  13.263
39362W        W 6145   5.405  34.566  12.859
39363W        W 6146  25.725  21.813   2.875
39364W        W 6147  29.441  20.608   3.166
39365W        W 6148   5.464   8.698  12.326
39366W        W 6149  27.739   7.353   1.848
39367W        W 6150  14.313   2.696  13.271
39368W        W 6151  17.673  36.573   3.532
39369W        W 6152   8.273  32.278  13.546
39370W        W 6153  40.605  12.730   2.303
39371W        W 6154  27.371  24.905   4.580
39372W        W 6155  38.618  19.739  14.422
39373W        W 6156  32.832   9.818  11.992
39374W        W 6157  31.386   8.284   2.245
39375W        W 6158  43.687  24.789  12.502
39376W        W 6159   1.924  17.249   2.655
39377W        W 6160  17.066  35.851  11.583
39378W        W 6161  41.477  12.587   2.281
39379W        W 6162  32.222  31.462  13.276
39380W        W 6163  17.931  32.354  14.745
39381W        W 6164   8.964  32.610   1.380
39382W        W 6165   6.441  25.718  12.634
39383W        W 6166  15.681  39.359  11.056
39384W        W 6167   7.246  11.386   0.839
39385W        W 6168  29.501   1.895   4.590
39386W        W 6169  30.488  14.226  13.826
39387W        W 6170  40.446   9.923   0.842
39388W        W 6171   4.005  26.696  14.353
39389W        W 6172  26.783   9.745   1.762
39390W        W 6173  40.893  11.863  13.387
39391W        W 6174  13.235  30.327   2.738
39392W        W 6175  16.167   8.883   1.280
39393W        W 6176  40.455  10.567   4.648
39394W        W 6177  33.871  23.104  10.258
39395W        W 6178  16.165   7.952  11.651
39396W        W 6179  34.023  33.358  13.885
39397W        W 6180   2.718   4.312   4.915
39398W        W 6181  32.535   2.287   3.648
39399W        W 6182  12.676  20.162   3.888
39400W        W 6183  29.484   7.559   3.739
39401W        W 6184  17.588  38.332  13.845
39402W        W 6185  34.486  13.406  12.956
39403W        W 6186  34.391  10.922  14.944
39404W        W 6187  20.873  39.342   1.081
39405W        W 6188  10.937  12.556   2.533
39406W        W 6189  20.318  37.063  11.641
39407W        W 6190  29.077  19.129   2.410
39408W        W 6191  41.556   3.914   0.787
39409W        W 6192   3.041  27.333   0.719
39410W        W 6193  32.861  12.679  13.218
39411W        W 6194  23.254  24.709  13.070
39412W        W 6195   1.879  43.001  13.830
39413W        W 6196  25.713   1.353  10.387
39414W        W 6197   8.164  40.723  12.506
39415W        W 6198  29.564   1.903   5.160
39416W        W 6199  32.382  34.880   0.844
39417W        W 6200  44.427  28.737   1.281
39418W        W 6201   9.327  19.073  14.803
39419W        W 6202  27.160   5.390   0.725
39420W        W 6203  16.212   8.298  12.004
39421W        W 6204  10.329  30.048  13.455
39422W        W 6205  28.963  39.204   4.573
39423W        W 6206   0.560   3.933  13.044
39424W        W 6207   0.524  16.768   2.373
39425W        W 6208  43.303  19.658   4.560
39426W        W 6209  11.752  18.738  10.794
39427W        W 6210  23.201  21.201   1.379
39428W        W 6211  44.297  33.142  14.401
39429W        W 6212  23.161  39.699  14.577
39430W        W 6213  20.566   8.996   4.657
39431W        W 6214  36.354  11.201  11.065
39432W        W 6215  38.037   1.255   4.252
39433W        W 6216  24.382   4.401  13.912
39434W        W 6217  28.078   4.708   3.879
39435W        W 6218  36.756   6.377   3.236
39436W        W 6219  35.784  12.457  14.838
39437W        W 6220  33.410  23.844  11.272
39438W        W 6221  37.752   2.771   1.940
39439W        W 6222  13.611  32.029   4.605
39440W        W 6223  13.743  32.500  12.996
39441W        W 6224  36.799  42.837   0.235
39442W        W 6225  33.916  24.144  14.660
39443W        W 6226   4.072  43.557   3.678
39444W        W 6227  21.217   8.603  12.016
39445W        W 6228   0.462  14.094   4.125
39446W        W 6229  18.254  12.283  10.679
39447W        W 6230  12.862   3.243   0.534
39448W        W 6231  38.326   0.309   0.311
39449W        W 6232  29.515  19.630   5.250
39450W        W 6233   6.471  33.769  13.767
39451W        W 6234   4.023  30.044  11.624
39452W        W 6235  44.259  30.124   5.053
39453W        W 6236  27.583   0.461  13.814
39454W        W 6237  29.380  43.490  12.987
39455W        W 6238  20.773   3.416  12.080
39456W        W 6239  12.020  19.706  11.581
39457W        W 6240  25.252  21.438  13.400
39458W        W 6241  26.149  22.773   1.772
39459W        W 6242   9.695  22.505  13.419
39460W        W 6243  41.349  32.121   5.044
39461W        W 6244   5.409  11.711  13.772
39462W        W 6245   9.275  18.164  14.556
39463W        W 6246  31.601   8.163  12.615
39464W        W 6247  14.255  20.730  12.812
39465W        W 6248  35.654   4.528   1.674
39466W        W 6249  26.259   2.924   2.403
39467W        W 6250  19.137  12.866   3.072
39468W        W 6251  41.735  21.584   4.547
39469W        W 6252   8.373  32.995  11.782
39470W        W 6253  38.737  38.549   0.193
39471W        W 6254  10.665   5.955  14.541
39472W        W 6255   7.830  12.497   5.051
39473W        W 6256   4.679   7.497   2.081
39474W        W 6257  11.086  14.618  14.957
39475W        W 6258  42.522   2.024   3.428
39476W        W 6259  29.660   7.996  14.473
39477W        W 6260  32.596  19.710   2.006
39478W        W 6261  43.489   8.851   4.070
39479W        W 6262   2.269  39.048   0.423
39480W        W 6263  25.574  23.064  11.108
39481W        W 6264   1.440  35.052  13.708
39482W        W 6265  12.213  19.576  12.028
39483W        W 6266  44.994  25.804  13.146
39484W        W 6267  17.822  10.893  11.817
39485W        W 6268   3.298  34.386  13.778
39486W        W 6269  35.820   3.697  10.755
39487W        W 6270   4.529  18.188  13.989
39488W        W 6271   8.510   4.827  14.354
39489W        W 6272  15.401   4.824   3.668
39490W        W 6273  40.766  39.982   0.368
39491W        W 6274  38.356  38.037   4.635
39492W        W 6275  26.042  25.230   0.075
39493W        W 6276  26.733  35.685  10.770
39494W        W 6277  21.727  43.901   1.857
39495W        W 6278  37.220  31.030   0.420
39496W        W 6279  35.873   1.318  10.686
39497W        W 6280  42.008  29.352  13.474
39498W        W 6281  18.548  12.584   0.405
39499W        W 6282  23.188  38.310   2.329
39500W        W 6283  24.288  33.063   2.702
39501W        W 6284  13.826  25.414   4.667
39502W        W 6285   8.369  30.306   2.208
39503W        W 6286  24.011  30.356   4.054
39504W        W 6287  12.307   3.455  10.703
39505W        W 6288  31.001  28.022  11.427
39506W        W 6289  14.360  30.547  11.031
39507W        W 6290  23.159  15.500  14.578
39508W        W 6291  17.611   5.925  13.711
39509W        W 6292  41.346   6.672   4.530
39510W        W 6293  38.401  44.930  14.340
39511W        W 6294   8.819  19.520   2.531
39512W        W 6295   7.048  28.615  12.194
39513W        W 6296  33.424  25.168   4.582
39514W        W 6297  20.425   6.285  10.030
39515W        W 6298  39.117   9.605  10.608
39516W        W 6299  40.782  17.546  10.622
39517W        W 6300  44.026  20.656   2.119
39518W        W 6301   8.660   7.184  11.867
39519W        W 6302  15.308  30.358  14.262
39520W        W 6303  32.931  30.346  12.606
39521W        W 6304  32.410   1.855   2.905
39522W        W 6305  36.562  35.611   0.983
39523W        W 6306   0.481   4.094  14.435
39524W        W 6307  24.130  15.847  11.491
39525W        W 6308  11.585  38.024   3.060
39526W        W 6309   7.437  19.135  12.096
39527W        W 6310   6.283  44.533  11.863
39528W        W 6311  26.569  20.346   4.050
39529W        W 6312  35.016   4.011  11.146
39530W        W 6313  38.863   1.609   2.692
39531W        W 6314  11.862  18.110  14.758
39532W        W 6315   2.786   9.730   0.415
39533W        W 6316  18.221  32.097  11.895
39534W        W 6317  37.557   7.693   1.364
39535W        W 6318   3.308  35.628   2.354
39536W        W 6319  25.466  39.546  13.128
39537W        W 6320  25.561  37.336   4.520
39538W        W 6321  38.955  35.000  14.087
39539W        W 6322  41.578  34.203  13.982
39540W        W 6323  20.669  14.529   1.695
39541W        W 6324  30.122  33.587   1.760
39542W        W 6325  33.136  10.083   3.615
39543W        W 6326  28.354  39.489  10.202
39544W        W 6327   8.612  32.528  11.884
39545W        W 6328  29.041  26.130   2.171
39546W        W 6329  11.895  43.399   2.338
39547W        W 6330  22.736  29.906   0.262
39548W        W 6331  33.009  13.570  12.003
39549W        W 6332  21.631   7.672  13.287
39550W        W 6333  37.014  12.578   2.338
39551W        W 6334  24.927   3.991  11.626
39552W        W 6335  12.907   9.775   0.821
39553W        W 6336  11.495  18.547  11.329
39554W        W 6337  26.994  42.861  12.957
39555W        W 6338  16.844   9.435   2.749
39556W        W 6339  25.726  40.683   1.528
39557W        W 6340  40.566  12.145   4.015
39558W        W 6341  30.561  11.495   4.080
39559W        W 6342  36.004  18.185   2.312
39560W        W 6343   5.255  15.122  10.503
39561W        W 6344  40.876  34.464  14.227
39562W        W 6345  38.528   1.733  14.846
39563W        W 6346  38.343  29.876   4.478
39564W        W 6347  33.414   7.885   3.350
39565W        W 6348  33.338  13.727  12.446
39566W        W 6349  22.590  31.609  12.853
39567W        W 6350  16.670   3.424   4.671
39568W        W 6351  21.072  36.864   2.229
39569W        W 6352  16.309   7.641   1.485
39570W        W 6353   1.501  39.922  14.050
39571W        W 6354  23.468  38.442  12.605
39572W        W 6355  17.161  29.067  10.793
39573W        W 6356  19.551  37.831  13.982
39574W        W 6357  11.839  24.631   3.808
39575W        W 6358  29.531  37.413   3.220
39576W        W 6359  12.541  20.093   4.390
39577W        W 6360   5.374  34.640   4.123
39578W        W 6361   1.418  26.718   0.274
39579W        W 6362   2.356  40.117   4.089
39580W        W 6363  39.862  10.930   3.591
39581W        W 6364  10.198  12.976  14.249
39582W        W 6365  26.007   6.896  10.703
39583W        W 6366  30.842  29.551  12.089
39584W        W 6367   9.620   8.241  14.451
39585W        W 6368  12.133  29.087   1.559
39586W        W 6369  13.433  14.174   2.746
39587W        W 6370   9.822   9.324   3.257
39588W        W 6371   5.235  40.553   1.430
39589W        W 6372  37.985  26.508  11.075
39590W        W 6373  20.128  38.581   0.529
39591W        W 6374  26.540  16.147   4.354
39592W        W 6375  22.486  17.305   4.986
39593W        W 6376  29.038  35.568   1.112
39594W        W 6377   6.665   5.696   3.701
39595W        W 6378  25.397  29.180   3.777
39596W        W 6379  29.954   0.802  12.281
39597W        W 6380   6.818  31.369  12.362
39598W        W 6381   6.821  20.761  14.993
39599W        W 6382  42.870   8.294   0.388
39600W        W 6383   2.955  30.596   1.376
39601W        W 6384  20.089  37.461   1.328
39602W        W 6385   1.157  30.350   1.228
39603W        W 6386  23.346  19.139   4.793
39604W        W 6387  33.403  20.273  12.640
39605W        W 6388  14.335  24.560  10.593
39606W        W 6389   6.129   2.418  11.977
39607W        W 6390   5.963   8.694  14.794
39608W        W 6391  26.186  30.054   2.876
39609W        W 6392  42.630  44.064  12.405
39610W        W 6393  44.315  44.030   1.178
39611W        W 6394  29.826  30.662   2.090
39612W        W 6395   8.083  22.117  13.014
39613W        W 6396  27.164  32.406  12.916
39614W        W 6397  25.511   8.793   0.286
39615W        W 6398  17.660  40.301   3.696
39616W        W 6399  38.199  39.359  10.503
39617W        W 6400   2.750  28.404   4.624
39618W        W 6401   7.450   3.351  10.965
39619W        W 6402  38.617   8.762  11.533
39620W        W 6403  27.620  39.617   3.645
39621W        W 6404   5.528  31.848  11.968
39622W        W 6405  35.544  27.346   0.292
39623W        W 6406   5.253  20.196  14.782
39624W        W 6407  30.947   3.240  14.964
39625W        W 6408  43.844  22.532  13.934
39626W        W 6409   0.651   8.712   1.836
39627W        W 6410  32.118  38.112   0.426
39628W        W 6411   3.798  14.924   1.240
39629W        W 6412   5.023   6.270   3.703
39630W        W 6413  32.187  37.871   3.318
39631W        W 6414  20.289  44.064   4.546
39632W        W 6415  14.220  20.186  11.791
39633W        W 6416  26.441  36.559   3.228
39634W        W 6417   5.688  41.860  14.541
39635W        W 6418   1.337  33.771   0.800
39636W        W 6419  23.595  31.215  14.094
39637W        W 6420  10.220  23.453  11.018
39638W        W 6421  21.605  37.962  10.658
39639W        W 6422  23.703  21.769  14.469
39640W        W 6423  24.103  25.941  13.367
39641W        W 6424  30.864  24.232   1.468
39642W        W 6425  13.096  17.387  13.355
39643W        W 6426  43.093  33.011   3.004
39644W        W 6427  27.972   8.744  12.558
39645W        W 6428  37.484  38.580  10.773
39646W        W 6429  28.155  27.491   2.365
39647W        W 6430  42.802  10.611  13.350
39648W        W 6431   8.682  26.821  12.795
39649W        W 6432  42.012  29.119   0.459
39650W        W 6433  29.475  31.745  11.987
39651W        W 6434  44.390  35.138  10.604
39652W        W 6435  33.359  13.447   2.796
39653W        W 6436  40.727  39.973   3.609
39654W        W 6437  19.059   2.072  12.245
39655W        W 6438  29.597  35.656   3.626
39656W        W 6439  14.300  20.979   1.016
39657W        W 6440  30.308  15.591  12.882
39658W        W 6441  23.724   0.361   0.548
39659W        W 6442  21.651  24.945   2.353
39660W        W 6443  29.828   9.960   0.332
39661W        W 6444  35.001   1.507   3.719
39662W        W 6445  29.981  15.748  12.505
39663W        W 6446  19.366  16.425   4.971
39664W        W 6447  11.894  39.571   0.811
39665W        W 6448  10.097  30.902  14.398
39666W        W 6449   6.888  43.099   1.267
39667W        W 6450  20.986  16.133   1.842
39668W        W 6451  10.224  13.323  13.352
39669W        W 6452  43.955  37.830  10.623
39670W        W 6453  34.315  30.942   1.065
39671W        W 6454  38.032   0.478   3.781
39672W        W 6455   0.912  10.301   2.881
39673W        W 6456  12.585  22.714  13.552
39674W        W 6457   6.202  33.986  14.835
39675W        W 6458  20.068  28.988   4.563
39676W        W 6459  13.086  23.953   1.103
39677W        W 6460   7.238  39.621  11.391
39678W        W 6461  26.505  14.058   0.258
39679W        W 6462   7.741  44.880   2.902
39680W        W 6463  35.805   6.393  11.978
39681W        W 6464  27.435  43.302  14.380
39682W        W 6465  14.186  11.758   5.047
39683W        W 6466  37.305   2.244  11.690
39684W        W 6467  11.202  12.203   3.865
39685W        W 6468  39.929  26.506   1.955
39686W        W 6469  36.768  41.141  13.307
39687W        W 6470  20.816   9.261   0.477
39688W        W 6471  27.466   7.181  12.091
39689W        W 6472   7.963  25.010   2.355
39690W        W 6473  31.538  32.027   1.506
39691W        W 6474  37.599  23.462  11.172
39692W        W 6475   3.467  28.574  12.073
39693W        W 6476  40.078   8.304   1.856
39694W        W 6477  15.202  43.730   0.781
39695W        W 6478  31.765   7.512  14.296
39696W        W 6479   8.139  21.498  13.694
39697W        W 6480   7.310  20.202  14.528
39698W        W 6481  14.591  19.477   0.722
39699W        W 6482  28.023  39.712   1.428
39700W        W 6483   3.505  31.702   0.384
39701W        W 6484  40.917   7.356  13.701
39702W        W 6485   7.384  41.415   0.904
39703W        W 6486  22.609  31.444   1.760
39704W        W 6487  34.956  18.587  12.545
39705W        W 6488  21.517  23.599   0.972
39706W        W 6489   7.307  25.584  12.605
39707W        W 6490  22.553  34.216  13.486
39708W        W 6491   4.829  20.185  13.862
39709W        W 6492  35.808   3.710   1.294
39710W        W 6493  42.588   1.004  12.473
39711W        W 6494  38.389  41.610  12.098
39712W        W 6495  43.145  36.511  14.055
39713W        W 6496  37.847  43.721   4.601
39714W        W 6497  35.490  25.191  12.360
39715W        W 6498  33.515  38.485  12.055
39716W        W 6499   9.979   7.679  12.222
39717W        W 6500  13.059  25.691  14.844
39718W        W 6501   6.353  27.701  14.489
39719W        W 6502  33.624  34.502   3.694
39720W        W 6503  26.235   7.239   4.847
39721W        W 6504  27.664  11.978   2.351
39722W        W 6505   0.910  44.477   2.486
39723W        W 6506  27.339   6.216  10.718
39724W        W 6507  22.190   4.191  14.787
39725W        W 6508  24.674   4.953   2.312
39726W        W 6509   9.131  35.526   4.366
39727W        W 6510  32.470  26.048  14.132
39728W        W 6511  29.029  28.347   3.838
39729W        W 6512   2.902  31.068   5.241
39730W        W 6513  42.961  10.700   4.648
39731W        W 6514  44.087   6.802  13.295
39732W        W 6515   5.453  40.913   4.608
39733W        W 6516  10.747  39.883   2.672
39734W        W 6517   4.742   8.854  11.557
39735W        W 6518  20.714   4.466  12.399
39736W        W 6519   9.246  23.657   4.054
39737W        W 6520  18.536  12.049  11.083
39738W        W 6521  43.001   4.664  14.839
39739W        W 6522   4.461  20.037   4.614
39740W        W 6523   2.912   2.464   3.233
39741W        W 6524  17.254   7.662  11.101
39742W        W 6525  32.534   2.323   0.713
39743W        W 6526  30.116  35.307  11.761
39744W        W 6527  29.778   7.692   0.019
39745W        W 6528  33.113  16.652  14.500
39746W        W 6529  34.942  34.314  13.947
39747W        W 6530  39.726  36.850  10.534
39748W        W 6531  15.266   0.257  11.700
39749W        W 6532   0.065  42.173  12.898
39750W        W 6533  23.469  37.726  11.744
39751W        W 6534  42.793  11.185  14.506
39752W        W 6535  35.630  44.780   3.191
39753W        W 6536  15.045  41.454   2.835
39754W        W 6537  40.884  18.346   1.965
39755W        W 6538  19.785  20.096   0.268
39756W        W 6539  10.195  29.908   1.643
39757W        W 6540  20.737  17.646   2.331
39758W        W 6541  13.750  36.082   1.733
39759W        W 6542  36.393  10.912   0.320
39760W        W 6543  44.343  29.737   4.250
39761W        W 6544  36.431  11.552   2.648
39762W        W 6545  21.672  14.432   2.601
39763W        W 6546   5.337  31.381   2.699
39764W        W 6547  25.323  38.097  14.582
39765W        W 6548  36.497  24.599   0.489
39766W        W 6549  23.280  44.330  11.665
39767W        W 6550   4.364  21.695   3.407
39768W        W 6551  24.763  37.812  10.453
39769W        W 6552   2.247  29.078   1.293
39770W        W 6553   9.633  40.612   1.722
39771W        W 6554  37.285  37.870   3.179
39772W        W 6555  31.728  35.210  11.538
39773W        W 6556  38.885  40.528   0.331
39774W        W 6557  12.795  36.065  14.541
39775W        W 6558  38.957  43.840   2.449
39776W        W 6559  18.006  24.420   0.470
39777W        W 6560  17.209  14.090  12.598
39778W        W 6561  42.561  23.226   3.325
39779W        W 6562  44.807  29.520   4.644
39780W        W 6563   2.642   4.212   2.712
39781W        W 6564  29.187  24.487  11.503
39782W        W 6565   8.772  35.897  14.711
39783W        W 6566   0.905  33.989   0.952
39784W        W 6567  33.870  29.460  11.867
39785W        W 6568  25.052  18.009   3.812
39786W        W 6569  40.273  25.124  12.008
39787W        W 6570  32.506  23.929  10.821
39788W        W 6571  41.045  21.233   3.233
39789W        W 6572   5.460  37.087  11.140
39790W        W 6573   3.352  30.550   1.020
39791W        W 6574   2.439   9.667  10.723
39792W        W 6575   7.941  37.145   1.790
39793W        W 6576  33.250  40.740  14.913
39794W        W 6577   6.142  14.806  14.106
39795W        W 6578  24.836  29.441  10.067
39796W        W 6579  25.682  43.881   0.433
39797W        W 6580  34.795  44.975  14.064
39798W        W 6581   1.756   5.290  14.985
39799W        W 6582  20.934  36.602  14.816
39800W        W 6583  40.580   9.815   2.724
39801W        W 6584  26.234  25.037   2.125
39802W        W 6585  39.494  23.900  14.975
39803W        W 6586  10.362  36.294   4.814
39804W        W 6587   9.404  26.251  11.650
39805W        W 6588  29.734  10.597  13.400
39806W        W 6589  30.677  12.615   2.759
39807W        W 6590  38.068  25.548  13.832
39808W        W 6591  11.200  29.125  12.001
39809W        W 6592  10.089  21.168   2.286
39810W        W 6593  35.607  44.562   1.351
39811W        W 6594  28.020  31.034  14.485
39812W        W 6595  18.613  33.451  13.342
39813W        W 6596  43.904  19.038   0.426
39814W        W 6597  23.818  37.799   4.873
39815W        W 6598  23.231  32.196   1.945
39816W        W 6599  15.223  24.939  10.798
39817W        W 6600  23.858  22.131  11.988
39818W        W 6601  42.885  35.098  12.607
39819W        W 6602  28.047  37.655  10.548
39820W        W 6603  30.451  14.568  14.212
39821W        W 6604  32.150   5.041   2.538
39822W        W 6605   6.187  32.251  11.566
39823W        W 6606  21.315   8.908   3.131
39824W        W 6607  39.551  21.704   2.372
39825W        W 6608  27.766  25.379  12.157
39826W        W 6609   1.489   6.850  13.426
39827W        W 6610  16.277  41.388  10.529
39828W        W 6611   1.538   1.978   3.145
39829W        W 6612   0.309   7.281  11.553
39830W        W 6613  18.498  36.439  10.482
39831W        W 6614  32.024  42.327   1.340
39832W        W 6615  31.576  12.607  14.200
39833W        W 6616  29.962  42.397   0.717
39834W        W 6617  22.162  42.094  12.445
39835W        W 6618  26.743   6.675  14.461
39836W        W 6619  29.437  25.390   4.552
39837W        W 6620  30.996  25.546  10.498
39838W        W 6621  19.119  40.864   2.273
39839W        W 6622  44.509   2.032   2.627
39840W        W 6623   2.460  11.373  13.409
39841W        W 6624  38.087  28.615  11.981
39842W        W 6625  32.587  16.007  12.742
39843W        W 6626   1.103  22.321   2.238
39844W        W 6627  15.629  34.835   4.351
39845W        W 6628  30.820  10.704  12.868
39846W        W 6629   1.863   8.477   0.064
39847W        W 6630  29.828  44.330  12.119
39848W        W 6631  38.038  44.558  13.738
39849W        W 6632   7.947   0.426  11.312
39850W        W 6633   9.719  15.272  13.988
39851W        W 6634  19.747   3.975   3.469
39852W        W 6635  32.608  14.812   2.271
39853W        W 6636  26.449  35.384  12.008
39854W        W 6637  40.101  34.509   0.328
39855W        W 6638  37.625  22.647   3.224
39856W        W 6639  39.509  28.070   0.250
39857W        W 6640  40.886  23.573   3.172
39858W        W 6641  11.195  36.544  14.814
39859W        W 6642  14.187   7.174  13.494
39860W        W 6643  31.426  40.925  11.194
39861W        W 6644  14.552   7.858  11.707
39862W        W 6645  43.341  18.443  10.691
39863W        W 6646   1.042   6.974   3.761
39864W        W 6647  28.524  16.233  14.497
39865W        W 6648  16.689  10.801  11.906
39866W        W 6649  41.407  40.116   4.137
39867W        W 6650  33.025  39.994   4.965
39868W        W 6651  28.041  36.520  13.412
39869W        W 6652   5.643  43.431  11.200
39870W        W 6653  35.502   4.078   3.274
39871W        W 6654  38.539  33.285  10.633
39872W        W 6655   6.784  17.095   1.859
39873W        W 6656  12.294  19.365   2.376
39874W        W 6657  18.772  13.476   5.411
39875W        W 6658   8.150  27.125   0.824
39876W        W 6659   7.488  40.562  11.085
39877W        W 6660  34.443  10.362  12.004
39878W        W 6661   1.560  30.412  14.186
39879W        W 6662  14.191  20.520  11.415
39880W        W 6663  21.758  33.836  12.865
39881W        W 6664  23.622  24.689  12.307
39882W        W 6665  36.961  38.372   4.569
39883W        W 6666  33.329  25.773   3.201
39884W        W 6667  35.281  17.552   1.016
39885W        W 6668  19.703  22.787   3.292
39886W        W 6669  38.511   8.559  14.480
39887W        W 6670  21.626  16.866   1.177
39888W        W 6671   4.284  22.677   3.754
39889W        W 6672   3.669   4.854   2.391
39890W        W 6673  25.935  19.221  11.189
39891W        W 6674  28.024   9.721  14.964
39892W        W 6675  31.663  12.259  12.491
39893W        W 6676  12.696  18.341   2.332
39894W        W 6677   2.977  34.368   4.635
39895W        W 6678  26.291  37.368   4.348
39896W        W 6679  23.535  11.624   0.409
39897W        W 6680   6.621  33.458   2.027
39898W        W 6681  24.029   7.795   4.150
39899W        W 6682  32.542  23.023  12.790
39900W        W 6683  35.055  17.233   1.960
39901W        W 6684  19.010  32.519   1.402
39902W        W 6685  41.427   4.305  14.700
39903W        W 6686  35.300  13.319  11.406
39904W        W 6687  33.997  36.028   0.184
39905W        W 6688   9.456   8.844   4.066
39906W        W 6689   1.449  44.018   1.347
39907W        W 6690   0.053  25.835  14.939
39908W        W 6691   0.217   4.293  14.830
39909W        W 6692   8.213  24.550   2.272
39910W        W 6693  26.903   5.025   3.338
39911W        W 6694  17.566  22.697   3.834
39912W        W 6695   3.452   5.030   5.209
39913W        W 6696  23.961   9.175  11.117
39914W        W 6697  22.185  36.382  12.822
39915W        W 6698  38.389  32.374   2.119
39916W        W 6699  14.179  13.055  13.185
39917W        W 6700  42.457  21.221   2.247
39918W        W 6701   6.026  34.737   0.408
39919W        W 6702  27.713  32.957   0.954
39920W        W 6703  13.061  34.317  13.328
39921W        W 6704  15.651   5.912  13.046
39922W        W 6705  11.999  14.101  13.037
39923W        W 6706   8.281  33.948   3.093
39924W        W 6707  17.576  27.832  14.606
39925W        W 6708  14.261  28.564  14.932
39926W        W 6709  32.598  13.260  12.168
39927W        W 6710  25.158  35.343  13.440
39928W        W 6711  38.169  24.648  14.418
39929W        W 6712  29.390   4.345  13.944
39930W        W 6713  22.282  12.084  11.737
39931W        W 6714  20.293  41.499   3.680
39932W        W 6715  24.516   9.188  10.628
39933W        W 6716   2.666  18.046   4.452
39934W        W 6717  35.974  37.168  11.702
39935W        W 6718   3.934   0.326   3.556
39936W        W 6719  13.064  31.524  12.048
39937W        W 6720  29.329  42.397   0.102
39938W        W 6721  35.588  21.225   3.053
39939W        W 6722  21.107  35.411  12.683
39940W        W 6723   6.240  24.459   0.900
39941W        W 6724  23.894  27.258   4.178
39942W        W 6725  23.121  34.844  11.524
39943W        W 6726  12.873  14.046  10.600
39944W        W 6727  41.112   3.661   2.788
39945W        W 6728  42.396  17.910   0.299
39946W        W 6729  28.477   1.533   4.585
39947W        W 6730  17.501  37.808   5.044
39948W        W 6731   5.152  17.185  12.962
39949W        W 6732  33.824  19.379   5.098
39950W        W 6733  31.574  35.597  13.502
39951W        W 6734   6.818  10.847  12.992
39952W        W 6735  26.229  12.319   4.275
39953W        W 6736  44.848   2.286  12.457
39954W        W 6737  16.751   7.355  12.844
39955W        W 6738  39.405  11.298   1.277
39956W        W 6739   2.096  40.480  14.636
39957W        W 6740   9.327   4.972   3.236
39958W        W 6741   4.956   7.107   3.336
39959W        W 6742  33.094  21.730   3.293
39960W        W 6743  42.031  15.362   5.116
39961W        W 6744  10.622  24.105   4.617
39962W        W 6745   0.667  23.678  12.052
39963W        W 6746  32.647   0.765  11.745
39964W        W 6747  17.801  28.826   2.399
39965W        W 6748  33.536  44.398   0.900
39966W        W 6749   8.283  44.451   2.252
39967W        W 6750  14.232  11.277   0.295
39968W        W 6751   3.658  33.167  12.907
39969W        W 6752  17.043  17.596   0.301
39970W        W 6753   7.812  32.534   2.216
39971W        W 6754  35.064  44.471   2.897
39972W        W 6755  37.270  13.918   2.262
39973W        W 6756  29.581   1.724   2.286
39974W        W 6757  36.969   0.986  13.277
39975W        W 6758  30.178   2.233  14.885
39976W        W 6759  32.070   8.798   0.751
39977W        W 6760  14.534   7.339   3.427
39978W        W 6761   1.774  23.600  14.731
39979W        W 6762  23.266  21.677  10.742
39980W        W 6763  33.480  28.148  13.741
39981W        W 6764   0.837   4.783   2.701
39982W        W 6765  10.420  10.698  11.307
39983W        W 6766   8.887  19.359   4.357
39984W        W 6767  17.754  23.152   1.302
39985W        W 6768  12.568  30.903  10.746
39986W        W 6769  11.082   1.682   0.769
39987W        W 6770  16.070  27.381  11.946
39988W        W 6771  25.980  32.470   4.750
39989W        W 6772  32.579  34.593   3.743
39990W        W 6773  36.487  40.369  10.760
39991W        W 6774  42.215  30.655  13.630
39992W        W 6775   3.881  43.071   3.669
39993W        W 6776  38.886  23.769  13.887
39994W        W 6777  27.676  44.816  14.935
39995W        W 6778  24.035  42.896   3.311
39996W        W 6779   7.826   6.520  14.313
39997W        W 6780  21.476   5.892  11.533
39998W        W 6781  16.690   6.396  13.791
39999W        W 6782  22.271   4.301  10.740
40000W        W 6783  18.251  18.612  12.362
40001W        W 6784  40.980  33.080   0.292
40002W        W 6785  19.111  33.517   2.466
40003W        W 6786  31.472  29.758   1.851
40004W        W 6787  36.825  29.493   1.808
40005W        W 6788  24.164   4.848   4.487
40006W        W 6789  35.936  26.390   1.263
40007W        W 6790  40.793  34.900  14.978
40008W        W 6791  28.087  37.596  11.084
40009W        W 6792  41.709   6.208  11.804
40010W        W 6793   6.421   5.349  13.947
40011W        W 6794  27.031   0.837  12.676
40012W        W 6795  16.750  31.214  12.354
40013W        W 6796  15.314  20.131   1.665
40014W        W 6797  44.254  10.605   0.361
40015W        W 6798  14.693  10.292  13.941
40016W        W 6799  16.497  13.891  13.312
40017W        W 6800  19.246   5.269  13.059
40018W        W 6801  35.960  10.847  14.841
40019W        W 6802   5.988  27.015  14.558
40020W        W 6803  37.483  19.567  12.368
40021W        W 6804  39.428  14.257   2.731
40022W        W 6805  28.951  38.834  13.175
40023W        W 6806  16.717  33.513   0.310
40024W        W 6807   7.837  41.287  10.729
40025W        W 6808  28.446  25.495  14.427
40026W        W 6809   9.824  22.516   4.956
40027W        W 6810  43.123  22.448   5.234
40028W        W 6811  15.138   8.060   3.296
40029W        W 6812  35.197   3.585   0.060
40030W        W 6813  15.079  43.489  13.634
40031W        W 6814  35.046  28.647   1.821
40032W        W 6815  28.554  32.508  11.614
40033W        W 6816   4.764  13.370  13.881
40034W        W 6817  11.204  26.249   2.855
40035W        W 6818   9.354  34.048   1.641
40036W        W 6819  22.177  20.756   0.594
40037W        W 6820  14.070  44.831  14.989
40038W        W 6821  12.259  40.423   2.444
40039W        W 6822  27.205  32.965   0.825
40040W        W 6823  44.293  42.056  11.440
40041W        W 6824  17.751  31.651  12.468
40042W        W 6825  34.823   3.482  13.991
40043W        W 6826   5.392  36.876   3.203
40044W        W 6827  21.475  16.529  14.338
40045W        W 6828  15.745   2.001   2.147
40046W        W 6829  35.633  44.214  13.198
40047W        W 6830   4.174  44.993  13.253
40048W        W 6831  28.875  21.078   1.803
40049W        W 6832  20.041   0.250  14.422
40050W        W 6833   8.050  34.137   0.340
40051W        W 6834  29.122  20.576  10.566
40052W        W 6835  35.894  29.070   4.506
40053W        W 6836  25.723  20.778  13.812
40054W        W 6837  39.022  11.389  11.119
40055W        W 6838  39.435  24.176  12.638
40056W        W 6839   7.752  21.710   2.559
40057W        W 6840  21.239  19.007   1.767
40058W        W 6841  29.076  38.582  12.165
40059W        W 6842  36.402  34.188   3.747
40060W        W 6843  28.534  19.661  13.556
40061W        W 6844  35.548   3.576   3.310
40062W        W 6845  20.568  33.111  12.417
40063W        W 6846  14.298  30.110   3.301
40064W        W 6847  23.448  31.379  14.966
40065W        W 6848  20.309  36.853   2.023
40066W        W 6849  44.912  44.173  10.950
40067W        W 6850  37.880  20.798  12.792
40068W        W 6851  26.245   4.441  13.355
40069W        W 6852  21.554   9.701   4.950
40070W        W 6853   7.689  23.088  11.656
40071W        W 6854  33.016  27.943  13.907
40072W        W 6855  38.716  39.245   1.324
40073W        W 6856  19.633   8.251   1.298
40074W        W 6857  31.525   2.526  14.807
40075W        W 6858  38.584  19.215   2.451
40076W        W 6859  20.990  17.097   1.721
40077W        W 6860  42.782   0.002  11.054
40078W        W 6861  38.758  31.914   4.523
40079W        W 6862  32.133  14.660   2.123
40080W        W 6863  39.674  35.615   0.419
40081W        W 6864   0.787   7.373  11.409
40082W        W 6865   2.757  13.154   3.890
40083W        W 6866  30.979  15.776   0.480
40084W        W 6867  36.999  44.217   0.294
40085W        W 6868  40.939  26.365  10.770
40086W        W 6869   9.423   5.282   3.660
40087W        W 6870  13.301  16.071  11.274
40088W        W 6871  35.078   1.399   2.771
40089W        W 6872  34.361  39.561   2.451
40090W        W 6873  17.657  34.805  11.072
40091W        W 6874  41.814   5.753  14.375
40092W        W 6875  37.926  25.917  12.725
40093W        W 6876  25.059  21.522   4.541
40094W        W 6877  42.163  21.519   0.707
40095W        W 6878  39.614   2.930  11.945
40096W        W 6879  33.531  39.753   2.913
40097W        W 6880  31.216  33.537  10.341
40098W        W 6881  13.651  29.899   1.660
40099W        W 6882  15.046  27.637  11.144
40100W        W 6883  33.623  41.505  11.949
40101W        W 6884  23.993  20.769   4.336
40102W        W 6885  27.225  36.364   1.659
40103W        W 6886   1.927  10.208   2.077
40104W        W 6887   4.903  37.832   0.889
40105W        W 6888   5.755  14.850  14.452
40106W        W 6889   2.497  33.173  13.343
40107W        W 6890  18.675  29.723  11.074
40108W        W 6891  32.832   6.488  12.233
40109W        W 6892  43.085  27.537   0.876
40110W        W 6893  19.558  32.409  10.719
40111W        W 6894  28.697  35.013   4.125
40112W        W 6895  39.481  32.148   1.443
40113W        W 6896   3.229  20.153  13.477
40114W        W 6897  13.416  34.329  13.900
40115W        W 6898  44.978  25.553   4.070
40116W        W 6899  40.523  13.090   2.656
40117W        W 6900  24.199  31.154   1.961
40118W        W 6901   7.000  22.529  13.998
40119W        W 6902  16.144  36.502   3.644
40120W        W 6903  22.452  30.081   9.994
40121W        W 6904  16.312  23.797   3.114
40122W        W 6905  15.338  36.193   1.026
40123W        W 6906  29.091  43.221   3.284
40124W        W 6907  27.243   7.420   0.841
40125W        W 6908  31.999  23.269   0.542
40126W        W 6909  40.931   6.380   4.452
40127W        W 6910  22.267  14.042   4.386
40128W        W 6911  16.546  38.843  11.451
40129W        W 6912   2.725   6.920  10.643
40130W        W 6913  11.929  37.947   2.680
40131W        W 6914  21.198  42.188   3.835
40132W        W 6915  11.502  17.069  14.533
40133W        W 6916   2.896   0.289   4.562
40134W        W 6917  39.361  20.695   4.383
40135W        W 6918  35.713  11.497  11.522
40136W        W 6919  37.617  11.228  13.512
40137W        W 6920  42.897  23.784   4.811
40138W        W 6921   0.358  30.576   3.461
40139W        W 6922  31.928   8.419   4.449
40140W        W 6923  36.362  42.713  12.604
40141W        W 6924   4.668  17.879  11.974
40142W        W 6925  12.645  43.798   3.593
40143W        W 6926  32.721  40.371   3.152
40144W        W 6927   8.370  38.238  14.963
40145W        W 6928  16.801   8.617  13.053
40146W        W 6929   7.551  34.830  14.321
40147W        W 6930  12.842  28.822  11.612
40148W        W 6931   4.704  44.525   1.805
40149W        W 6932  25.530  19.037   2.630
40150W        W 6933  37.047  23.432  13.448
40151W        W 6934  23.235  37.969  10.462
40152W        W 6935  28.047  44.744  11.387
40153W        W 6936  42.775  30.035  13.103
40154W        W 6937  30.597  12.922  13.847
40155W        W 6938  31.235  30.724   2.256
40156W        W 6939  40.558   0.791  12.380
40157W        W 6940   2.776   1.552   1.637
40158W        W 6941   1.416  23.216  14.199
40159W        W 6942   1.556  38.094  13.438
40160W        W 6943   1.318   8.208   4.111
40161W        W 6944  34.050  25.026  12.472
40162W        W 6945  28.506  19.015   3.266
40163W        W 6946  25.460  27.785   1.965
40164W        W 6947  15.760   2.246  12.491
40165W        W 6948  23.108  41.758   0.041
40166W        W 6949  25.707  42.432   2.639
40167W        W 6950  21.780   6.357   3.188
40168W        W 6951   3.672  28.674   1.807
40169W        W 6952  38.010  27.428  11.601
40170W        W 6953   8.713  23.227   1.220
40171W        W 6954  27.205  19.471  13.813
40172W        W 6955  15.857  34.567   0.793
40173W        W 6956  15.215  11.740   2.775
40174W        W 6957   9.102  32.959  13.465
40175W        W 6958  31.727  38.362  10.650
40176W        W 6959  38.528  41.086   0.804
40177W        W 6960  16.280  17.867   1.918
40178W        W 6961   2.296  10.318   3.767
40179W        W 6962  20.594  26.696  12.563
40180W        W 6963  42.948   3.392   3.429
40181W        W 6964  22.946  10.831   1.796
40182W        W 6965   5.232  33.154   0.783
40183W        W 6966   2.633  14.179  11.126
40184W        W 6967  27.576  33.664   0.408
40185W        W 6968  19.713   5.136  11.208
40186W        W 6969  24.902   7.385  14.482
40187W        W 6970  36.541  42.923  12.026
40188W        W 6971  36.088   5.798   5.206
40189W        W 6972  14.929   2.961   1.744
40190W        W 6973  36.188  30.185   2.322
40191W        W 6974   9.865  25.462   1.218
40192W        W 6975  44.555  23.110  13.427
40193W        W 6976  18.974  16.355  11.840
40194W        W 6977  35.317  16.296  13.297
40195W        W 6978  20.671   7.756   3.101
40196W        W 6979   8.106   4.182  13.242
40197W        W 6980  22.905  30.297  12.535
40198W        W 6981  17.813  18.101   2.656
40199W        W 6982  44.900  19.256   2.213
40200W        W 6983  31.864  38.641   1.875
40201W        W 6984  29.929  33.538  14.865
40202W        W 6985  20.938  14.504  14.727
40203W        W 6986  31.974  11.384   3.662
40204W        W 6987  33.847   4.260  13.776
40205W        W 6988  31.947  25.163  13.228
40206W        W 6989   2.761  36.151  14.094
40207W        W 6990  17.655  18.607   1.850
40208W        W 6991   8.605   9.182   2.574
40209W        W 6992  15.824   9.331   1.790
40210W        W 6993  37.792  17.417   3.177
40211W        W 6994  40.923   2.789   4.084
40212W        W 6995   5.971  11.479   0.228
40213W        W 6996  20.347  25.672   1.532
40214W        W 6997   9.756  15.796  11.635
40215W        W 6998  26.334  19.449   4.249
40216W        W 6999  17.714  17.608   3.523
40217W        W 7000  35.103  34.631  12.924
40218W        W 7001  12.672  26.433  13.273
40219W        W 7002   2.664  19.788   1.254
40220W        W 7003  28.963  15.354   0.831
40221W        W 7004  18.665   1.894  12.574
40222W        W 7005  16.901  36.958   3.641
40223W        W 7006  28.535  26.931  10.738
40224W        W 7007  19.125  38.900   0.284
40225W        W 7008  37.689   6.302  11.561
40226W        W 7009  19.811   2.880  12.007
40227W        W 7010  11.605   9.691   4.916
40228W        W 7011  44.417  13.601  12.050
40229W        W 7012   5.206   9.866   4.691
40230W        W 7013  18.789  10.659  12.677
40231W        W 7014  24.847  30.986  12.658
40232W        W 7015   1.705  41.082   0.829
40233W        W 7016   1.931  34.465  12.922
40234W        W 7017  40.981  31.077  13.085
40235W        W 7018  33.798  13.237  12.493
40236W        W 7019  36.234  11.450  14.376
40237W        W 7020  41.374  15.524  14.583
40238W        W 7021  13.703  18.017  11.604
40239W        W 7022  34.342  28.203   3.204
40240W        W 7023  32.548  13.128  12.662
40241W        W 7024  34.447  23.556  14.119
40242W        W 7025  25.180  34.436   3.008
40243W        W 7026  33.969  15.147   4.210
40244W        W 7027  38.246   3.245  13.814
40245W        W 7028  23.150  26.658   1.159
40246W        W 7029   0.217  31.301   2.740
40247W        W 7030   9.205  27.498  12.344
40248W        W 7031   4.404  39.473  13.986
40249W        W 7032  13.808  10.209   1.052
40250W        W 7033  14.560  16.705  12.649
40251W        W 7034  40.752  41.410   1.419
40252W        W 7035  10.144  22.730  12.526
40253W        W 7036  24.734   2.193   4.592
40254W        W 7037  11.708  42.142   3.630
40255W        W 7038  41.285  21.667   3.611
40256W        W 7039  11.286  11.743   2.132
40257W        W 7040  10.344  39.199   3.250
40258W        W 7041  31.611  23.703  13.464
40259W        W 7042  31.997  36.581   3.643
40260W        W 7043   9.444  19.717  10.630
40261W        W 7044  25.741  43.292   2.249
40262W        W 7045  15.669  35.593  14.734
40263W        W 7046   4.220  26.286   2.901
40264W        W 7047  13.177  24.884   1.668
40265W        W 7048   6.706   3.117   4.209
40266W        W 7049   4.309  40.101  14.520
40267W        W 7050   4.987  42.030   2.382
40268W        W 7051  19.943  14.905  12.867
40269W        W 7052   9.870  22.030  12.494
40270W        W 7053  35.544  19.816   1.751
40271W        W 7054  11.749  20.200   3.379
40272W        W 7055   0.462  37.317   3.694
40273W        W 7056   2.018  32.641   0.763
40274W        W 7057  21.078   1.862  11.743
40275W        W 7058  44.902  11.891  14.991
40276W        W 7059   4.948  20.199  11.591
40277W        W 7060   5.650  17.126  12.021
40278W        W 7061  38.816  29.610  13.464
40279W        W 7062  29.067  29.826   3.639
40280W        W 7063  32.999  31.080   2.100
40281W        W 7064  40.948   6.584   0.737
40282W        W 7065  29.188   0.340   3.230
40283W        W 7066  22.083  21.001  11.636
40284W        W 7067  37.608   6.208  12.980
40285W        W 7068   3.295   2.856   2.302
40286W        W 7069  28.610   6.489   2.461
40287W        W 7070  12.673  12.721  11.949
40288W        W 7071  27.467  43.621  13.064
40289W        W 7072  23.679  12.702  13.670
40290W        W 7073  12.849   5.611  13.374
40291W        W 7074  27.735  22.844  14.465
40292W        W 7075  37.762  33.987   4.710
40293W        W 7076  38.817  24.909   2.336
40294W        W 7077  19.098  27.447   1.401
40295W        W 7078   6.513   9.161  13.057
40296W        W 7079   4.446  44.333   0.807
40297W        W 7080  16.945   6.174  12.542
40298W        W 7081   3.628  17.142   3.863
40299W        W 7082  10.685  39.775  13.093
40300W        W 7083   7.828   4.274   3.697
40301W        W 7084  44.566  14.577   3.120
40302W        W 7085  13.068   4.557   3.688
40303W        W 7086   1.648   3.815   4.124
40304W        W 7087  35.535  36.118  11.547
40305W        W 7088  11.614   3.497  12.899
40306W        W 7089   7.071  22.797  13.540
40307W        W 7090  44.536  35.005   0.296
40308W        W 7091  19.386  22.081   3.531
40309W        W 7092  33.817  20.646   2.881
40310W        W 7093  23.710  41.661   3.599
40311W        W 7094  25.755  25.572  11.641
40312W        W 7095  25.805  13.335   4.031
40313W        W 7096  28.755   6.268  13.912
40314W        W 7097   5.060  18.507  11.526
40315W        W 7098  36.400  22.478  11.070
40316W        W 7099  44.435  43.564   0.229
40317W        W 7100  18.368  39.485   1.410
40318W        W 7101  35.296  35.504  10.757
40319W        W 7102  14.445  25.502   2.508
40320W        W 7103   8.534  42.864   1.321
40321W        W 7104  15.382   2.888   5.036
40322W        W 7105  44.429   3.839  11.017
40323W        W 7106  38.282  11.197   4.219
40324W        W 7107   4.394  20.269  12.446
40325W        W 7108   4.557  10.369   4.776
40326W        W 7109   0.697  17.699   1.639
40327W        W 7110   0.652  18.837   1.855
40328W        W 7111  19.377  28.563  13.136
40329W        W 7112  18.617   7.846  13.941
40330W        W 7113  11.343  11.147   1.258
40331W        W 7114  17.187   8.416   4.973
40332W        W 7115  27.289  22.125  14.947
40333W        W 7116  31.554  43.549  14.953
40334W        W 7117  36.969   3.423   3.239
40335W        W 7118   9.680  13.501   4.562
40336W        W 7119  12.844  15.688   3.443
40337W        W 7120   3.545  16.217   3.296
40338W        W 7121   4.413  39.430   0.851
40339W        W 7122  27.601  31.684  11.074
40340W        W 7123  24.750  24.875  11.205
40341W        W 7124  24.543  10.463   4.430
40342W        W 7125  21.574  17.599   4.678
40343W        W 7126  29.115  13.155   3.541
40344W        W 7127  38.012  44.435  12.468
40345W        W 7128  36.239  30.578  12.580
40346W        W 7129  27.180  26.311   5.289
40347W        W 7130  42.064  41.989   3.349
40348W        W 7131   4.710  19.423   4.069
40349W        W 7132   0.487  42.484  12.952
40350W        W 7133  24.542  22.928  13.228
40351W        W 7134  31.096   9.646   2.499
40352W        W 7135  17.684  21.962   4.183
40353W        W 7136  20.218  40.845   2.309
40354W        W 7137  30.726  20.051   2.667
40355W        W 7138   8.975  31.715  11.564
40356W        W 7139  20.549  25.961  13.820
40357W        W 7140  37.121  36.077   2.795
40358W        W 7141  20.792   2.576   2.822
40359W        W 7142  35.879  21.250   0.818
40360W        W 7143  29.027  30.558  11.763
40361W        W 7144  33.271  34.643  12.484
40362W        W 7145  18.196  38.105  11.133
40363W        W 7146  23.572  23.655   2.898
40364W        W 7147  38.772  36.881  13.351
40365W        W 7148  41.915   0.597  14.479
40366W        W 7149  14.819  27.380  12.600
40367W        W 7150  19.423  30.068  12.548
40368W        W 7151  44.875  13.383   4.213
40369W        W 7152  17.822   8.465  14.063
40370W        W 7153  44.376  40.800   0.297
40371W        W 7154   2.862  43.264   4.239
40372W        W 7155  12.083  15.750   3.331
40373W        W 7156  21.858  11.980  12.231
40374W        W 7157  30.945  34.990  10.458
40375W        W 7158   8.250  37.917   4.777
40376W        W 7159  12.023  18.023  13.564
40377W        W 7160   4.251  19.127  11.320
40378W        W 7161  34.674  22.601   1.882
40379W        W 7162   0.768  12.283   1.335
40380W        W 7163  16.681  30.520  10.422
40381W        W 7164  10.705  28.158   2.140
40382W        W 7165  33.180  29.727   2.749
40383W        W 7166   3.981   7.728   4.808
40384W        W 7167  32.025  11.896  11.048
40385W        W 7168  21.952   1.811  11.408
40386W        W 7169  41.125  15.076   1.320
40387W        W 7170  16.731  44.923   1.713
40388W        W 7171  38.040   3.682   3.612
40389W        W 7172   8.905  32.073  13.036
40390W        W 7173  25.645   3.903  14.905
40391W        W 7174  17.767  25.300   3.146
40392W        W 7175  41.069  35.328  13.916
40393W        W 7176  26.673   5.176  14.589
40394W        W 7177  31.460  10.044   4.186
40395W        W 7178  36.491  11.972   0.199
40396W        W 7179  15.976  32.010   2.333
40397W        W 7180   7.855   0.311   2.622
40398W        W 7181   6.296   8.119  13.781
40399W        W 7182   7.656  19.089  11.582
40400W        W 7183  39.567  18.754  12.774
40401W        W 7184  31.551  36.359  12.175
40402W        W 7185  26.652  35.300  11.521
40403W        W 7186  36.012  43.830   4.732
40404W        W 7187  29.595  30.102  13.840
40405W        W 7188  16.756  37.837   0.063
40406W        W 7189   4.866  27.205  14.531
40407W        W 7190  41.980  23.168   2.340
40408W        W 7191  22.250  44.734  10.329
40409W        W 7192  36.003   7.454   0.877
40410W        W 7193  36.981  34.118  12.411
40411W        W 7194  33.398  25.986  11.256
40412W        W 7195  34.046  32.004   1.933
40413W        W 7196   2.760   1.326   2.696
40414W        W 7197   3.826  20.960   0.679
40415W        W 7198  28.999  12.442  12.904
40416W        W 7199  12.782  21.590   2.298
40417W        W 7200   8.408  44.416  12.200
40418W        W 7201  18.250  26.459  14.749
40419W        W 7202  21.635  16.134  12.087
40420W        W 7203   4.709   2.356  13.857
40421W        W 7204  26.624  44.405   4.361
40422W        W 7205  39.749  35.597  14.497
40423W        W 7206   7.158  35.443   0.679
40424W        W 7207  28.855   0.442  10.736
40425W        W 7208  34.084  44.486  11.774
40426W        W 7209  12.824  16.159   0.030
40427W        W 7210  16.018  31.100   4.140
40428W        W 7211  21.402  43.818  11.270
40429W        W 7212   4.246   2.165  14.059
40430W        W 7213   2.733  41.564   5.078
40431W        W 7214  39.471  30.964  10.775
40432W        W 7215  28.014  24.700  14.403
40433W        W 7216   3.329  20.004  14.931
40434W        W 7217  29.051  29.050   2.223
40435W        W 7218  37.391  41.285   1.463
40436W        W 7219  42.990  30.117  14.128
40437W        W 7220  26.417  42.535  11.732
40438W        W 7221   6.613  31.098  14.899
40439W        W 7222  35.069  38.990  12.685
40440W        W 7223  20.775  20.081  11.584
40441W        W 7224  12.159  42.316  11.008
40442W        W 7225  44.617   5.806  13.177
40443W        W 7226   8.751  22.223  14.385
40444W        W 7227  20.755  39.920  14.389
40445W        W 7228  37.143   5.462  11.509
40446W        W 7229  13.734   1.789   4.690
40447W        W 7230  11.707  41.252  12.924
40448W        W 7231  26.870  16.692  14.880
40449W        W 7232  30.850   8.354   3.609
40450W        W 7233  44.920  11.744   0.498
40451W        W 7234  26.992   1.184   3.068
40452W        W 7235  12.613   1.851   2.444
40453W        W 7236  29.623  37.779  11.839
40454W        W 7237  27.012  41.393  11.344
40455W        W 7238   5.704   9.100  11.139
40456W        W 7239  33.922   0.719  12.468
40457W        W 7240  28.409  39.356  14.286
40458W        W 7241  34.516   9.836  12.878
40459W        W 7242  41.686  40.005  13.593
40460W        W 7243   7.983  22.510  14.353
40461W        W 7244  23.198  29.708   4.547
40462W        W 7245   7.936  16.085  12.535
40463W        W 7246  10.913  28.650  12.848
40464W        W 7247  14.156   4.709   3.203
40465W        W 7248  19.280  42.334  11.469
40466W        W 7249  32.498  19.473   4.581
40467W        W 7250   8.238  40.621  11.652
40468W        W 7251  11.229  26.099  11.503
40469W        W 7252  42.376  42.032   0.485
40470W        W 7253   5.204  29.009   3.245
40471W        W 7254   3.183  28.624  13.341
40472W        W 7255   0.629  19.573  11.533
40473W        W 7256  11.519   9.224  11.945
40474W        W 7257  39.409  29.302  11.907
40475W        W 7258  16.623   3.196  13.311
40476W        W 7259   0.205  30.787   1.324
40477W        W 7260  20.966  13.944   3.849
40478W        W 7261  30.529   1.923  13.753
40479W        W 7262   2.680  13.700  13.014
40480W        W 7263   6.785  12.389   4.754
40481W        W 7264  20.129  39.276  14.923
40482W        W 7265   3.898  13.328   0.765
40483W        W 7266  43.509  17.039   4.941
40484W        W 7267  37.660  22.164  13.012
40485W        W 7268   3.847  29.498   2.397
40486W        W 7269   2.876   8.022   4.057
40487W        W 7270  27.860  34.960  11.887
40488W        W 7271  17.228   0.364   3.585
40489W        W 7272  29.939   7.925   2.253
40490W        W 7273  32.050   9.924   2.336
40491W        W 7274  13.444  10.681   4.551
40492W        W 7275  40.076  18.102   2.462
40493W        W 7276  22.297  37.864   0.473
40494W        W 7277  43.803  11.318   4.620
40495W        W 7278  15.233  42.366   4.350
40496W        W 7279   4.311   7.129  11.934
40497W        W 7280  41.797  44.896  13.688
40498W        W 7281   2.330  33.568  14.707
40499W        W 7282   3.809   8.350   0.878
40500W        W 7283  23.558  25.800   2.231
40501W        W 7284  38.570  37.157   0.431
40502W        W 7285  42.794   8.159   0.895
40503W        W 7286  17.889   0.346  13.076
40504W        W 7287  29.217  34.459   1.340
40505W        W 7288  22.070  13.628   2.329
40506W        W 7289   9.131  38.554  12.115
40507W        W 7290  21.771  31.761  12.987
40508W        W 7291   5.650  32.080   4.675
40509W        W 7292   9.252   7.332  11.691
40510W        W 7293  41.297  29.840   0.386
40511W        W 7294  42.319  28.569   1.867
40512W        W 7295  32.158  39.277   2.094
40513W        W 7296   4.281  34.943   2.848
40514W        W 7297  42.459   4.622   3.630
40515W        W 7298  28.682  41.947  13.933
40516W        W 7299   0.612  17.213  10.881
40517W        W 7300  28.229  20.537  13.020
40518W        W 7301  44.344   0.489   2.938
40519W        W 7302  44.152  27.611   0.879
40520W        W 7303  11.800   3.949   2.832
40521W        W 7304   6.340  36.398  13.502
40522W        W 7305   2.465  16.860   4.107
40523W        W 7306   4.392  40.512   3.330
40524W        W 7307  44.504  38.309   0.275
40525W        W 7308  14.065   6.934   2.812
40526W        W 7309  13.339  14.092  11.579
40527W        W 7310  34.026  44.910  14.424
40528W        W 7311  33.450  41.641  11.493
40529W        W 7312  28.948  41.831   4.712
40530W        W 7313  14.613  43.780  13.856
40531W        W 7314  14.584  22.339  11.229
40532W        W 7315  16.665  29.523  12.587
40533W        W 7316  19.668  30.564   0.932
40534W        W 7317  21.571  38.666   3.576
40535W        W 7318  43.600   4.752   1.794
40536W        W 7319  35.261   4.445  12.830
40537W        W 7320   0.105  16.367  11.684
40538W        W 7321   0.832   4.209   3.354
40539W        W 7322   0.178  31.129   0.089
40540W        W 7323   2.315  18.637  10.727
40541W        W 7324  36.775   7.358  13.942
40542W        W 7325   4.631   0.646   4.120
40543W        W 7326  15.369  20.535   3.624
40544W        W 7327  24.548  22.440   1.462
40545W        W 7328  24.961  12.639  13.447
40546W        W 7329   6.838   5.208   3.126
40547W        W 7330  11.233   8.138  14.348
40548W        W 7331  21.025  15.703  13.865
40549W        W 7332   9.545  41.858   0.750
40550W        W 7333  30.131  35.234   1.993
40551W        W 7334   7.573  31.991   2.844
40552W        W 7335  21.685  37.035   1.299
40553W        W 7336  38.216  22.361  11.998
40554W        W 7337  30.789  27.388   2.896
40555W        W 7338  19.223  41.427  12.414
40556W        W 7339  33.070  29.791   3.763
40557W        W 7340  33.472  25.683   2.230
40558W        W 7341  17.201   4.292   2.392
40559W        W 7342  11.855  20.230  10.304
40560W        W 7343  25.961  37.464  10.621
40561W        W 7344   8.472  41.938  13.006
40562W        W 7345  20.521  42.729  11.231
40563W        W 7346  21.968  10.166  10.503
40564W        W 7347   9.781  25.250   2.167
40565W        W 7348  38.989  32.667   0.666
40566W        W 7349  15.377  13.231   3.146
40567W        W 7350  43.358  17.940  12.633
40568W        W 7351   2.435   4.694   0.776
40569W        W 7352  22.084  43.614  12.453
40570W        W 7353  40.857  29.507   3.659
40571W        W 7354  42.903   3.699  12.191
40572W        W 7355  40.006  35.887   3.190
40573W        W 7356  11.450  15.091   3.627
40574W        W 7357  12.122  21.659   3.628
40575W        W 7358  22.210   3.931   0.755
40576W        W 7359  37.332  32.319  14.904
40577W        W 7360  16.125  21.049  12.511
40578W        W 7361  24.144  30.512  12.195
40579W        W 7362   6.750  36.814   4.992
40580W        W 7363  22.557  12.841   2.719
40581W        W 7364  25.855  38.543   2.302
40582W        W 7365  39.557  40.017   4.152
40583W        W 7366  10.363  36.653   4.006
40584W        W 7367  42.226  33.214   4.221
40585W        W 7368  21.085   6.464   2.159
40586W        W 7369  37.873   5.908  12.043
40587W        W 7370  27.104  35.818  11.967
40588W        W 7371  18.993  22.363  14.316
40589W        W 7372   6.149  20.308  10.812
40590W        W 7373   2.482   3.302  11.121
40591W        W 7374  24.750  40.956   1.282
40592W        W 7375   9.833  30.552  10.661
40593W        W 7376  18.774  29.215   2.356
40594W        W 7377   8.604  35.450   0.910
40595W        W 7378  11.386  19.315   4.592
40596W        W 7379  33.064   0.402   1.815
40597W        W 7380   8.957  25.961   0.402
40598W        W 7381   1.360  11.879  11.410
40599W        W 7382  15.101  15.354  12.013
40600W        W 7383  18.378  33.429  12.106
40601W        W 7384  39.701  22.105   0.256
40602W        W 7385   7.658   5.085   0.695
40603W        W 7386  41.771   9.244  13.401
40604W        W 7387  16.792  21.785   1.445
40605W        W 7388   9.836  17.739  11.008
40606W        W 7389   6.243  16.501   3.779
40607W        W 7390  10.378  17.157  11.074
40608W        W 7391  23.997  23.012  14.321
40609W        W 7392   1.721  27.754   0.911
40610W        W 7393  43.811  26.234  13.480
40611W        W 7394  11.578  40.106  14.320
40612W        W 7395  13.572  23.792   0.980
40613W        W 7396  26.945  36.874   0.051
40614W        W 7397  37.203  36.678   2.379
40615W        W 7398  19.665  30.237   0.521
40616W        W 7399  35.998  22.496   2.914
40617W        W 7400  25.121  40.321  14.881
40618W        W 7401  30.880   1.310  12.919
40619W        W 7402  41.298  23.492  14.943
40620W        W 7403  25.972  17.106   3.984
40621W        W 7404  24.675  20.190  12.332
40622W        W 7405  17.280  43.271  11.586
40623W        W 7406  35.469  42.174  13.727
40624W        W 7407  41.470  16.031  12.783
40625W        W 7408   2.793  36.636  12.018
40626W        W 7409  41.615  41.525   0.426
40627W        W 7410  31.582   7.926  14.581
40628W        W 7411  32.628  15.781  11.940
40629W        W 7412   9.706  42.401   0.918
40630W        W 7413   6.200   1.416   2.305
40631W        W 7414  14.312  36.379  11.367
40632W        W 7415  23.087  44.426   0.174
40633W        W 7416  29.133  32.903   0.953
40634W        W 7417   3.523  41.111   3.683
40635W        W 7418  28.979  43.976  13.769
40636W        W 7419   5.790   2.899  13.437
40637W        W 7420  39.007  37.389   2.620
40638W        W 7421   0.556  30.933   2.668
40639W        W 7422  30.621   0.504  11.136
40640W        W 7423  40.206  33.042   0.009
40641W        W 7424   9.237  37.058  10.679
40642W        W 7425  13.743  39.226   4.169
40643W        W 7426  39.846   5.622   3.964
40644W        W 7427  11.821  25.604   2.806
40645W        W 7428   3.849  36.354   0.412
40646W        W 7429   5.193  41.069   1.437
40647W        W 7430   1.229   0.672   3.252
40648W        W 7431   3.412  26.631  12.121
40649W        W 7432  20.526  32.269   2.209
40650W        W 7433  20.889  35.657   0.827
40651W        W 7434  42.446  33.525  11.937
40652W        W 7435   8.933   7.306   0.457
40653W        W 7436  41.264  20.810  11.189
40654W        W 7437   4.683  34.468  13.545
40655W        W 7438   5.718  33.902  10.498
40656W        W 7439  38.056  33.626   4.429
40657W        W 7440   2.153  11.391   0.783
40658W        W 7441  14.090  30.171   4.668
40659W        W 7442  33.966  10.614  14.947
40660W        W 7443   4.878  14.871  10.809
40661W        W 7444  15.336  44.705  13.928
40662W        W 7445  40.570  23.159   3.119
40663W        W 7446  36.462  22.994   3.153
40664W        W 7447   1.314  29.508   0.001
40665W        W 7448   0.882  36.379   0.232
40666W        W 7449  20.791  13.898   4.608
40667W        W 7450  40.814  25.463   4.220
40668W        W 7451  37.523  17.083   2.301
40669W        W 7452  34.929   1.192   0.860
40670W        W 7453  13.370   1.485   0.341
40671W        W 7454  21.087  44.380  10.701
40672W        W 7455  21.743  10.198  13.442
40673W        W 7456  28.499  19.808   2.211
40674W        W 7457   7.206  17.059  14.696
40675W        W 7458  28.735  11.737   1.425
40676W        W 7459  42.358  38.096  14.922
40677W        W 7460  30.730  35.774   0.776
40678W        W 7461  17.312  41.854  10.571
40679W        W 7462  36.588  12.308   2.441
40680W        W 7463  22.607  15.836   2.330
40681W        W 7464  13.192   0.246  13.600
40682W        W 7465   6.698  31.074   4.519
40683W        W 7466  25.998  12.372   2.156
40684W        W 7467  41.440  42.784  13.408
40685W        W 7468  23.573   6.927  11.575
40686W        W 7469  21.667  26.685  10.741
40687W        W 7470   0.829  39.907   3.756
40688W        W 7471   3.894   0.353   1.421
40689W        W 7472   4.617  30.529  12.419
40690W        W 7473  37.832  31.656   0.418
40691W        W 7474   2.485  26.218   3.431
40692W        W 7475  25.034  24.156  13.922
40693W        W 7476   6.929   2.422  14.883
40694W        W 7477  29.960  28.562  13.534
40695W        W 7478  38.062  13.048   0.056
40696W        W 7479  42.430  42.809   0.615
40697W        W 7480   1.634   9.212   5.462
40698W        W 7481  37.422   3.740   0.221
40699W        W 7482   1.938  16.434  10.648
40700W        W 7483  22.954  24.890  10.758
40701W        W 7484  18.253  34.783   3.580
40702W        W 7485  20.090  32.934  12.587
40703W        W 7486  25.103   2.638  14.440
40704W        W 7487   2.525   5.333   0.241
40705W        W 7488   6.271   5.503  13.420
40706W        W 7489   5.887  21.950  12.299
40707W        W 7490  11.696   0.163  11.577
40708W        W 7491  35.176   1.204   4.108
40709W        W 7492  29.745  34.514  13.285
40710W        W 7493  34.041   7.926  12.417
40711W        W 7494   0.514   2.363  13.052
40712W        W 7495  19.142  26.664   2.223
40713W        W 7496  17.801  35.799  14.702
40714W        W 7497  26.725  19.067  11.588
40715W        W 7498  33.854  14.475  12.219
40716W        W 7499  31.013  39.383  12.643
40717W        W 7500  25.144   7.378  13.976
40718W        W 7501  25.213  37.960  11.672
40719W        W 7502  29.558  40.596  14.034
40720W        W 7503  28.477  28.780  12.470
40721W        W 7504  24.205  28.668  10.256
40722W        W 7505  15.051  44.226   4.073
40723W        W 7506  29.254   0.513   2.735
40724W        W 7507   8.619  42.979   0.391
40725W        W 7508   3.737  26.572   4.661
40726W        W 7509  22.719  14.210  11.507
40727W        W 7510  25.163   1.914   3.249
40728W        W 7511  27.740   1.718  10.744
40729W        W 7512  27.115  30.893  11.072
40730W        W 7513  31.126  35.636  12.890
40731W        W 7514  39.283  11.679  12.146
40732W        W 7515  22.109  40.069   4.500
40733W        W 7516  38.617  14.039   2.155
40734W        W 7517  19.772  39.935   1.062
40735W        W 7518  38.427  32.510   3.106
40736W        W 7519   9.935  12.857   2.295
40737W        W 7520   3.943  29.660   3.270
40738W        W 7521   7.314  23.712   0.674
40739W        W 7522  12.433  19.755  14.315
40740W        W 7523   6.835  24.268  14.237
40741W        W 7524  23.680  30.049  13.934
40742W        W 7525   3.992  15.752  13.121
40743W        W 7526   7.321  44.904   0.513
40744W        W 7527   4.711  18.717  12.891
40745W        W 7528   2.268  17.828   4.213
40746W        W 7529   6.921  42.788  14.841
40747W        W 7530  21.594  24.466   4.133
40748W        W 7531  33.092  11.841   1.285
40749W        W 7532   6.598  12.687   0.697
40750W        W 7533  25.462  30.042  12.515
40751W        W 7534  24.783   5.766   4.703
40752W        W 7535  39.143  13.964   1.971
40753W        W 7536  16.144  13.267   1.755
40754W        W 7537  22.760   3.184   1.394
40755W        W 7538  17.743  21.971  14.989
40756W        W 7539  36.751  41.930   0.230
40757W        W 7540  15.836  30.448   0.369
40758W        W 7541  41.582  35.347   2.667
40759W        W 7542  28.015  20.000   2.167
40760W        W 7543   3.955   2.227   1.451
40761W        W 7544  20.181  24.987  12.455
40762W        W 7545  20.771   2.388   5.317
40763W        W 7546  18.824  19.194   3.720
40764W        W 7547  35.259  38.077  13.581
40765W        W 7548   1.300  40.222  11.517
40766W        W 7549  44.225  41.098   1.357
40767W        W 7550  37.897  37.121   1.080
40768W        W 7551  23.615  20.737   3.620
40769W        W 7552  42.861  39.502   1.681
40770W        W 7553  24.495   4.010  12.154
40771W        W 7554  13.441  32.301   2.194
40772W        W 7555  30.588   8.456   1.883
40773W        W 7556  29.728  26.669  14.801
40774W        W 7557  27.618  44.404   0.227
40775W        W 7558  19.424  27.224   3.317
40776W        W 7559  17.260   0.739   4.234
40777W        W 7560   0.157  34.008   1.199
40778W        W 7561  38.944  41.844   3.251
40779W        W 7562  41.860  32.093  14.979
40780W        W 7563  22.199  29.727  10.884
40781W        W 7564   4.792   1.672   4.630
40782W        W 7565  15.626  37.526   1.201
40783W        W 7566  35.937   7.885  11.394
40784W        W 7567  27.408  13.554  12.552
40785W        W 7568  13.508  40.835   1.432
40786W        W 7569  13.628  27.743  14.291
40787W        W 7570  37.340  37.526   0.942
40788W        W 7571  13.418  14.302   0.376
40789W        W 7572  24.639  39.977   1.121
40790W        W 7573  32.872  20.445   4.009
40791W        W 7574  20.350  30.567   3.673
40792W        W 7575  42.453  15.056   0.427
40793W        W 7576  42.915  37.306   0.515
40794W        W 7577   9.354  41.758   1.224
40795W        W 7578  39.679  14.156  14.929
40796W        W 7579  34.902  42.906  10.922
40797W        W 7580  15.616  11.200   3.341
40798W        W 7581  19.292  30.478  10.808
40799W        W 7582  34.202  17.145   4.882
40800W        W 7583  20.208   8.690  13.810
40801W        W 7584  44.481  40.388   1.750
40802W        W 7585  33.298  25.765  11.706
40803W        W 7586   5.412  20.561   4.888
40804W        W 7587  13.748  17.713   3.058
40805W        W 7588  24.012   8.190  13.390
40806W        W 7589  36.751  30.896   0.238
40807W        W 7590  27.920  17.252  11.685
40808W        W 7591  37.538   0.538   2.535
40809W        W 7592  14.596  44.209  13.560
40810W        W 7593  24.514  27.541   0.928
40811W        W 7594  44.966  26.964  14.454
40812W        W 7595  33.667  20.391  13.801
40813W        W 7596  27.125   6.030   3.079
40814W        W 7597  20.965  29.413  11.189
40815W        W 7598  39.675  33.146   1.427
40816W        W 7599  42.606  15.341  12.873
40817W        W 7600  14.070   6.181   0.327
40818W        W 7601  25.192  12.587  14.781
40819W        W 7602   3.508  35.909   4.528
40820W        W 7603   1.451  12.832  12.933
40821W        W 7604  16.778   4.671  13.869
40822W        W 7605  15.798   0.734   0.955
40823W        W 7606  44.729   3.176   1.812
40824W        W 7607  28.976  17.332  13.513
40825W        W 7608  27.398  42.140  13.791
40826W        W 7609  43.836  23.142  13.003
40827W        W 7610   3.818  19.666  14.999
40828W        W 7611  44.897  38.305   2.432
40829W        W 7612  39.330  10.281  12.661
40830W        W 7613  21.646   6.706  13.393
40831W        W 7614  42.464  36.855   4.224
40832W        W 7615   4.813  41.741  11.368
40833W        W 7616  41.802   3.775   3.308
40834W        W 7617  15.219   7.399  10.862
40835W        W 7618  21.746  31.495  14.370
40836W        W 7619   4.391  17.062  10.478
40837W        W 7620  13.728  21.782   2.059
40838W        W 7621   1.892  35.485  12.508
40839W        W 7622  15.647   6.443   2.829
40840W        W 7623   8.728  44.598  13.956
40841W        W 7624  22.607   4.747   3.131
40842W        W 7625  39.287  13.898   4.952
40843W        W 7626   8.318  29.748  11.906
40844W        W 7627  23.578   8.038   4.112
40845W        W 7628  30.178   5.532  11.550
40846W        W 7629  10.098  22.932  11.122
40847W        W 7630  35.173  32.199   3.186
40848W        W 7631   0.671  19.607  12.352
40849W        W 7632  12.094  33.205  12.990
40850W        W 7633  28.477  18.630  13.320
40851W        W 7634  14.847   8.253  10.428
40852W        W 7635  36.118  25.665   4.308
40853W        W 7636  19.146  26.383   4.097
40854W        W 7637  20.130  32.090   0.277
40855W        W 7638  24.779   1.882   3.608
40856W        W 7639  15.861  20.214   5.142
40857W        W 7640  40.398  29.409  10.707
40858W        W 7641  13.591  44.343   4.081
40859W        W 7642   4.179  19.822   1.282
40860W        W 7643   4.499  12.103   3.644
40861W        W 7644  38.822  41.318  12.094
40862W        W 7645  23.994  26.973  13.072
40863W        W 7646  29.184  33.371  12.429
40864W        W 7647  32.013  38.923   3.333
40865W        W 7648  16.637  10.097  12.450
40866W        W 7649   4.981  32.495   0.390
40867W        W 7650  21.169  39.888   4.593
40868W        W 7651  25.408  33.910   0.612
40869W        W 7652  41.379  41.307   4.969
40870W        W 7653  11.333  27.938   1.927
40871W        W 7654  22.707  30.303   3.626
40872W        W 7655   6.378  11.788   0.018
40873W        W 7656  18.733  40.135  12.896
40874W        W 7657  41.427  10.170   2.648
40875W        W 7658  30.651  29.643  13.882
40876W        W 7659   5.390  31.659  14.997
40877W        W 7660  26.276  28.213   0.076
40878W        W 7661  11.648  34.135  10.673
40879W        W 7662   6.462  36.366   3.573
40880W        W 7663   6.560  28.319  10.960
40881W        W 7664  17.518  30.904   4.517
40882W        W 7665   9.461  37.213  13.413
40883W        W 7666   2.039  17.084  13.524
40884W        W 7667  31.961  32.857  13.299
40885W        W 7668  38.196  38.324   1.444
40886W        W 7669   8.667   9.522  11.130
40887W        W 7670  28.227   7.335   9.848
40888W        W 7671  38.762  41.334   2.707
40889W        W 7672  28.533   0.078   1.786
40890W        W 7673  28.794   8.202   3.267
40891W        W 7674  34.828  11.243   0.201
40892W        W 7675  26.037  16.688  14.403
40893W        W 7676  30.072  39.079  10.871
40894W        W 7677  10.058   3.965   1.854
40895W        W 7678  11.606  14.738   3.267
40896W        W 7679  24.933  16.915  11.186
40897W        W 7680  43.366  35.565  11.565
40898W        W 7681  36.366  25.776  10.830
40899W        W 7682  38.859  20.217  14.997
40900W        W 7683  20.477  44.373   4.177
40901W        W 7684   0.446  26.969   1.643
40902W        W 7685   9.861  19.992   3.076
40903W        W 7686  32.849  28.316   4.250
40904W        W 7687  43.032   4.794  11.085
40905W        W 7688  15.370  31.194   2.212
40906W        W 7689  34.503  38.070   4.081
40907W        W 7690  26.563  18.754   1.374
40908W        W 7691   3.339  31.886   4.350
40909W        W 7692  39.341   5.082   2.707
40910W        W 7693   3.160  39.029  11.151
40911W        W 7694  23.392  35.433  13.155
40912W        W 7695  38.518   3.683  13.620
40913W        W 7696  43.792   2.797  13.016
40914W        W 7697  16.679   1.725  10.683
40915W        W 7698  31.943  25.549   0.083
40916W        W 7699  44.924   4.848  12.376
40917W        W 7700  17.589  29.089   0.162
40918W        W 7701  24.138  26.648  12.669
40919W        W 7702  34.697  22.077   4.633
40920W        W 7703  12.663  38.037  11.614
40921W        W 7704   2.249  24.562  11.261
40922W        W 7705  43.191  39.076   3.698
40923W        W 7706  39.918  42.515   3.647
40924W        W 7707  27.524  26.434  10.162
40925W        W 7708   3.428  10.173  12.812
40926W        W 7709  23.066  16.843   1.402
40927W        W 7710  28.054  11.431   3.473
40928W        W 7711  42.913  27.839  10.714
40929W        W 7712  17.169  31.192   3.261
40930W        W 7713  35.897   1.876   4.973
40931W        W 7714  12.568  20.626   4.159
40932W        W 7715   8.029   2.858   3.343
40933W        W 7716  24.256  37.467   0.535
40934W        W 7717   2.377   4.257   2.254
40935W        W 7718  35.893   9.330  12.476
40936W        W 7719   3.463  22.552   1.201
40937W        W 7720   0.818  25.184   2.288
40938W        W 7721  44.744  41.923  11.232
40939W        W 7722  10.452  24.518  13.008
40940W        W 7723  21.080  41.717   0.332
40941W        W 7724  12.822  30.638   2.391
40942W        W 7725   9.418   0.452  13.916
40943W        W 7726  26.843  18.323   1.256
40944W        W 7727  37.404   3.643   2.356
40945W        W 7728  36.080   4.298   3.887
40946W        W 7729  41.401  41.505   4.485
40947W        W 7730   4.264  33.434  12.893
40948W        W 7731  20.099   4.437  13.911
40949W        W 7732  10.965  11.163   4.993
40950W        W 7733  34.032  37.865   1.385
40951W        W 7734  27.446  33.825  11.837
40952W        W 7735  41.131  17.830   4.588
40953W        W 7736  21.985  24.058  12.829
40954W        W 7737  28.027  12.178  11.628
40955W        W 7738  14.080  34.827  12.924
40956W        W 7739   4.918   4.761  13.617
40957W        W 7740  18.139  24.948   1.163
40958W        W 7741  11.079   1.265  11.269
40959W        W 7742   4.962   0.344   0.492
40960W        W 7743  20.368   3.718  13.446
40961W        W 7744  39.881  20.843   3.198
40962W        W 7745   7.844   3.496   2.171
40963W        W 7746  40.360   1.722   4.574
40964W        W 7747   7.151  31.092   2.645
40965W        W 7748  16.562  43.372   4.743
40966W        W 7749  17.661  43.172   4.057
40967W        W 7750  27.508  25.991  11.177
40968W        W 7751  28.012  23.507   3.610
40969W        W 7752  15.218  22.737  12.867
40970W        W 7753  30.400  17.091   3.778
40971W        W 7754  10.256  35.641  13.982
40972W        W 7755  23.119  42.949  11.967
40973W        W 7756   9.584  27.229   4.682
40974W        W 7757  41.165  29.101  12.976
40975W        W 7758   1.307  14.038   0.654
40976W        W 7759  11.321   7.799   3.137
40977W        W 7760  15.344  31.578   4.740
40978W        W 7761  32.818   5.901  10.346
40979W        W 7762  36.953  23.782   4.487
40980W        W 7763  39.792   4.382  12.850
40981W        W 7764  18.355  26.165  13.103
40982W        W 7765  37.403  15.871  10.536
40983W        W 7766  14.760  38.329   4.622
40984W        W 7767   4.400  33.357  11.038
40985W        W 7768  37.051  18.588   2.828
40986W        W 7769  23.419  11.184  12.055
40987W        W 7770  18.640  43.953   4.480
40988W        W 7771  22.641   6.710  11.583
40989W        W 7772  44.325  40.113  13.842
40990W        W 7773  28.849  43.263   4.208
40991W        W 7774  22.578   0.663   4.139
40992W        W 7775  34.288   3.898   5.011
40993W        W 7776   2.224  11.165   0.287
40994W        W 7777   6.371  42.064   3.559
40995W        W 7778  44.291  15.173   1.849
40996W        W 7779  27.454   7.729   4.020
40997W        W 7780  17.735  40.253   1.602
40998W        W 7781  19.095   3.318  14.013
40999W        W 7782  30.800   1.123   2.711
41000W        W 7783  31.536  29.853   2.350
41001W        W 7784  17.279  32.353  13.018
41002W        W 7785  34.278  31.919   4.223
41003W        W 7786  12.650  41.435   1.907
41004W        W 7787  33.092  11.683   0.020
41005W        W 7788  39.928   7.091   3.120
41006W        W 7789  21.230   5.391  14.878
41007W        W 7790  40.324  19.486  14.953
41008W        W 7791  25.242  12.874  13.799
41009W        W 7792   0.021  42.657   0.987
41010W        W 7793  13.532  16.072   1.299
41011W        W 7794  15.674   6.325  13.368
41012W        W 7795  26.942  20.185  11.966
41013W        W 7796   1.011  39.997   4.260
41014W        W 7797  20.810  39.516   3.809
41015W        W 7798  31.339  31.665   1.816
41016W        W 7799   3.772  14.246   0.969
41017W        W 7800  33.773  40.734  14.818
41018W        W 7801  16.700  35.611  12.863
41019W        W 7802  21.542  13.665   2.274
41020W        W 7803  22.596  20.629   1.926
41021W        W 7804  21.025   6.213  12.346
41022W        W 7805  17.176  41.945   3.366
41023W        W 7806  30.593  10.063  13.054
41024W        W 7807  30.878  39.601  13.584
41025W        W 7808  42.280  19.498   2.629
41026W        W 7809  30.147  12.852   2.741
41027W        W 7810   3.130  35.657   4.011
41028W        W 7811   9.269  39.643  12.947
41029W        W 7812  44.343   3.401   4.555
41030W        W 7813  33.741  13.792   2.806
41031W        W 7814  32.503  16.774  13.415
41032W        W 7815  19.946  39.287   1.785
41033W        W 7816  35.623  40.403   1.350
41034W        W 7817  17.183   7.656  12.169
41035W        W 7818  19.635  10.702  11.810
41036W        W 7819  30.602  24.102  11.156
41037W        W 7820  16.295  42.201   4.755
41038W        W 7821  31.486  39.864   0.434
41039W        W 7822  32.115  22.798   1.507
41040W        W 7823  34.855   1.428  12.946
41041W        W 7824  21.347   7.482   0.556
41042W        W 7825  40.373  18.121  14.457
41043W        W 7826  11.132  43.908  14.859
41044W        W 7827  25.543   5.405  10.657
41045W        W 7828  26.522  12.925   2.740
41046W        W 7829   5.634  24.081  14.271
41047W        W 7830   4.753   0.300  12.268
41048W        W 7831  32.806  13.210  13.503
41049W        W 7832  44.767  44.862   1.156
41050W        W 7833  20.162  32.962  10.677
41051W        W 7834   6.399  41.394   0.925
41052W        W 7835  39.106  36.546   2.361
41053W        W 7836  33.042  37.224   4.624
41054W        W 7837  27.367  26.147   2.249
41055W        W 7838  36.407  37.104  14.762
41056W        W 7839  13.146  32.517   0.044
41057W        W 7840   4.015  19.053   2.817
41058W        W 7841  28.195  19.045   2.188
41059W        W 7842  44.493   2.555  13.615
41060W        W 7843   6.505  44.067   3.721
41061W        W 7844  32.369  31.079   4.222
41062W        W 7845   5.117  32.922   5.108
41063W        W 7846  28.566  35.780   1.295
41064W        W 7847  29.354  15.182   1.343
41065W        W 7848  10.872  12.346  13.014
41066W        W 7849   1.787  24.983  12.951
41067W        W 7850   3.852   7.844   3.314
41068W        W 7851  34.798  15.525  13.304
41069W        W 7852  37.077   9.715   4.156
41070W        W 7853   7.936   9.635  12.345
41071W        W 7854  21.258  15.013  13.336
41072W        W 7855  17.975  36.022   2.378
41073W        W 7856  34.556  27.929   1.276
41074W        W 7857  25.195  34.839  11.132
41075W        W 7858  37.894  36.359  10.574
41076W        W 7859   8.653   0.744   2.100
41077W        W 7860  17.744  19.071  12.828
41078W        W 7861   0.921  38.785   3.799
41079W        W 7862   9.555  15.677  11.187
41080W        W 7863  42.010  42.455  11.649
41081W        W 7864  34.652   9.963   5.262
41082W        W 7865  14.774  22.773  13.406
41083W        W 7866  34.545  16.167   4.692
41084W        W 7867  31.874  44.939   4.726
41085W        W 7868  44.582  25.417   3.662
41086W        W 7869  29.473   5.416  10.742
41087W        W 7870  14.079   3.567   0.119
41088W        W 7871  29.746  42.700   3.729
41089W        W 7872  12.634   6.852  14.773
41090W        W 7873  23.313  17.765  12.981
41091W        W 7874  17.064  37.275  13.435
41092W        W 7875  42.587  40.634   1.799
41093W        W 7876  14.744  40.844  13.907
41094W        W 7877   9.742  39.141  10.546
41095W        W 7878  12.703  40.984  13.911
41096W        W 7879   2.948  13.329   0.610
41097W        W 7880  30.501  24.759   4.169
41098W        W 7881   9.206  23.927  14.370
41099W        W 7882  40.727  32.502  10.725
41100W        W 7883   3.765   8.383  11.999
41101W        W 7884   1.883   5.718   0.837
41102W        W 7885  37.013   8.972   1.322
41103W        W 7886  32.317  28.462   0.936
41104W        W 7887  41.065  35.605  11.584
41105W        W 7888  18.812  27.462  14.081
41106W        W 7889  40.559  15.841  11.784
41107W        W 7890  18.595  36.146   1.266
41108W        W 7891   8.074  30.518  14.934
41109W        W 7892  32.901  44.436   4.119
41110W        W 7893  20.825  26.897   5.094
41111W        W 7894  11.655  18.276   0.763
41112W        W 7895  18.730  24.435  13.540
41113W        W 7896   9.110   3.896  12.516
41114W        W 7897  10.462  27.654   0.205
41115W        W 7898  33.605  24.947  13.901
41116W        W 7899  39.589  34.152  13.103
41117W        W 7900   0.974  43.385  11.466
41118W        W 7901  24.979   3.833   0.767
41119W        W 7902  39.916  14.799   2.249
41120W        W 7903  28.208   3.027  12.569
41121W        W 7904  28.274   6.746   0.358
41122W        W 7905  33.524  39.242  13.399
41123W        W 7906  17.635  14.736   0.375
41124W        W 7907  32.887   4.028   1.292
41125W        W 7908  24.964  21.333   3.198
41126W        W 7909  17.057  33.104  14.505
41127W        W 7910   6.470  22.610  11.633
41128W        W 7911  32.425  35.271   0.299
41129W        W 7912  30.022  22.267  11.848
41130W        W 7913  15.178  31.391   3.073
41131W        W 7914  24.486  21.098  11.886
41132W        W 7915  15.800  20.019   1.481
41133W        W 7916  10.331  35.090  14.880
41134W        W 7917   0.462  32.982  11.704
41135W        W 7918  41.981  23.130  13.542
41136W        W 7919   7.937  33.121  13.574
41137W        W 7920  38.022  15.190  10.783
41138W        W 7921   3.072  37.287   4.886
41139W        W 7922  10.129  39.356  13.449
41140W        W 7923   3.279   9.396  11.472
41141W        W 7924  23.664  15.833  11.152
41142W        W 7925  19.484  19.124  11.190
41143W        W 7926  37.016  15.845   4.892
41144W        W 7927  38.750  42.621   4.990
41145W        W 7928  13.032  35.001   4.694
41146W        W 7929   0.198  32.411  13.432
41147W        W 7930  39.612  26.567  14.931
41148W        W 7931  33.158   8.018  13.101
41149W        W 7932   1.209  16.178  12.213
41150W        W 7933  31.037  44.509  12.491
41151W        W 7934   5.975  15.735  13.106
41152W        W 7935  33.723  42.611   2.431
41153W        W 7936  38.048  21.771   2.835
41154W        W 7937   5.820   3.328   3.314
41155W        W 7938  28.735   1.706  13.657
41156W        W 7939   1.975  20.491  14.295
41157W        W 7940  29.501  24.456   1.452
41158W        W 7941  13.376   8.230   1.395
41159W        W 7942  37.091   6.226  13.562
41160W        W 7943  21.619  12.110   0.760
41161W        W 7944  12.772  18.547  13.886
41162W        W 7945  36.520   6.975   2.740
41163W        W 7946  16.139  39.401  14.492
41164W        W 7947   7.906  35.331  12.019
41165W        W 7948   3.389  43.287  12.012
41166W        W 7949   0.186   8.258   3.177
41167W        W 7950  37.370  30.501   3.784
41168W        W 7951   8.658   8.222  14.334
41169W        W 7952  28.572  20.612  11.685
41170W        W 7953   1.063  28.575  10.550
41171W        W 7954   1.335  41.886   3.920
41172W        W 7955  39.502  15.678  14.822
41173W        W 7956  40.035  44.965   4.333
41174W        W 7957  36.938   3.732  11.946
41175W        W 7958  22.106  24.287  14.943
41176W        W 7959  22.243  10.624  12.921
41177W        W 7960   1.765   5.912   1.741
41178W        W 7961   6.001   4.960  10.914
41179W        W 7962   3.283   4.040  14.399
41180W        W 7963  43.794  40.947  14.019
41181W        W 7964  25.660  13.389  14.809
41182W        W 7965   3.755  23.456   3.745
41183W        W 7966  13.065  37.974  12.462
41184W        W 7967  17.220  28.610  10.448
41185W        W 7968  33.896  40.687   4.141
41186W        W 7969  23.590  19.942   2.275
41187W        W 7970   5.730  16.768   4.181
41188W        W 7971   0.534   8.896  10.189
41189W        W 7972  42.025   7.886   3.507
41190W        W 7973   1.177  18.244   3.732
41191W        W 7974  17.753  31.353  12.024
41192W        W 7975   4.799  22.588  10.596
41193W        W 7976  30.736   7.556   0.858
41194W        W 7977   8.671  26.593  13.253
41195W        W 7978  30.905  39.081  10.647
41196W        W 7979  43.467  32.729  11.739
41197W        W 7980  18.765  12.428   3.732
41198W        W 7981  12.182  19.764   4.133
41199W        W 7982  18.267  42.777   2.179
41200W        W 7983  37.913   8.405  13.356
41201W        W 7984  13.464  43.839   4.259
41202W        W 7985  11.049   7.306   4.241
41203W        W 7986   1.837   3.032   2.246
41204W        W 7987   0.820  21.459  14.725
41205W        W 7988   8.303  16.285  13.450
41206W        W 7989  14.365  34.927   0.747
41207W        W 7990  44.822   0.205  11.048
41208W        W 7991  26.652   0.369   3.378
41209W        W 7992  21.206  12.153   1.848
41210W        W 7993  11.727  43.394  12.200
41211W        W 7994  22.678  42.512  14.855
41212W        W 7995  37.403  18.077   1.147
41213W        W 7996  21.277  25.510  13.036
41214W        W 7997   1.966  22.769   3.231
41215W        W 7998   0.551  15.633  14.489
41216W        W 7999  40.025  39.817   1.244
41217W        W 8000   9.118  43.996   2.262
41218W        W 8001  23.063  43.748   0.898
41219W        W 8002  33.701  17.691   1.352
41220W        W 8003  42.009   8.653  13.010
41221W        W 8004   7.176  37.217   2.171
41222W        W 8005  33.852  11.817   0.820
41223W        W 8006  19.049   3.189   4.627
41224W        W 8007  32.297  14.760   5.120
41225W        W 8008  12.110   4.403   0.193
41226W        W 8009   9.947  22.074  14.739
41227W        W 8010  18.005  16.205   2.427
41228W        W 8011  30.548  33.598   3.851
41229W        W 8012  13.921  12.866  11.028
41230W        W 8013  33.529  33.972   2.785
41231W        W 8014   2.784  41.908  13.932
41232W        W 8015  16.668  44.979  11.748
41233W        W 8016  28.006  13.787  14.318
41234W        W 8017  17.383   5.277  14.494
41235W        W 8018  38.300  23.057   2.690
41236W        W 8019  32.817   6.777   9.797
41237W        W 8020   5.718  23.228   4.635
41238W        W 8021  34.457   0.380  11.735
41239W        W 8022  26.004  10.940  12.563
41240W        W 8023   6.472  17.357   3.711
41241W        W 8024  17.014   0.437  13.497
41242W        W 8025  38.101   7.826  11.560
41243W        W 8026   8.951  11.700   2.728
41244W        W 8027  29.817  32.888   3.568
41245W        W 8028  26.078  42.164   2.886
41246W        W 8029   0.519  19.827  14.489
41247W        W 8030  39.876  21.920  12.417
41248W        W 8031  16.710  11.670   4.569
41249W        W 8032   4.768  10.605   1.505
41250W        W 8033  44.245  27.877  13.990
41251W        W 8034  41.066  19.274   1.742
41252W        W 8035  24.405  42.959   1.936
41253W        W 8036   8.817  44.232   3.141
41254W        W 8037  36.647  16.256  13.277
41255W        W 8038  14.676   3.964   2.206
41256W        W 8039  39.889   8.559  11.874
41257W        W 8040  36.805  20.463  10.557
41258W        W 8041  43.337  43.227  13.030
41259W        W 8042  14.759  35.180   9.842
41260W        W 8043  42.863   5.637   2.396
41261W        W 8044  38.479  14.303  12.040
41262W        W 8045  25.753   6.723  13.019
41263W        W 8046   6.385  42.455   2.203
41264W        W 8047  22.188  28.110   0.151
41265W        W 8048  22.114  22.472   0.256
41266W        W 8049  16.714  33.059   3.429
41267W        W 8050  13.199  33.113   2.871
41268W        W 8051  23.746   1.691   3.638
41269W        W 8052  28.499  10.680   2.593
41270W        W 8053  20.484  37.330  12.101
41271W        W 8054   9.877   8.791   3.742
41272W        W 8055  19.728   0.169  13.126
41273W        W 8056  15.338  18.647   0.240
41274W        W 8057  26.361  32.151   2.202
41275W        W 8058  22.622  27.076   1.698
41276W        W 8059   6.713  31.795  14.133
41277W        W 8060  41.906  14.339  12.559
41278W        W 8061   7.411  13.652   4.479
41279W        W 8062  22.110  10.455  12.440
41280W        W 8063  43.211  22.654   3.683
41281W        W 8064  13.356  14.185  10.510
41282W        W 8065  38.290  42.850   0.342
41283W        W 8066   8.770  40.742   4.354
41284W        W 8067  21.093  31.152  11.510
41285W        W 8068  20.548  44.992  13.787
41286W        W 8069   8.659   3.849   0.638
41287W        W 8070  21.807  34.096  11.130
41288W        W 8071  23.748  44.448  13.826
41289W        W 8072  21.468  39.534   3.263
41290W        W 8073  44.417  31.003   4.582
41291W        W 8074  28.087  10.225   4.102
41292W        W 8075  41.075  37.810   3.210
41293W        W 8076  42.052  23.096  12.604
41294W        W 8077  32.962   7.633  13.412
41295W        W 8078  17.537  37.577  10.595
41296W        W 8079  21.482   9.416   1.262
41297W        W 8080   5.675  26.321  10.470
41298W        W 8081  35.944  22.615   1.193
41299W        W 8082   6.976  20.374   3.130
41300W        W 8083  27.427   7.409  12.596
41301W        W 8084  40.526  12.706   0.491
41302W        W 8085  26.522  39.456   2.791
41303W        W 8086   0.020  27.512   3.353
41304W        W 8087  32.158   6.392   2.463
41305W        W 8088  42.952   9.591  13.459
41306W        W 8089   3.238  19.591  12.443
41307W        W 8090  19.119   4.768   0.861
41308W        W 8091  21.474  13.742  12.986
41309W        W 8092  31.643  37.842   0.374
41310W        W 8093  11.730   0.864   2.772
41311W        W 8094   6.295   6.356  13.625
41312W        W 8095  28.745  27.055  12.606
41313W        W 8096  26.610  14.089  10.676
41314W        W 8097   2.361  16.574   0.274
41315W        W 8098   4.354  30.426  11.921
41316W        W 8099  29.521  20.113   3.316
41317W        W 8100  18.269  43.823  14.759
41318W        W 8101  39.412  35.501   2.177
41319W        W 8102   2.823  34.860   4.603
41320W        W 8103   1.979  37.374  11.369
41321W        W 8104   7.289  22.501  10.890
41322W        W 8105  44.748  10.255   2.103
41323W        W 8106  39.453  34.249   2.789
41324W        W 8107   7.645  44.288  10.546
41325W        W 8108  10.766  34.926  12.068
41326W        W 8109   2.644  42.760  14.998
41327W        W 8110  42.720  15.554   3.972
41328W        W 8111  15.596   9.295  12.896
41329W        W 8112  40.031   8.624   1.428
41330W        W 8113  37.108  42.055   1.174
41331W        W 8114  35.312  21.082   1.431
41332W        W 8115  29.615  32.014   0.224
41333W        W 8116  43.787  17.730   5.053
41334W        W 8117   0.437  21.266  13.508
41335W        W 8118  13.825  36.320  12.055
41336W        W 8119   2.366  42.395  14.705
41337W        W 8120  36.780  16.078   3.190
41338W        W 8121  27.200   9.429   1.792
41339W        W 8122  19.587  38.860  14.048
41340W        W 8123  11.114  16.502  12.836
41341W        W 8124  24.940  24.598   4.355
41342W        W 8125  37.551  42.370   3.448
41343W        W 8126  40.136  23.821   0.263
41344W        W 8127  36.928   6.630   2.804
41345W        W 8128  31.860   6.194  10.172
41346W        W 8129  10.820   6.195   9.697
41347W        W 8130  13.721   1.253  13.062
41348W        W 8131  43.636   3.814   3.026
41349W        W 8132  23.156  20.045   1.047
41350W        W 8133  15.221   0.704  13.870
41351W        W 8134   2.939  10.626   2.509
41352W        W 8135  12.893   8.014  14.329
41353W        W 8136   2.701  29.919  12.937
41354W        W 8137  25.981  43.928   0.002
41355W        W 8138   1.142   5.358   1.243
41356W        W 8139   4.402  32.007  14.835
41357W        W 8140  34.471  20.539   2.085
41358W        W 8141  12.058  25.489   0.017
41359W        W 8142  37.876  27.562   3.690
41360W        W 8143   5.398  24.805   0.006
41361W        W 8144  19.486  27.890  13.629
41362W        W 8145  29.360  10.616   3.579
41363W        W 8146  19.495  30.754   1.417
41364W        W 8147  19.986  21.736  10.960
41365W        W 8148  41.491   8.874   3.189
41366W        W 8149   7.427  22.488  12.328
41367W        W 8150  43.193  43.775   3.598
41368W        W 8151  34.678  39.072   0.033
41369W        W 8152  13.492  44.423  12.030
41370W        W 8153   8.849   1.245  10.750
41371W        W 8154   9.563  38.335   3.640
41372W        W 8155  14.898   2.351  12.444
41373W        W 8156  27.130  40.871   1.815
41374W        W 8157  37.905  16.611   1.150
41375W        W 8158  14.636  30.372  13.610
41376W        W 8159  18.617  22.283   4.026
41377W        W 8160  24.440  25.336   3.985
41378W        W 8161  35.892   8.023   5.442
41379W        W 8162  42.346  13.234   0.342
41380W        W 8163  11.696  19.694  11.993
41381W        W 8164  43.435   0.290   1.029
41382W        W 8165  35.724  22.610  13.051
41383W        W 8166  35.966  14.831  14.258
41384W        W 8167  28.076  44.528   1.335
41385W        W 8168  36.397  11.156  14.788
41386W        W 8169  11.382  18.681   3.342
41387W        W 8170  31.546  37.338   1.493
41388W        W 8171  33.833  13.396   1.326
41389W        W 8172  34.957  28.028  11.374
41390W        W 8173  28.448  43.786   2.662
41391W        W 8174  44.894  21.988  11.079
41392W        W 8175  27.042  30.626   0.299
41393W        W 8176  37.940  27.225  13.535
41394W        W 8177  14.892   0.393  11.025
41395W        W 8178  26.965  43.201   2.675
41396W        W 8179  29.031  33.664   2.144
41397W        W 8180  26.488  17.783   3.688
41398W        W 8181  29.436  32.050  10.945
41399W        W 8182  29.645  39.246  11.092
41400W        W 8183   2.443  32.454   0.059
41401W        W 8184   6.768  32.467  12.336
41402W        W 8185  43.613  20.771   3.658
41403W        W 8186   9.061  15.562  11.191
41404W        W 8187  41.296   9.416  13.539
41405W        W 8188  31.038  29.254  13.161
41406W        W 8189  33.562  15.302   4.600
41407W        W 8190   1.156  27.974   2.204
41408W        W 8191   3.404  19.189   0.320
41409W        W 8192   4.748   4.311   1.711
41410W        W 8193   5.907   4.534   4.746
41411W        W 8194   0.306   6.465   0.688
41412W        W 8195  40.748  32.006   4.303
41413W        W 8196  28.895  43.198  12.108
41414W        W 8197  26.168  26.316   5.031
41415W        W 8198  12.351  11.443  14.645
41416W        W 8199  22.384  33.874   2.204
41417W        W 8200   3.757  38.976   4.332
41418W        W 8201   2.169  25.634  14.407
41419W        W 8202  34.050   2.244  12.635
41420W        W 8203  41.562  39.095  14.016
41421W        W 8204  25.077   3.896  12.815
41422W        W 8205   5.422  17.053   2.829
41423W        W 8206   6.288   0.070  11.824
41424W        W 8207  20.784  43.041   2.331
41425W        W 8208  12.082  10.791   0.889
41426W        W 8209   2.438   7.683  10.957
41427W        W 8210   7.220   2.772  14.029
41428W        W 8211  22.480  17.275   3.183
41429W        W 8212  23.883  13.104  11.952
41430W        W 8213   3.590  11.371  12.212
41431W        W 8214  32.163  42.819   4.582
41432W        W 8215  16.303   7.796  12.152
41433W        W 8216  40.952  11.058  12.954
41434W        W 8217  37.591  24.936   0.350
41435W        W 8218  29.396  20.151   3.817
41436W        W 8219  37.667  26.912  11.107
41437W        W 8220  13.623  38.935  13.990
41438W        W 8221   2.257  19.587  13.327
41439W        W 8222  12.569   4.697   2.179
41440W        W 8223   3.889  18.277  14.874
41441W        W 8224  10.649  21.985   3.687
41442W        W 8225  11.407  11.727   3.688
41443W        W 8226  12.198   4.959  11.536
41444W        W 8227   7.739  20.353   2.623
41445W        W 8228  35.733  15.623  14.885
41446W        W 8229  30.695  25.004   1.430
41447W        W 8230  19.502  28.269  12.375
41448W        W 8231  44.620  15.188  14.463
41449W        W 8232  13.210  13.110   3.635
41450W        W 8233  30.471   6.416   0.861
41451W        W 8234  34.991  31.387  14.699
41452W        W 8235   3.980   2.675   2.774
41453W        W 8236  32.088  34.796   4.452
41454W        W 8237  28.692   6.642  12.974
41455W        W 8238   6.774  30.076  13.926
41456W        W 8239  32.736  26.830   9.870
41457W        W 8240   9.629  20.725  13.257
41458W        W 8241  32.630  10.675   4.509
41459W        W 8242  19.341   0.879   0.645
41460W        W 8243   5.333  36.128  12.016
41461W        W 8244  44.372   0.303  13.707
41462W        W 8245  10.753  43.954  10.881
41463W        W 8246  31.480  10.050  12.065
41464W        W 8247  36.036  15.858   4.638
41465W        W 8248  23.534  13.332  14.317
41466W        W 8249  21.609  35.490  12.833
41467W        W 8250  37.399  37.556   1.838
41468W        W 8251  37.169  20.276   4.696
41469W        W 8252  24.753   9.228  14.834
41470W        W 8253  27.719   2.815   0.063
41471W        W 8254  41.022  43.303  11.613
41472W        W 8255  21.563  34.220   4.526
41473W        W 8256  43.718  22.120   1.077
41474W        W 8257  24.445  44.888   1.347
41475W        W 8258   6.503  35.649   5.064
41476W        W 8259   5.269  17.650  13.905
41477W        W 8260  39.471  17.795   4.480
41478W        W 8261  32.522   1.485   4.078
41479W        W 8262   2.756  44.784   4.299
41480W        W 8263   4.654  15.617   3.166
41481W        W 8264  29.058   3.000   4.868
41482W        W 8265  10.848   0.031   4.216
41483W        W 8266  36.331  21.607  11.962
41484W        W 8267  14.197  15.684   3.100
41485W        W 8268  23.842   3.942   5.007
41486W        W 8269  29.408  30.997   3.119
41487W        W 8270  43.814   6.306   1.203
41488W        W 8271  32.097   4.538   2.363
41489W        W 8272   9.926  14.567   3.910
41490W        W 8273  19.138  32.768   1.850
41491W        W 8274   5.703  43.662  14.327
41492W        W 8275   0.469   6.957  11.965
41493W        W 8276  20.670  12.981  13.766
41494W        W 8277  13.533  42.520  12.912
41495W        W 8278  39.483   9.873  10.857
41496W        W 8279  44.451  20.567   2.403
41497W        W 8280  44.443  42.405  10.720
41498W        W 8281  26.525  41.377  11.163
41499W        W 8282   7.154  24.545  10.702
41500W        W 8283  39.522  40.732  13.018
41501W        W 8284  14.753  36.638  13.049
41502W        W 8285   7.674   7.918  10.444
41503W        W 8286   8.136  18.689   4.054
41504W        W 8287  39.982  25.633   2.060
41505W        W 8288  28.054  18.008   3.428
41506W        W 8289   4.953  13.592   4.087
41507W        W 8290  44.492  38.482   2.817
41508W        W 8291   2.514  31.036   3.067
41509W        W 8292   2.074  11.912   0.706
41510W        W 8293  29.433  27.513  12.226
41511W        W 8294  19.891  35.992  13.578
41512W        W 8295   1.931   3.870   3.682
41513W        W 8296  21.237  40.663  14.209
41514W        W 8297  10.932   9.184   1.323
41515W        W 8298  16.056  16.198   2.505
41516W        W 8299  39.508  16.301   2.175
41517W        W 8300   4.871   2.917  12.048
41518W        W 8301  14.778  35.802   3.775
41519W        W 8302   2.384  22.449   3.275
41520W        W 8303  35.440  10.359   3.663
41521W        W 8304  34.394  17.303  14.542
41522W        W 8305  39.040   3.603   2.668
41523W        W 8306  30.430  33.460  10.985
41524W        W 8307   8.677  31.512  11.983
41525W        W 8308  16.335  23.271   4.177
41526W        W 8309  43.734  42.201  12.978
41527W        W 8310  33.365  26.482  11.155
41528W        W 8311  16.476  30.333   1.691
41529W        W 8312  44.110   2.992  12.134
41530W        W 8313  12.616   2.751   3.667
41531W        W 8314  20.482  20.072  12.043
41532W        W 8315  16.552  33.586  14.392
41533W        W 8316  35.600  43.882  14.755
41534W        W 8317  13.997  33.767  13.622
41535W        W 8318   4.185   2.431   0.502
41536W        W 8319  26.072   1.543   2.257
41537W        W 8320  21.402  16.729   2.438
41538W        W 8321  16.911  26.615   2.702
41539W        W 8322  43.790  28.067  14.162
41540W        W 8323  35.301  37.292   2.066
41541W        W 8324  30.213  16.144  13.755
41542W        W 8325  13.682  16.773  12.622
41543W        W 8326   8.051  43.417   1.775
41544W        W 8327  30.266  40.874  13.431
41545W        W 8328  22.003   5.975   4.124
41546W        W 8329  17.366  44.359  10.521
41547W        W 8330  10.299  40.380  14.787
41548W        W 8331  15.856  31.501  12.381
41549W        W 8332   5.439  24.388   1.936
41550W        W 8333   1.716  18.775  13.865
41551W        W 8334  24.403   7.918  12.643
41552W        W 8335  12.804  24.632  11.522
41553W        W 8336  16.365  29.450   2.167
41554W        W 8337   7.372  11.846  14.009
41555W        W 8338   8.230  41.989  11.729
41556W        W 8339  32.176  11.254  12.934
41557W        W 8340  32.172  43.871  12.867
41558W        W 8341  24.664  14.542   0.732
41559W        W 8342  34.844  30.342   2.275
41560W        W 8343   7.827  27.584  12.365
41561W        W 8344   8.329  30.264  11.795
41562W        W 8345  28.136  15.007  11.217
41563W        W 8346   5.085  16.638   2.911
41564W        W 8347   1.349  31.688   1.408
41565W        W 8348  41.670   1.696   4.543
41566W        W 8349  13.241  37.433  11.807
41567W        W 8350  21.803  27.277  11.494
41568W        W 8351  37.109  31.061   3.923
41569W        W 8352  25.338  15.239  12.754
41570W        W 8353  19.116  15.495   2.846
41571W        W 8354  33.865  12.786  13.317
41572W        W 8355  44.768  41.863   3.227
41573W        W 8356   1.515   8.797   0.891
41574W        W 8357  29.480  19.237  14.373
41575W        W 8358  12.366  35.814   2.727
41576W        W 8359  12.990   5.301   0.274
41577W        W 8360  43.713  24.758   0.468
41578W        W 8361  35.791  39.214  10.612
41579W        W 8362   0.076  39.892  12.631
41580W        W 8363  19.539  43.530   1.622
41581W        W 8364  11.475  26.425   2.428
41582W        W 8365  24.581  42.529   1.010
41583W        W 8366  22.653  38.793   0.273
41584W        W 8367  40.295  25.218   2.082
41585W        W 8368  11.282  32.412  14.415
41586W        W 8369   8.620  23.932  12.068
41587W        W 8370  19.106  23.749  12.047
41588W        W 8371  20.668  24.985   4.157
41589W        W 8372   8.671   0.225   3.307
41590W        W 8373  14.833  10.242   1.618
41591W        W 8374  27.926  16.693   3.407
41592W        W 8375  30.003   9.758  10.661
41593W        W 8376  30.572  32.090   4.839
41594W        W 8377  23.756  26.868   3.859
41595W        W 8378   6.425  29.662   0.324
41596W        W 8379   4.888   7.269   1.664
41597W        W 8380  35.112  41.366  10.573
41598W        W 8381  38.332  13.310   0.466
41599W        W 8382  22.660  43.852   3.905
41600W        W 8383  35.818  19.954  11.609
41601W        W 8384  13.728  15.645   3.386
41602W        W 8385  42.811  22.088  10.558
41603W        W 8386  36.417  25.570   4.717
41604W        W 8387   0.774  24.264  13.844
41605W        W 8388   6.218  34.314  12.552
41606W        W 8389  24.620  12.532   4.254
41607W        W 8390   9.178   6.986  10.219
41608W        W 8391  35.873  13.138   0.495
41609W        W 8392  14.665  24.976   4.533
41610W        W 8393  24.086  15.977   3.211
41611W        W 8394   5.918  14.994   1.485
41612W        W 8395  10.671   5.018   4.834
41613W        W 8396  11.586  40.208   4.900
41614W        W 8397  15.695   6.104  11.696
41615W        W 8398  10.910  33.885  11.189
41616W        W 8399  42.389  11.203   4.176
41617W        W 8400  43.397  20.759  14.955
41618W        W 8401  36.513  23.839  10.717
41619W        W 8402  34.229  11.382   3.899
41620W        W 8403  28.685  28.867   0.380
41621W        W 8404   2.306   2.157  14.345
41622W        W 8405  42.896  21.576   0.074
41623W        W 8406   9.116  21.647  11.207
41624W        W 8407  13.595   2.805  11.688
41625W        W 8408  28.695  25.599  14.874
41626W        W 8409  20.774  10.922   4.879
41627W        W 8410  22.883   0.948   1.724
41628W        W 8411  26.423  42.914  14.964
41629W        W 8412  38.105  28.198   0.206
41630W        W 8413  32.707   9.698   1.508
41631W        W 8414  33.303  28.508  10.739
41632W        W 8415   7.172  34.803  14.703
41633W        W 8416  29.334  29.377  12.515
41634W        W 8417   0.189  15.367   3.376
41635W        W 8418   1.776  17.093   4.085
41636W        W 8419  12.749  23.545  10.597
41637W        W 8420  34.588  24.546   2.769
41638W        W 8421   6.732  35.562   3.078
41639W        W 8422  13.455  25.460  11.567
41640W        W 8423  20.630  17.021  13.898
41641W        W 8424   7.606   5.805   3.666
41642W        W 8425   1.335  21.258   0.946
41643W        W 8426  23.493  13.103  12.909
41644W        W 8427  15.097  37.559  13.872
41645W        W 8428  11.812  40.384  10.511
41646W        W 8429  14.242  28.141  12.959
41647W        W 8430  27.505  35.129   2.149
41648W        W 8431  14.940  40.828   5.630
41649W        W 8432   5.384  33.113  14.870
41650W        W 8433  18.556  22.087  14.431
41651W        W 8434   6.705   4.963   1.899
41652W        W 8435  44.852   4.555   1.599
41653W        W 8436   4.663  42.259  12.588
41654W        W 8437  35.935   5.758   3.256
41655W        W 8438  23.612  27.183   4.601
41656W        W 8439   9.437  38.422  11.722
41657W        W 8440  37.781  15.177  13.308
41658W        W 8441  13.298  10.705  12.509
41659W        W 8442  35.401  14.103  10.572
41660W        W 8443   7.881   1.476  10.396
41661W        W 8444  22.172  24.572   1.761
41662W        W 8445  27.876   9.904  13.596
41663W        W 8446  35.498  36.622  11.459
41664W        W 8447  44.547  33.062  13.312
41665W        W 8448   1.019   7.853  11.594
41666W        W 8449   6.353   6.508  11.630
41667W        W 8450  32.115  28.084  12.367
41668W        W 8451   3.065  18.277  10.724
41669W        W 8452  19.150  27.584  13.387
41670W        W 8453  38.815  40.922  12.405
41671W        W 8454  26.990  33.510  12.142
41672W        W 8455   4.458  34.489   1.966
41673W        W 8456  13.646  16.305  13.743
41674W        W 8457  35.864   2.082  12.964
41675W        W 8458  12.428  30.077   4.319
41676W        W 8459  27.708  41.733  13.972
41677W        W 8460  26.624  35.569  14.802
41678W        W 8461   9.726  17.001   4.123
41679W        W 8462  16.560  12.831   4.131
41680W        W 8463  30.898  15.602   0.967
41681W        W 8464  26.689  13.877  14.452
41682W        W 8465  19.180  11.714  12.583
41683W        W 8466  29.614   3.749  14.957
41684W        W 8467  18.194  11.239  11.697
41685W        W 8468  42.446   7.234  12.767
41686W        W 8469   6.764  37.641  11.141
41687W        W 8470   3.914  15.235  13.960
41688W        W 8471   6.343  18.815   3.722
41689W        W 8472  15.700  38.620   1.455
41690W        W 8473   1.391   1.932  12.977
41691W        W 8474  24.954  28.396   3.255
41692W        W 8475  23.174  29.689  11.685
41693W        W 8476   9.375  13.820   2.176
41694W        W 8477  18.558  30.475  11.577
41695W        W 8478  29.932  26.612   5.036
41696W        W 8479  21.457  31.948   2.210
41697W        W 8480  44.384   5.818   4.280
41698W        W 8481   2.013  20.530   3.250
41699W        W 8482  19.756   8.631  13.094
41700W        W 8483  24.799   2.364   1.067
41701W        W 8484  18.144   1.427   1.167
41702W        W 8485  27.900  18.083   5.391
41703W        W 8486  36.943  23.545  10.712
41704W        W 8487  43.987   6.163  11.084
41705W        W 8488  31.794   8.821   4.782
41706W        W 8489  43.961  20.391   3.607
41707W        W 8490  22.883  42.843   4.528
41708W        W 8491  24.629  39.404  10.157
41709W        W 8492  15.381  19.991   1.168
41710W        W 8493  41.941  30.324   2.448
41711W        W 8494  18.588  10.580  10.612
41712W        W 8495   5.309  12.111   3.237
41713W        W 8496  14.610  22.990   3.712
41714W        W 8497  42.514  23.208   2.290
41715W        W 8498   1.737   2.690  14.091
41716W        W 8499  37.374  12.230   1.594
41717W        W 8500  40.277  24.187   4.539
41718W        W 8501  27.910  24.575   1.164
41719W        W 8502  40.855   2.379  11.046
41720W        W 8503  40.277  40.478  10.658
41721W        W 8504  16.738   4.643   2.378
41722W        W 8505  18.142  38.355  10.679
41723W        W 8506  24.830  30.785  13.970
41724W        W 8507  27.968  43.375  13.503
41725W        W 8508  37.816  34.489   0.908
41726W        W 8509  28.350  34.372   0.724
41727W        W 8510   8.261  36.523  13.440
41728W        W 8511  31.389  40.475  10.747
41729W        W 8512  12.237  22.527  14.848
41730W        W 8513   3.193  39.994  11.105
41731W        W 8514  21.196  32.027  13.107
41732W        W 8515  24.845  20.319  11.827
41733W        W 8516  41.566  34.070  11.178
41734W        W 8517  30.845  33.008   2.640
41735W        W 8518  30.958  40.059  14.535
41736W        W 8519   3.379  31.532   3.754
41737W        W 8520  31.170  20.078   0.475
41738W        W 8521  19.705   4.883  14.882
41739W        W 8522   4.274  10.367   1.500
41740W        W 8523   8.775  31.276   2.595
41741W        W 8524  14.928  15.638  12.489
41742W        W 8525   1.988  42.861   2.539
41743W        W 8526   2.020  42.229  14.329
41744W        W 8527  32.634  43.995   4.160
41745W        W 8528   6.927  16.310   1.453
41746W        W 8529  38.988   8.804  14.539
41747W        W 8530   7.916  37.415  11.676
41748W        W 8531  24.151  27.262  10.632
41749W        W 8532   9.808   3.374  11.162
41750W        W 8533  23.949  38.856   3.711
41751W        W 8534  44.777   5.739  14.593
41752W        W 8535  15.406   0.372  12.193
41753W        W 8536  27.220  28.952  11.079
41754W        W 8537  30.564  14.124   0.504
41755W        W 8538  38.108  15.220  12.097
41756W        W 8539  13.216  10.200  12.408
41757W        W 8540  29.110  40.369  13.906
41758W        W 8541  30.441  36.497  14.123
41759W        W 8542  37.376   8.336   3.192
41760W        W 8543   7.204  25.062   2.734
41761W        W 8544  40.526  26.174  11.208
41762W        W 8545  13.215   7.734   0.619
41763W        W 8546  10.061  27.694   4.083
41764W        W 8547   3.414   0.749   1.265
41765W        W 8548  43.493   6.273  12.383
41766W        W 8549   1.775  40.445  10.651
41767W        W 8550  11.076  34.201  12.491
41768W        W 8551   2.043   8.824   0.805
41769W        W 8552  39.845   0.844   2.346
41770W        W 8553  37.139  35.403  12.670
41771W        W 8554  25.043  39.109  12.018
41772W        W 8555   0.729  42.170  11.003
41773W        W 8556  31.868  43.911   4.375
41774W        W 8557  16.722  39.801   3.678
41775W        W 8558  43.042  20.701  13.107
41776W        W 8559  19.321  24.612   1.646
41777W        W 8560  14.569  39.067  12.792
41778W        W 8561  42.743  33.648   0.228
41779W        W 8562  26.183  19.556   3.008
41780W        W 8563  17.667   0.210   3.131
41781W        W 8564  24.673  18.398  13.095
41782W        W 8565  10.292   9.217  14.877
41783W        W 8566  15.773  34.317   1.835
41784W        W 8567   7.601  35.579   3.198
41785W        W 8568  40.475  40.059   4.093
41786W        W 8569  37.033  36.870   4.616
41787W        W 8570  38.969  16.333  14.454
41788W        W 8571   4.860  38.096   2.268
41789W        W 8572  29.235  44.158   2.181
41790W        W 8573   7.123   4.683   1.801
41791W        W 8574  11.747  18.333  10.463
41792W        W 8575  42.391  44.453  11.571
41793W        W 8576  16.750   8.838   1.737
41794W        W 8577  25.416  30.347   4.134
41795W        W 8578  10.662  12.761   3.825
41796W        W 8579  34.559  24.753   4.262
41797W        W 8580   9.240  21.642   4.232
41798W        W 8581  13.997  13.288  12.558
41799W        W 8582  13.130   9.824  13.377
41800W        W 8583  10.367  44.240   4.533
41801W        W 8584  23.681  39.197  12.964
41802W        W 8585  16.359  31.565  12.474
41803W        W 8586   7.690  22.136  13.387
41804W        W 8587  35.976   7.714   3.145
41805W        W 8588  38.878  11.656   0.925
41806W        W 8589   2.463  28.493  11.882
41807W        W 8590  24.476  30.602   0.269
41808W        W 8591  32.653  40.004   2.749
41809W        W 8592  13.029   5.025  14.500
41810W        W 8593   7.218  22.680   4.049
41811W        W 8594  29.507  11.989   4.120
41812W        W 8595   5.673   9.636   1.267
41813W        W 8596  38.418  40.850  14.268
41814W        W 8597  32.528  27.589   4.371
41815W        W 8598  36.560  35.290  13.834
41816W        W 8599  15.582   4.698   4.146
41817W        W 8600  37.925  30.232   1.747
41818W        W 8601   1.332  33.946  14.052
41819W        W 8602   0.420  14.629   2.299
41820W        W 8603  37.737  37.837  11.746
41821W        W 8604  36.140   6.001  11.457
41822W        W 8605  41.890  35.004   1.244
41823W        W 8606  33.433   3.708  14.907
41824W        W 8607  15.848  13.827  11.997
41825W        W 8608  38.927   3.019  12.448
41826W        W 8609   4.453   7.686   4.553
41827W        W 8610  28.989  20.060   4.604
41828W        W 8611   7.802  14.044  12.516
41829W        W 8612  31.452  20.513   0.413
41830W        W 8613   7.552  41.943   4.578
41831W        W 8614  40.759  16.734   0.221
41832W        W 8615  32.352  28.135  11.901
41833W        W 8616   9.736  40.094  12.325
41834W        W 8617  29.201  29.087   4.448
41835W        W 8618  36.545  16.591   1.755
41836W        W 8619  17.710   0.857  10.943
41837W        W 8620   0.445  18.184  13.968
41838W        W 8621  44.299  26.330  13.308
41839W        W 8622  33.580  11.245  10.677
41840W        W 8623  30.697  28.236   1.818
41841W        W 8624  25.132  18.990   4.460
41842W        W 8625  32.076  21.750   3.701
41843W        W 8626  10.707  42.437  10.520
41844W        W 8627  11.350  36.482   4.030
41845W        W 8628  15.746  26.101  13.472
41846W        W 8629  29.371  27.933   2.958
41847W        W 8630  35.344   2.078  12.594
41848W        W 8631  33.438  11.080   2.423
41849W        W 8632   9.916  17.777   1.678
41850W        W 8633  35.187   7.430  11.187
41851W        W 8634  42.817  17.240   4.943
41852W        W 8635  11.297  18.622  13.568
41853W        W 8636   8.876  41.146  14.515
41854W        W 8637   4.021   8.240  12.569
41855W        W 8638  27.928  15.854  14.951
41856W        W 8639  23.658  10.226   3.314
41857W        W 8640  29.697   3.084   3.195
41858W        W 8641  17.569  44.720   1.350
41859W        W 8642  20.519  10.189   3.275
41860W        W 8643   7.855  29.446  11.833
41861W        W 8644   5.312  14.162  12.426
41862W        W 8645  35.721   8.970   4.995
41863W        W 8646   6.248  14.679   2.861
41864W        W 8647   6.908  21.688   4.791
41865W        W 8648   6.534  18.925  11.248
41866W        W 8649  39.792   1.481  13.518
41867W        W 8650  10.838  21.699  13.198
41868W        W 8651  23.019   5.958  14.181
41869W        W 8652  33.716   0.331  14.471
41870W        W 8653  19.666  18.240   1.936
41871W        W 8654  11.844  42.749   3.666
41872W        W 8655   0.572   8.708  14.397
41873W        W 8656  35.234   3.782  11.557
41874W        W 8657  35.080   0.854   2.605
41875W        W 8658  30.206   4.912  11.900
41876W        W 8659   2.384  19.237  13.939
41877W        W 8660   5.702  28.313  14.086
41878W        W 8661  23.238   9.877  10.783
41879W        W 8662  29.870  20.135   4.656
41880W        W 8663  19.698  16.611  13.455
41881W        W 8664  44.771  39.439   1.671
41882W        W 8665  34.366   8.519  14.165
41883W        W 8666  28.032  37.484   2.839
41884W        W 8667  24.888  27.313   5.428
41885W        W 8668  11.689  35.824  13.822
41886W        W 8669   3.394  33.872  10.723
41887W        W 8670  17.106  39.517   1.853
41888W        W 8671  27.675  24.610  14.801
41889W        W 8672  20.562   4.887   2.801
41890W        W 8673   5.525   2.520   4.044
41891W        W 8674  34.796  36.642   1.114
41892W        W 8675  22.213  35.927   0.825
41893W        W 8676  33.106  19.117   4.016
41894W        W 8677  44.717  11.422  14.888
41895W        W 8678  13.381  21.704  12.883
41896W        W 8679  26.415  28.511   0.912
41897W        W 8680  13.651  15.993  14.647
41898W        W 8681  19.117   5.753  13.956
41899W        W 8682   5.920  24.185   1.619
41900W        W 8683  39.413  41.057  10.707
41901W        W 8684  44.100  27.239   0.353
41902W        W 8685  42.943  22.184  12.795
41903W        W 8686  28.975  34.936   0.875
41904W        W 8687   1.816   8.373   4.264
41905W        W 8688   2.508  10.283   4.716
41906W        W 8689  41.084  28.604  12.030
41907W        W 8690  40.820  43.964   2.687
41908W        W 8691  28.611   2.118  11.153
41909W        W 8692  16.847  33.245  14.029
41910W        W 8693  32.421  17.016   1.370
41911W        W 8694  35.276  18.022  14.846
41912W        W 8695  22.768   0.441  13.437
41913W        W 8696  38.502  11.086   0.320
41914W        W 8697  14.137  37.501  14.888
41915W        W 8698   6.831  36.380  14.568
41916W        W 8699  17.701   2.322  10.661
41917W        W 8700  39.358  44.730   4.337
41918W        W 8701  35.097  25.589   4.507
41919W        W 8702  34.411  39.569  11.615
41920W        W 8703  18.215   5.126  12.989
41921W        W 8704  17.669   0.537  13.532
41922W        W 8705  23.614  13.092   4.134
41923W        W 8706  13.694   2.294  14.971
41924W        W 8707  10.738  43.702   3.770
41925W        W 8708   6.395   0.268   1.902
41926W        W 8709  31.911  27.124  13.084
41927W        W 8710  26.104   7.823  10.717
41928W        W 8711  12.048  39.879  14.423
41929W        W 8712  37.781  36.591  13.761
41930W        W 8713  36.506   3.336  11.191
41931W        W 8714  32.203  41.486   4.164
41932W        W 8715   3.727  19.035  11.107
41933W        W 8716   7.795  42.692  13.452
41934W        W 8717  43.119  19.106   1.730
41935W        W 8718  19.206   5.645   0.308
41936W        W 8719  12.150  34.000  13.355
41937W        W 8720  38.462  20.497   1.753
41938W        W 8721  29.948  21.225  14.842
41939W        W 8722  19.563  22.682  14.718
41940W        W 8723  22.586  39.103   3.811
41941W        W 8724  26.252  32.304  13.051
41942W        W 8725   6.927  13.891   4.580
41943W        W 8726  30.256  35.927   0.937
41944W        W 8727  31.486   5.496  11.845
41945W        W 8728  28.039  37.066  13.405
41946W        W 8729  38.491  22.050  12.561
41947W        W 8730  18.624  23.575  10.875
41948W        W 8731  17.359  30.705   0.420
41949W        W 8732   7.800  20.270   4.480
41950W        W 8733  33.093  38.787   2.119
41951W        W 8734  16.001   9.351  11.042
41952W        W 8735   9.447  14.273   3.071
41953W        W 8736  15.591   6.480  12.017
41954W        W 8737  13.633  41.002  12.926
41955W        W 8738   0.886   3.928  12.641
41956W        W 8739  14.343   6.282   0.772
41957W        W 8740  22.431  13.834   3.327
41958W        W 8741  21.383  26.053   4.572
41959W        W 8742   3.212  16.703  11.270
41960W        W 8743  43.938  19.624   0.298
41961W        W 8744  37.625  15.185   2.400
41962W        W 8745  42.827   1.711   1.358
41963W        W 8746  27.117  33.098  13.848
41964W        W 8747  32.779   7.426   3.806
41965W        W 8748  33.579  18.673   0.184
41966W        W 8749  29.050   2.507  14.564
41967W        W 8750   4.190  34.282   4.720
41968W        W 8751  43.669  25.772  10.948
41969W        W 8752  28.978   5.342   4.055
41970W        W 8753   1.831  18.275   1.473
41971W        W 8754  28.114   0.319   4.879
41972W        W 8755  10.249  30.468   4.411
41973W        W 8756   1.918  36.483   2.632
41974W        W 8757  27.210  28.181  14.968
41975W        W 8758  16.195  14.693   0.761
41976W        W 8759   2.280   7.516   1.363
41977W        W 8760  25.718   7.415  14.844
41978W        W 8761  22.385  34.310  14.942
41979W        W 8762  22.193  25.410  11.758
41980W        W 8763  30.695  10.183  13.562
41981W        W 8764  35.735  16.136  11.669
41982W        W 8765  13.697  27.595   3.947
41983W        W 8766  38.938  23.670  11.661
41984W        W 8767   8.404   4.829  13.024
41985W        W 8768   6.909  21.380  11.651
41986W        W 8769  19.190  31.008  12.877
41987W        W 8770  24.488  10.676  13.899
41988W        W 8771  43.745  17.876   0.211
41989W        W 8772  29.658  23.892   0.267
41990W        W 8773   3.343  31.324   2.223
41991W        W 8774  30.752  33.452  10.585
41992W        W 8775  33.668  10.881   2.837
41993W        W 8776  26.761  13.030   2.308
41994W        W 8777   7.705  26.432  13.570
41995W        W 8778   4.543  20.593  14.420
41996W        W 8779  30.253  24.643   2.262
41997W        W 8780  15.816  16.400   3.301
41998W        W 8781  17.250   6.768   2.236
41999W        W 8782   0.368  11.267   2.823
42000W        W 8783   0.046  20.568   0.320
42001W        W 8784  28.496  20.605  14.053
42002W        W 8785  10.307  42.791   1.693
42003W        W 8786  31.465   8.909  11.495
42004W        W 8787  32.220  24.220  14.750
42005W        W 8788   4.337   3.221   2.319
42006W        W 8789  43.326  34.397  13.048
42007W        W 8790  26.591  42.265   3.673
42008W        W 8791  17.265  27.428   4.646
42009W        W 8792  10.730   3.690  12.926
42010W        W 8793  28.126   6.300   0.766
42011W        W 8794  21.592  18.701  12.947
42012W        W 8795  12.039  37.112  12.774
42013W        W 8796  20.653  27.147   3.518
42014W        W 8797  36.903  10.952   4.249
42015W        W 8798  13.278   9.412   0.942
42016W        W 8799  27.965   7.746   0.758
42017W        W 8800  41.309  17.083  11.163
42018W        W 8801  28.990   2.399  12.682
42019W        W 8802  40.918   7.312  10.649
42020W        W 8803  25.497  13.832  14.570
42021W        W 8804  25.935  25.224  13.656
42022W        W 8805   7.287  16.331   4.099
42023W        W 8806  24.129  34.938   0.180
42024W        W 8807  15.784  23.591  13.775
42025W        W 8808   3.836   8.125   0.289
42026W        W 8809   1.401  37.611  12.026
42027W        W 8810  30.158  10.278   3.776
42028W        W 8811  38.569  33.568   0.756
42029W        W 8812  44.236  15.258   3.597
42030W        W 8813  34.271  12.357  11.647
42031W        W 8814   6.172  28.992  10.753
42032W        W 8815  38.461   9.595  13.097
42033W        W 8816  37.575  23.626   2.708
42034W        W 8817   2.724  43.580  11.221
42035W        W 8818  25.462  22.658  13.284
42036W        W 8819  15.854  14.731  12.828
42037W        W 8820  40.957  11.336   4.498
42038W        W 8821  15.893   5.803   2.519
42039W        W 8822  21.168  21.619  13.505
42040W        W 8823  38.915   6.462  12.244
42041W        W 8824  29.771  25.072   1.719
42042W        W 8825  11.594  13.099   2.686
42043W        W 8826  28.813  35.408  13.612
42044W        W 8827  33.853  10.633  12.661
42045W        W 8828  40.862  23.699  13.020
42046W        W 8829  29.935  42.719  11.457
42047W        W 8830  43.230  29.151   3.456
42048W        W 8831   4.739  22.984   4.529
42049W        W 8832  30.669  25.973   2.772
42050W        W 8833  33.881   3.674   2.922
42051W        W 8834  43.514   3.363  14.889
42052W        W 8835  14.707  13.810  11.565
42053W        W 8836   2.786  22.358  13.575
42054W        W 8837  37.068  12.329   0.893
42055W        W 8838  41.257   6.702  13.943
42056W        W 8839  22.755  35.062   3.771
42057W        W 8840  15.076   6.227   1.638
42058W        W 8841   2.605  22.268  11.138
42059W        W 8842  18.195   2.962   0.399
42060W        W 8843  17.399  33.800  12.898
42061W        W 8844  15.132  33.940   2.393
42062W        W 8845  37.624  21.714   3.201
42063W        W 8846  40.413  23.527   4.042
42064W        W 8847   9.326  27.984  14.024
42065W        W 8848  18.665  14.585   0.301
42066W        W 8849  24.628   0.373   1.281
42067W        W 8850   1.799  13.197   3.952
42068W        W 8851  25.758  21.042  11.180
42069W        W 8852  36.041  30.160   4.002
42070W        W 8853  36.536  29.866   2.131
42071W        W 8854  10.282  33.876   1.780
42072W        W 8855  37.342  25.419   0.342
42073W        W 8856   4.060   3.397   3.441
42074W        W 8857   7.159  24.570   0.556
42075W        W 8858  21.749  28.055  12.097
42076W        W 8859   4.926   9.405  10.465
42077W        W 8860   6.362  40.145  11.647
42078W        W 8861  15.071  24.259   2.781
42079W        W 8862  23.777   8.069  14.709
42080W        W 8863  33.820  44.011  10.617
42081W        W 8864  35.863   2.479   4.172
42082W        W 8865  11.693  16.857   3.901
42083W        W 8866  18.036  35.678  12.054
42084W        W 8867  40.460  19.589   4.627
42085W        W 8868  44.231  15.880   1.309
42086W        W 8869   5.920  12.532  13.020
42087W        W 8870   5.236  22.297  11.892
42088W        W 8871  44.472  39.845   1.789
42089W        W 8872  34.466  31.075   3.134
42090W        W 8873  33.279  31.915   4.209
42091W        W 8874   5.931  34.427  14.853
42092W        W 8875  10.213  26.674   1.163
42093W        W 8876   7.408  12.606   3.312
42094W        W 8877  29.690  21.742   0.745
42095W        W 8878  18.664  15.737  11.141
42096W        W 8879  13.865  28.079   3.172
42097W        W 8880  28.696  27.457   3.362
42098W        W 8881  21.841  15.889   9.744
42099W        W 8882  30.438  21.148  10.451
42100W        W 8883  17.780  14.270  13.887
42101W        W 8884  39.124   3.509   2.180
42102W        W 8885   6.608   8.781   0.315
42103W        W 8886  21.483   0.439   2.796
42104W        W 8887  18.972  36.961  13.909
42105W        W 8888  28.808  33.134  14.328
42106W        W 8889  16.556  42.629  12.734
42107W        W 8890  37.450  31.044  10.744
42108W        W 8891  36.085   9.911   1.920
42109W        W 8892  22.276  18.573   3.727
42110W        W 8893   9.854  39.444   4.109
42111W        W 8894  26.972  10.561   1.202
42112W        W 8895  10.564  40.542   0.278
42113W        W 8896  31.908   0.409   4.537
42114W        W 8897   9.790  33.075  11.627
42115W        W 8898  16.633   0.161   3.597
42116W        W 8899  37.854  26.131   3.033
42117W        W 8900  34.964  35.568   2.899
42118W        W 8901  16.994   1.734  13.088
42119W        W 8902  15.561  20.462   1.338
42120W        W 8903  42.003  23.650  10.764
42121W        W 8904   8.247  42.396  13.249
42122W        W 8905  42.990  29.498  10.915
42123W        W 8906   7.822  34.133   3.767
42124W        W 8907   6.623  43.873  13.082
42125W        W 8908  43.855   8.602  14.968
42126W        W 8909  18.461   7.242  14.762
42127W        W 8910  36.020   5.192   0.266
42128W        W 8911  44.914  39.436  14.788
42129W        W 8912  19.530   5.835   3.266
42130W        W 8913   1.689  15.041  13.424
42131W        W 8914  30.465  16.768  14.880
42132W        W 8915  44.022   1.292  12.538
42133W        W 8916  27.842   1.737   2.394
42134W        W 8917   9.175  36.243   3.237
42135W        W 8918  35.029  19.506  12.119
42136W        W 8919   3.782  41.975  14.141
42137W        W 8920  22.497  20.522  13.892
42138W        W 8921   6.784  37.388  14.293
42139W        W 8922   6.926  17.517  11.184
42140W        W 8923  38.969  10.393   1.800
42141W        W 8924  40.306  29.999  11.224
42142W        W 8925  18.188  34.847  13.920
42143W        W 8926  20.519   9.455  11.243
42144W        W 8927  27.753  26.617   4.208
42145W        W 8928   9.469   7.677  14.403
42146W        W 8929  11.944  44.283   1.364
42147W        W 8930  40.414  26.973   2.569
42148W        W 8931   8.823   8.201   5.166
42149W        W 8932  18.506  44.245   3.330
42150W        W 8933  27.129   9.396   4.494
42151W        W 8934  16.705  16.672   3.996
42152W        W 8935  14.638  15.879   3.361
42153W        W 8936  39.150  24.986   1.860
42154W        W 8937  34.665  24.128  10.658
42155W        W 8938  20.825  37.886  13.516
42156W        W 8939  19.713  34.158   4.687
42157W        W 8940  20.933  15.356   0.226
42158W        W 8941   0.267  18.072   1.387
42159W        W 8942  44.346  18.550  13.061
42160W        W 8943  35.648   0.684   1.726
42161W        W 8944  20.097   4.320   0.859
42162W        W 8945  29.024  23.663  13.110
42163W        W 8946  19.212  13.194  12.340
42164W        W 8947  40.444  40.102   1.298
42165W        W 8948  32.462  39.536   0.931
42166W        W 8949  27.012  32.467   4.315
42167W        W 8950  41.097  34.471   0.204
42168W        W 8951  10.199   6.308   4.567
42169W        W 8952   5.840  10.309   2.248
42170W        W 8953  28.011  26.068   0.448
42171W        W 8954  33.810  36.410   0.934
42172W        W 8955   6.683  40.446   2.770
42173W        W 8956  23.650  30.412   0.286
42174W        W 8957   7.912  42.816   9.858
42175W        W 8958  41.069  31.153   3.082
42176W        W 8959  38.103  24.515   2.652
42177W        W 8960  39.796  43.939  14.331
42178W        W 8961  18.328  17.027   4.170
42179W        W 8962  19.716   5.825  14.417
42180W        W 8963  19.428   6.111   4.125
42181W        W 8964  22.821  41.452   3.171
42182W        W 8965  26.176  24.098   2.709
42183W        W 8966  39.102  23.621  11.131
42184W        W 8967  27.716   2.898   3.815
42185W        W 8968   3.398  15.154   1.701
42186W        W 8969  38.407  42.997   9.953
42187W        W 8970  34.723  36.782   4.184
42188W        W 8971  25.404  39.361   5.034
42189W        W 8972   0.338  29.029  10.713
42190W        W 8973  21.142  41.961   4.952
42191W        W 8974  29.665  13.788  13.079
42192W        W 8975  15.014  20.021  14.701
42193W        W 8976  26.624  40.526   2.253
42194W        W 8977  19.787  27.399   0.765
42195W        W 8978  38.274   6.675   1.368
42196W        W 8979  35.195  39.628   0.774
42197W        W 8980  13.293  30.892  13.453
42198W        W 8981   3.711   1.838   1.184
42199W        W 8982  32.088   4.992  12.062
42200W        W 8983   2.771  39.994  13.994
42201W        W 8984  23.247  11.238   1.604
42202W        W 8985  11.547   0.095   4.896
42203W        W 8986  20.539  39.027  13.311
42204W        W 8987   7.883   4.013   1.324
42205W        W 8988  10.761  16.992  10.125
42206W        W 8989  19.715  40.884   2.311
42207W        W 8990  38.562   0.528   4.297
42208W        W 8991  37.183  40.519  11.483
42209W        W 8992   7.590  22.020   3.521
42210W        W 8993  22.035  37.018  14.047
42211W        W 8994  14.041  19.117  11.546
42212W        W 8995  22.317  27.729   1.347
42213W        W 8996  10.928   6.451   0.981
42214W        W 8997  11.655  30.499  12.126
42215W        W 8998   6.267   7.014   2.841
42216W        W 8999  21.204   1.400  10.440
42217W        W 9000   9.606  22.190  12.960
42218W        W 9001  10.792   4.182  13.068
42219W        W 9002  39.995  31.093   2.289
42220W        W 9003  11.450  40.822  13.064
42221W        W 9004  12.374  12.960   1.463
42222W        W 9005  27.968  44.385  12.185
42223W        W 9006   1.303  14.347  12.460
42224W        W 9007  12.398  26.121  11.143
42225W        W 9008   0.004  44.237  12.326
42226W        W 9009  28.036   6.836   0.794
42227W        W 9010  14.854  13.647  14.043
42228W        W 9011  39.068  23.873   4.366
42229W        W 9012   3.213   2.324  12.012
42230W        W 9013  30.865  14.769  12.397
42231W        W 9014   4.335  42.860   3.362
42232W        W 9015  27.322  27.825  13.934
42233W        W 9016  39.489  23.975  13.153
42234W        W 9017  12.496  38.137   4.068
42235W        W 9018  24.765  32.860  13.547
42236W        W 9019  22.222  41.095  10.780
42237W        W 9020   7.166   3.862  14.617
42238W        W 9021  14.049  26.636  10.607
42239W        W 9022  42.029  40.097   0.727
42240W        W 9023  33.835  30.118  13.086
42241W        W 9024   8.250  12.078   3.925
42242W        W 9025  43.856  29.084   4.105
42243W        W 9026  20.195  16.634  12.454
42244W        W 9027   5.473  37.840  12.257
42245W        W 9028  23.631  40.275  12.511
42246W        W 9029  10.510  28.470   3.559
42247W        W 9030  13.056  10.917  12.100
42248W        W 9031  12.728   0.941   0.995
42249W        W 9032  30.605  20.987  14.459
42250W        W 9033  24.075  28.915  14.995
42251W        W 9034   7.685  31.850   4.157
42252W        W 9035  43.528   1.928   2.278
42253W        W 9036   2.215  32.104   2.183
42254W        W 9037   5.630  22.421   0.434
42255W        W 9038  40.793   6.908  13.941
42256W        W 9039   7.013  35.293  14.798
42257W        W 9040  33.052  37.604   4.974
42258W        W 9041   0.889   4.913   5.086
42259W        W 9042  42.916  32.302   3.874
42260W        W 9043  40.873  19.029  11.025
42261W        W 9044  16.801  13.284   4.078
42262W        W 9045  18.213  41.589   2.781
42263W        W 9046   9.175  22.675  13.481
42264W        W 9047   0.628  16.356   3.473
42265W        W 9048  31.365  31.682   2.807
42266W        W 9049  21.232  22.260   4.463
42267W        W 9050  17.727  18.086   1.813
42268W        W 9051  43.014  41.566   0.894
42269W        W 9052  16.859  21.194   3.977
42270W        W 9053  10.347  22.615   0.759
42271W        W 9054  12.495  33.187   3.235
42272W        W 9055  33.014   5.898   2.682
42273W        W 9056  12.604   5.088   0.557
42274W        W 9057  29.225  12.837   4.106
42275W        W 9058   2.511   8.495  12.448
42276W        W 9059  10.932  23.084  12.483
42277W        W 9060  10.881  30.793   3.749
42278W        W 9061  37.157  16.218   1.244
42279W        W 9062   9.827   9.418  11.517
42280W        W 9063  39.652  26.728   4.139
42281W        W 9064  13.749  29.355  14.966
42282W        W 9065  18.698  34.494   3.913
42283W        W 9066  25.852  15.448   1.910
42284W        W 9067  30.852  19.289   1.975
42285W        W 9068   4.483  15.250  10.766
42286W        W 9069  41.145  37.533   0.085
42287W        W 9070  31.141  17.144  11.228
42288W        W 9071   0.153  34.245   4.127
42289W        W 9072   2.755   7.519  12.554
42290W        W 9073  29.095   5.955  11.204
42291W        W 9074  12.067  19.153  11.028
42292W        W 9075  22.148  22.018  14.990
42293W        W 9076   8.260   5.328  14.408
42294W        W 9077  20.999   2.608   0.030
42295W        W 9078  15.130  15.718   3.311
42296W        W 9079   3.417  22.171   0.442
42297W        W 9080   8.877  13.171   1.604
42298W        W 9081  42.835  38.018  10.763
42299W        W 9082   3.337  12.645   2.808
42300W        W 9083  25.213  40.022   0.426
42301W        W 9084   7.366   4.557   3.714
42302W        W 9085   4.901  22.611   1.880
42303W        W 9086  44.902  14.219   2.317
42304W        W 9087   3.758  43.972  13.099
42305W        W 9088  14.711  36.498  12.134
42306W        W 9089  12.304  22.009  14.958
42307W        W 9090  28.187  28.002  11.040
42308W        W 9091  37.583  30.159  10.653
42309W        W 9092  44.564  23.053   3.034
42310W        W 9093  32.502  38.382  13.525
42311W        W 9094  35.921   1.580   0.820
42312W        W 9095  21.719  28.393  12.680
42313W        W 9096   0.026  42.671  14.090
42314W        W 9097  12.892  10.282  13.264
42315W        W 9098  17.236  21.005  11.975
42316W        W 9099  21.096  21.772   0.801
42317W        W 9100  28.522  44.873  14.739
42318W        W 9101   1.245  36.255   4.311
42319W        W 9102  31.949  25.298  10.665
42320W        W 9103  43.051  31.749   4.966
42321W        W 9104  10.752  43.015  11.186
42322W        W 9105  18.739  44.095  12.855
42323W        W 9106  33.058  42.552   1.928
42324W        W 9107  31.712  31.135   2.202
42325W        W 9108  19.343  40.476  13.912
42326W        W 9109  10.616  39.815   3.792
42327W        W 9110  28.978  40.361  10.353
42328W        W 9111  19.675  28.791  11.164
42329W        W 9112  28.209   8.130  10.683
42330W        W 9113  21.632  34.857  14.460
42331W        W 9114  19.950  34.996  11.536
42332W        W 9115   5.399   0.948   3.144
42333W        W 9116  29.412  41.339  11.548
42334W        W 9117  23.874  23.499  14.345
42335W        W 9118  39.837   9.593  12.881
42336W        W 9119  33.031  39.972  12.430
42337W        W 9120  23.102  20.558  11.501
42338W        W 9121   9.896  25.927   4.107
42339W        W 9122   1.926  33.116   4.949
42340W        W 9123  32.916   3.420   4.851
42341W        W 9124  22.292  19.641   4.249
42342W        W 9125  19.109  20.134   3.360
42343W        W 9126  33.598  13.772  10.572
42344W        W 9127   1.749  37.481   1.010
42345W        W 9128   0.419  21.764   4.583
42346W        W 9129   9.925  40.304   0.792
42347W        W 9130  18.687  16.735  11.537
42348W        W 9131  26.490  41.805  13.787
42349W        W 9132  24.021  38.341  13.290
42350W        W 9133   1.453  20.515  12.442
42351W        W 9134  29.156  22.481  14.815
42352W        W 9135  12.697  17.357   3.962
42353W        W 9136  32.454  10.199  12.001
42354W        W 9137  27.496   9.854  12.815
42355W        W 9138  37.613  33.024   0.521
42356W        W 9139   7.787  25.754   0.257
42357W        W 9140  10.853  33.457   0.424
42358W        W 9141   9.203  11.909  10.969
42359W        W 9142  10.355   0.302   2.260
42360W        W 9143  26.642   8.755  11.176
42361W        W 9144  36.879  21.732   4.215
42362W        W 9145  12.827  32.583  11.394
42363W        W 9146  37.482  35.908   0.371
42364W        W 9147   0.699   0.812  13.041
42365W        W 9148  22.674  15.871  14.027
42366W        W 9149   3.659  22.679  12.576
42367W        W 9150  33.063  13.085  11.976
42368W        W 9151  36.491  30.025   4.773
42369W        W 9152  21.204  30.569   0.384
42370W        W 9153   9.570  20.754  13.792
42371W        W 9154  43.891  33.967  10.591
42372W        W 9155  18.106  19.763  13.914
42373W        W 9156  39.614  28.534   4.826
42374W        W 9157  35.548  35.699  10.329
42375W        W 9158  16.537  27.410  13.383
42376W        W 9159   8.586  27.408   2.698
42377W        W 9160   3.694   9.346   4.109
42378W        W 9161  17.794  18.743  10.577
42379W        W 9162  41.830  37.900  11.246
42380W        W 9163  28.540  29.339  10.666
42381W        W 9164  40.325  35.499   1.869
42382W        W 9165   7.458  13.837   1.251
42383W        W 9166  19.217  32.035   1.322
42384W        W 9167  28.186  26.154   0.939
42385W        W 9168   6.753  10.184  14.448
42386W        W 9169   7.809  30.969  12.664
42387W        W 9170  15.209  29.014  14.987
42388W        W 9171  31.980  22.538  11.930
42389W        W 9172  12.090  33.226   0.699
42390W        W 9173  10.104  40.860  14.026
42391W        W 9174  10.269  26.723  13.778
42392W        W 9175  18.093  39.582   4.680
42393W        W 9176  37.734  35.200  12.538
42394W        W 9177  17.342  15.331   1.134
42395W        W 9178   8.850   8.740   3.822
42396W        W 9179  43.756  12.735  14.125
42397W        W 9180  14.872  25.923   4.109
42398W        W 9181  39.004  11.697  13.404
42399W        W 9182   3.846  19.387  11.498
42400W        W 9183  31.006   1.836  10.669
42401W        W 9184  39.479  33.622  14.994
42402W        W 9185   1.618  24.237   0.531
42403W        W 9186  37.162   9.943   2.877
42404W        W 9187  43.991  40.999   4.708
42405W        W 9188  16.349  22.703   2.211
42406W        W 9189   3.693  34.486   3.538
42407W        W 9190  10.093   5.392  11.977
42408W        W 9191   9.644  35.625  13.450
42409W        W 9192  22.859  23.909  13.380
42410W        W 9193  44.379  40.772  12.362
42411W        W 9194  29.953  40.882  13.848
42412W        W 9195  18.592  38.743   2.219
42413W        W 9196  43.025  35.094  10.667
42414W        W 9197  28.461  36.460  11.573
42415W        W 9198   8.624  15.688  14.246
42416W        W 9199  38.072  41.862   2.767
42417W        W 9200  38.107   3.407  11.626
42418W        W 9201  32.922  39.955   3.486
42419W        W 9202   1.491  39.949   4.620
42420W        W 9203  13.167   5.422   3.820
42421W        W 9204  16.325  42.553  13.509
42422W        W 9205  29.992  17.370   3.619
42423W        W 9206  27.536  31.522   5.043
42424W        W 9207   7.839  38.102  14.886
42425W        W 9208  20.997   6.789  11.668
42426W        W 9209  20.165  11.436   1.932
42427W        W 9210  36.590  34.836  12.010
42428W        W 9211   7.900  13.946  14.230
42429W        W 9212  16.268  20.257  13.172
42430W        W 9213  29.236  16.784  14.370
42431W        W 9214   3.773  28.951  10.628
42432W        W 9215  33.503   5.309  14.575
42433W        W 9216  20.780   9.085   2.705
42434W        W 9217   3.269  13.124   3.138
42435W        W 9218   4.902   2.240   1.766
42436W        W 9219  36.501  37.085   3.709
42437W        W 9220   8.830  27.535  10.665
42438W        W 9221  39.015   4.626  14.411
42439W        W 9222  16.396  14.676  12.003
42440W        W 9223  38.452   2.816  13.612
42441W        W 9224  18.193  38.316   1.210
42442W        W 9225  43.770   9.713  13.858
42443W        W 9226  44.955  44.365  11.418
42444W        W 9227  15.799  20.949  12.132
42445W        W 9228  34.118  34.533  12.784
42446W        W 9229  31.699  43.691  12.417
42447W        W 9230  25.003  14.805  12.789
42448W        W 9231   0.336  41.173  12.969
42449W        W 9232  34.856  32.526   3.445
42450W        W 9233  43.888  29.421  13.308
42451W        W 9234  34.544  22.201   0.125
42452W        W 9235  24.777  36.892  14.689
42453W        W 9236  40.060  27.258   3.801
42454W        W 9237  22.750  11.315   1.724
42455W        W 9238   7.816  34.535   0.011
42456W        W 9239   0.803  13.988  13.957
42457W        W 9240  20.376  18.263   0.389
42458W        W 9241  31.092   1.007  11.602
42459W        W 9242  32.148  14.888   0.358
42460W        W 9243   8.035   6.750  11.258
42461W        W 9244   2.194  40.099   2.554
42462W        W 9245  44.966  16.180   4.192
42463W        W 9246   7.090  33.478   0.894
42464W        W 9247  37.410  30.088   0.333
42465W        W 9248  27.527  12.365  11.621
42466W        W 9249  18.564  39.805  10.621
42467W        W 9250  18.359  18.652   4.712
42468W        W 9251   6.423  13.335  13.847
42469W        W 9252  42.431   5.316   2.263
42470W        W 9253   6.684  29.858  14.401
42471W        W 9254  21.969  20.485  13.041
42472W        W 9255  18.760  40.219  10.863
42473W        W 9256  26.738  16.731  11.091
42474W        W 9257   3.057  24.786  10.723
42475W        W 9258  17.122  23.577  14.112
42476W        W 9259  23.965  20.730  13.428
42477W        W 9260   5.438  16.454  14.376
42478W        W 9261  20.242   3.682   1.851
42479W        W 9262  27.971   4.619  12.086
42480W        W 9263  38.501   0.356   1.828
42481W        W 9264  32.625  44.612  10.039
42482W        W 9265   3.808  34.564   4.534
42483W        W 9266   5.454   3.908  13.484
42484W        W 9267  44.687   5.365   0.867
42485W        W 9268  32.030   7.944  14.825
42486W        W 9269   9.854   1.218   3.204
42487W        W 9270  41.130   2.939   3.197
42488W        W 9271  32.023  35.796   4.229
42489W        W 9272  15.445  25.900   2.612
42490W        W 9273   8.270  22.325  11.417
42491W        W 9274  34.207  37.741  14.546
42492W        W 9275   5.087  26.650  13.341
42493W        W 9276  38.337  34.200   0.304
42494W        W 9277  31.453  10.204  14.060
42495W        W 9278  38.901   8.975   3.815
42496W        W 9279   6.491  39.983   2.715
42497W        W 9280   2.252  27.715  12.969
42498W        W 9281   4.768  40.129   4.720
42499W        W 9282   1.469  39.832  11.218
42500W        W 9283  19.645  42.007   3.755
42501W        W 9284  28.083  32.959   3.819
42502W        W 9285  25.094  23.859   5.106
42503W        W 9286   9.808  37.486  11.505
42504W        W 9287  20.531  13.786   2.353
42505W        W 9288   6.513  41.233  13.027
42506W        W 9289  43.787  38.833   0.316
42507W        W 9290  15.729  22.095   1.677
42508W        W 9291   1.770  19.437  13.263
42509W        W 9292  34.621  15.684   1.565
42510W        W 9293  17.283  42.824  11.335
42511W        W 9294  36.839  16.526  13.680
42512W        W 9295  35.962   8.667   2.775
42513W        W 9296  33.135  34.417   2.042
42514W        W 9297  29.912   1.169  11.944
42515W        W 9298  17.914  32.583  13.429
42516W        W 9299  37.013   3.801  12.949
42517W        W 9300  25.821  19.383  13.254
42518W        W 9301  42.610   5.860  11.541
42519W        W 9302  39.913   1.980   4.505
42520W        W 9303  25.532  18.767   0.867
42521W        W 9304  30.562  36.911  11.040
42522W        W 9305  42.678   9.782   3.457
42523W        W 9306   4.748  22.175  13.680
42524W        W 9307  11.947  38.873   3.621
42525W        W 9308  25.071   7.101   1.957
42526W        W 9309  21.381  44.974   3.037
42527W        W 9310  28.211  16.563  12.994
42528W        W 9311  32.726  38.530   1.851
42529W        W 9312  18.143   3.276  14.820
42530W        W 9313  11.817  40.932   3.851
42531W        W 9314   6.757  14.069  12.571
42532W        W 9315   1.987  26.354   3.296
42533W        W 9316  31.674  39.049   2.171
42534W        W 9317   6.302   9.115   1.610
42535W        W 9318  43.719   8.662   0.895
42536W        W 9319   7.948  24.850   0.414
42537W        W 9320  11.544  10.306  12.302
42538W        W 9321  11.436  26.958  12.151
42539W        W 9322  43.645  12.279  13.579
42540W        W 9323  21.172  14.560  11.644
42541W        W 9324   4.435  32.130  13.312
42542W        W 9325  10.121  18.187   3.292
42543W        W 9326  27.932  17.716   3.854
42544W        W 9327  41.040  28.470   1.422
42545W        W 9328  16.555  36.504  11.966
42546W        W 9329  34.595  39.519   0.381
42547W        W 9330  21.609   7.728  13.824
42548W        W 9331  35.992  16.155   2.478
42549W        W 9332  39.238  38.848   0.729
42550W        W 9333  18.708  17.548   0.898
42551W        W 9334  40.351   0.852   2.180
42552W        W 9335  44.749  33.673   2.647
42553W        W 9336   2.504  41.501   4.632
42554W        W 9337  27.476  11.853  14.546
42555W        W 9338   4.529  23.626   4.858
42556W        W 9339  18.614  22.722   5.043
42557W        W 9340  38.799  15.780   1.159
42558W        W 9341  30.600   1.027  11.118
42559W        W 9342  17.527  13.626   4.420
42560W        W 9343  43.128  19.077  13.582
42561W        W 9344  15.391   4.332   1.250
42562W        W 9345  16.392  13.696   0.882
42563W        W 9346  11.620  32.611  13.117
42564W        W 9347  27.925  20.689   3.261
42565W        W 9348  25.423   0.973   4.686
42566W        W 9349   5.117   5.901  11.649
42567W        W 9350  33.485  39.119   2.122
42568W        W 9351   7.641   5.825  13.451
42569W        W 9352  34.255  44.729   2.383
42570W        W 9353  30.091  35.124   0.482
42571W        W 9354  32.125  30.545   3.256
42572W        W 9355  21.550  11.684  14.800
42573W        W 9356   4.269  24.676   0.738
42574W        W 9357  42.028  31.936   0.463
42575W        W 9358   1.161   0.459  13.351
42576W        W 9359  31.450  44.413   2.377
42577W        W 9360  27.994  19.720   2.843
42578W        W 9361   6.118  22.239  12.967
42579W        W 9362  18.226  25.190   1.631
42580W        W 9363   5.069  32.645  10.289
42581W        W 9364   5.704  31.617  12.400
42582W        W 9365  37.300  14.728  11.115
42583W        W 9366  10.451  10.988   4.924
42584W        W 9367  24.590  14.991   3.158
42585W        W 9368  35.921   5.285  12.572
42586W        W 9369  25.666   0.784   2.350
42587W        W 9370  38.858  37.015   2.209
42588W        W 9371  26.588   1.889   3.335
42589W        W 9372   6.193  17.142  10.777
42590W        W 9373   7.264   6.280   1.216
42591W        W 9374  14.574  44.739   1.321
42592W        W 9375  30.914  41.586   1.229
42593W        W 9376  30.031   9.228   1.961
42594W        W 9377   8.246  13.774   1.669
42595W        W 9378  35.482  39.392   3.370
42596W        W 9379  26.598  43.940   4.546
42597W        W 9380  36.454  24.150   4.616
42598W        W 9381   3.545  39.636   3.027
42599W        W 9382  28.403   1.538   2.221
42600W        W 9383   7.007  40.712  12.202
42601W        W 9384  42.860  30.102  14.893
42602W        W 9385  17.877  10.881  12.828
42603W        W 9386  30.411  21.711   5.088
42604W        W 9387  42.239  39.414  12.668
42605W        W 9388  13.708   3.479   1.413
42606W        W 9389  30.505  29.248  11.443
42607W        W 9390   7.960  10.224  14.501
42608W        W 9391  10.275  21.111   3.733
42609W        W 9392  26.150   4.427  12.194
42610W        W 9393  44.235  40.003   4.513
42611W        W 9394  16.538   7.738   1.043
42612W        W 9395  36.522  25.057   3.156
42613W        W 9396  30.237  29.202   0.907
42614W        W 9397  38.300  42.357   4.676
42615W        W 9398  31.853   7.351   3.503
42616W        W 9399  38.148  13.739  10.728
42617W        W 9400  24.513  23.399   1.462
42618W        W 9401  17.116  34.239  12.974
42619W        W 9402  19.102  27.209   3.716
42620W        W 9403  19.760   7.063   5.024
42621W        W 9404  25.417  44.540  11.883
42622W        W 9405   2.207  21.001   3.136
42623W        W 9406  30.975  29.590   2.004
42624W        W 9407   1.956  17.357  12.760
42625W        W 9408   4.925   4.957   0.460
42626W        W 9409  17.847  16.315   3.445
42627W        W 9410   0.006  38.146  13.623
42628W        W 9411  23.693  27.001   1.634
42629W        W 9412  37.632  41.563   0.620
42630W        W 9413   4.470  29.390  14.707
42631W        W 9414  20.108  32.540   2.480
42632W        W 9415  29.567  37.949  14.556
42633W        W 9416  13.170   7.713  14.672
42634W        W 9417   8.842  44.008   3.623
42635W        W 9418  40.995  34.909   1.725
42636W        W 9419   1.761  18.280   2.455
42637W        W 9420  35.131  24.236   4.437
42638W        W 9421  31.818  42.439   0.603
42639W        W 9422  16.166  18.171  14.415
42640W        W 9423  29.616  23.693   2.164
42641W        W 9424  23.664  18.824  11.686
42642W        W 9425  15.356  27.492   3.660
42643W        W 9426  10.479  26.147   0.333
42644W        W 9427  19.224  20.705  11.587
42645W        W 9428  30.673  39.947   4.558
42646W        W 9429  13.701  27.022  10.698
42647W        W 9430  43.248  43.522  14.843
42648W        W 9431  10.691  41.126  11.062
42649W        W 9432  38.126   5.224  13.095
42650W        W 9433   0.834  21.358  13.815
42651W        W 9434  19.037  23.996  11.100
42652W        W 9435  29.015  26.717  10.924
42653W        W 9436  42.058  35.500   2.294
42654W        W 9437   4.957  22.231   2.273
42655W        W 9438  38.152  26.212  13.099
42656W        W 9439   7.753  43.492   3.099
42657W        W 9440   2.962  43.911   4.862
42658W        W 9441   3.009  17.426  11.089
42659W        W 9442  31.999  22.952  12.220
42660W        W 9443  14.209   0.486  11.567
42661W        W 9444  31.376  40.747  11.659
42662W        W 9445   8.075  21.053  14.452
42663W        W 9446   0.930  14.798  14.597
42664W        W 9447  35.445  19.177  12.520
42665W        W 9448  16.713  20.445  11.011
42666W        W 9449  24.950  42.869  14.043
42667W        W 9450  35.151  15.601   2.847
42668W        W 9451  17.128  26.673  13.101
42669W        W 9452  32.974   4.215   0.371
42670W        W 9453  44.450  29.165   2.953
42671W        W 9454  26.192  21.726  12.450
42672W        W 9455  33.498  17.188  12.842
42673W        W 9456  10.919  32.934  12.165
42674W        W 9457   7.914  37.041   3.982
42675W        W 9458  35.105   8.001   5.015
42676W        W 9459  10.127  26.120   2.334
42677W        W 9460  44.092  15.226   1.385
42678W        W 9461  39.325  12.268   4.568
42679W        W 9462  20.773  33.867   0.289
42680W        W 9463   6.163   8.242  14.989
42681W        W 9464  42.340  22.482   4.506
42682W        W 9465   9.774  17.558   4.132
42683W        W 9466  21.785  14.742   5.744
42684W        W 9467  33.890  36.143  13.322
42685W        W 9468   3.343  30.716   0.509
42686W        W 9469  43.774  26.900   1.151
42687W        W 9470  23.158   7.710   2.743
42688W        W 9471  27.553  10.755   3.918
42689W        W 9472   3.359   8.419  11.610
42690W        W 9473   7.291  38.048  10.705
42691W        W 9474  22.578  28.566  11.773
42692W        W 9475   5.784   6.824   1.902
42693W        W 9476  16.849  33.014  10.985
42694W        W 9477  16.238  12.625   0.909
42695W        W 9478  22.213   1.865  14.636
42696W        W 9479  42.514  40.391   3.879
42697W        W 9480  19.510  16.788   4.629
42698W        W 9481  11.005  21.242   2.136
42699W        W 9482  37.070  22.328   5.396
42700W        W 9483   9.212  40.084   0.446
42701W        W 9484  18.289  35.959   3.758
42702W        W 9485  21.489  11.929   1.401
42703W        W 9486  17.729  38.487  11.904
42704W        W 9487  40.279  16.125  12.548
42705W        W 9488  14.229   1.622  11.136
42706W        W 9489   1.761  11.787  14.426
42707W        W 9490  35.663  39.869   2.160
42708W        W 9491  24.172   6.984   1.750
42709W        W 9492  19.894  30.099   2.748
42710W        W 9493   1.399   7.764  10.861
42711W        W 9494  10.765  25.481   4.031
42712W        W 9495   4.184  31.605   3.155
42713W        W 9496  37.500   9.352   2.273
42714W        W 9497  11.103  15.841   3.237
42715W        W 9498  41.070  31.597   0.345
42716W        W 9499  44.919   4.500  11.631
42717W        W 9500  10.408   4.795  11.608
42718W        W 9501  30.046   5.241  11.148
42719W        W 9502  23.737  21.515  13.548
42720W        W 9503  25.890  44.778  13.004
42721W        W 9504  12.581  14.979  14.930
42722W        W 9505  17.606  40.502   2.630
42723W        W 9506  12.921  35.540  10.696
42724W        W 9507  26.163  21.012   3.892
42725W        W 9508  34.371  30.566  14.326
42726W        W 9509  40.063   9.145   1.391
42727W        W 9510  20.989  41.623  14.397
42728W        W 9511  18.106   6.600   4.050
42729W        W 9512  43.308  22.321  14.010
42730W        W 9513  32.587  37.163   1.815
42731W        W 9514  20.121   3.886  14.750
42732W        W 9515  12.556  35.825  13.398
42733W        W 9516  19.904  10.635  14.377
42734W        W 9517  25.744   8.278   0.899
42735W        W 9518  39.850   8.936   3.748
42736W        W 9519  43.244  36.341  12.007
42737W        W 9520  13.724  24.508   2.878
42738W        W 9521  29.218  44.417  11.564
42739W        W 9522  15.772  24.290  10.690
42740W        W 9523  38.611  41.057  12.931
42741W        W 9524  21.786  29.424   3.789
42742W        W 9525   6.689  42.368   4.728
42743W        W 9526   6.682  12.533  13.165
42744W        W 9527  12.286  35.114   1.285
42745W        W 9528   8.679   2.420   1.399
42746W        W 9529   6.990  10.282  12.323
42747W        W 9530  15.338   9.151   1.765
42748W        W 9531  43.615  29.482   0.762
42749W        W 9532  31.862   0.872  12.041
42750W        W 9533   6.455  37.434  12.362
42751W        W 9534  15.045  13.507   0.472
42752W        W 9535   6.655  20.233   1.359
42753W        W 9536  15.348  26.525  14.872
42754W        W 9537  15.683   5.508  11.964
42755W        W 9538  11.815  11.128  14.846
42756W        W 9539  43.677  27.606   3.088
42757W        W 9540  36.716  14.279   2.163
42758W        W 9541  27.012  33.226   1.638
42759W        W 9542  40.234   2.822  14.365
42760W        W 9543  27.610  28.534  14.690
42761W        W 9544  20.507  21.608  12.291
42762W        W 9545  26.899  41.051  12.542
42763W        W 9546  30.444  18.946   4.806
42764W        W 9547  43.441  26.164   0.229
42765W        W 9548  11.970  29.144   1.072
42766W        W 9549  23.141  41.601   2.728
42767W        W 9550   2.693  34.337   0.994
42768W        W 9551  14.829  14.168   5.129
42769W        W 9552  33.696  34.910  10.275
42770W        W 9553  41.468  41.939   1.916
42771W        W 9554  15.995  44.422  13.328
42772W        W 9555  25.613  22.996  12.041
42773W        W 9556  42.388  10.198   0.462
42774W        W 9557   4.952  32.521  13.649
42775W        W 9558  35.809  38.346   0.345
42776W        W 9559  17.089  38.378   4.580
42777W        W 9560  14.069  37.821   1.486
42778W        W 9561  11.144  40.062   1.256
42779W        W 9562   1.844  36.789   0.299
42780W        W 9563  25.791  35.472   4.790
42781W        W 9564  15.783  22.508   4.978
42782W        W 9565  32.489  10.243   1.699
42783W        W 9566  32.172   7.829  11.976
42784W        W 9567  34.885  31.349  13.932
42785W        W 9568  35.935  24.862   2.225
42786W        W 9569  12.172  32.464  13.691
42787W        W 9570  27.176  11.304   3.984
42788W        W 9571  38.792  44.318  14.975
42789W        W 9572  19.331  15.623  12.973
42790W        W 9573  15.601  37.400  14.863
42791W        W 9574  44.381  37.970   2.804
42792W        W 9575  19.235  31.552   4.815
42793W        W 9576  42.730   7.651   0.896
42794W        W 9577  25.673  39.042   2.860
42795W        W 9578  36.963  10.307  10.623
42796W        W 9579  11.302  26.488  12.344
42797W        W 9580  37.376  37.072   1.251
42798W        W 9581   5.150   8.642   4.199
42799W        W 9582  17.136  11.997   3.879
42800W        W 9583  15.708   3.893  11.899
42801W        W 9584  16.953   8.257  10.821
42802W        W 9585   8.569   1.377   0.940
42803W        W 9586  24.586  41.033  11.826
42804W        W 9587  14.323  16.872   4.188
42805W        W 9588  30.972   0.830  14.736
42806W        W 9589  37.807  26.525   3.687
42807W        W 9590  29.692   2.706   4.117
42808W        W 9591  34.820  10.485  12.440
42809W        W 9592   4.851  15.079   4.586
42810W        W 9593  11.276  23.122  10.642
42811W        W 9594   7.627  29.567  14.790
42812W        W 9595  44.381  11.673   1.746
42813W        W 9596   6.289  12.748  10.774
42814W        W 9597  10.682   8.675   0.614
42815W        W 9598  28.984  27.437   4.221
42816W        W 9599  41.322  22.944  14.936
42817W        W 9600  31.116   8.264  11.543
42818W        W 9601   3.193  36.929   2.717
42819W        W 9602   9.827  41.569   0.030
42820W        W 9603  15.402  29.081  13.393
42821W        W 9604   3.920  25.806   0.827
42822W        W 9605   9.603  20.142   0.352
42823W        W 9606  41.025   4.448   1.505
42824W        W 9607  30.522  39.525   0.267
42825W        W 9608  40.938  44.816  11.092
42826W        W 9609  20.064  34.073  12.433
42827W        W 9610  34.394  26.026  14.914
42828W        W 9611  11.466  35.273  14.507
42829W        W 9612  38.767  30.105   1.483
42830W        W 9613   2.735   5.366  11.123
42831W        W 9614  38.028  40.994   0.999
42832W        W 9615   6.876  36.389  13.571
42833W        W 9616  38.966   2.462   4.664
42834W        W 9617  39.445  28.564   4.353
42835W        W 9618  28.913  29.628  14.380
42836W        W 9619   1.702  17.848  13.891
42837W        W 9620  15.286  18.643  12.446
42838W        W 9621  42.406  20.961  14.283
42839W        W 9622  13.174  36.840   1.752
42840W        W 9623  25.710  22.241  12.629
42841W        W 9624   0.036   6.014  13.986
42842W        W 9625  42.093  14.137  13.094
42843W        W 9626  20.990   3.961   2.322
42844W        W 9627   5.052  25.688   1.333
42845W        W 9628   3.576   8.223  14.793
42846W        W 9629  20.138  44.670   0.057
42847W        W 9630   2.715   0.861   1.162
42848W        W 9631  29.118  29.171   0.311
42849W        W 9632  18.000  43.374   3.265
42850W        W 9633  27.976  20.244  14.798
42851W        W 9634   5.256  29.846  11.157
42852W        W 9635   9.721  13.906   0.395
42853W        W 9636  23.409  34.490   0.776
42854W        W 9637   5.476  24.599  14.336
42855W        W 9638   9.130  29.779   4.129
42856W        W 9639  16.748   4.134  13.850
42857W        W 9640  44.808   0.538   1.129
42858W        W 9641  27.157  41.453  13.337
42859W        W 9642  29.052  19.524  10.682
42860W        W 9643   9.712  12.128   0.869
42861W        W 9644  33.501  17.335   2.730
42862W        W 9645  27.284  44.748   0.900
42863W        W 9646  40.028  22.027  11.493
42864W        W 9647  39.857  35.010   0.219
42865W        W 9648   7.857  19.969   1.189
42866W        W 9649  38.441  11.913  14.990
42867W        W 9650  23.480  18.731   4.499
42868W        W 9651  43.470   4.718   0.914
42869W        W 9652  13.106   9.754  14.735
42870W        W 9653  34.874  33.981  14.339
42871W        W 9654  12.971  12.665   4.775
42872W        W 9655  14.300   1.460   2.456
42873W        W 9656  43.855  35.880  14.144
42874W        W 9657  32.798  39.431   4.237
42875W        W 9658   9.214  19.479   3.128
42876W        W 9659  11.870  42.661   4.557
42877W        W 9660   1.333   9.159  12.073
42878W        W 9661   5.262  18.760   0.177
42879W        W 9662   1.959  12.725  12.982
42880W        W 9663  35.880  13.835  13.810
42881W        W 9664  29.344  34.914  10.405
42882W        W 9665   6.578   8.300  10.460
42883W        W 9666  21.303   0.851  12.532
42884W        W 9667   1.249  39.563   3.840
42885W        W 9668   1.860  34.977   4.172
42886W        W 9669   6.652  12.167   3.331
42887W        W 9670  24.076   0.848   3.145
42888W        W 9671  37.369  18.481  14.859
42889W        W 9672   1.750  44.714   4.162
42890W        W 9673  34.412   7.414  12.019
42891W        W 9674   3.671  29.769   1.437
42892W        W 9675  39.459  31.849  14.464
42893W        W 9676  10.684  37.933  14.401
42894W        W 9677  42.333  25.786   0.259
42895W        W 9678   3.828  13.276  12.848
42896W        W 9679  16.606   6.184  11.366
42897W        W 9680  33.453   6.685   2.868
42898W        W 9681  38.181   0.464   4.653
42899W        W 9682   4.830   9.371   2.280
42900W        W 9683  37.494  42.831   3.780
42901W        W 9684  19.115  17.670   3.533
42902W        W 9685  15.054   5.805   3.666
42903W        W 9686  28.874  38.388   3.635
42904W        W 9687  15.077   5.847   4.191
42905W        W 9688  16.071  24.537  14.387
42906W        W 9689   4.826   2.649   2.578
42907W        W 9690  24.877  18.562  12.297
42908W        W 9691  37.872  22.870  12.496
42909W        W 9692  36.966   2.406   1.260
42910W        W 9693  42.386  24.048   3.863
42911W        W 9694  31.145  14.585   3.358
42912W        W 9695  43.001   4.337  11.476
42913W        W 9696  15.237  28.680   0.791
42914W        W 9697   5.094  20.045   0.255
42915W        W 9698  14.811  44.149   0.470
42916W        W 9699  32.309  32.649   4.462
42917W        W 9700  15.403  35.156  12.460
42918W        W 9701  35.042  15.476   0.280
42919W        W 9702  25.670  13.621   3.627
42920W        W 9703  34.384   1.044   0.452
42921W        W 9704   2.856  36.462   0.531
42922W        W 9705   4.436  44.641   0.257
42923W        W 9706  42.450  29.239  12.230
42924W        W 9707  41.150  36.924   4.622
42925W        W 9708  28.331  38.428   2.754
42926W        W 9709  24.540  32.528  12.092
42927W        W 9710   1.165  35.584   0.453
42928W        W 9711  38.998  43.387   0.440
42929W        W 9712  19.582   0.555  12.817
42930W        W 9713  26.413   0.959  10.535
42931W        W 9714  38.687  37.625   4.504
42932W        W 9715  19.571   8.141   2.532
42933W        W 9716   3.263  32.468  12.728
42934W        W 9717  39.841  32.626   4.228
42935W        W 9718  22.316  10.639  14.914
42936W        W 9719  11.213  37.703   3.157
42937W        W 9720  21.024  25.085  12.828
42938W        W 9721  39.635   4.203   2.716
42939W        W 9722   5.613  40.323  10.647
42940W        W 9723  23.963   7.382   2.233
42941W        W 9724  34.552  25.897  13.560
42942W        W 9725  25.056  39.569   4.693
42943W        W 9726   4.416  30.036   0.342
42944W        W 9727  21.133  39.873   2.164
42945W        W 9728   0.475  14.406   2.751
42946W        W 9729  35.153  26.975  12.481
42947W        W 9730  25.325  28.175  13.390
42948W        W 9731  35.822  24.140  13.476
42949W        W 9732  37.068  42.992   1.848
42950W        W 9733  19.898   7.273   4.562
42951W        W 9734  25.632  11.168   1.164
42952W        W 9735  23.190  19.931   0.013
42953W        W 9736   2.906  27.965   4.881
42954W        W 9737  12.569  29.491   0.348
42955W        W 9738   9.796   3.476  12.494
42956W        W 9739  23.108   4.483  10.955
42957W        W 9740   1.932  43.934   2.286
42958W        W 9741  23.476  41.079   0.814
42959W        W 9742  29.168   4.324  13.484
42960W        W 9743  11.433  15.244  13.493
42961W        W 9744  20.996  30.470  12.914
42962W        W 9745  39.096  29.437  12.512
42963W        W 9746   5.660  44.514   3.642
42964W        W 9747  35.542  38.843   1.394
42965W        W 9748   1.317  23.637  14.980
42966W        W 9749  23.150  10.151  12.164
42967W        W 9750  26.682  28.531  12.629
42968W        W 9751  30.602  13.128   0.317
42969W        W 9752  27.630  40.978   1.768
42970W        W 9753  11.192   4.683   1.738
42971W        W 9754   6.392  15.130   1.305
42972W        W 9755  12.574   9.032  14.949
42973W        W 9756  10.186  36.791  12.917
42974W        W 9757  37.865  15.173   3.276
42975W        W 9758   6.938  24.815   4.588
42976W        W 9759  37.134  16.123   2.190
42977W        W 9760  41.954  30.964   2.189
42978W        W 9761  44.407  25.332   1.796
42979W        W 9762  33.454   9.419   3.069
42980W        W 9763  36.037  11.891  12.219
42981W        W 9764  30.146   8.388  11.543
42982W        W 9765   2.723  36.104  13.594
42983W        W 9766  16.500  35.863   3.708
42984W        W 9767  35.849  33.546  11.586
42985W        W 9768  31.687  33.792  11.168
42986W        W 9769  26.655   8.034   3.358
42987W        W 9770  43.219  44.350   2.844
42988W        W 9771  17.592  40.413   2.100
42989W        W 9772   7.301  10.601  11.175
42990W        W 9773  15.338  38.975   1.048
42991W        W 9774  29.977   6.668   0.846
42992W        W 9775  30.500  32.382   2.369
42993W        W 9776  23.110   2.838   1.265
42994W        W 9777  11.552  40.612  13.532
42995W        W 9778   5.738   5.833  10.966
42996W        W 9779   2.698   8.366  12.927
42997W        W 9780  18.538  33.341  14.256
42998W        W 9781  19.254  28.561  14.238
42999W        W 9782  33.753  39.033  12.855
43000W        W 9783  19.161  29.895   1.027
43001W        W 9784  44.497  33.475  12.979
43002W        W 9785   2.513  39.182  11.974
43003W        W 9786  29.247  39.772  12.989
43004W        W 9787  18.980  14.751  13.081
43005W        W 9788   5.392  22.496  13.053
43006W        W 9789  27.553  36.632   1.334
43007W        W 9790  27.982  19.646   3.708
43008W        W 9791   5.115   1.363   3.266
43009W        W 9792  37.693  27.384  12.450
43010W        W 9793  16.832   3.729   0.275
43011W        W 9794  40.031  43.472  13.546
43012W        W 9795  16.131  22.098  11.815
43013W        W 9796   2.811  40.298  11.584
43014W        W 9797  16.719  16.984  14.741
43015W        W 9798  10.142  36.123  10.992
43016W        W 9799  29.215  41.879   2.829
43017W        W 9800  34.935   5.377   3.405
43018W        W 9801   2.431  43.656  14.294
43019W        W 9802   2.440  42.470  10.760
43020W        W 9803  20.250  22.946   0.360
43021W        W 9804  44.181   8.843  13.836
43022W        W 9805  15.186  42.524   1.789
43023W        W 9806  44.478  11.347  13.517
43024W        W 9807   2.890  31.871   1.702
43025W        W 9808  25.955  32.804   3.186
43026W        W 9809   9.953  41.723  11.498
43027W        W 9810   5.850  13.777   3.762
43028W        W 9811  42.756  26.907   2.699
43029W        W 9812  14.338  41.823   0.934
43030W        W 9813  17.695  42.366   3.646
43031W        W 9814  39.377  18.146  11.598
43032W        W 9815  28.319  36.424  11.073
43033W        W 9816  25.676   7.776   0.269
43034W        W 9817   4.528  27.608  10.562
43035W        W 9818  38.163  33.240  11.561
43036W        W 9819  40.494  43.661  14.757
43037W        W 9820  12.647  35.040   0.315
43038W        W 9821  31.429   4.412   1.276
43039W        W 9822  43.271  12.292  14.966
43040W        W 9823  15.241  36.948   3.337
43041W        W 9824  15.578  36.843   2.288
43042W        W 9825  41.970   5.965  10.426
43043W        W 9826  28.085  42.795  14.000
43044W        W 9827  26.029   9.667  12.455
43045W        W 9828  36.071  29.600   2.141
43046W        W 9829  15.133  42.963   2.060
43047W        W 9830   7.319  43.390  13.268
43048W        W 9831  39.844   6.377   3.740
43049W        W 9832  40.375   0.249   0.649
43050W        W 9833   0.431  36.010   3.640
43051W        W 9834  42.745   0.545   0.245
43052W        W 9835  18.615   3.479  13.911
43053W        W 9836  10.192  33.911   5.028
43054W        W 9837  38.306   7.454  13.354
43055W        W 9838  40.553  32.989  11.536
43056W        W 9839  30.043  30.648  13.517
43057W        W 9840  20.069  20.012  12.949
43058W        W 9841  44.292  35.815   1.565
43059W        W 9842  30.972  16.799  13.897
43060W        W 9843  33.499  34.182   3.290
43061W        W 9844  27.741  23.488  11.033
43062W        W 9845   8.645  23.544   0.784
43063W        W 9846   7.716  23.991   3.210
43064W        W 9847  25.430  10.154   3.231
43065W        W 9848   0.448  24.729  11.138
43066W        W 9849   1.296  40.444  13.506
43067W        W 9850   7.882   0.393   2.114
43068W        W 9851  30.813  11.269   2.773
43069W        W 9852   0.751  18.712   2.746
43070W        W 9853  14.648   5.220  12.074
43071W        W 9854  19.037   1.997  11.711
43072W        W 9855  17.094   6.929   3.389
43073W        W 9856  34.487   7.153  11.570
43074W        W 9857  37.979  11.077  12.959
43075W        W 9858   0.001   6.917  11.793
43076W        W 9859  27.078  39.300  10.738
43077W        W 9860  33.553   2.173  10.692
43078W        W 9861  20.993  23.573  13.038
43079W        W 9862  17.248  37.493  12.451
43080W        W 9863   6.140  20.175   1.349
43081W        W 9864  41.281  23.043  14.002
43082W        W 9865  32.478  15.393  14.058
43083W        W 9866   2.714  32.092   0.324
43084W        W 9867   0.463  40.816   3.795
43085W        W 9868  11.801  13.600  14.967
43086W        W 9869   6.782  31.872   0.535
43087W        W 9870  29.762   6.226   2.116
43088W        W 9871  21.609  44.332  13.033
43089W        W 9872  43.301  39.246   0.761
43090W        W 9873  43.579   3.264  12.901
43091W        W 9874  33.644  39.827   0.332
43092W        W 9875  28.902   1.805   0.029
43093W        W 9876   7.940  41.865  12.949
43094W        W 9877  30.358   4.980   4.092
43095W        W 9878  24.547   1.496  12.040
43096W        W 9879  15.628  33.924   0.956
43097W        W 9880   3.864  26.673   9.926
43098W        W 9881  28.034  33.643  10.657
43099W        W 9882  25.327  35.582   1.205
43100W        W 9883  11.946   3.793  11.611
43101W        W 9884  39.866   3.960   2.308
43102W        W 9885  40.692  43.993  12.344
43103W        W 9886  10.374  14.955  13.570
43104W        W 9887   9.237   5.854  13.376
43105W        W 9888  36.400  41.551  12.079
43106W        W 9889  27.562  15.132  13.423
43107W        W 9890  35.515  42.254   1.788
43108W        W 9891  34.559  26.157   2.869
43109W        W 9892   1.069  39.517  10.520
43110W        W 9893  16.753   6.235  14.788
43111W        W 9894  18.273   6.738   2.236
43112W        W 9895   0.688  26.060   3.121
43113W        W 9896  42.541  13.102   0.850
43114W        W 9897  15.132  44.695  11.107
43115W        W 9898  21.211  26.237  10.867
43116W        W 9899   2.126  20.602   3.766
43117W        W 9900   8.631  15.506  10.746
43118W        W 9901  44.531  40.798   4.240
43119W        W 9902  26.434   3.818   1.413
43120W        W 9903  35.561  33.940  12.536
43121W        W 9904  12.765  34.778  11.504
43122W        W 9905   9.781  16.780   3.635
43123W        W 9906  28.665   0.017   2.341
43124W        W 9907   4.282   7.220  14.287
43125W        W 9908  35.100  15.369  13.775
43126W        W 9909  11.624  29.484   3.191
43127W        W 9910   8.824  36.730  10.696
43128W        W 9911  25.504  30.479  11.473
43129W        W 9912  13.406  24.838   0.794
43130W        W 9913  34.554  26.072  11.851
43131W        W 9914   5.337   9.297  14.614
43132W        W 9915  25.965  15.215  10.760
43133W        W 9916   0.051  18.778   4.179
43134W        W 9917  25.488   2.202   4.173
43135W        W 9918  28.554   4.704   3.710
43136W        W 9919  17.504  17.140   4.467
43137W        W 9920  20.898  12.892   2.673
43138W        W 9921   7.188  12.772  10.765
43139W        W 9922  44.736   5.752   0.520
43140W        W 9923  31.944  39.108   3.847
43141W        W 9924  37.298  16.570  10.087
43142W        W 9925  29.519   9.342   1.176
43143W        W 9926  42.448  28.609   0.397
43144W        W 9927   0.267  42.871  10.811
43145W        W 9928  34.135   2.384  13.523
43146W        W 9929  36.196   7.486   3.600
43147W        W 9930  23.625   1.648  11.988
43148W        W 9931  13.611  24.014   4.540
43149W        W 9932  44.647  38.925  10.287
43150W        W 9933  17.524  33.583   4.227
43151W        W 9934   7.440  21.996  14.869
43152W        W 9935   1.672  29.669   1.196
43153W        W 9936   6.442  26.225   1.288
43154W        W 9937   2.694  29.075   3.366
43155W        W 9938  21.702  16.815  11.387
43156W        W 9939  27.480  29.648   1.841
43157W        W 9940   3.604  20.654   4.598
43158W        W 9941  38.424  23.051  13.897
43159W        W 9942  37.852   3.168  10.801
43160W        W 9943  23.664   0.708   2.260
43161W        W 9944  21.073   3.288   3.176
43162W        W 9945  20.461   0.302   0.757
43163W        W 9946  41.478  24.478  14.058
43164W        W 9947  18.624   0.942  13.143
43165W        W 9948  32.445   3.720   1.298
43166W        W 9949  44.898  36.871  11.573
43167W        W 9950   6.881   6.301  10.589
43168W        W 9951   0.981   9.107   3.110
43169W        W 9952  38.452  16.800   3.444
43170W        W 9953  44.040  11.209   3.138
43171W        W 9954  29.375  39.354  13.853
43172W        W 9955   2.154  33.827  11.132
43173W        W 9956  19.674   6.872  14.462
43174W        W 9957   5.042  22.434  11.036
43175W        W 9958  29.142  15.564  10.425
43176W        W 9959  29.045  18.694   4.471
43177W        W 9960  30.444   5.066  12.697
43178W        W 9961  40.323  28.957   1.742
43179W        W 9962  37.483  19.193   3.274
43180W        W 9963   9.279  19.658   0.688
43181W        W 9964  33.942  29.663  14.282
43182W        W 9965   8.940   4.224  14.293
43183W        W 9966  36.965  40.656  13.286
43184W        W 9967   1.790   2.511   2.249
43185W        W 9968  33.508  31.024   2.213
43186W        W 9969  11.557  28.195  11.063
43187W        W 9970  23.035  37.298   3.383
43188W        W 9971  34.651   0.937  13.412
43189W        W 9972  16.375  38.333  12.555
43190W        W 9973  25.534  27.283  13.362
43191W        W 9974   2.901  27.995  12.456
43192W        W 9975   8.296  33.791   2.244
43193W        W 9976  12.942  32.222  14.362
43194W        W 9977   7.235  27.350   0.422
43195W        W 9978  12.693  24.562  14.466
43196W        W 9979  32.003   0.467  12.367
43197W        W 9980  21.310  32.152  14.800
43198W        W 9981  29.632  23.131   1.884
43199W        W 9982  38.883   5.917   4.657
43200W        W 9983  37.079  34.039   3.089
43201W        W 9984  16.590  14.018   2.190
43202W        W 9985  29.563  34.567  11.860
43203W        W 9986  17.154  33.515  11.466
43204W        W 9987  21.414   6.377   4.917
43205W        W 9988  21.381  28.028  13.537
43206W        W 9989  36.386  27.185  12.184
43207W        W 9990  40.276  29.440  13.093
43208W        W 9991  14.401  42.865  13.352
43209W        W 9992   2.176  39.371   3.717
43210W        W 9993  28.665  19.518  11.025
43211W        W 9994   3.939  23.051   4.054
43212W        W 9995  12.279  19.988  13.363
43213W        W 9996   1.150  23.114  11.540
43214W        W 9997  25.540  42.050   3.333
43215W        W 9998   0.844  13.777  11.868
43216W        W 9999  24.759  21.203   1.449
43217W        W10000  33.480  27.421   4.912
43218W        W10001   8.629  37.829  12.040
43219W        W10002  43.299  15.455   0.417
43220W        W10003  40.738  21.583  14.708
43221W        W10004  24.008  32.858  13.998
43222W        W10005  35.011   1.958   0.442
43223W        W10006   5.713   0.009  12.501
43224W        W10007   5.833  36.447   4.208
43225W        W10008  21.220  15.342   3.591
43226W        W10009  41.927  35.948   4.097
43227W        W10010  20.150  23.677  12.048
43228W        W10011   2.678  30.163   1.413
43229W        W10012  29.613  25.758  14.721
43230W        W10013   0.821   9.450   4.668
43231W        W10014  34.706  37.494  13.170
43232W        W10015  34.962  43.284  12.650
43233W        W10016   2.999   9.692  12.500
43234W        W10017  29.470  28.870  10.479
43235W        W10018  20.128  30.835  10.613
43236W        W10019  42.830  18.455   5.013
43237W        W10020  18.297  11.624   4.426
43238W        W10021  31.891  11.282   0.391
43239W        W10022   3.647  35.895   0.260
43240W        W10023  28.452  22.727   2.676
43241W        W10024  26.736  35.463   3.188
43242W        W10025  42.037  19.625  14.673
43243W        W10026  38.530  44.653   4.630
43244W        W10027   5.238  43.408   2.809
43245W        W10028   5.612   5.948  12.004
43246W        W10029  17.798  32.972  14.340
43247W        W10030  21.136  39.515  12.541
43248W        W10031   9.270   0.582   4.144
43249W        W10032  14.077   5.475   4.736
43250W        W10033  13.593   6.423  10.946
43251W        W10034  29.947   4.125   4.062
43252W        W10035  21.685  28.518  11.206
43253W        W10036  11.011  36.371  10.951
43254W        W10037  32.607  16.226   3.197
43255W        W10038  40.593  36.065  13.564
43256W        W10039  40.302   5.963   0.247
43257W        W10040  41.266  26.171   1.755
43258W        W10041  17.609  24.916   0.093
43259W        W10042  33.882  40.917  11.912
43260W        W10043  11.565   0.398   1.678
43261W        W10044  22.552  17.956  12.601
43262W        W10045   3.645  32.575   2.302
43263W        W10046   5.174   7.205  12.577
43264W        W10047  32.052  24.465  11.066
43265W        W10048   6.263   5.403  10.841
43266W        W10049  22.154   8.125   1.667
43267W        W10050  36.506  21.307  14.336
43268W        W10051  22.930  13.461  14.586
43269W        W10052  23.751   6.542  12.532
43270W        W10053  28.173  22.038   3.171
43271W        W10054  27.434  23.789  10.664
43272W        W10055  37.094  37.953   0.228
43273W        W10056   6.167  38.456   3.026
43274W        W10057   3.774  30.542   0.719
43275W        W10058  33.100  43.893   0.546
43276W        W10059  19.626  17.113   1.781
43277W        W10060  21.729  11.702   2.347
43278W        W10061  10.763  28.074   3.154
43279W        W10062  14.993  31.516  14.800
43280W        W10063   3.969  27.656  13.578
43281W        W10064  32.751  15.247   4.942
43282W        W10065  21.784  30.076   2.559
43283W        W10066  34.006  34.101  11.674
43284W        W10067  22.038  23.494  14.372
43285W        W10068  14.988  34.461  10.623
43286W        W10069  34.886  26.501  14.373
43287W        W10070  10.069  10.336   1.858
43288W        W10071  18.351  21.760   2.297
43289W        W10072  14.724  39.277   0.438
43290W        W10073  40.973   8.956  11.184
43291W        W10074  26.621   2.197   3.770
43292W        W10075  33.483  42.038   1.585
43293W        W10076  43.381  12.426  14.485
43294W        W10077   0.483   6.839  14.520
43295W        W10078   6.451  20.067  14.575
43296W        W10079  17.045  33.620  14.286
43297W        W10080   3.438   2.042  12.938
43298W        W10081  19.601   8.861   0.661
43299W        W10082  16.965  25.924  11.385
43300W        W10083  17.156  23.950   2.250
43301W        W10084  18.544   2.198  11.723
43302W        W10085  42.802  11.700  14.293
43303W        W10086  29.919   0.802  13.114
43304W        W10087  27.937   7.357   1.337
43305W        W10088  14.454  24.118  12.510
43306W        W10089  42.964  43.906  11.980
43307W        W10090  21.015  34.889  12.640
43308W        W10091  27.889  23.288   1.238
43309W        W10092  41.896  21.035  10.769
43310W        W10093  38.560  25.428   1.463
43311W        W10094  28.587  17.846   1.255
43312W        W10095  37.970  32.760  11.621
43313W        W10096  35.225  14.654   3.095
43314W        W10097  34.350  22.635  12.091
43315W        W10098  12.363  37.526  13.619
43316W        W10099  32.014  26.411   0.448
43317W        W10100   8.968  40.280   4.145
43318W        W10101  25.945  19.203  12.008
43319W        W10102  37.406  36.640   3.817
43320W        W10103   4.428  15.131   3.141
43321W        W10104   0.792  12.182   3.168
43322W        W10105  18.771   4.431  13.863
43323W        W10106  14.080  42.798  13.771
43324W        W10107   5.000  37.993  10.757
43325W        W10108   4.345   2.438   3.859
43326W        W10109  11.030  20.263   2.616
43327W        W10110   2.554   1.135  12.861
43328W        W10111   0.967  31.287   0.980
43329W        W10112  24.279  39.460   0.381
43330W        W10113  16.642  32.923   1.951
43331W        W10114   7.738  35.887   0.320
43332W        W10115   7.808  10.321   0.724
43333W        W10116   0.040  16.805   3.246
43334W        W10117  25.066   1.597  11.159
43335W        W10118  35.761  30.391   1.256
43336W        W10119  21.704  26.050   4.153
43337W        W10120  41.967   3.352   2.557
43338W        W10121  13.673  24.935  13.585
43339W        W10122  34.464  43.812   0.887
43340W        W10123  22.662   5.501   3.658
43341W        W10124  44.226  22.098   1.321
43342W        W10125  25.164  40.259   2.286
43343W        W10126  20.563   7.727   4.984
43344W        W10127  38.432  21.187   2.263
43345W        W10128  16.611  37.300   3.926
43346W        W10129  21.732   5.766   3.710
43347W        W10130  21.104  18.589  10.810
43348W        W10131  18.313  32.054  10.453
43349W        W10132  30.454  41.793  10.719
43350W        W10133  17.100  44.793  14.949
43351W        W10134   5.653  24.578   2.371
43352W        W10135  37.063  24.642  11.643
43353W        W10136  42.046  10.845   2.536
43354W        W10137  31.672   7.503   1.731
43355W        W10138  12.826  37.861   3.512
43356W        W10139  23.074  38.560  11.513
43357W        W10140  11.870  13.249   3.098
43358W        W10141  17.675  12.130   5.419
43359W        W10142  15.091   4.736   1.259
43360W        W10143  26.053  43.424   3.594
43361W        W10144  20.111   2.374   3.609
43362W        W10145   1.168  34.567   3.916
43363W        W10146  33.558  32.147   2.143
43364W        W10147  27.155  19.699  11.133
43365W        W10148  16.795   1.860  13.557
43366W        W10149  14.116  44.800  13.453
43367W        W10150  17.237  17.751  11.506
43368W        W10151  32.351  38.305  11.665
43369W        W10152  12.113  30.164  14.322
43370W        W10153  41.797   6.420   3.693
43371W        W10154  24.592  39.036   1.276
43372W        W10155  40.390  15.883   1.872
43373W        W10156  11.149  23.066   0.674
43374W        W10157  11.757   0.268  12.860
43375W        W10158  20.763  11.814  10.699
43376W        W10159  24.974  41.620   5.200
43377W        W10160  36.239  16.227   1.002
43378W        W10161  23.723  34.309   2.882
43379W        W10162  42.955   2.646   0.412
43380W        W10163  14.599  34.940   1.726
43381W        W10164  44.866   5.552   2.323
43382W        W10165  38.490  28.182  14.324
43383W        W10166  40.429  22.518   5.026
43384W        W10167  36.668  36.401   0.511
43385W        W10168  28.735  35.063   0.422
43386W        W10169   1.701   7.336  11.891
43387W        W10170   1.045  27.576  12.462
43388W        W10171  23.483  12.221  13.342
43389W        W10172  32.077  44.750   1.186
43390W        W10173  12.056  20.586   2.904
43391W        W10174  42.701  15.603  13.315
43392W        W10175  15.757   8.513   2.783
43393W        W10176  31.585   4.926   1.814
43394W        W10177   9.584   3.796   1.099
43395W        W10178  15.582   2.932  12.794
43396W        W10179   0.958   3.347  11.097
43397W        W10180  24.752   2.405   3.644
43398W        W10181   1.734   9.273   0.858
43399W        W10182  38.108   6.112  12.784
43400W        W10183  37.208   2.521  13.855
43401W        W10184   1.279  17.470  12.611
43402W        W10185  42.497  13.591  13.769
43403W        W10186  13.200  11.767   2.586
43404W        W10187  10.243  21.999  12.063
43405W        W10188  13.563  10.956  12.064
43406W        W10189  21.151  28.942   0.071
43407W        W10190   3.346  35.006   0.447
43408W        W10191   2.323   4.157   0.793
43409W        W10192  15.109   8.808  10.341
43410W        W10193   0.770  42.894   5.094
43411W        W10194  17.549  15.994   2.163
43412W        W10195  23.723  17.586  14.705
43413W        W10196  10.237  42.595  10.344
43414W        W10197   1.409   6.461  14.368
43415W        W10198  38.937  14.392   2.837
43416W        W10199  19.757  37.052  13.498
43417W        W10200   1.218  44.896  13.965
43418W        W10201  35.958  26.512  11.632
43419W        W10202   3.398   6.159  14.635
43420W        W10203  31.146  11.536   3.089
43421W        W10204   2.194   3.251  11.563
43422W        W10205   3.206  38.339  14.348
43423W        W10206  18.959  25.455   0.510
43424W        W10207  10.957  24.050  12.698
43425W        W10208  26.259   8.299  14.750
43426W        W10209  16.431  13.873   5.025
43427W        W10210   3.531  14.675   2.457
43428W        W10211  30.469   8.957   1.919
43429W        W10212  12.560   1.912   0.419
43430W        W10213  23.144  33.032  13.802
43431W        W10214  41.436  28.057   4.534
43432W        W10215   7.403  29.815  12.178
43433W        W10216  13.616  36.549  13.417
43434W        W10217  43.724  16.594  11.725
43435W        W10218  34.566   1.756  13.843
43436W        W10219  41.323  42.806   0.295
43437W        W10220  12.844   1.006  13.190
43438W        W10221  19.379   3.913  13.415
43439W        W10222   4.443  38.088   4.185
43440W        W10223  40.721   9.930  11.095
43441W        W10224   6.149  32.605  10.713
43442W        W10225  40.499   9.794  11.525
43443W        W10226   4.728   1.963  11.117
43444W        W10227  41.515  40.630  11.643
43445W        W10228   1.647  30.127   2.774
43446W        W10229  41.344  43.843   4.831
43447W        W10230  43.880   1.420  13.931
43448W        W10231  29.674  25.130   3.561
43449W        W10232  12.932  40.590   4.641
43450W        W10233   4.816  36.046  14.441
43451W        W10234  15.651  19.738   4.527
43452W        W10235   6.660  10.267   3.721
43453W        W10236   8.663  39.949  11.197
43454W        W10237  39.013  11.915  14.303
43455W        W10238  28.614  11.078  11.906
43456W        W10239  15.871  30.469   4.267
43457W        W10240   1.878  31.550   1.293
43458W        W10241  20.283   6.966  12.092
43459W        W10242  38.590  37.644   0.225
43460W        W10243  15.686  30.637   3.310
43461W        W10244  37.392  27.214   4.545
43462W        W10245  36.612  29.328   1.285
43463W        W10246  30.539  36.436   3.042
43464W        W10247   8.732  30.162  10.551
43465W        W10248   2.989  37.927   0.974
43466W        W10249  28.104  30.406  12.092
43467W        W10250  23.120  38.807  12.496
43468W        W10251  38.876  43.405   0.971
43469W        W10252  22.996  44.883  11.069
43470W        W10253   0.258   9.656  13.916
43471W        W10254  34.232  23.621   4.999
43472W        W10255  18.247  17.244   4.983
43473W        W10256  38.927  15.122  10.290
43474W        W10257  22.168  35.848  10.711
43475W        W10258  42.711  37.464   3.543
43476W        W10259  42.506  34.524   0.631
43477W        W10260  38.580  18.710   4.475
43478W        W10261  25.305  25.510  13.918
43479W        W10262   5.372  19.109  12.090
43480W        W10263  16.118  34.526  14.730
43481W        W10264  37.304  43.141  12.953
43482W        W10265  41.023   4.606  11.872
43483W        W10266   7.062  44.256   2.661
43484W        W10267  37.134  13.479  13.238
43485W        W10268  14.602  39.040   1.909
43486W        W10269  25.647  33.102   4.636
43487W        W10270  11.106  25.532  11.533
43488W        W10271   1.630  34.605  12.031
43489W        W10272   2.521  34.007   1.392
43490W        W10273  42.501  20.261   2.836
43491W        W10274  36.609  21.677  13.394
43492W        W10275  29.946  17.364   0.115
43493W        W10276  37.381  26.529   2.285
43494W        W10277  27.208  42.977   4.148
43495W        W10278  29.559   4.749   1.450
43496W        W10279  28.545   1.743  14.657
43497W        W10280  10.265  25.157   1.938
43498W        W10281  23.947  39.945   4.219
43499W        W10282   2.056   1.235   4.989
43500W        W10283  32.245  42.762   5.096
43501W        W10284  15.074  12.265  14.330
43502W        W10285  36.438   1.533   3.726
43503W        W10286  30.659  24.266  12.578
43504W        W10287  22.999  17.203   4.971
43505W        W10288  43.926  30.380   3.382
43506W        W10289  28.854  27.143   3.822
43507W        W10290  25.708  18.126  10.757
43508W        W10291  34.830  30.903   1.229
43509W        W10292  38.976   5.118   3.519
43510W        W10293  10.361  25.737   4.260
43511W        W10294   9.680  22.160  14.275
43512W        W10295   9.862  29.558  14.511
43513W        W10296  37.419  44.781   1.209
43514W        W10297   1.467   7.800  11.854
43515W        W10298  15.283  43.296  11.335
43516W        W10299  14.264  25.184  14.845
43517W        W10300  19.806  31.701   1.288
43518W        W10301   7.825   3.381   4.233
43519W        W10302  30.904  35.283  12.421
43520W        W10303  12.146  44.328   3.060
43521W        W10304   3.706  26.339   2.914
43522W        W10305  40.931   1.330   3.210
43523W        W10306  12.353  25.574   0.445
43524W        W10307  29.166   7.204  13.822
43525W        W10308  36.977   5.226  13.788
43526W        W10309   9.082  27.202   0.520
43527W        W10310  15.900  41.073  14.549
43528W        W10311  15.687   0.019  10.806
43529W        W10312   0.874  40.964   4.110
43530W        W10313  34.722  22.013   3.747
43531W        W10314  22.526   0.744  13.777
43532W        W10315  44.439  33.683   4.248
43533W        W10316   3.769   8.401   1.957
43534W        W10317  32.348  38.999  11.915
43535W        W10318   8.852  10.008  11.117
43536W        W10319  42.420  40.547   3.351
43537W        W10320   7.208  31.524   4.523
43538W        W10321  17.811  20.286   3.560
43539W        W10322  20.726   4.881  11.608
43540W        W10323  31.553  26.975   0.758
43541W        W10324  28.518  26.730  12.990
43542W        W10325  31.597  41.648  11.752
43543W        W10326  33.319   0.669  12.480
43544W        W10327  39.974  22.479   4.449
43545W        W10328   3.969  24.142  12.520
43546W        W10329  13.725  43.894  14.281
43547W        W10330  31.000  26.506   0.716
43548W        W10331   6.171  43.418   1.365
43549W        W10332  41.814  12.418   1.015
43550W        W10333   9.367  35.659  11.580
43551W        W10334  40.466  10.756  12.898
43552W        W10335  28.888  39.974   1.270
43553W        W10336  14.815  32.171  14.387
43554W        W10337  34.174  30.997  13.586
43555W        W10338  23.017  43.252  12.394
43556W        W10339   8.333   2.226   0.936
43557W        W10340  44.959  11.898  13.977
43558W        W10341  32.590  19.055  11.707
43559W        W10342   8.129  21.903  11.150
43560W        W10343   7.309  31.667  12.426
43561W        W10344  40.660  40.103  10.698
43562W        W10345  37.422   8.274   1.650
43563W        W10346  42.612  44.808  14.487
43564W        W10347   0.741   5.848   0.408
43565W        W10348  33.576  20.465  11.957
43566W        W10349  26.020  38.813   1.254
43567W        W10350  19.174  14.151  11.823
43568W        W10351  36.094   7.603   2.555
43569W        W10352  40.971   4.961  12.876
43570W        W10353   2.873  26.692  13.855
43571W        W10354   8.511   0.255  12.224
43572W        W10355  19.080  37.357   1.191
43573W        W10356  13.236  40.786  14.829
43574W        W10357   9.085  10.198   0.285
43575W        W10358  35.396  20.116   1.319
43576W        W10359  23.212   4.226  13.509
43577W        W10360  34.357  36.410   0.062
43578W        W10361   4.956  17.054  12.504
43579W        W10362  28.699  24.697   2.263
43580W        W10363  11.093  10.301  12.542
43581W        W10364  26.746  16.009   3.879
43582W        W10365  14.818  14.366   0.458
43583W        W10366  16.190   7.618   2.479
43584W        W10367  26.961  30.400   4.219
43585W        W10368  25.503  16.919  14.203
43586W        W10369   6.230   6.900  14.291
43587W        W10370   8.831  24.875  13.434
43588W        W10371   1.294  14.299  10.674
43589W        W10372  26.456  36.666  11.010
43590W        W10373  19.153   0.009   0.953
43591W        W10374  16.248   6.810   2.428
43592W        W10375  34.890  26.650   1.124
43593W        W10376  16.404  42.927   2.229
43594W        W10377  11.923  27.027  11.969
43595W        W10378  43.599  27.091   0.325
43596W        W10379   9.771  36.396  14.128
43597W        W10380  19.076  14.199  11.327
43598W        W10381  42.462  28.632  11.707
43599W        W10382  33.610  43.164  13.817
43600W        W10383  18.968  20.619  11.131
43601W        W10384  26.206  22.703   3.236
43602W        W10385   5.953  18.457  11.767
43603W        W10386  25.201  13.117  13.334
43604W        W10387  22.113  15.379   0.785
43605W        W10388  27.530   3.390   2.640
43606W        W10389  18.222  22.571  10.698
43607W        W10390  36.919  15.267  14.444
43608W        W10391   8.313   6.359  12.209
43609W        W10392  30.240  22.176  14.982
43610W        W10393   9.295  42.298  13.958
43611W        W10394  28.325   6.020   2.473
43612W        W10395  23.020   7.999  14.313
43613W        W10396   5.112  39.366   3.314
43614W        W10397  34.422  32.412   2.676
43615W        W10398  22.665  41.320   1.332
43616W        W10399   1.623  33.134   2.813
43617W        W10400   4.883  35.852   4.264
43618W        W10401  19.041  19.024   3.281
43619W        W10402   4.692  33.451  14.447
43620W        W10403   5.445  11.408   0.269
43621W        W10404  23.009  19.215  12.957
43622W        W10405  28.977  33.111   3.319
43623W        W10406   0.801  11.844  10.026
43624W        W10407  14.851  24.019  14.074
43625W        W10408  43.897  38.527  11.919
43626W        W10409  41.600  14.690  12.387
43627W        W10410   7.965  11.810  10.884
43628W        W10411  39.405   4.415   2.264
43629W        W10412  10.395  11.614  11.347
43630W        W10413   8.177  30.618   9.877
43631W        W10414   3.501  10.611   3.954
43632W        W10415  19.362  24.270   2.454
43633W        W10416  33.554  26.196   2.924
43634W        W10417  23.740  35.020   3.726
43635W        W10418   6.607  35.975   0.333
43636W        W10419  21.928   6.900   1.740
43637W        W10420  10.193  28.037  14.410
43638W        W10421  17.002  30.909  10.534
43639W        W10422  23.813   6.064   3.272
43640W        W10423  29.121   8.805  12.987
43641W        W10424  12.421  25.149   0.811
43642W        W10425  11.229  34.321   4.088
43643W        W10426   8.595   3.991  12.546
43644W        W10427   5.858  35.963   2.301
43645W        W10428   6.874   4.755   3.359
43646W        W10429  28.436  27.077  14.484
43647W        W10430  27.030  29.008   4.580
43648W        W10431   6.358  12.269  11.902
43649W        W10432  11.767  44.753   3.680
43650W        W10433  44.956   7.148   4.123
43651W        W10434  30.495  16.156  10.665
43652W        W10435  39.826  14.691  12.922
43653W        W10436  41.923  37.386   0.933
43654W        W10437   9.096  31.646  10.450
43655W        W10438  14.738  34.964   4.301
43656W        W10439  34.387  18.704   2.191
43657W        W10440   9.174  30.072   3.691
43658W        W10441  44.440   5.460   2.626
43659W        W10442   8.125  25.474  12.896
43660W        W10443  26.578   5.294   0.509
43661W        W10444  30.202  44.721   2.973
43662W        W10445  32.436  44.484  14.887
43663W        W10446   8.450  18.322  12.564
43664W        W10447  13.178  38.074   3.189
43665W        W10448   6.641  42.499   0.422
43666W        W10449   9.563   7.688   2.612
43667W        W10450  28.068  27.821   5.103
43668W        W10451  15.175  12.786  12.179
43669W        W10452  26.693  19.700  10.899
43670W        W10453   8.244  22.024  14.385
43671W        W10454  15.828   6.154  14.435
43672W        W10455   7.282  42.627  12.072
43673W        W10456  14.902  21.468   1.362
43674W        W10457   2.832   0.235   0.854
43675W        W10458  15.714  40.070  10.496
43676W        W10459  41.250  36.113  11.310
43677W        W10460  43.926   2.246   3.950
43678W        W10461  26.683  18.097   0.213
43679W        W10462  39.367  22.306   1.679
43680W        W10463  34.181  30.025  13.446
43681W        W10464  29.490  31.133   1.229
43682W        W10465  32.616  19.254   2.269
43683W        W10466  25.822  24.115   0.022
43684W        W10467  21.701  12.183  11.230
43685W        W10468   5.793  39.242   3.816
43686W        W10469   5.228   3.235   2.165
43687W        W10470  12.720  31.404   0.192
43688W        W10471  44.044  35.921  11.685
43689W        W10472   9.091   6.293  11.163
43690W        W10473  35.678  27.742  14.272
43691W        W10474  27.672  29.477   3.418
43692W        W10475  15.858  42.498   2.466
43693W        W10476  34.514  24.889   3.155
43694W        W10477   2.682  35.219  10.733
43695W        W10478  40.046  30.270   1.161
43696W        W10479  12.581   5.209  11.213
43697W        W10480  36.433  13.838  12.415
43698W        W10481  31.383  13.098  14.094
43699W        W10482  43.849  14.782   2.675
43700W        W10483  28.879  44.025  12.394
43701W        W10484   9.702  11.585   0.926
43702W        W10485  14.294  31.863   1.384
43703W        W10486  41.573  22.500   1.668
43704W        W10487   1.574  12.708   2.739
43705W        W10488  13.540  13.827   1.289
43706W        W10489  10.097   6.765  14.859
43707W        W10490  44.044  12.007   0.502
43708W        W10491   9.027  34.428   0.397
43709W        W10492  29.048  17.113   4.117
43710W        W10493  13.329  30.656   4.584
43711W        W10494  21.010  43.685  13.009
43712W        W10495  22.109  11.999  13.520
43713W        W10496  43.837  19.478  12.059
43714W        W10497   2.866  27.700   3.669
43715W        W10498  19.411  39.339  10.708
43716W        W10499  26.215  41.697  12.945
43717W        W10500  13.394  10.146   2.390
43718W        W10501  29.712  38.728  11.063
43719W        W10502  29.092  21.518  11.590
43720W        W10503  44.525  23.528   3.235
43721W        W10504  27.548  25.917  10.208
43722W        W10505  39.336  44.840   3.832
43723W        W10506  15.148  38.080   4.866
43724W        W10507  22.020  13.724  14.872
43725W        W10508  33.039  10.856   2.212
43726W        W10509  20.161  21.912  12.528
43727W        W10510  42.901  35.830   0.231
43728W        W10511  11.061  38.906  12.961
43729W        W10512  35.822   8.690  10.751
43730W        W10513  44.516   7.362   4.981
43731W        W10514  37.383  31.197  11.223
43732W        W10515   2.169  37.355   5.389
43733W        W10516  42.479  13.710  12.365
43734W        W10517  30.600  41.783  12.525
43735W        W10518  38.371  14.225  10.753
43736W        W10519  24.772  25.183   3.617
43737W        W10520  41.972  18.055   0.522
43738W        W10521  27.917  40.027   3.593
43739W        W10522   0.093  11.119  12.542
43740W        W10523  37.535  35.000  12.951
43741W        W10524   5.340  39.554   2.700
43742W        W10525  28.570  18.298   4.052
43743W        W10526  34.836  16.527  13.468
43744W        W10527   1.890   9.575  11.624
43745W        W10528   3.957  35.318  11.543
43746W        W10529  25.123  27.023  13.924
43747W        W10530  13.284  21.637  14.352
43748W        W10531   6.357  16.712   0.327
43749W        W10532  17.194  22.577  12.549
43750W        W10533  30.965  29.357  10.268
43751W        W10534  16.129  28.968  10.997
43752W        W10535  14.911  24.030  12.862
43753W        W10536   0.660  24.741   4.218
43754W        W10537  19.343  26.218   4.571
43755W        W10538  23.755  23.425   3.850
43756W        W10539  16.056  37.370   0.261
43757W        W10540  21.299   6.700  12.985
43758W        W10541  27.244   2.887   0.274
43759W        W10542  15.347  43.285  14.024
43760W        W10543  43.909   2.977   0.491
43761W        W10544  16.169  23.135   4.648
43762W        W10545   6.857  11.146  12.543
43763W        W10546  15.811  21.453  12.291
43764W        W10547  44.346  20.048  14.956
43765W        W10548  17.625  22.731   4.718
43766W        W10549  33.695  17.187   4.179
43767W        W10550  29.604  41.949  14.419
43768W        W10551   6.847  33.338  11.054
43769W        W10552  29.425  10.496  11.545
43770W        W10553  27.703  38.003  14.307
43771W        W10554  30.567  31.437  14.329
43772W        W10555  20.385   2.871   9.831
43773W        W10556  38.567  40.861   2.746
43774W        W10557  13.472  28.129  11.096
43775W        W10558   6.944  13.023   1.371
43776W        W10559  34.364   1.569   0.142
43777W        W10560  30.444  11.366   0.722
43778W        W10561  12.283  37.621  11.378
43779W        W10562  36.426  13.870  13.770
43780W        W10563  38.392  37.044   3.716
43781W        W10564  39.008  31.104  13.541
43782W        W10565  14.375  34.084  13.810
43783W        W10566  37.542  17.054  13.271
43784W        W10567  33.379  19.279   1.859
43785W        W10568  33.010  21.945   4.934
43786W        W10569  41.866  39.636  12.973
43787W        W10570   6.454  33.812   3.447
43788W        W10571   1.800  26.414   1.302
43789W        W10572  19.453   3.482   4.691
43790W        W10573   9.295  40.801  14.854
43791W        W10574   5.332  19.825   1.015
43792W        W10575  18.009  25.140   2.708
43793W        W10576  44.358  39.496   3.060
43794W        W10577   7.189  32.548   1.391
43795W        W10578  26.757  13.359   2.893
43796W        W10579  33.394  32.957  11.914
43797W        W10580  12.624   7.592  14.225
43798W        W10581   0.879  25.560  14.052
43799W        W10582  39.812  35.400   3.270
43800W        W10583  42.320   2.428   3.673
43801W        W10584   3.542  37.715   4.182
43802W        W10585  15.779  14.776  10.282
43803W        W10586  24.961  39.294  14.996
43804W        W10587  24.049  19.037  13.489
43805W        W10588   9.484   9.555   0.294
43806W        W10589  38.045   0.393  10.769
43807W        W10590  25.957  17.708  14.442
43808W        W10591  35.043   4.633  14.806
43809W        W10592  34.082  18.830   0.212
43810W        W10593  10.227   5.249   2.887
43811W        W10594  14.449   5.889  13.872
43812W        W10595  12.056   8.140   2.626
43813W        W10596  28.325  11.875  11.951
43814W        W10597  42.584  41.039   2.550
43815W        W10598  32.149  29.952  13.644
43816W        W10599  26.209  43.459  14.805
43817W        W10600   0.757  40.946  14.661
43818W        W10601  39.108  31.992   2.068
43819W        W10602  44.348  37.134  14.410
43820W        W10603   9.579   4.445  13.536
43821W        W10604   9.642  11.914  11.644
43822W        W10605  29.073  39.818   1.769
43823W        W10606  41.886   6.349  11.336
43824W        W10607  25.237  25.260  14.959
43825W        W10608  31.927  16.701   4.545
43826W        W10609  29.677  36.521  10.619
43827W        W10610  41.273  18.694   1.890
43828W        W10611  37.288  42.967  12.476
43829W        W10612  34.229  42.067  12.521
43830W        W10613  44.283  42.139   3.270
43831W        W10614  11.736  33.706  14.058
43832W        W10615  17.058   0.786  10.075
43833W        W10616   7.905  16.550  10.640
43834W        W10617   3.018  14.562  14.915
43835W        W10618   0.059  35.934   1.762
43836W        W10619  31.098  28.246  12.842
43837W        W10620  20.112  32.016   3.709
43838W        W10621  23.161  42.910  12.778
43839W        W10622   6.379   1.735   4.325
43840W        W10623  42.745  37.487  11.141
43841W        W10624  13.771  19.325   3.566
43842W        W10625   4.704  29.504   1.845
43843W        W10626  23.812   6.388  13.832
43844W        W10627  19.331  31.162  11.594
43845W        W10628   0.368   5.146  13.267
43846W        W10629   0.435  37.304   4.483
43847W        W10630  14.315  37.939   0.088
43848W        W10631  23.262  27.592   1.616
43849W        W10632  27.364  39.329  10.315
43850W        W10633  44.921   6.424  12.646
43851W        W10634  16.936  31.516  14.893
43852W        W10635  11.983  14.219   2.750
43853W        W10636  36.483  12.933  13.990
43854W        W10637  28.239  31.128  13.286
43855W        W10638   7.778  38.125   1.956
43856W        W10639  24.026  22.398   4.007
43857W        W10640  25.057  37.073  11.153
43858W        W10641  16.217  10.412   4.527
43859W        W10642   1.950   9.058   1.288
43860W        W10643  19.979  41.821   2.368
43861W        W10644  15.683   8.117   3.665
43862W        W10645   0.016  40.163   4.003
43863W        W10646  31.037  19.198   1.509
43864W        W10647   5.721   4.454   3.636
43865W        W10648   7.758  24.949  14.752
43866W        W10649  24.955  14.711   4.584
43867W        W10650  16.046  36.325   5.323
43868W        W10651  19.985  21.670  14.922
43869W        W10652  14.097  13.113  14.558
43870W        W10653  14.177  33.275  13.603
43871W        W10654   2.967  31.886  14.425
43872W        W10655  35.314   9.270  10.545
43873W        W10656  28.733  44.072   2.225
43874W        W10657  37.771  32.695  12.103
43875W        W10658  33.932  12.615   1.772
43876W        W10659   4.370   6.351  10.808
43877W        W10660  34.206   9.884   4.674
43878W        W10661  25.179   0.423   4.631
43879W        W10662  28.479  38.459   0.752
43880W        W10663  36.672  17.066   5.027
43881W        W10664  13.347  30.576   0.231
43882W        W10665  33.742   3.026   1.810
43883W        W10666  38.811   2.435  11.376
43884W        W10667  16.847   8.812   4.805
43885W        W10668  41.871  34.395  12.055
43886W        W10669  39.393  37.878   3.998
43887W        W10670   8.945  32.798  12.179
43888W        W10671   7.346  22.469  12.843
43889W        W10672  34.215  39.716   4.065
43890W        W10673  12.772  39.285   2.235
43891W        W10674   9.290  31.981   0.883
43892W        W10675  13.103   2.753   0.471
43893W        W10676  24.240  32.032   0.689
43894W        W10677  32.254   7.464  14.462
43895W        W10678  39.783  38.511   3.354
43896W        W10679  39.976  12.546   0.723
43897W        W10680   8.898  14.347   3.183
43898W        W10681   2.190  34.228   1.003
43899W        W10682  28.103  41.232   4.129
43900W        W10683  42.248  21.080  11.135
43901W        W10684  14.223  23.438  10.712
43902W        W10685   8.138  27.275  11.459
43903W        W10686  31.353  36.008  12.496
43904W        W10687  21.169  28.219   0.009
43905W        W10688  19.814   3.431  12.104
43906W        W10689  36.411  38.435  11.036
43907W        W10690  18.137  31.384   0.528
43908W        W10691   8.799  30.203  14.436
43909W        W10692  42.454  33.914   2.835
43910W        W10693  10.426  41.918  11.498
43911W        W10694  14.926  31.005  14.214
43912W        W10695  41.860  43.239  14.904
43913W        W10696  11.982  24.986  14.876
43914W        W10697  40.551  27.960  12.467
43915W        W10698  41.585  37.888   4.377
43916W        W10699   3.928  41.274   1.360
43917W        W10700  32.090  17.202   4.657
43918W        W10701  23.758   3.138   2.288
43919W        W10702  23.526   1.450  12.759
43920W        W10703  30.862   1.302  12.010
43921W        W10704  11.580  12.620   1.801
43922W        W10705   9.475  22.180   1.598
43923W        W10706  36.552  41.024   1.911
43924W        W10707  23.973  44.889   4.213
43925W        W10708  20.175  42.256   0.272
43926W        W10709  22.467  30.212  12.820
43927W        W10710  37.503  13.271   1.357
43928W        W10711   1.675   0.204   1.690
43929W        W10712  37.569  44.253  11.003
43930W        W10713   7.839   3.277   0.235
43931W        W10714   4.792   1.915  12.013
43932W        W10715   2.465  42.783   2.904
43933W        W10716  33.510  32.915   2.714
43934W        W10717  36.647  20.211   4.691
43935W        W10718   2.263  27.675  11.127
43936W        W10719  30.688   7.439   3.144
43937W        W10720  15.057   0.463  14.307
43938W        W10721   6.293   8.732   0.751
43939W        W10722  17.090  35.772   3.262
43940W        W10723  16.254  41.010  13.849
43941W        W10724   9.797  23.278   3.118
43942W        W10725   7.683  27.439   1.318
43943W        W10726  43.566  18.007   1.973
43944W        W10727  10.665  40.579   2.844
43945W        W10728  20.750  35.423  14.505
43946W        W10729   3.218  15.664  13.719
43947W        W10730  12.752  26.966   0.364
43948W        W10731  20.138  23.370  13.601
43949W        W10732   4.885   2.111  12.483
43950W        W10733   3.325  29.468   3.179
43951W        W10734   2.821   3.987  12.909
43952W        W10735  19.443  42.765   1.385
43953W        W10736  33.635   0.982   1.798
43954W        W10737  39.299   4.682   3.595
43955W        W10738  22.698  38.309   2.837
43956W        W10739  21.149  24.688   0.317
43957W        W10740   6.440  21.660  14.859
43958W        W10741  16.635  17.342   1.183
43959W        W10742   3.731  43.350  12.416
43960W        W10743  39.530  22.585  13.078
43961W        W10744   4.836   9.140  11.969
43962W        W10745   5.349  40.381   2.302
43963W        W10746  40.532  43.911   1.238
43964W        W10747  18.617  15.157  10.357
43965W        W10748  40.853  17.263  11.456
43966W        W10749  44.739  13.355   2.935
43967W        W10750   1.903  43.461  11.658
43968W        W10751   3.408  42.108  12.995
43969W        W10752  35.041  42.778  11.979
43970W        W10753   5.981  29.982   0.257
43971W        W10754  11.286  42.210   0.416
43972W        W10755   0.984  35.017   3.677
43973W        W10756   6.396  13.622   1.193
43974W        W10757   8.335  43.300  14.968
43975W        W10758  36.817  32.237  14.946
43976W        W10759  10.740  36.829   0.295
43977W        W10760   5.279  15.664   1.733
43978W        W10761   8.159  39.583  10.702
43979W        W10762   4.362  35.629   4.209
43980W        W10763  43.549  13.361   1.819
43981W        W10764   9.901  14.405  11.623
43982W        W10765   7.615  16.626   3.825
43983W        W10766   4.399  18.144   1.854
43984W        W10767   5.400   3.206   3.637
43985W        W10768  40.936  38.727   3.455
43986W        W10769  32.942  21.972   4.081
43987W        W10770   3.310  34.941  14.865
43988W        W10771  19.660  37.659   0.997
43989W        W10772  27.874  32.414  11.185
43990W        W10773  27.409  35.408   0.414
43991W        W10774  19.199  16.328   3.334
43992W        W10775  20.422  14.112   1.496
43993W        W10776  31.275  36.163  12.958
43994W        W10777  44.267   6.268  14.368
43995W        W10778  43.867  27.619  14.452
43996W        W10779  26.205  30.969   2.899
43997W        W10780  14.580  23.581  14.209
43998W        W10781  41.516  38.291   0.013
43999W        W10782  26.568  42.461  14.750
44000W        W10783  38.363  16.786  13.796
44001W        W10784  37.406  32.144  11.652
44002W        W10785  15.959  10.412   3.350
44003W        W10786   3.982  12.099   2.279
44004W        W10787  39.564  22.944   2.320
44005W        W10788  23.704  40.975   2.328
44006W        W10789   7.715   5.578   4.481
44007W        W10790  25.883  38.023   1.888
44008W        W10791  39.887  30.425  14.501
44009W        W10792  41.984  14.387   0.917
44010W        W10793  17.575  42.468   0.943
44011W        W10794  13.128   2.241  13.742
44012W        W10795  32.464   1.254   2.202
44013W        W10796  27.696  26.967  10.949
44014W        W10797   9.856  40.734  14.467
44015W        W10798  30.885  24.955  11.570
44016W        W10799  22.629  22.486   4.727
44017W        W10800  28.205  34.943   0.031
44018W        W10801  34.993   0.203   4.277
44019W        W10802  18.262  24.641  14.985
44020W        W10803   4.520  29.792   2.701
44021W        W10804  29.009   4.998   0.844
44022W        W10805  11.933  37.961  11.109
44023W        W10806  41.952   2.816   1.291
44024W        W10807  43.142   0.738   2.933
44025W        W10808  31.004   0.307  14.528
44026W        W10809   4.789  37.991   3.759
44027W        W10810   7.060  42.567  11.221
44028W        W10811   2.009  41.087  13.548
44029W        W10812   1.844  18.598  14.336
44030W        W10813   0.014  30.598   0.317
44031W        W10814  12.249  16.762   0.003
44032W        W10815   2.759  26.568   2.714
44033W        W10816  18.003   1.680  12.988
44034W        W10817   9.777  28.610   3.849
44035W        W10818  25.751  25.223   2.312
44036W        W10819  27.677  25.603  12.631
44037W        W10820  29.237   3.913   3.748
44038W        W10821  11.699   7.802  11.774
44039W        W10822   9.757  21.209  14.020
44040W        W10823   5.557   5.139  13.107
44041W        W10824  26.015   0.791  12.954
44042W        W10825  40.784  29.435   2.792
44043W        W10826  38.549  44.310  14.413
44044W        W10827  17.163  26.019  14.296
44045W        W10828  11.701  41.051   0.908
44046W        W10829  16.545  15.116   3.472
44047W        W10830   8.317   5.260   0.305
44048W        W10831  24.497  19.025   1.642
44049W        W10832  42.820  21.518   0.578
44050W        W10833  30.393  31.145  11.838
44051W        W10834  24.737  14.815   3.695
44052W        W10835  29.987  13.140   1.455
44053W        W10836  22.501  17.805  13.455
44054W        W10837  10.759   7.658   0.190
44055W        W10838  10.831   5.811  14.051
44056W        W10839  24.554  43.302  13.571
44057W        W10840  32.975  19.030  13.845
44058W        W10841  14.243  26.676  11.564
44059W        W10842   2.591  39.497  13.297
44060W        W10843  19.830   2.340  11.478
44061W        W10844  19.524  21.848   4.436
44062W        W10845   1.295  39.552   4.355
44063W        W10846   4.719  28.899  10.172
44064W        W10847  31.120  28.383  10.003
44065W        W10848  42.734  28.101   1.329
44066W        W10849  27.592  15.238  10.547
44067W        W10850  14.080  20.020  11.293
44068W        W10851   4.299  36.381   4.919
44069W        W10852   3.723  34.360  10.621
44070W        W10853   3.531   6.057  12.870
44071W        W10854   8.297  33.390  10.116
44072W        W10855  44.915  24.172   3.770
44073W        W10856  42.782  23.188   0.691
44074W        W10857  14.329  33.222  12.049
44075W        W10858  39.104  30.057   0.827
44076W        W10859  31.424  44.695  11.154
44077W        W10860  13.353  40.809   3.830
44078W        W10861  21.123   6.787   1.223
44079W        W10862  11.958   8.796  11.684
44080W        W10863  35.957  27.155   3.685
44081W        W10864  19.332  30.446   2.214
44082W        W10865   1.884   7.850  10.683
44083W        W10866  18.053   5.275  10.637
44084W        W10867  32.537  41.261   0.652
44085W        W10868  12.659  37.243   0.263
44086W        W10869  17.811   7.676  14.412
44087W        W10870  34.014  23.664  12.826
44088W        W10871   9.655   2.397   2.654
44089W        W10872  36.280  10.704  13.450
44090W        W10873   1.151  32.930   2.880
44091W        W10874   1.311  22.966  12.733
44092W        W10875   4.327  41.253   0.751
44093W        W10876  32.896  41.662   2.743
44094W        W10877  25.588   7.695  10.756
44095W        W10878  38.641  23.345  13.500
44096W        W10879  18.899  21.076  11.391
44097W        W10880  41.745   6.485   0.931
44098W        W10881  18.600  15.174   3.697
44099W        W10882   2.856  27.089   3.517
44100W        W10883  22.226  18.323  12.465
44101W        W10884   2.663   9.905  11.137
44102W        W10885   4.708  12.914   0.920
44103W        W10886  10.048  15.334  14.870
44104W        W10887  24.280   8.000  13.924
44105W        W10888  25.708   8.827  13.209
44106W        W10889   2.474  34.163   3.127
44107W        W10890  33.704  15.146   0.320
44108W        W10891  36.561  38.853   1.854
44109W        W10892   6.962   2.161  10.951
44110W        W10893  12.090  17.647   2.859
44111W        W10894  21.358  14.808  12.554
44112W        W10895  31.547  30.198  14.956
44113W        W10896  34.898  21.175  14.956
44114W        W10897   2.362   3.762  12.834
44115W        W10898  32.575  12.624   4.670
44116W        W10899  43.425   5.113  11.658
44117W        W10900  24.121  14.053   2.208
44118W        W10901  38.088  14.662  10.563
44119W        W10902  35.163  21.057  11.958
44120W        W10903  24.655  41.764   0.637
44121W        W10904   1.464  17.760   3.672
44122W        W10905   4.733  44.751   2.686
44123W        W10906  38.395   8.915   2.772
44124W        W10907  29.405  23.680  13.499
44125W        W10908  38.900  42.746  14.755
44126W        W10909   1.833  35.989  12.708
44127W        W10910  44.460   6.748   0.505
44128W        W10911  41.898   5.930   2.423
44129W        W10912  14.656  37.642  14.167
44130W        W10913  38.840  14.728   0.359
44131W        W10914  24.710  31.968   2.910
44132W        W10915   6.422  24.698  13.569
44133W        W10916  38.069  11.711  14.653
44134W        W10917  37.165  30.145   4.108
44135W        W10918   6.793  40.469   3.262
44136W        W10919  18.656  40.420   1.096
44137W        W10920  25.603   9.682   3.276
44138W        W10921   9.586  41.009   1.299
44139W        W10922  41.507  35.835  10.645
44140W        W10923  44.270  22.142   3.170
44141W        W10924  44.979  11.266  14.465
44142W        W10925   4.644  28.850  10.694
44143W        W10926  37.819   2.207   0.245
44144W        W10927   5.860  22.008  13.630
44145W        W10928   5.291  34.206   2.259
44146W        W10929  19.917  40.947  10.681
44147W        W10930  38.072  10.315   3.375
44148W        W10931  20.236   8.835  14.289
44149W        W10932  36.254   7.489  11.225
44150W        W10933   8.869   4.070  12.961
44151W        W10934  42.611  32.637  11.818
44152W        W10935  16.737  14.645   3.314
44153W        W10936   9.203   2.804  14.352
44154W        W10937  26.001   4.432   1.949
44155W        W10938   5.664  25.405   2.214
44156W        W10939  26.848  40.651   1.030
44157W        W10940  11.724  33.042  13.986
44158W        W10941  34.581  37.799   3.120
44159W        W10942  16.770  36.328   4.668
44160W        W10943  23.605  23.531   0.861
44161W        W10944  35.445  24.621  14.173
44162W        W10945   3.284   7.897   1.173
44163W        W10946  13.218  39.327   1.967
44164W        W10947  12.513  21.177   2.428
44165W        W10948  24.615  30.420  10.505
44166W        W10949   2.790  25.663  12.875
44167W        W10950  19.281   8.784  14.476
44168W        W10951   4.877   0.986  14.039
44169W        W10952  34.653  19.624   2.333
44170W        W10953  35.169  21.522  12.587
44171W        W10954  39.053  35.086   4.573
44172W        W10955  40.747  10.700   0.198
44173W        W10956   8.390   3.342  11.022
44174W        W10957  25.688  16.213   2.791
44175W        W10958   2.202  44.400   5.051
44176W        W10959  18.007   3.736  14.010
44177W        W10960  27.926  17.176  14.326
44178W        W10961  10.753  32.908   3.958
44179W        W10962  36.401  32.239   3.615
44180W        W10963  38.542  32.073   3.333
44181W        W10964  42.419  21.298  13.393
44182W        W10965  12.144  31.949  13.518
44183W        W10966  44.923  39.907   2.808
44184W        W10967  19.548  11.643   1.670
44185W        W10968  37.665  10.084  14.811
44186W        W10969  14.665  41.275  11.169
44187W        W10970  35.447  32.504   0.053
44188W        W10971  16.079  15.853   0.389
44189W        W10972  27.981  28.362  13.393
44190W        W10973  41.818  27.032   3.860
44191W        W10974  21.736  41.622   2.861
44192W        W10975   3.593  28.437   4.524
44193W        W10976   8.149  19.552   1.270
44194W        W10977  19.232  17.438  13.677
44195W        W10978  44.059  10.883   4.503
44196W        W10979  12.252  42.541  11.973
44197W        W10980  42.597   0.262   0.783
44198W        W10981  37.923  18.241   4.982
44199W        W10982  34.661  34.392   3.179
44200W        W10983  25.658  37.922  10.591
44201W        W10984  10.389  13.913   4.204
44202W        W10985   9.252  33.467   0.888
44203W        W10986   5.771  11.785   4.578
44204W        W10987  36.482   4.739   4.641
44205W        W10988  44.064  27.939  10.718
44206W        W10989  21.874  14.054  12.075
44207W        W10990  41.278  37.899  13.477
44208W        W10991   9.627  41.083   3.868
44209W        W10992  19.145  10.214  14.441
44210W        W10993  27.070  18.242   4.411
44211W        W10994   0.836  12.612  11.546
44212W        W10995  38.539   5.215  12.807
44213W        W10996   9.862   0.403   2.413
44214W        W10997  25.421   7.309  14.441
44215W        W10998  12.207  27.193   2.331
44216W        W10999  18.129  43.856   4.656
44217W        W11000  33.221  33.523  11.647
44218W        W11001  13.140   1.230   1.961
44219W        W11002  29.981  25.008  11.615
44220W        W11003  38.080  17.477   1.281
44221W        W11004  35.973  12.267   0.749
44222W        W11005   8.752  23.298   0.279
44223W        W11006  43.317  24.414  14.411
44224W        W11007  15.697  37.103   3.137
44225W        W11008  14.644  20.778   3.804
44226W        W11009  19.547  41.389  14.716
44227W        W11010   9.843  26.001  11.695
44228W        W11011  42.456  17.188  11.466
44229W        W11012  14.545   7.077  13.107
44230W        W11013  11.661  36.810   0.517
44231W        W11014  43.071  36.425  12.481
44232W        W11015  10.523  16.731   2.915
44233W        W11016  12.690  20.780  11.133
44234W        W11017  39.342  22.740  13.967
44235W        W11018  14.924  39.612  11.459
44236W        W11019  15.299  35.954  10.761
44237W        W11020   5.195  12.130  13.388
44238W        W11021  16.853  27.219  12.973
44239W        W11022  32.119  36.227  14.752
44240W        W11023  15.082  20.273   2.101
44241W        W11024  30.858  11.132   3.287
44242W        W11025   6.109  36.485  14.035
44243W        W11026   5.997  18.365  14.018
44244W        W11027  42.942  24.533  12.969
44245W        W11028  12.292  11.438  12.397
44246W        W11029   2.382  30.658   0.025
44247W        W11030  22.544  19.364   0.320
44248W        W11031   2.684  40.723  12.502
44249W        W11032  21.681  34.357  14.311
44250W        W11033   2.265   8.170   3.132
44251W        W11034  37.490  36.071  11.548
44252W        W11035  33.874   1.378   2.290
44253W        W11036  21.336  28.622  12.966
44254W        W11037   3.300  35.134   1.347
44255W        W11038  17.037  21.147  14.895
44256W        W11039   7.338   2.540   2.659
44257W        W11040  41.785  42.212   1.512
44258W        W11041  13.157  31.047   1.505
44259W        W11042  12.916  20.591   3.190
44260W        W11043  40.259  11.187   0.407
44261W        W11044   4.837   0.077  14.000
44262W        W11045  15.712  30.987   3.694
44263W        W11046  30.159  19.882   2.144
44264W        W11047  35.895  31.772   1.282
44265W        W11048  11.798  11.314   1.456
44266W        W11049   2.386  42.792  13.360
44267W        W11050  27.871  30.489  13.778
44268W        W11051  25.554  14.848   4.125
44269W        W11052  16.093  34.123   2.565
44270W        W11053   5.742  35.346   4.671
44271W        W11054   6.821  11.696  11.598
44272W        W11055   4.368  44.823  14.766
44273W        W11056   3.925  10.411   3.093
44274W        W11057  37.621  15.938   3.108
44275W        W11058  17.565  21.731  13.270
44276W        W11059  29.704  18.811   1.359
44277W        W11060  20.712  34.117  13.903
44278W        W11061  40.811  20.113  12.100
44279W        W11062  22.085  37.642   2.648
44280W        W11063  27.085  22.071   4.445
44281W        W11064  26.431  19.180  11.142
44282W        W11065  42.753   2.865  14.456
44283W        W11066  11.652  21.959   2.773
44284W        W11067  34.697  40.304  11.172
44285W        W11068  10.802  32.599   4.876
44286W        W11069  39.863   6.494  14.950
44287W        W11070  33.820  39.397   4.193
44288W        W11071   2.699   0.671  12.667
44289W        W11072   8.193  25.986  12.803
44290W        W11073  18.882  38.934  11.596
44291W        W11074  30.835  11.653   0.506
44292W        W11075  33.864   5.690   2.179
44293W        W11076   0.195  12.357   4.910
44294W        W11077  38.931  39.869   1.753
44295W        W11078  29.090  41.476   0.008
44296W        W11079  39.331  42.894   4.138
44297W        W11080   9.289  26.683   0.334
44298W        W11081  36.063  26.991  11.369
44299W        W11082  16.114  31.827  12.059
44300W        W11083  35.465  30.667   3.756
44301W        W11084  44.954  12.167  12.085
44302W        W11085  11.767   4.423   1.892
44303W        W11086  40.075  11.276  11.965
44304W        W11087  28.671  25.423   0.745
44305W        W11088  13.029  23.631  12.140
44306W        W11089  12.693  26.985   4.216
44307W        W11090  10.563  22.036   1.018
44308W        W11091  20.749   0.367   3.249
44309W        W11092  10.224  36.168  14.050
44310W        W11093  21.675  38.296  11.949
44311W        W11094  43.414  23.537   1.683
44312W        W11095  41.516  15.615   0.063
44313W        W11096  36.107  41.295   0.486
44314W        W11097  20.604  44.186  10.976
44315W        W11098  15.144   9.930   1.332
44316W        W11099   4.830  11.111  11.447
44317W        W11100  24.704  10.746  13.434
44318W        W11101  15.985  15.906   3.490
44319W        W11102   6.477  19.533  14.726
44320W        W11103  28.681  38.601  12.625
44321W        W11104   9.280  13.233   1.259
44322W        W11105   9.131  20.887  11.211
44323W        W11106  37.373  34.417  12.557
44324W        W11107  40.662   2.941  12.882
44325W        W11108  39.038  21.466   3.112
44326W        W11109  33.746  26.221  12.562
44327W        W11110   1.033   6.965  13.162
44328W        W11111   5.208  22.692  14.534
44329W        W11112  34.139  23.416  12.378
44330W        W11113  40.082  15.155  12.170
44331W        W11114  28.728  36.990   2.007
44332W        W11115  10.870  41.388   0.447
44333W        W11116   1.970  31.234  11.030
44334W        W11117   2.477  22.608  12.851
44335W        W11118  44.923  40.797  12.999
44336W        W11119  19.767  10.591   4.739
44337W        W11120  11.178   0.986  13.492
44338W        W11121  17.032  28.349   2.707
44339W        W11122  18.185   4.601  12.969
44340W        W11123  41.557  21.784  11.354
44341W        W11124   2.794   9.329   0.834
44342W        W11125  21.888  25.485   1.610
44343W        W11126  36.000  32.150   2.867
44344W        W11127  35.086  29.152   1.626
44345W        W11128  15.475  31.889   3.771
44346W        W11129   3.231  34.908  12.405
44347W        W11130  23.665   5.762   0.476
44348W        W11131   6.281  32.613   0.896
44349W        W11132  44.263  19.318   1.796
44350W        W11133  25.495  26.151   0.843
44351W        W11134  13.414  40.992   0.274
44352W        W11135  14.772  13.213   2.045
44353W        W11136  17.129  16.146  10.248
44354W        W11137  37.404   1.039   1.950
44355W        W11138  12.850  27.223  14.795
44356W        W11139  13.643  12.381  11.201
44357W        W11140  35.854  36.816  12.061
44358W        W11141  35.615  36.482   0.446
44359W        W11142   2.967   8.076  11.631
44360W        W11143  13.730  29.378   0.796
44361W        W11144  10.046  39.614   3.130
44362W        W11145  32.861  36.562  11.018
44363W        W11146  14.950  39.421  13.921
44364W        W11147  43.127   8.506   3.883
44365W        W11148   5.953   4.892   3.809
44366W        W11149   5.364  18.518   3.879
44367W        W11150  21.622   9.569   3.881
44368W        W11151  16.249   7.941  13.990
44369W        W11152   7.916  35.380   2.264
44370W        W11153   8.832  24.385  11.982
44371W        W11154  36.343  42.594   2.197
44372W        W11155  31.013  32.230  13.382
44373W        W11156   7.163  28.020   4.140
44374W        W11157   9.883  11.727   3.684
44375W        W11158  21.647   5.074   0.011
44376W        W11159  39.151  38.576   4.527
44377W        W11160  24.691  34.191   1.201
44378W        W11161  28.734  26.979   3.187
44379W        W11162  10.254  15.501  14.393
44380W        W11163  37.237  27.379   0.922
44381W        W11164   9.932  25.758  12.145
44382W        W11165   4.976  37.892   4.238
44383W        W11166  19.335  41.423  11.905
44384W        W11167   5.296  22.154   1.863
44385W        W11168  28.049   4.709   1.882
44386W        W11169  32.202  26.752  14.064
44387W        W11170  37.896  24.354  12.495
44388W        W11171   1.462   2.397   3.524
44389W        W11172  23.084  21.180  10.696
44390W        W11173  16.370  31.416   4.827
44391W        W11174  32.374  29.636  11.998
44392W        W11175   9.295  24.625   1.448
44393W        W11176  18.015  20.553   1.464
44394W        W11177   1.130   2.935   4.279
44395W        W11178   9.930  27.564   0.707
44396W        W11179  24.237   3.389  11.528
44397W        W11180  11.426   3.596   0.947
44398W        W11181  25.517  15.678  12.991
44399W        W11182  14.782  14.670   3.936
44400W        W11183  37.819  41.410   2.680
44401W        W11184  40.962  19.787   0.764
44402W        W11185  42.112  31.077  11.358
44403W        W11186  10.940   9.826  12.375
44404W        W11187  42.869  39.585  13.877
44405W        W11188  18.294  13.796   2.810
44406W        W11189  43.875   4.234  14.844
44407W        W11190   6.834  12.836   3.646
44408W        W11191  10.670   4.297  10.628
44409W        W11192  20.039  44.816  12.941
44410W        W11193  12.279  43.056  14.760
44411W        W11194  20.019  11.388   4.340
44412W        W11195  41.387  37.626   3.687
44413W        W11196   5.982  15.953   1.254
44414W        W11197   5.189  19.497   2.225
44415W        W11198  13.290  13.816  13.312
44416W        W11199   5.285   9.728  13.807
44417W        W11200  18.220  11.256  12.971
44418W        W11201  40.865   9.772  14.839
44419W        W11202   5.767  23.026  14.527
44420W        W11203  23.167  33.803   1.765
44421W        W11204  16.172  41.219   4.425
44422W        W11205  14.863  12.232   3.861
44423W        W11206  26.240  13.841  12.726
44424W        W11207  27.353  38.538   1.441
44425W        W11208  12.034  33.044  12.396
44426W        W11209  40.410  19.625  11.508
44427W        W11210  22.767   6.761  14.281
44428W        W11211  29.916  19.101   4.689
44429W        W11212   0.562  12.354   0.419
44430W        W11213   8.157  22.611  12.302
44431W        W11214  29.648  12.075   4.617
44432W        W11215   4.296  12.733  11.189
44433W        W11216  22.957  41.884  11.813
44434W        W11217  13.172  33.534  14.958
44435W        W11218   6.342  41.914   4.672
44436W        W11219   2.984  26.628  10.617
44437W        W11220  37.118  28.298  12.003
44438W        W11221  18.876  11.570   0.257
44439W        W11222  24.971  37.977   0.177
44440W        W11223  12.323  13.643   2.258
44441W        W11224  20.610  18.637   5.374
44442W        W11225  25.502  15.384  14.541
44443W        W11226  35.048  18.683  11.515
44444W        W11227  23.605  44.682   3.112
44445W        W11228   7.340  31.383  10.575
44446W        W11229  32.423  40.621   4.398
44447W        W11230   1.689  18.283  12.529
44448W        W11231   7.761  33.645  13.834
44449W        W11232  11.273  44.442  13.522
44450W        W11233  20.675   8.660  13.573
44451W        W11234  25.715  31.139   2.166
44452W        W11235  15.204   1.871   2.860
44453W        W11236   8.459  13.904  14.338
44454W        W11237  34.798   0.805   0.230
44455W        W11238  10.722  41.327  12.911
44456W        W11239  38.457  26.553  13.839
44457W        W11240  11.415  40.277   2.228
44458W        W11241  10.694  40.268   1.406
44459W        W11242  29.743  33.204   4.581
44460W        W11243  28.620  37.675  11.987
44461W        W11244  33.386  22.999  12.828
44462W        W11245   4.663  41.299  13.006
44463W        W11246  17.520  28.538   2.734
44464W        W11247  32.823  15.737  11.479
44465W        W11248  42.365  37.471  13.930
44466W        W11249  22.672  22.704   4.255
44467W        W11250  20.727   6.905  14.548
44468W        W11251   6.939  34.597   0.876
44469W        W11252   1.827  27.655   2.824
44470W        W11253  23.079  25.174   3.695
44471W        W11254  29.152  43.333  11.675
44472W        W11255  36.013  40.670   3.150
44473W        W11256  38.043  33.432  10.654
44474W        W11257  33.808  40.303   2.183
44475W        W11258  32.562   6.165  12.521
44476W        W11259  26.068  43.862   1.402
44477W        W11260  43.188   5.807  12.393
44478W        W11261   4.936  18.857  11.920
44479W        W11262  24.162  29.218  12.685
44480W        W11263  18.775  43.570  12.852
44481W        W11264  17.732  23.237  13.395
44482W        W11265  19.414  25.094   4.401
44483W        W11266  31.097  32.038  12.893
44484W        W11267  44.763  16.943   2.138
44485W        W11268  14.737  12.551   4.512
44486W        W11269  25.496  37.554  11.593
44487W        W11270  13.195  26.461  10.988
44488W        W11271   2.266   7.732  12.540
44489W        W11272   3.029   7.525   1.678
44490W        W11273  20.280   5.760   2.404
44491W        W11274  17.040  22.850   5.113
44492W        W11275  35.464  22.622  10.712
44493W        W11276   2.565  25.924  11.480
44494W        W11277   1.999  11.344  14.327
44495W        W11278   9.791   9.489   2.275
44496W        W11279  33.256  19.096   3.540
44497W        W11280  33.980   2.336  14.007
44498W        W11281  22.163  29.641   3.516
44499W        W11282   2.671  30.569  12.446
44500W        W11283  25.031   2.438  12.900
44501W        W11284  44.442  34.010  12.861
44502W        W11285  13.127   3.759  10.800
44503W        W11286  34.080   9.764   1.566
44504W        W11287  10.147  25.405  12.456
44505W        W11288  35.525  42.975  12.015
44506W        W11289  23.579  42.573  11.334
44507W        W11290  38.139   2.670   4.246
44508W        W11291  23.317  13.861   0.305
44509W        W11292  19.184  29.437   1.272
44510W        W11293  19.314  24.761  12.484
44511W        W11294  31.014   0.301  12.897
44512W        W11295  26.068  12.872  13.756
44513W        W11296  23.235  24.286   2.473
44514W        W11297  43.039  30.096   0.387
44515W        W11298  20.764   5.362   2.771
44516W        W11299  25.507  35.853  12.549
44517W        W11300  32.479  22.168  13.463
44518W        W11301  33.150   0.894   1.667
44519W        W11302  43.006  30.940   3.897
44520W        W11303  43.443  14.131   2.252
44521W        W11304  26.501  23.810   3.637
44522W        W11305  33.901  36.172  11.657
44523W        W11306   4.504  39.929  12.690
44524W        W11307  34.612  21.941  14.634
44525W        W11308  44.643  37.885  13.355
44526W        W11309   4.468  17.184  12.407
44527W        W11310  38.926  22.705  11.596
44528W        W11311   3.683  13.863   4.763
44529W        W11312  21.949   0.458   0.281
44530W        W11313  19.220  29.518   0.212
44531W        W11314  10.519  25.593  14.178
44532W        W11315  17.223  26.802   0.872
44533W        W11316  27.975  31.084   2.823
44534W        W11317  33.823  14.296   4.534
44535W        W11318   9.844  44.134  11.409
44536W        W11319  22.633   2.624   1.293
44537W        W11320  28.027   0.401   4.393
44538W        W11321  31.600  32.472  10.573
44539W        W11322   7.669  17.313   0.749
44540W        W11323  32.985  25.580  12.428
44541W        W11324  18.922   7.316   1.894
44542W        W11325   9.729  41.145   4.766
44543W        W11326  38.994   3.615  14.206
44544W        W11327   8.281  15.737  13.348
44545W        W11328   1.341  30.851   2.396
44546W        W11329   4.978  26.161  12.140
44547W        W11330  17.280  44.031   1.893
44548W        W11331   4.796  31.345   3.530
44549W        W11332  20.136  14.531   1.674
44550W        W11333  40.860  41.354   3.027
44551W        W11334  27.080   4.169   4.566
44552W        W11335   3.184  44.297  11.667
44553W        W11336  33.918   6.562   1.712
44554W        W11337  10.785  17.150  13.069
44555W        W11338  31.584  14.748  11.172
44556W        W11339  39.303  29.521  10.495
44557W        W11340  21.882  15.721  10.641
44558W        W11341  18.751  16.403   3.071
44559W        W11342  24.635  41.391   5.542
44560W        W11343   1.485   7.145   4.225
44561W        W11344  18.106  15.099  14.892
44562W        W11345  16.526  16.206   2.259
44563W        W11346  27.610  20.037  13.331
44564W        W11347  29.477  36.521   1.887
44565W        W11348  41.205  13.660  13.443
44566W        W11349  30.355  14.922   2.230
44567W        W11350  19.527  32.600  14.335
44568W        W11351  43.344  20.751  10.741
44569W        W11352  11.822  42.352  14.001
44570W        W11353  42.780  17.147  11.927
44571W        W11354  29.961  43.837  12.058
44572W        W11355   9.783  21.631   0.179
44573W        W11356  30.167  33.042  11.089
44574W        W11357  12.831  39.811   0.912
44575W        W11358  18.146  43.119   2.573
44576W        W11359   0.385   1.234  10.725
44577W        W11360  14.206  20.564  14.183
44578W        W11361   9.129  11.709  12.867
44579W        W11362  33.990  18.573   1.810
44580W        W11363  15.914  28.032   0.386
44581W        W11364   1.078  18.753  14.995
44582W        W11365  27.635  38.663  13.714
44583W        W11366  44.431  10.319   2.897
44584W        W11367  35.147   8.703  11.597
44585W        W11368  42.775  44.836  13.504
44586W        W11369   4.390  42.368   4.298
44587W        W11370  42.704  38.577   4.667
44588W        W11371   2.795  20.318   1.137
44589W        W11372   8.328  33.798  12.544
44590W        W11373  18.134  24.390   2.283
44591W        W11374   5.161  34.504   2.647
44592W        W11375  40.610   4.908   3.238
44593W        W11376  41.362  19.720   2.952
44594W        W11377  43.989  39.350  12.444
44595W        W11378  25.168  16.671  12.537
44596W        W11379  31.917  33.938  14.442
44597W        W11380  15.069  11.848   3.273
44598W        W11381  28.631  42.648  10.592
44599W        W11382  36.947  32.564  11.532
44600W        W11383  33.174  43.909   2.364
44601W        W11384  12.178  34.752   2.659
44602W        W11385  37.265  29.883  12.510
44603W        W11386  42.297  33.434  11.446
44604W        W11387  35.908  25.550  10.888
44605W        W11388  10.684   1.417   1.895
44606W        W11389  19.885  40.600   1.894
44607W        W11390  31.966  25.567  12.403
44608W        W11391  41.667  17.281   2.298
44609W        W11392   7.721  16.803  12.928
44610W        W11393  29.489   3.674  12.755
44611W        W11394  15.323  15.581  11.592
44612W        W11395  27.240  27.449   4.308
44613W        W11396  26.120  41.013  13.918
44614W        W11397  16.710   7.203  14.769
44615W        W11398  42.393  36.278  11.659
44616W        W11399  19.539  20.434   4.597
44617W        W11400  28.103  26.287   4.031
44618W        W11401  16.121  15.747  12.929
44619W        W11402  43.238  22.237   3.150
44620W        W11403  42.988   5.907  12.858
44621W        W11404   6.600  23.073   2.141
44622W        W11405  25.227  25.937  11.493
44623W        W11406  28.253  32.305   0.356
44624W        W11407   1.924  30.742  14.350
44625W        W11408  42.716   1.825  14.834
44626W        W11409  25.599  31.891   2.778
44627W        W11410  29.941  21.099   1.861
44628W        W11411  14.696  39.586  13.476
44629W        W11412   7.168  43.456   2.300
44630W        W11413  26.774  14.685   4.959
44631W        W11414  25.598  40.604   0.022
44632W        W11415   4.972  17.151  13.890
44633W        W11416  38.356  18.665  10.389
44634W        W11417  44.359  22.549  14.093
44635W        W11418  29.451  39.981   3.249
44636W        W11419  26.943   2.959  12.872
44637W        W11420  39.592  43.923  13.849
44638W        W11421  23.526  13.206  13.803
44639W        W11422  16.287  28.450   0.420
44640W        W11423   9.361  23.378   2.771
44641W        W11424  13.830  17.753   0.294
44642W        W11425  15.308  12.570   0.966
44643W        W11426  38.090  26.833   3.347
44644W        W11427  26.909  19.639  12.419
44645W        W11428  23.975   6.340  14.717
44646W        W11429  13.846   4.783   2.785
44647W        W11430  27.954  23.143  12.674
44648W        W11431  24.585  22.023  12.365
44649W        W11432   4.952  36.088   2.783
44650W        W11433  13.284  37.907   1.293
44651W        W11434  43.262  41.197   4.477
44652W        W11435  39.070  21.152  12.976
44653W        W11436   1.014  40.078   4.783
44654W        W11437  26.447   3.977  12.060
44655W        W11438   2.578  35.825   2.301
44656W        W11439  42.796  23.728  12.552
44657W        W11440   7.919   7.068   1.910
44658W        W11441  24.095  40.436  10.788
44659W        W11442  25.416  24.036  10.660
44660W        W11443   8.698   5.262  13.062
44661W        W11444  40.042  21.019  13.586
44662W        W11445  42.897  40.578  14.016
44663W        W11446   2.989  19.334   3.682
44664W        W11447  14.106  13.313   0.049
44665W        W11448   6.855   2.227   1.851
44666W        W11449   3.249  42.904   4.401
44667W        W11450  20.283   3.591   4.075
44668W        W11451  19.133   4.806  13.856
44669W        W11452  44.982  31.561   3.216
44670W        W11453  41.633   8.312  14.817
44671W        W11454  31.632  22.258  11.674
44672W        W11455  11.680  29.054   4.675
44673W        W11456  32.557  40.828  13.365
44674W        W11457  29.106  15.996   0.417
44675W        W11458  14.858   8.857   4.256
44676W        W11459  29.628   4.580  10.252
44677W        W11460  32.582  11.014  12.442
44678W        W11461  28.052  24.110   0.956
44679W        W11462  25.312   2.053  11.100
44680W        W11463   9.385  35.660  12.954
44681W        W11464  11.573  11.382   1.907
44682W        W11465  21.725  30.577   4.317
44683W        W11466  32.429  21.337  14.404
44684W        W11467   5.519  44.353  11.239
44685W        W11468  38.393  10.610   1.938
44686W        W11469  20.672   0.717   2.432
44687W        W11470   3.499  16.440   4.429
44688W        W11471  28.528  16.582   4.716
44689W        W11472  26.661  28.213   1.254
44690W        W11473  33.719  12.081  14.434
44691W        W11474  27.657  44.836   2.396
44692W        W11475  42.450  12.084  14.121
44693W        W11476   8.895  36.835  11.947
44694W        W11477  10.130  22.116   2.782
44695W        W11478   3.238  37.313  11.961
44696W        W11479  39.267   1.267   3.658
44697W        W11480  19.240   9.990  13.968
44698W        W11481  20.554  12.512  11.849
44699W        W11482  44.942   9.703   0.285
44700W        W11483  16.961   3.327   3.344
44701W        W11484  40.508  10.148   3.174
44702W        W11485  37.501   8.103  13.477
44703W        W11486  42.869  11.287   4.493
44704W        W11487  14.340  14.223   0.219
44705W        W11488   9.636  36.539   0.008
44706W        W11489  23.165  36.394   1.934
44707W        W11490  29.702   9.768   2.848
44708W        W11491  24.189   0.030  14.538
44709W        W11492  40.191  41.061  10.890
44710W        W11493  43.014  13.415   2.954
44711W        W11494   6.344  23.154  12.008
44712W        W11495  12.890  10.286   1.472
44713W        W11496  16.990  11.295   2.244
44714W        W11497  30.732  43.488  13.911
44715W        W11498  27.664  11.170   4.199
44716W        W11499  37.255  15.150  13.283
44717W        W11500  23.893  17.371  11.543
44718W        W11501  31.156   6.530   2.371
44719W        W11502   4.495  31.561   2.343
44720W        W11503  41.056  21.226  14.452
44721W        W11504   0.851  28.367   4.511
44722W        W11505  13.802  32.505  11.968
44723W        W11506  29.068  17.737   1.912
44724W        W11507   1.666  40.607  11.545
44725W        W11508  43.534  34.984  11.891
44726W        W11509  21.158   3.785   3.110
44727W        W11510  15.176  18.514  13.349
44728W        W11511  26.311  14.669   1.833
44729W        W11512  41.731  35.408   0.435
44730W        W11513  32.598   9.377  10.521
44731W        W11514   3.360   4.626   2.017
44732W        W11515  22.775  35.792   1.353
44733W        W11516   8.209  10.942   1.666
44734W        W11517  10.724   0.721  13.366
44735W        W11518  39.332  10.818   1.831
44736W        W11519   4.072  38.579  10.341
44737W        W11520   6.458  22.707   0.525
44738W        W11521  29.578  30.392   0.235
44739W        W11522  12.751  13.809   1.822
44740W        W11523  31.376   9.322  13.625
44741W        W11524  38.805  35.672  14.509
44742W        W11525   7.575  34.838  10.373
44743W        W11526  14.733  11.759  12.496
44744W        W11527  31.894  34.660   3.190
44745W        W11528  17.568   2.420  11.549
44746W        W11529  44.263  23.200  11.109
44747W        W11530  10.589  44.769   2.577
44748W        W11531   0.473  23.274   4.464
44749W        W11532  35.923  36.017   0.443
44750W        W11533  18.036   4.696  10.771
44751W        W11534  11.368  11.251  12.703
44752W        W11535  13.749  26.832  10.207
44753W        W11536  42.321  29.944  12.476
44754W        W11537   7.002  24.948   3.601
44755W        W11538  42.703  13.046   2.196
44756W        W11539  20.146  34.180   2.340
44757W        W11540  43.068  11.187   1.650
44758W        W11541  14.286  13.751   2.643
44759W        W11542  33.203  44.197  11.560
44760W        W11543  20.320  12.734   1.397
44761W        W11544  32.589  11.394  10.484
44762W        W11545  21.122   6.179   2.586
44763W        W11546  40.756  18.104  12.965
44764W        W11547  29.880  26.100  10.681
44765W        W11548  18.264  32.502   0.143
44766W        W11549  27.979  15.860   3.931
44767W        W11550  18.535  26.733   4.735
44768W        W11551  27.646  35.794   3.638
44769W        W11552  15.709  41.843   1.793
44770W        W11553  39.691  38.529   4.623
44771W        W11554  21.302  32.839  13.526
44772W        W11555   7.529  11.314   2.290
44773W        W11556  26.729  16.627  11.947
44774W        W11557  18.401  14.206   3.689
44775W        W11558   2.990  13.813   0.845
44776W        W11559   9.769  11.044  12.808
44777W        W11560  42.427  11.480  10.701
44778W        W11561  30.119   7.714  13.059
44779W        W11562  26.835  41.420   3.578
44780W        W11563  43.503  30.953   3.746
44781W        W11564  23.052  16.669   2.287
44782W        W11565  44.538  21.527   2.129
44783W        W11566   8.175  31.130   2.830
44784W        W11567  14.350  31.979  12.904
44785W        W11568  34.878   4.581   4.139
44786W        W11569   0.399  29.725  14.089
44787W        W11570  25.922  39.063   4.547
44788W        W11571   1.364  42.812  14.463
44789W        W11572  16.014  10.905   3.172
44790W        W11573   1.266  43.278   0.342
44791W        W11574  34.328  28.728   3.068
44792W        W11575  41.936   0.090  10.886
44793W        W11576   2.410  30.908   0.887
44794W        W11577   8.734  20.929  10.572
44795W        W11578  34.271  30.701  12.668
44796W        W11579  27.184  24.355  12.905
44797W        W11580  23.275   2.008   3.176
44798W        W11581  16.211   0.079   3.304
44799W        W11582  25.614   5.155   4.610
44800W        W11583  28.570  35.823   3.584
44801W        W11584   4.731  10.151   1.284
44802W        W11585  20.029  16.011   2.783
44803W        W11586  11.614  36.735  10.232
44804W        W11587  36.035  19.513   0.427
44805W        W11588   0.193   4.290  10.796
44806W        W11589  34.645  20.281  12.102
44807W        W11590  24.523   1.117   2.305
44808W        W11591  17.185  16.520   3.240
44809W        W11592   6.376   5.433   3.185
44810W        W11593  33.214   9.652   2.686
44811W        W11594  43.204  29.717   1.698
44812W        W11595  31.914  12.243  10.668
44813W        W11596   6.193   8.342   4.232
44814W        W11597  17.212   5.301   1.444
44815W        W11598   5.914   7.133   4.588
44816W        W11599  17.704  11.295  13.087
44817W        W11600  25.068   8.801   3.030
44818W        W11601  32.379  26.140   4.612
44819W        W11602  18.229  11.193   2.783
44820W        W11603  12.384  21.380  13.134
44821W        W11604  22.165  39.579   0.349
44822W        W11605  27.012   9.666  12.006
44823W        W11606   5.840  15.268  11.108
44824W        W11607  27.349   2.864  12.050
44825W        W11608  38.596  35.262  10.015
44826W        W11609  33.013  21.217   3.237
44827W        W11610  36.513  33.545  13.943
44828W        W11611  19.749   8.806  12.619
44829W        W11612  23.056  22.494   2.667
44830W        W11613  13.532  38.593   2.349
44831W        W11614  38.109  20.528  11.652
44832W        W11615  18.653  34.616  13.865
44833W        W11616  26.125  34.471  12.532
44834W        W11617   1.819  19.735  14.954
44835W        W11618  34.773  30.229   2.775
44836W        W11619  24.594  37.366  14.769
44837W        W11620   2.920  27.615  12.800
44838W        W11621   9.633  35.508   4.196
44839W        W11622  22.260   3.025   1.262
44840W        W11623  31.640   4.835   4.543
44841W        W11624  22.472  15.546  14.816
44842W        W11625  14.245   9.014  14.029
44843W        W11626  42.975  30.614  14.974
44844W        W11627  19.951   8.954  13.464
44845W        W11628  18.059  31.225  12.433
44846W        W11629  18.183  31.655   2.797
44847W        W11630  29.569  39.250   2.685
44848W        W11631  39.209  37.831  14.853
44849W        W11632  18.545   8.405   4.455
44850W        W11633  26.724  23.168  14.020
44851W        W11634  37.835   1.688   0.944
44852W        W11635  17.746  21.523  14.223
44853W        W11636  23.440  16.322   4.416
44854W        W11637  34.129  32.383   0.348
44855W        W11638  17.529   2.468  14.961
44856W        W11639  34.913  23.071   1.905
44857W        W11640   5.774  32.512   2.869
44858W        W11641  24.772  44.458  14.022
44859W        W11642  37.418  42.011   0.758
44860W        W11643  41.121  16.241  14.133
44861W        W11644  17.767   2.894  12.548
44862W        W11645  14.239  12.577  13.337
44863W        W11646  26.179  24.433   0.222
44864W        W11647   3.274  36.795  12.031
44865W        W11648  12.680  24.268   3.617
44866W        W11649  34.641   1.779  11.184
44867W        W11650   2.745  39.487   1.215
44868W        W11651   0.461  18.510   1.185
44869W        W11652  43.891  43.331   2.925
44870W        W11653  37.855  24.455   2.197
44871W        W11654  40.278   6.737  12.680
44872W        W11655  26.684  16.785   2.372
44873W        W11656  13.720  23.789  11.137
44874W        W11657  32.251  14.636  12.471
44875W        W11658  30.612  38.134  11.657
44876W        W11659  40.602   6.449  10.158
44877W        W11660  24.608  43.496   5.144
44878W        W11661  27.449  22.147  13.639
44879W        W11662   1.209  33.197  12.117
44880W        W11663  13.145  26.990   3.593
44881W        W11664  14.129  35.857  14.347
44882W        W11665  22.951  10.466  12.550
44883W        W11666   2.690  24.071  13.806
44884W        W11667  20.785  10.442   1.019
44885W        W11668  31.901  26.168   3.239
44886W        W11669   5.123  21.317  10.711
44887W        W11670   2.150  40.086  12.973
44888W        W11671  18.812  25.908   0.352
44889W        W11672  25.625  42.900   2.851
44890W        W11673  37.301  21.218  10.770
44891W        W11674  28.237   4.437   0.894
44892W        W11675   7.339   1.259  11.012
44893W        W11676  34.286  19.655   4.141
44894W        W11677  41.918  34.977   4.295
44895W        W11678  10.875   4.490  11.101
44896W        W11679   5.595  28.388  12.864
44897W        W11680  36.173  12.799  14.400
44898W        W11681  33.428  23.181  14.357
44899W        W11682  29.449   0.868  10.339
44900W        W11683  17.643   3.427  10.687
44901W        W11684   2.312  36.414   3.363
44902W        W11685  43.954  44.980   4.796
44903W        W11686  22.039  29.107   3.470
44904W        W11687   8.388  11.641  10.609
44905W        W11688   3.851   8.239   4.940
44906W        W11689  33.936   6.891  12.472
44907W        W11690  39.920   4.491   2.253
44908W        W11691  34.655   4.673   0.584
44909W        W11692  30.356   6.846   2.654
44910W        W11693   6.622  12.360  10.682
44911W        W11694  14.647  30.052   1.912
44912W        W11695  29.405  35.421  12.432
44913W        W11696   4.950   6.143  13.079
44914W        W11697   8.479  14.352   2.296
44915W        W11698  24.990  16.642   3.747
44916W        W11699   5.313  24.480  12.905
44917W        W11700  26.119  17.264  10.917
44918W        W11701   6.832  42.562  12.708
44919W        W11702  11.128   6.827  14.758
44920W        W11703  32.385   5.686  10.614
44921W        W11704  20.920  34.261   2.361
44922W        W11705  40.470  20.094  11.731
44923W        W11706  40.796  31.154  13.564
44924W        W11707   6.850  16.758  11.439
44925W        W11708  15.398   4.679   0.827
44926W        W11709  10.615   5.181   3.210
44927W        W11710  19.730  28.660  12.627
44928W        W11711  35.451   9.362   1.748
44929W        W11712  26.689  26.895   2.209
44930W        W11713  37.823  39.134   1.950
44931W        W11714  26.213   3.366   3.241
44932W        W11715  18.184  35.439   4.763
44933W        W11716  34.971  25.593  13.425
44934W        W11717  37.368  12.286  11.651
44935W        W11718  31.527  15.420   4.363
44936W        W11719   3.158  15.627  14.808
44937W        W11720  26.532  19.282  14.372
44938W        W11721  19.180  42.482  13.390
44939W        W11722  25.025  19.553  12.087
44940W        W11723  14.978  33.691  12.474
44941W        W11724  29.379   4.198   2.354
44942W        W11725  39.097  13.118   0.712
44943W        W11726  19.105  18.834  10.661
44944W        W11727  41.573   8.819   1.983
44945W        W11728  27.391  36.802  11.232
44946W        W11729   0.571  21.151  12.211
44947W        W11730  18.298  40.381   1.466
44948W        W11731  33.226   6.165  12.340
44949W        W11732  23.770  19.417  14.407
44950W        W11733  20.318  15.154   2.791
44951W        W11734  15.088  31.103  12.059
44952W        W11735  41.341  35.879  13.949
44953W        W11736  41.860   1.968   0.861
44954W        W11737  40.444  29.388  13.960
44955W        W11738  12.923  40.358  10.204
44956W        W11739  35.867  41.579  12.000
44957W        W11740  11.568  13.678   0.975
44958W        W11741   5.735  13.734   1.847
44959W        W11742  31.315  13.303   2.149
44960W        W11743  10.344  30.978   4.600
44961W        W11744   7.975  12.821  13.554
44962W        W11745   5.408  19.014   3.811
44963W        W11746   4.294  23.304  13.751
44964W        W11747  34.505  19.975   3.256
44965W        W11748   8.139  36.900   0.682
44966W        W11749  21.701  26.656   0.908
44967W        W11750  37.284   7.287  12.398
44968W        W11751  40.425  39.018   3.192
44969W        W11752  23.834   5.231  12.074
44970W        W11753  39.776  20.728  14.348
44971W        W11754   5.928  11.807  10.655
44972W        W11755  33.637  38.047  11.290
44973W        W11756   3.291  21.627   4.581
44974W        W11757  37.609  12.053  14.778
44975W        W11758  12.128   2.901   0.361
44976W        W11759  39.564   6.795   3.549
44977W        W11760  23.892  41.776  10.332
44978W        W11761  22.687  36.485   2.213
44979W        W11762   5.634  17.136   3.849
44980W        W11763  15.320  26.440  13.428
44981W        W11764   5.703  25.020   1.358
44982W        W11765  11.922   2.181  13.307
44983W        W11766  20.032  29.058  10.425
44984W        W11767  44.022   8.329  14.552
44985W        W11768  15.671  29.440   3.776
44986W        W11769  39.876  15.673   3.130
44987W        W11770  28.578  22.768   1.358
44988W        W11771  31.619  38.303   4.106
44989W        W11772  36.542  42.380  14.330
44990W        W11773  16.769  31.930  10.278
44991W        W11774   0.334  24.074  12.090
44992W        W11775  15.318  23.249  11.528
44993W        W11776  34.600  13.425  10.583
44994W        W11777   8.133   7.529  12.603
44995W        W11778  43.288  20.138  11.915
44996W        W11779   3.458  33.406  14.820
44997W        W11780  29.894  24.485   4.659
44998W        W11781   9.125  13.881   3.111
44999W        W11782  44.830  17.211   4.549
45000W        W11783  20.148  19.235   4.167
45001W        W11784  14.347   5.756   0.208
45002W        W11785  43.897  25.344  13.171
45003W        W11786  26.112   4.229   3.880
45004W        W11787  43.895   0.056  10.524
45005W        W11788  22.761   4.945  11.147
45006W        W11789  35.880   4.606  13.866
45007W        W11790  37.451  34.325   1.246
45008W        W11791  10.252  16.792  10.742
45009W        W11792  32.086  20.488   2.305
45010W        W11793  32.265   0.889  14.324
45011W        W11794   7.766   4.712   4.018
45012W        W11795  13.832   7.299  10.791
45013W        W11796  15.069  24.830  12.810
45014W        W11797  39.458  20.793   2.896
45015W        W11798  43.314  32.090   4.578
45016W        W11799  24.725  41.882   2.748
45017W        W11800  34.206  10.164  14.914
45018W        W11801   6.813  11.590  13.521
45019W        W11802  12.774  24.409   2.312
45020W        W11803  24.413  25.211   2.760
45021W        W11804  32.349  27.585  12.432
45022W        W11805  39.588   3.050   1.222
45023W        W11806  30.623  40.824   4.897
45024W        W11807   4.316  10.266   0.989
45025W        W11808   1.906  12.594   5.055
45026W        W11809  31.460   5.325  12.349
45027W        W11810   2.156  13.972   3.733
45028W        W11811   4.487  35.448  12.611
45029W        W11812  44.019   6.576   4.881
45030W        W11813   1.259  25.445  13.123
45031W        W11814  31.202  11.059  12.971
45032W        W11815  30.453  17.595   1.670
45033W        W11816  36.112   2.700   4.955
45034W        W11817  38.279  26.602  12.376
45035W        W11818  44.757  40.372  13.593
45036W        W11819   4.054   1.423   1.323
45037W        W11820  31.760   2.872  12.604
45038W        W11821  26.551  20.650  13.818
45039W        W11822  14.607  16.066  11.847
45040W        W11823  32.353  30.019  14.592
45041W        W11824   0.078   2.145  12.891
45042W        W11825  33.523  40.273   2.863
45043W        W11826  10.489   6.282   2.593
45044W        W11827   4.199  14.350  13.604
45045W        W11828  40.523  39.798  13.047
45046W        W11829   5.397   5.822   0.408
45047W        W11830  30.436  40.935   0.783
45048W        W11831   2.399  31.619  13.444
45049W        W11832  38.400  40.501   1.819
45050W        W11833  40.948  38.549   2.090
45051W        W11834   0.217  18.006  11.616
45052W        W11835  24.281  17.721  11.052
45053W        W11836   7.654  28.954  10.374
45054W        W11837  32.626  36.511  13.912
45055W        W11838  29.433  32.243  10.454
45056W        W11839   0.480   1.638   1.904
45057W        W11840   8.748  27.899   2.640
45058W        W11841  19.456  43.411   3.270
45059W        W11842   1.365  33.649  14.489
45060W        W11843   8.181  18.324   3.692
45061W        W11844  23.561  19.245  13.455
45062W        W11845  18.752   8.134   0.380
45063W        W11846   3.480   2.198  12.442
45064W        W11847  38.247  37.741  14.823
45065W        W11848  15.227  16.070  11.541
45066W        W11849  32.343  30.555  13.844
45067W        W11850  37.648  34.475   0.367
45068W        W11851   9.100  23.658  12.503
45069W        W11852  18.819  17.923  12.512
45070W        W11853  21.021   7.512  11.216
45071W        W11854   3.719  19.542  11.985
45072W        W11855   9.251  15.624  11.693
45073W        W11856  44.431  12.691  11.351
45074W        W11857  38.813  30.150  13.220
45075W        W11858   7.645  21.733  11.082
45076W        W11859  18.240  22.481  14.201
45077W        W11860  15.605   6.837  10.644
45078W        W11861  39.083  23.805  12.557
45079W        W11862  40.409  15.539   4.158
45080W        W11863   1.961  35.025  13.554
45081W        W11864  34.382  40.506   4.058
45082W        W11865   8.311  19.712  13.017
45083W        W11866  26.190  39.280   5.520
45084W        W11867  12.960  20.846   4.422
45085W        W11868  16.671   8.644  14.612
45086W        W11869  39.075   3.239  10.648
45087W        W11870  18.707   9.680   0.270
45088W        W11871  42.802  29.205   3.139
45089W        W11872  39.973   1.346  13.982
45090W        W11873  13.081  34.025  10.763
45091W        W11874  36.946  15.644  10.690
45092W        W11875   1.027  27.353  11.571
45093W        W11876  22.676  22.941  13.058
45094W        W11877  15.873  26.532  12.463
45095W        W11878  33.989  43.579   0.753
45096W        W11879  41.293  24.789  12.556
45097W        W11880   5.815  13.851  10.753
45098W        W11881  37.471  39.243   4.658
45099W        W11882   9.783  26.968  12.892
45100W        W11883   9.624  42.649   4.039
45101W        W11884  44.104  42.785  14.482
45102W        W11885  21.303  33.778  11.003
45103W        W11886  42.870  36.787   3.900
45104W        W11887  44.713   6.845   3.175
45105W        W11888  39.611  28.398   1.403
45106W        W11889  34.371  14.607   2.810
45107W        W11890  18.211   6.323   3.122
45108W        W11891  27.191  30.994   3.765
45109W        W11892  28.964   5.507   4.606
45110W        W11893   5.476  16.724  11.759
45111W        W11894  19.081  38.607   2.393
45112W        W11895   7.089  18.237  11.913
45113W        W11896  27.043  17.400  12.093
45114W        W11897  10.694  14.119  13.564
45115W        W11898  22.850   2.420  14.624
45116W        W11899   9.722  17.233   1.732
45117W        W11900   5.897  43.935  11.646
45118W        W11901  25.366   6.023   3.427
45119W        W11902  31.798   6.755  14.158
45120W        W11903   5.122  40.585   2.747
45121W        W11904   8.896  29.633   3.624
45122W        W11905   2.378  39.845   0.793
45123W        W11906   1.307  30.783   3.302
45124W        W11907  20.958  39.077  10.232
45125W        W11908   0.911   0.958  12.588
45126W        W11909   7.348  36.603  13.408
45127W        W11910  16.157  23.960  10.588
45128W        W11911  33.705  27.123  12.484
45129W        W11912   6.143  18.546   2.189
45130W        W11913  16.770  27.488   4.796
45131W        W11914  27.930  18.850  11.549
45132W        W11915   3.386  27.003   3.694
45133W        W11916  19.738   9.994  14.034
45134W        W11917  11.423   8.016   1.868
45135W        W11918  12.920  32.878   3.237
45136W        W11919  17.130  35.998   2.799
45137W        W11920  19.602  38.339   4.515
45138W        W11921   1.931  43.620  13.482
45139W        W11922   4.533  15.847  12.025
45140W        W11923  12.860  17.602   4.426
45141W        W11924  11.651  15.463   3.217
45142W        W11925  44.159  32.973  11.619
45143W        W11926   6.688   6.855   3.095
45144W        W11927   6.817  32.178   1.500
45145W        W11928  41.114  42.736   3.190
45146W        W11929  23.405  16.202  13.723
45147W        W11930  11.547  37.400   4.544
45148W        W11931  37.735  40.328   3.813
45149W        W11932  36.792   0.439  11.932
45150W        W11933  20.429  29.519  12.037
45151W        W11934  27.185  25.161   0.825
45152W        W11935  15.632  38.333   0.492
45153W        W11936  38.316  34.654   3.091
45154W        W11937  11.733  44.644   0.057
45155W        W11938   0.435   3.367  11.081
45156W        W11939  33.913  26.112   0.131
45157W        W11940  27.195   6.478   2.803
45158W        W11941  16.033  36.518  14.367
45159W        W11942  20.506  42.714   1.373
45160W        W11943  31.261  41.707   3.312
45161W        W11944   0.974  44.336   3.267
45162W        W11945  37.420  24.117   4.336
45163W        W11946  32.703  19.643   0.909
45164W        W11947  10.899  35.131   0.736
45165W        W11948  37.392  21.712   4.204
45166W        W11949  40.401  33.987   4.665
45167W        W11950   3.249  22.935   2.622
45168W        W11951   4.961  26.064   3.372
45169W        W11952  34.932  31.915   4.452
45170W        W11953  26.597  38.011  11.035
45171W        W11954  25.621  43.824  13.553
45172W        W11955  19.780  37.983  13.317
45173W        W11956  40.720  15.765   2.623
45174W        W11957  40.406  33.485  12.346
45175W        W11958   5.340  27.701  13.113
45176W        W11959  15.846  41.045   4.039
45177W        W11960  33.418  17.514   4.495
45178W        W11961  11.137  42.008  14.961
45179W        W11962   1.410  30.986  12.614
45180W        W11963  32.017  24.185   1.712
45181W        W11964  40.528   8.843  11.865
45182W        W11965  42.336  42.773  14.224
45183W        W11966   8.192  16.229  11.759
45184W        W11967   6.509   1.244  10.278
45185W        W11968  33.654   5.164   2.969
45186W        W11969  14.145  23.775   2.785
45187W        W11970  24.802  18.635   1.773
45188W        W11971   1.881  40.521   2.797
45189W        W11972  21.285  16.072  14.456
45190W        W11973  39.316  12.299  14.519
45191W        W11974  29.679   8.318   1.798
45192W        W11975  32.056  16.104   1.099
45193W        W11976   8.281  10.819  12.347
45194W        W11977  18.862  10.307   1.921
45195W        W11978  14.214  11.750   2.362
45196W        W11979  25.141  31.068  14.492
45197W        W11980  19.643  32.533   0.732
45198W        W11981  12.200   7.701  12.357
45199W        W11982  32.505  19.019   3.225
45200W        W11983  38.441  22.536  11.569
45201W        W11984  24.353  33.213  13.421
45202W        W11985  11.037  26.490   4.159
45203W        W11986  24.398  42.961  14.968
45204W        W11987  17.974  32.390   4.158
45205W        W11988  23.661   0.888   4.182
45206W        W11989  34.461  21.460   2.021
45207W        W11990  37.834  22.229   1.848
45208W        W11991   0.556  36.236   0.801
45209W        W11992  13.730  22.631  11.825
45210W        W11993  30.200  31.610   1.213
45211W        W11994  12.654  12.376   2.230
45212W        W11995  29.225  40.601  13.357
45213W        W11996  11.636  17.336  10.632
45214W        W11997   5.727  24.976   0.411
45215W        W11998  17.872  13.198   1.360
45216W        W11999  44.914  32.242   1.696
45217W        W12000   7.765  42.954   1.804
45218W        W12001  27.862  42.511   3.223
45219W        W12002  32.607  15.720   3.730
45220W        W12003  29.113  42.450  14.567
45221W        W12004  38.227  36.360  13.936
45222W        W12005  31.652   8.194   2.689
45223W        W12006   0.003  28.850   3.588
45224W        W12007   1.185  40.563   4.851
45225W        W12008   8.209  31.931   0.471
45226W        W12009   6.744  30.884  12.462
45227W        W12010  30.470  13.055   4.618
45228W        W12011  38.003  38.546   1.006
45229W        W12012  10.244  18.582   4.238
45230W        W12013  10.211  31.508   3.036
45231W        W12014  43.079   9.889  14.540
45232W        W12015  19.276  24.257  12.611
45233W        W12016  35.560  42.662  14.902
45234W        W12017  42.445  19.908  14.496
45235W        W12018  40.022  39.646   1.750
45236W        W12019  28.441  33.554   2.018
45237W        W12020  17.146  26.146   0.087
45238W        W12021   9.925   9.113  13.445
45239W        W12022  38.745   0.585   2.574
45240W        W12023  37.089  28.672  13.973
45241W        W12024  37.863  27.512   0.344
45242W        W12025   7.228  32.565  12.587
45243W        W12026  19.640  21.597  11.808
45244W        W12027  19.615  40.983  14.361
45245W        W12028  23.235   0.834   9.964
45246W        W12029  26.695  21.091  14.039
45247W        W12030   9.308  32.928   1.628
45248W        W12031   3.683  31.121  14.551
45249W        W12032  28.367  24.763  13.040
45250W        W12033  17.790  20.204  13.326
45251W        W12034  29.902  34.837  11.160
45252W        W12035  33.192  32.847   1.315
45253W        W12036  38.811  21.153  14.531
45254W        W12037  38.571  30.025  10.607
45255W        W12038   6.207  32.331   3.160
45256W        W12039  40.456   1.090   3.177
45257W        W12040  19.845  25.995   4.618
45258W        W12041  27.694  24.717  10.488
45259W        W12042  19.702  18.321  12.068
45260W        W12043  23.009  33.429  11.656
45261W        W12044  15.021  40.982  14.316
45262W        W12045  35.349  18.786  11.015
45263W        W12046  13.602  16.703   4.586
45264W        W12047  40.414  32.601  12.452
45265W        W12048  13.162   3.752   0.219
45266W        W12049  37.680  21.170  13.087
45267W        W12050  40.407  20.702  12.430
45268W        W12051  18.167  20.123   4.851
45269W        W12052  44.299  21.507  11.526
45270W        W12053  32.535   3.012  13.109
45271W        W12054  30.961  10.067  12.131
45272W        W12055   0.737  43.840   2.055
45273W        W12056   0.945  14.593   3.534
45274W        W12057  44.236  39.658   1.358
45275W        W12058  10.377   7.804  12.541
45276W        W12059  41.854   9.625  14.952
45277W        W12060  32.489  27.592  14.324
45278W        W12061  43.843  20.276  13.390
45279W        W12062  17.243   4.389   1.827
45280W        W12063  23.346   3.162  13.919
45281W        W12064  10.585   5.372   1.816
45282W        W12065  27.253  18.060  13.325
45283W        W12066  13.863  14.696   3.968
45284W        W12067  13.413  24.782   4.678
45285W        W12068  30.704  19.735   2.201
45286W        W12069  12.647  22.215  13.378
45287W        W12070  29.080  15.181  13.327
45288W        W12071   3.474  10.270  13.831
45289W        W12072  28.440  41.334   5.166
45290W        W12073   3.492  25.276  11.449
45291W        W12074  37.731  31.997   2.711
45292W        W12075  23.785  22.033   0.915
45293W        W12076  16.038   4.479   4.090
45294W        W12077   5.913  27.595  10.614
45295W        W12078  26.715   2.801  10.675
45296W        W12079  15.350  27.303   4.404
45297W        W12080  37.827  14.423   0.034
45298W        W12081  31.306   6.440  14.952
45299W        W12082  16.713  14.655   0.881
45300W        W12083  10.607  35.579   0.764
45301W        W12084  35.842  43.382  11.951
45302W        W12085  17.358  21.043   4.014
45303W        W12086  42.032  37.926   2.327
45304W        W12087  25.410   9.207  13.594
45305W        W12088   6.876  18.307   3.077
45306W        W12089  27.827  26.044  11.617
45307W        W12090  31.057  19.735  13.811
45308W        W12091  26.511  44.960  10.656
45309W        W12092  24.739   6.926   2.358
45310W        W12093  22.547  19.108  13.968
45311W        W12094  33.427  35.034  14.465
45312W        W12095  35.653   6.784   3.610
45313W        W12096  29.144  28.870   0.750
45314W        W12097  29.940  25.865   4.232
45315W        W12098  15.111  27.764   1.753
45316W        W12099  29.614  20.589  14.580
45317W        W12100  10.461  41.854   3.079
45318W        W12101  28.224  14.984  13.914
45319W        W12102  37.567  38.943  11.162
45320W        W12103  38.894  13.381   1.158
45321W        W12104  43.826  31.862  14.327
45322W        W12105  15.845  33.013   3.439
45323W        W12106  34.059  27.011  14.391
45324W        W12107  37.529  16.113  10.993
45325W        W12108  35.557   6.890   1.811
45326W        W12109  39.487   0.948   3.179
45327W        W12110  44.590  35.515   0.165
45328W        W12111   6.764  32.185   4.920
45329W        W12112  18.160  23.019  12.426
45330W        W12113  13.832  34.819  13.751
45331W        W12114  28.135  29.710   3.568
45332W        W12115  25.120  41.407   3.586
45333W        W12116   5.628  23.130  13.031
45334W        W12117  30.361  17.712   4.902
45335W        W12118  28.641  26.426  10.703
45336W        W12119  28.888  21.745   2.755
45337W        W12120  41.049  13.729   1.507
45338W        W12121  42.500  20.786  13.424
45339W        W12122  44.458  44.040  13.870
45340W        W12123  14.858  24.444  12.553
45341W        W12124   3.274   4.381   2.479
45342W        W12125  28.410   9.792  11.848
45343W        W12126   2.005   3.534  13.135
45344W        W12127   1.714  44.916  13.058
45345W        W12128  33.645  14.774   1.280
45346W        W12129   2.448   8.106  11.699
45347W        W12130  20.886   6.386   4.802
45348W        W12131  29.378  14.107  13.918
45349W        W12132  44.567   9.333  11.404
45350W        W12133  18.538   1.383  13.844
45351W        W12134  10.669  42.234  14.997
45352W        W12135  25.104  29.014  14.426
45353W        W12136  19.310   5.001  11.544
45354W        W12137  27.641  23.354  12.339
45355W        W12138  20.102  13.313  13.052
45356W        W12139  34.052   0.687   1.715
45357W        W12140  44.842  43.846   4.584
45358W        W12141  21.011  41.043  10.632
45359W        W12142   7.684  34.404   3.337
45360W        W12143   7.869   8.351   4.762
45361W        W12144  43.301   3.936   1.208
45362W        W12145   8.904  15.166   1.405
45363W        W12146  11.694  38.194  14.278
45364W        W12147  36.834  22.956  12.470
45365W        W12148  30.415  23.366  10.242
45366W        W12149  14.820  11.847  11.975
45367W        W12150   2.187   9.470  13.350
45368W        W12151  31.854   6.100  11.069
45369W        W12152  18.893  11.893  11.976
45370W        W12153  20.622  18.332   2.833
45371W        W12154  23.779  15.247  14.928
45372W        W12155   2.169  17.566  13.910
45373W        W12156   9.596  18.613  13.167
45374W        W12157  15.733  12.878   0.891
45375W        W12158  42.845  26.439  13.740
45376W        W12159  42.233   7.848  14.348
45377W        W12160  23.084   6.189   1.855
45378W        W12161  25.514  12.854   2.871
45379W        W12162  38.505   0.065   2.850
45380W        W12163   6.251  23.154  10.928
45381W        W12164  32.059  22.577   0.837
45382W        W12165   0.504  11.202  14.483
45383W        W12166  38.796  15.530  13.351
45384W        W12167  27.591  10.239   4.197
45385W        W12168  38.034   9.106   9.589
45386W        W12169   7.913  18.714   4.843
45387W        W12170   1.983  23.557   1.708
45388W        W12171  20.805  17.745  12.460
45389W        W12172  17.335   8.647  14.070
45390W        W12173   8.249   1.112  11.159
45391W        W12174  36.108  43.509  14.856
45392W        W12175  39.681  34.002   2.400
45393W        W12176   4.643   5.340   3.878
45394W        W12177  28.309  24.039  11.490
45395W        W12178  30.807  31.895  10.813
45396W        W12179  37.043  40.802   0.846
45397W        W12180  12.773  11.865   2.284
45398W        W12181  44.814  21.177   3.802
45399W        W12182  44.231  37.789   1.212
45400W        W12183  12.269  24.750   2.891
45401W        W12184   9.376   9.345  14.282
45402W        W12185  43.434   4.341   4.161
45403W        W12186  17.634  15.158   0.767
45404W        W12187  22.108  22.820  11.967
45405W        W12188   7.924  18.012  10.747
45406W        W12189  16.066  27.031  11.285
45407W        W12190   2.091  11.881  11.949
45408W        W12191  20.232  29.489  14.983
45409W        W12192  35.628  38.937   2.189
45410W        W12193  10.245  39.913   1.005
45411W        W12194  28.692  34.097  12.875
45412W        W12195   3.708  29.046   0.871
45413W        W12196  22.964  24.943  11.280
45414W        W12197  16.822  24.551   3.048
45415W        W12198   8.267  27.709  12.071
45416W        W12199  44.921   4.288  13.426
45417W        W12200  24.833   4.927  10.795
45418W        W12201  44.046  10.860   3.797
45419W        W12202  36.023  20.762   3.297
45420W        W12203   6.934  44.528   0.310
45421W        W12204   8.600  37.911  14.193
45422W        W12205   1.675  35.432  13.418
45423W        W12206  25.543  29.606   2.084
45424W        W12207   2.336  15.387  10.911
45425W        W12208   5.495  16.232  14.851
45426W        W12209  14.583  27.488   4.118
45427W        W12210  25.646  20.317   4.646
45428W        W12211   6.599  28.060  13.812
45429W        W12212   2.256  39.571   1.316
45430W        W12213  21.266   2.478   3.000
45431W        W12214  33.061  37.990   4.618
45432W        W12215  39.594  26.459  11.018
45433W        W12216   8.953  10.505  11.055
45434W        W12217  10.779   2.210   2.363
45435W        W12218  40.454  34.555   3.766
45436W        W12219  28.078  23.619  13.548
45437W        W12220   8.402   9.857  12.312
45438W        W12221  17.752  34.007   2.245
45439W        W12222  43.046   7.125  14.304
45440W        W12223  25.140  31.698   4.651
45441W        W12224  42.603  16.278  14.494
45442W        W12225   0.007  30.621  13.190
45443W        W12226  23.001  31.937   4.111
45444W        W12227   5.780  13.925  13.372
45445W        W12228  35.403  40.239   0.095
45446W        W12229  38.749  44.605  11.626
45447W        W12230  31.467  23.831  14.460
45448W        W12231  11.514  19.772  11.524
45449W        W12232  35.383  27.019   4.223
45450W        W12233  19.406  35.116   4.318
45451W        W12234  40.451  44.990  11.976
45452W        W12235   0.865   6.456   4.522
45453W        W12236   9.696  43.290   3.146
45454W        W12237  37.066  29.070   1.108
45455W        W12238  31.561  11.198  11.391
45456W        W12239   8.768  26.959  11.140
45457W        W12240  38.334  32.037   3.817
45458W        W12241  10.401  36.314   1.851
45459W        W12242  17.180  19.074   2.371
45460W        W12243  40.079  25.738  13.811
45461W        W12244  43.368  27.092   4.781
45462W        W12245   1.958  33.037   4.415
45463W        W12246  12.078   8.900   0.009
45464W        W12247  20.594  27.196  13.957
45465W        W12248  21.566  29.577   2.776
45466W        W12249  14.633   3.633  12.143
45467W        W12250  27.019  14.732   4.500
45468W        W12251  10.893  31.592   0.875
45469W        W12252  38.570  42.072  11.616
45470W        W12253  30.346  43.779   2.451
45471W        W12254   3.719  33.142  12.047
45472W        W12255  22.163  38.126  13.023
45473W        W12256  18.731  43.848  10.921
45474W        W12257  25.033  19.595   3.661
45475W        W12258  22.056  13.292   1.175
45476W        W12259  11.182   2.223   3.727
45477W        W12260  43.532   1.360  11.612
45478W        W12261   4.924  27.406   2.717
45479W        W12262  41.969  30.457   1.461
45480W        W12263  16.584  34.406   4.140
45481W        W12264  33.149   9.040   1.927
45482W        W12265   9.103  18.669   1.221
45483W        W12266  30.122  25.936   0.414
45484W        W12267  39.139  22.556  13.497
45485W        W12268  11.677  10.466   3.154
45486W        W12269   8.864  21.753  11.635
45487W        W12270  35.771  22.705   0.367
45488W        W12271  20.968   0.499   4.668
45489W        W12272  29.475  16.704  13.903
45490W        W12273  44.259  29.633   5.258
45491W        W12274  39.143   7.443   3.690
45492W        W12275  33.043  39.498  12.218
45493W        W12276  41.793  18.132  12.054
45494W        W12277  31.611  40.520  13.096
45495W        W12278  27.563  32.956  14.979
45496W        W12279   6.533  23.364   4.212
45497W        W12280  14.635  33.534  13.447
45498W        W12281   1.791  34.317   2.036
45499W        W12282  43.922   5.214   2.691
45500W        W12283  40.873  35.264  11.997
45501W        W12284   8.838   9.677  12.975
45502W        W12285  30.460  42.015  12.973
45503W        W12286  18.392   6.930  11.993
45504W        W12287  22.507  18.837  13.316
45505W        W12288  24.922  23.148  13.906
45506W        W12289   1.999  25.532   0.981
45507W        W12290  41.164  17.030  14.326
45508W        W12291  25.670  33.927  11.059
45509W        W12292  16.325   4.423  13.790
45510W        W12293  18.244  39.924   2.140
45511W        W12294   9.202   5.761   0.893
45512W        W12295  23.882  43.439   0.428
45513W        W12296   2.818   6.747  12.112
45514W        W12297  39.456  11.843   4.267
45515W        W12298  42.716  40.915  12.019
45516W        W12299  21.523  30.930  11.277
45517W        W12300   1.500  24.079   2.908
45518W        W12301   6.934  19.664   3.728
45519W        W12302  16.582  41.885  13.341
45520W        W12303  26.583   3.029   0.986
45521W        W12304  37.032  38.334  13.894
45522W        W12305  14.779  30.123   3.889
45523W        W12306  20.454  10.769  10.704
45524W        W12307  16.778  40.469  12.778
45525W        W12308  20.765  40.659   4.620
45526W        W12309   2.824  21.714   4.401
45527W        W12310  22.021  18.965  12.855
45528W        W12311  16.882   4.311   1.415
45529W        W12312  34.604   0.878   3.342
45530W        W12313   6.579  18.760   2.400
45531W        W12314   4.738  40.928  14.313
45532W        W12315  31.859  44.324  12.597
45533W        W12316  18.995  43.724  14.011
45534W        W12317  19.173  25.629   0.044
45535W        W12318  20.487  14.883  13.481
45536W        W12319  12.860  21.064   1.014
45537W        W12320  22.135   1.261   4.500
45538W        W12321  23.048  13.224  13.529
45539W        W12322  28.617   4.192   1.794
45540W        W12323  35.141   3.919   2.532
45541W        W12324   5.239  33.715   2.392
45542W        W12325   1.875  19.083   4.025
45543W        W12326  35.496   0.753   3.363
45544W        W12327  14.587   8.358  14.523
45545W        W12328   8.023  11.614   3.841
45546W        W12329  43.988  27.117  14.383
45547W        W12330  39.527   3.738   4.490
45548W        W12331  35.525  40.935  13.590
45549W        W12332  23.507  27.181  12.082
45550W        W12333  11.295   6.768   1.151
45551W        W12334  28.048  34.605  12.579
45552W        W12335  38.119  13.040  12.411
45553W        W12336  15.588  25.081  13.416
45554W        W12337  43.889  25.540  12.267
45555W        W12338   1.474  40.447  11.081
45556W        W12339  17.592  10.729  10.878
45557W        W12340   4.738   5.503  12.579
45558W        W12341   5.700   2.884  13.943
45559W        W12342  40.585  19.235   2.906
45560W        W12343  15.398  18.631   1.846
45561W        W12344  17.754  33.871   2.750
45562W        W12345  21.957  25.894   0.779
45563W        W12346  28.645  18.816   2.405
45564W        W12347  25.214   6.892   0.226
45565W        W12348  16.753  38.581  11.039
45566W        W12349  29.585  24.625  13.352
45567W        W12350   3.949  39.846  14.833
45568W        W12351  31.387  29.606   0.726
45569W        W12352  18.227  30.475   0.493
45570W        W12353   0.817  35.914   3.315
45571W        W12354  26.209  18.849   3.299
45572W        W12355  38.007  36.079  14.488
45573W        W12356  29.143  38.796   1.373
45574W        W12357  27.181  20.236  14.747
45575W        W12358  41.904   9.378  10.278
45576W        W12359  41.793   7.001   5.362
45577W        W12360  26.766  39.828   1.805
45578W        W12361  26.551  34.187   2.400
45579W        W12362  32.115   7.485   3.929
45580W        W12363   0.573  31.904  14.419
45581W        W12364  16.267  38.092  14.725
45582W        W12365  27.750  24.881   3.729
45583W        W12366   1.372  18.680  13.309
45584W        W12367  30.038   3.280  13.980
45585W        W12368  23.554  11.029   3.873
45586W        W12369  38.479  36.410  14.958
45587W        W12370   4.656   7.860   0.470
45588W        W12371  21.026  28.440   2.793
45589W        W12372  28.122   1.552  14.957
45590W        W12373  41.207  44.277   0.858
45591W        W12374   2.390  23.499  11.376
45592W        W12375   1.386  19.161  13.513
45593W        W12376  14.422   0.218  11.139
45594W        W12377  20.863  20.067  10.779
45595W        W12378  15.903   4.162   0.390
45596W        W12379  34.176  16.175   3.159
45597W        W12380  30.185  40.062  10.935
45598W        W12381  31.652  35.988   0.935
45599W        W12382   0.454  17.613  11.363
45600W        W12383  39.185  23.691   0.684
45601W        W12384  33.072  44.801  12.548
45602W        W12385  13.710  36.081   1.018
45603W        W12386  34.419  23.133   2.833
45604W        W12387  42.866   6.780  13.956
45605W        W12388  12.611  11.165  12.088
45606W        W12389  43.847  34.901  14.960
45607W        W12390  34.420  25.000  12.858
45608W        W12391  43.876  17.669  11.592
45609W        W12392  21.621  22.402  13.972
45610W        W12393  30.564  37.549   0.321
45611W        W12394  19.463  26.381  12.419
45612W        W12395  24.331  25.136  11.471
45613W        W12396  17.620  17.233  10.883
45614W        W12397  30.580  21.564   3.410
45615W        W12398  14.985  44.190  14.491
45616W        W12399  10.927  12.499   0.735
45617W        W12400  20.520  16.564  12.862
45618W        W12401  13.298  18.206   4.536
45619W        W12402  39.441  15.854  13.926
45620W        W12403   5.274  14.091   0.831
45621W        W12404  16.775   1.763   1.928
45622W        W12405   7.977  12.003   4.978
45623W        W12406   6.143  43.777  14.587
45624W        W12407  17.152  38.483   3.679
45625W        W12408  23.742   8.461  11.557
45626W        W12409  17.596  12.696  10.322
45627W        W12410   8.268  39.931   2.210
45628W        W12411  37.293  15.292  11.890
45629W        W12412  44.540  30.970  13.831
45630W        W12413   5.865  14.657   1.077
45631W        W12414   3.681  38.763   3.273
45632W        W12415  31.593  20.335   2.782
45633W        W12416  30.558   0.831   1.663
45634W        W12417   6.407  22.007  12.598
45635W        W12418  13.920  40.837  13.349
45636W        W12419  22.256  19.633   1.903
45637W        W12420  44.293  16.074  14.871
45638W        W12421  37.381  15.607  11.016
45639W        W12422  35.418  14.554   0.992
45640W        W12423  18.753  26.640   3.273
45641W        W12424  42.604  34.919  11.886
45642W        W12425   9.968   3.882  14.949
45643W        W12426  29.625   8.944  12.066
45644W        W12427  17.169  18.634   2.128
45645W        W12428  13.570  41.304  11.634
45646W        W12429  16.689  39.090  11.029
45647W        W12430  40.622  22.118  13.447
45648W        W12431  34.677  36.408   3.376
45649W        W12432  38.416  15.084  12.515
45650W        W12433  41.896  24.564  14.473
45651W        W12434  21.220  24.016   1.492
45652W        W12435  37.630  41.953   1.931
45653W        W12436  20.344  41.434  11.124
45654W        W12437  18.261  19.629   4.125
45655W        W12438  42.293  14.123   1.268
45656W        W12439  34.858  22.610  11.192
45657W        W12440  31.793  15.747   4.030
45658W        W12441   1.448  29.952   0.825
45659W        W12442  35.186  44.442  11.135
45660W        W12443  31.147  35.423  10.680
45661W        W12444  23.079  33.711   2.683
45662W        W12445  15.743  25.034  12.074
45663W        W12446   9.898   2.704   2.310
45664W        W12447  30.438  34.915   2.795
45665W        W12448  43.927  39.493   3.389
45666W        W12449  42.386  19.276  12.361
45667W        W12450  36.114  32.625   3.093
45668W        W12451  17.782  39.269  14.853
45669W        W12452   9.796  12.426  10.733
45670W        W12453  27.914  13.226  14.254
45671W        W12454  40.764   5.852  12.914
45672W        W12455   4.046  19.124  11.892
45673W        W12456  21.117  33.625  10.547
45674W        W12457  25.540  44.969   3.250
45675W        W12458  36.000  40.156   3.129
45676W        W12459  23.919  44.884   1.355
45677W        W12460  19.240  18.290  10.279
45678W        W12461  11.808  11.736   0.267
45679W        W12462  16.984  40.609  11.087
45680W        W12463  14.678  40.437   4.815
45681W        W12464   0.866  11.397  12.039
45682W        W12465  23.494  43.236  14.468
45683W        W12466   4.293  33.641  13.361
45684W        W12467   6.897  19.578  12.995
45685W        W12468  37.928  41.060   0.498
45686W        W12469  16.402  35.118  11.983
45687W        W12470   6.897  24.730  13.308
45688W        W12471  26.902  16.077  12.975
45689W        W12472   1.405  39.881  12.464
45690W        W12473  22.256  32.606  13.051
45691W        W12474  18.073  43.326  13.886
45692W        W12475  39.976  19.325   3.151
45693W        W12476   9.794  15.608   4.545
45694W        W12477  44.405  36.642   3.385
45695W        W12478  27.005  21.194  12.882
45696W        W12479  14.384  42.968  12.439
45697W        W12480  21.577   2.850   3.178
45698W        W12481  14.873  43.414  11.744
45699W        W12482  40.562  34.056   3.554
45700W        W12483  28.697  20.212  10.611
45701W        W12484  27.362  11.538  12.116
45702W        W12485  40.042  43.725   1.208
45703W        W12486  21.068  14.185   4.282
45704W        W12487  10.154  12.238   1.218
45705W        W12488  12.709  11.654  10.483
45706W        W12489  27.154  24.094  10.398
45707W        W12490  23.973  28.094   3.546
45708W        W12491  24.017  21.297  11.159
45709W        W12492  12.311  19.025   3.583
45710W        W12493  35.466   4.306   2.123
45711W        W12494  25.284   4.741  14.844
45712W        W12495  22.223  41.083  14.947
45713W        W12496  36.629  43.699   1.405
45714W        W12497  26.082  35.016  11.997
45715W        W12498  10.361  36.519   3.199
45716W        W12499   2.333  39.280  14.945
45717W        W12500  21.278  43.891  10.660
45718W        W12501  40.966  40.977   0.374
45719W        W12502  20.604  18.522   3.627
45720W        W12503  37.327   2.910  14.206
45721W        W12504  25.222  22.100   2.153
45722W        W12505   7.719  11.161   1.824
45723W        W12506  29.024  35.440   2.801
45724W        W12507   2.001   1.728  13.857
45725W        W12508  30.003  10.914   0.408
45726W        W12509  11.164  26.561  10.871
45727W        W12510  10.614  40.014  12.604
45728W        W12511  26.476   2.870   4.616
45729W        W12512  13.655  22.700   0.788
45730W        W12513  15.818  15.307   3.780
45731W        W12514  15.273  28.493   1.352
45732W        W12515  23.765  21.951   4.171
45733W        W12516  10.073  30.489  13.463
45734W        W12517  22.195  42.472  12.827
45735W        W12518  15.709   5.030  12.828
45736W        W12519  38.348  31.384   1.001
45737W        W12520  16.316  44.012  13.489
45738W        W12521  20.167   0.986   0.481
45739W        W12522  32.008  24.249  13.840
45740W        W12523  38.597  20.725  10.798
45741W        W12524  19.113  42.268  12.924
45742W        W12525  23.073  38.275  13.368
45743W        W12526   3.338  43.501   4.226
45744W        W12527   4.137  26.118  12.435
45745W        W12528  44.212   1.429   2.899
45746W        W12529  13.123  30.167   3.808
45747W        W12530  35.803   5.795  10.576
45748W        W12531  31.889  12.155  12.933
45749W        W12532   0.408  40.283  12.881
45750W        W12533  32.139   2.934   0.936
45751W        W12534   0.791   6.384   0.519
45752W        W12535  38.363  37.943  12.519
45753W        W12536   3.879  25.293   4.763
45754W        W12537  24.061  27.872   3.054
45755W        W12538  20.048  26.941  11.955
45756W        W12539   2.707  37.540   1.206
45757W        W12540  39.155   6.107   3.284
45758W        W12541   7.556  19.468   0.466
45759W        W12542  26.601   8.604   1.856
45760W        W12543  18.582  30.124   4.140
45761W        W12544  15.124  21.259   3.235
45762W        W12545  33.158  33.652  14.784
45763W        W12546  30.018  42.050   5.087
45764W        W12547  42.025  39.324  12.220
45765W        W12548  40.381  40.918  14.217
45766W        W12549   9.432   1.082  14.951
45767W        W12550  37.085  15.182  14.972
45768W        W12551  26.042  10.076  14.326
45769W        W12552   3.710  40.852   0.003
45770W        W12553  20.790   3.407   4.132
45771W        W12554  19.066   7.854  14.241
45772W        W12555  36.868  25.827   3.806
45773W        W12556  21.622   7.328   5.086
45774W        W12557  12.951  10.605   2.820
45775W        W12558  39.353  16.828   4.711
45776W        W12559   3.042   2.905   0.730
45777W        W12560  43.847  16.894   4.577
45778W        W12561  26.705  32.341  13.736
45779W        W12562  40.485   3.208   2.447
45780W        W12563  33.183  34.916   0.420
45781W        W12564  20.576  21.056   0.509
45782W        W12565  37.307  31.109   4.492
45783W        W12566  16.598  10.077  13.416
45784W        W12567  25.256  34.521   1.912
45785W        W12568  14.018   8.196   4.187
45786W        W12569   5.433   1.383  12.435
45787W        W12570  31.988   9.627  11.431
45788W        W12571   2.953  13.075   4.818
45789W        W12572  37.013   1.693  10.372
45790W        W12573  25.068  32.964   3.181
45791W        W12574  11.734  38.736   4.075
45792W        W12575   4.898   5.098   3.451
45793W        W12576  34.104  40.994  13.530
45794W        W12577  30.378  26.981   2.689
45795W        W12578  10.429  26.024   4.665
45796W        W12579  44.348  30.137  13.319
45797W        W12580   4.698   2.667   4.172
45798W        W12581  30.019  13.699   0.724
45799W        W12582  38.201   6.358   0.970
45800W        W12583  18.626   6.402   1.728
45801W        W12584  36.859   2.927  11.142
45802W        W12585  19.779  10.798  11.320
45803W        W12586   5.648   9.814   2.265
45804W        W12587  28.935  33.397  13.867
45805W        W12588  36.044  19.920   3.081
45806W        W12589  28.188  27.925  13.562
45807W        W12590  33.105  20.610   1.626
45808W        W12591  31.486  23.164   0.436
45809W        W12592  11.486  39.244   0.778
45810W        W12593  43.755  41.902   1.211
45811W        W12594   0.798  18.823  10.394
45812W        W12595  43.088   9.668   0.396
45813W        W12596  41.774   3.239   5.111
45814W        W12597  25.124  37.550  12.074
45815W        W12598  22.004  34.824   4.092
45816W        W12599   8.666  16.702   4.099
45817W        W12600  37.987   0.174  13.441
45818W        W12601  32.658  22.247   3.212
45819W        W12602  30.545  23.603   0.501
45820W        W12603  17.213  15.277  11.855
45821W        W12604  30.479  30.498  10.716
45822W        W12605   1.993   5.882  11.379
45823W        W12606  29.917  38.403   1.681
45824W        W12607  25.203  38.840  14.936
45825W        W12608   8.790   0.382  13.487
45826W        W12609  23.400  34.447  14.787
45827W        W12610  42.782  20.074  11.930
45828W        W12611  29.473   5.091   0.422
45829W        W12612  18.060   9.516   0.897
45830W        W12613  40.820  34.764   4.897
45831W        W12614  18.150  28.567  12.726
45832W        W12615  26.803  36.025   4.061
45833W        W12616  18.656   3.278   2.140
45834W        W12617   3.789   3.112   5.202
45835W        W12618   3.508   4.524  12.677
45836W        W12619   8.749   1.261  13.374
45837W        W12620  27.412  25.130  11.887
45838W        W12621  23.126  16.067   3.151
45839W        W12622  10.234  13.536   0.830
45840W        W12623  43.970  19.835   0.782
45841W        W12624  12.118   4.989  14.345
45842W        W12625   6.337  19.806  11.171
45843W        W12626  35.355  22.493   2.261
45844W        W12627  43.198   0.317   0.030
45845W        W12628  20.850  26.191  13.300
45846W        W12629  23.509   6.519  14.834
45847W        W12630  44.527   7.663   0.064
45848W        W12631  11.253  32.615   2.644
45849W        W12632  44.957  15.345  11.725
45850W        W12633  40.437  20.688   0.916
45851W        W12634   5.654  20.595   0.709
45852W        W12635  20.647  19.618  10.677
45853W        W12636   3.808  26.998  11.381
45854W        W12637  43.716  28.732   1.756
45855W        W12638  17.829  12.600  14.934
45856W        W12639  33.936  29.233  14.557
45857W        W12640   6.961  39.306  14.794
45858W        W12641   8.432  35.141  12.844
45859W        W12642   7.193  44.223  11.840
45860W        W12643  35.267  31.874  10.998
45861W        W12644  19.132  10.746  14.413
45862W        W12645  10.259  16.591  11.717
45863W        W12646   0.227  27.259  11.233
45864W        W12647  27.419  22.710   2.688
45865W        W12648  43.725  25.345  11.320
45866W        W12649  41.355  18.694   0.947
45867W        W12650  12.788  17.084   1.021
45868W        W12651  29.076  19.620  12.643
45869W        W12652  29.989  12.456  12.740
45870W        W12653  14.344  44.536  13.882
45871W        W12654  28.185   2.651   3.140
45872W        W12655   5.242  19.154   0.507
45873W        W12656   8.212  34.852  11.621
45874W        W12657  41.552  26.208   4.192
45875W        W12658  11.882  24.875  12.838
45876W        W12659  21.453  39.903  13.762
45877W        W12660  38.167  10.215   2.381
45878W        W12661  24.438  28.412  11.600
45879W        W12662   0.724  43.435  14.122
45880W        W12663  36.657  38.342   4.110
45881W        W12664  20.068  20.683   3.432
45882W        W12665  31.524   4.880   2.703
45883W        W12666  25.238   9.549  10.950
45884W        W12667  36.675  23.607  10.282
45885W        W12668  33.535  24.432  13.898
45886W        W12669  39.957  22.313   4.936
45887W        W12670  19.624  43.055   1.833
45888W        W12671  24.112  25.503   3.107
45889W        W12672  39.642  13.007  14.948
45890W        W12673  13.363  26.751  11.382
45891W        W12674  23.302  24.182  14.515
45892W        W12675  31.372  36.388   1.239
45893W        W12676   7.180  44.983  14.448
45894W        W12677  19.723   2.284  12.791
45895W        W12678   3.004  26.936  11.026
45896W        W12679   0.443  21.792   0.815
45897W        W12680  36.496  19.166   0.866
45898W        W12681  11.267  28.983   3.346
45899W        W12682  44.935  33.710   3.124
45900W        W12683  29.238   3.975  10.403
45901W        W12684   7.320  44.255   4.282
45902W        W12685   6.928  23.010   0.374
45903W        W12686   6.220   8.853  14.383
45904W        W12687   1.182  36.149  12.835
45905W        W12688  38.280  38.570  11.442
45906W        W12689   8.472  25.775   4.501
45907W        W12690  19.461  34.135  11.536
45908W        W12691   2.872  15.061  13.141
45909W        W12692  27.853  27.365   1.009
45910W        W12693   5.661   6.865  13.375
45911W        W12694   9.388   0.841   4.586
45912W        W12695   1.485  43.673   2.230
45913W        W12696  42.271   7.640   1.198
45914W        W12697  44.116  17.474  11.191
45915W        W12698  42.043  23.696  14.496
45916W        W12699  44.249   6.285  13.311
45917W        W12700  40.814  18.880   3.275
45918W        W12701  42.442  27.390   4.401
45919W        W12702  17.178   3.263  11.608
45920W        W12703  18.831   5.921   0.970
45921W        W12704   8.222  37.883   3.111
45922W        W12705  44.046  30.515  13.527
45923W        W12706  43.349  10.197  12.043
45924W        W12707  37.233  37.843  14.394
45925W        W12708   9.549   2.225   1.566
45926W        W12709  31.549  20.143   3.651
45927W        W12710  14.091  27.157  10.369
45928W        W12711  23.905  18.182   2.859
45929W        W12712  25.637  30.837  12.978
45930W        W12713  28.662  44.272   2.695
45931W        W12714  35.876   5.122  13.928
45932W        W12715  40.484  24.547   2.816
45933W        W12716   7.497  32.088  12.751
45934W        W12717  43.896   2.668   4.731
45935W        W12718  29.992  30.479  11.711
45936W        W12719  17.263  42.473   0.488
45937W        W12720   2.395  30.386  13.573
45938W        W12721  19.528  19.651   0.376
45939W        W12722   4.419  17.727   1.548
45940W        W12723  19.335  26.217  11.431
45941W        W12724  41.708  17.805   3.902
45942W        W12725  12.818  31.106  14.778
45943W        W12726  41.516  31.995  11.660
45944W        W12727  11.174   0.792   2.341
45945W        W12728   0.700  26.345  11.778
45946W        W12729   9.371  17.014   3.363
45947W        W12730  16.169   8.365   3.613
45948W        W12731   0.217  40.932   3.344
45949W        W12732  27.171  42.316   0.933
45950W        W12733  36.005  39.455  13.809
45951W        W12734  32.651   8.826  12.053
45952W        W12735  41.039  38.491   3.977
45953W        W12736  25.718   8.253   2.418
45954W        W12737   0.341  24.252   1.408
45955W        W12738  43.180  11.505  13.334
45956W        W12739   3.318   4.543  14.487
45957W        W12740  17.984  25.167   3.612
45958W        W12741  33.954  16.834   2.214
45959W        W12742  24.112  43.420  13.311
45960W        W12743  44.960  32.989  11.893
45961W        W12744  22.835   8.586  11.061
45962W        W12745  27.668  39.643  14.951
45963W        W12746   2.351  37.964   3.220
45964W        W12747  13.305  17.407  11.282
45965W        W12748  37.168   2.742   0.746
45966W        W12749   4.936  43.872   1.363
45967W        W12750   9.838  18.324   1.760
45968W        W12751   7.879  19.309  13.755
45969W        W12752  19.191   2.522   2.198
45970W        W12753   2.386  28.431   0.692
45971W        W12754  41.047  31.075   0.413
45972W        W12755  44.002  42.910   4.172
45973W        W12756   5.900   5.389   4.319
45974W        W12757  24.425  23.752   2.374
45975W        W12758  14.732  30.120  13.127
45976W        W12759  43.477  26.736   3.299
45977W        W12760   8.200   9.862   0.246
45978W        W12761  23.231  19.763  12.770
45979W        W12762  39.366  44.308   4.640
45980W        W12763  29.922  40.518  13.204
45981W        W12764  41.275   1.238   2.460
45982W        W12765  40.347  19.236  12.386
45983W        W12766   5.787  21.088   3.284
45984W        W12767   4.873  42.306   0.373
45985W        W12768  32.996   3.858  14.275
45986W        W12769   3.493  44.393  11.263
45987W        W12770  32.555   1.027  14.721
45988W        W12771  41.579  25.952  12.039
45989W        W12772  34.921  41.172   0.521
45990W        W12773   0.031   8.904  10.396
45991W        W12774  35.363  14.833  12.047
45992W        W12775   1.639  25.928   3.238
45993W        W12776  44.773  20.349  14.396
45994W        W12777  26.483  24.409  14.437
45995W        W12778   8.255  35.357  11.620
45996W        W12779  26.456  33.005   0.999
45997W        W12780  17.079  38.964  10.720
45998W        W12781  32.071  39.812  10.763
45999W        W12782  44.434  26.603  14.980
46000W        W12783   3.474  12.896  14.873
46001W        W12784  22.327  29.183   2.649
46002W        W12785  12.744  26.848   4.794
46003W        W12786  37.384  32.500  13.874
46004W        W12787  15.368   3.072  14.141
46005W        W12788  30.859  21.160   3.613
46006W        W12789  24.710  27.615  13.483
46007W        W12790  18.824  29.633   5.020
46008W        W12791   3.413  36.966  11.586
46009W        W12792   1.929  32.373   3.884
46010W        W12793  10.733   8.713   1.612
46011W        W12794  15.537  40.212   2.541
46012W        W12795  34.864  11.388  11.187
46013W        W12796  20.397  19.585  12.232
46014W        W12797  41.094   3.817   0.980
46015W        W12798   4.228  20.303   2.822
46016W        W12799   9.647   7.016  14.733
46017W        W12800  21.983  25.553  14.437
46018W        W12801  21.647  30.533  12.101
46019W        W12802  25.428  18.601   4.251
46020W        W12803  35.299  10.774   2.080
46021W        W12804  28.276  35.315   3.209
46022W        W12805   5.644   1.582   0.754
46023W        W12806  32.963  36.785   0.304
46024W        W12807  31.142   5.321   1.015
46025W        W12808   8.415  28.565   0.037
46026W        W12809  40.114   3.358  10.674
46027W        W12810  33.653   7.481   3.148
46028W        W12811  15.289  39.925   3.218
46029W        W12812  12.308  22.625   1.767
46030W        W12813  32.462  17.617   0.773
46031W        W12814  27.026  24.140  12.101
46032W        W12815   0.494  32.671   1.466
46033W        W12816  18.163  30.032   3.147
46034W        W12817  31.564   0.827   1.966
46035W        W12818  41.411   0.405  12.090
46036W        W12819  10.135  31.049   2.088
46037W        W12820   9.155  25.912  10.721
46038W        W12821  29.327   8.894  12.511
46039W        W12822  28.094   7.465  14.306
46040W        W12823  32.855  18.073  14.912
46041W        W12824  10.370   5.826  11.973
46042W        W12825   2.784  33.854  14.662
46043W        W12826  10.627  12.294   0.368
46044W        W12827  16.721   5.498   4.582
46045W        W12828  18.062  17.905  11.051
46046W        W12829   2.054  36.096   1.697
46047W        W12830  31.736  41.319  11.397
46048W        W12831  29.614  19.071   3.329
46049W        W12832  19.696  33.482   1.219
46050W        W12833   5.229  26.292   4.848
46051W        W12834  36.006   0.618  12.206
46052W        W12835  27.601  31.911  10.450
46053W        W12836  18.103  44.459   1.707
46054W        W12837   3.153  37.387  11.422
46055W        W12838   1.859  18.186   0.956
46056W        W12839   7.859  14.588  11.573
46057W        W12840  22.826   7.667   2.348
46058W        W12841  24.570  15.282  14.430
46059W        W12842  11.414   9.898  12.585
46060W        W12843  40.429  36.953   3.206
46061W        W12844  35.010  10.210   4.789
46062W        W12845  16.306  22.095   0.941
46063W        W12846  11.721  35.336  14.967
46064W        W12847  42.780  40.460  12.226
46065W        W12848  22.794   3.016  13.945
46066W        W12849  42.853  36.754   0.702
46067W        W12850  43.313  33.100   0.214
46068W        W12851  16.487  41.883  11.013
46069W        W12852  32.208  43.673   2.171
46070W        W12853  37.489  19.934  11.143
46071W        W12854  44.797   2.707  11.500
46072W        W12855  18.635   8.693  12.245
46073W        W12856  24.886   9.399   3.581
46074W        W12857   8.154  43.011  10.337
46075W        W12858  27.611  21.343  14.444
46076W        W12859   1.854  35.355   4.548
46077W        W12860  42.859  35.774   2.416
46078W        W12861  41.351  37.503   9.925
46079W        W12862  33.504  21.772   0.698
46080W        W12863   9.110  30.053  12.650
46081W        W12864  28.568  41.335   0.949
46082W        W12865   1.806  21.297  13.243
46083W        W12866   1.054  33.531   1.223
46084W        W12867  26.250  38.006  12.960
46085W        W12868  26.507  27.093  10.744
46086W        W12869  32.644  33.635  13.931
46087W        W12870   0.553  43.354   0.962
46088W        W12871   9.601  29.916  12.446
46089W        W12872  25.645  41.484   0.367
46090W        W12873   6.753   3.848   3.443
46091W        W12874  39.375  42.580   3.711
46092W        W12875   3.516  34.167   0.735
46093W        W12876  44.941  34.668   3.409
46094W        W12877  26.119  42.073   3.420
46095W        W12878  23.742  36.799  13.989
46096W        W12879  25.261  40.786   1.305
46097W        W12880  40.074  39.380   4.534
46098W        W12881   2.819  18.383   4.844
46099W        W12882  26.667  13.260  13.680
46100W        W12883  29.670   0.709  14.933
46101W        W12884  20.187  29.517  13.489
46102W        W12885  13.569   5.179  13.881
46103W        W12886  40.533  24.758   0.785
46104W        W12887  19.670   4.916   3.180
46105W        W12888   9.129  17.909  13.098
46106W        W12889  13.809  34.080  10.199
46107W        W12890  40.077  31.039   2.845
46108W        W12891  44.784   2.619   4.534
46109W        W12892  42.890  22.116   2.028
46110W        W12893  38.514  13.273  10.632
46111W        W12894  23.585  34.086  11.893
46112W        W12895  23.517  13.347   4.590
46113W        W12896   9.897  10.223   3.270
46114W        W12897  36.483  41.858   1.507
46115W        W12898   9.861  34.513  14.339
46116W        W12899  40.074  43.512  14.460
46117W        W12900  20.017  36.492  10.703
46118W        W12901  37.872  22.751   1.854
46119W        W12902  28.694   8.688  11.912
46120W        W12903  43.339  11.069   4.617
46121W        W12904  40.928  22.703   0.341
46122W        W12905  32.928  41.626  13.620
46123W        W12906  23.795  30.421  10.608
46124W        W12907  32.150  42.860   1.357
46125W        W12908  15.704   1.044   3.064
46126W        W12909  11.644  30.121   4.726
46127W        W12910  32.010  16.241  14.572
46128W        W12911   2.781   7.431  10.617
46129W        W12912   3.622   7.659  14.033
46130W        W12913  40.841  36.402   3.527
46131W        W12914  19.258  27.532   2.938
46132W        W12915   3.257  44.280  12.581
46133W        W12916   3.912  21.511  11.056
46134W        W12917  32.975  14.847   0.822
46135W        W12918  39.953   3.297  12.096
46136W        W12919  24.291  42.763   0.648
46137W        W12920  15.098  19.178  11.654
46138W        W12921   3.189  37.390  13.960
46139W        W12922   9.340  30.329  13.017
46140W        W12923   3.185  42.383   0.906
46141W        W12924  34.960  24.197  13.010
46142W        W12925   5.082  23.925  11.141
46143W        W12926  17.248  36.734  14.132
46144W        W12927  43.753  11.767   3.321
46145W        W12928  18.251  42.074  11.479
46146W        W12929  40.880  38.905   2.952
46147W        W12930  13.819  44.565   0.486
46148W        W12931  32.548  31.428  10.641
46149W        W12932  43.644   1.869  11.481
46150W        W12933  14.077  36.918   2.644
46151W        W12934  37.050  27.858  11.483
46152W        W12935   3.651  28.413  13.043
46153W        W12936  14.266  44.801   0.478
46154W        W12937  29.093  22.194   1.188
46155W        W12938  21.115  20.475   3.582
46156W        W12939  23.915  35.513  12.016
46157W        W12940  36.232  13.320  14.538
46158W        W12941  28.144  21.584  11.078
46159W        W12942  26.655  19.115   3.362
46160W        W12943  35.057  13.155  10.554
46161W        W12944  12.631   3.681   1.232
46162W        W12945   9.757  29.075  13.938
46163W        W12946  16.364   8.724   4.967
46164W        W12947  42.926  42.671   0.837
46165W        W12948  41.690   5.127   2.748
46166W        W12949   1.833  43.790   4.193
46167W        W12950  13.645  24.684  12.643
46168W        W12951  14.306   2.757   4.180
46169W        W12952  44.435  20.501  11.587
46170W        W12953  32.839  32.112   2.706
46171W        W12954  36.518  13.508   4.742
46172W        W12955  28.304  43.788  13.435
46173W        W12956  33.977  18.570  11.589
46174W        W12957  41.939  25.478   1.434
46175W        W12958  40.765   5.436  13.817
46176W        W12959  27.899   5.219   1.979
46177W        W12960  44.931   0.357  12.964
46178W        W12961  13.732  39.223   3.645
46179W        W12962   7.022   0.913  10.698
46180W        W12963  11.877   6.003  12.063
46181W        W12964  20.497  23.962   3.254
46182W        W12965  19.376  35.948   2.730
46183W        W12966  41.736  32.084   4.631
46184W        W12967   9.252  41.864  14.720
46185W        W12968   3.270   3.520  14.437
46186W        W12969  31.350  22.656   3.890
46187W        W12970   7.066   7.783  14.465
46188W        W12971   2.712  36.896  13.046
46189W        W12972  41.720  39.331  11.829
46190W        W12973  38.498  24.009   0.874
46191W        W12974  30.589  44.786   2.404
46192W        W12975  24.123  24.586  12.460
46193W        W12976  41.484  31.945  12.618
46194W        W12977  42.808  42.269  10.297
46195W        W12978  39.523  22.159  13.373
46196W        W12979  10.298  36.787   2.748
46197W        W12980  18.803  10.173   4.814
46198W        W12981  36.028  22.022  11.200
46199W        W12982  21.539  12.401  11.697
46200W        W12983  41.818   2.440   3.794
46201W        W12984  26.126  19.689  11.912
46202W        W12985  40.070  34.939   0.692
46203W        W12986  41.980  20.162  10.717
46204W        W12987   2.423  11.308   4.004
46205W        W12988  36.634   7.839  11.342
46206W        W12989  33.365  38.881   1.683
46207W        W12990  41.365  21.332  11.120
46208W        W12991  20.312  42.269  11.060
46209W        W12992  43.175   6.770   0.951
46210W        W12993  15.492  39.867  12.675
46211W        W12994  14.644  21.547   2.299
46212W        W12995  22.008  22.415  14.357
46213W        W12996   6.875  42.333  12.231
46214W        W12997  17.644  26.365   4.085
46215W        W12998  28.658  17.424  12.870
46216W        W12999  23.019  41.428  12.764
46217W        W13000  13.457  34.740  11.907
46218W        W13001   9.807   0.944   1.108
46219W        W13002  13.748   3.190   2.423
46220W        W13003  18.559  14.199   1.093
46221W        W13004  25.948  16.175  13.513
46222W        W13005  37.374  32.069   0.373
46223W        W13006   6.498   6.727  11.191
46224W        W13007  24.971  44.978   1.307
46225W        W13008   6.812  29.750   2.849
46226W        W13009  33.678  27.157  11.583
46227W        W13010  18.712  34.509   3.407
46228W        W13011  13.831  42.769   0.480
46229W        W13012  35.021  15.819   0.717
46230W        W13013  38.370  13.377   3.356
46231W        W13014  14.671  31.961   3.670
46232W        W13015  17.278   0.901  13.492
46233W        W13016  29.326  24.290   0.277
46234W        W13017  10.278  28.746   3.930
46235W        W13018  19.612   9.009   2.260
46236W        W13019  38.890  39.643  12.395
46237W        W13020  16.623  38.785  12.584
46238W        W13021  13.034   4.788   0.434
46239W        W13022   8.897  26.609  14.302
46240W        W13023   7.151  23.737  13.403
46241W        W13024  42.939  10.318   2.623
46242W        W13025  30.873   6.366  11.225
46243W        W13026  37.412  18.585  12.521
46244W        W13027  35.387  37.539   4.037
46245W        W13028  28.604  19.335   2.437
46246W        W13029  34.021  13.987  10.982
46247W        W13030   1.302  39.493   3.161
46248W        W13031  41.821   0.274  12.396
46249W        W13032  18.891  20.747   3.928
46250W        W13033  39.815   2.925  11.475
46251W        W13034  23.152   4.476   4.938
46252W        W13035  14.388   1.847   1.550
46253W        W13036   0.415  11.268   4.787
46254W        W13037  38.286  44.899   1.682
46255W        W13038  39.028  28.074   0.061
46256W        W13039  41.569  18.292  10.711
46257W        W13040  28.562  17.611  13.349
46258W        W13041  29.865   5.158   4.160
46259W        W13042  43.735  19.346  14.296
46260W        W13043  15.956  41.623   4.152
46261W        W13044  28.819  19.674  13.122
46262W        W13045  30.038  40.824   1.816
46263W        W13046  42.274  25.567  10.591
46264W        W13047  11.327  29.460  13.408
46265W        W13048   0.310  42.466   0.043
46266W        W13049  36.294   1.963  13.926
46267W        W13050   6.487  22.947   4.517
46268W        W13051  34.311  18.612  14.791
46269W        W13052  14.153  39.570  14.338
46270W        W13053  42.953   5.547   4.599
46271W        W13054   4.659  44.198   3.548
46272W        W13055   6.469  27.431   3.516
46273W        W13056  14.152  38.243  12.994
46274W        W13057  10.813  38.621  12.097
46275W        W13058  21.205   9.822   4.590
46276W        W13059  27.521  12.935   4.198
46277W        W13060   6.652  39.216  14.354
46278W        W13061   8.434  41.891   0.505
46279W        W13062  14.991  30.665   0.714
46280W        W13063   5.981  21.058  11.489
46281W        W13064  37.252  17.826  14.371
46282W        W13065  21.962  22.348  12.125
46283W        W13066  26.426   6.820  14.874
46284W        W13067  10.645  30.061  12.488
46285W        W13068  34.843  11.191   2.196
46286W        W13069  39.388  44.925   2.942
46287W        W13070  20.971   9.485  13.433
46288W        W13071  37.912  43.669  11.543
46289W        W13072  37.647  37.589   2.285
46290W        W13073  44.018  24.965   0.854
46291W        W13074  24.585   4.316   3.392
46292W        W13075  27.570  43.280   3.830
46293W        W13076  11.590   0.423  13.809
46294W        W13077  36.772  29.672   3.669
46295W        W13078  36.123  31.608   4.087
46296W        W13079  26.682   7.357   4.602
46297W        W13080  40.632   0.007   3.236
46298W        W13081  15.092  20.716  11.736
46299W        W13082  13.378  30.184  11.726
46300W        W13083  44.837  44.988   3.639
46301W        W13084  37.810  10.523  11.179
46302W        W13085  27.862   1.241  11.994
46303W        W13086  28.760  34.482   4.140
46304W        W13087  25.687  35.994  13.115
46305W        W13088  42.047  23.950  13.155
46306W        W13089  17.374   8.896   4.105
46307W        W13090   8.303  34.151  10.941
46308W        W13091   9.330  16.086   1.820
46309W        W13092  37.006  11.569   2.249
46310W        W13093  15.893  38.046   2.344
46311W        W13094  42.896  14.707  12.060
46312W        W13095  27.069  20.305   0.263
46313W        W13096  21.069  34.912  11.817
46314W        W13097  42.797  24.373  14.511
46315W        W13098  30.458   5.730   1.636
46316W        W13099   5.754   5.201   1.477
46317W        W13100  10.553  39.005   2.770
46318W        W13101  33.483  39.563  11.515
46319W        W13102  10.432   6.252   4.116
46320W        W13103  19.601  21.025   4.134
46321W        W13104   6.384  30.402   1.973
46322W        W13105  38.289   2.484  11.475
46323W        W13106  32.163  30.697   1.054
46324W        W13107   1.684  26.499   2.268
46325W        W13108  14.102  33.077  11.618
46326W        W13109  23.220  12.190  14.227
46327W        W13110  44.822  12.486  12.469
46328W        W13111  34.714  26.167   1.234
46329W        W13112  36.798  36.393  13.896
46330W        W13113  29.940  24.632  14.692
46331W        W13114   7.003   1.195   2.766
46332W        W13115  12.051   0.672  13.742
46333W        W13116  33.950  44.993  10.545
46334W        W13117   4.941   9.023   1.873
46335W        W13118   2.308  17.777   0.345
46336W        W13119  19.022   5.217   1.760
46337W        W13120  13.146  13.427   4.051
46338W        W13121   7.809  13.151   2.014
46339W        W13122  24.119  35.939   4.369
46340W        W13123  22.314  38.294   0.877
46341W        W13124  21.880  31.846   3.114
46342W        W13125  36.634  19.872  11.995
46343W        W13126  12.902  44.578  13.802
46344W        W13127  37.929  30.144  13.048
46345W        W13128  20.398  42.700   2.311
46346W        W13129   3.981   3.837  14.956
46347W        W13130  29.990  16.775  13.922
46348W        W13131  36.808  33.065   1.001
46349W        W13132  28.470  14.679  11.578
46350W        W13133  37.428   6.062   3.596
46351W        W13134  44.521   4.582   4.983
46352W        W13135  42.939   1.171   4.698
46353W        W13136  36.769  37.673  14.200
46354W        W13137  16.589  34.236  13.816
46355W        W13138  28.876   5.932  12.421
46356W        W13139  27.590  23.729   2.289
46357W        W13140  28.059  36.937   1.186
46358W        W13141  41.168   3.924  11.479
46359W        W13142  33.441  28.904  13.013
46360W        W13143  28.119  29.172   2.269
46361W        W13144   3.728  44.097   1.876
46362W        W13145  44.404  21.789   1.704
46363W        W13146  14.290  17.382   2.917
46364W        W13147  43.488  28.761   2.241
46365W        W13148  17.498  24.646  14.259
46366W        W13149   4.192  29.846   1.317
46367W        W13150   1.993  37.133   2.290
46368W        W13151  38.972   9.749   0.347
46369W        W13152   5.953  13.264   1.017
46370W        W13153   8.692  41.624  14.393
46371W        W13154  38.794   3.887  12.325
46372W        W13155  18.500   5.366  13.787
46373W        W13156  39.280  13.381   3.143
46374W        W13157  18.056  18.818  14.283
46375W        W13158   4.847   6.607   3.359
46376W        W13159  20.077  17.060  14.385
46377W        W13160   4.421   9.959   0.032
46378W        W13161  30.732  29.512  12.592
46379W        W13162  25.947  15.330   0.965
46380W        W13163  26.189  20.558   4.817
46381W        W13164  34.674  22.124  11.216
46382W        W13165   0.565   8.319   0.488
46383W        W13166  10.853  22.615   0.643
46384W        W13167   7.332  11.124   2.884
46385W        W13168  30.532  15.621   2.776
46386W        W13169  23.187  12.375  12.013
46387W        W13170   0.682   3.908   1.339
46388W        W13171  11.153  39.433   2.111
46389W        W13172  34.945  35.011   0.005
46390W        W13173  34.314  35.000   1.912
46391W        W13174   4.928  29.121   3.676
46392W        W13175  29.912  10.626   4.104
46393W        W13176  34.188  13.605   1.684
46394W        W13177  29.931   2.019  14.476
46395W        W13178  37.466   0.815  13.116
46396W        W13179  33.890  12.732  11.498
46397W        W13180  20.959  39.917   4.104
46398W        W13181  34.149  44.368   3.844
46399W        W13182  16.317  19.012  11.262
46400W        W13183  24.292  21.615  13.030
46401W        W13184  34.177   9.455  13.067
46402W        W13185  44.654  29.341  12.023
46403W        W13186   4.010  11.663   1.697
46404W        W13187  14.102  41.351  13.324
46405W        W13188  32.411  21.017   1.702
46406W        W13189  10.371  31.347  11.491
46407W        W13190  44.109  25.129   3.679
46408W        W13191  26.142  23.960   0.455
46409W        W13192  35.937  42.200   2.276
46410W        W13193  41.417  38.593  13.990
46411W        W13194  30.288  18.160  11.707
46412W        W13195  14.579  24.154   4.941
46413W        W13196  36.316  29.108  13.896
46414W        W13197  25.946  33.499   2.356
46415W        W13198  32.318  24.991  11.545
46416W        W13199  40.022  39.195   0.203
46417W        W13200  37.875  35.393   1.740
46418W        W13201  38.246  16.822  11.977
46419W        W13202   1.943  42.704   0.742
46420W        W13203  11.069  41.038   1.944
46421W        W13204   5.183  30.563  12.405
46422W        W13205   3.996  32.525   4.979
46423W        W13206  12.263  35.099   3.055
46424W        W13207  15.649   2.852   3.717
46425W        W13208  15.537   4.267  11.558
46426W        W13209  20.110  23.614   1.669
46427W        W13210  11.155   4.834   4.083
46428W        W13211  14.819  18.659   0.683
46429W        W13212  41.531   9.802  10.972
46430W        W13213  26.460  21.668   3.880
46431W        W13214   8.175   2.747   2.135
46432W        W13215  43.254  11.445  14.342
46433W        W13216  27.555  14.880  11.646
46434W        W13217  10.779  18.497  10.632
46435W        W13218   4.908   8.183   0.132
46436W        W13219   2.883  34.040   3.897
46437W        W13220  27.595  29.956  13.021
46438W        W13221  15.133  44.763   3.327
46439W        W13222  37.943  39.421   3.680
46440W        W13223  31.421  26.098  12.118
46441W        W13224  19.756  29.585   2.887
46442W        W13225  21.802  14.798   4.004
46443W        W13226   8.902  12.715   1.347
46444W        W13227  42.641  40.381   2.700
46445W        W13228  37.825  34.436  13.893
46446W        W13229  33.636  36.657  12.547
46447W        W13230  44.301  11.285   3.683
46448W        W13231   7.828  29.936   0.876
46449W        W13232  10.850  25.788   0.296
46450W        W13233   7.786  29.616  10.961
46451W        W13234  15.763  33.810   1.986
46452W        W13235  12.103  42.646  10.581
46453W        W13236  22.091   1.629  11.856
46454W        W13237  12.664  17.005   3.576
46455W        W13238  30.603  22.582  14.003
46456W        W13239  28.087  26.917   3.998
46457W        W13240  15.585  37.933  13.988
46458W        W13241   6.840  29.626   3.407
46459W        W13242   7.287  30.105  13.399
46460W        W13243   2.756   5.402  14.784
46461W        W13244  35.675  27.285  11.586
46462W        W13245  33.891  23.787   1.386
46463W        W13246   9.336  10.901  11.929
46464W        W13247  24.647  41.438   1.406
46465W        W13248  28.471  25.238  13.820
46466W        W13249  19.831   4.987  11.694
46467W        W13250  25.749   8.556  12.204
46468W        W13251   8.508  32.509   2.703
46469W        W13252  35.329  40.116  14.240
46470W        W13253   0.452  23.803   4.513
46471W        W13254   7.637   0.710   2.870
46472W        W13255  29.857  29.119   3.214
46473W        W13256  13.530  38.467   3.211
46474W        W13257  13.080  40.344   2.913
46475W        W13258  37.943   0.819  12.621
46476W        W13259  18.537  41.359   5.025
46477W        W13260   1.363   0.682   2.210
46478W        W13261  32.761  26.660   0.916
46479W        W13262  38.089  25.148   3.219
46480W        W13263   5.680  13.734   4.608
46481W        W13264   2.780  40.306  10.771
46482W        W13265  33.873   7.825  13.864
46483W        W13266   0.973  34.493   1.482
46484W        W13267  24.993  25.345  10.305
46485W        W13268  15.995  14.723   9.825
46486W        W13269   8.350  14.997   4.176
46487W        W13270  16.306  14.377   2.435
46488W        W13271  10.348  35.651   3.640
46489W        W13272  21.495  10.500  13.816
46490W        W13273  20.916  12.033   0.035
46491W        W13274  38.855   3.352  12.906
46492W        W13275  22.197  18.761   4.201
46493W        W13276  40.726   1.840   1.827
46494W        W13277  10.726  15.103   4.671
46495W        W13278   2.887  25.517  12.393
46496W        W13279   5.886  17.079   4.928
46497W        W13280  27.939  21.961  12.926
46498W        W13281   1.285  28.026  11.418
46499W        W13282  43.335  22.320   0.787
46500W        W13283  39.486  20.753   2.393
46501W        W13284  14.252  39.233  14.730
46502W        W13285  18.021  31.532   1.907
46503W        W13286  43.087  33.929   0.833
46504W        W13287  30.289  35.995   4.263
46505W        W13288  43.977  24.052  12.100
46506W        W13289   7.289   5.391   0.939
46507W        W13290  18.649  33.395   0.286
46508W        W13291  25.057  25.620   2.238
46509W        W13292  44.745  26.013   0.756
46510W        W13293  43.854   8.884  12.148
46511W        W13294  22.732  44.996   1.878
46512W        W13295  37.969  44.581  11.969
46513W        W13296  37.538  30.293   2.390
46514W        W13297  39.374  35.426   0.820
46515W        W13298  27.818  32.050  13.572
46516W        W13299  12.740  44.738   4.812
46517W        W13300  30.112  17.280  14.091
46518W        W13301  44.976  15.828   3.386
46519W        W13302  32.617  27.113  10.770
46520W        W13303  25.651  35.252  13.885
46521W        W13304  23.949  16.107   2.341
46522W        W13305  17.222  27.433   3.659
46523W        W13306  16.094  33.019   4.115
46524W        W13307  10.136  17.175   3.611
46525W        W13308  33.481  39.988  10.107
46526W        W13309  31.394  39.737  14.365
46527W        W13310  16.191  21.501   2.499
46528W        W13311  16.741  13.292   1.509
46529W        W13312  28.715   6.854   1.535
46530W        W13313  31.351  22.464  14.863
46531W        W13314  20.497  18.709  12.132
46532W        W13315   2.682  39.018  13.454
46533W        W13316  38.199   4.670   3.663
46534W        W13317  12.407  44.480  10.797
46535W        W13318   4.897  12.464   2.354
46536W        W13319  41.512  43.356  12.033
46537W        W13320  22.030   1.380   0.301
46538W        W13321  32.165  41.726  12.577
46539W        W13322  30.659  28.102  14.093
46540W        W13323  39.366   4.649   4.823
46541W        W13324  42.892  42.413   3.343
46542W        W13325  16.678  13.453  14.318
46543W        W13326  29.386   2.055  10.296
46544W        W13327  27.579   2.354  13.273
46545W        W13328  41.815  13.625  11.220
46546W        W13329  42.672   8.348   3.642
46547W        W13330  39.204   4.790  14.971
46548W        W13331   0.996  15.156  10.981
46549W        W13332  32.629  40.862  10.626
46550W        W13333  27.712  27.656  14.552
46551W        W13334  34.782  21.653   2.509
46552W        W13335   2.311  20.854  14.382
46553W        W13336  42.812   1.382  13.000
46554W        W13337  26.320  25.712  14.056
46555W        W13338  34.612  40.047  13.470
46556W        W13339  42.089  32.674   2.236
46557W        W13340  10.294   5.777   2.794
46558W        W13341  22.594  27.205   0.691
46559W        W13342   7.710   7.464  10.728
46560W        W13343  35.914  36.554  13.985
46561W        W13344  21.291   5.215   2.858
46562W        W13345  19.188  19.301  12.911
46563W        W13346   8.970  18.765  13.945
46564W        W13347  36.338  28.760   2.133
46565W        W13348  18.558   7.798  13.009
46566W        W13349  36.519  22.251  12.452
46567W        W13350   5.572  19.706   4.278
46568W        W13351  23.543   8.154  11.166
46569W        W13352  11.691  39.992  12.278
46570W        W13353  41.358  27.174  10.649
46571W        W13354  22.198  40.744  11.158
46572W        W13355   2.958  21.108  12.045
46573W        W13356  40.786  29.154  14.486
46574W        W13357  40.485  40.406   1.878
46575W        W13358  20.544  23.611   1.392
46576W        W13359  44.361  36.569  10.734
46577W        W13360  37.982  30.145   2.628
46578W        W13361  24.774  21.856  11.091
46579W        W13362  14.365   6.287  11.590
46580W        W13363  18.154  40.774   4.137
46581W        W13364  40.690   4.406   3.341
46582W        W13365  24.527  17.197   1.354
46583W        W13366  14.740  44.672   0.339
46584W        W13367  34.154  19.127  13.900
46585W        W13368  32.470  39.448  10.713
46586W        W13369   9.282  31.393   4.177
46587W        W13370   4.863  18.316   1.969
46588W        W13371  10.661  32.495   4.261
46589W        W13372  19.825  19.610   0.854
46590W        W13373   0.814  44.518   0.244
46591W        W13374  43.776  32.025   1.094
46592W        W13375  25.252   5.917   4.934
46593W        W13376  24.030   0.570  12.849
46594W        W13377  41.083  42.481  11.536
46595W        W13378   2.319  30.423  12.098
46596W        W13379  24.635  14.236   0.285
46597W        W13380  18.545  33.166  11.115
46598W        W13381  15.826  21.669   4.619
46599W        W13382  14.689  19.086   0.412
46600W        W13383  16.114  21.558   0.966
46601W        W13384   2.212  11.841   3.215
46602W        W13385  33.991  35.878   2.172
46603W        W13386  38.404  41.257   3.785
46604W        W13387  17.865   4.813   2.257
46605W        W13388  22.148  25.105   2.414
46606W        W13389  18.356   8.543   3.232
46607W        W13390  19.017   0.446   0.683
46608W        W13391  10.893  14.827   0.404
46609W        W13392  20.172   1.272   1.814
46610W        W13393   3.550  10.336   1.761
46611W        W13394   1.956  41.483   1.971
46612W        W13395  22.638  40.371   1.724
46613W        W13396  13.561  38.999  11.939
46614W        W13397  14.973   8.884   4.771
46615W        W13398   8.199  10.183   3.393
46616W        W13399   3.457  23.140  14.370
46617W        W13400  15.007  34.962  14.886
46618W        W13401  19.012   4.308  14.731
46619W        W13402   9.199   8.255   0.011
46620W        W13403  29.041  25.946   4.026
46621W        W13404  32.845   5.650   3.106
46622W        W13405  31.048   4.829   1.814
46623W        W13406  13.456  44.306  10.313
46624W        W13407  13.292   3.151   1.477
46625W        W13408  27.931  27.391  12.326
46626W        W13409  39.912  11.201  14.972
46627W        W13410  37.642  31.909  12.635
46628W        W13411  20.468  24.091  12.012
46629W        W13412  24.534  32.177   4.229
46630W        W13413   1.084  42.895   1.652
46631W        W13414  27.325  36.378  10.953
46632W        W13415   8.982   9.380   0.322
46633W        W13416  21.219  17.209  14.768
46634W        W13417  19.764  15.349  13.141
46635W        W13418  26.656  18.588   0.437
46636W        W13419  19.178  17.839   0.928
46637W        W13420  19.501  34.273   3.784
46638W        W13421  38.380   6.151   2.698
46639W        W13422  21.194  38.327  13.281
46640W        W13423   7.696   3.883   0.421
46641W        W13424  33.101  19.070  14.350
46642W        W13425  17.896  27.258   0.335
46643W        W13426  30.140  21.674   1.440
46644W        W13427  16.333  31.722  13.040
46645W        W13428  36.657  39.783  13.531
46646W        W13429  23.644  29.763   2.809
46647W        W13430  15.679   7.376  12.076
46648W        W13431  26.254  28.673   3.731
46649W        W13432   9.292   1.246  11.610
46650W        W13433  23.392  35.579   0.336
46651W        W13434  24.989  18.240   0.760
46652W        W13435  32.683  44.282  11.035
46653W        W13436   8.609   0.494   0.569
46654W        W13437  10.314  37.421  13.297
46655W        W13438  33.838  14.129  11.799
46656W        W13439  39.069   5.996  11.488
46657W        W13440   7.744   1.751   1.445
46658W        W13441  42.563  14.662   4.107
46659W        W13442  32.040  25.825  10.722
46660W        W13443   1.991   3.378   3.303
46661W        W13444  29.938   4.642   4.098
46662W        W13445  43.033  39.545   3.604
46663W        W13446   8.746   8.279  12.934
46664W        W13447   4.326  43.049  10.998
46665W        W13448  10.502  19.915   2.215
46666W        W13449  44.971  22.505   0.014
46667W        W13450  41.699  28.248  10.977
46668W        W13451  13.761   3.185  14.926
46669W        W13452   7.618  10.571  14.385
46670W        W13453   7.509   0.771   4.017
46671W        W13454  17.945  42.548  12.273
46672W        W13455  31.313  19.146   0.678
46673W        W13456  19.247  22.614  12.878
46674W        W13457  33.084   1.305   4.798
46675W        W13458   1.246   5.942   2.607
46676W        W13459   7.714  13.610   1.704
46677W        W13460  34.465   7.106  13.863
46678W        W13461  10.074  42.837  13.777
46679W        W13462  15.841  15.565  10.714
46680W        W13463  10.376  22.986   2.368
46681W        W13464  28.915  39.377   2.148
46682W        W13465   6.392   2.178   3.994
46683W        W13466  17.084   2.617  12.921
46684W        W13467  39.413  14.196   4.544
46685W        W13468  29.456  17.158  11.523
46686W        W13469  28.444   9.834   0.284
46687W        W13470  18.551  10.189   1.526
46688W        W13471  24.030  31.918  11.619
46689W        W13472  24.116  17.552   2.220
46690W        W13473  38.764  16.879  12.015
46691W        W13474  20.120   5.215   3.104
46692W        W13475  26.527  36.751   0.416
46693W        W13476  43.866   4.954  12.391
46694W        W13477  19.414  14.738   1.869
46695W        W13478  42.799  38.453  11.523
46696W        W13479   5.374   9.348   4.715
46697W        W13480  13.191  43.693  13.594
46698W        W13481  13.307  31.819  14.269
46699W        W13482  15.302  44.207  12.689
46700W        W13483   9.187   8.410   1.889
46701W        W13484  26.395   5.788  13.480
46702W        W13485  27.598  41.313   0.329
46703W        W13486  27.674  13.456  11.601
46704W        W13487  24.181  18.704   4.650
46705W        W13488  16.223  23.946  13.525
46706W        W13489  34.548  37.978   1.335
46707W        W13490  34.576  29.651  12.144
46708W        W13491  12.404  21.164   3.696
46709W        W13492   9.703  14.886  12.938
46710W        W13493  33.018  43.599   1.802
46711W        W13494  44.319  34.541   2.676
46712W        W13495  30.098   5.640   2.004
46713W        W13496   5.685  14.633  13.954
46714W        W13497  10.857   3.954   3.642
46715W        W13498  19.612   7.489  10.344
46716W        W13499  28.035  18.384  12.084
46717W        W13500  14.014  21.598   0.409
46718W        W13501  10.883  29.334  10.209
46719W        W13502  16.834  36.354  11.502
46720W        W13503  35.934  29.719  14.362
46721W        W13504  20.604  27.387   4.976
46722W        W13505   1.935  23.077  14.821
46723W        W13506   3.057  27.435  11.544
46724W        W13507  38.553  16.135  11.027
46725W        W13508  18.784  22.500  12.074
46726W        W13509  16.754  33.883  10.509
46727W        W13510   1.548  38.406   0.787
46728W        W13511   5.654  29.051   4.559
46729W        W13512  31.648  36.913   2.223
46730W        W13513  35.075  39.411   2.679
46731W        W13514  24.770  43.280  11.466
46732W        W13515  32.091  25.053   0.227
46733W        W13516   5.031  34.663   0.930
46734W        W13517  21.821  33.365  14.483
46735W        W13518  33.105  27.436   3.178
46736W        W13519  15.920  28.729   2.506
46737W        W13520  35.485  42.083   4.737
46738W        W13521  44.443  26.972   2.873
46739W        W13522  21.508  23.749  13.081
46740W        W13523  39.189  17.058   3.010
46741W        W13524  37.531  13.807  13.530
46742W        W13525  23.032  34.021  12.623
46743W        W13526   6.763  33.258   0.525
46744W        W13527  18.507  19.573   0.395
46745W        W13528   1.431   5.375   4.461
46746W        W13529  34.329  14.296  12.027
46747W        W13530  36.320   2.255  12.068
46748W        W13531  29.914  25.658  13.844
46749W        W13532  17.835  19.530   1.801
46750W        W13533  43.931  26.006  13.951
46751W        W13534  12.203  27.861  14.847
46752W        W13535   1.562  17.492  13.046
46753W        W13536  22.753   6.627  10.720
46754W        W13537  11.918  37.665  11.928
46755W        W13538  14.796  28.436  13.475
46756W        W13539  21.988  41.005   1.830
46757W        W13540  11.992   5.825  14.499
46758W        W13541  25.918   5.418  11.823
46759W        W13542  39.812  29.389  13.372
46760W        W13543  20.101   8.810   1.141
46761W        W13544   4.910  39.588   2.403
46762W        W13545   5.080  27.124  12.472
46763W        W13546  32.265  44.796   1.752
46764W        W13547  32.192  25.923   0.371
46765W        W13548  10.796  10.091   2.266
46766W        W13549  34.330  16.290   0.028
46767W        W13550  43.894  33.900   2.786
46768W        W13551  41.330  34.571   0.692
46769W        W13552   6.741   2.354   3.300
46770W        W13553  20.564   2.789  12.605
46771W        W13554  33.417  27.004  11.161
46772W        W13555  42.470  26.029   4.171
46773W        W13556  14.389   5.366  12.532
46774W        W13557  42.933  21.078   2.971
46775W        W13558   3.817  44.981   4.961
46776W        W13559  34.955  25.635   1.917
46777W        W13560  44.775  34.582   4.930
46778W        W13561  24.583  20.092  10.745
46779W        W13562  25.974  30.513   2.750
46780W        W13563  39.492   1.203   2.210
46781W        W13564  37.535  13.738  12.983
46782W        W13565   4.386   3.304  11.033
46783W        W13566  44.312  21.952  12.905
46784W        W13567   1.861  31.208   4.795
46785W        W13568  24.516  24.675  11.634
46786W        W13569  44.539  29.448  10.728
46787W        W13570  27.274  23.984   4.142
46788W        W13571  21.972  11.478  12.421
46789W        W13572  16.630   8.624   1.201
46790W        W13573  43.974  42.575  13.927
46791W        W13574   5.263  19.162   3.288
46792W        W13575  12.886   5.465  12.500
46793W        W13576  14.226   8.791  10.368
46794W        W13577   4.841  17.996  14.935
46795W        W13578   2.169  15.881   1.884
46796W        W13579  37.694  42.782  14.113
46797W        W13580  14.235  18.061   4.904
46798W        W13581  34.519  21.700   1.552
46799W        W13582  27.787  19.605   4.181
46800W        W13583  35.847  16.689   1.766
46801W        W13584   0.654  32.654   0.136
46802W        W13585   6.170  39.550  11.082
46803W        W13586  22.878  19.277   3.569
46804W        W13587   5.676  18.724   4.306
46805W        W13588  43.942  32.670  11.968
46806W        W13589   7.873   3.616  11.024
46807W        W13590  42.360  31.455  12.558
46808W        W13591  37.063  35.970   0.047
46809W        W13592  14.074  29.478  13.376
46810W        W13593  13.611   9.111  13.062
46811W        W13594  36.786  33.795   4.627
46812W        W13595  30.172  34.439  11.909
46813W        W13596  12.321  43.391   0.959
46814W        W13597  39.551  41.529  11.490
46815W        W13598  40.698   9.300  12.130
46816W        W13599   3.695  33.146  11.241
46817W        W13600  25.084   7.237  13.442
46818W        W13601  31.005  21.389  12.371
46819W        W13602  17.067  16.303   4.969
46820W        W13603  40.907  11.895   2.205
46821W        W13604   7.799  25.637  12.502
46822W        W13605  27.589  30.405   3.797
46823W        W13606  20.400  34.522  12.494
46824W        W13607  25.659  10.016  13.956
46825W        W13608  10.115  27.106  10.664
46826W        W13609   9.233  30.170  14.772
46827W        W13610   9.688  40.826   4.323
46828W        W13611  43.040  29.062   1.292
46829W        W13612  17.241  36.537  14.638
46830W        W13613   1.181   8.888   0.405
46831W        W13614  38.024   2.320  14.410
46832W        W13615  42.963  36.980   1.848
46833W        W13616   8.227   0.404  10.525
46834W        W13617  28.896  25.178   2.328
46835W        W13618  41.542   2.203   2.199
46836W        W13619  36.749  36.771  12.940
46837W        W13620  16.866  24.684   2.552
46838W        W13621  27.589  18.075   3.195
46839W        W13622   3.881  13.667   1.631
46840W        W13623   9.637  40.067  13.688
46841W        W13624  21.638  10.646  12.518
46842W        W13625  41.993  44.664   4.180
46843W        W13626  19.830  25.382   2.559
46844W        W13627   1.667   4.515   2.461
46845W        W13628  11.660  38.780  10.201
46846W        W13629  20.584  11.080   3.744
46847W        W13630  15.138  43.425   4.527
46848W        W13631   1.977  41.354  11.112
46849W        W13632  22.023  18.262   4.168
46850W        W13633   2.413   6.065   2.354
46851W        W13634  35.424  13.551  10.537
46852W        W13635  43.750  21.786   3.713
46853W        W13636  43.764  24.090  11.645
46854W        W13637   7.374  20.457  14.092
46855W        W13638  13.423  22.594  13.918
46856W        W13639  15.680  16.531   1.839
46857W        W13640   1.212  18.055   4.611
46858W        W13641  22.501   8.018   5.116
46859W        W13642   4.615  31.355   3.056
46860W        W13643  22.147  43.910   0.708
46861W        W13644  16.358  28.843   0.778
46862W        W13645  12.509  26.538  10.405
46863W        W13646   3.851  38.281  10.737
46864W        W13647   2.206  41.311  10.195
46865W        W13648  15.848   6.923  12.991
46866W        W13649  12.375  23.932  13.771
46867W        W13650   7.828  28.486   4.609
46868W        W13651  37.979   4.253   0.309
46869W        W13652  14.667  37.890   1.235
46870W        W13653   5.268  30.482   0.942
46871W        W13654  12.006  11.136  13.832
46872W        W13655  30.481  41.123   1.637
46873W        W13656  22.038  42.575  12.274
46874W        W13657  43.213  44.819   1.302
46875W        W13658  40.206   7.431   4.175
46876W        W13659   6.989  20.092   0.778
46877W        W13660  42.887  34.672  13.014
46878W        W13661  29.499  33.214  13.925
46879W        W13662  34.321  29.114  14.899
46880W        W13663  32.130  19.348  11.895
46881W        W13664  25.242   2.482  11.629
46882W        W13665  20.644  25.503   4.167
46883W        W13666   2.107  16.522   0.740
46884W        W13667   9.633  12.234   1.357
46885W        W13668  19.076   6.956  14.019
46886W        W13669   3.867  19.581   4.168
46887W        W13670   8.768  12.927  10.539
46888W        W13671  10.965  30.473   4.158
46889W        W13672   8.168  20.124   1.866
46890W        W13673  15.703  24.164  12.274
46891W        W13674  32.882  20.113   1.646
46892W        W13675  41.501  23.605  10.894
46893W        W13676  30.184  24.758   3.253
46894W        W13677   0.192  12.161   2.260
46895W        W13678  40.373  25.622  10.926
46896W        W13679  29.106  42.121   1.787
46897W        W13680  23.260  23.176   2.148
46898W        W13681  37.836  23.242   4.025
46899W        W13682   9.422   0.458  10.968
46900W        W13683  11.786   2.282   0.054
46901W        W13684  22.968  14.147   3.802
46902W        W13685  10.736  30.540   1.752
46903W        W13686  37.846   3.546  12.057
46904W        W13687  39.301  27.738   3.032
46905W        W13688   0.499  24.943   3.755
46906W        W13689  42.158  25.192  12.444
46907W        W13690   6.630  18.718   2.928
46908W        W13691   5.185  13.320   3.317
46909W        W13692  21.894  21.261   2.112
46910W        W13693  44.470  16.092   2.610
46911W        W13694  34.451  32.071  12.473
46912W        W13695  44.794  43.267   1.433
46913W        W13696  35.898  35.513  13.824
46914W        W13697  38.845   5.549  13.518
46915W        W13698  41.397  23.031   3.844
46916W        W13699  32.422   7.352  12.992
46917W        W13700  23.497  37.332   0.930
46918W        W13701  40.835  26.077  12.315
46919W        W13702   5.846   3.352   3.826
46920W        W13703  27.974   3.809   4.553
46921W        W13704  12.734  15.165  12.841
46922W        W13705  28.106  16.767   4.462
46923W        W13706  13.481   8.830   4.581
46924W        W13707   5.738  41.905   1.843
46925W        W13708  44.884  35.044   2.185
46926W        W13709  19.573  12.724   2.380
46927W        W13710  31.396  38.914   4.107
46928W        W13711   6.714  29.061  12.955
46929W        W13712  35.373  11.701   4.056
46930W        W13713  33.134  32.078  11.246
46931W        W13714   2.901  19.771  10.609
46932W        W13715  41.589   3.963   2.757
46933W        W13716   6.744  44.880  11.188
46934W        W13717  27.367  10.909   1.270
46935W        W13718  29.012  36.545   1.308
46936W        W13719   0.324  41.818  14.288
46937W        W13720   7.556   4.837  13.339
46938W        W13721  29.158   2.287   0.057
46939W        W13722  28.814  44.480  10.779
46940W        W13723  37.035  31.055  11.585
46941W        W13724  19.123  42.383  14.228
46942W        W13725  41.201  17.591   2.747
46943W        W13726   9.132  44.130  14.863
46944W        W13727  22.751  11.419  10.155
46945W        W13728  43.877  33.642  12.312
46946W        W13729   7.337   8.280   3.337
46947W        W13730  34.125   1.023  13.405
46948W        W13731  42.422  44.292   0.327
46949W        W13732   6.364  28.449  11.656
46950W        W13733  17.777   3.476   1.704
46951W        W13734  28.603  18.892  13.767
46952W        W13735   8.137  29.469   4.041
46953W        W13736  25.618  24.721   2.619
46954W        W13737  16.588  33.792   1.728
46955W        W13738  16.307  31.941   4.952
46956W        W13739  16.535  31.109  14.070
46957W        W13740  35.900  29.412  14.803
46958W        W13741  26.986   3.317   0.414
46959W        W13742  43.916  11.672   1.461
46960W        W13743  38.964   4.697  13.336
46961W        W13744   8.319  28.757  12.178
46962W        W13745  24.600  21.119  12.377
46963W        W13746  25.279  43.691   3.350
46964W        W13747  21.131  19.697   3.234
46965W        W13748  32.161   1.627  13.342
46966W        W13749  41.935  26.040   2.839
46967W        W13750  18.782  27.115  14.466
46968W        W13751  15.622  12.770  14.021
46969W        W13752  29.179   3.914   1.182
46970W        W13753  40.383  34.320   1.146
46971W        W13754  24.759  37.857  11.468
46972W        W13755  41.296  12.136  13.572
46973W        W13756  14.288  18.435   4.530
46974W        W13757   3.886   7.959  13.315
46975W        W13758  34.077  29.829   2.088
46976W        W13759  22.492  34.631   3.652
46977W        W13760  44.177  31.722   4.117
46978W        W13761  24.932  14.087   0.806
46979W        W13762   4.259  42.667   3.844
46980W        W13763  14.198  36.903   1.137
46981W        W13764  18.682  31.605   4.696
46982W        W13765  30.599  24.261   4.256
46983W        W13766  35.507  23.432   0.320
46984W        W13767  43.264   8.070   0.712
46985W        W13768  38.082  22.404   4.163
46986W        W13769  27.264  21.685   0.255
46987W        W13770  43.396  41.520   2.265
46988W        W13771  39.595  11.081  12.610
46989W        W13772  19.394  23.336   4.137
46990W        W13773  41.442  35.162   3.153
46991W        W13774  23.884  11.790   3.283
46992W        W13775  11.146  28.595  12.391
46993W        W13776  36.053   1.923   3.593
46994W        W13777  23.609  34.886   0.017
46995W        W13778  18.498  22.634  11.146
46996W        W13779  13.334  30.107  12.580
46997W        W13780  42.272  29.945  11.005
46998W        W13781  22.707  11.884  12.989
46999W        W13782  44.877   7.358  12.972
47000W        W13783  34.551  33.380   3.562
47001W        W13784  14.451  39.912  12.488
47002W        W13785  12.300  37.362   1.540
47003W        W13786  10.770  18.985   2.665
47004W        W13787  10.813  33.006  13.962
47005W        W13788   2.329   8.414  13.776
47006W        W13789  28.233  32.045   0.808
47007W        W13790  17.587   3.914  14.864
47008W        W13791  13.428  27.630   2.829
47009W        W13792  13.037  15.792  10.239
47010W        W13793   4.896  41.262   0.555
47011W        W13794  24.536   1.111   3.207
47012W        W13795  26.376  24.214  11.579
47013W        W13796  42.092  40.307   2.797
47014W        W13797  37.208   6.448  10.212
47015W        W13798  43.781  44.356   1.906
47016W        W13799  42.297  37.780  13.525
47017W        W13800  23.291  30.556  12.247
47018W        W13801  41.947   7.274   0.963
47019W        W13802  29.541  10.369  14.963
47020W        W13803  43.873  34.588  11.335
47021W        W13804  14.934  37.423  10.146
47022W        W13805  42.009  38.300  13.887
47023W        W13806  37.680   9.862  10.036
47024W        W13807   2.672  42.259   0.936
47025W        W13808  11.196  39.569   3.376
47026W        W13809  39.800  41.879   3.329
47027W        W13810  32.645  10.712  10.990
47028W        W13811  36.597  34.416   2.257
47029W        W13812  42.272  14.554  12.862
47030W        W13813   9.733  42.988  14.764
47031W        W13814  33.495   9.904  13.378
47032W        W13815  40.162  26.165  14.734
47033W        W13816  23.196  17.454  11.673
47034W        W13817   5.397  17.825   4.294
47035W        W13818  29.403  21.169  13.995
47036W        W13819  18.790  22.934   0.726
47037W        W13820  28.154   2.828  10.014
47038W        W13821  13.619  35.590   4.574
47039W        W13822  37.254  44.308  12.956
47040W        W13823  23.880  35.366  14.999
47041W        W13824  36.369  16.693  13.815
47042W        W13825  10.694  44.943  14.751
47043W        W13826  38.716  41.315  10.201
47044W        W13827  23.462  36.809  13.117
47045W        W13828  26.519   8.311  10.903
47046W        W13829  25.048  18.110   4.316
47047W        W13830  31.007   5.014  13.511
47048W        W13831  25.170   5.286   1.680
47049W        W13832  32.894   5.987  13.082
47050W        W13833  24.709  35.895  11.445
47051W        W13834  15.140  42.395   2.702
47052W        W13835  34.915   3.704  10.731
47053W        W13836  27.258  23.155   2.880
47054W        W13837  44.526   6.673  13.607
47055W        W13838   1.216   8.824  11.541
47056W        W13839  24.367  21.410  11.507
47057W        W13840  18.501  30.411  12.568
47058W        W13841  19.245  10.701   4.645
47059W        W13842  34.204  40.978   2.779
47060W        W13843  15.976  44.500  12.020
47061W        W13844  30.276  21.995  12.194
47062W        W13845  12.604   1.001   0.483
47063W        W13846  44.085  13.629  11.187
47064W        W13847   6.587   1.859  11.582
47065W        W13848   3.933   6.644  10.942
47066W        W13849   7.436   1.728  12.127
47067W        W13850  24.588  38.852  11.197
47068W        W13851  23.138  32.305   2.656
47069W        W13852   2.153   8.723   2.222
47070W        W13853  29.858  13.142  14.572
47071W        W13854  18.803   8.439  10.392
47072W        W13855  22.041  36.425  11.955
47073W        W13856   6.295   1.673  10.059
47074W        W13857  15.872   7.009  14.663
47075W        W13858   3.311  43.097   3.907
47076W        W13859  14.930  14.143   2.602
47077W        W13860   1.625  20.535   3.822
47078W        W13861  24.919  12.915  12.964
47079W        W13862   8.107  38.128   2.663
47080W        W13863  19.139   2.381  10.985
47081W        W13864   0.008  28.693  13.026
47082W        W13865  30.014   6.843  13.872
47083W        W13866  40.463  11.207  13.893
47084W        W13867   4.801   8.451  13.343
47085W        W13868  28.642  25.790  11.581
47086W        W13869  21.919  26.541  10.304
47087W        W13870  41.963  11.953   0.344
47088W        W13871  38.929   3.890  12.805
47089W        W13872  10.509  26.903  12.530
47090W        W13873  43.494  44.524   3.234
47091W        W13874  10.488  34.634  11.090
47092W        W13875  44.815  14.903   0.722
47093W        W13876  28.604  10.294  11.540
47094W        W13877  22.063  17.941  12.805
47095W        W13878  36.612  35.866  12.919
47096W        W13879   8.665   8.699  12.606
47097W        W13880  20.610  27.616  12.649
47098W        W13881  27.975  27.298   3.662
47099W        W13882   3.512  37.008  13.739
47100W        W13883  34.879  24.625   1.573
47101W        W13884  11.604  44.050  10.992
47102W        W13885  20.502  27.145  14.833
47103W        W13886  22.225  26.911   0.917
47104W        W13887  30.683  32.423  10.802
47105W        W13888  30.423  25.858  13.931
47106W        W13889  31.629  27.726   1.891
47107W        W13890  40.518  27.023  14.385
47108W        W13891  34.030  23.343   3.254
47109W        W13892  31.407  26.200  14.501
47110W        W13893   5.996  17.779  14.349
47111W        W13894  43.620   4.427   2.222
47112W        W13895  25.630  13.009  11.537
47113W        W13896   6.354  39.357  10.645
47114W        W13897   6.929  33.605   3.466
47115W        W13898  43.334  15.618  14.429
47116W        W13899  15.314  37.061  14.002
47117W        W13900   8.267  28.138   4.352
47118W        W13901  39.928  19.010   1.590
47119W        W13902  40.042   7.812   5.134
47120W        W13903   2.505  17.607  11.583
47121W        W13904  13.257  17.105  13.756
47122W        W13905  22.090  43.095  12.821
47123W        W13906   9.505   4.420  12.526
47124W        W13907  37.302  44.629   2.167
47125W        W13908  28.614  34.791   1.461
47126W        W13909  22.202   9.744  13.970
47127W        W13910  20.695  15.248  11.218
47128W        W13911  41.352  22.266  11.229
47129W        W13912   0.156  36.236  13.902
47130W        W13913  19.650  32.117  12.481
47131W        W13914  18.169  27.705   0.325
47132W        W13915  41.758  29.436   2.501
47133W        W13916  12.591  35.379   4.076
47134W        W13917  13.494  12.356  12.087
47135W        W13918  22.665  34.514   4.496
47136W        W13919   6.427   6.756  14.794
47137W        W13920   0.954   9.376  13.055
47138W        W13921  31.752  41.231   4.277
47139W        W13922  25.441  13.571   0.968
47140W        W13923  26.925   9.837   2.250
47141W        W13924  43.424  16.421  11.335
47142W        W13925  14.120   4.472  11.573
47143W        W13926  19.508  26.738   4.724
47144W        W13927  36.646  40.996  14.558
47145W        W13928  42.049  34.721  11.494
47146W        W13929  44.518   3.469  13.108
47147W        W13930  22.470  36.366   4.062
47148W        W13931   9.196  41.490  14.259
47149W        W13932  30.167  38.604  13.966
47150W        W13933  23.554  14.185  12.616
47151W        W13934  33.374  24.973  11.351
47152W        W13935  39.395  40.539   3.262
47153W        W13936  41.554  22.251  13.604
47154W        W13937   3.041  10.080  13.604
47155W        W13938  21.583  33.014   2.911
47156W        W13939  12.773  42.589   1.891
47157W        W13940  24.797  44.503   1.188
47158W        W13941  10.687  33.316  12.422
47159W        W13942   6.709  20.490   0.926
47160W        W13943  10.041  43.363   0.467
47161W        W13944  13.820  36.492  11.566
47162W        W13945  41.004  13.985   2.804
47163W        W13946  28.598  26.301   4.738
47164W        W13947  22.015  11.814   1.417
47165W        W13948  13.305  10.956  10.720
47166W        W13949  13.150  14.297  14.922
47167W        W13950  30.398  13.166  12.906
47168W        W13951  39.168  37.534   4.350
47169W        W13952   4.439  37.777   2.117
47170W        W13953   3.658  26.923   1.764
47171W        W13954  32.514  15.204   3.890
47172W        W13955  19.519  33.403  13.749
47173W        W13956   8.113  26.784   2.692
47174W        W13957  38.177  22.095  12.943
47175W        W13958  34.407  22.104   1.912
47176W        W13959  32.637  30.476   3.202
47177W        W13960  18.526   5.925  13.070
47178W        W13961  15.775  15.903  11.540
47179W        W13962   2.936   8.015  13.355
47180W        W13963  35.364   7.099  12.632
47181W        W13964   4.197  37.895   4.816
47182W        W13965  43.569  21.189  10.595
47183W        W13966  14.917  33.527   2.656
47184W        W13967  19.085  14.023   0.449
47185W        W13968  24.988   6.678   2.751
47186W        W13969   1.764  30.549  13.433
47187W        W13970  33.095  14.778  11.498
47188W        W13971  10.283  15.733  11.622
47189W        W13972  44.806  13.062  11.066
47190W        W13973  14.032  18.601  12.000
47191W        W13974  10.127  43.424  12.539
47192W        W13975  36.149   5.737  12.418
47193W        W13976  22.112   2.932   3.737
47194W        W13977  29.527  18.046   3.223
47195W        W13978  32.701  15.282   2.493
47196W        W13979  37.840   4.440  11.166
47197W        W13980   2.577  28.401   2.652
47198W        W13981  39.373   3.151   5.080
47199W        W13982  29.621  18.368  11.163
47200W        W13983  14.373   9.913  11.624
47201W        W13984  41.519  25.619   0.881
47202W        W13985  37.425  26.135   1.233
47203W        W13986  10.951  32.474  12.366
47204W        W13987  28.594  18.247   0.567
47205W        W13988   3.378  18.330  12.117
47206W        W13989   6.784   5.619  12.602
47207W        W13990  44.355  10.350  12.014
47208W        W13991  28.729  31.405  14.338
47209W        W13992  16.173  27.021  10.791
47210W        W13993  33.465  42.434   0.326
47211W        W13994  31.860  21.493  12.034
47212W        W13995  32.122  41.470   3.204
47213W        W13996  43.525   2.852   0.886
47214W        W13997   1.055   4.763  14.056
47215W        W13998  25.287  10.132   4.183
47216W        W13999  40.267  21.695  10.681
47217W        W14000  33.496   9.884  14.395
47218W        W14001  31.044  34.494   1.361
47219W        W14002  33.491  37.271   4.969
47220W        W14003  11.210   0.737  13.972
47221W        W14004  25.555   6.992  13.572
47222W        W14005  18.652  17.041   0.857
47223W        W14006  20.166  32.654   1.442
47224W        W14007  16.918   3.932  14.306
47225W        W14008  17.784  24.221  14.225
47226W        W14009   4.301   6.361  14.969
47227W        W14010  10.771  43.343  14.953
47228W        W14011  10.850  22.133  12.434
47229W        W14012  30.321  28.076  12.040
47230W        W14013  22.781  31.907  11.106
47231W        W14014   8.043  35.571   0.823
47232W        W14015  36.661  37.480  12.042
47233W        W14016  38.505  42.035  14.040
47234W        W14017  38.845  40.556   5.029
47235W        W14018   6.951   1.968   2.330
47236W        W14019  43.465   6.410   3.204
47237W        W14020  11.847  16.243  13.072
47238W        W14021  43.124   6.332  12.015
47239W        W14022  42.467  41.052  14.615
47240W        W14023  42.175  37.503  11.136
47241W        W14024  18.730   2.175  14.394
47242W        W14025  25.360  16.270  12.040
47243W        W14026   2.924  25.899  13.365
47244W        W14027  27.467  36.592  14.379
47245W        W14028  42.462  18.416   0.292
47246W        W14029  37.621  38.574   0.011
47247W        W14030  38.485   8.840   1.493
47248W        W14031   5.727  33.068   3.056
47249W        W14032  27.661  44.592   1.787
47250W        W14033  12.537  41.726   0.944
47251W        W14034  22.891  24.484  14.752
47252W        W14035  18.145  23.528   0.760
47253W        W14036  20.137  11.208  10.652
47254W        W14037  36.863  24.976  10.746
47255W        W14038  11.293  25.155  13.733
47256W        W14039  38.104   2.809   3.739
47257W        W14040   8.384  12.552   2.559
47258W        W14041  42.725   3.514  13.560
47259W        W14042  24.123  27.485   2.682
47260W        W14043   5.197  30.033   4.577
47261W        W14044  37.132  18.560  11.470
47262W        W14045  15.174   9.151  14.996
47263W        W14046  17.209  24.973   2.289
47264W        W14047   7.775   2.246   3.714
47265W        W14048  40.369  20.282   2.767
47266W        W14049  12.825  34.926  11.021
47267W        W14050  10.053  31.521  10.673
47268W        W14051   7.763  41.089   0.823
47269W        W14052  34.496  24.705  14.455
47270W        W14053   0.942  40.944   1.395
47271W        W14054  26.060   4.050  11.181
47272W        W14055  23.184   2.286   1.950
47273W        W14056  12.876  30.502   1.857
47274W        W14057  29.868  13.620   3.219
47275W        W14058  21.270   4.263   1.467
47276W        W14059   8.744  17.276   0.726
47277W        W14060  41.661  29.856   3.719
47278W        W14061  21.536  20.807  12.971
47279W        W14062  25.658  31.049  13.438
47280W        W14063  17.332  44.516   4.977
47281W        W14064   0.295   3.452   0.436
47282W        W14065  12.534  11.118   4.569
47283W        W14066   0.868   4.252   3.860
47284W        W14067  33.508   2.063   0.799
47285W        W14068   9.082  16.213   2.262
47286W        W14069   9.573  35.429   3.228
47287W        W14070  22.553   2.286   0.873
47288W        W14071   2.295  18.810  12.063
47289W        W14072  26.183  21.506  13.665
47290W        W14073  33.202  17.283  13.890
47291W        W14074  14.044  18.240   1.224
47292W        W14075  38.908  28.030   2.929
47293W        W14076  25.186  44.665  11.440
47294W        W14077  29.055  27.104  12.204
47295W        W14078  25.936  42.531   3.256
47296W        W14079  27.232  38.851  13.992
47297W        W14080   5.243  13.256  12.299
47298W        W14081  41.851  24.678   1.497
47299W        W14082  17.740  16.645   1.022
47300W        W14083  18.176  28.121  13.426
47301W        W14084  23.053   3.534  11.997
47302W        W14085  44.299  22.096  12.002
47303W        W14086  31.408  18.759  12.649
47304W        W14087  17.069  43.363   4.208
47305W        W14088  27.498  28.770   0.636
47306W        W14089   2.873  31.081   2.238
47307W        W14090   3.850  30.237   1.466
47308W        W14091  11.628  41.952  14.274
47309W        W14092  27.666  37.085  14.489
47310W        W14093  42.804  19.067   1.303
47311W        W14094  29.346  15.756   3.602
47312W        W14095   1.671   2.886   4.261
47313W        W14096   0.832   0.201   3.902
47314W        W14097  13.761  41.733  13.495
47315W        W14098   4.721  15.019  12.523
47316W        W14099  20.529  36.473   2.342
47317W        W14100  29.271  34.613  13.489
47318W        W14101  33.322  11.581   3.800
47319W        W14102   7.780  21.589   3.717
47320W        W14103  30.377  37.440  12.488
47321W        W14104  36.631  10.795   1.848
47322W        W14105  19.632  30.723   3.191
47323W        W14106  34.958  11.673  14.258
47324W        W14107  16.905  25.630  12.187
47325W        W14108  20.072  19.589   1.348
47326W        W14109  20.923  40.695  11.497
47327W        W14110   8.400  13.400   1.359
47328W        W14111  44.279  37.809   4.092
47329W        W14112   2.886  19.166  11.698
47330W        W14113  38.941  16.809  14.707
47331W        W14114  16.147  41.632  13.236
47332W        W14115  40.351  23.811   1.911
47333W        W14116  40.409  36.358   1.927
47334W        W14117  11.585  28.165  13.213
47335W        W14118  17.740  41.520  10.724
47336W        W14119  13.576  37.498   1.058
47337W        W14120   0.483  37.529   3.192
47338W        W14121  15.200  14.750  10.310
47339W        W14122  11.848  37.085   1.783
47340W        W14123   9.616   5.647  11.377
47341W        W14124  40.341  19.972  10.739
47342W        W14125  31.217  34.121  11.056
47343W        W14126  37.898  16.267  12.398
47344W        W14127   6.848  13.058  13.899
47345W        W14128   8.372  17.097   2.166
47346W        W14129  26.277  35.122   2.960
47347W        W14130  35.116  25.886   1.427
47348W        W14131  26.235   2.781  14.876
47349W        W14132   6.956  37.121  13.395
47350W        W14133  26.043  12.613  10.642
47351W        W14134   0.679  26.736   2.107
47352W        W14135  11.232  12.639   0.314
47353W        W14136  34.458  41.494   4.365
47354W        W14137  15.633  10.226  11.258
47355W        W14138  36.948  28.106  14.821
47356W        W14139  37.012  25.693  12.922
47357W        W14140  35.605  33.889  13.829
47358W        W14141   4.120  27.680   3.274
47359W        W14142  32.388  38.016   3.802
47360W        W14143  13.113  16.385   1.175
47361W        W14144  26.376  19.618  12.366
47362W        W14145  27.977  31.965   3.998
47363W        W14146  15.998   4.251   2.333
47364W        W14147  23.949  13.588   2.372
47365W        W14148  12.874  16.756   2.753
47366W        W14149  21.314  22.746  11.511
47367W        W14150  43.110   0.910  11.029
47368W        W14151  29.455  44.717   3.873
47369W        W14152  14.173  22.640   4.071
47370W        W14153  16.915  10.346  12.036
47371W        W14154  23.512  16.904   2.255
47372W        W14155  32.536  31.035  13.800
47373W        W14156  17.099  24.325  12.972
47374W        W14157  41.840  40.099   2.150
47375W        W14158  17.826   8.261  13.004
47376W        W14159   6.591  19.301   4.621
47377W        W14160  33.541  34.183   4.118
47378W        W14161  38.658  16.676  14.228
47379W        W14162  22.337  17.175   4.234
47380W        W14163  34.668  34.861  11.860
47381W        W14164  43.277   2.784  11.320
47382W        W14165  30.117  37.037  13.818
47383W        W14166  43.773  15.702   2.563
47384W        W14167  40.504  40.991   1.678
47385W        W14168  20.618  41.810  12.194
47386W        W14169  25.525  33.362  14.247
47387W        W14170   0.005   2.395  14.850
47388W        W14171  40.231  37.446   2.310
47389W        W14172  35.994  10.225  10.749
47390W        W14173  30.560  29.551   2.360
47391W        W14174  43.099  43.287   4.834
47392W        W14175  20.043   3.427   0.007
47393W        W14176  12.246  16.703  12.050
47394W        W14177  33.895  29.150  13.103
47395W        W14178   1.865  37.333   1.511
47396W        W14179  34.912   6.875  13.980
47397W        W14180   8.189  14.704  11.982
47398W        W14181  34.357  36.981  11.639
47399W        W14182  10.769  18.477   0.763
47400W        W14183  38.835  13.283   0.261
47401W        W14184  36.604  34.829   1.969
47402W        W14185  44.459  27.457   1.728
47403W        W14186  23.182  39.232  10.241
47404W        W14187  20.352  22.452   0.282
47405W        W14188   4.176  23.653   3.400
47406W        W14189  13.790  11.177  11.656
47407W        W14190  41.968   8.399  14.410
47408W        W14191  31.412  24.249   3.184
47409W        W14192  37.958  11.475  11.569
47410W        W14193  41.504  20.724  11.648
47411W        W14194  32.435  14.265  11.824
47412W        W14195  30.588   6.277   1.789
47413W        W14196  41.002  22.195  13.075
47414W        W14197  24.499  44.186   3.267
47415W        W14198   5.383  16.550   0.335
47416W        W14199  30.901  20.400  10.296
47417W        W14200  13.095  16.985   3.262
47418W        W14201  21.584   5.649  11.099
47419W        W14202  36.285  34.064  10.786
47420W        W14203  32.489  40.486  13.742
47421W        W14204  16.135  33.602  10.704
47422W        W14205  42.211  11.875   2.670
47423W        W14206  38.183  42.868  11.629
47424W        W14207  15.673  37.211  13.417
47425W        W14208  37.926  31.220   1.603
47426W        W14209   3.725  41.107  13.985
47427W        W14210   8.754  21.719  14.316
47428W        W14211  33.068  25.033   0.199
47429W        W14212  39.511  23.971  11.619
47430W        W14213  16.711  36.878  13.438
47431W        W14214  30.993  35.942  10.736
47432W        W14215  19.536  11.460   4.564
47433W        W14216  28.579  27.159  13.483
47434W        W14217   4.211  14.513  13.118
47435W        W14218  32.357   1.378   1.487
47436W        W14219  21.486  44.237   2.184
47437W        W14220  34.008  18.415  10.668
47438W        W14221  16.352  30.485  12.134
47439W        W14222   8.683  20.205   3.642
47440W        W14223  12.703  28.466   0.365
47441W        W14224  24.633   0.501  13.917
47442W        W14225  22.033  17.665  13.235
47443W        W14226  42.528  12.128   2.355
47444W        W14227  26.070  44.537  13.428
47445W        W14228  10.370  20.338  11.430
47446W        W14229  31.672  42.314   4.098
47447W        W14230  17.089  33.275  12.784
47448W        W14231  44.238   8.678   0.789
47449W        W14232  14.840  38.340  13.407
47450W        W14233  25.714  44.966   1.883
47451W        W14234  36.917  24.097  14.390
47452W        W14235  14.240  28.461  10.576
47453W        W14236  39.342  34.050   0.382
47454W        W14237  17.101   2.686   4.058
47455W        W14238  12.663  44.612   0.937
47456W        W14239  20.072   2.776  11.580
47457W        W14240   7.739  20.753   4.247
47458W        W14241  31.224  17.762   3.774
47459W        W14242  23.401  40.374   0.131
47460W        W14243  23.700  11.622  14.591
47461W        W14244   9.094  43.370   2.823
47462W        W14245  27.127  39.649  14.328
47463W        W14246  41.004  40.563  11.565
47464W        W14247   9.857   5.031   0.849
47465W        W14248  31.939  37.793   0.816
47466W        W14249   1.402  37.439  13.243
47467W        W14250  16.118  14.593  11.567
47468W        W14251  27.650  12.829   1.274
47469W        W14252  33.005  40.465  13.023
47470W        W14253  35.517   8.630  11.234
47471W        W14254   8.335  30.415  13.292
47472W        W14255  29.067  26.595   2.650
47473W        W14256  24.608   2.724  14.277
47474W        W14257   4.393  31.589   4.132
47475W        W14258  42.139  16.308  10.204
47476W        W14259  32.485  22.742   1.889
47477W        W14260  40.987  15.830  11.483
47478W        W14261  38.118  28.660  13.905
47479W        W14262  22.222  37.265   4.496
47480W        W14263   1.873  36.466  12.954
47481W        W14264  16.963  27.543   1.933
47482W        W14265  11.961  11.970   4.604
47483W        W14266  10.322  28.611  10.808
47484W        W14267  21.493  21.170  13.542
47485W        W14268  43.834  30.057  13.270
47486W        W14269   0.751  24.080  12.414
47487W        W14270   7.463   8.880  12.811
47488W        W14271  26.463  27.024  14.303
47489W        W14272  21.906  32.665   1.961
47490W        W14273  26.101  40.349   1.405
47491W        W14274  36.320  16.522  11.124
47492W        W14275  28.914  18.523   0.279
47493W        W14276   6.863  20.227  14.253
47494W        W14277  42.077   7.742   1.740
47495W        W14278  14.640   9.881   0.744
47496W        W14279  36.915  12.593   0.447
47497W        W14280  39.338  34.544  11.000
47498W        W14281  40.335   7.404   5.111
47499W        W14282  34.447  22.147  12.232
47500W        W14283  44.427  39.863  14.877
47501W        W14284  21.827  40.507   1.794
47502W        W14285  43.779  16.808   1.203
47503W        W14286  38.256  39.484  11.664
47504W        W14287  16.871  44.996   0.356
47505W        W14288   4.648  24.773   1.122
47506W        W14289  15.259  31.276   4.316
47507W        W14290   3.299  37.813   3.724
47508W        W14291  32.041  34.387  13.511
47509W        W14292  44.581  10.713   3.766
47510W        W14293  42.257  20.210   4.914
47511W        W14294   6.083  41.367   1.341
47512W        W14295  35.253  44.923  12.120
47513W        W14296  26.213  23.856   4.107
47514W        W14297   0.203  44.872  13.046
47515W        W14298  23.610  22.975  12.828
47516W        W14299  39.811  15.415   0.276
47517W        W14300  40.422  22.084   0.877
47518W        W14301  23.291  11.740  14.920
47519W        W14302  11.548  36.080  10.584
47520W        W14303  29.854  14.152   3.261
47521W        W14304  18.448  25.158  11.001
47522W        W14305   0.421   5.859  12.838
47523W        W14306  35.733  31.936   4.301
47524W        W14307  33.425   3.495   0.847
47525W        W14308  25.728  13.893   0.083
47526W        W14309  35.089   6.848  13.474
47527W        W14310  28.108  20.672   3.734
47528W        W14311  30.320  41.341  12.409
47529W        W14312  43.348  12.811   1.689
47530W        W14313   3.220   7.126   2.208
47531W        W14314  17.770  35.461   4.422
47532W        W14315  30.052  41.475  10.687
47533W        W14316  39.354  11.080   0.437
47534W        W14317  34.064  33.149   1.949
47535W        W14318  35.432  32.655   3.608
47536W        W14319  26.124  11.720   2.752
47537W        W14320  12.378  38.056  14.765
47538W        W14321  32.543   5.213  11.564
47539W        W14322  30.903  33.397  11.131
47540W        W14323  21.386  43.750   4.138
47541W        W14324  24.852  41.850  11.879
47542W        W14325  28.526   9.757   1.822
47543W        W14326  14.606  25.033   2.701
47544W        W14327  37.152  19.113  12.347
47545W        W14328  24.051  36.641  12.053
47546W        W14329  15.507   7.672   3.220
47547W        W14330  20.648   6.831  13.577
47548W        W14331   9.869  12.669  12.038
47549W        W14332  11.350  37.345  13.546
47550W        W14333  18.753  17.522  13.449
47551W        W14334   2.223  38.010   4.138
47552W        W14335  31.318   7.401   2.120
47553W        W14336  10.376  23.092  13.872
47554W        W14337  31.188  41.968  14.452
47555W        W14338   6.702  31.454  13.684
47556W        W14339  33.302  29.132  13.945
47557W        W14340  21.094  10.638   1.406
47558W        W14341  29.508  27.914  10.429
47559W        W14342  31.218  25.054   1.300
47560W        W14343   7.393  39.307  12.885
47561W        W14344   6.447   4.652   3.643
47562W        W14345  24.536  19.709   2.300
47563W        W14346  10.187  11.400   5.120
47564W        W14347  15.860  35.565   4.198
47565W        W14348  31.142  12.802   2.170
47566W        W14349  26.113  44.401   3.647
47567W        W14350  35.614   9.014  11.604
47568W        W14351  25.255  42.106  12.782
47569W        W14352   6.448   8.490   2.844
47570W        W14353  31.960  19.469  14.314
47571W        W14354  28.620  37.505   3.712
47572W        W14355  26.740  17.714  12.948
47573W        W14356   9.312  15.196   3.861
47574W        W14357  29.915  18.179   3.667
47575W        W14358  10.786   7.812  14.214
47576W        W14359  44.103  27.536   2.805
47577W        W14360   2.124  44.212  14.831
47578W        W14361  39.532  21.012   0.723
47579W        W14362  11.135  24.818  13.371
47580W        W14363  44.343  17.467  11.637
47581W        W14364   7.156  40.995   2.196
47582W        W14365  42.399  34.442   1.968
47583W        W14366  23.971  29.655   1.471
47584W        W14367  28.343  32.919  12.333
47585W        W14368  29.586  11.238  14.210
47586W        W14369  26.018  11.430   4.115
47587W        W14370   4.873  41.738   1.162
47588W        W14371  34.296  43.937  13.485
47589W        W14372  10.865  25.705   4.500
47590W        W14373  39.819  37.916   2.717
47591W        W14374  20.246  22.131  14.913
47592W        W14375  34.961  14.708   0.741
47593W        W14376  24.235  12.706  12.651
47594W        W14377  42.466   7.563   0.466
47595W        W14378  13.670  14.754   4.470
47596W        W14379  42.429  13.854   4.064
47597W        W14380  25.576  38.640  13.516
47598W        W14381  34.941  30.506  13.354
47599W        W14382   0.135  40.000  14.399
47600W        W14383  31.440  24.982  12.992
47601W        W14384   1.278   7.234   2.942
47602W        W14385   1.752   9.638   4.210
47603W        W14386  16.129  28.165  11.630
47604W        W14387   1.455   8.961   5.064
47605W        W14388   3.242  12.686  12.617
47606W        W14389  30.888  41.732  12.989
47607W        W14390   8.397  27.598   0.855
47608W        W14391  31.007   9.157   3.239
47609W        W14392   2.809  30.757   0.355
47610W        W14393  29.127  30.631  13.558
47611W        W14394  11.546  31.496   1.248
47612W        W14395   9.631  32.486  12.828
47613W        W14396  39.189  31.301   2.365
47614W        W14397  31.623  16.267   4.543
47615W        W14398  42.542  31.063   3.721
47616W        W14399  33.884  19.606  11.412
47617W        W14400  41.294  18.723  13.730
47618W        W14401  29.256   4.427  12.980
47619W        W14402   5.966  27.545  13.696
47620W        W14403  24.081  36.731  11.164
47621W        W14404  27.621  23.668  13.834
47622W        W14405  41.503  42.274  13.395
47623W        W14406  36.429  21.275   0.308
47624W        W14407  19.626  13.202  11.373
47625W        W14408  15.097  15.688   1.015
47626W        W14409  11.124  37.779  12.085
47627W        W14410  12.255   5.039  10.822
47628W        W14411  37.877  19.603   3.351
47629W        W14412  33.985   9.330  12.201
47630W        W14413  38.536  15.573   3.961
47631W        W14414  33.315  11.184  11.991
47632W        W14415  32.273  19.265   4.989
47633W        W14416  36.645  18.772  11.394
47634W        W14417   1.870   6.876   1.922
47635W        W14418  15.079  32.311   0.439
47636W        W14419   3.737   3.427   1.258
47637W        W14420  34.640  11.785  12.969
47638W        W14421  26.145  13.593   0.226
47639W        W14422  20.064  30.448  14.058
47640W        W14423  28.493  32.835   4.612
47641W        W14424  44.210   4.870   0.353
47642W        W14425   0.070   3.569   3.633
47643W        W14426  30.377  30.165   4.631
47644W        W14427  27.652  14.189  14.354
47645W        W14428  21.595  15.812   1.407
47646W        W14429   8.431  33.371  14.788
47647W        W14430   8.281  44.942  11.455
47648W        W14431  38.834  33.837   2.831
47649W        W14432  15.241   1.248   3.169
47650W        W14433  20.230  39.444  10.354
47651W        W14434   7.429  11.800   1.104
47652W        W14435  39.319  27.932  11.139
47653W        W14436  14.318  20.848  11.014
47654W        W14437  43.087  28.444   2.342
47655W        W14438  18.102   7.407   3.676
47656W        W14439   5.727   5.714   2.441
47657W        W14440  19.601  11.047   3.161
47658W        W14441  43.980   7.950  13.956
47659W        W14442  28.076  29.904   4.390
47660W        W14443   9.767  29.478   0.785
47661W        W14444  12.770   6.963   0.452
47662W        W14445  26.108  24.443   1.330
47663W        W14446  16.314   3.089   0.957
47664W        W14447  32.559  34.959  12.901
47665W        W14448   6.192  29.134   4.429
47666W        W14449  36.265  30.003  11.581
47667W        W14450   3.781   5.385  11.242
47668W        W14451  42.614   9.951   3.952
47669W        W14452  26.509  17.002  10.728
47670W        W14453  41.124  16.068   1.386
47671W        W14454  39.531  14.257   2.191
47672W        W14455   6.874  25.233  14.316
47673W        W14456  18.253  24.541   3.246
47674W        W14457  30.395  31.544   2.757
47675W        W14458   4.221  20.776  14.797
47676W        W14459  44.097   7.947   1.331
47677W        W14460  18.693  38.022   1.318
47678W        W14461   8.724   7.821   1.271
47679W        W14462   9.267  10.911   4.700
47680W        W14463  22.562  20.170   1.670
47681W        W14464  22.078  40.399  14.814
47682W        W14465  20.786  12.977   9.730
47683W        W14466   5.511  27.076   4.349
47684W        W14467   3.515  40.818  10.597
47685W        W14468  23.611  19.446   0.772
47686W        W14469  23.823   5.486  14.077
47687W        W14470  31.569  32.918  10.855
47688W        W14471  20.891  40.832  13.821
47689W        W14472  37.428  29.242  10.507
47690W        W14473  28.463  12.279   4.815
47691W        W14474  15.272  33.581   1.712
47692W        W14475  13.122   5.764  10.696
47693W        W14476  36.304  36.909   3.122
47694W        W14477  24.529  22.499   2.835
47695W        W14478  11.998  41.154  10.763
47696W        W14479  16.214  44.056   3.502
47697W        W14480   1.620   8.076   2.737
47698W        W14481  11.735  12.900   2.231
47699W        W14482   0.454  27.157  12.550
47700W        W14483  36.763  24.496  13.636
47701W        W14484  16.275  30.977  14.979
47702W        W14485   7.383  33.434   3.687
47703W        W14486  32.552  25.743   4.926
47704W        W14487  28.199  18.748   1.517
47705W        W14488  16.307  14.390   1.178
47706W        W14489  13.179  40.895   4.321
47707W        W14490  11.310   0.196  12.200
47708W        W14491  29.433  16.660   3.666
47709W        W14492  21.757  31.962   1.576
47710W        W14493   7.379  41.151   4.035
47711W        W14494  22.754  28.813   0.315
47712W        W14495  24.520  25.762  13.637
47713W        W14496  44.549  17.783   5.057
47714W        W14497  17.673  19.252  12.312
47715W        W14498  32.089  11.614  14.876
47716W        W14499   0.019  14.216  11.066
47717W        W14500   7.449  39.438   0.023
47718W        W14501  31.516  42.286  13.379
47719W        W14502   8.627  28.585   0.573
47720W        W14503  29.933  10.943  14.480
47721W        W14504   4.423  15.398   0.112
47722W        W14505   0.956  16.750   5.079
47723W        W14506   2.816  43.364   1.352
47724W        W14507  41.566  25.715   4.067
47725W        W14508  32.553  44.696  10.731
47726W        W14509  36.873  29.683  14.834
47727W        W14510  37.877   8.220   3.268
47728W        W14511  34.935   0.309   2.392
47729W        W14512   3.052   6.781   2.978
47730W        W14513  26.509  10.083  14.069
47731W        W14514  39.904  23.692  12.903
47732W        W14515   2.288  35.833  13.462
47733W        W14516  36.111   0.474   1.525
47734W        W14517  22.502  43.450  13.041
47735W        W14518   5.219  13.217  11.791
47736W        W14519  21.995  34.540   4.518
47737W        W14520   8.983  41.324  13.498
47738W        W14521  14.472  34.074  11.440
47739W        W14522  39.979  35.153  14.189
47740W        W14523   0.047  34.345  14.824
47741W        W14524  14.285  17.587  12.626
47742W        W14525  25.900  15.701   2.387
47743W        W14526  16.086  41.773   0.470
47744W        W14527   3.839  11.855   0.220
47745W        W14528  44.021  25.216  12.651
47746W        W14529  22.711  21.153   1.598
47747W        W14530   5.732  40.841  11.504
47748W        W14531   4.295  35.439   2.764
47749W        W14532  23.000  21.724   3.128
47750W        W14533  23.326  33.928   1.288
47751W        W14534  33.721   3.470  14.454
47752W        W14535  17.896   2.245  11.135
47753W        W14536   3.501  25.060  14.091
47754W        W14537   6.869  26.839  13.071
47755W        W14538  37.601  34.685  14.296
47756W        W14539  26.678  24.617  11.529
47757W        W14540  32.097   7.318  13.580
47758W        W14541   6.324   4.413   4.462
47759W        W14542   4.399   9.106  13.019
47760W        W14543  18.935  26.702   5.091
47761W        W14544  14.710  28.360  14.710
47762W        W14545  13.042  17.951   4.096
47763W        W14546  15.973  18.502   2.760
47764W        W14547  20.031  10.392  12.080
47765W        W14548   9.492   4.127   0.716
47766W        W14549  30.968  42.450  14.440
47767W        W14550  20.627  43.226   1.429
47768W        W14551  12.319   9.920   3.885
47769W        W14552  44.167  30.175  12.815
47770W        W14553   3.444  38.295  13.875
47771W        W14554  33.408  23.494  13.010
47772W        W14555  41.512   6.997   3.200
47773W        W14556   2.313   8.694  10.700
47774W        W14557   2.310  25.853   3.097
47775W        W14558  29.195  39.021   4.991
47776W        W14559   0.261  23.548   4.086
47777W        W14560  23.333  21.012  11.468
47778W        W14561   5.232  22.851   4.196
47779W        W14562  25.942   4.901   4.251
47780W        W14563   7.306  40.919   1.713
47781W        W14564  40.176  35.377   0.412
47782W        W14565  38.798  26.927  10.176
47783W        W14566   4.920  25.732  12.471
47784W        W14567  43.084  37.442  14.002
47785W        W14568  40.423  27.115   1.522
47786W        W14569  23.455  42.882  14.994
47787W        W14570   3.038  15.847  11.591
47788W        W14571  38.112  25.549  14.833
47789W        W14572  31.542  29.087   0.804
47790W        W14573  34.827  30.979  14.955
47791W        W14574  38.959  22.062   4.580
47792W        W14575  19.958  22.768  13.412
47793W        W14576  29.946   2.257  11.203
47794W        W14577  33.920  17.823  10.210
47795W        W14578  18.991   1.719   1.835
47796W        W14579  13.281   3.183   2.778
47797W        W14580  42.226  44.450   1.771
47798W        W14581  18.132  31.991  11.397
47799W        W14582  14.690  11.366   3.363
47800W        W14583  18.713  22.640   2.654
47801W        W14584   7.272  21.546  13.073
47802W        W14585  25.231   1.671   3.714
47803W        W14586  22.584  42.739   0.528
47804W        W14587  16.090   7.489   4.072
47805W        W14588  32.503   6.612   4.968
47806W        W14589  35.487  31.054   2.285
47807W        W14590  37.551  39.570  13.404
47808W        W14591  12.665  13.396   4.221
47809W        W14592   1.247  23.487  12.534
47810W        W14593  25.330  12.800  11.144
47811W        W14594  33.679  30.123   1.704
47812W        W14595   6.253   1.419  13.777
47813W        W14596  17.268   2.868  14.783
47814W        W14597  23.980   5.233   4.108
47815W        W14598  39.058  40.494  12.162
47816W        W14599  14.366  23.174   4.150
47817W        W14600  24.472  26.648   0.440
47818W        W14601  32.974  22.016   1.953
47819W        W14602  13.786   3.956   2.737
47820W        W14603  27.712   9.174   4.216
47821W        W14604   9.818  17.327  11.956
47822W        W14605   1.789  27.520  12.047
47823W        W14606   1.774  24.603   1.482
47824W        W14607  25.939   7.441   1.832
47825W        W14608  40.570  30.760  11.130
47826W        W14609  35.834  37.855   4.073
47827W        W14610  23.730  31.321  12.934
47828W        W14611  15.145  35.712  14.042
47829W        W14612  26.724  28.224  14.718
47830W        W14613   0.181  15.048   0.363
47831W        W14614  25.850  42.256  14.363
47832W        W14615  21.852  35.634   0.562
47833W        W14616  13.288  32.074   3.245
47834W        W14617  10.674  13.803   0.958
47835W        W14618   9.865  40.628   4.787
47836W        W14619  15.353   9.690   1.756
47837W        W14620  38.134  26.177   3.461
47838W        W14621  38.832  37.802   2.909
47839W        W14622  35.368  16.649   0.901
47840W        W14623  17.280   7.207   0.915
47841W        W14624   5.252  14.761   3.035
47842W        W14625  31.524  39.396  11.552
47843W        W14626  12.729  17.513   0.730
47844W        W14627  23.547  34.590  11.675
47845W        W14628  16.631  12.267   1.669
47846W        W14629   1.878  15.593   2.209
47847W        W14630  40.473  25.245  11.518
47848W        W14631  24.590  35.151   0.953
47849W        W14632  10.377  16.373  14.897
47850W        W14633  19.144   8.319  14.728
47851W        W14634  21.710  11.537   4.666
47852W        W14635   2.497   5.976   5.107
47853W        W14636  22.210  41.323  11.807
47854W        W14637  34.844   8.908   2.027
47855W        W14638   3.344  37.846  11.548
47856W        W14639  21.992   3.792  12.203
47857W        W14640   6.593   4.349   3.196
47858W        W14641  36.924  41.304   0.777
47859W        W14642   9.569  24.599   0.999
47860W        W14643   8.715  21.392  12.446
47861W        W14644  20.512  23.776   0.354
47862W        W14645  24.131   1.225  11.810
47863W        W14646  33.107  33.380   4.221
47864W        W14647  10.252  29.202  13.903
47865W        W14648  44.770  10.780   1.985
47866W        W14649  24.158   8.400   2.257
47867W        W14650  34.707  24.113   3.676
47868W        W14651  27.272   4.678   4.569
47869W        W14652  25.378  13.174   4.693
47870W        W14653  32.348  13.589   2.738
47871W        W14654  19.132  36.928   2.781
47872W        W14655  38.167  19.687   3.774
47873W        W14656   1.326   9.805   3.284
47874W        W14657  17.744  36.799  12.378
47875W        W14658  22.450  16.805   0.951
47876W        W14659   7.836  33.985  12.503
47877W        W14660  23.256  26.507  13.510
47878W        W14661  31.672  16.034   0.760
47879W        W14662  28.529  23.618   2.872
47880W        W14663   1.094  39.015  11.626
47881W        W14664  44.085  15.394  11.658
47882W        W14665  13.177   6.679   4.276
47883W        W14666  10.813   4.292  14.965
47884W        W14667  16.210  41.951   3.744
47885W        W14668  43.961  20.494   2.609
47886W        W14669  21.643  32.169   4.438
47887W        W14670   5.423  16.219   3.671
47888W        W14671  21.779   1.990  10.133
47889W        W14672  43.550  29.595   2.756
47890W        W14673  16.294  13.402   1.284
47891W        W14674  40.848  34.474   3.433
47892W        W14675   4.124  24.772  14.861
47893W        W14676  27.581  26.694   1.429
47894W        W14677   4.582  21.059   4.483
47895W        W14678  31.442  27.440  11.173
47896W        W14679  24.005  35.715  10.287
47897W        W14680  37.075  41.474  11.534
47898W        W14681  30.121   4.034  12.618
47899W        W14682  44.913  33.348   3.506
47900W        W14683  13.538  18.759  14.268
47901W        W14684  29.065  17.745  11.202
47902W        W14685   3.978   4.800  13.745
47903W        W14686  44.025  44.256   4.329
47904W        W14687   0.500  44.050  11.039
47905W        W14688  37.486  18.522   4.941
47906W        W14689  30.478  18.791  12.381
47907W        W14690   0.072  20.016   0.398
47908W        W14691   4.558  11.667  10.063
47909W        W14692  27.225   2.668  12.514
47910W        W14693  18.584  22.458  15.000
47911W        W14694  42.878  38.278   2.251
47912W        W14695  15.227  13.340   2.273
47913W        W14696   7.477  33.501   2.285
47914W        W14697  44.093  18.433  14.683
47915W        W14698  12.872   5.576   3.367
47916W        W14699  10.334  10.309  14.033
47917W        W14700  39.457  17.314   4.967
47918W        W14701  12.505  40.930   1.761
47919W        W14702   1.202   4.226  11.036
47920W        W14703   9.317   7.291   2.857
47921W        W14704   2.217  40.321  13.426
47922W        W14705   3.098   4.814  12.811
47923W        W14706  28.646  10.371   0.070
47924W        W14707  16.602  10.582  13.352
47925W        W14708   6.142   7.725   0.161
47926W        W14709   9.498  38.849  14.739
47927W        W14710  25.414   2.487   2.863
47928W        W14711   7.978   0.801   0.425
47929W        W14712  23.061   0.364  10.155
47930W        W14713  39.406  14.703   2.419
47931W        W14714  22.546  42.440  10.157
47932W        W14715  42.589  37.463   2.651
47933W        W14716  22.234   0.351  12.787
47934W        W14717   0.417   2.181  11.975
47935W        W14718  41.990   7.570  14.711
47936W        W14719  20.192  12.597   0.061
47937W        W14720  10.139   6.794   9.882
47938W        W14721  37.531  25.655  14.681
47939W        W14722  42.823  37.869   0.803
47940W        W14723   0.377  35.502   4.949
47941W        W14724  24.558   1.516  11.147
47942W        W14725  44.278  33.476   0.419
47943W        W14726  33.049  37.605   4.246
47944W        W14727  34.810  35.374  10.726
47945W        W14728   1.972   7.825  11.692
47946W        W14729  27.472   8.845   1.641
47947W        W14730   6.256  14.982   3.759
47948W        W14731  32.521   5.155  14.790
47949W        W14732   1.368  14.382   2.137
47950W        W14733  23.538  39.798   3.899
47951W        W14734   9.376  19.017   1.664
47952W        W14735  35.379  43.070  14.615
47953W        W14736   0.757   0.547  10.429
47954W        W14737  14.319  14.115   3.194
47955W        W14738  17.261  42.084  13.880
47956W        W14739  15.207   6.202  11.845
47957W        W14740  20.485  29.270   2.937
47958W        W14741   2.181   3.265   4.685
47959W        W14742  44.930  32.445   4.691
47960W        W14743  30.465  33.995   1.692
47961W        W14744  42.496  16.427  10.556
47962W        W14745  14.736  14.347  11.547
47963W        W14746  27.920  37.523  14.355
47964W        W14747   0.126  26.807  12.784
47965W        W14748  40.076  38.078   3.142
47966W        W14749  35.979  30.821   0.262
47967W        W14750   9.887  34.020   4.600
47968W        W14751  18.066  12.355   0.341
47969W        W14752  44.365  29.178   0.997
47970W        W14753  29.152  42.157   0.818
47971W        W14754  29.684  28.817  10.943
47972W        W14755  43.459   1.364   4.929
47973W        W14756   1.880  24.465  12.094
47974W        W14757  38.187  12.346  12.086
47975W        W14758   6.037  32.351   4.473
47976W        W14759  24.208  41.048   3.198
47977W        W14760  28.960  27.865   1.653
47978W        W14761  10.796  35.966   2.789
47979W        W14762  37.978  21.399  12.206
47980W        W14763  13.436  23.865  11.966
47981W        W14764  36.840  34.466  14.053
47982W        W14765  24.436  42.385  12.442
47983W        W14766  10.169  38.016  14.529
47984W        W14767   6.702  39.963   3.814
47985W        W14768   6.425  30.181   1.126
47986W        W14769  44.232  38.878  14.590
47987W        W14770  31.962  20.027   0.918
47988W        W14771  22.621  11.696   4.633
47989W        W14772  32.340  32.151  11.698
47990W        W14773   3.064  21.034   2.532
47991W        W14774  23.056  23.244   0.368
47992W        W14775  14.241  21.565  11.538
47993W        W14776   5.082  20.684  11.556
47994W        W14777  35.949  43.452  13.972
47995W        W14778  24.194  26.402   0.800
47996W        W14779  19.470  29.982   0.115
47997W        W14780   6.242   6.052   1.740
47998W        W14781   9.738  38.470  13.375
47999W        W14782  26.439  29.538   0.317
48000W        W14783   3.741  38.870   0.505
48001W        W14784  35.856  16.709  11.190
48002W        W14785   2.995  34.907   1.750
48003W        W14786  33.423  27.947  12.745
48004W        W14787  11.902  28.946   2.368
48005W        W14788  10.890  38.979  11.727
48006W        W14789  24.536  27.901  11.733
48007W        W14790  37.961  41.015  14.457
48008W        W14791  38.374  14.180   3.981
48009W        W14792   8.764  25.127   0.099
48010W        W14793   7.486  38.477  14.932
48011W        W14794  44.883  42.025   4.740
48012W        W14795  10.617  18.659  14.875
48013W        W14796  40.126  11.562  11.210
48014W        W14797   4.429  30.431  12.919
48015W        W14798  39.535   2.550  14.032
48016W        W14799  25.198  27.515   0.734
48017W        W14800  32.900  41.348  14.070
48018W        W14801  25.667   1.705  12.850
48019W        W14802  43.943  10.117   4.127
48020W        W14803  42.971  17.260   2.134
48021W        W14804  26.909  35.220   4.119
48022W        W14805  17.065  38.155  13.795
48023W        W14806  38.553  20.978  11.635
48024W        W14807   5.625  20.130   1.329
48025W        W14808   8.211  25.296   2.866
48026W        W14809  41.963  20.740  14.385
48027W        W14810  27.059  23.110   5.532
48028W        W14811  12.220  43.849   4.387
48029W        W14812   8.682  33.535  14.023
48030W        W14813  33.532  31.453   0.791
48031W        W14814  29.634  34.178  12.886
48032W        W14815  20.326  14.105   4.525
48033W        W14816  39.512   4.860  13.010
48034W        W14817  35.309   6.217  12.432
48035W        W14818  35.011  19.774  13.637
48036W        W14819  38.972  15.280   1.229
48037W        W14820  27.107  20.121  14.226
48038W        W14821   4.263  35.942  12.716
48039W        W14822  10.781  29.603   4.803
48040W        W14823   6.304  16.836  14.798
48041W        W14824  26.872  26.530  14.926
48042W        W14825   2.348   4.643  14.491
48043W        W14826  14.259  40.726  10.126
48044W        W14827  26.983   7.826  13.503
48045W        W14828  11.336  21.153   3.684
48046W        W14829  30.973  20.462  11.103
48047W        W14830  30.649   7.482  14.050
48048W        W14831  32.838  31.635  13.133
48049W        W14832  19.073  31.379   0.762
48050W        W14833   6.954  31.346   3.270
48051W        W14834  15.796  42.590   3.282
48052W        W14835  28.160  15.519  11.910
48053W        W14836  39.268   8.978   1.014
48054W        W14837  15.817   3.646  10.397
48055W        W14838  39.268  29.595   4.131
48056W        W14839  16.118  10.004   3.640
48057W        W14840  38.588  22.231   1.286
48058W        W14841  43.264  18.445   0.720
48059W        W14842  20.591  38.431  10.586
48060W        W14843  23.230  41.099   3.238
48061W        W14844  37.790  29.524  14.824
48062W        W14845  44.705  15.777   2.946
48063W        W14846  30.462   0.068   4.378
48064W        W14847  18.706  36.862   0.204
48065W        W14848   3.169   5.763   4.663
48066W        W14849  30.907   1.015  10.280
48067W        W14850  27.452  44.356   2.328
48068W        W14851  35.873  24.966  14.102
48069W        W14852  17.283   9.166  14.008
48070W        W14853  38.561  41.581  12.960
48071W        W14854  25.630  32.764  12.940
48072W        W14855  42.267  26.931   4.646
48073W        W14856  29.455  40.669   2.415
48074W        W14857  10.608  42.305  13.016
48075W        W14858  10.520  41.815  14.221
48076W        W14859  27.109   6.723   4.764
48077W        W14860  36.064  36.871   0.791
48078W        W14861  35.032   2.307  13.281
48079W        W14862  26.046  18.377   4.845
48080W        W14863  32.616  29.460  11.117
48081W        W14864   3.911  26.492  13.878
48082W        W14865  36.271  38.376   1.773
48083W        W14866  12.372   6.662   1.371
48084W        W14867  36.950  36.877   3.797
48085W        W14868   6.735   8.248   2.011
48086W        W14869   2.894   6.350   3.239
48087W        W14870   1.253  24.412   3.223
48088W        W14871  24.046  23.729  13.927
48089W        W14872  17.087   6.459  14.342
48090W        W14873  14.637  30.848  12.022
48091W        W14874   7.879  34.724  12.981
48092W        W14875  40.562  25.547  11.915
48093W        W14876   3.857   3.441   2.225
48094W        W14877  37.864  30.434   3.817
48095W        W14878  30.981  15.670  12.400
48096W        W14879   1.885  30.477   0.819
48097W        W14880  27.950  43.472   4.127
48098W        W14881  36.107  33.464  13.592
48099W        W14882  42.009  12.140   4.189
48100W        W14883  16.296   5.830   1.853
48101W        W14884  37.427  13.022   3.703
48102W        W14885  29.016  23.511  14.001
48103W        W14886  44.524  17.993  13.950
48104W        W14887  10.824  32.636   1.754
48105W        W14888  36.922  43.731  14.384
48106W        W14889   2.681  14.381  12.415
48107W        W14890  37.796  26.698  13.258
48108W        W14891  44.550  30.749  11.041
48109W        W14892   4.737  30.744  13.414
48110W        W14893   8.653  25.467  11.396
48111W        W14894  28.140   0.256   3.144
48112W        W14895  22.975  28.122   3.395
48113W        W14896  17.113  19.147  13.440
48114W        W14897  25.654  35.994   1.552
48115W        W14898  13.694   9.154   4.110
48116W        W14899   6.391  37.551   4.625
48117W        W14900  32.892  14.589  14.822
48118W        W14901  36.805   5.829  14.328
48119W        W14902  34.048  33.751  12.057
48120W        W14903  39.269  36.913  14.875
48121W        W14904  43.430  24.293   0.490
48122W        W14905  24.198   3.360   1.961
48123W        W14906   4.354  11.856   0.262
48124W        W14907  38.393  40.797   0.373
48125W        W14908  35.915  19.559  11.967
48126W        W14909  41.746  33.492  12.867
48127W        W14910  40.957  31.443   4.949
48128W        W14911   4.399   5.180  11.911
48129W        W14912   1.124  29.624   3.694
48130W        W14913  43.232   5.757   3.568
48131W        W14914   4.343  15.117  11.632
48132W        W14915  41.364  28.963   4.581
48133W        W14916  33.140  28.163   0.816
48134W        W14917  41.219  33.442  10.609
48135W        W14918  38.343  25.366   3.623
48136W        W14919  10.810  39.082   0.465
48137W        W14920  34.951  19.913   2.631
48138W        W14921  43.461   7.236   3.699
48139W        W14922  10.729  26.400   3.725
48140W        W14923  23.500   4.598   4.067
48141W        W14924  42.247  36.210  12.552
48142W        W14925   4.392  43.262  14.816
48143W        W14926   7.673  32.812  14.080
48144W        W14927  13.780   7.758  13.196
48145W        W14928  28.136  21.538  13.887
48146W        W14929  38.610  23.858  13.443
48147W        W14930  21.701   7.971   1.437
48148W        W14931  23.590  34.186  11.373
48149W        W14932  43.289  32.938   1.227
48150W        W14933  28.122  12.828  10.215
48151W        W14934   5.860  40.583  14.392
48152W        W14935  36.405  34.628  12.452
48153W        W14936   8.625   7.726   3.565
48154W        W14937  43.038  28.579  11.144
48155W        W14938  31.389  22.972  14.956
48156W        W14939  35.015  17.255   4.631
48157W        W14940  16.020  32.791  13.091
48158W        W14941   2.360  28.341   0.181
48159W        W14942   4.534   3.563   3.811
48160W        W14943  14.775  13.681   1.841
48161W        W14944  14.067  33.819  10.597
48162W        W14945   4.619   6.292   0.394
48163W        W14946  19.257  37.648   4.150
48164W        W14947  23.956  33.013   1.330
48165W        W14948  10.179  11.124  11.427
48166W        W14949  38.103   7.421   3.694
48167W        W14950  17.492  23.463  12.062
48168W        W14951  41.844  24.161   3.691
48169W        W14952  40.334  38.844  12.069
48170W        W14953  10.157  24.640   0.251
48171W        W14954  17.830  44.007   1.851
48172W        W14955  26.797   3.525   4.065
48173W        W14956  21.247  37.884   0.403
48174W        W14957  43.774  20.563   0.312
48175W        W14958   6.390  25.999   1.771
48176W        W14959  40.498  21.425  11.062
48177W        W14960  38.516   2.257   2.407
48178W        W14961  31.100  15.590  13.823
48179W        W14962  18.665   2.713   0.275
48180W        W14963   2.248  10.401   4.275
48181W        W14964  36.362  30.069  12.556
48182W        W14965  13.573  33.000   4.148
48183W        W14966  42.312  41.912  11.989
48184W        W14967   7.862   6.960  14.000
48185W        W14968   6.414   8.670   1.267
48186W        W14969  33.343  11.842  11.537
48187W        W14970  43.220   0.351  12.119
48188W        W14971  40.338  43.855   0.252
48189W        W14972   0.440  10.939  10.751
48190W        W14973   3.252  11.286   3.639
48191W        W14974  29.828  13.608   3.989
48192W        W14975  39.786  38.369   0.384
48193W        W14976  22.832  30.800   1.232
48194W        W14977   7.046  38.483  11.607
48195W        W14978   6.145  24.771  11.590
48196W        W14979  28.881  12.059  11.955
48197W        W14980  43.826   8.218   1.888
48198W        W14981   2.906  19.719  11.561
48199W        W14982  11.183  40.872   0.973
48200W        W14983  24.498  26.429  10.549
48201W        W14984  25.137  39.806  14.930
48202W        W14985  41.800   1.425  12.153
48203W        W14986   4.329  27.664   1.895
48204W        W14987   1.988  29.947   0.877
48205W        W14988  22.817  40.547  11.792
48206W        W14989   5.414  39.596   3.707
48207W        W14990  23.156   4.984  10.820
48208W        W14991  29.642  38.582   1.262
48209W        W14992  28.585  42.466  14.479
48210W        W14993  44.462   8.749   9.689
48211W        W14994  13.221  18.168   1.766
48212W        W14995  32.085  24.546  11.571
48213W        W14996  28.994  43.307  13.448
48214W        W14997  42.953  10.914   0.418
48215W        W14998  32.058   7.867   5.186
48216W        W14999  44.910   2.324  13.358
48217W        W15000  11.247   3.863  13.734
48218W        W15001  33.666  29.678   0.424
48219W        W15002  17.706  11.313  11.528
48220W        W15003  23.099  31.049  12.930
48221W        W15004   1.189  42.912  11.893
48222W        W15005  38.004  29.026   1.578
48223W        W15006  29.351  21.622   2.973
48224W        W15007  26.330  31.194   3.359
48225W        W15008  42.771  25.575   3.398
48226W        W15009  31.417  40.521   0.438
48227W        W15010   3.157  28.449  12.444
48228W        W15011  18.333  40.665   0.756
48229W        W15012  37.651  35.975  12.030
48230W        W15013  16.603  39.361  10.588
48231W        W15014  26.585  15.830  10.064
48232W        W15015   0.396  15.417   2.522
48233W        W15016   5.234  37.254  14.804
48234W        W15017   0.419  10.823   2.550
48235W        W15018  26.610  10.919  14.315
48236W        W15019   7.426  42.789   0.057
48237W        W15020  40.976   5.457  11.707
48238W        W15021  23.048  25.703  12.886
48239W        W15022  29.489  23.047  12.126
48240W        W15023   2.797  31.009   4.493
48241W        W15024   3.210  43.099  12.951
48242W        W15025  15.436  31.477   2.644
48243W        W15026   6.316  21.694   2.596
48244W        W15027  11.705  18.743  13.011
48245W        W15028  30.126  39.039  11.811
48246W        W15029  39.805   8.929  12.210
48247W        W15030  22.780  42.387  13.057
48248W        W15031  41.081  34.332   1.722
48249W        W15032  15.687  11.794   4.670
48250W        W15033  22.631   1.581   1.477
48251W        W15034  32.919   9.180   1.474
48252W        W15035  40.828  25.461   1.867
48253W        W15036  44.976   0.571  14.048
48254W        W15037  44.343  42.857  10.980
48255W        W15038  41.132   2.778  12.422
48256W        W15039  25.449   7.774   4.060
48257W        W15040  41.767  32.436  13.195
48258W        W15041  20.604  41.538   3.259
48259W        W15042  36.673   9.882  10.712
48260W        W15043  11.872  29.043  13.849
48261W        W15044  25.527   9.248  14.598
48262W        W15045   3.734  18.532  11.232
48263W        W15046  27.573  33.584  14.414
48264W        W15047   1.870  12.845   0.920
48265W        W15048  25.050   4.821   0.818
48266W        W15049   1.246  17.233  11.633
48267W        W15050  17.171  16.831   2.289
48268W        W15051  37.543  35.571  10.658
48269W        W15052  29.322  36.793   0.541
48270W        W15053  15.574   4.419  13.470
48271W        W15054  37.449   5.804   2.637
48272W        W15055   8.087   3.836  12.624
48273W        W15056  24.496  27.708  13.018
48274W        W15057  41.948  43.704   0.859
48275W        W15058  18.104  37.025   1.956
48276W        W15059  23.015  41.293   1.788
48277W        W15060  32.891  37.062  10.713
48278W        W15061  12.604  16.633   4.657
48279W        W15062   4.094  24.607   3.177
48280W        W15063  16.774  14.358  13.401
48281W        W15064  11.548   3.807   4.145
48282W        W15065   2.160  43.943  13.047
48283W        W15066  23.540  36.909   4.526
48284W        W15067   2.560   2.668   0.241
48285W        W15068   9.182   0.344  12.541
48286W        W15069  43.692  14.034  13.959
48287W        W15070  44.008  11.946  13.764
48288W        W15071  17.952  11.932  12.071
48289W        W15072  35.589   5.413  12.977
48290W        W15073  35.438  17.529   4.562
48291W        W15074  22.285  17.973  11.548
48292W        W15075  14.142  17.137  13.883
48293W        W15076  26.008   2.345   5.057
48294W        W15077  38.661  26.945   4.790
48295W        W15078  11.733  41.622   3.720
48296W        W15079  43.244  21.713   3.861
48297W        W15080  35.921  43.948  11.435
48298W        W15081   0.409  26.569   0.392
48299W        W15082   6.329  27.651   0.035
48300W        W15083  35.363  42.146  10.924
48301W        W15084   0.712   3.285   2.872
48302W        W15085   7.739  15.301  11.118
48303W        W15086  43.862   9.845  14.803
48304W        W15087  10.364  44.579  14.452
48305W        W15088  26.632  40.898   1.884
48306W        W15089  27.687  42.197   0.980
48307W        W15090   5.963  29.457   3.322
48308W        W15091   6.855  25.778  11.090
48309W        W15092  38.672  18.968  12.400
48310W        W15093  33.082  14.982   4.637
48311W        W15094  19.973  43.077  13.864
48312W        W15095  14.658  30.976  10.791
48313W        W15096  39.174  42.905  10.639
48314W        W15097   9.938  24.446  12.992
48315W        W15098  10.660  24.948   2.647
48316W        W15099  33.059  43.620   0.994
48317W        W15100  44.869  43.894   3.666
48318W        W15101  16.497  15.616   9.990
48319W        W15102  24.185  38.769  14.305
48320W        W15103  32.372  30.477  11.957
48321W        W15104  21.683  33.822  10.603
48322W        W15105  15.375  44.202  11.442
48323W        W15106   6.439  42.389  11.940
48324W        W15107  35.692   2.281   0.862
48325W        W15108  36.322  21.247  13.402
48326W        W15109  41.954  38.027  12.233
48327W        W15110   5.518  33.102  13.393
48328W        W15111  38.009  21.691   4.784
48329W        W15112  38.388  34.341   1.624
48330W        W15113  34.415  30.289   0.423
48331W        W15114   8.903   3.772  13.387
48332W        W15115  35.518   2.691  14.459
48333W        W15116  22.397  13.088   2.085
48334W        W15117  15.180  14.235   3.490
48335W        W15118   6.898  33.137   3.697
48336W        W15119  27.149  25.954  14.227
48337W        W15120  39.350  11.241   2.202
48338W        W15121  35.360  16.166  14.318
48339W        W15122   0.087  29.655   2.668
48340W        W15123  16.787  11.876  13.533
48341W        W15124  29.607   1.315  14.848
48342W        W15125  37.078  26.905   0.188
48343W        W15126  36.220  15.268   0.270
48344W        W15127   6.141   5.380   2.398
48345W        W15128  32.106  37.009  12.052
48346W        W15129  26.533   8.422   3.024
48347W        W15130  19.746  35.423   2.944
48348W        W15131   5.274  17.392  13.461
48349W        W15132  34.088  19.752  13.928
48350W        W15133   7.002   0.834   4.086
48351W        W15134   6.565  36.101   1.789
48352W        W15135  16.228  23.687   1.087
48353W        W15136  24.170  24.087   3.714
48354W        W15137   6.702   1.723  11.088
48355W        W15138  15.267  38.288   4.115
48356W        W15139  30.107  30.092   2.838
48357W        W15140   8.772  38.707   2.214
48358W        W15141  13.735   5.714   1.907
48359W        W15142   3.223  24.792   0.423
48360W        W15143  22.692  25.216   4.067
48361W        W15144   7.142  36.125   1.326
48362W        W15145   2.735  10.301  12.112
48363W        W15146  35.394  35.108  13.326
48364W        W15147  44.981  10.964  14.902
48365W        W15148   2.211  27.013   0.808
48366W        W15149  31.095  39.057   3.684
48367W        W15150  31.770   9.778  12.442
48368W        W15151  10.670  24.597  13.465
48369W        W15152  41.205  30.032  12.963
48370W        W15153   3.624  25.373  11.957
48371W        W15154   0.130  16.866   5.449
48372W        W15155  11.589   0.935   0.748
48373W        W15156  44.395   0.259  11.809
48374W        W15157  37.125  29.633  13.967
48375W        W15158   1.513  17.382   2.356
48376W        W15159  24.202  10.266   5.081
48377W        W15160  37.557  29.151  14.498
48378W        W15161  19.236  35.146   3.829
48379W        W15162   1.894   7.475  13.419
48380W        W15163  25.016   8.459   0.211
48381W        W15164  15.778  37.410  11.974
48382W        W15165  24.078  16.967   3.477
48383W        W15166  20.483  30.060   3.464
48384W        W15167  20.359   2.890   2.811
48385W        W15168  10.368  43.053   2.737
48386W        W15169  28.522  27.089   4.197
48387W        W15170  15.291  10.666  12.065
48388W        W15171  18.541  11.597   1.346
48389W        W15172   2.165  36.841  13.101
48390W        W15173  38.753  19.779  11.860
48391W        W15174  43.360  27.485  13.262
48392W        W15175  19.025  24.203   2.856
48393W        W15176  30.136  28.462   3.285
48394W        W15177  14.423  26.559  12.786
48395W        W15178   8.178   3.814   2.730
48396W        W15179   6.832  21.254   3.427
48397W        W15180  32.926  26.682  10.952
48398W        W15181  43.465  19.120  12.065
48399W        W15182  10.809   9.087   3.172
48400W        W15183  40.170  12.170  12.981
48401W        W15184  34.460   4.315   0.265
48402W        W15185  30.213  21.937  11.507
48403W        W15186   3.165  41.493   0.071
48404W        W15187  18.821  20.590   3.428
48405W        W15188  36.983  29.442   0.282
48406W        W15189  12.077   0.877   3.574
48407W        W15190  39.451   4.467   4.019
48408W        W15191  21.147  27.903   4.108
48409W        W15192  13.650  31.381   4.249
48410W        W15193  43.004  32.509   1.201
48411W        W15194  16.479  31.551   2.792
48412W        W15195   1.045   6.346  14.000
48413W        W15196  41.415  39.597   2.657
48414W        W15197   0.719   1.554  14.056
48415W        W15198  28.157   0.012  14.407
48416W        W15199  41.811  19.686  10.569
48417W        W15200  32.316  33.909  10.416
48418W        W15201  28.246   0.889   5.211
48419W        W15202  19.585  20.842   3.269
48420W        W15203  30.460  26.250   5.011
48421W        W15204  32.130  33.562   1.816
48422W        W15205  29.291   1.658  12.443
48423W        W15206   8.311   0.131   4.233
48424W        W15207  17.796   8.261   0.060
48425W        W15208  34.347   1.345   3.178
48426W        W15209  14.834  23.985   1.403
48427W        W15210  41.772  21.689   1.214
48428W        W15211   8.262   0.312  13.430
48429W        W15212  35.121  18.381   0.463
48430W        W15213  13.602  43.863   0.011
48431W        W15214  23.096  43.600   3.855
48432W        W15215  25.560  40.097   0.038
48433W        W15216   1.027  33.518  12.481
48434W        W15217  38.830  35.370   2.872
48435W        W15218  17.623   5.753   4.136
48436W        W15219   4.151  10.864  13.798
48437W        W15220  36.091  30.129   0.919
48438W        W15221  29.953   7.228   2.641
48439W        W15222  25.260  37.821   2.823
48440W        W15223  21.355  28.941  12.583
48441W        W15224  35.379   5.464   2.143
48442W        W15225   5.969  32.974   1.121
48443W        W15226  37.915  29.262   1.129
48444W        W15227  28.807  42.580  12.271
48445W        W15228  39.093  15.075  14.038
48446W        W15229   3.542  43.544   3.743
48447W        W15230  14.906  22.494   1.382
48448W        W15231  33.411  30.040  10.746
48449W        W15232   1.573  20.551  11.536
48450W        W15233  26.637  17.328   2.394
48451W        W15234  19.105  11.947  13.605
48452W        W15235  12.144  17.044   3.713
48453W        W15236   0.762  37.570  14.908
48454W        W15237   7.839  44.650   2.451
48455W        W15238  32.677  42.461   2.539
48456W        W15239  40.407  19.075   1.755
48457W        W15240  17.683  24.726   2.280
48458W        W15241  44.934  21.121  14.709
48459W        W15242   0.808  35.965   2.799
48460W        W15243  30.319  32.026  12.493
48461W        W15244  13.072  13.761   4.473
48462W        W15245  10.864  21.533   2.835
48463W        W15246  25.695   1.044  12.042
48464W        W15247   7.361  39.518   0.517
48465W        W15248  44.242  40.526   4.613
48466W        W15249  28.294  19.201   0.752
48467W        W15250  26.266  15.575   0.652
48468W        W15251  34.580  24.401   3.277
48469W        W15252  36.905  23.201  14.001
48470W        W15253  20.933  29.536  11.948
48471W        W15254  42.981  31.078  12.103
48472W        W15255  14.030  10.726   0.866
48473W        W15256  14.916   9.730   3.689
48474W        W15257  11.139  28.368   0.503
48475W        W15258  12.219  42.216  13.692
48476W        W15259  31.061  43.218   2.835
48477W        W15260   5.129  23.927   0.354
48478W        W15261  32.395   8.265  12.917
48479W        W15262  14.980   6.980   5.102
48480W        W15263  44.044  32.632  14.798
48481W        W15264   2.261  37.428  13.794
48482W        W15265  42.003  20.664   1.247
48483W        W15266  21.699  28.325  13.207
48484W        W15267  14.805  14.301   3.124
48485W        W15268  10.438  17.596   0.731
48486W        W15269  32.436   2.346   4.613
48487W        W15270  36.428   1.232   2.677
48488W        W15271  17.310  15.140  13.797
48489W        W15272  36.843  40.283   4.090
48490W        W15273  43.419  30.629  11.611
48491W        W15274  30.423   2.513   2.663
48492W        W15275  16.167  39.394   3.915
48493W        W15276  12.307  39.407   2.836
48494W        W15277  20.866  14.947   3.624
48495W        W15278   2.988  23.245   0.729
48496W        W15279  30.574  20.977   1.222
48497W        W15280  10.175  10.260  11.549
48498W        W15281  15.072  24.107   4.595
48499W        W15282  23.310   8.417   1.306
48500W        W15283  41.902  16.404  11.719
48501W        W15284  32.209   9.868   2.833
48502W        W15285  25.123  33.422   0.791
48503W        W15286   9.348   0.946   0.886
48504W        W15287  11.609   7.632  11.288
48505W        W15288  21.146   8.250   3.767
48506W        W15289  33.567  44.438  13.239
48507W        W15290  27.123   8.514   5.004
48508W        W15291   4.275  10.795   2.162
48509W        W15292  26.465   0.702   0.311
48510W        W15293  26.690  13.135  12.695
48511W        W15294  15.919  30.675  11.195
48512W        W15295   3.978   9.410  11.985
48513W        W15296  40.033  26.598   5.104
48514W        W15297  14.861  28.395   1.005
48515W        W15298  43.087  12.257   1.802
48516W        W15299  11.841  35.744   3.846
48517W        W15300  23.676  36.503   1.853
48518W        W15301  16.618  30.098   2.602
48519W        W15302  10.827  20.829  14.522
48520W        W15303   4.848  18.105   0.447
48521W        W15304  24.516  44.112   1.868
48522W        W15305  16.696  28.081  13.768
48523W        W15306  40.269  38.958  11.178
48524W        W15307  27.459   0.589  12.482
48525W        W15308  22.978  37.580  11.632
48526W        W15309  14.844   6.797   2.218
48527W        W15310  43.430  32.287   4.100
48528W        W15311  30.149  40.636  14.620
48529W        W15312  37.454  41.114   0.767
48530W        W15313  42.715  42.428  14.354
48531W        W15314  13.218   1.432  14.364
48532W        W15315   2.684  42.388  11.215
48533W        W15316  33.815  37.939   2.707
48534W        W15317  41.940   1.800  14.256
48535W        W15318   9.837  15.101   3.750
48536W        W15319  37.639   9.373  10.254
48537W        W15320  44.827  17.289  14.995
48538W        W15321  24.502  42.239   4.580
48539W        W15322  11.762  36.935  13.596
48540W        W15323   8.742  38.808   0.383
48541W        W15324   2.294  16.342   4.164
48542W        W15325   4.859  19.242  12.847
48543W        W15326  28.626  44.760  13.667
48544W        W15327  35.044  22.901  12.422
48545W        W15328   0.763   0.598   4.689
48546W        W15329  37.395  12.026  13.885
48547W        W15330   6.654  22.220  13.032
48548W        W15331  23.743  17.941   1.051
48549W        W15332  14.617  20.030  10.467
48550W        W15333  11.238  22.054  10.573
48551W        W15334  11.305  35.507   1.902
48552W        W15335   3.873   6.926  14.430
48553W        W15336  38.478   5.813   3.329
48554W        W15337  24.337  44.389   1.419
48555W        W15338  24.019  21.503   4.090
48556W        W15339   3.209  28.435   4.859
48557W        W15340  38.475  19.659  14.921
48558W        W15341  13.112   6.781  13.068
48559W        W15342  11.481   3.976  11.463
48560W        W15343  44.960  35.552   2.394
48561W        W15344  34.009  40.343  11.703
48562W        W15345  25.622   4.146   4.097
48563W        W15346  23.987  40.523   1.403
48564W        W15347  27.998  20.133  11.973
48565W        W15348  17.874  43.634   0.352
48566W        W15349  23.248  10.771  10.851
48567W        W15350   9.815  44.285   3.110
48568W        W15351   3.891   3.805   0.461
48569W        W15352  39.907  19.968  12.653
48570W        W15353  12.298  30.570   3.119
48571W        W15354  25.198  17.240   0.856
48572W        W15355  25.232  37.575   3.748
48573W        W15356  38.988   4.990   0.471
48574W        W15357  34.556  39.918  14.957
48575W        W15358  41.642  38.493   3.194
48576W        W15359  41.092  20.274  14.165
48577W        W15360  31.083  16.346  14.569
48578W        W15361  38.531  26.203   0.257
48579W        W15362   8.945   4.778   0.940
48580W        W15363  18.241  17.628   9.754
48581W        W15364  17.162  22.396  13.035
48582W        W15365  31.088  31.088   1.909
48583W        W15366   1.302  22.038   0.261
48584W        W15367  10.278  31.589  10.214
48585W        W15368  25.662   1.401   1.988
48586W        W15369  18.376  16.633  11.064
48587W        W15370  19.867  40.998  14.815
48588W        W15371  38.802  42.242  12.084
48589W        W15372  24.182  41.662  13.717
48590W        W15373  36.352   7.108  14.939
48591W        W15374  10.338  19.758   3.107
48592W        W15375  24.651   9.870   3.643
48593W        W15376  27.335  44.952  13.122
48594W        W15377  37.115  29.633   4.072
48595W        W15378  10.329  26.754  10.307
48596W        W15379  38.876  37.809  13.802
48597W        W15380  39.251   9.203   4.249
48598W        W15381  15.269  12.530  11.252
48599W        W15382   2.888  21.608   3.371
48600W        W15383  30.546   0.940  13.669
48601W        W15384  23.747  13.643  11.670
48602W        W15385  21.575  41.728  13.068
48603W        W15386   0.046  41.951   3.761
48604W        W15387   8.222   3.796   3.246
48605W        W15388  43.167  29.349   5.053
48606W        W15389  39.787   7.893  14.829
48607W        W15390  29.871  40.187   1.001
48608W        W15391  21.209  37.307  14.254
48609W        W15392  30.925   1.799   2.619
48610W        W15393  31.423   9.697   1.674
48611W        W15394   5.686  38.947   0.943
48612W        W15395   4.381  31.086   0.281
48613W        W15396  16.168  24.123  11.987
48614W        W15397  17.290  40.190   2.891
48615W        W15398   4.494  38.376  14.386
48616W        W15399  38.802  24.982  12.107
48617W        W15400  25.152  34.988  12.049
48618W        W15401   9.485  26.902  13.378
48619W        W15402   2.693  33.545  10.507
48620W        W15403  40.791  11.854  14.556
48621W        W15404  39.758  29.491   2.939
48622W        W15405   0.875  35.988  12.439
48623W        W15406  33.851  12.801   2.561
48624W        W15407   2.769  14.278   4.137
48625W        W15408  33.297   9.305  14.534
48626W        W15409  41.594  28.624  12.055
48627W        W15410  44.509  17.775  10.063
48628W        W15411  29.931  33.494  10.929
48629W        W15412   7.945  18.135   4.667
48630W        W15413  22.103  37.155  11.416
48631W        W15414  43.875  19.590   4.029
48632W        W15415   1.895   5.361   2.757
48633W        W15416  44.181   6.212   3.717
48634W        W15417  40.021  38.801   1.346
48635W        W15418  35.023  40.505  14.776
48636W        W15419  23.116  39.535  14.080
48637W        W15420   6.510  15.413  11.589
48638W        W15421  20.599  30.552   4.121
48639W        W15422  26.072   6.412  13.875
48640W        W15423  17.829  11.771   0.240
48641W        W15424  31.805   7.850  11.028
48642W        W15425   2.162   6.303  11.141
48643W        W15426  16.870  15.495   3.235
48644W        W15427  31.597  20.265  14.298
48645W        W15428  31.137  18.177   2.719
48646W        W15429  22.178  20.131   1.271
48647W        W15430  35.372  11.247   2.295
48648W        W15431  27.068  27.613  11.397
48649W        W15432   8.884  11.878   3.661
48650W        W15433  33.598  24.645   1.117
48651W        W15434  26.612  20.525   1.890
48652W        W15435  25.734  16.509   3.263
48653W        W15436  43.523  10.862   3.783
48654W        W15437  29.954  31.667  10.748
48655W        W15438   9.106  19.944   0.289
48656W        W15439   4.942  13.410  12.963
48657W        W15440  26.100  30.683   3.348
48658W        W15441   5.257  38.509  10.625
48659W        W15442  19.251  33.448  11.646
48660W        W15443  32.933  13.150  12.996
48661W        W15444   1.024  17.930  11.952
48662W        W15445  32.520  40.019  11.103
48663W        W15446  28.336  44.328  11.497
48664W        W15447  38.962   8.744  12.342
48665W        W15448   6.254  44.410  10.533
48666W        W15449  11.063   2.379   1.215
48667W        W15450  36.530  29.848  13.424
48668W        W15451  22.085  17.109  11.108
48669W        W15452  36.937  28.931   3.392
48670W        W15453  16.253  22.479  10.431
48671W        W15454  22.635  15.986  10.098
48672W        W15455   6.203  13.916  12.501
48673W        W15456  40.383  13.155  13.536
48674W        W15457  36.300  29.036  14.751
48675W        W15458  21.937  35.921  12.836
48676W        W15459  14.734  29.221  14.963
48677W        W15460  21.429  34.182   2.332
48678W        W15461  21.444  28.499  13.894
48679W        W15462  41.016  36.530  11.594
48680W        W15463  26.423  41.386   2.662
48681W        W15464   0.802  43.990  12.661
48682W        W15465   9.926  33.412  12.017
48683W        W15466  34.406  42.819  14.982
48684W        W15467  37.447  34.797   0.731
48685W        W15468  29.070   3.738  10.818
48686W        W15469  21.666   8.295  14.816
48687W        W15470  28.030  22.356   4.855
48688W        W15471  43.230  15.357  12.086
48689W        W15472   4.016  16.267   3.499
48690W        W15473  18.530  14.665   2.794
48691W        W15474   5.770  17.626  12.166
48692W        W15475  37.591  39.394  14.491
48693W        W15476  32.367  35.570   4.602
48694W        W15477  44.173  24.738  12.556
48695W        W15478  38.994  41.770   4.187
48696W        W15479  16.637  28.400  11.646
48697W        W15480  44.003  23.562   3.252
48698W        W15481   0.750  27.247   1.315
48699W        W15482  33.512  10.549   2.272
48700W        W15483   7.872  12.818  12.003
48701W        W15484   8.750  28.115  13.367
48702W        W15485  39.999   3.779   3.633
48703W        W15486  32.185  26.109  14.882
48704W        W15487   4.246  41.525   3.280
48705W        W15488  36.617  39.725  12.656
48706W        W15489   6.836   4.977   4.397
48707W        W15490  25.587   6.603  12.552
48708W        W15491   2.919  29.907   2.374
48709W        W15492   5.783  33.434   4.335
48710W        W15493  38.039   0.784   0.242
48711W        W15494  30.855  18.050  13.927
48712W        W15495   9.696   9.431  10.614
48713W        W15496  27.439  40.780  11.176
48714W        W15497  20.667  30.329  12.273
48715W        W15498  32.040   4.492  11.933
48716W        W15499  24.717  38.026   3.757
48717W        W15500  13.783   7.865  11.990
48718W        W15501  28.589  25.940   0.661
48719W        W15502   9.136  20.616   4.600
48720W        W15503  34.097  17.902   0.497
48721W        W15504  38.420  36.009   0.265
48722W        W15505   4.324   7.795  14.694
48723W        W15506  39.918  28.273   0.482
48724W        W15507  44.203  16.544  13.079
48725W        W15508  38.473  32.063   2.798
48726W        W15509   2.237  14.611   2.883
48727W        W15510   6.459  42.920  11.139
48728W        W15511   0.929   7.891  12.673
48729W        W15512   0.155  44.718  14.797
48730W        W15513  27.635   2.394  14.755
48731W        W15514   0.680   6.599   3.762
48732W        W15515  34.578  11.702   2.301
48733W        W15516  43.294  40.850  10.739
48734W        W15517  42.336   4.550   1.165
48735W        W15518  13.122   0.558  11.130
48736W        W15519  38.607   3.382  11.585
48737W        W15520  39.084  19.322   3.236
48738W        W15521  42.045  36.025  14.273
48739W        W15522  43.427   8.744   0.188
48740W        W15523  44.293  27.613  12.080
48741W        W15524  24.073   6.761  10.910
48742W        W15525  38.101  10.386  12.072
48743W        W15526  26.581  39.248  12.002
48744W        W15527   6.345  36.403   4.064
48745W        W15528  23.202  38.983   4.153
48746W        W15529  33.996  22.921  12.456
48747W        W15530   7.690  29.817  13.524
48748W        W15531  24.072  39.296   2.777
48749W        W15532  34.934  37.517   2.358
48750W        W15533  32.605  22.922  10.729
48751W        W15534   7.153  17.700  12.432
48752W        W15535  22.632  11.155  14.967
48753W        W15536  38.930  34.567   2.312
48754W        W15537  12.169   4.358   3.695
48755W        W15538  35.909  38.110  12.152
48756W        W15539   3.215  22.076  12.961
48757W        W15540  36.049  31.398   3.229
48758W        W15541   0.884  29.917  14.251
48759W        W15542  35.342   5.335   2.644
48760W        W15543  23.574  25.057  12.661
48761W        W15544  16.185  26.030  14.740
48762W        W15545   8.255   2.405   3.437
48763W        W15546  18.677   2.065   1.583
48764W        W15547  25.028  25.442   0.397
48765W        W15548  13.410  29.871   4.171
48766W        W15549  41.018  36.591  12.408
48767W        W15550  43.806  21.573  10.334
48768W        W15551  13.516  17.499  13.083
48769W        W15552  22.069  18.336   1.998
48770W        W15553  40.056  32.043  11.608
48771W        W15554  14.282  10.537  10.498
48772W        W15555  13.921  44.529   2.736
48773W        W15556  41.524  41.963   3.254
48774W        W15557  25.021   9.663  14.928
48775W        W15558  19.645   4.639  10.846
48776W        W15559   6.149  10.739  12.554
48777W        W15560   0.786  35.035   1.746
48778W        W15561  24.644  10.866  14.399
48779W        W15562  40.987  25.186   4.637
48780W        W15563  11.198  32.372   3.996
48781W        W15564   9.820  31.933   0.844
48782W        W15565   9.762   8.743   1.209
48783W        W15566  38.855  36.092   2.383
48784W        W15567  39.787  39.073  14.402
48785W        W15568   1.275   2.734  11.021
48786W        W15569  38.449  12.230  13.895
48787W        W15570  34.476  37.529   1.000
48788W        W15571  19.069  13.211   4.591
48789W        W15572  35.874  14.863   1.841
48790W        W15573   8.756  29.158  12.982
48791W        W15574  33.707  37.623   1.047
48792W        W15575   7.112  32.466  14.902
48793W        W15576  34.322  15.337   1.368
48794W        W15577  24.728  40.739   0.403
48795W        W15578  31.894   5.157   2.973
48796W        W15579  16.026  24.221  14.852
48797W        W15580  21.778  12.367  13.089
48798W        W15581  34.840  13.228   9.896
48799W        W15582  36.128  16.307   2.007
48800W        W15583  16.692  38.727   2.873
48801W        W15584  38.731  40.119  12.270
48802W        W15585  16.532  24.203  14.966
48803W        W15586   1.062  21.319   1.456
48804W        W15587  40.835  20.550   2.683
48805W        W15588  23.541  38.604  14.278
48806W        W15589   2.848  18.295  13.236
48807W        W15590  35.736  19.004  11.304
48808W        W15591  35.301  24.530   1.836
48809W        W15592  31.028   4.930  10.263
48810W        W15593   9.418  16.129  10.918
48811W        W15594  26.747   9.710   3.611
48812W        W15595  24.597   5.889  13.821
48813W        W15596  39.394  39.734   2.339
48814W        W15597   3.175  43.418  10.498
48815W        W15598  22.098  26.087   3.342
48816W        W15599  35.405  24.951  11.023
48817W        W15600  40.029  36.948  10.940
48818W        W15601  28.022  27.278  14.729
48819W        W15602  17.732  26.512  14.734
48820W        W15603   7.396  38.057  13.335
48821W        W15604  20.244  37.372   4.127
48822W        W15605  28.575  31.568   1.954
48823W        W15606  40.012   7.817   2.400
48824W        W15607  31.849  13.342   2.119
48825W        W15608  19.011  36.030   4.552
48826W        W15609   4.853  35.552  10.668
48827W        W15610  43.692  28.995  11.450
48828W        W15611   5.226   1.487  12.892
48829W        W15612  41.454  37.167   1.680
48830W        W15613   6.428  43.177  11.584
48831W        W15614  36.650  31.187  12.135
48832W        W15615  34.981  25.468   2.441
48833W        W15616   8.659  43.799  13.472
48834W        W15617  23.674  20.741  11.744
48835W        W15618  28.523  17.103  13.396
48836W        W15619  19.908  15.546  14.296
48837W        W15620  10.446  44.875   4.495
48838W        W15621   2.039  26.536  12.917
48839W        W15622  20.724  43.300   0.921
48840W        W15623  43.012  19.184   0.493
48841W        W15624  42.197   6.152  14.435
48842W        W15625   9.791  19.179   2.365
48843W        W15626  13.346  38.278  14.798
48844W        W15627   4.758  33.532  13.049
48845W        W15628  37.379  35.206   3.800
48846W        W15629  24.206  22.687   4.800
48847W        W15630  20.759  43.222   4.117
48848W        W15631  23.611  26.947   1.117
48849W        W15632  35.603  15.208  11.215
48850W        W15633  19.812  34.899   4.110
48851W        W15634  11.177  12.724  11.646
48852W        W15635   1.516  13.894   2.005
48853W        W15636  27.602  35.173  14.319
48854W        W15637   5.706  14.661  12.762
48855W        W15638  37.155  41.883   4.246
48856W        W15639   1.291   0.173   2.065
48857W        W15640  30.426   2.872  12.851
48858W        W15641  13.753  28.353  13.013
48859W        W15642  43.113  36.404   4.166
48860W        W15643  40.608  37.125   0.352
48861W        W15644  30.657   1.277  14.948
48862W        W15645  17.488  22.452  13.741
48863W        W15646  27.006   7.116  11.804
48864W        W15647  35.768  31.507  12.286
48865W        W15648   3.167  20.244  10.577
48866W        W15649  13.351   3.069   0.764
48867W        W15650  39.041  31.627  13.454
48868W        W15651  33.472  16.667   4.831
48869W        W15652  22.326   1.505   3.236
48870W        W15653  13.299  26.208   2.098
48871W        W15654  30.956  19.304   4.179
48872W        W15655  21.477  40.781  12.806
48873W        W15656   7.425  13.101  12.186
48874W        W15657   4.836   5.401  12.094
48875W        W15658  40.019  14.666   3.222
48876W        W15659  25.416  22.186   3.199
48877W        W15660   8.674  22.570  13.469
48878W        W15661  31.154  25.693   4.147
48879W        W15662  33.008  25.013  13.377
48880W        W15663  36.713   4.283  14.942
48881W        W15664  18.138   5.337   2.309
48882W        W15665  21.564  41.308   0.954
48883W        W15666  29.195   6.767  12.075
48884W        W15667  30.535  40.856  11.148
48885W        W15668  43.343  10.848   0.743
48886W        W15669  21.228  14.867   9.850
48887W        W15670  10.366  21.113   4.615
48888W        W15671  20.877  31.494   3.311
48889W        W15672  16.362   0.018   0.464
48890W        W15673   8.044   7.388  14.325
48891W        W15674  23.610  43.367  13.566
48892W        W15675   3.306  11.191  13.181
48893W        W15676  27.167  16.809   4.892
48894W        W15677   0.254   6.974   0.930
48895W        W15678  42.195  42.934   4.580
48896W        W15679  20.700  37.451  12.571
48897W        W15680  13.197   4.012   1.850
48898W        W15681  14.723  24.582   1.189
48899W        W15682  22.096  39.756  14.498
48900W        W15683  35.415  41.437   2.752
48901W        W15684  41.130  28.612  14.035
48902W        W15685  15.740  23.969  12.748
48903W        W15686  21.805  18.060   4.603
48904W        W15687  26.215   8.724  12.461
48905W        W15688  39.052  37.354  13.546
48906W        W15689  29.711  33.151  11.423
48907W        W15690  24.055   6.055  13.412
48908W        W15691  43.365   4.984   0.056
48909W        W15692   6.925  27.584  10.762
48910W        W15693  34.467   6.829  11.126
48911W        W15694   9.583  23.108   1.090
48912W        W15695   9.071   2.366   1.749
48913W        W15696  31.667  44.887   0.261
48914W        W15697  32.696  38.983  10.622
48915W        W15698  23.091  42.763   0.714
48916W        W15699  33.751  39.555  11.063
48917W        W15700  32.628  11.104  13.454
48918W        W15701  40.946  10.845  13.436
48919W        W15702  27.136  31.185   3.259
48920W        W15703  41.780  15.093   2.194
48921W        W15704  34.637  18.775  12.160
48922W        W15705  17.266  30.905   1.790
48923W        W15706  27.947   6.877   2.661
48924W        W15707  11.824  29.870  12.843
48925W        W15708  29.214  14.906  14.229
48926W        W15709  25.902  43.546  11.903
48927W        W15710  17.280  27.100  13.407
48928W        W15711  28.344   1.415  11.941
48929W        W15712  33.702  30.222  10.213
48930W        W15713   5.689  35.988  13.136
48931W        W15714  28.433  27.558  14.795
48932W        W15715  14.560  26.593   1.871
48933W        W15716   2.823   9.154  14.055
48934W        W15717  32.498  22.524  11.670
48935W        W15718  31.943  32.888  10.491
48936W        W15719  15.544  34.616   3.897
48937W        W15720  16.657  37.507   2.381
48938W        W15721   7.559   0.395  12.504
48939W        W15722  29.982   4.906   3.660
48940W        W15723  18.011   9.421   1.929
48941W        W15724  33.965  15.273  13.544
48942W        W15725  13.783  23.020  10.664
48943W        W15726  42.541   3.189   3.209
48944W        W15727  31.690  18.154  14.321
48945W        W15728   4.218  36.955  12.053
48946W        W15729   7.858  23.165  12.149
48947W        W15730  10.319  42.373  13.815
48948W        W15731  17.619  12.930   2.761
48949W        W15732  30.833  44.180   3.007
48950W        W15733  31.507   0.311   0.718
48951W        W15734   0.804  28.619  10.994
48952W        W15735  34.040   1.743  12.610
48953W        W15736  29.405  13.685  11.269
48954W        W15737  38.506   6.281  10.423
48955W        W15738   6.835   4.221  14.462
48956W        W15739  42.984   8.148   1.724
48957W        W15740  33.962  13.571   4.047
48958W        W15741  13.709  18.182   1.608
48959W        W15742  16.109  12.591  11.572
48960W        W15743  16.030  16.990  11.506
48961W        W15744   9.076  28.896  13.455
48962W        W15745  24.553  43.510   3.752
48963W        W15746  36.091  39.111  11.932
48964W        W15747  36.939  31.213   4.882
48965W        W15748  10.341  16.286  13.142
48966W        W15749   4.661  14.240   2.380
48967W        W15750  19.034   5.017   2.677
48968W        W15751   2.850  42.777   0.906
48969W        W15752  22.191  24.632  12.359
48970W        W15753   6.860  35.073   5.379
48971W        W15754  12.400  35.176  11.091
48972W        W15755  20.789  32.081  13.497
48973W        W15756  34.343  43.263   0.962
48974W        W15757   5.198   3.751   2.246
48975W        W15758  13.467  12.067   2.034
48976W        W15759  43.216  12.829  14.782
48977W        W15760  24.076  37.909  14.618
48978W        W15761  37.626  19.001   4.126
48979W        W15762  21.617  33.292  11.574
48980W        W15763   8.688  26.544  14.778
48981W        W15764  27.835   3.689  11.926
48982W        W15765   3.716  32.987  13.890
48983W        W15766  12.116  22.877  12.732
48984W        W15767   5.533  23.741  12.164
48985W        W15768  35.991  10.632   2.661
48986W        W15769  18.971   3.417   0.571
48987W        W15770  30.702  42.390  11.413
48988W        W15771  26.231   2.999  10.648
48989W        W15772   6.656  11.229   1.474
48990W        W15773  18.816  18.158   0.231
48991W        W15774  39.263  42.540  13.925
48992W        W15775  14.562  33.557   3.075
48993W        W15776  29.479   7.579   1.374
48994W        W15777  19.003  27.030  11.979
48995W        W15778  30.012  18.605  12.468
48996W        W15779  34.010   5.237   2.404
48997W        W15780  17.826  22.113  10.688
48998W        W15781  10.676  13.590  13.490
48999W        W15782  30.185  26.957  10.790
49000W        W15783  19.192  18.752   0.399
49001W        W15784   7.736  27.687  14.311
49002W        W15785  26.510  17.739  13.565
49003W        W15786  40.190  15.795   4.588
49004W        W15787   6.301  15.532  11.127
49005W        W15788   2.505   2.402  11.065
49006W        W15789  36.825  12.415  12.160
49007W        W15790  34.038  10.364   2.341
49008W        W15791   7.346  41.728  12.417
49009W        W15792   9.197  30.490   3.176
49010W        W15793  24.132  40.926  11.573
49011W        W15794  37.680   4.286   4.846
49012W        W15795  36.202  25.430  14.459
49013W        W15796  12.736  12.630  10.635
49014W        W15797  38.022  40.964   4.910
49015W        W15798  10.011  42.478  12.555
49016W        W15799  11.222   3.554   5.164
49017W        W15800   1.470  32.045  10.717
49018W        W15801  24.667  40.080  14.755
49019W        W15802  36.059  18.668  11.475
49020W        W15803  10.835  28.597   3.156
49021W        W15804  18.307  22.890  12.904
49022W        W15805  41.723  20.462   2.651
49023W        W15806   4.652  29.562   3.672
49024W        W15807   5.612  35.638   0.181
49025W        W15808  25.670  37.120  14.239
49026W        W15809  18.714  10.695   4.831
49027W        W15810  17.687  37.637  12.091
49028W        W15811  17.855  21.658   2.291
49029W        W15812  20.648  17.766  14.562
49030W        W15813   7.370   7.390  11.991
49031W        W15814  24.602  12.226  12.056
49032W        W15815   7.188  36.099   4.195
49033W        W15816  38.150  44.814  10.612
49034W        W15817   9.175  44.847   3.705
49035W        W15818  37.788  12.624   4.399
49036W        W15819  32.721   8.672  14.789
49037W        W15820  14.095   2.685  13.893
49038W        W15821  23.786  23.192  10.299
49039W        W15822   9.346  27.937   2.381
49040W        W15823   8.164  21.194  12.016
49041W        W15824  17.488   1.440  11.215
49042W        W15825  23.247  30.931  14.863
49043W        W15826   0.731  41.133  10.907
49044W        W15827  42.915  35.190  13.116
49045W        W15828  34.186  26.670  12.277
49046W        W15829   7.674   0.892  14.951
49047W        W15830  26.403  29.027  13.460
49048W        W15831  25.118   2.577   3.981
49049W        W15832  18.545  10.386   4.419
49050W        W15833   9.985  28.510  14.316
49051W        W15834  13.590  17.314   1.213
49052W        W15835  38.991   7.396  12.640
49053W        W15836  42.205  25.302   0.407
49054W        W15837   8.672  20.300  11.623
49055W        W15838  23.062   5.420  11.735
49056W        W15839  27.930  29.749   3.078
49057W        W15840   5.915  23.674   2.429
49058W        W15841  33.919   7.963   3.537
49059W        W15842  15.453  23.989  10.377
49060W        W15843  12.742   0.683   0.084
49061W        W15844  10.661  25.089  14.090
49062W        W15845   4.708  30.941  12.904
49063W        W15846  21.356   6.752   3.678
49064W        W15847  11.265  17.137  14.078
49065W        W15848   8.306  28.803  13.837
49066W        W15849  37.537  36.587  12.539
49067W        W15850  27.447   6.230  14.538
49068W        W15851  36.794  32.044   2.836
49069W        W15852  31.070  15.626   1.860
49070W        W15853  22.565   2.203  12.202
49071W        W15854  28.526  26.079  14.127
49072W        W15855  18.137  23.950  10.919
49073W        W15856  22.672  15.269   3.230
49074W        W15857  42.781  28.891   3.565
49075W        W15858  29.839  36.591  11.114
49076W        W15859  36.068  37.386  13.442
49077W        W15860  35.855  40.812   2.223
49078W        W15861   0.840   9.827   4.252
49079W        W15862   2.749   2.033   1.784
49080W        W15863  29.841  15.778  13.710
49081W        W15864  12.244  21.424   1.810
49082W        W15865  27.642  42.371  11.922
49083W        W15866  29.989   7.134  13.442
49084W        W15867   0.810   7.738   4.887
49085W        W15868  26.938   4.689  13.403
49086W        W15869  24.164  33.863   1.866
49087W        W15870  26.457  23.070  13.573
49088W        W15871  11.457  20.815   0.936
49089W        W15872  21.025  36.403   1.410
49090W        W15873   4.880  35.897  13.944
49091W        W15874  16.279   2.503  14.353
49092W        W15875  39.784  11.813  10.893
49093W        W15876  33.639  11.008  12.930
49094W        W15877  17.023  19.983  12.880
49095W        W15878  43.510  14.172  14.496
49096W        W15879   9.148   3.205   3.784
49097W        W15880   1.489  25.624   4.584
49098W        W15881  43.498  32.417  13.918
49099W        W15882  30.267   8.735   2.845
49100W        W15883   5.711  29.628  12.437
49101W        W15884  31.159   3.803  12.940
49102W        W15885  42.014  38.677   3.535
49103W        W15886  20.211  34.555  11.652
49104W        W15887  37.506   6.350  14.897
49105W        W15888  10.366  22.738   1.685
49106W        W15889  23.786  22.735   1.705
49107W        W15890  20.050  10.555   0.446
49108W        W15891  30.057  43.433  10.736
49109W        W15892  29.980   8.619  14.745
49110W        W15893  34.288   3.970  13.526
49111W        W15894  28.052  15.884   4.451
49112W        W15895   0.335  17.099  13.811
49113W        W15896   2.984  44.807  14.897
49114W        W15897  13.745  24.116   0.437
49115W        W15898   6.270  20.052  12.629
49116W        W15899  15.619   7.322  13.783
49117W        W15900  29.472   0.336  13.360
49118W        W15901  42.944  20.029  13.792
49119W        W15902  36.822  44.825   2.228
49120W        W15903  13.544  43.400  14.396
49121W        W15904  22.426  18.300  11.168
49122W        W15905  38.070   9.731   0.857
49123W        W15906   3.969  12.906  12.079
49124W        W15907  41.470  30.994   3.373
49125W        W15908  12.931  42.754  10.824
49126W        W15909   6.717   6.363   4.343
49127W        W15910  38.516  39.749  10.787
49128W        W15911   1.017   0.915  11.602
49129W        W15912   0.346  19.491   2.348
49130W        W15913  38.383  38.480  10.189
49131W        W15914  31.253  10.076   2.269
49132W        W15915  37.635  35.450   0.175
49133W        W15916   4.234   4.260   2.440
49134W        W15917  21.719  11.665   1.011
49135W        W15918   1.518   9.283  14.080
49136W        W15919   2.716   4.675  13.538
49137W        W15920  40.293   7.408  11.416
49138W        W15921  14.027   6.678   2.381
49139W        W15922  32.107  35.674  14.963
49140W        W15923  37.248  29.995  11.569
49141W        W15924  43.608  18.615   4.530
49142W        W15925  43.789  24.714  14.419
49143W        W15926  13.633  28.712   4.857
49144W        W15927  44.323  29.225   4.292
49145W        W15928  17.692   1.384   2.085
49146W        W15929   6.664   9.398  14.032
49147W        W15930  33.498  38.528   4.311
49148W        W15931  41.003  26.871   1.408
49149W        W15932  35.976  33.546   0.696
49150W        W15933   2.385   0.030   0.744
49151W        W15934  38.246  22.798  14.347
49152W        W15935   6.307  17.801   3.925
49153W        W15936  31.462  21.316   0.682
49154W        W15937  21.209  44.317  13.830
49155W        W15938  44.353  21.044   2.204
49156W        W15939  20.518  38.441  11.890
49157W        W15940  34.537  40.890  12.374
49158W        W15941  41.118  32.041  13.499
49159W        W15942  34.439  41.564   4.881
49160W        W15943  37.028  43.017  13.373
49161W        W15944  12.811   1.248  11.615
49162W        W15945  28.663  31.090   1.701
49163W        W15946  25.018  17.076   4.356
49164W        W15947  29.707  15.017  11.950
49165W        W15948  28.128  11.599  12.892
49166W        W15949  21.947  35.431   1.717
49167W        W15950  10.627  31.501   2.713
49168W        W15951  29.110  36.759  12.764
49169W        W15952  40.881  18.752  14.670
49170W        W15953   4.932  15.515  12.192
49171W        W15954   8.195  14.505   4.239
49172W        W15955   9.766  44.361  11.871
49173W        W15956   2.339  20.914   4.169
49174W        W15957  42.426  23.582   4.676
49175W        W15958  11.190  26.108   3.784
49176W        W15959  39.862  43.843   2.557
49177W        W15960  15.534  27.428  13.606
49178W        W15961   9.903  21.637  11.584
49179W        W15962  10.156  22.857  13.352
49180W        W15963  22.968  39.905  11.176
49181W        W15964  44.696   5.484   3.723
49182W        W15965  38.023  38.403   4.855
49183W        W15966  11.905  12.246  13.998
49184W        W15967  34.885  30.977  10.691
49185W        W15968  28.646  27.025  14.940
49186W        W15969  13.796  16.793   1.783
49187W        W15970  42.274   9.686   4.282
49188W        W15971  14.766   8.160  12.322
49189W        W15972   4.198  35.392   4.668
49190W        W15973   9.662  41.453   2.952
49191W        W15974   9.309   2.269  14.225
49192W        W15975  10.562  36.806  12.582
49193W        W15976   4.815   5.194   2.569
49194W        W15977  35.584  26.491  11.997
49195W        W15978  26.295  41.237   5.004
49196W        W15979  26.912  25.093   1.650
49197W        W15980  10.119  20.662  10.492
49198W        W15981  17.110  23.659  13.617
49199W        W15982  35.839  14.298  14.057
49200W        W15983   9.880  29.531   2.229
49201W        W15984   6.395  43.559  10.621
49202W        W15985  42.999   7.889   2.799
49203W        W15986  34.161  40.677   1.017
49204W        W15987   1.731  42.041   0.463
49205W        W15988   6.826  12.901   4.604
49206W        W15989  35.537  18.503  11.393
49207W        W15990  37.193   6.344  11.653
49208W        W15991  15.101  40.820   1.363
49209W        W15992  27.709  11.294  10.244
49210W        W15993  16.032  23.436  11.648
49211W        W15994  41.808  13.256   0.369
49212W        W15995  12.217  40.047   4.857
49213W        W15996   2.674  27.270  11.851
49214W        W15997  20.849  43.777   1.862
49215W        W15998  22.120  35.706   1.322
49216W        W15999  38.939  16.729   4.188
49217W        W16000  34.873  44.933   2.788
49218W        W16001   6.554  26.719   1.132
49219W        W16002  39.467  37.289   1.649
49220W        W16003   9.152  27.120  11.530
49221W        W16004  44.520  23.987  14.324
49222W        W16005   7.901  20.040   0.697
49223W        W16006  42.121  14.615   1.358
49224W        W16007  32.116  15.031   3.602
49225W        W16008  26.033  32.085  12.633
49226W        W16009  15.566  41.069   1.399
49227W        W16010  19.683  33.662  12.379
49228W        W16011  26.258  26.235  12.430
49229W        W16012  38.959  36.781  14.452
49230W        W16013   1.987  41.020  11.563
49231W        W16014  31.012  37.825  13.643
49232W        W16015  29.083  27.511   3.040
49233W        W16016  15.546  30.624  13.411
49234W        W16017  34.593  20.019  14.901
49235W        W16018   2.422   2.862   1.751
49236W        W16019  35.941  12.989   2.188
49237W        W16020  27.099  31.940  10.563
49238W        W16021  14.077  35.010   3.072
49239W        W16022   9.646  14.400   0.280
49240W        W16023  10.354  22.585  13.901
49241W        W16024  18.734  36.041  12.995
49242W        W16025  15.134  30.717  10.727
49243W        W16026  28.772  40.367  13.509
49244W        W16027  26.148  35.374  12.420
49245W        W16028   3.521  39.881   2.023
49246W        W16029  20.607  12.104   3.705
49247W        W16030  44.358  43.580   3.666
49248W        W16031  21.125  34.510   1.870
49249W        W16032  38.004   7.045   1.603
49250W        W16033   0.673  14.846  13.686
49251W        W16034  33.012   2.961   2.440
49252W        W16035  27.154  41.962   4.710
49253W        W16036  28.224  17.669   2.459
49254W        W16037  15.629  26.225   1.300
49255W        W16038   5.902  38.466   1.169
49256W        W16039  14.083  13.878   1.292
49257W        W16040  24.031   2.346  13.958
49258W        W16041  39.496  32.797   2.331
49259W        W16042  44.148  27.703   3.309
49260W        W16043  16.084  32.448  13.946
49261W        W16044  10.233  36.908   0.358
49262W        W16045  22.555  11.830   3.590
49263W        W16046  39.816  22.052   1.762
49264W        W16047  43.331   5.887  10.562
49265W        W16048  38.955   7.119   3.333
49266W        W16049  10.931  44.045  14.388
49267W        W16050  37.827   6.921  11.104
49268W        W16051  36.084  13.221   2.616
49269W        W16052  25.021  18.521   3.731
49270W        W16053  25.221  36.971  10.655
49271W        W16054  32.173  37.858  12.955
49272W        W16055  31.842   8.487   3.551
49273W        W16056  12.762  16.649  12.968
49274W        W16057  14.525  15.812  11.118
49275W        W16058   0.863  20.594   4.135
49276W        W16059  19.462  22.666  13.353
49277W        W16060  42.616  11.645  10.263
49278W        W16061  35.901  12.983  11.050
49279W        W16062  29.659  31.445  14.345
49280W        W16063  29.019  12.578   3.682
49281W        W16064  16.812   1.319   4.472
49282W        W16065   1.290  15.297  10.501
49283W        W16066  23.927  41.989   0.405
49284W        W16067  33.386   1.463  12.918
49285W        W16068  35.958  39.664   3.266
49286W        W16069  35.814  19.266   3.661
49287W        W16070  36.123  18.901   3.458
49288W        W16071  11.235  35.570   9.764
49289W        W16072  39.653  16.537   2.861
49290W        W16073  24.253  30.071   1.420
49291W        W16074  30.077  25.608  10.751
49292W        W16075   7.562   2.360  13.144
49293W        W16076   3.262   5.871  12.446
49294W        W16077  14.816  25.298  12.002
49295W        W16078  34.709  32.139   4.059
49296W        W16079  43.330  33.468   2.919
49297W        W16080  30.613  35.559  13.038
49298W        W16081   3.307  38.336   3.735
49299W        W16082   7.717  26.497   3.386
49300W        W16083  11.356  18.439   2.387
49301W        W16084   6.896  38.911  10.402
49302W        W16085   0.899  34.532   0.954
49303W        W16086  43.668  42.311   0.295
49304W        W16087   9.882  28.137   3.110
49305W        W16088  23.224  14.324  11.613
49306W        W16089  36.397  26.744  12.537
49307W        W16090  39.106   7.194  13.097
49308W        W16091  11.429  43.809   1.844
49309W        W16092  28.909  12.603   4.520
49310W        W16093  29.552  24.719  13.870
49311W        W16094  41.888   5.643  13.474
49312W        W16095  30.449  16.707   4.631
49313W        W16096  21.369  27.017   5.138
49314W        W16097   3.272  29.049  13.868
49315W        W16098  19.513  40.951   3.622
49316W        W16099   8.342  11.799   3.017
49317W        W16100   9.090   5.730   3.602
49318W        W16101  10.728  13.452   0.460
49319W        W16102  25.294   0.685   3.680
49320W        W16103  41.407   0.852  13.931
49321W        W16104  14.271  30.368  12.481
49322W        W16105  16.071  14.024  11.530
49323W        W16106  32.644  42.325   1.715
49324W        W16107  25.692   3.268  14.649
49325W        W16108   4.214  19.238  14.764
49326W        W16109  43.481   1.674   0.526
49327W        W16110  36.789  24.768   3.664
49328W        W16111  14.273  38.423  11.493
49329W        W16112  13.993  34.649  12.430
49330W        W16113  36.615  29.430   4.134
49331W        W16114   6.926  35.090   3.367
49332W        W16115  25.801  21.320   3.660
49333W        W16116  10.090  13.137   3.667
49334W        W16117  13.022   8.606   4.636
49335W        W16118   9.062   0.301   0.325
49336W        W16119  41.518   8.895  12.146
49337W        W16120  33.317  39.248  14.785
49338W        W16121  27.551  35.657  12.090
49339W        W16122  14.282  30.947   5.241
49340W        W16123   8.418  10.733   4.151
49341W        W16124   5.756  35.078   0.887
49342W        W16125   6.730  29.651  11.053
49343W        W16126   3.990  31.016  14.024
49344W        W16127   7.724   6.969  11.662
49345W        W16128  44.797  16.722   1.563
49346W        W16129  21.819  37.792  11.095
49347W        W16130  17.454  35.048   1.705
49348W        W16131  25.060  41.918   3.623
49349W        W16132  33.629  23.532   2.731
49350W        W16133   2.205  21.727  11.551
49351W        W16134  11.076   5.823  10.673
49352W        W16135  40.565  29.607   3.248
49353W        W16136  30.455  40.370   0.344
49354W        W16137   2.278  25.090  10.712
49355W        W16138  22.710  40.685  12.272
49356W        W16139  36.648  36.634   3.420
49357W        W16140  41.569  29.644  14.936
49358W        W16141  25.014  22.419  13.457
49359W        W16142  41.454   5.294  11.656
49360W        W16143   7.680  26.059   2.586
49361W        W16144   1.043  21.941   3.764
49362W        W16145  44.309  42.907   1.922
49363W        W16146  17.178   0.945   0.329
49364W        W16147   2.939   5.918   2.440
49365W        W16148   5.929   0.804  13.335
49366W        W16149  38.994  32.222   1.617
49367W        W16150  44.736  28.672   2.687
49368W        W16151   3.202  39.528   0.284
49369W        W16152  24.881  33.877   0.736
49370W        W16153  35.437  15.407  12.695
49371W        W16154  26.479   2.739  14.403
49372W        W16155  10.640  13.952   0.399
49373W        W16156  11.277   5.805   5.437
49374W        W16157  34.650   5.013   3.143
49375W        W16158   5.440   4.832  13.543
49376W        W16159   2.288  16.913  12.924
49377W        W16160  35.103  27.085   0.942
49378W        W16161  21.846  21.636   0.152
49379W        W16162   8.206   1.302  13.454
49380W        W16163  30.054   0.300  14.904
49381W        W16164  29.951  43.390  14.407
49382W        W16165   8.194  44.627  14.008
49383W        W16166  37.337  33.556  11.557
49384W        W16167  37.076  42.681  12.851
49385W        W16168  14.625  15.098   2.237
49386W        W16169  17.283  34.499   0.771
49387W        W16170  42.271  34.559  14.288
49388W        W16171  37.004  29.657  12.904
49389W        W16172  19.800  29.837  13.250
49390W        W16173  42.610  41.502  14.779
49391W        W16174  24.547  11.691  10.330
49392W        W16175  32.141   9.157   4.959
49393W        W16176   9.394  39.287  11.180
49394W        W16177  17.771  14.079   1.565
49395W        W16178   5.989  28.590   3.299
49396W        W16179  27.223  39.557   2.894
49397W        W16180  31.387  35.342   0.376
49398W        W16181  26.645  34.874   2.654
49399W        W16182  22.647  10.294  12.913
49400W        W16183   1.021  31.166   2.663
49401W        W16184  16.626  34.523  14.556
49402W        W16185  36.890  26.445   2.869
49403W        W16186  28.385  39.162  10.635
49404W        W16187  18.836  35.482   3.706
49405W        W16188  32.203   4.239  12.660
49406W        W16189  39.857  43.523  12.573
49407W        W16190  39.538  28.214  10.723
49408W        W16191  24.250  17.823   3.205
49409W        W16192  12.253  22.232   4.127
49410W        W16193  17.661  40.411  11.765
49411W        W16194  16.139  24.020  14.394
49412W        W16195   1.023  10.079   0.001
49413W        W16196  12.718  21.517   3.925
49414W        W16197  14.142  37.038  11.979
49415W        W16198  40.838  27.395   1.357
49416W        W16199  17.391  22.939   4.273
49417W        W16200  41.185  28.465   3.620
49418W        W16201  43.548  43.963  14.790
49419W        W16202  37.045   0.169   1.829
49420W        W16203  40.491  23.752  11.561
49421W        W16204   3.779  42.567   3.648
49422W        W16205  35.558  14.199  11.063
49423W        W16206  42.479  12.965  10.758
49424W        W16207  28.045  16.281   3.105
49425W        W16208  41.410  27.166  11.956
49426W        W16209  43.448  10.217  10.664
49427W        W16210  31.976  23.473  11.121
49428W        W16211   5.231  30.505  13.348
49429W        W16212   7.596  29.838  14.351
49430W        W16213   2.008  27.611  11.571
49431W        W16214   6.048  21.212  13.574
49432W        W16215  24.722  39.338  11.071
49433W        W16216  22.549  12.740   3.724
49434W        W16217   2.206   4.995  12.837
49435W        W16218  41.424  27.268  13.091
49436W        W16219  17.209  35.261   3.291
49437W        W16220   3.647  21.409   0.453
49438W        W16221  37.971  26.948   1.249
49439W        W16222  24.216  24.164  12.151
49440W        W16223  21.094  37.331   3.730
49441W        W16224  19.940  18.539  10.814
49442W        W16225   7.900  20.514   0.919
49443W        W16226  13.993  39.274   5.252
49444W        W16227  39.376  15.601   1.819
49445W        W16228  41.913  19.025   3.188
49446W        W16229  38.455   3.766   1.161
49447W        W16230  37.036  22.804  14.967
49448W        W16231  11.829  18.820   3.133
49449W        W16232  28.628   2.370   3.216
49450W        W16233  41.352  32.265   3.683
49451W        W16234  19.786  10.535  12.881
49452W        W16235  12.896   3.938   4.525
49453W        W16236   3.963  19.788   4.644
49454W        W16237   3.518  35.362  12.977
49455W        W16238  32.554  31.008   4.702
49456W        W16239   0.819   0.356  14.682
49457W        W16240  41.345  44.061  14.721
49458W        W16241   0.577  43.235   2.077
49459W        W16242  23.463  35.934   2.623
49460W        W16243  17.526  39.511  13.057
49461W        W16244  14.761  10.856   4.217
49462W        W16245   6.172  40.501   2.739
49463W        W16246  39.547  21.680  10.643
49464W        W16247  20.721   0.227   4.168
49465W        W16248  34.377   2.962   0.286
49466W        W16249  15.852  34.886  12.516
49467W        W16250  37.336   9.283  13.382
49468W        W16251  22.915   1.231  14.958
49469W        W16252  19.590   8.849  10.487
49470W        W16253  14.344  16.192   1.014
49471W        W16254  32.574  23.530   3.536
49472W        W16255   3.261  20.074   0.443
49473W        W16256   2.521  40.564   2.299
49474W        W16257  34.918  34.924  12.548
49475W        W16258  42.830   7.837  11.632
49476W        W16259  37.892  21.019   0.907
49477W        W16260  37.568  15.314  13.810
49478W        W16261  41.216  40.951  12.807
49479W        W16262  20.045  10.028   3.396
49480W        W16263   0.257   3.618  13.636
49481W        W16264  19.335  40.312   0.294
49482W        W16265   8.427  44.300  13.636
49483W        W16266  44.310  21.315   3.722
49484W        W16267  19.996  44.558  11.904
49485W        W16268  24.470  16.414  11.939
49486W        W16269   9.890  32.119  11.594
49487W        W16270  32.087  28.717   3.657
49488W        W16271  30.055  29.312  14.033
49489W        W16272  41.707  21.533  11.947
49490W        W16273  31.156  14.168  13.164
49491W        W16274   3.979   9.898   0.971
49492W        W16275  21.746  41.222   2.265
49493W        W16276  33.064  12.581  11.086
49494W        W16277  21.973   9.396   3.157
49495W        W16278  28.178   2.431  10.857
49496W        W16279   3.789  43.399   3.257
49497W        W16280   9.241  39.212   0.038
49498W        W16281  12.818   3.547   4.896
49499W        W16282   1.774   8.436  12.562
49500W        W16283  22.249  34.137   1.654
49501W        W16284   3.771  16.020   4.396
49502W        W16285  16.190  33.888  13.900
49503W        W16286  18.634  34.603  11.122
49504W        W16287  24.640  18.647  11.277
49505W        W16288  37.466  32.466   2.668
49506W        W16289  30.145  44.821  10.785
49507W        W16290  34.959  28.378  10.613
49508W        W16291  18.077  36.537   2.297
49509W        W16292  15.083  17.431   2.752
49510W        W16293  32.328  25.455   3.204
49511W        W16294   3.371  34.126   0.246
49512W        W16295  40.904  19.174   4.053
49513W        W16296   0.445   9.575  14.446
49514W        W16297   0.130   9.829  12.006
49515W        W16298  30.670  26.039   0.385
49516W        W16299  20.761   2.216   0.347
49517W        W16300  17.789  36.983   4.297
49518W        W16301   9.214   3.392   4.683
49519W        W16302  10.925  26.231   1.902
49520W        W16303  34.521  19.083   4.523
49521W        W16304  41.825  40.408  11.282
49522W        W16305  20.627  44.053   2.281
49523W        W16306  13.163  16.996  11.822
49524W        W16307  28.935   3.143   4.134
49525W        W16308   0.892  37.023   4.608
49526W        W16309  24.584  28.273  10.187
49527W        W16310  41.446  28.689  11.188
49528W        W16311  27.926  12.937   0.841
49529W        W16312  42.866  13.209   0.449
49530W        W16313  27.779   9.048  13.352
49531W        W16314   8.953   0.315   3.781
49532W        W16315  13.093  16.784   4.600
49533W        W16316  23.563   3.336  12.023
49534W        W16317   4.279  26.852  13.913
49535W        W16318  41.424  19.656  11.872
49536W        W16319   6.868   6.215  14.932
49537W        W16320   7.858  36.417   0.490
49538W        W16321  32.266  28.669   4.956
49539W        W16322   4.514  13.114  13.022
49540W        W16323  32.953   8.663   1.632
49541W        W16324  41.941  17.558  10.991
49542W        W16325  20.129  22.567   2.306
49543W        W16326  43.992  21.741  12.345
49544W        W16327  20.353  34.051  11.153
49545W        W16328   6.368  21.277  11.220
49546W        W16329  34.406  37.078  13.329
49547W        W16330  29.760  41.307  10.309
49548W        W16331  33.719  15.770   1.280
49549W        W16332  17.910   7.414  10.637
49550W        W16333  37.280  30.524  11.567
49551W        W16334  28.435  21.788   1.432
49552W        W16335  30.012   7.288  14.785
49553W        W16336  23.115  39.173  14.508
49554W        W16337  25.167  29.381  14.816
49555W        W16338   8.130  40.698   2.626
49556W        W16339  43.785   6.532   0.166
49557W        W16340  31.039  30.436  11.557
49558W        W16341  13.862  18.164   2.781
49559W        W16342   2.847  20.066  14.627
49560W        W16343  40.260  34.726  13.970
49561W        W16344  12.168  16.586   3.957
49562W        W16345   7.169  35.624  13.473
49563W        W16346  32.968  26.098   0.950
49564W        W16347   6.846   9.442   2.293
49565W        W16348  21.354   9.821  13.435
49566W        W16349  18.959  30.732  12.494
49567W        W16350  32.690  18.114   4.555
49568W        W16351  29.105   2.717   0.990
49569W        W16352  25.080  28.855  14.925
49570W        W16353  42.102  20.679  11.440
49571W        W16354   9.098   8.620   0.449
49572W        W16355  41.572   7.803  14.901
49573W        W16356  15.492  40.450   3.489
49574W        W16357  44.237  24.436  14.316
49575W        W16358  30.311  25.239   3.106
49576W        W16359  44.863  30.121   2.960
49577W        W16360  24.572   4.044  11.230
49578W        W16361   1.327  28.959  10.950
49579W        W16362  11.352  15.742   4.712
49580W        W16363  37.108  37.523   2.347
49581W        W16364  31.078  19.718   4.472
49582W        W16365  25.464  37.462  10.732
49583W        W16366  20.198  29.905   1.264
49584W        W16367   0.250  41.518   4.515
49585W        W16368  10.740  36.401   2.361
49586W        W16369   5.639   7.137   1.196
49587W        W16370   2.067  34.374   2.840
49588W        W16371  28.068  33.697  10.067
49589W        W16372  33.848  27.382  14.101
49590W        W16373  32.153  33.129   1.329
49591W        W16374   9.624  43.964   2.285
49592W        W16375  38.511  42.008   2.447
49593W        W16376  29.583  22.604   5.104
49594W        W16377  12.636  33.039  11.537
49595W        W16378  14.177  38.941  14.068
49596W        W16379  15.827  29.262   3.289
49597W        W16380  27.172  13.085  12.514
49598W        W16381  18.202  25.133  12.888
49599W        W16382  27.450  38.661   2.898
49600W        W16383  20.356  14.382   2.152
49601W        W16384  44.814  14.221  13.819
49602W        W16385  14.362  15.622  12.499
49603W        W16386  21.095   5.536   2.410
49604W        W16387  13.184  31.203  13.058
49605W        W16388  40.543  15.338  11.956
49606W        W16389  16.532   9.008  14.275
49607W        W16390  25.622  36.307  11.112
49608W        W16391  30.775  25.963  12.100
49609W        W16392  36.577  17.233   1.307
49610W        W16393  43.802  42.752   1.686
49611W        W16394   8.802   3.352  13.714
49612W        W16395  12.271  33.652   3.256
49613W        W16396  37.859  21.729  14.788
49614W        W16397  26.549   1.822   4.620
49615W        W16398  31.847  33.462   2.241
49616W        W16399  44.335  44.469  14.895
49617W        W16400  36.333  28.457  11.473
49618W        W16401   9.155  19.502   1.165
49619W        W16402  12.738  14.432   3.196
49620W        W16403  29.943  23.225   2.291
49621W        W16404  13.785  34.842   4.113
49622W        W16405  21.057  39.860  10.561
49623W        W16406   2.913  28.227  11.987
49624W        W16407  34.689   4.155   4.353
49625W        W16408  42.012  39.837   1.721
49626W        W16409   5.669  15.791   0.886
49627W        W16410  20.280  23.227  10.766
49628W        W16411   1.002  37.596   3.188
49629W        W16412  22.536  35.040  10.696
49630W        W16413  21.656  22.804  12.879
49631W        W16414  42.279  17.095   4.825
49632W        W16415   5.436  28.682  13.821
49633W        W16416  31.028   0.027  12.436
49634W        W16417   8.046  23.537   3.315
49635W        W16418  37.877   2.345   3.155
49636W        W16419   2.935   3.891  11.520
49637W        W16420  35.799  43.591  11.082
49638W        W16421  22.362  32.066   2.323
49639W        W16422  14.980   6.271  12.767
49640W        W16423  30.627  20.066   1.352
49641W        W16424   6.276  14.730   4.844
49642W        W16425   9.908  17.234   4.558
49643W        W16426  29.979  34.155  12.493
49644W        W16427  34.484  10.269   4.899
49645W        W16428  19.835   8.483  12.010
49646W        W16429  16.400   0.535   4.079
49647W        W16430   7.667   3.285  13.398
49648W        W16431  44.552  44.755  11.457
49649W        W16432  44.333   2.369   4.757
49650W        W16433  34.322  39.921   1.641
49651W        W16434  34.861  22.547  12.044
49652W        W16435  10.726  10.747  10.442
49653W        W16436  37.488  38.158   3.562
49654W        W16437  19.740  41.387   2.241
49655W        W16438   2.929  14.203  11.562
49656W        W16439   2.935   3.468   4.173
49657W        W16440  16.117  38.127  11.573
49658W        W16441  22.028   8.279   0.198
49659W        W16442  40.581  20.551  11.953
49660W        W16443  39.350  12.741   4.158
49661W        W16444  23.227   4.743  14.372
49662W        W16445   7.396  30.198  12.556
49663W        W16446   7.462   0.784  13.804
49664W        W16447   8.452  14.692  13.999
49665W        W16448  18.254   6.720  14.548
49666W        W16449  30.860  37.883  14.960
49667W        W16450  38.841  24.584   1.050
49668W        W16451  37.457   6.196  12.090
49669W        W16452  36.962  30.963  11.039
49670W        W16453  39.965   7.960   3.747
49671W        W16454   9.681  13.075   3.306
49672W        W16455  16.632  30.907  14.541
49673W        W16456   9.636   6.051   1.024
49674W        W16457   1.824  38.990   3.660
49675W        W16458  30.309  26.440  10.641
49676W        W16459  11.360  39.551   4.233
49677W        W16460  16.376   4.319   1.339
49678W        W16461  16.701  31.540  11.131
49679W        W16462  23.040  20.462  13.818
49680W        W16463  12.155  39.370   0.018
49681W        W16464  10.393  34.169  14.746
49682W        W16465  40.732   5.114   2.772
49683W        W16466  21.134  21.752   4.543
49684W        W16467  26.006  39.276   1.779
49685W        W16468  20.911  15.238   5.016
49686W        W16469  20.841  17.732   3.281
49687W        W16470   2.918  35.653  11.705
49688W        W16471   4.410   4.208  12.936
49689W        W16472   6.785  44.766  13.523
49690W        W16473   4.313   3.472   0.129
49691W        W16474  38.056  16.998   1.461
49692W        W16475  23.217  35.404  10.671
49693W        W16476  20.311  17.793  11.104
49694W        W16477  32.517  16.575  13.996
49695W        W16478  26.016  33.317   3.271
49696W        W16479  36.778  26.618   0.947
49697W        W16480   0.034  34.595   1.945
49698W        W16481   1.523  20.027   1.653
49699W        W16482   3.855  18.149   0.435
49700W        W16483   3.418   9.084  14.443
49701W        W16484  27.885  35.462  11.210
49702W        W16485  43.609   9.375  11.700
49703W        W16486  17.721  17.171  11.378
49704W        W16487  27.173  24.159   1.958
49705W        W16488  10.462  17.074  14.548
49706W        W16489   0.506   2.729  14.961
49707W        W16490  11.139  29.116  12.518
49708W        W16491  21.527  30.758   0.018
49709W        W16492  18.144  40.525   3.686
49710W        W16493   4.945  22.153  11.481
49711W        W16494   0.395  16.200  10.253
49712W        W16495   9.983   2.024  11.113
49713W        W16496  39.519  34.418  14.499
49714W        W16497  25.021  16.332   3.266
49715W        W16498  39.975  22.540   2.135
49716W        W16499  25.105   8.293  11.183
49717W        W16500   6.234  25.020   4.621
49718W        W16501  24.588  24.481   1.676
49719W        W16502  11.079  21.013  10.469
49720W        W16503  24.719  27.756   3.743
49721W        W16504  11.215  39.011  10.302
49722W        W16505  29.904  20.518  12.258
49723W        W16506   1.874  40.056  12.283
49724W        W16507  36.148  20.463   3.889
49725W        W16508  43.518   6.976  10.702
49726W        W16509  26.686   3.851   3.650
49727W        W16510  16.645   1.042   1.190
49728W        W16511   9.741   7.423   2.084
49729W        W16512  36.728   0.821  14.270
49730W        W16513  42.960  28.581   4.371
49731W        W16514  16.523  34.589   3.663
49732W        W16515  37.898  22.290  13.765
49733W        W16516  28.928  11.635   2.754
49734W        W16517  38.388  23.049  12.569
49735W        W16518  35.925  18.677   2.195
49736W        W16519  22.467  10.270   1.559
49737W        W16520   4.611  18.695   2.905
49738W        W16521  42.110  13.687   0.269
49739W        W16522  44.621   4.779  11.960
49740W        W16523  14.563   2.475  13.897
49741W        W16524  35.987  30.599   0.748
49742W        W16525   3.366   3.560  13.644
49743W        W16526  15.083  33.215  12.618
49744W        W16527  35.932  31.850   0.258
49745W        W16528  26.004  16.521  13.913
49746W        W16529  32.876   3.512   1.525
49747W        W16530   8.382  30.662  12.816
49748W        W16531   5.302  21.367  14.741
49749W        W16532  38.283  14.514  12.885
49750W        W16533  19.736  14.539   0.646
49751W        W16534  16.568  34.611   2.281
49752W        W16535   4.071  16.571  11.694
49753W        W16536  42.481  43.760   0.321
49754W        W16537  24.762  26.699   3.709
49755W        W16538  14.190  36.046   0.737
49756W        W16539  38.935   1.908   1.415
49757W        W16540  43.336  13.609  12.331
49758W        W16541  39.138  29.670  13.889
49759W        W16542  16.415  19.505   3.899
49760W        W16543  44.582   7.726   2.696
49761W        W16544   0.427  16.784   5.018
49762W        W16545  38.233  21.043  14.810
49763W        W16546   6.716  20.958  13.027
49764W        W16547  41.324   1.555   2.965
49765W        W16548   0.102  22.033  10.589
49766W        W16549   0.898  26.204   1.372
49767W        W16550  20.321  13.046  12.032
49768W        W16551   7.535  34.137   0.304
49769W        W16552  29.021  28.492   4.361
49770W        W16553  37.461  15.787   0.432
49771W        W16554  35.093  29.508  13.768
49772W        W16555  10.599  10.651  12.046
49773W        W16556  14.755  22.127  14.931
49774W        W16557  42.007   8.561   1.358
49775W        W16558  11.768   1.668  11.262
49776W        W16559  24.658  21.388  14.450
49777W        W16560   8.535   0.816  10.780
49778W        W16561  29.678  17.589   4.134
49779W        W16562  17.182  44.321  14.744
49780W        W16563  39.934   4.516   0.289
49781W        W16564   0.474  17.328  10.074
49782W        W16565   9.273  23.458   0.349
49783W        W16566  29.402  41.494  14.229
49784W        W16567   1.771  27.931  12.980
49785W        W16568  10.570  25.216   3.068
49786W        W16569   0.977  37.056  14.012
49787W        W16570   6.253  39.617  14.322
49788W        W16571  21.200  25.660   1.071
49789W        W16572  44.274  35.627  14.310
49790W        W16573  30.178  31.430   3.219
49791W        W16574   5.801  30.407   3.786
49792W        W16575  10.714  41.747  14.729
49793W        W16576  44.199  30.628   0.887
49794W        W16577   3.900   6.216  10.645
49795W        W16578  36.496  17.799  11.567
49796W        W16579   7.385  18.704  11.776
49797W        W16580   0.030  15.249  14.872
49798W        W16581  31.606  30.248   1.811
49799W        W16582  30.049  39.579  10.894
49800W        W16583  25.461  28.573   3.127
49801W        W16584   6.708  23.221   1.212
49802W        W16585  31.193  29.140   3.634
49803W        W16586  18.437  43.349   0.853
49804W        W16587  13.888   7.181   2.378
49805W        W16588  28.538  18.194   0.032
49806W        W16589  44.569   6.606   2.211
49807W        W16590   9.377   9.284  11.721
49808W        W16591  26.455   6.638   2.745
49809W        W16592  27.144  29.031   1.270
49810W        W16593  22.479  24.255  13.430
49811W        W16594  26.692  30.659   4.598
49812W        W16595  31.631  13.173  12.492
49813W        W16596  31.557  34.496   4.024
49814W        W16597   3.818   5.838   3.431
49815W        W16598  32.221  29.673   3.056
49816W        W16599   4.668  44.017   1.800
49817W        W16600  14.755  32.445  14.811
49818W        W16601  40.177   6.847   1.686
49819W        W16602  11.277  25.274   1.650
49820W        W16603  27.501   0.313   3.253
49821W        W16604  37.138  20.482   0.767
49822W        W16605  22.673  26.074  11.073
49823W        W16606  14.714   9.057  11.138
49824W        W16607  39.067  31.682   1.650
49825W        W16608  15.223   0.692  12.990
49826W        W16609  32.542  20.545   1.393
49827W        W16610  17.663  16.822  13.567
49828W        W16611  42.361   3.258   0.024
49829W        W16612   5.310  29.168   4.115
49830W        W16613  34.961  30.606   3.161
49831W        W16614  21.280   9.360   0.257
49832W        W16615  29.509   3.777   4.826
49833W        W16616   0.552  16.152   1.369
49834W        W16617   7.797  42.278  14.402
49835W        W16618  14.576  23.648   0.826
49836W        W16619  19.960  14.127  14.357
49837W        W16620  41.426  39.377   4.535
49838W        W16621   6.430  33.317   3.312
49839W        W16622  41.062  16.684   3.220
49840W        W16623   4.050  37.907   3.389
49841W        W16624  34.929  37.246   2.816
49842W        W16625  40.086  31.967  13.585
49843W        W16626  31.774  21.600  12.950
49844W        W16627  43.544   0.855  10.723
49845W        W16628   6.791  25.576   4.125
49846W        W16629   0.738   7.247  13.482
49847W        W16630  26.101  32.124   0.901
49848W        W16631  27.488  42.340   4.606
49849W        W16632  41.331   3.110   2.712
49850W        W16633  40.871   9.900   2.185
49851W        W16634  19.270  39.736  12.812
49852W        W16635  22.060  25.487   4.168
49853W        W16636  14.160  27.185   4.194
49854W        W16637  29.355  25.065  14.248
49855W        W16638  29.867   0.275  10.607
49856W        W16639  23.118  36.776   3.609
49857W        W16640   5.384  40.385   0.941
49858W        W16641  32.096  27.992   5.181
49859W        W16642  17.042  44.957   3.324
49860W        W16643  30.228  19.433  11.825
49861W        W16644  25.045   3.326   0.282
49862W        W16645  21.830  37.557   2.178
49863W        W16646  12.799   6.611   3.093
49864W        W16647  39.287  33.162  12.005
49865W        W16648  24.884  29.923   2.236
49866W        W16649  26.004  25.119  14.175
49867W        W16650  17.540  28.421   1.736
49868W        W16651  18.012  29.575   3.356
49869W        W16652  25.534  22.089  11.271
49870W        W16653  19.544  35.041   1.727
49871W        W16654  42.115   1.762  13.479
49872W        W16655  12.102  32.066   1.667
49873W        W16656  12.373  17.592   2.414
49874W        W16657  20.803  14.251   2.420
49875W        W16658  34.461   7.047   3.192
49876W        W16659  36.075   4.238  11.799
49877W        W16660   1.643  34.840   4.610
49878W        W16661  26.092  22.943  11.848
49879W        W16662  23.281  33.469  13.517
49880W        W16663  22.331  19.901  14.392
49881W        W16664   9.573  11.866  14.065
49882W        W16665   6.119  24.624   4.319
49883W        W16666  39.050  28.043  13.350
49884W        W16667  27.593  44.097  13.719
49885W        W16668  44.686  44.906  12.869
49886W        W16669  16.614  30.408  14.403
49887W        W16670  23.538   9.730  14.732
49888W        W16671  28.505  26.025  14.636
49889W        W16672  41.129  33.492   3.457
49890W        W16673   1.473  15.338  12.330
49891W        W16674  15.307  38.224  12.470
49892W        W16675   9.868   3.284  13.403
49893W        W16676  39.488  20.078   3.157
49894W        W16677  35.569   3.674   2.699
49895W        W16678  11.847  37.287   4.979
49896W        W16679   2.347  17.991  14.829
49897W        W16680  34.089  12.571   0.374
49898W        W16681  14.320  40.366  10.496
49899W        W16682   8.853   2.319   5.078
49900W        W16683  39.439   2.224   4.643
49901W        W16684   9.391  12.910   0.826
49902W        W16685  40.353  38.784   1.815
49903W        W16686  33.547  20.627   0.351
49904W        W16687   7.209  28.628   0.933
49905W        W16688  40.145   8.736  10.896
49906W        W16689  16.158  21.060   1.230
49907W        W16690  31.644  37.820  10.660
49908W        W16691  21.993  10.966  12.369
49909W        W16692  37.782   4.801  12.610
49910W        W16693   3.220  20.713   3.688
49911W        W16694   6.198  27.941  13.430
49912W        W16695  16.406   1.412   2.851
49913W        W16696  32.742  12.794   3.272
49914W        W16697   2.039  33.864   1.349
49915W        W16698  32.569  41.487   0.177
49916W        W16699  10.135   1.535   1.003
49917W        W16700  18.825   4.938  11.737
49918W        W16701   0.736   6.195  12.091
49919W        W16702   7.819   2.933  12.470
49920W        W16703  27.007  33.897  14.440
49921W        W16704   3.314  32.903   4.167
49922W        W16705   7.636  18.695   3.292
49923W        W16706  14.869  35.836   5.490
49924W        W16707   0.370  38.894   4.524
49925W        W16708  12.114   3.782  14.325
49926W        W16709  32.193  26.500  12.902
49927W        W16710  27.948  29.114  11.512
49928W        W16711  33.588  26.179   3.428
49929W        W16712  34.368  26.011   0.850
49930W        W16713   0.663  36.776   2.922
49931W        W16714  12.069  27.452   4.730
49932W        W16715  16.749  20.790  12.838
49933W        W16716  24.643  44.876   0.850
49934W        W16717   3.404  17.048   5.057
49935W        W16718  30.150  44.732  13.878
49936W        W16719  38.638  26.506  14.844
49937W        W16720  20.758  15.362  14.472
49938W        W16721  32.535  41.767   3.093
49939W        W16722   6.282   2.560   0.377
49940W        W16723  42.261  30.007   1.633
49941W        W16724  43.119  17.268   1.628
49942W        W16725  28.694  35.900  12.128
49943W        W16726  38.120  41.388  11.714
49944W        W16727   3.895   6.678  11.436
49945W        W16728  26.229  29.775  14.326
49946W        W16729  26.418  19.709   4.727
49947W        W16730  39.983   1.821   0.668
49948W        W16731   6.207  18.067   4.371
49949W        W16732  20.196  19.517   3.121
49950W        W16733  29.416  35.587  11.032
49951W        W16734  41.348  30.108   0.862
49952W        W16735  19.316  30.940   0.953
49953W        W16736  36.596  11.369   0.630
49954W        W16737  32.467  26.659   0.411
49955W        W16738   3.571  25.760  11.328
49956W        W16739  34.854  41.674   3.983
49957W        W16740  15.063  37.532   2.055
49958W        W16741  26.568  13.663  14.933
49959W        W16742  41.257   9.213  10.210
49960W        W16743  24.068  32.367   3.396
49961W        W16744  41.747  43.822   4.500
49962W        W16745  43.351  40.088  13.095
49963W        W16746   7.005  28.446  14.375
49964W        W16747  44.150  22.173  13.710
49965W        W16748   6.813  21.751   1.374
49966W        W16749  44.974   8.857  13.440
49967W        W16750  38.741  38.473  11.656
49968W        W16751  38.326  31.475   0.492
49969W        W16752  22.293  23.193   3.178
49970W        W16753  11.907   8.057  12.581
49971W        W16754  17.086  13.403  13.389
49972W        W16755  19.748  14.809  12.395
49973W        W16756  43.046   0.243  11.455
49974W        W16757  25.935  12.894  12.895
49975W        W16758   6.941  13.674   3.131
49976W        W16759  41.840  27.074   4.374
49977W        W16760  22.404  34.979   3.226
49978W        W16761   1.672  35.411   2.176
49979W        W16762  25.752   6.700   1.457
49980W        W16763  12.321  21.193  12.669
49981W        W16764  26.076  16.742   3.593
49982W        W16765  27.502   9.681   4.279
49983W        W16766  15.625   0.690  13.447
49984W        W16767   1.971   2.773   2.680
49985W        W16768   3.563  23.861   2.329
49986W        W16769  30.591  37.617  13.466
49987W        W16770  35.367  11.336   0.384
49988W        W16771   6.705  16.365  13.056
49989W        W16772   9.833  38.618  10.494
49990W        W16773  37.516   9.457   4.097
49991W        W16774   4.409  26.983   2.753
49992W        W16775  16.707  43.416  14.427
49993W        W16776  44.479  23.473   1.745
49994W        W16777   1.410  40.948   4.078
49995W        W16778  14.156  35.485   2.379
49996W        W16779   6.587   3.783   0.957
49997W        W16780   1.366  15.195  11.386
49998W        W16781  13.799  10.194  10.922
49999W        W16782  26.182   1.951  13.572
50000W        W16783  19.478  14.111   0.767
50001W        W16784   4.743   3.938   3.079
50002W        W16785  22.641   4.770   3.931
50003W        W16786   0.717  29.991   1.275
50004W        W16787   6.872   9.695  13.528
50005W        W16788  18.696  23.557  14.940
50006W        W16789  31.155  18.227   4.092
50007W        W16790  38.544  27.568  13.021
50008W        W16791  21.162  36.575   0.800
50009W        W16792   3.234  13.196   2.636
50010W        W16793  36.370  10.785  11.734
50011W        W16794  24.352  14.800   1.446
50012W        W16795   4.105  25.951   0.388
50013W        W16796  41.539  17.324   0.473
50014W        W16797  17.825  43.459   4.912
50015W        W16798  33.868  41.172  10.271
50016W        W16799  42.440  28.565  13.570
50017W        W16800  41.418  36.799  14.054
50018W        W16801  23.091   6.812  11.826
50019W        W16802  40.331   2.376  11.142
50020W        W16803   1.581  34.945  13.214
50021W        W16804   2.196  36.782   3.703
50022W        W16805  16.139  17.592  13.615
50023W        W16806  35.184   0.186   0.730
50024W        W16807  10.742   7.224  14.924
50025W        W16808  29.675   2.950  13.391
50026W        W16809  23.325  31.068   2.301
50027W        W16810  32.856  12.828  12.365
50028W        W16811  36.889  24.963   0.511
50029W        W16812   5.586  26.043  11.252
50030W        W16813  12.076  23.506  13.855
50031W        W16814  42.696  10.276   4.503
50032W        W16815   6.363  33.441  10.964
50033W        W16816  29.069  24.547  13.978
50034W        W16817   9.902  19.022   4.218
50035W        W16818  15.291   9.441   1.303
50036W        W16819  35.714  26.960   3.257
50037W        W16820  23.768   5.912  10.048
50038W        W16821  23.320  44.934   2.730
50039W        W16822  15.572   9.578  11.205
50040W        W16823  26.401  38.477  11.507
50041W        W16824   9.989  13.874   4.732
50042W        W16825  39.386   8.485   1.212
50043W        W16826  26.418  13.438  14.471
50044W        W16827   8.161  43.508  11.703
50045W        W16828  29.433   5.826   4.581
50046W        W16829  42.349   2.987  14.169
50047W        W16830  23.608  41.821  14.194
50048W        W16831   3.866  14.602  12.370
50049W        W16832   4.771  37.308  12.381
50050W        W16833   0.508  22.971   4.044
50051W        W16834   2.300  43.238   2.666
50052W        W16835  27.682  25.463   0.737
50053W        W16836  43.114  35.942  11.036
50054W        W16837  23.151  44.957   3.238
50055W        W16838  23.242  33.510   2.198
50056W        W16839   9.745  30.658  13.071
50057W        W16840  33.512  33.143   3.179
50058W        W16841  17.738  23.677   4.632
50059W        W16842   4.435  33.648  11.971
50060W        W16843  34.590   8.412  14.625
50061W        W16844   6.988  29.224  11.126
50062W        W16845  20.697  17.552  13.895
50063W        W16846  38.074  12.663   1.837
50064W        W16847  31.362  13.255  11.709
50065W        W16848  14.374  30.473   3.755
50066W        W16849   8.209  39.295  12.401
50067W        W16850  36.170  36.398   3.265
50068W        W16851   4.766  39.992   3.900
50069W        W16852  11.861  43.345  13.897
50070W        W16853  13.275  20.518   0.819
50071W        W16854  36.457   3.702  14.426
50072W        W16855  15.011  15.905   3.780
50073W        W16856   9.236   0.086  14.849
50074W        W16857  26.209  43.888   0.492
50075W        W16858   9.305   6.750  14.413
50076W        W16859  24.288  25.560   0.850
50077W        W16860  40.743   5.211   0.975
50078W        W16861  44.001  11.808   0.019
50079W        W16862  13.140  12.248   2.364
50080W        W16863   5.998  24.313  12.413
50081W        W16864  39.496  19.299  12.385
50082W        W16865   8.181  22.750  11.743
50083W        W16866  15.135   9.864   3.190
50084W        W16867  40.943  15.045  12.077
50085W        W16868   8.042  40.180   2.651
50086W        W16869   5.642  31.020   3.540
50087W        W16870  22.219  24.614   0.349
50088W        W16871  22.770  33.248  11.007
50089W        W16872  27.170   4.906  10.761
50090W        W16873   0.971  19.995   5.112
50091W        W16874  39.620  17.259  12.650
50092W        W16875  18.902  33.862   2.824
50093W        W16876  22.814  25.210  12.588
50094W        W16877   1.170   3.719   3.241
50095W        W16878  43.734  12.160  14.742
50096W        W16879   8.773  36.993   3.635
50097W        W16880  41.122   3.908   4.535
50098W        W16881   9.311   0.660  11.730
50099W        W16882  15.849  32.555   0.806
50100W        W16883  23.502   2.060   1.025
50101W        W16884  18.028  20.094  12.861
50102W        W16885  41.345  24.077  11.042
50103W        W16886  11.791  37.251   0.792
50104W        W16887   9.507  18.144  13.373
50105W        W16888  13.014  38.020   0.118
50106W        W16889  36.415  12.373  10.664
50107W        W16890  24.154  44.821   0.034
50108W        W16891  17.813  35.275   9.576
50109W        W16892  28.087  38.778  12.929
50110W        W16893  41.749  17.066  10.886
50111W        W16894  18.762  40.738  10.959
50112W        W16895  27.952  21.324  13.302
50113W        W16896  33.932  27.031  12.016
50114W        W16897  44.509  28.607  12.923
50115W        W16898  17.252   4.788  12.449
50116W        W16899  27.622  15.104  11.050
50117W        W16900  39.778   3.790  11.966
50118W        W16901   9.680  16.733   4.562
50119W        W16902  35.077  40.283  12.932
50120W        W16903  34.130  12.700  12.875
50121W        W16904  27.020  26.545   4.859
50122W        W16905  18.289  10.187  12.591
50123W        W16906  26.460  23.223   1.237
50124W        W16907  23.068   6.873  11.309
50125W        W16908  14.303  30.460  14.399
50126W        W16909  12.339  30.655  14.283
50127W        W16910  25.596  36.496   1.405
50128W        W16911  37.109  21.632   3.323
50129W        W16912  39.862  29.410  12.780
50130W        W16913  33.719  30.653   3.809
50131W        W16914   5.726  30.032   3.121
50132W        W16915  27.302  29.805   0.005
50133W        W16916  17.323  41.304  13.380
50134W        W16917   9.659  13.811  14.889
50135W        W16918  32.275   3.327  14.385
50136W        W16919  20.102   1.195  13.632
50137W        W16920  16.803  23.647  10.710
50138W        W16921  14.473  12.322  11.938
50139W        W16922  42.868   6.084   9.763
50140W        W16923  33.960   7.093   2.395
50141W        W16924  33.361  41.492  14.274
50142W        W16925  26.978   2.608  14.384
50143W        W16926  20.035   7.249  10.592
50144W        W16927  29.002  34.345  11.150
50145W        W16928  35.045  28.734  12.084
50146W        W16929  18.182  24.150  14.556
50147W        W16930   3.791  28.980  13.092
50148W        W16931  33.057  32.754  13.930
50149W        W16932  12.427  14.035   2.586
50150W        W16933   0.767  13.872  11.385
50151W        W16934  15.706  32.419   4.513
50152W        W16935  13.829   3.800   3.861
50153W        W16936  31.373  22.141   3.261
50154W        W16937  24.640  10.534   1.297
50155W        W16938  17.832  41.349  11.657
50156W        W16939  41.521   4.828  14.941
50157W        W16940  13.530  34.084   4.802
50158W        W16941  28.609  42.038  12.373
50159W        W16942  44.555  40.983   4.724
50160W        W16943  44.720  28.688  14.375
50161W        W16944  37.102  13.400  12.000
50162W        W16945  40.020  35.622  14.968
50163W        W16946   1.375   2.529   0.753
50164W        W16947  14.838   9.810   9.465
50165W        W16948   7.921  33.987  13.474
50166W        W16949  11.206   8.337  10.447
50167W        W16950  10.316  22.611   2.751
50168W        W16951  39.792  42.294  14.804
50169W        W16952  27.188   1.186  11.715
50170W        W16953   1.140  42.914  11.337
50171W        W16954  11.580  15.258  10.566
50172W        W16955  17.336  29.509  14.990
50173W        W16956  11.576  39.856   1.905
50174W        W16957   2.190  35.444   3.689
50175W        W16958  23.897  39.869   9.802
50176W        W16959  17.120   7.809  10.628
50177W        W16960  33.333  37.583   1.432
50178W        W16961  37.898  25.512  11.133
50179W        W16962  39.883  29.387  14.300
50180W        W16963  34.987  10.074  12.929
50181W        W16964  28.336   9.721  11.346
50182W        W16965   7.807   5.571   0.854
50183W        W16966  21.737  31.430   3.405
50184W        W16967  32.595   6.391  14.453
50185W        W16968  43.928  44.242   3.381
50186W        W16969  25.730  10.800   0.494
50187W        W16970  22.702  39.918  14.729
50188W        W16971  24.012  38.459   1.760
50189W        W16972  40.257  12.821  14.766
50190W        W16973  34.471   5.098   4.539
50191W        W16974  32.660  26.654  12.833
50192W        W16975  14.144  30.664   0.759
50193W        W16976   5.296  21.529   0.235
50194W        W16977  30.165  40.489   1.388
50195W        W16978  16.724  41.955  11.463
50196W        W16979  17.607  32.059   2.400
50197W        W16980   4.014  11.160   1.887
50198W        W16981  41.440  33.922   3.409
50199W        W16982  34.877  38.367  13.787
50200W        W16983  10.969  32.678   3.309
50201W        W16984  33.344   8.901  13.488
50202W        W16985  36.341  12.293  14.806
50203W        W16986  10.151  13.811   3.079
50204W        W16987  23.692  36.302  14.896
50205W        W16988   9.787   2.759   4.436
50206W        W16989  13.790  15.276  11.668
50207W        W16990  12.798  32.073  12.898
50208W        W16991   2.555   8.465   0.261
50209W        W16992   7.694  28.017   4.103
50210W        W16993   9.706  21.136   4.982
50211W        W16994  10.043  33.883   3.384
50212W        W16995  31.646   3.568  11.631
50213W        W16996  42.926  13.802  12.608
50214W        W16997  18.185  17.677   4.715
50215W        W16998  12.636  39.318  11.732
50216W        W16999  15.633  13.557  13.369
50217W        W17000  17.756  43.533  14.389
50218W        W17001  17.946  13.038  10.169
50219W        W17002   7.714   7.983  11.853
50220W        W17003  29.042  16.192   4.117
50221W        W17004   0.279  38.840  13.096
50222W        W17005  11.308  35.918   4.915
50223W        W17006  20.356   2.249   5.025
50224W        W17007   5.312  19.336  13.118
50225W        W17008  20.509  25.263  13.272
50226W        W17009  41.754  29.676   4.631
50227W        W17010   8.476   9.417   0.530
50228W        W17011  16.791  28.100   0.360
50229W        W17012  12.462  17.776   4.155
50230W        W17013  35.404  30.854   3.279
50231W        W17014   4.916   3.714   1.713
50232W        W17015  17.966  28.031   3.649
50233W        W17016   0.067  41.597   4.994
50234W        W17017  16.502  35.440  13.608
50235W        W17018  41.934   2.779   3.145
50236W        W17019  24.647  26.606  11.033
50237W        W17020  29.366   4.969   1.871
50238W        W17021  36.404   1.309  10.277
50239W        W17022  30.466  31.011   1.276
50240W        W17023   3.484   9.828   1.792
50241W        W17024  22.532  13.328  11.284
50242W        W17025  21.480  36.322  14.393
50243W        W17026  20.144  38.951   3.335
50244W        W17027  20.061  34.700  10.419
50245W        W17028  39.839  25.256  12.958
50246W        W17029   7.173   5.598  13.674
50247W        W17030  31.990  32.979  11.914
50248W        W17031  36.205  40.124  12.050
50249W        W17032  10.805  12.281  14.015
50250W        W17033  11.563  20.255   1.845
50251W        W17034   8.380  32.065  13.074
50252W        W17035  12.554   3.153   3.988
50253W        W17036  22.181   1.679  10.677
50254W        W17037   1.173  28.996  14.815
50255W        W17038  16.804  11.399   2.726
50256W        W17039  26.260  13.236   2.404
50257W        W17040  41.545  21.049  14.465
50258W        W17041  14.718  19.583   2.910
50259W        W17042  13.340  16.910  11.161
50260W        W17043  35.118  30.614   4.990
50261W        W17044  20.001  42.382  11.983
50262W        W17045   7.987   8.888   4.245
50263W        W17046  33.171  35.872  12.110
50264W        W17047   4.793  20.257  12.836
50265W        W17048   1.328  38.438   2.225
50266W        W17049   8.803   9.813  10.657
50267W        W17050  39.309  30.639  12.648
50268W        W17051  21.980  43.394  10.639
50269W        W17052  33.342  34.824   2.765
50270W        W17053  17.670  43.660  12.476
50271W        W17054  13.865  12.824   0.805
50272W        W17055  32.096   7.923  14.302
50273W        W17056  36.847   0.831  13.745
50274W        W17057   7.162   3.321   4.155
50275W        W17058   6.743   2.188   2.769
50276W        W17059  15.523   8.096  12.453
50277W        W17060  40.028  40.679   1.841
50278W        W17061  26.173  44.291   4.147
50279W        W17062  44.515   4.804  13.797
50280W        W17063  11.238  33.236  14.119
50281W        W17064  26.151  43.734  10.687
50282W        W17065   0.884  43.713  11.064
50283W        W17066  14.285  43.480   1.003
50284W        W17067  13.733   8.719   2.318
50285W        W17068   5.523  18.278  11.518
50286W        W17069  14.219  11.240   2.286
50287W        W17070   5.290  23.049  13.426
50288W        W17071   4.758  42.885  10.210
50289W        W17072  37.133  23.687   0.685
50290W        W17073  15.376  39.131  10.703
50291W        W17074  23.691  29.922  10.663
50292W        W17075   7.219  15.504  12.312
50293W        W17076  16.787  17.986  11.672
50294W        W17077  39.535  25.478  14.788
50295W        W17078  29.662  36.949   0.974
50296W        W17079  29.640  16.125  12.619
50297W        W17080  37.339  26.690   2.780
50298W        W17081  38.635  32.830  13.913
50299W        W17082  37.187  34.425  14.462
50300W        W17083  33.046  27.920  14.455
50301W        W17084  37.399  17.260   3.676
50302W        W17085  20.773   3.192   2.672
50303W        W17086  16.248  11.918  10.787
50304W        W17087   2.786   5.870   2.937
50305W        W17088   9.590  37.208   3.274
50306W        W17089   4.133  40.486  12.400
50307W        W17090   3.311   7.332   0.289
50308W        W17091  10.829  23.083  11.586
50309W        W17092  43.629  16.722   2.372
50310W        W17093  16.223   8.781   3.933
50311W        W17094  19.552  12.392   1.203
50312W        W17095  44.299   8.535   2.316
50313W        W17096  33.568  10.455  13.319
50314W        W17097   0.969   6.410  12.642
50315W        W17098  31.511  44.319  14.495
50316W        W17099  17.128  44.769   4.347
50317W        W17100  26.505  30.056  14.652
50318W        W17101   3.676  16.122  14.437
50319W        W17102  43.013  17.584  12.485
50320W        W17103  11.631   8.762   3.315
50321W        W17104  41.876   2.491  13.041
50322W        W17105  29.974  35.563   0.708
50323W        W17106  37.777   5.949   9.780
50324W        W17107  13.499   1.762  10.710
50325W        W17108   4.958  24.173  13.525
50326W        W17109  30.962  31.176  14.529
50327W        W17110  29.511  38.769  11.952
50328W        W17111  40.378  36.599  11.097
50329W        W17112  34.701   3.812  11.498
50330W        W17113   0.841  23.446   2.341
50331W        W17114  40.345   5.925   1.228
50332W        W17115  38.737  36.936   1.285
50333W        W17116  19.835  27.395  12.123
50334W        W17117  31.212  21.572   4.466
50335W        W17118  20.809  14.154  13.896
50336W        W17119  39.864  10.417  11.800
50337W        W17120   2.884   5.760  11.429
50338W        W17121  33.930   9.433   3.612
50339W        W17122  35.829   6.194   4.947
50340W        W17123  33.357  15.570   2.299
50341W        W17124   6.506   1.654  13.305
50342W        W17125  38.423  23.409  10.516
50343W        W17126  30.952  40.073  12.003
50344W        W17127  35.504  27.275  10.542
50345W        W17128  40.125  14.576   1.234
50346W        W17129  13.004   3.336   1.065
50347W        W17130  21.480  32.091  12.622
50348W        W17131  30.673  32.973  10.836
50349W        W17132  16.878  12.720  13.464
50350W        W17133   5.851  28.420  14.573
50351W        W17134   2.204  37.634   1.272
50352W        W17135  20.704  30.712  10.359
50353W        W17136   9.904  39.910  10.533
50354W        W17137  23.521   3.520   0.445
50355W        W17138  18.302   9.786   1.265
50356W        W17139  21.246  35.039  14.032
50357W        W17140   1.756  42.372   2.453
50358W        W17141  38.244  24.172   1.300
50359W        W17142  11.619  21.043   4.145
50360W        W17143   5.657  23.796   3.388
50361W        W17144  15.006  27.661  14.342
50362W        W17145  22.039  23.587  13.018
50363W        W17146  15.019  10.653  12.975
50364W        W17147  10.586  37.098  13.012
50365W        W17148  34.423  39.490   1.924
50366W        W17149   9.952   9.155   1.460
50367W        W17150  22.019  21.571  13.865
50368W        W17151  19.599   3.932   2.970
50369W        W17152  25.815   7.041   4.054
50370W        W17153  33.779  29.746  10.458
50371W        W17154  24.473   1.242  14.544
50372W        W17155   3.572  38.480   4.169
50373W        W17156  23.634  32.599   1.186
50374W        W17157  20.156  42.341   1.239
50375W        W17158  16.533  21.207   5.062
50376W        W17159  29.139  28.595   0.301
50377W        W17160  25.691  33.127  11.628
50378W        W17161  39.327   6.149   2.767
50379W        W17162  42.796  14.753  14.751
50380W        W17163  24.074  23.665   1.626
50381W        W17164  31.236  26.435  13.871
50382W        W17165  19.602  42.836   2.677
50383W        W17166  17.695  37.467  10.071
50384W        W17167   0.863  18.221   4.252
50385W        W17168   9.490   8.785   0.762
50386W        W17169  19.707  17.249  14.062
50387W        W17170   8.039  20.187  13.343
50388W        W17171   9.610  32.006  12.607
50389W        W17172  30.569   7.649  11.597
50390W        W17173  13.495   6.735   3.615
50391W        W17174  30.604  28.694   3.249
50392W        W17175  34.081  30.978  13.087
50393W        W17176  28.064  17.334   0.273
50394W        W17177   9.724  43.813   0.391
50395W        W17178   1.918  11.112   4.647
50396W        W17179  10.526  20.498  14.872
50397W        W17180   5.397  35.489   1.505
50398W        W17181   1.281  42.394   2.225
50399W        W17182  17.592  29.733   2.489
50400W        W17183   4.898  39.500   3.778
50401W        W17184  37.902   2.240  12.301
50402W        W17185  30.998  29.181   0.260
50403W        W17186   2.760  24.654   1.347
50404W        W17187  30.882  21.424  11.136
50405W        W17188  35.944  38.468  13.816
50406W        W17189  26.703  33.390  13.857
50407W        W17190  33.977   0.783   0.647
50408W        W17191  14.062  31.161   2.070
50409W        W17192  36.327   5.438   3.989
50410W        W17193  23.644  10.051   0.201
50411W        W17194  34.322  42.301   0.752
50412W        W17195  21.780  35.599   2.305
50413W        W17196  17.000  43.398   0.804
50414W        W17197  29.390  10.206   2.798
50415W        W17198  28.601  34.912  10.554
50416W        W17199  22.447   5.260   3.244
50417W        W17200  42.785  25.107  13.965
50418W        W17201  32.067  32.367  13.433
50419W        W17202  12.300  27.641  11.608
50420W        W17203  14.153  39.413   2.048
50421W        W17204  28.945  10.796  11.575
50422W        W17205  16.343  43.177  11.633
50423W        W17206  33.772  37.553   1.698
50424W        W17207  27.905  10.260  14.010
50425W        W17208  24.186  19.847  14.598
50426W        W17209   3.879  20.498  10.924
50427W        W17210  20.165  14.360   3.611
50428W        W17211  16.895  14.786   0.002
50429W        W17212  34.615  11.729   0.042
50430W        W17213   2.129  29.506   3.592
50431W        W17214  39.736  16.039   2.725
50432W        W17215  19.608  16.225   3.047
50433W        W17216  29.179  41.149  13.377
50434W        W17217   9.312  26.977   1.892
50435W        W17218  34.829  28.557  14.797
50436W        W17219  43.848   4.183  13.066
50437W        W17220   8.775  34.256  11.200
50438W        W17221   1.899  21.603   2.352
50439W        W17222  40.087  36.031  11.109
50440W        W17223  28.093   2.553  12.442
50441W        W17224   0.794  27.553  12.906
50442W        W17225  39.096  19.685   2.180
50443W        W17226  32.134  15.206   4.259
50444W        W17227  12.688  14.402   1.355
50445W        W17228   6.544  24.746  14.921
50446W        W17229  16.222  34.073   2.048
50447W        W17230  19.068  32.982  11.543
50448W        W17231   2.840  35.848  12.633
50449W        W17232   7.175  21.474   0.284
50450W        W17233  42.277  29.283   3.131
50451W        W17234  23.570  33.808   2.901
50452W        W17235  31.846  20.532   0.799
50453W        W17236  39.343  31.165   1.514
50454W        W17237  23.445  21.944  11.167
50455W        W17238  18.562   6.004   2.818
50456W        W17239  39.776  11.409   0.426
50457W        W17240  42.243  17.147  11.004
50458W        W17241   8.867  31.638   3.980
50459W        W17242  25.681  31.439  12.492
50460W        W17243   4.394  19.343   0.254
50461W        W17244  41.309  31.113   0.866
50462W        W17245  22.706  26.704   0.728
50463W        W17246   8.206  21.488   2.382
50464W        W17247  39.944  13.663  11.902
50465W        W17248   0.919   0.055  13.576
50466W        W17249   9.688  32.018  12.086
50467W        W17250   9.856  30.041  12.004
50468W        W17251   0.544   3.074  10.094
50469W        W17252   2.666   1.728  11.623
50470W        W17253  34.991  19.128  11.117
50471W        W17254   6.896  22.673   4.778
50472W        W17255  40.348  31.111  13.832
50473W        W17256  20.119   6.694  13.498
50474W        W17257  37.063  27.448  10.679
50475W        W17258  20.333  17.815  14.130
50476W        W17259  44.593  20.672   3.694
50477W        W17260  29.952  38.688  13.036
50478W        W17261  14.406  23.137  13.302
50479W        W17262  26.720  33.670  14.796
50480W        W17263  20.991   8.343  14.320
50481W        W17264  24.625  16.827   4.093
50482W        W17265  25.818   0.318  13.863
50483W        W17266  22.496  38.558  10.900
50484W        W17267  17.439   5.862   1.240
50485W        W17268  27.690  41.270   2.194
50486W        W17269  35.170  17.514  13.389
50487W        W17270  15.163  18.167  14.674
50488W        W17271  21.604   6.810   4.646
50489W        W17272  33.045  13.659   4.828
50490W        W17273   1.529  26.977  12.966
50491W        W17274   1.431  11.393   3.838
50492W        W17275   4.407  10.427   2.970
50493W        W17276  23.453  39.892   0.474
50494W        W17277   0.868  43.286   4.627
50495W        W17278   3.605  27.453  11.577
50496W        W17279  12.908  15.797   2.458
50497W        W17280  29.637  39.704   1.019
50498W        W17281  31.247   6.887   3.693
50499W        W17282  40.924  38.022  13.858
50500W        W17283  23.221  43.979  14.323
50501W        W17284  11.989  18.682  11.241
50502W        W17285  31.001   7.296   1.262
50503W        W17286   8.417  25.473  11.895
50504W        W17287  31.520   2.208   3.372
50505W        W17288  27.949  25.388   2.590
50506W        W17289   8.262  18.983  14.945
50507W        W17290   4.942  19.992   3.210
50508W        W17291  11.902  17.503   0.390
50509W        W17292   4.871   7.318  10.764
50510W        W17293  20.017  44.006   0.813
50511W        W17294  32.066   5.941  11.957
50512W        W17295  25.035  36.310   3.046
50513W        W17296  26.244  18.161  14.333
50514W        W17297   9.311  16.862   3.839
50515W        W17298  32.980  42.159   2.858
50516W        W17299  41.579  28.972   3.695
50517W        W17300  31.075  11.814   2.131
50518W        W17301  19.193  33.398   1.041
50519W        W17302  42.948  20.141   3.828
50520W        W17303  33.058   6.629   1.014
50521W        W17304  28.880  27.246   0.342
50522W        W17305  39.650  23.753   0.451
50523W        W17306  22.979   5.315   1.921
50524W        W17307   9.402  24.251  14.875
50525W        W17308   4.801  44.322   2.264
50526W        W17309  28.054  38.541  11.071
50527W        W17310  32.598  19.142   0.808
50528W        W17311  31.079  28.011  14.410
50529W        W17312  29.423  28.893  11.463
50530W        W17313  26.160  27.443  14.354
50531W        W17314  39.569  28.044  13.361
50532W        W17315  18.583  26.128  10.779
50533W        W17316  31.650  25.147   4.777
50534W        W17317  32.155  23.152   1.909
50535W        W17318  42.049  10.061  13.733
50536W        W17319  24.901  43.338   0.312
50537W        W17320   0.692  32.076  12.147
50538W        W17321  32.477  35.429  13.342
50539W        W17322   1.574  11.079   2.208
50540W        W17323   0.084   6.849  10.423
50541W        W17324   1.232  27.065   1.168
50542W        W17325  26.987  20.015   0.727
50543W        W17326  12.281  26.209  12.991
50544W        W17327   9.573  44.905  13.933
50545W        W17328   2.634  14.558  10.756
50546W        W17329  25.070  19.430  13.765
50547W        W17330  30.539  18.459   5.047
50548W        W17331   0.428  14.147  14.308
50549W        W17332  40.127  27.822   5.094
50550W        W17333  29.511   6.295  13.033
50551W        W17334  24.767   3.898  10.764
50552W        W17335  39.129   4.079   2.832
50553W        W17336  22.296   3.891   1.699
50554W        W17337  21.661   6.298   3.690
50555W        W17338   3.982  44.690  12.467
50556W        W17339   7.584  11.639  13.086
50557W        W17340   3.423   4.830  13.840
50558W        W17341  43.755  39.567  12.021
50559W        W17342  43.563  27.520  11.636
50560W        W17343  29.145  22.251  12.067
50561W        W17344  13.842  39.708   3.961
50562W        W17345   9.599  13.388   3.735
50563W        W17346  40.883   3.436   4.615
50564W        W17347  41.002  19.999  11.010
50565W        W17348  21.335  40.799   5.012
50566W        W17349   9.154  11.382  11.000
50567W        W17350  23.942  36.681   4.236
50568W        W17351  15.577  19.956   0.267
50569W        W17352  43.470  27.846   1.804
50570W        W17353   7.946  27.709   3.759
50571W        W17354  33.126  13.135  11.102
50572W        W17355  17.094  22.146  13.956
50573W        W17356  28.071  44.289  13.570
50574W        W17357  37.331   3.404  12.084
50575W        W17358  20.486   6.724  11.700
50576W        W17359  15.778   0.915  10.709
50577W        W17360  25.008   6.247   1.872
50578W        W17361  36.960  22.342   1.700
50579W        W17362  20.560   6.419  13.277
50580W        W17363  36.304  26.060   1.031
50581W        W17364   9.645   7.998  14.993
50582W        W17365  29.606  22.527  14.526
50583W        W17366  40.790   0.588  13.156
50584W        W17367  44.714  30.932  14.841
50585W        W17368  21.031  38.959  12.018
50586W        W17369  42.519  30.062   0.318
50587W        W17370  11.257  29.496  14.296
50588W        W17371   1.462   6.216   3.881
50589W        W17372  38.271   5.820  14.432
50590W        W17373  21.045  27.913   2.760
50591W        W17374  37.009   5.888   2.310
50592W        W17375  19.358  17.248  12.084
50593W        W17376  40.797   8.172  13.310
50594W        W17377  21.096   5.701   0.328
50595W        W17378  36.143  26.540   0.404
50596W        W17379  39.016  18.846  11.968
50597W        W17380   7.577  43.313   2.633
50598W        W17381  24.354  27.714  10.398
50599W        W17382  37.326  19.674  13.230
50600W        W17383   4.912  19.591  14.003
50601W        W17384  42.978   7.995   3.887
50602W        W17385  33.478  24.162  14.337
50603W        W17386  41.624  44.339   4.555
50604W        W17387  38.668  15.335   3.230
50605W        W17388  32.074  22.876  13.490
50606W        W17389  19.227  28.435   2.354
50607W        W17390  43.902  12.877  13.108
50608W        W17391  33.665  23.915   0.084
50609W        W17392  27.240  27.966   4.186
50610W        W17393  22.014   3.984  13.011
50611W        W17394  15.830   9.832   1.912
50612W        W17395  40.208   2.299   2.799
50613W        W17396  40.330  31.522   3.557
50614W        W17397   8.656  31.595   2.185
50615W        W17398   0.360  30.176   2.187
50616W        W17399   2.937  44.841  10.698
50617W        W17400  39.555  30.984   0.526
50618W        W17401  37.876  31.107  11.026
50619W        W17402  15.954  27.138   0.227
50620W        W17403   2.166   0.438  11.171
50621W        W17404  20.157   4.737   4.673
50622W        W17405  17.300  18.959   0.878
50623W        W17406  15.390  35.341   1.867
50624W        W17407   9.226  17.406  13.011
50625W        W17408  18.104  23.637   2.585
50626W        W17409  35.344  30.741  10.733
50627W        W17410  24.406  19.503  14.957
50628W        W17411   0.488   3.708   0.852
50629W        W17412  28.629  25.118   2.806
50630W        W17413   2.255  27.204   3.269
50631W        W17414   7.991  40.113  12.322
50632W        W17415  27.485  27.420   0.607
50633W        W17416   9.107  35.419  11.142
50634W        W17417   8.767   7.465  14.919
50635W        W17418  34.880  34.410   1.305
50636W        W17419  33.082  37.535   3.730
50637W        W17420   8.533   4.263   1.039
50638W        W17421  12.824  19.524  11.015
50639W        W17422  27.799  22.110  14.938
50640W        W17423   6.385   7.418  10.673
50641W        W17424  14.375  13.308  14.118
50642W        W17425   0.872  31.617  13.620
50643W        W17426  12.658  26.632  12.293
50644W        W17427  20.508  36.999   4.559
50645W        W17428  42.759  29.637  12.429
50646W        W17429  24.494  22.651  10.798
50647W        W17430  44.053  39.925  11.798
50648W        W17431  31.903  29.499   2.657
50649W        W17432   4.971  29.485   3.271
50650W        W17433  16.715  26.654   2.221
50651W        W17434  18.622  20.696  12.882
50652W        W17435  23.454  44.340  10.375
50653W        W17436  22.418  35.631  12.894
50654W        W17437  12.863  15.277   3.112
50655W        W17438  26.047  24.990   3.133
50656W        W17439  33.084  13.616   4.332
50657W        W17440  43.477  44.371   1.444
50658W        W17441  19.591  37.308   0.422
50659W        W17442  19.656  30.148  13.921
50660W        W17443  18.146  39.658  10.366
50661W        W17444  36.877   3.283  13.020
50662W        W17445  20.714  14.837   9.855
50663W        W17446   1.165  12.516  12.597
50664W        W17447  32.676  17.357   1.724
50665W        W17448  37.829   4.250   1.827
50666W        W17449  22.132  30.974   0.825
50667W        W17450  44.511  19.281  12.491
50668W        W17451  29.963  11.422   0.460
50669W        W17452   4.363  43.937  10.585
50670W        W17453  39.885  32.211   2.906
50671W        W17454   5.133  43.346   2.298
50672W        W17455   2.717  44.329   4.590
50673W        W17456  15.967  12.674   5.155
50674W        W17457  37.331  24.214   4.855
50675W        W17458  14.678  39.782   0.334
50676W        W17459  29.626   5.252   2.803
50677W        W17460  43.517   1.201   1.698
50678W        W17461  25.266  27.548  12.020
50679W        W17462   7.508  21.493  14.893
50680W        W17463  24.175  38.564  13.765
50681W        W17464  23.329  27.552  13.498
50682W        W17465  28.632  13.091  13.627
50683W        W17466  44.984   0.986  14.918
50684W        W17467  23.080  10.266   5.028
50685W        W17468  14.362  15.619  11.668
50686W        W17469   8.629  40.463   2.781
50687W        W17470   1.838  33.727  11.517
50688W        W17471  24.559   9.411  11.613
50689W        W17472  31.533  16.591  12.065
50690W        W17473   5.449  40.540  12.025
50691W        W17474  41.057  26.003  14.916
50692W        W17475   2.879  30.483  13.799
50693W        W17476   4.167  15.808  14.906
50694W        W17477  43.385  36.893   2.656
50695W        W17478  36.040  33.844  12.799
50696W        W17479  24.502  19.077   2.666
50697W        W17480  32.053  17.841   1.045
50698W        W17481  38.150  16.483   3.175
50699W        W17482  35.523  17.992  11.479
50700W        W17483  35.920  44.241  14.456
50701W        W17484  30.894  20.220   9.816
50702W        W17485  32.029   2.064   2.604
50703W        W17486  12.219  14.275   1.090
50704W        W17487  41.832  26.903  14.851
50705W        W17488  13.130  11.823   1.172
50706W        W17489  23.492   4.440   0.958
50707W        W17490  40.087  42.245  12.600
50708W        W17491   7.922   0.975  14.475
50709W        W17492  11.173   4.426  10.591
50710W        W17493   8.632  29.875  12.566
50711W        W17494   1.031  35.980   0.832
50712W        W17495  42.840   1.428   4.139
50713W        W17496  29.626  34.478   2.023
50714W        W17497  22.126   9.357   4.139
50715W        W17498   7.842  38.291  13.349
50716W        W17499  14.709  42.325   4.781
50717W        W17500  37.003   4.992   4.099
50718W        W17501  29.518  36.509  11.506
50719W        W17502  16.271  44.345  11.217
50720W        W17503   4.747  38.851  11.539
50721W        W17504   4.204  20.258  11.242
50722W        W17505  21.153  44.453  12.511
50723W        W17506  22.496  27.667   0.876
50724W        W17507  18.364  37.098  14.886
50725W        W17508   9.730  27.152  14.261
50726W        W17509  43.607  24.645   0.966
50727W        W17510  29.200  22.017  11.608
50728W        W17511  31.888  25.563   1.481
50729W        W17512  17.491   1.755  12.969
50730W        W17513  23.045   0.064   3.740
50731W        W17514  30.630  21.788   0.691
50732W        W17515  17.656  35.566  14.236
50733W        W17516   5.281  16.174  13.751
50734W        W17517   4.476  31.572   0.456
50735W        W17518  38.621  36.484   0.923
50736W        W17519  19.541   5.027   2.704
50737W        W17520  36.184  32.018  13.032
50738W        W17521  26.371  44.356  11.850
50739W        W17522  17.641   3.408  14.955
50740W        W17523  12.774   4.520   3.272
50741W        W17524  39.253   3.426  13.790
50742W        W17525  37.490   5.009  13.853
50743W        W17526  19.073  12.170   4.727
50744W        W17527   2.883  17.860   2.467
50745W        W17528  38.612  30.048   0.990
50746W        W17529  19.990   7.534  13.146
50747W        W17530  28.425  39.654  12.292
50748W        W17531  27.525   9.800   4.813
50749W        W17532  25.958  36.979  14.671
50750W        W17533  11.195  35.529  14.885
50751W        W17534  37.538  16.398  10.560
50752W        W17535  26.321  40.560   0.990
50753W        W17536  17.705  27.079  11.859
50754W        W17537  16.517  11.616  13.187
50755W        W17538  26.073  31.957  11.968
50756W        W17539  39.514   4.786  12.058
50757W        W17540  17.818  19.575  12.679
50758W        W17541  16.639   5.764   0.070
50759W        W17542  13.100  36.327   2.441
50760W        W17543   0.362  38.136   0.227
50761W        W17544  41.818   4.174  10.856
50762W        W17545  14.801  33.608  11.425
50763W        W17546  22.584  28.303   4.164
50764W        W17547  30.874  37.780  11.225
50765W        W17548  14.883  15.167   4.068
50766W        W17549  16.116  18.887  13.460
50767W        W17550  22.440  32.370  13.893
50768W        W17551  33.817  27.143   0.294
50769W        W17552  32.672  37.519  12.221
50770W        W17553  20.762  33.332   4.138
50771W        W17554  22.881  12.417  11.621
50772W        W17555   9.984  17.669   0.937
50773W        W17556  30.483   2.935  13.916
50774W        W17557   5.513  13.218   4.655
50775W        W17558  22.517  30.605  10.165
50776W        W17559  16.611  23.697   4.062
50777W        W17560   6.749   4.722  12.801
50778W        W17561  17.876  23.125  11.980
50779W        W17562  37.945  26.556  13.731
50780W        W17563  35.064  28.473  11.634
50781W        W17564  37.298  25.601   3.651
50782W        W17565  12.366  28.500  13.476
50783W        W17566  24.736  15.166  13.004
50784W        W17567   1.434  27.277  11.006
50785W        W17568  12.119  13.577  13.777
50786W        W17569  34.591  36.858   2.812
50787W        W17570   8.222  36.031   0.481
50788W        W17571  20.753  22.977   4.169
50789W        W17572   0.472   1.230   0.749
50790W        W17573  25.140  35.781  14.359
50791W        W17574  31.108  18.228   1.217
50792W        W17575   0.532  37.567   1.763
50793W        W17576  39.486   3.714  11.176
50794W        W17577   5.613  10.710  12.614
50795W        W17578  23.551  28.440   1.407
50796W        W17579  18.037  35.937   4.684
50797W        W17580  22.853   3.262  12.950
50798W        W17581  15.381  16.148   3.466
50799W        W17582  11.203  41.865  13.937
50800W        W17583  28.275  16.493   0.618
50801W        W17584  30.173  39.106  14.994
50802W        W17585  43.842   3.088   3.827
50803W        W17586  28.990  27.733   4.682
50804W        W17587  15.284  30.966   3.342
50805W        W17588   1.933  39.512  12.244
50806W        W17589  27.715  12.304   0.913
50807W        W17590  21.328  30.705   3.970
50808W        W17591   4.906   8.886   0.058
50809W        W17592  16.529  20.861   0.465
50810W        W17593   1.860  17.302   1.742
50811W        W17594  25.919  27.696  11.052
50812W        W17595  26.171  38.280   2.847
50813W        W17596  23.656   9.211   4.220
50814W        W17597  31.687  41.914  14.315
50815W        W17598   7.308  13.106   0.131
50816W        W17599  19.702  14.262  11.441
50817W        W17600  21.121  44.985  12.567
50818W        W17601  21.628  11.159  13.576
50819W        W17602  24.955  43.874  11.101
50820W        W17603  25.221  32.781   4.582
50821W        W17604  41.898  44.068  10.740
50822W        W17605  22.460  35.128  12.148
50823W        W17606  26.223   2.234   0.760
50824W        W17607   2.860   3.460  14.976
50825W        W17608   8.212  42.287   0.237
50826W        W17609  19.119   8.374  14.186
50827W        W17610  28.840  42.939  11.444
50828W        W17611  39.969  16.383   2.411
50829W        W17612  21.064  15.502  13.390
50830W        W17613  40.996  26.116   3.310
50831W        W17614  33.073  33.143   2.844
50832W        W17615  36.990  35.855  14.543
50833W        W17616  30.065   9.625  14.925
50834W        W17617  38.524  28.885   1.669
50835W        W17618  37.630  24.710  10.467
50836W        W17619  15.472   4.205  12.267
50837W        W17620   6.789  36.415   4.649
50838W        W17621  39.074  22.472   4.948
50839W        W17622   7.244  43.372   4.881
50840W        W17623   3.486  41.031   0.433
50841W        W17624  15.339  31.978  14.013
50842W        W17625  33.564   3.745   4.214
50843W        W17626   6.376  31.123  11.689
50844W        W17627  39.977  20.717  11.286
50845W        W17628   0.430  10.252   3.217
50846W        W17629  24.670  38.937   0.781
50847W        W17630  20.037  17.639   2.869
50848W        W17631  33.924  35.087  14.340
50849W        W17632  19.565  44.796   2.376
50850W        W17633  16.797  44.025  11.835
50851W        W17634  24.209  39.009  10.887
50852W        W17635  37.471  14.853  10.636
50853W        W17636  27.511  34.659  14.450
50854W        W17637  23.600   4.121   4.588
50855W        W17638  34.640  23.536  13.104
50856W        W17639   0.965   8.364  11.520
50857W        W17640  26.488  34.479   1.208
50858W        W17641  24.052  21.007   0.422
50859W        W17642  44.480  44.850   0.709
50860W        W17643  41.862  25.587  10.999
50861W        W17644  22.762  13.753   1.344
50862W        W17645   8.380  25.056  11.589
50863W        W17646  37.755  43.034  12.680
50864W        W17647  44.794  29.441  14.898
50865W        W17648  18.799  43.424   3.784
50866W        W17649  37.551   6.848  10.345
50867W        W17650  19.061  42.237   0.154
50868W        W17651  31.066  31.850   1.369
50869W        W17652  22.669  12.643   0.656
50870W        W17653  21.140   4.270   0.857
50871W        W17654  17.209  42.838   2.908
50872W        W17655   4.687  20.131  11.144
50873W        W17656  21.136  24.595  11.469
50874W        W17657  19.103   4.815   4.520
50875W        W17658  33.977  41.452   4.572
50876W        W17659  31.956  44.969  12.546
50877W        W17660  35.336  17.217   3.794
50878W        W17661  37.625   5.259  11.364
50879W        W17662  15.269   9.562  11.615
50880W        W17663  12.817  44.262   3.817
50881W        W17664  15.051  35.870  11.718
50882W        W17665  12.056  32.659   4.387
50883W        W17666  28.046  18.352  13.505
50884W        W17667  13.170  26.211   1.192
50885W        W17668  31.069   7.448  14.343
50886W        W17669  13.230  10.931  14.383
50887W        W17670  15.155  35.716   0.901
50888W        W17671   4.459  11.277   3.409
50889W        W17672  30.861   9.496   1.322
50890W        W17673   7.057   7.611  11.178
50891W        W17674  35.086  15.161   3.164
50892W        W17675  18.105   6.501   1.786
50893W        W17676  24.618  19.226   0.353
50894W        W17677  10.198  14.748   3.504
50895W        W17678  23.969  15.721  14.851
50896W        W17679  35.859  29.655   0.906
50897W        W17680  42.982  24.728  11.081
50898W        W17681  16.339  21.124   4.024
50899W        W17682  30.556  30.385  14.344
50900W        W17683  18.896  36.092  11.130
50901W        W17684   5.252  37.796  13.061
50902W        W17685  16.886  23.470   3.173
50903W        W17686  41.825  32.993  12.102
50904W        W17687  25.648  12.832   1.347
50905W        W17688   8.957  10.212   4.446
50906W        W17689  27.653  37.642   1.168
50907W        W17690  29.533  25.631  11.607
50908W        W17691  44.030  25.530   4.464
50909W        W17692  11.747  32.462   1.249
50910W        W17693  32.467  40.292  14.661
50911W        W17694  36.808  41.613  12.517
50912W        W17695  11.279  34.838   3.221
50913W        W17696  24.595   0.004  14.886
50914W        W17697   4.575  28.408   4.122
50915W        W17698  11.615  15.626   1.916
50916W        W17699  25.208  17.730  13.831
50917W        W17700  33.631   3.329  12.099
50918W        W17701  32.132  33.400   4.520
50919W        W17702  32.585  40.036   2.248
50920W        W17703  32.572  17.622   5.517
50921W        W17704  22.422  39.495  14.862
50922W        W17705  27.116  22.090   3.929
50923W        W17706   1.927  21.204   1.589
50924W        W17707  20.597  15.018   1.528
50925W        W17708  41.484  32.620   1.543
50926W        W17709  30.076   6.895   1.315
50927W        W17710  36.807  26.759  12.935
50928W        W17711  32.931  22.283   2.417
50929W        W17712  28.721  30.120  11.872
50930W        W17713  36.815  35.898   0.504
50931W        W17714   8.193  34.811  12.470
50932W        W17715   3.887  17.878  13.575
50933W        W17716  39.746  12.258   0.338
50934W        W17717  15.327  14.368  11.130
50935W        W17718   0.741  29.888  13.754
50936W        W17719   3.349  22.922   4.096
50937W        W17720  38.979   0.872  13.143
50938W        W17721  43.728  15.386   1.751
50939W        W17722  42.869  13.896  14.508
50940W        W17723  12.071  43.416   0.448
50941W        W17724  24.050  18.654   0.963
50942W        W17725  38.458  28.602   0.224
50943W        W17726  30.535   8.933   3.266
50944W        W17727  35.607   1.278   4.674
50945W        W17728  24.637  33.316   2.327
50946W        W17729  34.309  28.949   1.426
50947W        W17730  34.973   7.240   3.319
50948W        W17731   9.253  30.414  14.278
50949W        W17732  10.892  26.236   4.602
50950W        W17733  40.621  38.013  12.506
50951W        W17734   4.394  39.609  11.401
50952W        W17735   4.364   8.903   0.301
50953W        W17736  11.369  36.681  14.304
50954W        W17737  41.501   7.445  11.926
50955W        W17738   1.467  19.155  12.599
50956W        W17739  25.244  23.359  13.526
50957W        W17740  35.003  25.764  11.133
50958W        W17741  21.689  30.566   2.362
50959W        W17742  21.698  29.076   3.026
50960W        W17743  19.132   3.200   1.918
50961W        W17744  12.376  14.361   0.377
50962W        W17745  37.676  21.244  11.560
50963W        W17746  14.089  41.836  14.492
50964W        W17747   3.062  11.826  10.657
50965W        W17748  23.653  35.074  11.845
50966W        W17749  32.423  37.665   1.658
50967W        W17750  31.628  14.635   3.176
50968W        W17751  19.640   4.768   1.828
50969W        W17752  38.819  30.073  11.477
50970W        W17753  20.628   3.267  13.395
50971W        W17754  19.283   2.232   3.510
50972W        W17755  39.878   5.250   0.851
50973W        W17756   4.591  19.259  12.044
50974W        W17757  40.583  13.194  10.725
50975W        W17758  38.776  33.396  14.811
50976W        W17759  32.245   1.233   4.416
50977W        W17760  42.497  35.010   0.331
50978W        W17761  43.202   9.575   2.572
50979W        W17762  43.506  30.568  10.679
50980W        W17763  33.846   8.277   2.205
50981W        W17764  39.560  31.475  10.883
50982W        W17765  21.495  18.788  14.787
50983W        W17766  25.073  25.156  12.105
50984W        W17767  11.513  33.250   1.619
50985W        W17768  35.433  38.987   2.694
50986W        W17769  28.737  19.249  12.814
50987W        W17770   4.853  20.020  12.380
50988W        W17771  11.783  21.874  13.573
50989W        W17772  24.573  16.129  12.334
50990W        W17773  23.571   2.300  12.662
50991W        W17774  21.652  16.582  12.402
50992W        W17775  26.397  40.283   2.642
50993W        W17776  18.513  32.663   1.518
50994W        W17777  29.023  34.846  11.178
50995W        W17778  25.526  21.604  12.456
50996W        W17779   1.962   7.021  13.171
50997W        W17780  15.930  42.399  13.829
50998W        W17781   1.427   6.596  12.411
50999W        W17782  14.620  22.055   0.455
51000W        W17783  33.159   4.344  14.415
51001W        W17784  17.338  26.114   4.424
51002W        W17785   8.654  40.363  13.911
51003W        W17786  36.028  25.106  11.630
51004W        W17787  40.716  40.794   3.606
51005W        W17788  18.712  30.752  11.084
51006W        W17789  43.957  35.820  10.714
51007W        W17790  40.963  14.241  14.041
51008W        W17791  37.824   2.872  14.925
51009W        W17792  24.725   0.058  10.333
51010W        W17793  23.495  22.185   2.776
51011W        W17794  13.658   3.417   4.681
51012W        W17795  39.937  30.357  13.195
51013W        W17796  12.169   5.811   3.853
51014W        W17797  37.772  34.413  14.717
51015W        W17798   1.391  41.913   0.835
51016W        W17799   4.893  32.821   3.418
51017W        W17800  29.112  37.527  12.011
51018W        W17801  34.026  32.579   4.650
51019W        W17802  23.339  28.733  14.187
51020W        W17803  11.959   6.351  13.880
51021W        W17804   2.567  15.784  10.122
51022W        W17805  28.129  36.662  12.432
51023W        W17806  18.241  27.095  14.422
51024W        W17807  28.209  10.103  14.432
51025W        W17808  22.328  22.887  11.513
51026W        W17809  22.068  29.477  14.859
51027W        W17810  13.712  27.213   2.988
51028W        W17811  15.832   7.592   4.510
51029W        W17812  26.976  13.211   1.258
51030W        W17813  25.988  29.805   0.305
51031W        W17814  42.416  43.655   2.784
51032W        W17815  37.947   6.925  12.586
51033W        W17816  39.737  21.179   2.649
51034W        W17817  28.111  27.423   4.163
51035W        W17818  11.941  16.273  14.377
51036W        W17819  15.208  43.829  11.748
51037W        W17820  29.484   1.391   0.647
51038W        W17821  18.232  25.398   2.150
51039W        W17822  38.172   6.142  10.044
51040W        W17823  10.277  25.604   2.197
51041W        W17824   6.368   4.930  10.555
51042W        W17825  44.960  15.440  12.646
51043W        W17826   5.944  36.723  12.540
51044W        W17827  29.081  25.468  10.719
51045W        W17828  32.399   0.289   4.380
51046W        W17829  31.437  25.517   1.237
51047W        W17830  43.394  22.076   0.340
51048W        W17831   6.133  42.764  11.756
51049W        W17832   4.360  33.966   0.633
51050W        W17833  19.690  14.626   1.421
51051W        W17834  28.150  42.967   0.436
51052W        W17835  34.639  43.466   4.231
51053W        W17836  39.020  36.804   4.601
51054W        W17837  18.950  26.488   2.813
51055W        W17838  41.676  14.903  11.557
51056W        W17839   2.373  31.066   2.575
51057W        W17840  13.668   2.308   1.969
51058W        W17841  26.363  37.847   4.143
51059W        W17842   3.541  19.180  13.319
51060W        W17843  36.501  27.202  10.710
51061W        W17844  43.390  25.637   0.278
51062W        W17845  16.356  19.797   1.958
51063W        W17846  25.999  40.185  12.950
51064W        W17847  12.239  24.048  11.907
51065W        W17848   9.857  33.578  13.362
51066W        W17849  44.957  17.208   1.731
51067W        W17850  23.732  44.086  11.695
51068W        W17851  37.555   6.878  14.273
51069W        W17852  29.097  39.877  10.498
51070W        W17853  17.758   0.848   2.869
51071W        W17854  16.382  15.340   1.297
51072W        W17855  40.210  33.486  13.300
51073W        W17856   5.330  40.032  13.131
51074W        W17857  38.815   9.153  10.595
51075W        W17858  26.622   7.853  10.643
51076W        W17859  13.877  20.843  14.509
51077W        W17860  40.487  17.371   3.745
51078W        W17861  20.189  33.385  10.346
51079W        W17862  26.677  19.457  13.524
51080W        W17863  39.406  40.834   4.719
51081W        W17864   8.977  23.649  14.912
51082W        W17865  33.813  37.838  13.591
51083W        W17866  20.623   2.618  10.256
51084W        W17867  13.944  19.459   4.023
51085W        W17868  33.539  36.127  12.410
51086W        W17869  34.476   4.911  12.590
51087W        W17870  14.201  41.720  10.735
51088W        W17871  15.647  25.575  13.611
51089W        W17872  37.823  33.614  11.628
51090W        W17873  35.179  30.581  14.996
51091W        W17874   0.893   4.709   4.069
51092W        W17875  42.806  25.658  13.114
51093W        W17876  14.533  44.928  14.767
51094W        W17877  22.243  22.636  11.080
51095W        W17878  15.802  23.069  14.550
51096W        W17879  40.033   3.284  10.167
51097W        W17880  28.179  10.436  11.013
51098W        W17881   8.674   7.751  12.056
51099W        W17882  16.158  44.754   2.385
51100W        W17883  37.054  15.715   2.487
51101W        W17884  25.021  34.272   3.502
51102W        W17885  41.504   5.211   1.413
51103W        W17886   5.190  32.024  13.764
51104W        W17887  18.343  29.522   1.484
51105W        W17888  39.265  19.678   1.682
51106W        W17889   2.019  30.475   2.643
51107W        W17890  13.634  34.432  14.960
51108W        W17891  38.872  31.668   3.212
51109W        W17892  35.941  34.161  14.839
51110W        W17893  32.167  42.963  12.866
51111W        W17894  32.572  31.169  12.389
51112W        W17895   9.455  18.072   1.532
51113W        W17896   6.646  23.953  13.455
51114W        W17897  43.843  14.182   0.881
51115W        W17898  15.568  23.751   4.212
51116W        W17899   7.446  25.147   1.417
51117W        W17900  41.530  35.448  12.986
51118W        W17901   1.211  26.636   3.521
51119W        W17902  23.130  18.551  13.347
51120W        W17903  34.511  34.417  10.579
51121W        W17904  40.286   3.540  14.959
51122W        W17905  37.890  27.153  12.019
51123W        W17906   8.579   0.957   3.099
51124W        W17907   8.776  44.763  13.455
51125W        W17908  39.350   8.116  14.629
51126W        W17909  17.557   2.830  13.054
51127W        W17910  41.874  40.980   0.920
51128W        W17911  43.457  12.753   1.190
51129W        W17912  24.170  28.481   3.247
51130W        W17913  39.434  25.428   0.892
51131W        W17914  10.240  42.373   0.910
51132W        W17915   4.628  41.093  14.790
51133W        W17916  27.013  25.745   2.192
51134W        W17917  12.043  25.842  13.253
51135W        W17918   9.540  20.256  13.482
51136W        W17919  10.884  22.699  14.865
51137W        W17920   6.868  21.206   4.331
51138W        W17921  35.389   5.435   1.625
51139W        W17922  38.816  34.599   3.221
51140W        W17923  24.288  23.298   0.687
51141W        W17924   1.252  18.235  14.443
51142W        W17925   7.346   4.607  13.931
51143W        W17926   8.000   5.435  14.886
51144W        W17927  40.840  21.113   0.452
51145W        W17928   9.138  24.799  11.324
51146W        W17929   0.039  40.693   4.665
51147W        W17930  10.020  13.185   0.085
51148W        W17931   7.565  38.649   1.897
51149W        W17932  39.499  14.137  11.309
51150W        W17933  14.523   3.389   3.344
51151W        W17934   4.324  32.945  10.722
51152W        W17935  15.276  28.203   2.619
51153W        W17936  31.537  37.336   0.337
51154W        W17937  41.428   6.381  12.661
51155W        W17938  41.992  29.078   1.204
51156W        W17939   3.825  15.199  11.562
51157W        W17940  35.020  10.333   3.345
51158W        W17941  41.492  32.642   3.381
51159W        W17942   9.219   6.118   1.320
51160W        W17943  34.592  42.035   3.634
51161W        W17944   1.621  14.207  14.868
51162W        W17945  20.560  20.601   1.598
51163W        W17946   7.698  34.143  14.000
51164W        W17947  44.675  44.949  14.837
51165W        W17948   7.278  34.290  12.445
51166W        W17949  36.596  27.986   1.074
51167W        W17950   4.889  32.431  10.747
51168W        W17951   4.631  32.917  11.147
51169W        W17952  28.494  14.707  12.659
51170W        W17953  40.719  13.494  11.490
51171W        W17954  30.518  40.622   1.753
51172W        W17955  21.549  13.290  11.521
51173W        W17956  14.778   9.757  10.450
51174W        W17957   3.968  21.679  13.234
51175W        W17958   8.350  18.769   2.799
51176W        W17959   3.169  35.102  14.366
51177W        W17960   7.494  14.897  13.754
51178W        W17961  11.677  19.780  12.960
51179W        W17962  27.722  27.210  11.419
51180W        W17963  31.997  21.039  14.404
51181W        W17964  39.902  22.769  12.728
51182W        W17965  11.081   5.713  12.504
51183W        W17966  17.292   8.655   4.541
51184W        W17967  23.764  25.474   0.872
51185W        W17968  15.786  38.795  10.641
51186W        W17969   9.851  30.945   3.080
51187W        W17970  18.185  32.968  13.960
51188W        W17971  25.165  13.167  14.768
51189W        W17972  30.001  39.870  10.475
51190W        W17973  34.632  20.449  14.603
51191W        W17974   7.473  30.068   4.366
51192W        W17975  13.187  13.235   4.521
51193W        W17976  36.684  19.728   4.478
51194W        W17977  24.169  22.634  13.989
51195W        W17978  29.004  26.379   3.126
51196W        W17979   4.310  32.191  11.579
51197W        W17980  43.557  35.114   3.377
51198W        W17981  17.104   3.786  12.939
51199W        W17982  38.553  42.970   2.863
51200W        W17983  28.064  32.012  10.745
51201W        W17984  32.064  25.365  11.916
51202W        W17985   8.905  34.902   2.912
51203W        W17986  17.150  15.263   3.596
51204W        W17987  37.487  12.730  10.721
51205W        W17988  13.485  30.198  13.859
51206W        W17989   6.488  15.199  12.953
51207W        W17990  28.127  22.552  12.056
51208W        W17991  15.944  24.488   3.360
51209W        W17992  36.767  16.304   0.376
51210W        W17993  36.133  38.579  11.998
51211W        W17994   2.750  39.895  14.491
51212W        W17995  12.619  30.679   0.707
51213W        W17996  20.109   1.219   0.019
51214W        W17997  13.827  41.546  12.031
51215W        W17998  18.189  18.918  11.952
51216W        W17999   3.645   2.406   2.381
51217W        W18000  20.600  28.654   3.649
51218W        W18001  40.339  11.680  13.017
51219W        W18002  10.310   6.743   4.206
51220W        W18003  15.681  44.423   0.226
51221W        W18004   8.775  33.616   4.842
51222W        W18005  13.636  27.858  12.828
51223W        W18006  27.986   2.588   0.826
51224W        W18007  43.342  23.472  14.521
51225W        W18008  10.236  17.109   1.768
51226W        W18009  25.922  19.014  12.912
51227W        W18010  15.739   6.970   1.660
51228W        W18011  27.424  31.436   1.876
51229W        W18012  43.672   6.225   4.716
51230W        W18013   6.705  37.395  14.813
51231W        W18014  10.730  14.169   3.875
51232W        W18015  26.598   1.831  12.036
51233W        W18016  39.019  22.583   2.961
51234W        W18017  34.634  15.044  12.416
51235W        W18018   4.696  14.084   4.149
51236W        W18019  29.391  19.748  14.427
51237W        W18020  26.678  26.528  12.255
51238W        W18021  21.701  24.671   1.924
51239W        W18022  22.049   1.235   3.608
51240W        W18023  27.915   9.587  13.176
51241W        W18024  42.938  35.884   1.275
51242W        W18025  40.042  13.293  11.563
51243W        W18026  42.786  12.877  14.498
51244W        W18027  31.637   3.784  13.890
51245W        W18028  18.614  10.327   2.754
51246W        W18029  10.824   4.160  13.875
51247W        W18030  42.287  23.515   2.659
51248W        W18031  37.614   4.427   2.279
51249W        W18032  17.019  44.522  13.449
51250W        W18033  26.168  37.974  11.317
51251W        W18034  33.529  21.840   4.684
51252W        W18035  18.843   1.737   4.281
51253W        W18036  40.847  23.526   4.320
51254W        W18037   5.298  29.040  13.436
51255W        W18038  22.586  44.370  14.278
51256W        W18039   1.936  25.800   0.528
51257W        W18040  17.750  35.497   1.516
51258W        W18041  34.594  14.497  11.619
51259W        W18042  10.249  36.281  12.917
51260W        W18043  35.957  12.911   1.278
51261W        W18044  25.678  19.543   0.395
51262W        W18045  43.417   8.402   1.626
51263W        W18046   4.839  24.788  14.282
51264W        W18047  25.642   0.191  10.233
51265W        W18048  11.521  16.816   4.934
51266W        W18049  42.600  22.068  11.039
51267W        W18050   4.621  39.329  12.646
51268W        W18051   4.515  27.226   4.526
51269W        W18052  28.736  19.668  12.152
51270W        W18053  27.949  19.673  10.205
51271W        W18054  27.729  26.568   3.260
51272W        W18055  34.577  43.715  10.698
51273W        W18056  22.108  28.229  14.230
51274W        W18057  27.703  37.240   0.335
51275W        W18058  40.271  30.026   3.242
51276W        W18059  27.228   9.849   3.803
51277W        W18060  26.387  24.777   5.470
51278W        W18061  21.720   0.252   0.914
51279W        W18062  34.088  28.751  14.415
51280W        W18063  30.084  28.066  14.480
51281W        W18064   5.718  31.974   4.163
51282W        W18065  36.573   6.664  12.900
51283W        W18066  29.204  17.571  11.684
51284W        W18067   2.562  18.632   2.378
51285W        W18068  14.074   0.771  11.993
51286W        W18069  42.784   0.693   4.550
51287W        W18070  14.856  32.695  14.394
51288W        W18071  13.838  44.325  14.530
51289W        W18072  19.540   7.217  13.128
51290W        W18073  29.149  37.316   0.288
51291W        W18074  32.326  18.973   4.552
51292W        W18075   6.676  40.868   3.601
51293W        W18076  10.396  31.437  12.427
51294W        W18077  44.577  19.675  10.824
51295W        W18078  14.671  26.011  14.923
51296W        W18079  17.344  31.110  13.466
51297W        W18080  33.414  29.434  12.109
51298W        W18081  11.417  10.356  11.133
51299W        W18082  27.083   2.923   2.634
51300W        W18083  32.335  32.892  13.653
51301W        W18084   8.787   8.212   2.167
51302W        W18085  11.650  40.829  14.899
51303W        W18086  15.025   9.349   3.097
51304W        W18087  35.205  13.764   1.443
51305W        W18088  32.331  39.959   1.814
51306W        W18089  10.344  31.978  10.691
51307W        W18090  11.730  26.199  12.417
51308W        W18091  23.039  23.725   1.305
51309W        W18092   2.505  30.409  11.198
51310W        W18093   1.530  24.769   0.597
51311W        W18094  33.950   8.518  14.491
51312W        W18095  30.202  29.354   3.626
51313W        W18096   7.908  32.470   0.858
51314W        W18097  13.915  11.822   0.844
51315W        W18098  41.454   8.849  11.327
51316W        W18099  35.726  17.578   1.297
51317W        W18100   5.744  35.779  14.456
51318W        W18101  15.608  38.370  12.879
51319W        W18102   0.638   8.181  11.876
51320W        W18103  14.328  20.628   3.141
51321W        W18104  44.767  40.860  14.969
51322W        W18105  32.204  31.560   4.069
51323W        W18106  43.224  37.822  11.106
51324W        W18107  28.653  28.978  11.961
51325W        W18108  10.341  25.159   0.058
51326W        W18109  31.438   4.420   2.950
51327W        W18110   9.449  24.070  11.649
51328W        W18111  35.186  24.969   2.120
51329W        W18112  22.097  36.994   0.055
51330W        W18113  20.063  21.065  12.979
51331W        W18114  15.988  14.110  14.318
51332W        W18115  27.221  31.994   4.414
51333W        W18116   6.222   3.150   4.973
51334W        W18117  38.345  21.599   1.985
51335W        W18118  37.446  43.295  10.542
51336W        W18119   6.082  22.436   3.740
51337W        W18120  21.157   3.921  12.893
51338W        W18121  41.454  19.709  12.513
51339W        W18122  16.718  21.801  10.916
51340W        W18123  20.153  15.208  11.238
51341W        W18124  27.013  39.095   0.276
51342W        W18125   4.355  31.651  14.449
51343W        W18126  20.614   9.720   4.092
51344W        W18127  34.040   1.316   3.605
51345W        W18128   7.704   4.461  12.075
51346W        W18129   1.861  29.844  11.722
51347W        W18130  24.944   9.944  10.780
51348W        W18131  39.282  16.869  11.972
51349W        W18132  39.997  30.202  13.780
51350W        W18133  28.575   7.161   0.543
51351W        W18134  28.054  22.783   1.294
51352W        W18135   3.868  44.975  14.963
51353W        W18136  23.299  18.551   2.259
51354W        W18137   4.319   4.705  11.179
51355W        W18138  14.760  21.630  11.589
51356W        W18139  26.487  11.083  12.456
51357W        W18140  36.482  29.620  14.409
51358W        W18141  43.653  36.499  13.937
51359W        W18142  28.961  26.218   3.608
51360W        W18143  35.809  29.547   1.706
51361W        W18144  38.552  27.114  13.437
51362W        W18145  14.749  25.328   4.902
51363W        W18146   1.477  13.370   1.849
51364W        W18147  10.745  12.297  12.018
51365W        W18148   2.991   3.164   2.688
51366W        W18149   1.171  38.276  14.474
51367W        W18150  32.642  22.937   4.961
51368W        W18151   3.331  19.506  14.924
51369W        W18152   2.861  42.052  11.881
51370W        W18153  28.794  41.791   0.891
51371W        W18154   2.259  34.936  14.294
51372W        W18155  19.681  11.735   4.145
51373W        W18156   6.618  20.519  10.868
51374W        W18157  29.198  32.387   4.552
51375W        W18158  40.455  26.094   3.244
51376W        W18159  27.594  40.761  13.781
51377W        W18160   3.018   3.225  11.164
51378W        W18161  31.855   6.804   1.871
51379W        W18162   0.229  25.714  11.066
51380W        W18163  14.735  43.173   0.272
51381W        W18164  40.817  24.933   4.217
51382W        W18165   9.177  34.683  12.650
51383W        W18166  11.061   9.508  11.965
51384W        W18167  24.970   7.727  13.303
51385W        W18168  16.235  40.608   0.893
51386W        W18169  24.463   4.325   0.706
51387W        W18170   0.451  23.941  11.572
51388W        W18171  23.527  18.413   4.093
51389W        W18172  17.866  21.167  12.365
51390W        W18173  24.238  36.476  11.608
51391W        W18174  26.565  40.504   0.527
51392W        W18175  42.285  31.751   0.886
51393W        W18176   9.123  32.358  11.997
51394W        W18177  35.437  14.080   3.269
51395W        W18178  17.166  38.394   2.281
51396W        W18179  18.436  27.234   0.325
51397W        W18180  27.263  18.612   1.317
51398W        W18181  43.234  25.073  12.446
51399W        W18182  29.129   1.903   2.476
51400W        W18183   4.414  25.642   0.725
51401W        W18184   7.350  37.948   4.747
51402W        W18185  33.353  31.554  12.900
51403W        W18186  38.136  35.924   3.000
51404W        W18187  29.029  39.312   0.342
51405W        W18188  29.517  41.369   4.155
51406W        W18189  11.835   7.164  11.343
51407W        W18190  27.168  17.597  11.540
51408W        W18191  30.104  14.325  12.477
51409W        W18192  15.738  24.255  11.594
51410W        W18193   3.381   8.721  12.070
51411W        W18194  44.895  10.325  11.985
51412W        W18195  25.852  35.915   2.892
51413W        W18196  23.476  16.717   0.532
51414W        W18197   9.282   3.389  11.205
51415W        W18198   9.267  39.924  12.446
51416W        W18199  31.964  31.979  14.835
51417W        W18200   0.665   3.753   2.663
51418W        W18201  43.009  26.405  11.553
51419W        W18202   7.157  35.290   4.804
51420W        W18203   4.827  34.030  12.282
51421W        W18204  37.857  30.533   0.914
51422W        W18205  30.432  25.519   2.716
51423W        W18206  37.884  39.912   4.582
51424W        W18207  26.657  36.411  11.886
51425W        W18208  22.576   5.074  14.881
51426W        W18209   0.769  40.620   5.312
51427W        W18210  11.745  21.526   4.554
51428W        W18211  20.091  12.203   3.709
51429W        W18212  26.432  17.602  14.591
51430W        W18213  43.139  28.066   3.793
51431W        W18214  27.954  18.316  10.792
51432W        W18215  42.375  14.730  14.448
51433W        W18216  43.370  26.147   4.528
51434W        W18217  35.529  39.001  14.576
51435W        W18218  44.670  14.441   4.931
51436W        W18219  10.430  39.878  11.574
51437W        W18220  27.234  22.992   0.799
51438W        W18221  39.386  28.639   1.812
51439W        W18222  41.514  15.097   0.027
51440W        W18223  42.465  44.771  11.986
51441W        W18224  22.483   3.245  14.981
51442W        W18225  32.739  44.985   1.864
51443W        W18226  18.537   7.257   0.272
51444W        W18227  18.814  38.576   4.128
51445W        W18228  31.372  41.436  11.028
51446W        W18229  41.963  17.591   0.302
51447W        W18230  21.656  33.840   4.167
51448W        W18231  17.290   2.439   2.232
51449W        W18232  32.252  31.650  11.201
51450W        W18233   7.660  40.936   2.146
51451W        W18234  19.297   4.284  11.131
51452W        W18235  35.212  40.169   1.955
51453W        W18236   1.031   7.600  10.079
51454W        W18237  31.694  35.265  12.813
51455W        W18238  13.768  41.441  14.335
51456W        W18239  21.544  39.121  13.252
51457W        W18240  19.855  21.496   0.413
51458W        W18241  31.562  32.095  11.226
51459W        W18242  39.619  40.915   0.906
51460W        W18243  19.971   9.239  10.597
51461W        W18244  44.311  14.518   0.085
51462W        W18245  19.295  41.977   1.861
51463W        W18246   7.185  37.129  14.099
51464W        W18247  15.295  28.524   3.336
51465W        W18248   0.379  18.226  14.775
51466W        W18249  35.139  41.874   4.383
51467W        W18250  31.902   4.850  11.593
51468W        W18251  10.172  29.735  10.590
51469W        W18252   8.670  22.021   1.213
51470W        W18253  20.298  22.408  14.423
51471W        W18254  12.894  18.586   0.426
51472W        W18255  15.377  29.851   2.115
51473W        W18256  28.044  33.916   3.365
51474W        W18257  36.783  38.362   1.882
51475W        W18258   1.786  41.727  11.460
51476W        W18259  31.892   0.066  14.315
51477W        W18260  25.185  29.061  10.001
51478W        W18261  32.596  38.966   2.219
51479W        W18262   2.265  16.824   2.803
51480W        W18263  10.744  24.805   3.334
51481W        W18264   5.462   8.215   2.784
51482W        W18265  12.398  25.113   3.227
51483W        W18266  36.994  33.971  13.802
51484W        W18267   3.889   8.445  13.469
51485W        W18268   6.508  35.574  13.982
51486W        W18269  15.955  31.618   2.720
51487W        W18270  34.568  18.164  14.610
51488W        W18271  40.478  14.502   3.021
51489W        W18272  15.644  35.284   4.574
51490W        W18273  28.592  16.132   0.390
51491W        W18274  43.287  25.466  13.097
51492W        W18275  16.836   3.096   1.879
51493W        W18276  35.421  14.241   2.370
51494W        W18277  30.679  43.927   3.622
51495W        W18278  22.402  29.971  14.439
51496W        W18279  33.856  26.259  11.189
51497W        W18280  43.954  42.093  12.103
51498W        W18281  38.220  10.552  11.488
51499W        W18282   0.825   0.514   0.196
51500W        W18283  22.514  37.414  11.540
51501W        W18284  20.724  11.645  14.336
51502W        W18285  28.460   3.867  13.046
51503W        W18286  42.356   8.921   1.087
51504W        W18287  36.105  35.029  13.785
51505W        W18288  42.052   9.816   0.389
51506W        W18289  27.126   9.282   5.044
51507W        W18290  27.141  18.671   4.132
51508W        W18291  34.712  10.289   0.905
51509W        W18292  15.851  32.623  12.490
51510W        W18293  42.222  43.696   3.681
51511W        W18294   9.845  19.086  14.733
51512W        W18295  15.727  23.688   3.728
51513W        W18296   4.819  35.988   2.287
51514W        W18297  44.567  44.319  11.724
51515W        W18298   1.807  30.077  10.894
51516W        W18299  43.888   3.355   2.291
51517W        W18300  19.038   6.617   0.569
51518W        W18301  11.679  39.236  14.841
51519W        W18302  32.299  42.259  13.798
51520W        W18303  38.789  13.553   0.690
51521W        W18304  35.491   1.717   2.857
51522W        W18305   6.169  30.665  13.568
51523W        W18306   5.161  11.621   3.925
51524W        W18307  24.762  10.193  12.725
51525W        W18308   4.253  35.071  12.383
51526W        W18309  42.768  33.164   4.224
51527W        W18310   2.838  27.162   2.250
51528W        W18311  41.962   9.782  11.941
51529W        W18312  24.286  15.262   2.811
51530W        W18313  10.231  33.171  11.132
51531W        W18314  36.248  17.799   4.662
51532W        W18315   0.192   8.944   1.923
51533W        W18316  28.496  13.359   2.797
51534W        W18317  25.304  22.265  12.990
51535W        W18318   3.824  29.058  12.549
51536W        W18319  20.607   4.397  11.413
51537W        W18320  40.411  19.624   3.196
51538W        W18321  27.090  24.599   0.712
51539W        W18322   2.961  21.482  10.947
51540W        W18323  24.273   6.322  11.140
51541W        W18324  17.825  33.326   1.733
51542W        W18325   9.584  25.065   3.619
51543W        W18326  38.602  16.806   0.786
51544W        W18327  11.781  40.319   1.755
51545W        W18328  36.911  36.767  11.608
51546W        W18329  22.071  22.089  13.949
51547W        W18330   3.767  29.105  14.143
51548W        W18331  34.947   8.844   4.506
51549W        W18332  40.836  26.254   4.588
51550W        W18333  29.924  29.520  11.917
51551W        W18334  23.679  44.718   1.791
51552W        W18335  25.479  21.314   0.711
51553W        W18336   4.465  19.052  12.523
51554W        W18337  30.364  19.690   2.582
51555W        W18338  22.498  35.816  11.146
51556W        W18339  23.603  42.791   4.039
51557W        W18340  14.165   4.196   3.318
51558W        W18341  33.475   4.191   1.440
51559W        W18342  42.592   1.731  14.266
51560W        W18343  31.387  26.274   0.965
51561W        W18344  13.162   5.679   0.602
51562W        W18345   9.882   3.953   2.812
51563W        W18346  26.721  14.162  13.050
51564W        W18347   8.618  43.822   1.357
51565W        W18348   5.677   9.383  13.845
51566W        W18349  40.075  28.151  11.573
51567W        W18350  21.946  28.597  13.919
51568W        W18351  16.747  38.564  13.654
51569W        W18352  34.084  22.644  11.589
51570W        W18353  16.908  32.883  13.580
51571W        W18354  41.333   2.836   4.410
51572W        W18355  22.823   4.947   0.317
51573W        W18356  10.282  15.551   0.303
51574W        W18357  44.699   3.513   2.226
51575W        W18358  13.769   3.125  12.058
51576W        W18359  36.513  31.508   4.936
51577W        W18360  20.023  10.012  12.913
51578W        W18361  17.340  43.856   1.400
51579W        W18362  31.524  13.842  13.839
51580W        W18363  18.219  35.976  12.940
51581W        W18364  37.038   5.201   1.939
51582W        W18365  19.247  23.007   0.955
51583W        W18366  15.029   2.846   2.919
51584W        W18367  25.036   0.197   0.740
51585W        W18368  40.670   2.289   3.555
51586W        W18369   3.359  10.333  10.542
51587W        W18370  13.672  15.655   1.905
51588W        W18371   5.314  18.756  12.445
51589W        W18372  23.538  18.346  13.602
51590W        W18373  31.978  44.096  10.293
51591W        W18374  37.987  14.075   4.826
51592W        W18375  31.357  41.319  12.519
51593W        W18376  34.114  44.675   4.288
51594W        W18377  22.029  19.611   1.364
51595W        W18378   8.793  42.592  14.601
51596W        W18379  29.589  11.401   0.815
51597W        W18380  31.974   5.939  14.512
51598W        W18381  40.524   0.534  11.937
51599W        W18382  42.578  20.536   1.357
51600W        W18383  37.293  17.668   1.461
51601W        W18384  16.567  12.565   2.105
51602W        W18385  14.805  36.143  10.750
51603W        W18386  19.617  24.610   4.652
51604W        W18387  17.771  19.146   0.701
51605W        W18388   4.200  29.551  11.729
51606W        W18389   1.451  27.877  12.397
51607W        W18390  12.703   9.984  11.612
51608W        W18391  24.483   6.220   4.689
51609W        W18392  19.646  39.696  13.762
51610W        W18393  34.068  18.953  13.420
51611W        W18394   1.720  39.374   4.599
51612W        W18395  42.333  27.370   4.911
51613W        W18396   6.503  17.160   4.880
51614W        W18397  33.345  40.253   0.388
51615W        W18398  20.830   3.290   1.323
51616W        W18399   6.427  10.845  14.003
51617W        W18400  43.845  33.027  13.464
51618W        W18401  42.010  37.411  14.992
51619W        W18402   3.886   6.602   2.330
51620W        W18403   7.040  44.832   1.466
51621W        W18404   8.281  38.983  11.500
51622W        W18405  12.602  22.902  14.882
51623W        W18406   5.137   0.934   2.683
51624W        W18407  10.800  22.354  13.817
51625W        W18408  29.441  15.105  12.402
51626W        W18409  27.197  34.546   4.170
51627W        W18410  14.174   5.257   0.867
51628W        W18411  15.220   9.073  13.856
51629W        W18412  27.229   5.211   4.794
51630W        W18413  38.540  38.952  10.023
51631W        W18414  33.082   6.333  14.281
51632W        W18415   8.811  38.091   4.163
51633W        W18416  12.303  19.529   1.018
51634W        W18417  21.940  23.968  10.685
51635W        W18418   5.313  40.955   0.417
51636W        W18419  36.178  22.954  10.996
51637W        W18420  27.608  14.729  12.175
51638W        W18421  32.928  23.578  10.912
51639W        W18422  27.186  15.510   1.117
51640W        W18423  19.000  42.965  10.760
51641W        W18424  43.626  16.192   2.372
51642W        W18425  32.111   6.356  12.775
51643W        W18426  13.546   0.239  10.510
51644W        W18427  13.737   2.953   4.921
51645W        W18428  22.637   7.582  12.332
51646W        W18429  16.749  13.545  13.008
51647W        W18430   0.251   8.459  12.120
51648W        W18431  32.916  24.603   4.601
51649W        W18432  29.796  15.904  11.127
51650W        W18433  35.114  21.291   0.998
51651W        W18434  40.906  26.535  11.647
51652W        W18435  19.789   5.359  14.680
51653W        W18436   0.756  16.732  10.991
51654W        W18437  24.047  30.503   1.196
51655W        W18438   6.654  27.128   2.297
51656W        W18439  38.319  24.718   2.206
51657W        W18440  24.082  35.565   0.769
51658W        W18441  21.068  13.092  11.511
51659W        W18442  41.714  12.453  13.525
51660W        W18443  29.230  23.584   1.286
51661W        W18444   2.362  13.815   3.288
51662W        W18445  21.481  24.359  10.698
51663W        W18446  43.765  23.962   0.155
51664W        W18447   9.326  11.612  10.558
51665W        W18448   6.852   2.682   2.825
51666W        W18449   3.047  19.192  13.180
51667W        W18450  27.279  18.256  12.421
51668W        W18451  17.265   3.930  13.504
51669W        W18452   9.210  42.446   2.879
51670W        W18453  37.680  17.007   4.074
51671W        W18454   2.503  41.093   0.456
51672W        W18455  13.650  17.232  14.072
51673W        W18456  25.443  40.254  14.074
51674W        W18457  20.976   1.401   2.058
51675W        W18458  43.945   6.405   0.678
51676W        W18459  39.996  16.899  12.820
51677W        W18460  28.550  21.805  10.823
51678W        W18461  40.886   8.436   3.134
51679W        W18462  38.586  15.419  12.166
51680W        W18463  18.061  24.901   0.660
51681W        W18464  13.733  18.002   0.738
51682W        W18465  40.699   1.288   3.666
51683W        W18466  27.181  30.053  14.109
51684W        W18467  38.951  30.050  14.240
51685W        W18468  25.308  19.503   2.727
51686W        W18469  23.026  33.813   0.873
51687W        W18470  20.363  31.562  11.166
51688W        W18471   8.289   6.268   3.705
51689W        W18472  32.856  22.345   0.979
51690W        W18473  25.988  21.554   1.436
51691W        W18474   3.858   6.666   2.842
51692W        W18475   3.953  14.321   0.441
51693W        W18476  22.721  34.720  12.000
51694W        W18477   9.641  34.579   4.641
51695W        W18478  43.058  22.570   1.859
51696W        W18479   0.408  43.881  12.970
51697W        W18480   9.619  23.123   0.576
51698W        W18481   2.985  30.072  14.804
51699W        W18482  19.209   4.480   2.156
51700W        W18483  15.757  32.054  11.762
51701W        W18484  21.530   8.692   1.839
51702W        W18485  34.452  44.781  12.127
51703W        W18486   2.687  38.370  12.794
51704W        W18487  13.397  34.579   4.656
51705W        W18488  28.363   6.994   3.392
51706W        W18489  37.579  11.543  14.752
51707W        W18490  42.731   8.789  11.617
51708W        W18491  35.589  11.106   4.631
51709W        W18492  37.383  30.182  11.124
51710W        W18493  19.069  11.873  14.115
51711W        W18494  12.141  34.120   1.322
51712W        W18495   7.209  44.968  10.961
51713W        W18496  19.072  10.753  14.930
51714W        W18497   5.045  28.207   1.717
51715W        W18498  14.064  28.396   4.993
51716W        W18499  32.838  23.729   0.352
51717W        W18500  10.364  19.051  12.014
51718W        W18501  37.523  12.097   1.128
51719W        W18502  44.939  39.002  12.528
51720W        W18503  43.729  26.729   2.790
51721W        W18504  44.178  42.146   1.426
51722W        W18505   3.939  43.866  13.572
51723W        W18506   9.967   5.733  13.811
51724W        W18507  13.289  35.879   2.615
51725W        W18508   6.776  29.409  11.621
51726W        W18509  24.018  37.857   2.765
51727W        W18510  10.988   4.103  11.427
51728W        W18511  26.899   7.185   1.540
51729W        W18512  15.354   8.769   4.459
51730W        W18513   9.744  15.657  13.594
51731W        W18514  35.617  21.326   1.850
51732W        W18515  44.224   7.367  12.151
51733W        W18516  31.644  36.073  13.299
51734W        W18517  29.421   5.373   4.356
51735W        W18518   7.722  17.962   3.746
51736W        W18519   4.458  11.683  12.577
51737W        W18520  43.742  31.416   3.920
51738W        W18521  31.933  41.471  14.489
51739W        W18522  37.822  37.480  14.928
51740W        W18523   6.412  20.803   0.343
51741W        W18524  14.240  19.206   1.372
51742W        W18525  10.944  17.792  12.571
51743W        W18526   8.326  19.743   0.808
51744W        W18527   4.448  37.919  12.522
51745W        W18528   7.529   6.813  11.222
51746W        W18529  18.301   6.933   3.701
51747W        W18530   1.051  23.696   0.838
51748W        W18531  36.988   7.232   1.607
51749W        W18532  36.068  43.449  11.497
51750W        W18533  17.308   5.203  11.132
51751W        W18534  44.072  10.382   4.583
51752W        W18535  21.674  15.663   0.896
51753W        W18536  43.849  20.666  10.704
51754W        W18537  40.772  10.421  11.198
51755W        W18538   7.197  29.117  13.403
51756W        W18539   9.331   9.775   4.783
51757W        W18540   0.365  12.996   4.515
51758W        W18541   1.281  23.978   1.826
51759W        W18542  28.404  17.639   1.748
51760W        W18543   5.190  34.456  13.693
51761W        W18544  12.644  37.652   0.663
51762W        W18545  42.985  26.108   4.883
51763W        W18546  29.672  18.302   0.978
51764W        W18547  38.121   8.710   3.194
51765W        W18548  21.450  29.689  13.643
51766W        W18549  21.674   2.443  11.992
51767W        W18550  22.928  33.232   2.853
51768W        W18551   2.925  44.403   5.124
51769W        W18552  32.385   2.719  13.523
51770W        W18553  32.529  39.257   1.420
51771W        W18554  16.830  30.241  12.083
51772W        W18555  38.034  30.063   4.128
51773W        W18556  24.495  18.995   2.151
51774W        W18557  14.143  36.676  13.805
51775W        W18558  16.538  14.151   3.566
51776W        W18559  30.942  31.716  13.253
51777W        W18560  13.386  39.304  14.953
51778W        W18561  29.984  28.800  14.022
51779W        W18562  41.951  36.967   2.389
51780W        W18563   4.226   4.753  12.087
51781W        W18564   0.356  38.097   2.677
51782W        W18565  35.465  13.851  14.771
51783W        W18566   9.101   1.291  14.595
51784W        W18567  10.108   5.440  14.288
51785W        W18568  22.596  39.882   4.691
51786W        W18569  18.363  39.745  14.346
51787W        W18570  31.948  30.545   0.034
51788W        W18571  43.285  40.294   4.433
51789W        W18572   0.786  35.779  14.415
51790W        W18573  18.801  44.854   1.885
51791W        W18574  18.645  27.395   1.178
51792W        W18575  22.325  36.933   0.509
51793W        W18576  36.315  19.387   5.197
51794W        W18577  11.150  43.845   2.347
51795W        W18578  23.141  40.411  10.712
51796W        W18579  41.329  24.939   2.208
51797W        W18580  28.876  20.047   2.463
51798W        W18581  32.373   4.541   4.099
51799W        W18582   5.927  42.902  10.399
51800W        W18583  42.486  29.659   4.399
51801W        W18584  19.131  24.127   1.468
51802W        W18585  25.125  26.497  12.800
51803W        W18586  41.951  38.393   4.457
51804W        W18587  39.441  44.080  11.945
51805W        W18588  44.126  40.127  12.866
51806W        W18589  29.912  31.889  11.686
51807W        W18590  36.157  16.395  13.388
51808W        W18591  41.493  11.740  11.060
51809W        W18592  27.597  28.742  11.356
51810W        W18593   2.240  10.185   0.753
51811W        W18594  32.516  33.561  10.055
51812W        W18595  33.599  32.491  11.816
51813W        W18596  37.109  37.556  13.286
51814W        W18597  19.197   6.221  12.109
51815W        W18598  42.761  15.632  12.040
51816W        W18599  30.108   0.607   1.800
51817W        W18600  15.266  40.096   0.142
51818W        W18601  44.782  29.608  13.324
51819W        W18602  36.913  44.520   3.439
51820W        W18603  35.134  26.763  12.021
51821W        W18604  27.156   7.818  10.658
51822W        W18605  18.085  38.829   0.471
51823W        W18606   9.253   7.439  13.983
51824W        W18607   5.113  22.618  11.508
51825W        W18608  27.612   8.692   4.035
51826W        W18609   7.519  24.722   0.178
51827W        W18610  25.440   6.404  14.345
51828W        W18611   8.052  18.533   2.345
51829W        W18612  26.993  44.796  10.749
51830W        W18613  11.769  32.842   0.860
51831W        W18614  33.341   1.383  12.044
51832W        W18615  33.125  40.719   0.406
51833W        W18616  40.428   1.948   0.450
51834W        W18617  44.878  27.929  11.451
51835W        W18618  31.174  19.652   0.778
51836W        W18619   0.927  34.859  14.855
51837W        W18620   2.907  36.752  14.740
51838W        W18621  16.381  42.310   1.311
51839W        W18622  44.933  35.586   0.913
51840W        W18623   7.948  23.701   4.229
51841W        W18624  37.293  22.696  11.935
51842W        W18625  11.943  39.880  10.293
51843W        W18626  38.277   3.304   3.842
51844W        W18627   0.432   0.072   1.853
51845W        W18628  28.400  32.168  13.933
51846W        W18629  17.866   5.405  11.930
51847W        W18630   7.386  37.985   0.145
51848W        W18631  11.324  11.766  12.607
51849W        W18632  12.565   9.285  12.192
51850W        W18633  42.940   4.154  14.892
51851W        W18634  34.117  22.979   4.167
51852W        W18635  26.618   1.573   2.904
51853W        W18636  21.237  21.235   3.251
51854W        W18637  32.066   9.634  10.427
51855W        W18638  25.440  11.618   1.008
51856W        W18639  34.380  11.299  11.057
51857W        W18640  25.544   5.192  11.491
51858W        W18641  32.214  18.683   3.879
51859W        W18642   2.501  24.482  14.050
51860W        W18643  10.866  21.843  13.694
51861W        W18644  37.936  39.066   3.270
51862W        W18645  12.219  40.509   4.138
51863W        W18646   2.749  15.614   3.136
51864W        W18647   8.604  31.114  12.983
51865W        W18648  44.337   6.855  12.188
51866W        W18649  18.206  34.980  14.468
51867W        W18650   8.894  34.136  13.300
51868W        W18651  42.987  21.079  14.951
51869W        W18652  19.687  28.180   2.326
51870W        W18653  17.836  42.519  13.318
51871W        W18654   0.943   8.373  12.843
51872W        W18655  37.402  31.955  10.711
51873W        W18656  19.815   1.800  14.505
51874W        W18657  11.305  21.248   1.715
51875W        W18658  16.657   6.239   0.307
51876W        W18659  30.997   3.908  12.452
51877W        W18660  28.437  20.019  11.023
51878W        W18661  10.380  42.337  12.085
51879W        W18662  34.001  38.930  10.478
51880W        W18663  25.064  38.773   1.196
51881W        W18664  37.527  14.633  14.562
51882W        W18665  21.766  41.302  14.830
51883W        W18666   9.139  44.252   2.719
51884W        W18667  42.479  28.006   0.826
51885W        W18668  14.498   2.445  11.428
51886W        W18669  24.662  26.704  12.517
51887W        W18670  44.568  17.155   1.367
51888W        W18671  37.854  35.517  11.897
51889W        W18672  23.588  28.577  12.397
51890W        W18673  16.659  10.683   1.347
51891W        W18674  19.551  15.225   0.083
51892W        W18675  14.330  19.574  10.576
51893W        W18676  42.909  19.800   0.966
51894W        W18677  21.137  26.511   1.711
51895W        W18678  10.302  37.898  13.529
51896W        W18679  12.113   9.502   1.683
51897W        W18680  30.428  42.480   1.154
51898W        W18681  13.397  25.160  11.994
51899W        W18682  12.526  11.752   9.967
51900W        W18683   9.596  16.314   2.243
51901W        W18684  36.931  10.371   3.592
51902W        W18685   4.979   5.357   3.017
51903W        W18686   8.107  17.019   1.707
51904W        W18687   4.307  18.239  13.537
51905W        W18688  31.325   4.103   0.867
51906W        W18689  12.701  32.605   1.864
51907W        W18690   7.477  26.021  14.416
51908W        W18691   1.658  10.848  10.587
51909W        W18692  26.125  29.708   3.248
51910W        W18693  30.898  30.100  13.743
51911W        W18694   0.458  10.914   1.195
51912W        W18695  20.740   2.288   3.273
51913W        W18696   9.604  41.947   4.354
51914W        W18697   1.530  35.309   0.172
51915W        W18698  39.393  10.173   3.962
51916W        W18699  21.584  21.137   0.674
51917W        W18700  36.953  44.161  11.577
51918W        W18701   9.421  15.247   4.372
51919W        W18702   2.645  42.512  13.739
51920W        W18703   8.708  41.799  10.822
51921W        W18704  10.302  10.898  10.836
51922W        W18705  40.473  32.658  13.993
51923W        W18706   7.544  36.352  12.964
51924W        W18707  35.391  10.499  11.457
51925W        W18708  18.765  24.030   4.620
51926W        W18709  39.913  17.299   4.605
51927W        W18710  11.208   3.391  13.534
51928W        W18711  21.548  22.052   0.731
51929W        W18712  21.535   1.290   0.965
51930W        W18713  39.438  20.475  12.033
51931W        W18714   1.835  30.770  10.780
51932W        W18715  30.068  11.313  12.187
51933W        W18716   4.448   2.287   0.959
51934W        W18717  34.692  18.005  11.334
51935W        W18718  25.735   6.484  13.460
51936W        W18719  24.088  43.834  12.999
51937W        W18720  19.657  42.284  14.268
51938W        W18721  38.982  13.772   3.560
51939W        W18722  34.146  14.167  12.554
51940W        W18723   9.141  20.047   3.842
51941W        W18724  23.538  12.820   1.814
51942W        W18725  21.184  28.705   2.361
51943W        W18726  22.860  37.679  14.828
51944W        W18727  35.854   2.768   0.965
51945W        W18728  34.094   1.538  13.337
51946W        W18729  33.104  31.920   0.342
51947W        W18730  41.211  38.795  13.315
51948W        W18731   1.006  21.341  11.242
51949W        W18732  15.279  41.569   1.922
51950W        W18733  14.218  28.066   0.595
51951W        W18734  14.158  44.479   3.197
51952W        W18735  29.064  11.098  14.852
51953W        W18736  31.635  31.657  12.043
51954W        W18737  42.281   6.376  10.375
51955W        W18738  19.994  21.561   2.917
51956W        W18739  11.709  36.446   3.202
51957W        W18740  22.229  37.897  12.026
51958W        W18741  18.048  19.075   0.243
51959W        W18742  12.209  31.174  12.144
51960W        W18743   0.500  29.959   1.752
51961W        W18744  31.676  39.671   2.816
51962W        W18745  14.523  30.983   1.931
51963W        W18746   7.251  38.009   2.674
51964W        W18747   2.951  16.351   2.390
51965W        W18748   4.699  35.568   4.634
51966W        W18749  41.968  34.968   0.292
51967W        W18750   3.018  20.165  14.153
51968W        W18751   3.941  32.345  13.326
51969W        W18752  10.286   0.875  11.580
51970W        W18753  29.167  36.995  12.078
51971W        W18754   5.302   2.391  12.661
51972W        W18755   2.215  41.479   4.218
51973W        W18756  26.684  23.167  10.269
51974W        W18757  16.102   9.855  14.764
51975W        W18758  22.753   4.547   1.715
51976W        W18759  42.466   8.585   3.067
51977W        W18760  30.658   3.834  13.785
51978W        W18761  44.271   3.651  14.401
51979W        W18762  36.985  22.550  10.572
51980W        W18763  44.433  34.969   3.681
51981W        W18764  39.527  37.849  12.642
51982W        W18765  41.559   0.338  13.261
51983W        W18766  40.896  33.933   2.696
51984W        W18767  19.373  13.664  10.676
51985W        W18768  11.797  34.069  12.969
51986W        W18769  41.652  30.910  11.526
51987W        W18770   8.635  41.459   1.425
51988W        W18771  42.940  43.809  13.843
51989W        W18772  14.718  38.217   3.716
51990W        W18773  33.219  21.940  14.532
51991W        W18774  13.399  31.068   0.460
51992W        W18775  14.615  18.031  11.354
51993W        W18776   9.317   5.607   1.381
51994W        W18777  41.298  43.232   0.847
51995W        W18778  22.705   9.991  14.252
51996W        W18779  27.766  24.127   0.012
51997W        W18780  15.531   0.698  12.567
51998W        W18781  34.164  18.149  13.880
51999W        W18782   2.700   5.200   3.747
52000W        W18783  34.235  23.113  11.948
52001W        W18784   7.319   6.934  12.970
52002W        W18785  30.981  20.593   5.357
52003W        W18786   8.282  44.728  14.925
52004W        W18787  36.006  22.991   3.813
52005W        W18788  24.743  31.162   4.685
52006W        W18789  22.081  22.028   0.545
52007W        W18790  33.936  24.456  12.411
52008W        W18791  33.406   3.736   2.205
52009W        W18792   4.933  42.357   4.231
52010W        W18793   2.162  43.844   3.795
52011W        W18794   1.358   0.980  13.892
52012W        W18795  33.079  32.940   0.351
52013W        W18796  33.278  31.009   0.840
52014W        W18797  20.168  11.896   4.302
52015W        W18798  39.280  26.935  14.045
52016W        W18799  30.889  23.682  13.307
52017W        W18800  24.136  12.149  14.335
52018W        W18801  38.146  33.489  12.022
52019W        W18802  26.552  35.436   2.689
52020W        W18803  14.619  31.391  12.925
52021W        W18804  22.033  16.425  13.020
52022W        W18805  30.381  16.633   3.538
52023W        W18806   7.212  39.772   2.309
52024W        W18807  20.088   1.948  12.968
52025W        W18808  21.486  33.977   0.925
52026W        W18809  11.263  19.762  12.272
52027W        W18810   9.798   3.358  13.905
52028W        W18811  34.155  10.828  11.108
52029W        W18812   2.013  23.099  10.900
52030W        W18813  15.754  39.124   3.603
52031W        W18814  25.786  13.421  10.750
52032W        W18815  31.977   1.763  14.520
52033W        W18816  27.452  40.313  12.966
52034W        W18817   3.463  25.095  14.803
52035W        W18818   9.657  38.906   0.242
52036W        W18819  43.832  18.644   1.413
52037W        W18820  25.798   0.779  11.592
52038W        W18821   5.804  19.992  12.889
52039W        W18822  40.105  10.445   5.058
52040W        W18823   4.946  25.160   4.996
52041W        W18824  37.426  10.303  11.426
52042W        W18825  30.110  23.602  10.620
52043W        W18826   6.928  33.465  14.467
52044W        W18827  35.652  42.595  11.016
52045W        W18828  21.840  36.750  11.600
52046W        W18829  15.602  37.523  11.458
52047W        W18830  37.989  24.592   4.203
52048W        W18831  13.051   1.903   0.188
52049W        W18832  37.597   5.172   2.350
52050W        W18833   9.791   5.962  10.420
52051W        W18834  30.207   0.725  14.011
52052W        W18835  33.681  38.552  11.187
52053W        W18836  30.483  31.170  14.774
52054W        W18837  18.394  32.012   1.897
52055W        W18838   5.836  44.110   0.858
52056W        W18839   2.620  33.892  12.020
52057W        W18840  31.352   8.253   3.633
52058W        W18841  14.557  43.276   1.833
52059W        W18842  10.749  41.881   2.252
52060W        W18843  27.025   7.696   3.241
52061W        W18844  32.111  18.476  10.743
52062W        W18845  11.723  36.893  12.372
52063W        W18846  17.195  23.517   1.312
52064W        W18847   0.543   6.316  13.832
52065W        W18848   7.295  26.173   1.252
52066W        W18849   5.583  42.807   4.211
52067W        W18850  26.374  31.861  14.933
52068W        W18851  27.633  12.770   3.709
52069W        W18852  26.952  17.681   2.159
52070W        W18853  18.804   8.408   0.837
52071W        W18854  16.300   1.979  11.502
52072W        W18855  36.564  11.843   2.213
52073W        W18856  22.853  15.021   2.789
52074W        W18857  31.000  29.345   2.776
52075W        W18858  11.379  39.632  12.015
52076W        W18859   9.401   2.792   3.576
52077W        W18860  15.650  32.088  14.513
52078W        W18861  22.176  39.551   4.656
52079W        W18862   5.881  24.182   4.637
52080W        W18863  34.092  23.474   4.498
52081W        W18864  42.673  44.356   4.705
52082W        W18865  30.966  16.166  12.180
52083W        W18866   4.327  19.522  11.685
52084W        W18867  36.403  27.031   4.125
52085W        W18868   6.336   1.279  12.931
52086W        W18869  32.153  12.654   4.246
52087W        W18870  39.900  22.043  10.567
52088W        W18871  33.933  36.633   2.676
52089W        W18872  26.285   7.016  11.169
52090W        W18873   7.238  19.189   1.451
52091W        W18874  40.237  40.081   0.375
52092W        W18875  27.510  25.878   0.443
52093W        W18876  19.453  18.318   0.249
52094W        W18877  13.611   5.697  13.022
52095W        W18878  36.565  21.816   5.065
52096W        W18879  11.908  36.936   9.844
52097W        W18880   3.810  10.295  10.809
52098W        W18881  25.396  42.326   4.530
52099W        W18882  33.668   1.531   1.809
52100W        W18883   6.857  40.283   0.307
52101W        W18884  41.895   1.277  11.588
52102W        W18885  13.278  26.974   2.787
52103W        W18886   9.315  39.123   3.296
52104W        W18887  10.791  37.703   0.392
52105W        W18888  17.986  40.475   4.576
52106W        W18889  20.615   5.898  14.341
52107W        W18890  28.369  25.987   2.280
52108W        W18891   9.572  23.534  13.450
52109W        W18892  29.831  42.308  13.808
52110W        W18893   1.267  33.390   4.945
52111W        W18894  38.316   2.546   3.346
52112W        W18895  33.011  11.615  11.123
52113W        W18896  43.751  22.105   3.212
52114W        W18897  28.217   6.355   2.850
52115W        W18898  40.568   5.121   2.284
52116W        W18899  21.771  37.906   1.384
52117W        W18900   8.256  26.170  11.034
52118W        W18901  44.342  10.153   3.811
52119W        W18902  16.842   6.876  13.029
52120W        W18903  29.856  24.385   0.289
52121W        W18904  10.331  14.604   1.615
52122W        W18905  26.094  42.299   0.736
52123W        W18906   7.419  37.476   0.358
52124W        W18907   8.697   7.762  12.924
52125W        W18908  17.162  12.812  14.472
52126W        W18909  40.411  38.604  13.919
52127W        W18910  13.592  18.772   1.290
52128W        W18911  23.500   8.458   4.407
52129W        W18912   2.889  31.178  11.866
52130W        W18913  43.001  17.192  11.478
52131W        W18914  42.349  34.015   3.851
52132W        W18915   2.758  13.187   2.429
52133W        W18916  22.528  37.449  12.550
52134W        W18917  19.124  16.836   0.786
52135W        W18918  12.549  22.034  12.907
52136W        W18919  10.884  43.940  12.517
52137W        W18920  11.231  15.730  14.054
52138W        W18921  19.862  42.691   3.111
52139W        W18922  20.771  17.093  12.888
52140W        W18923  28.071   5.354   2.610
52141W        W18924  16.322  35.089  13.935
52142W        W18925  35.848  19.483  14.439
52143W        W18926  34.918   3.673  12.489
52144W        W18927  40.084   7.766   0.248
52145W        W18928  37.780   2.761  14.412
52146W        W18929  33.121  29.620   0.803
52147W        W18930  44.978  13.813  13.510
52148W        W18931  21.545   0.760  13.473
52149W        W18932  33.965   7.310  13.782
52150W        W18933  44.470  41.956  11.892
52151W        W18934  15.918  39.093   3.108
52152W        W18935  24.452  30.110  12.423
52153W        W18936   9.813  44.296  10.361
52154W        W18937  11.894  34.559  10.391
52155W        W18938  37.924  14.109   3.159
52156W        W18939  42.808  19.540   3.217
52157W        W18940  41.541   4.809   0.963
52158W        W18941  41.988  33.059  13.030
52159W        W18942  25.993  39.678  13.054
52160W        W18943  23.187  13.836  14.814
52161W        W18944  21.267   0.942  14.377
52162W        W18945  20.134  10.243   2.207
52163W        W18946  44.874  24.323  12.963
52164W        W18947   6.127  26.453  12.226
52165W        W18948  44.780  35.012  11.540
52166W        W18949  39.957  22.799  11.009
52167W        W18950  44.559  38.752   2.371
52168W        W18951   8.657  38.759  10.666
52169W        W18952  43.543  37.989  13.583
52170W        W18953   6.138  31.726   1.422
52171W        W18954   3.873  18.610   4.461
52172W        W18955  44.108  37.361  13.903
52173W        W18956  38.648  29.188  12.379
52174W        W18957   8.779   5.591   3.146
52175W        W18958   0.751  29.863   0.476
52176W        W18959  18.455  32.611  13.046
52177W        W18960  35.830  28.139  13.949
52178W        W18961  42.306  34.846  13.345
52179W        W18962  18.071  39.998   3.658
52180W        W18963  16.463   7.273  13.294
52181W        W18964  29.871  21.132   3.677
52182W        W18965  12.661  18.826  12.882
52183W        W18966  11.700   0.258   3.799
52184W        W18967  16.093  19.620   0.996
52185W        W18968  25.684  36.404   2.429
52186W        W18969  37.227  18.217   1.718
52187W        W18970  34.981  24.213  12.132
52188W        W18971  38.611  10.187   2.127
52189W        W18972  21.474  18.831  12.109
52190W        W18973  12.059  25.557  11.241
52191W        W18974  24.827  39.405   5.127
52192W        W18975  21.388  24.277   1.921
52193W        W18976  13.241  28.141  11.538
52194W        W18977  14.213  11.854   0.040
52195W        W18978   7.469  19.664   3.703
52196W        W18979  14.369  41.434  13.786
52197W        W18980  21.960  18.633  12.004
52198W        W18981  27.057  33.927   0.385
52199W        W18982  14.144   1.703  11.845
52200W        W18983  21.741  17.163  14.775
52201W        W18984   7.929  15.879  12.064
52202W        W18985   3.157  33.993  11.166
52203W        W18986  20.714  20.987   4.657
52204W        W18987   6.353  23.541   2.201
52205W        W18988  10.050   2.666  11.969
52206W        W18989   5.712  29.988   2.595
52207W        W18990  32.656   9.248   4.021
52208W        W18991  32.214  38.398  10.799
52209W        W18992  17.523  32.606   3.414
52210W        W18993  38.132  13.228   4.213
52211W        W18994  30.274  22.988   4.447
52212W        W18995  31.059  30.519  12.475
52213W        W18996  18.151  44.369  13.935
52214W        W18997  17.582  37.391   3.685
52215W        W18998  19.163   9.280   2.150
52216W        W18999  43.285  19.122  12.560
52217W        W19000  34.565  27.282   2.190
52218W        W19001  23.515  37.805   4.404
52219W        W19002  17.603  33.672  11.732
52220W        W19003  26.093   1.665  13.997
52221W        W19004   2.110   2.321   0.214
52222W        W19005   0.485  15.661  10.248
52223W        W19006  18.801  20.546   0.739
52224W        W19007  32.378  19.199  14.491
52225W        W19008   9.313   1.837   3.793
52226W        W19009  22.018  28.389  10.094
52227W        W19010  16.806  37.151   1.755
52228W        W19011  11.708  27.016  14.499
52229W        W19012  10.711   8.630   1.116
52230W        W19013   6.356  38.510  13.514
52231W        W19014   3.429   4.861   4.708
52232W        W19015   6.986   0.932  14.037
52233W        W19016  38.661   2.570   0.243
52234W        W19017  39.524   3.377  14.811
52235W        W19018   4.207  28.396   1.262
52236W        W19019  15.581  16.693   2.338
52237W        W19020  29.983  30.378  13.982
52238W        W19021  43.059  26.797  12.763
52239W        W19022  34.438  16.106  11.618
52240W        W19023  14.974  32.006   5.015
52241W        W19024  24.147  39.087   3.263
52242W        W19025  37.495  29.773  13.088
52243W        W19026  43.797  41.593  12.169
52244W        W19027  16.081  19.310  12.504
52245W        W19028   0.882   2.073   2.307
52246W        W19029  24.978   2.896   3.587
52247W        W19030  20.669  29.197  11.650
52248W        W19031   1.938  13.655  14.800
52249W        W19032   8.794  16.172  14.334
52250W        W19033  38.820  42.818   4.157
52251W        W19034  20.201  13.231  11.030
52252W        W19035   7.368   1.935  14.373
52253W        W19036   9.625  20.079   2.587
52254W        W19037  19.000   2.288   3.063
52255W        W19038  18.256   2.436  13.226
52256W        W19039  40.834  39.076  14.743
52257W        W19040  15.102  41.487  11.025
52258W        W19041  22.548  28.698   2.683
52259W        W19042  29.702  20.891  13.292
52260W        W19043  21.254  40.817   1.290
52261W        W19044  17.497  23.992  12.931
52262W        W19045  40.491  32.502   3.412
52263W        W19046  31.589   9.259   1.925
52264W        W19047  20.595  21.132   4.165
52265W        W19048  41.550   6.461   3.206
52266W        W19049  26.653  17.752  12.011
52267W        W19050   6.241  11.202  10.338
52268W        W19051  37.802   0.863   4.651
52269W        W19052  32.854   9.178  11.648
52270W        W19053  41.060  12.464  12.958
52271W        W19054   7.769  31.849  14.550
52272W        W19055   1.206  23.713   1.380
52273W        W19056  12.614  30.166   3.853
52274W        W19057  34.053  43.841   4.702
52275W        W19058   6.665  39.067  12.356
52276W        W19059   2.958  32.574   1.261
52277W        W19060  44.692  28.635   0.840
52278W        W19061  43.640  20.191  10.593
52279W        W19062  25.398   0.898  14.447
52280W        W19063  14.300   5.829  11.336
52281W        W19064  43.613   7.948   1.506
52282W        W19065   8.019  25.614  13.886
52283W        W19066  19.720  23.671  13.459
52284W        W19067  22.754  31.490   4.030
52285W        W19068  26.811   0.065   3.758
52286W        W19069  40.539  40.558   4.040
52287W        W19070  12.503  13.990   0.727
52288W        W19071  33.997  36.323   4.514
52289W        W19072  41.860  33.848   1.734
52290W        W19073  21.768  22.821  10.961
52291W        W19074  24.044  43.147  13.738
52292W        W19075  32.414  42.175   2.154
52293W        W19076  12.671  10.820   2.365
52294W        W19077   3.837  24.538   3.909
52295W        W19078  28.661  31.410  13.448
52296W        W19079  20.799  24.819   0.901
52297W        W19080  28.638  33.827   2.421
52298W        W19081  21.924  38.578  13.010
52299W        W19082  26.641  11.584  13.931
52300W        W19083  30.086  27.404  11.128
52301W        W19084  28.814   1.345   4.935
52302W        W19085  42.276  27.931   4.197
52303W        W19086  13.651   4.483  10.813
52304W        W19087  38.134  35.570   0.232
52305W        W19088   6.592  27.800  11.117
52306W        W19089  13.304  34.028  14.824
52307W        W19090  33.888  15.756  13.819
52308W        W19091  32.109  18.718   1.902
52309W        W19092  22.565   6.853   0.610
52310W        W19093  31.722  27.019  11.397
52311W        W19094  25.687  19.679  11.133
52312W        W19095  33.606  10.794   4.042
52313W        W19096  38.602  13.379   1.843
52314W        W19097  35.821  21.175  11.176
52315W        W19098  13.109  40.326  13.487
52316W        W19099  33.641  43.830   4.101
52317W        W19100  13.722  17.495   0.737
52318W        W19101  12.064  44.843  14.298
52319W        W19102  11.307  12.831  12.533
52320W        W19103   9.701  44.846   3.677
52321W        W19104   5.216  33.646   3.379
52322W        W19105  16.567  23.494   0.725
52323W        W19106  31.550  13.316   4.859
52324W        W19107  14.287  43.281   3.820
52325W        W19108  42.710  11.111  13.346
52326W        W19109  29.632  29.258   3.655
52327W        W19110  44.521  25.106   0.816
52328W        W19111  22.119  12.589   4.376
52329W        W19112  35.327  36.992   0.242
52330W        W19113  19.707  23.596   4.586
52331W        W19114   1.441  29.583  14.061
52332W        W19115  12.830  23.841   3.875
52333W        W19116  44.502  25.972  12.987
52334W        W19117   5.485  21.847   4.041
52335W        W19118   8.265  17.308   3.665
52336W        W19119  21.056  26.317   4.249
52337W        W19120  20.018   9.431  11.079
52338W        W19121  41.315  29.925  13.849
52339W        W19122  39.749  34.831  11.564
52340W        W19123   8.294  31.124   4.550
52341W        W19124  43.831  38.407   4.840
52342W        W19125   3.908  19.218   0.413
52343W        W19126   2.494  24.191  13.098
52344W        W19127  40.264  36.214   0.691
52345W        W19128  12.711  36.578   2.176
52346W        W19129  14.758  13.558   2.450
52347W        W19130  37.713   8.173   2.302
52348W        W19131  12.282  25.511  14.543
52349W        W19132  39.508  23.759  13.662
52350W        W19133  44.531  21.595  14.334
52351W        W19134  12.393  29.084  10.740
52352W        W19135  31.187   6.782   4.575
52353W        W19136  22.485  30.603  12.453
52354W        W19137   0.073  16.573   2.386
52355W        W19138  34.664  23.593   2.792
52356W        W19139   3.209  36.349   4.319
52357W        W19140  27.663  19.251   0.862
52358W        W19141  32.821  40.417  12.538
52359W        W19142  34.178  34.846  11.191
52360W        W19143   6.330  25.119   5.120
52361W        W19144  36.176  13.661   3.222
52362W        W19145  24.441  18.281   1.662
52363W        W19146  25.922  27.947   4.612
52364W        W19147  34.554  44.458   4.165
52365W        W19148  40.347  41.534   4.229
52366W        W19149  13.352   5.761  13.619
52367W        W19150   8.398   9.384  13.134
52368W        W19151  36.390  10.220  13.644
52369W        W19152  42.471  16.371  13.002
52370W        W19153  44.683  16.390  13.004
52371W        W19154  12.241  16.673  14.462
52372W        W19155  12.280  28.602   1.703
52373W        W19156  33.417  33.879  13.362
52374W        W19157  11.692  40.915  13.940
52375W        W19158  34.136   5.133   3.248
52376W        W19159   6.910  12.568   3.158
52377W        W19160  36.877   3.961   0.371
52378W        W19161  16.170  24.022   3.735
52379W        W19162   6.795  11.662   1.734
52380W        W19163   9.257  14.717   3.274
52381W        W19164   7.733  37.791  10.610
52382W        W19165  20.718  43.654  11.887
52383W        W19166  25.000   2.211   0.200
52384W        W19167  35.569  30.346  13.450
52385W        W19168  44.119  10.728  10.966
52386W        W19169  31.156  20.944   3.260
52387W        W19170  35.639  10.146  11.154
52388W        W19171  17.124  41.363   2.854
52389W        W19172  35.562  12.596  13.311
52390W        W19173  41.080  25.929   4.260
52391W        W19174  33.994   9.158   2.266
52392W        W19175  25.242  21.619  12.895
52393W        W19176  15.804  28.167  12.905
52394W        W19177   4.220   0.509  11.071
52395W        W19178  25.201  13.168   0.694
52396W        W19179  44.411  39.979   3.275
52397W        W19180  16.868  22.983   0.738
52398W        W19181  27.952  42.748   1.988
52399W        W19182  13.500  17.280   3.201
52400W        W19183  39.584  31.071  11.827
52401W        W19184  24.151   2.007   3.146
52402W        W19185   2.306  11.460  11.625
52403W        W19186   4.482  13.079  14.259
52404W        W19187  19.051  19.270   0.459
52405W        W19188  16.308   4.009  13.091
52406W        W19189   3.885  19.920   3.613
52407W        W19190  41.045  37.094  11.625
52408W        W19191  13.579  35.896   0.209
52409W        W19192  32.720   7.840   1.374
52410W        W19193  40.515  39.463  11.972
52411W        W19194  25.182   7.698  12.027
52412W        W19195  18.060  16.994  10.776
52413W        W19196  27.712  30.616   4.584
52414W        W19197   7.223  28.903   1.393
52415W        W19198   5.845  30.502   4.336
52416W        W19199  39.975  21.630   2.691
52417W        W19200  29.462  29.647  12.070
52418W        W19201  41.517  31.857   0.391
52419W        W19202  35.187  18.416   1.001
52420W        W19203  29.513  44.963  11.329
52421W        W19204  29.922  12.231   2.025
52422W        W19205  16.238  39.432   3.392
52423W        W19206  36.151  11.890   1.181
52424W        W19207  19.538  12.851   4.174
52425W        W19208  24.887  17.041  12.311
52426W        W19209  20.183  33.380   4.412
52427W        W19210  37.078  40.168   0.018
52428W        W19211   0.647  37.893  11.198
52429W        W19212  27.745  12.777  14.476
52430W        W19213  26.564   7.111  10.266
52431W        W19214  39.038  16.213  10.824
52432W        W19215   3.363  40.370  12.924
52433W        W19216  28.912   7.110  12.893
52434W        W19217   3.372  20.419  13.894
52435W        W19218  13.634   8.706   5.444
52436W        W19219  20.364  13.341  13.974
52437W        W19220  22.502  12.713  11.900
52438W        W19221  28.223   9.210   4.177
52439W        W19222  28.405  39.229   1.930
52440W        W19223  26.522  14.628   3.085
52441W        W19224  25.911  39.287  14.026
52442W        W19225  14.169  17.846  11.117
52443W        W19226  42.102  31.132  13.360
52444W        W19227   4.429  22.186  10.646
52445W        W19228  23.120  41.890   4.068
52446W        W19229  36.340  32.980   1.808
52447W        W19230  30.038  35.124   1.488
52448W        W19231   6.461  38.869  14.938
52449W        W19232  16.758  17.194   4.048
52450W        W19233  19.214  17.584   9.740
52451W        W19234   0.855  12.299  13.623
52452W        W19235  33.917   5.255  14.901
52453W        W19236  38.384  25.200  12.798
52454W        W19237  14.166  22.256   4.590
52455W        W19238  13.859  17.779  13.374
52456W        W19239  23.009   6.792   2.934
52457W        W19240  11.355  16.379   0.955
52458W        W19241  33.137  27.154  10.747
52459W        W19242  44.310   2.881   4.529
52460W        W19243  16.415  23.785  10.999
52461W        W19244  14.765   8.317  11.835
52462W        W19245  42.294  38.393  11.496
52463W        W19246   3.254  16.720  13.885
52464W        W19247   0.776  15.289   4.029
52465W        W19248   9.202  29.644  14.819
52466W        W19249  11.585   1.892  11.682
52467W        W19250  43.765  16.121  12.496
52468W        W19251  16.027  22.187   3.420
52469W        W19252  18.064   4.357  13.470
52470W        W19253   5.108  10.733  12.686
52471W        W19254   6.246  22.322  14.032
52472W        W19255  34.384  19.491  11.384
52473W        W19256  42.447  32.795  10.824
52474W        W19257  25.720  34.139   0.941
52475W        W19258  37.628   4.778   3.291
52476W        W19259   5.943  35.654  14.004
52477W        W19260  23.406  18.729  10.701
52478W        W19261  10.750  14.371  12.169
52479W        W19262  21.230  11.646   3.801
52480W        W19263   7.805  11.791  14.544
52481W        W19264  23.546  21.831   2.389
52482W        W19265  17.243  28.902   1.592
52483W        W19266  17.751  14.312   3.115
52484W        W19267   6.732  40.932   0.926
52485W        W19268  33.514  16.739   2.816
52486W        W19269   3.471  37.795  12.868
52487W        W19270  18.470  32.527   4.076
52488W        W19271   8.723  13.887   0.409
52489W        W19272  23.595  39.353   2.954
52490W        W19273  30.565  25.587  14.342
52491W        W19274  39.635  27.228   4.783
52492W        W19275   4.857   5.677  13.995
52493W        W19276  15.128  44.009   1.377
52494W        W19277  38.228  10.401   4.494
52495W        W19278   0.744  42.937  11.633
52496W        W19279  20.646  32.858   1.277
52497W        W19280   8.622  15.826   0.783
52498W        W19281  36.705  16.333  11.936
52499W        W19282  29.182  34.773  14.821
52500W        W19283  11.122   8.990  12.156
52501W        W19284   2.840  27.738  11.961
52502W        W19285   7.690  32.317   1.377
52503W        W19286  11.149  44.276  11.363
52504W        W19287   0.724   4.745   0.518
52505W        W19288  22.726  14.210  13.315
52506W        W19289  34.189  33.794   0.767
52507W        W19290  26.252  34.660  10.554
52508W        W19291   4.807   1.948   1.278
52509W        W19292  16.617  40.596   2.257
52510W        W19293  16.359  31.883   3.625
52511W        W19294   1.972  12.286  14.504
52512W        W19295  16.839  38.171  13.331
52513W        W19296  11.109  17.232  11.750
52514W        W19297  37.122   2.235   0.776
52515W        W19298  43.250  16.364   0.613
52516W        W19299   7.161  28.419   0.384
52517W        W19300  42.235  26.463   4.931
52518W        W19301  24.419   8.502   4.577
52519W        W19302  20.842  20.546   1.158
52520W        W19303  44.694  23.710  10.548
52521W        W19304   2.867  10.184  12.610
52522W        W19305  21.262  18.118  11.617
52523W        W19306   1.449  30.464  11.035
52524W        W19307  26.022   2.686  11.005
52525W        W19308  18.823   3.982  12.747
52526W        W19309  22.057  43.789   2.636
52527W        W19310  32.564  14.100   0.470
52528W        W19311  13.394  15.694   4.585
52529W        W19312  25.103   8.393  10.647
52530W        W19313  12.353  26.928  11.008
52531W        W19314  22.948  24.125   0.978
52532W        W19315  37.415  27.368   0.041
52533W        W19316  42.392   0.030   4.126
52534W        W19317  22.318   2.822  13.840
52535W        W19318  19.654   4.523  10.326
52536W        W19319  31.144   9.599   4.115
52537W        W19320  27.127   6.454  13.664
52538W        W19321  35.889  34.965   0.395
52539W        W19322  17.801   3.812  12.698
52540W        W19323   2.017   3.900  14.783
52541W        W19324  30.992   9.635   0.821
52542W        W19325  23.510  22.941  13.843
52543W        W19326  37.837  31.434   0.898
52544W        W19327   6.631  44.724  14.935
52545W        W19328  43.999   0.981   2.147
52546W        W19329   6.272  15.296   1.785
52547W        W19330  22.595  18.643   0.869
52548W        W19331  33.497  41.138  11.624
52549W        W19332   1.996   8.261   4.944
52550W        W19333  15.716  23.951  14.135
52551W        W19334  20.147  40.814   0.215
52552W        W19335  41.964  38.121   0.269
52553W        W19336  40.010  20.543   1.230
52554W        W19337   2.982   8.922   3.330
52555W        W19338   3.493   3.212  14.010
52556W        W19339   9.272  44.448  12.842
52557W        W19340  40.891  10.759   3.712
52558W        W19341  31.286   3.628   0.687
52559W        W19342  40.879  15.682   1.709
52560W        W19343  19.740  24.753   2.566
52561W        W19344  37.894  27.983   4.961
52562W        W19345  31.654  35.143  13.760
52563W        W19346  41.065  33.542   0.472
52564W        W19347  33.847  30.339  11.917
52565W        W19348   2.442  18.712   4.708
52566W        W19349  27.074   1.890   4.635
52567W        W19350   4.641  37.373  14.214
52568W        W19351  17.731  38.952  12.097
52569W        W19352  23.586   8.891  13.492
52570W        W19353  34.185  16.675  12.453
52571W        W19354  17.583   6.341   1.389
52572W        W19355  36.950   4.384   3.248
52573W        W19356   3.561  12.318   4.596
52574W        W19357   9.294  28.555  11.392
52575W        W19358  12.084  11.650  13.796
52576W        W19359  10.559   5.774  10.672
52577W        W19360  18.621   5.933   0.032
52578W        W19361  22.250  14.885  10.610
52579W        W19362  33.435  11.960   2.891
52580W        W19363  23.305  16.106   0.988
52581W        W19364  38.369   0.463  14.282
52582W        W19365  14.208   4.391  12.091
52583W        W19366  44.951  10.895   4.153
52584W        W19367  35.444  32.347  11.930
52585W        W19368  10.012  32.590  10.068
52586W        W19369   6.610  28.418  14.713
52587W        W19370  19.789  42.014   1.914
52588W        W19371  22.263   5.814   1.684
52589W        W19372  39.730   6.244   0.809
52590W        W19373  28.232  33.420   1.155
52591W        W19374  25.912  43.624  14.418
52592W        W19375  31.386   1.586  14.625
52593W        W19376  34.466  26.730  14.575
52594W        W19377  15.153  34.369   1.179
52595W        W19378  37.223  37.343  14.129
52596W        W19379  21.646  14.619   0.885
52597W        W19380   7.358  41.370  14.286
52598W        W19381  41.164  16.567   1.788
52599W        W19382  15.981  35.081   0.095
52600W        W19383  14.274  35.622   4.643
52601W        W19384  23.155  23.505   3.195
52602W        W19385  30.097  16.762  12.001
52603W        W19386   7.834  37.805   0.378
52604W        W19387  23.234  15.662  12.378
52605W        W19388  17.803  43.982  12.889
52606W        W19389  37.324  31.459   0.943
52607W        W19390  28.118  18.329   0.441
52608W        W19391  13.549  31.150   3.801
52609W        W19392  44.502  27.188  14.447
52610W        W19393  27.172  38.369   1.909
52611W        W19394  15.540  14.333  10.211
52612W        W19395  30.586  39.075   3.662
52613W        W19396  36.873  37.434   4.132
52614W        W19397  44.765  27.129   4.697
52615W        W19398  27.930  17.828  11.687
52616W        W19399  14.306  11.878  13.026
52617W        W19400  32.338  38.624   0.946
52618W        W19401  41.717  41.394  12.476
52619W        W19402  37.248  35.484   2.424
52620W        W19403  37.070  10.805  12.068
52621W        W19404  31.519  12.753   1.384
52622W        W19405  29.196  21.278   1.426
52623W        W19406  20.072  24.627  10.651
52624W        W19407  35.587   8.977   3.095
52625W        W19408  18.994  40.419  14.376
52626W        W19409  35.224  35.940   3.192
52627W        W19410  28.734  21.592   1.884
52628W        W19411  37.826  30.488  12.422
52629W        W19412  31.324  36.909  11.595
52630W        W19413  10.681  14.964   1.394
52631W        W19414  23.027   0.806  13.942
52632W        W19415   3.728  39.788   1.152
52633W        W19416  11.172   7.648  12.501
52634W        W19417  31.124   4.338  12.964
52635W        W19418   1.698  34.433   0.357
52636W        W19419  29.695  22.611  11.155
52637W        W19420   2.487  10.759  10.833
52638W        W19421   2.906  22.349   2.799
52639W        W19422  32.801  44.187   0.205
52640W        W19423  27.958  38.931  11.998
52641W        W19424  27.986   3.298   0.258
52642W        W19425   3.916  33.242  14.645
52643W        W19426  23.167   6.233   3.628
52644W        W19427  33.540  10.400  11.458
52645W        W19428  39.464   1.867  13.538
52646W        W19429  25.008  27.727  11.475
52647W        W19430   6.312  42.554  10.526
52648W        W19431  19.097  39.023   4.263
52649W        W19432   4.241  43.424  12.427
52650W        W19433  35.641  35.526   4.204
52651W        W19434  32.573  13.292   3.277
52652W        W19435  41.433  41.070   0.197
52653W        W19436   9.829  12.821  13.842
52654W        W19437  42.312  16.270   0.819
52655W        W19438  12.092  39.968  13.895
52656W        W19439  18.056  15.738   2.630
52657W        W19440   5.194  27.654   1.415
52658W        W19441  33.165   8.671   2.594
52659W        W19442  14.824  20.870  12.152
52660W        W19443  39.859   3.305  11.120
52661W        W19444  38.827  26.173  14.488
52662W        W19445  17.292  25.327  13.010
52663W        W19446  28.544  24.033  11.958
52664W        W19447  29.098  39.842   0.268
52665W        W19448  19.781  34.541   1.672
52666W        W19449  35.825  20.199  10.735
52667W        W19450  27.350  35.872   0.758
52668W        W19451   3.563  19.656   0.444
52669W        W19452  20.761  12.300  13.137
52670W        W19453  37.809  27.696  14.848
52671W        W19454  21.860   0.522  10.077
52672W        W19455   4.326  18.895   1.120
52673W        W19456   5.777   0.406  12.956
52674W        W19457   0.015  16.524   0.405
52675W        W19458  20.941   3.298  14.733
52676W        W19459  20.754  41.760  12.673
52677W        W19460  28.218  17.524  11.373
52678W        W19461  27.946  40.085  14.819
52679W        W19462   9.289  22.159  13.395
52680W        W19463  37.525   9.968  11.850
52681W        W19464  29.579  28.923   0.290
52682W        W19465  39.569  39.996   1.082
52683W        W19466   1.395  34.510  13.023
52684W        W19467  30.965  10.392  13.969
52685W        W19468   8.755   5.223  14.584
52686W        W19469  38.769  24.131   1.371
52687W        W19470  29.953  43.729   1.176
52688W        W19471   0.013  10.409   4.401
52689W        W19472   0.434   0.188   4.724
52690W        W19473  21.553  25.493   4.250
52691W        W19474  24.101  37.540  13.497
52692W        W19475  21.458  40.057   4.204
52693W        W19476  17.416  26.195  11.491
52694W        W19477  31.923  35.544  12.398
52695W        W19478  21.612  38.888   4.346
52696W        W19479   8.388  34.509   3.769
52697W        W19480  40.298  41.773  14.323
52698W        W19481  37.597  35.374   4.775
52699W        W19482  14.056  28.354   2.765
52700W        W19483  42.942   8.886  12.074
52701W        W19484   4.671  20.010   4.100
52702W        W19485   4.008  11.585  13.493
52703W        W19486  36.546   1.707  14.354
52704W        W19487  19.944  29.513  10.172
52705W        W19488  20.730  29.712  11.511
52706W        W19489   3.006  34.517   3.633
52707W        W19490  31.135  43.401   4.588
52708W        W19491  10.588   9.627  14.441
52709W        W19492  26.233  38.861  10.693
52710W        W19493  26.760  20.743  12.954
52711W        W19494   5.798  12.381   1.000
52712W        W19495   0.880  23.100  12.517
52713W        W19496  23.450   1.882   2.687
52714W        W19497  43.919   2.245  12.329
52715W        W19498  44.038   7.633  12.599
52716W        W19499  42.055  18.548  11.892
52717W        W19500  40.438  28.123  10.249
52718W        W19501  34.030  32.878   4.203
52719W        W19502   2.855  42.055  13.437
52720W        W19503  10.588  30.872  14.334
52721W        W19504   2.852  34.953   0.709
52722W        W19505  36.875  38.243  11.127
52723W        W19506  35.646  41.232  11.215
52724W        W19507   7.817   8.719  13.631
52725W        W19508   5.623   2.208  14.480
52726W        W19509  17.829  24.437   1.834
52727W        W19510  13.587  44.420   0.930
52728W        W19511  39.315  25.119  10.573
52729W        W19512  40.340  37.118   0.791
52730W        W19513  31.222  42.967  12.012
52731W        W19514  26.293  13.608   2.784
52732W        W19515  11.746  21.604   4.021
52733W        W19516   8.447  44.556   3.299
52734W        W19517  17.091  27.275   0.701
52735W        W19518  33.899  41.485   3.636
52736W        W19519   1.892   6.333  12.457
52737W        W19520  34.332  42.743  12.101
52738W        W19521   1.694  32.076   2.216
52739W        W19522  26.478  13.653   1.059
52740W        W19523  23.207   8.927   1.335
52741W        W19524  26.209  44.238  10.687
52742W        W19525  13.800   8.057   2.744
52743W        W19526  43.937   5.899  11.882
52744W        W19527  10.404  11.644   3.720
52745W        W19528  13.621  31.446   0.824
52746W        W19529  18.545   4.914  14.180
52747W        W19530   9.830  17.774   3.619
52748W        W19531  42.841  22.161  13.802
52749W        W19532   6.100  22.517  10.155
52750W        W19533   2.384   3.504   5.091
52751W        W19534  22.557  19.774   4.678
52752W        W19535  31.426  24.701  12.127
52753W        W19536  15.630  16.176   2.222
52754W        W19537  17.952  19.558   0.413
52755W        W19538  14.024  42.232  13.725
52756W        W19539  24.404  43.350  14.420
52757W        W19540  29.659  23.798  13.967
52758W        W19541  41.128  35.507   1.298
52759W        W19542   8.113  32.415   0.252
52760W        W19543  21.966  13.664   4.219
52761W        W19544  36.507  19.641  13.890
52762W        W19545   4.635   0.189  11.775
52763W        W19546   0.043  27.585  13.429
52764W        W19547  21.375  16.939  12.063
52765W        W19548  43.892  12.831   0.546
52766W        W19549  31.649  26.673  10.647
52767W        W19550  11.673  17.676  11.106
52768W        W19551  42.108  15.795  10.333
52769W        W19552  23.785  16.167   0.732
52770W        W19553  20.219   0.034  12.001
52771W        W19554  44.391  30.243   4.251
52772W        W19555  40.349   8.679  14.346
52773W        W19556   1.443  43.273  11.612
52774W        W19557  27.946  37.319   0.845
52775W        W19558   4.762  10.264   3.279
52776W        W19559  14.607   5.894  12.629
52777W        W19560   3.294  22.812  13.482
52778W        W19561  39.778  10.613  12.690
52779W        W19562  38.918  14.938   4.155
52780W        W19563  40.917   5.548   4.081
52781W        W19564  35.935  42.423  11.931
52782W        W19565  18.086   8.401   3.662
52783W        W19566  28.963  33.499  13.037
52784W        W19567  30.118  13.241   3.797
52785W        W19568  26.525   9.616   1.327
52786W        W19569  18.771  12.171   2.336
52787W        W19570  32.144  11.703   3.207
52788W        W19571  15.138  33.831  14.237
52789W        W19572  44.876  23.651  13.507
52790W        W19573  43.416  19.970   2.670
52791W        W19574   0.301  44.985   2.363
52792W        W19575  41.505  37.354   5.017
52793W        W19576  29.651  33.725   4.710
52794W        W19577  44.602  25.919   2.222
52795W        W19578  38.346  18.187  14.850
52796W        W19579  13.859  12.637   3.590
52797W        W19580  38.037   1.301  10.433
52798W        W19581   9.795  14.839   0.506
52799W        W19582  20.098  19.227   0.478
52800W        W19583  42.956   3.350   0.382
52801W        W19584   8.782  44.742  11.593
52802W        W19585  16.298  11.383  13.585
52803W        W19586  21.928  17.957   2.971
52804W        W19587   3.211  23.508   0.318
52805W        W19588  26.620  37.373   3.841
52806W        W19589   0.719  15.115   1.655
52807W        W19590  35.074   8.230   0.375
52808W        W19591  26.467  41.025   4.554
52809W        W19592  20.392  39.337   1.273
52810W        W19593  40.430  32.849  12.912
52811W        W19594  22.478  32.691   4.620
52812W        W19595  41.358   4.922   0.462
52813W        W19596   5.146  44.349   1.329
52814W        W19597  14.034  25.620  13.810
52815W        W19598  24.468  27.163  11.018
52816W        W19599  44.135  34.538   4.052
52817W        W19600  41.971  30.315  13.315
52818W        W19601  24.998  26.068  13.130
52819W        W19602   9.212   6.279  14.666
52820W        W19603  20.774   8.993  11.225
52821W        W19604  22.101  37.683   1.722
52822W        W19605   8.783  34.369  10.705
52823W        W19606  27.976  19.435  14.376
52824W        W19607  38.313  14.975   3.133
52825W        W19608  42.071  43.428   0.383
52826W        W19609  26.002  12.607  13.322
52827W        W19610  36.464  13.072   1.309
52828W        W19611  40.585  30.820   4.244
52829W        W19612  43.064  32.868  13.137
52830W        W19613  42.271   9.383  13.443
52831W        W19614   3.311  19.166  10.791
52832W        W19615  43.492  27.250  14.455
52833W        W19616  38.303  12.285   3.530
52834W        W19617  21.135   0.829   2.748
52835W        W19618  26.796  44.516   2.909
52836W        W19619  29.528  32.103   1.029
52837W        W19620   1.805  43.635  11.180
52838W        W19621  34.548  28.494   4.519
52839W        W19622  44.856  16.376  12.496
52840W        W19623  10.581  19.576   3.524
52841W        W19624  13.913  34.419   4.661
52842W        W19625  38.454  19.730  10.735
52843W        W19626   0.504  10.263   1.821
52844W        W19627  18.463   4.030   4.573
52845W        W19628   5.733  30.941  12.836
52846W        W19629  26.367  43.364  14.280
52847W        W19630  17.922  16.246  14.360
52848W        W19631  23.635   8.390   2.976
52849W        W19632  41.543  37.023  11.589
52850W        W19633  27.695   0.288   1.452
52851W        W19634  10.806   5.896  11.103
52852W        W19635  30.183  26.284  13.310
52853W        W19636  16.396  29.342  13.474
52854W        W19637  42.366  30.381   4.981
52855W        W19638  16.345  43.877   1.344
52856W        W19639  31.128   0.135  11.184
52857W        W19640  19.143  25.719   2.322
52858W        W19641   8.969   8.691   5.247
52859W        W19642   4.901  16.737  10.598
52860W        W19643  16.517   1.520   1.065
52861W        W19644  27.465  17.385  10.570
52862W        W19645   1.939  43.389  12.159
52863W        W19646   9.954   4.949   2.591
52864W        W19647  43.944  32.052   1.604
52865W        W19648   8.001  25.998   4.640
52866W        W19649  30.622  24.376   3.267
52867W        W19650  44.885  19.261  14.784
52868W        W19651  23.925  42.941   0.268
52869W        W19652   8.719  39.258  11.607
52870W        W19653  36.368  36.992  12.602
52871W        W19654   4.586  13.282   5.131
52872W        W19655  27.712  43.353  14.807
52873W        W19656  34.587  36.532  11.439
52874W        W19657  39.990  20.334  10.571
52875W        W19658  22.055  16.127  10.946
52876W        W19659  19.812   5.471   3.550
52877W        W19660  22.762  24.410   2.645
52878W        W19661  16.643  35.384   3.928
52879W        W19662  24.072  39.393  14.504
52880W        W19663  10.390  14.361   2.140
52881W        W19664   5.912  25.756   1.885
52882W        W19665   9.223  16.782   1.663
52883W        W19666   4.803  24.458   3.663
52884W        W19667   3.297  10.985  14.341
52885W        W19668   6.954   7.462  13.397
52886W        W19669   4.343  43.804  11.516
52887W        W19670   7.774  43.799  10.690
52888W        W19671  15.600  39.582   3.741
52889W        W19672   1.489  40.474   3.864
52890W        W19673  34.587   4.312   2.931
52891W        W19674  22.128  13.787  13.894
52892W        W19675  36.266  20.234  11.637
52893W        W19676   0.342  29.169   3.299
52894W        W19677  20.548  27.829   1.693
52895W        W19678  31.454  11.176  13.908
52896W        W19679   6.872  43.756  10.662
52897W        W19680  16.690  28.628  13.018
52898W        W19681  17.298  11.449  14.393
52899W        W19682  21.025  27.885  11.665
52900W        W19683  36.019  30.115   2.800
52901W        W19684  35.101  13.820   2.392
52902W        W19685  24.632  19.990   1.850
52903W        W19686  43.224   9.436  14.333
52904W        W19687  29.159   1.374   3.103
52905W        W19688  14.897  35.268   2.818
52906W        W19689  31.926  22.715   2.821
52907W        W19690  26.526  34.328  13.795
52908W        W19691   3.431  40.249  13.425
52909W        W19692  20.571  17.398  14.956
52910W        W19693  43.469   3.825   4.166
52911W        W19694  34.859   0.508  10.781
52912W        W19695  23.020  14.970   4.145
52913W        W19696  42.685  25.203  12.370
52914W        W19697   4.685  43.018   4.653
52915W        W19698  24.615   7.281   1.796
52916W        W19699  14.356  34.841   9.846
52917W        W19700  36.343  19.301   3.686
52918W        W19701  20.028  10.246   1.297
52919W        W19702   7.678  32.612  12.884
52920W        W19703   7.383  18.241   1.267
52921W        W19704  36.165  27.950   3.277
52922W        W19705  39.258  25.685  12.514
52923W        W19706   5.688   6.891  14.270
52924W        W19707  23.908   7.264   1.284
52925W        W19708   2.485  44.873  10.449
52926W        W19709  18.079  18.955   2.933
52927W        W19710  39.024  14.312   2.342
52928W        W19711   5.219  25.979   3.810
52929W        W19712  31.514  38.632  11.034
52930W        W19713  33.356   7.139  14.851
52931W        W19714  17.813  22.107   1.000
52932W        W19715  38.586  26.935   4.060
52933W        W19716  30.817  37.708   2.609
52934W        W19717  28.721  43.421  13.938
52935W        W19718  17.509   0.872  13.956
52936W        W19719  22.147  34.594  14.292
52937W        W19720  10.806  25.294  11.096
52938W        W19721  38.028  14.770  12.389
52939W        W19722  22.950  26.326   3.709
52940W        W19723   6.703   6.275   2.295
52941W        W19724   4.413  17.947   4.091
52942W        W19725  33.008  29.951   1.815
52943W        W19726   2.424  32.588   3.853
52944W        W19727  18.763  41.916   4.325
52945W        W19728  31.671  13.490  14.269
52946W        W19729  25.778   3.134  11.445
52947W        W19730  34.811  38.032  13.334
52948W        W19731  38.054  25.076   0.113
52949W        W19732   2.774  27.225  13.813
52950W        W19733   1.160   8.630   2.335
52951W        W19734  41.803  27.400  12.191
52952W        W19735  17.720   1.103  10.468
52953W        W19736   1.184  38.972   3.097
52954W        W19737  43.917  36.491  12.867
52955W        W19738  32.084   1.895   0.588
52956W        W19739  37.214  31.814  14.933
52957W        W19740  35.310  32.992   3.250
52958W        W19741  33.006  22.655  10.504
52959W        W19742   4.194  32.840   1.789
52960W        W19743  38.936  12.108   1.858
52961W        W19744   9.931  26.923   1.516
52962W        W19745  29.996   9.180  10.617
52963W        W19746   9.558  22.576  11.654
52964W        W19747  44.330   8.826   1.895
52965W        W19748  29.883   6.250   2.631
52966W        W19749   6.462  29.016   9.743
52967W        W19750  10.108  24.102   0.471
52968W        W19751  40.259  36.977  13.360
52969W        W19752  37.820  13.091   4.658
52970W        W19753  30.600  26.442   4.507
52971W        W19754  26.779  44.346  12.768
52972W        W19755  16.710  29.680  13.717
52973W        W19756   4.651   1.145   4.690
52974W        W19757  22.165  24.986  13.111
52975W        W19758  37.709  10.302   2.148
52976W        W19759  30.499  16.827   1.262
52977W        W19760  25.965   4.034  14.287
52978W        W19761  32.598  11.045  14.482
52979W        W19762   8.837   7.274   9.919
52980W        W19763  27.781  24.498   4.540
52981W        W19764  33.950  11.294   1.259
52982W        W19765  30.253  34.950  12.530
52983W        W19766  14.016  42.327  14.639
52984W        W19767  27.495  25.678   1.390
52985W        W19768  37.380  36.068  12.473
52986W        W19769  25.744  39.327   0.442
52987W        W19770  32.989  26.278   3.999
52988W        W19771  20.564  20.680   0.150
52989W        W19772  38.270  39.707   4.870
52990W        W19773  21.139  38.123  14.950
52991W        W19774  33.247  14.265  10.290
52992W        W19775  16.670  41.335   4.605
52993W        W19776  17.567  34.594  13.853
52994W        W19777  10.121  12.088  14.543
52995W        W19778  24.445  30.081   3.189
52996W        W19779  33.905  28.399  14.057
52997W        W19780  41.279  24.712   4.086
52998W        W19781  15.067  12.177   4.387
52999W        W19782  33.552  44.687   5.028
53000W        W19783  37.476  44.549  12.556
53001W        W19784  35.432  39.036  13.057
53002W        W19785   2.773  27.747  13.799
53003W        W19786  15.163  41.435  13.499
53004W        W19787  17.282  29.479  11.091
53005W        W19788  43.285  33.403  14.020
53006W        W19789  33.980  31.299   3.248
53007W        W19790  25.907   4.741   4.743
53008W        W19791  29.123  40.091  14.374
53009W        W19792  42.821  15.556   3.134
53010W        W19793  25.571   8.765   3.152
53011W        W19794   6.647  28.960  14.760
53012W        W19795  21.960   5.426  12.943
53013W        W19796  13.635  26.574   0.881
53014W        W19797  33.964  36.947  13.946
53015W        W19798  33.426   2.713   2.233
53016W        W19799  19.220  30.413  12.181
53017W        W19800  41.437  44.308   1.355
53018W        W19801   5.411  35.999   2.571
53019W        W19802  35.149  35.062   1.457
53020W        W19803   9.716  34.227  12.342
53021W        W19804   3.024  36.061   2.151
53022W        W19805  31.281  17.230   4.918
53023W        W19806  33.946  13.142   1.783
53024W        W19807  31.830  29.063  13.972
53025W        W19808  18.432  24.852   3.618
53026W        W19809   8.410  24.435  13.330
53027W        W19810  38.136  42.773   2.628
53028W        W19811  11.179  36.171   1.145
53029W        W19812  21.445  32.863   1.893
53030W        W19813  31.619  22.239   3.715
53031W        W19814  23.652   2.219  14.948
53032W        W19815   5.656  23.642  12.878
53033W        W19816  24.975  38.537   3.299
53034W        W19817  22.790  41.836  13.053
53035W        W19818   5.943   1.378   2.749
53036W        W19819  20.045   0.889   3.098
53037W        W19820  37.068  22.568  14.241
53038W        W19821  39.398  43.759  10.519
53039W        W19822  10.602  14.395  12.994
53040W        W19823  16.931  26.389   4.565
53041W        W19824  25.557  32.393   3.796
53042W        W19825  44.740   5.386   1.849
53043W        W19826  36.375  16.092  10.508
53044W        W19827  13.256  13.311  12.997
53045W        W19828  10.725  19.312   0.464
53046W        W19829  27.179  20.179   3.697
53047W        W19830  26.403  26.409  13.706
53048W        W19831  30.975  34.566  10.742
53049W        W19832  10.894   2.401   3.273
53050W        W19833  29.078  29.276  12.061
53051W        W19834   5.549  32.343  14.386
53052W        W19835  44.720  15.788  11.130
53053W        W19836  40.234  32.942   3.326
53054W        W19837  39.603  15.190  11.999
53055W        W19838  26.052   9.792   2.185
53056W        W19839  14.667   6.313   2.958
53057W        W19840  37.116  21.576   4.648
53058W        W19841  38.532  17.716   0.719
53059W        W19842  30.190  30.450  11.229
53060W        W19843  41.044  37.386  14.618
53061W        W19844   2.679  36.000   3.093
53062W        W19845  15.304  33.829   2.872
53063W        W19846  33.080  35.410  14.238
53064W        W19847   8.216  25.770  14.936
53065W        W19848   9.583  40.988  11.199
53066W        W19849  35.039  26.477  12.466
53067W        W19850   9.933   4.910  10.723
53068W        W19851   8.316  12.336   2.077
53069W        W19852  37.982  29.420  14.345
53070W        W19853  36.048  12.782  10.597
53071W        W19854  36.288  41.711   0.220
53072W        W19855   6.858  29.163   3.688
53073W        W19856   0.542  36.364  12.641
53074W        W19857  27.137  34.905  13.079
53075W        W19858  16.224  39.039   0.773
53076W        W19859  18.316  40.248   3.279
53077W        W19860   4.113  29.064   4.898
53078W        W19861  12.702  41.255  13.154
53079W        W19862  34.169  22.449  12.560
53080W        W19863  25.529   8.122  10.453
53081W        W19864  32.538  26.633   1.923
53082W        W19865  24.967   4.884   1.351
53083W        W19866  16.067  25.545   0.897
53084W        W19867  26.750   9.314   0.906
53085W        W19868  19.140  42.997  13.463
53086W        W19869   4.709  38.286  13.891
53087W        W19870   3.933  16.327   1.533
53088W        W19871  22.261  39.603  12.646
53089W        W19872  10.456  13.463  12.486
53090W        W19873  15.234  29.366  10.723
53091W        W19874  36.828  11.348  12.414
53092W        W19875   9.326  33.416  10.420
53093W        W19876  40.907  44.316  11.213
53094W        W19877   3.929   9.141   0.438
53095W        W19878   8.157  15.592  12.403
53096W        W19879  43.486  15.115  14.292
53097W        W19880  40.537  30.883  12.827
53098W        W19881  36.335  25.597   1.703
53099W        W19882  25.407  18.587  12.407
53100W        W19883   8.191  39.596  13.905
53101W        W19884  14.318  43.330  14.968
53102W        W19885  44.902   8.175   1.272
53103W        W19886   4.241  40.090   4.490
53104W        W19887  40.009  38.292  14.048
53105W        W19888  14.564  40.132  12.984
53106W        W19889  20.735  14.286  13.014
53107W        W19890  20.828   7.335   0.737
53108W        W19891  21.828  26.493   3.113
53109W        W19892  10.565  23.719   3.294
53110W        W19893  21.764  44.043   1.363
53111W        W19894  16.562  21.569   3.739
53112W        W19895  26.495  26.933  13.376
53113W        W19896  37.987  43.581   2.198
53114W        W19897  29.950  24.412  13.672
53115W        W19898  31.984   6.992   4.238
53116W        W19899  31.452  39.981   2.446
53117W        W19900  28.524  41.508  12.410
53118W        W19901  41.910   6.658  13.322
53119W        W19902  17.335  34.924   3.674
53120W        W19903  30.957  41.489   3.660
53121W        W19904  36.577  27.126   1.449
53122W        W19905  30.248  26.569  14.771
53123W        W19906  28.830  44.541  12.223
53124W        W19907  24.951  38.393  11.595
53125W        W19908  27.276  34.011  10.607
53126W        W19909  34.856   2.732   4.157
53127W        W19910   0.417   8.816   2.368
53128W        W19911  29.667  37.049  13.424
53129W        W19912  11.185  10.587  10.725
53130W        W19913  33.484  39.389   0.990
53131W        W19914  39.270   0.033   1.507
53132W        W19915  28.871  24.581   2.743
53133W        W19916  22.838  37.621  12.915
53134W        W19917  39.451  19.501  12.880
53135W        W19918  28.129  25.792   4.094
53136W        W19919  36.987  17.571   3.683
53137W        W19920  13.862  35.964  13.904
53138W        W19921   6.961   8.631  11.142
53139W        W19922  23.186   1.247  11.430
53140W        W19923  13.811  25.390  13.393
53141W        W19924   1.541  42.770   2.825
53142W        W19925  12.673  18.864   2.299
53143W        W19926   5.273  42.846   2.215
53144W        W19927  20.064  38.937   1.386
53145W        W19928  18.486  17.684  11.967
53146W        W19929  16.406  31.813   0.971
53147W        W19930  10.163   0.778   3.218
53148W        W19931  37.159  36.623   1.423
53149W        W19932  17.311  14.598  13.999
53150W        W19933  13.571  31.490  12.077
53151W        W19934  23.702  23.979  13.040
53152W        W19935  17.593   0.464  11.279
53153W        W19936   6.368  21.064   2.178
53154W        W19937  43.448  21.280  14.924
53155W        W19938  11.597  36.384   1.336
53156W        W19939  24.050  29.934  11.477
53157W        W19940   3.751  11.233  14.412
53158W        W19941  40.980   7.324  13.196
53159W        W19942  44.238   4.691   0.827
53160W        W19943  40.869  39.626  10.618
53161W        W19944  34.640  14.267   0.836
53162W        W19945   6.773  15.188  14.470
53163W        W19946  19.185  27.649   0.028
53164W        W19947   7.361   0.746   1.465
53165W        W19948  14.669  12.004   0.212
53166W        W19949  20.883  35.358   3.075
53167W        W19950  40.991   4.139   0.007
53168W        W19951  12.229  32.206  14.901
53169W        W19952  33.732  15.807   4.526
53170W        W19953  37.767  44.331  12.927
53171W        W19954  36.326  14.887  13.632
53172W        W19955  15.550  17.623   2.604
53173W        W19956  29.622   4.356  14.414
53174W        W19957  34.359  31.073   4.352
53175W        W19958  29.395  22.879   0.481
53176W        W19959  34.904  26.434   2.591
53177W        W19960  20.649   8.142  13.573
53178W        W19961  17.258  37.042  14.541
53179W        W19962   4.233  22.143  13.441
53180W        W19963  16.399  36.957   3.592
53181W        W19964  16.739   3.959   3.614
53182W        W19965   3.669  42.919  14.928
53183W        W19966  14.961  27.062  13.309
53184W        W19967   1.329  44.726   4.484
53185W        W19968  21.132  21.086  14.756
53186W        W19969   5.169   9.438   3.779
53187W        W19970   5.109  21.207   1.369
53188W        W19971  12.219  21.013  11.071
53189W        W19972  16.200  41.396   2.394
53190W        W19973  26.333  37.893  14.461
53191W        W19974  33.938  18.018   5.045
53192W        W19975  28.323   1.662   4.107
53193W        W19976   4.956  38.520  11.215
53194W        W19977  43.789  43.444  12.913
53195W        W19978  36.337  32.873   4.455
53196W        W19979  16.745   5.304   0.427
53197W        W19980  41.404  11.113  13.284
53198W        W19981  15.705   1.857   0.285
53199W        W19982  25.951  39.003  13.587
53200W        W19983  42.324   5.667  14.430
53201W        W19984  31.195  44.228   5.009
53202W        W19985   8.139  33.467  11.664
53203W        W19986  34.348   5.359  12.355
53204W        W19987   5.838  29.428   2.317
53205W        W19988  22.542  18.777   2.678
53206W        W19989  35.406  11.401  12.778
53207W        W19990  44.527  18.760   3.354
53208W        W19991  35.632   0.938  14.399
53209W        W19992  13.774  39.985   0.923
53210W        W19993   1.794  19.640   2.823
53211W        W19994  25.178  42.408  14.807
53212W        W19995  26.064  14.341   2.312
53213W        W19996   4.136   8.333   1.617
53214W        W19997  42.815  14.318  12.822
53215W        W19998  42.993  11.886   5.058
53216W        W19999  11.234  22.981   2.712
53217W        W20000  18.053  37.366  10.701
53218W        W20001   3.818  38.178  12.930
53219W        W20002   5.285   5.292   0.777
53220W        W20003  40.421  12.238  10.428
53221W        W20004  26.990  44.013   1.728
53222W        W20005  36.441  25.095   0.258
53223W        W20006  13.252  30.176   3.293
53224W        W20007   3.412   6.780   4.565
53225W        W20008  16.909   4.335   0.022
53226W        W20009   9.302  30.683  14.843
53227W        W20010  42.308  35.493   4.739
53228W        W20011  33.524  18.175  10.246
53229W        W20012  44.941  30.942   4.611
53230W        W20013  17.925  41.288  14.728
53231W        W20014  22.032  26.492   1.851
53232W        W20015  41.839  10.455   2.854
53233W        W20016  31.853  38.521  14.503
53234W        W20017  33.943  14.111   4.060
53235W        W20018   0.931  19.146  13.952
53236W        W20019  21.497  31.113   1.680
53237W        W20020  20.623  12.861   0.209
53238W        W20021  38.301  33.585  12.908
53239W        W20022  13.489  34.012   9.632
53240W        W20023  32.716  29.560   0.285
53241W        W20024   6.718   9.841  11.527
53242W        W20025   1.721  17.311  13.891
53243W        W20026   0.907  32.595  13.859
53244W        W20027  20.047   1.748  12.382
53245W        W20028  26.019  32.986   1.331
53246W        W20029  23.023  25.440  12.030
53247W        W20030   9.694   7.503  14.868
53248W        W20031  25.201  38.856  10.674
53249W        W20032   8.449   7.878  13.411
53250W        W20033  18.543   0.968   2.353
53251W        W20034  42.070  30.931   3.611
53252W        W20035  10.964  29.580  13.814
53253W        W20036  37.455   4.648  14.363
53254W        W20037  26.151  40.281   3.084
53255W        W20038  15.635  42.714   4.138
53256W        W20039  36.439  21.711  10.638
53257W        W20040  41.747  41.812   2.836
53258W        W20041  39.071   6.856   4.750
53259W        W20042  22.543  10.850   2.726
53260W        W20043   1.281  20.969  11.446
53261W        W20044   3.993  31.997   1.709
53262W        W20045  15.522  17.086  13.952
53263W        W20046  30.611  19.226   2.411
53264W        W20047   2.204  40.961   2.695
53265W        W20048  13.826  32.357   4.101
53266W        W20049  10.795  30.318   3.575
53267W        W20050  29.064  22.160   0.226
53268W        W20051   8.769   0.003   2.837
53269W        W20052  34.450  38.254  12.046
53270W        W20053  28.412  10.763  13.867
53271W        W20054  33.502  18.583  10.580
53272W        W20055   5.266  36.393   3.353
53273W        W20056  30.078   3.619   1.251
53274W        W20057   6.964   3.380  14.711
53275W        W20058  28.193  44.719  11.873
53276W        W20059  15.261  35.479   0.463
53277W        W20060  36.882  24.162   3.587
53278W        W20061   1.414   8.696   4.300
53279W        W20062  19.178  41.375   3.307
53280W        W20063   9.125  43.546  13.465
53281W        W20064  25.115  27.103   3.672
53282W        W20065  10.799  19.155  13.937
53283W        W20066   2.460  19.793  12.893
53284W        W20067  40.410  44.195  14.865
53285W        W20068  24.124  24.256   1.815
53286W        W20069  23.222  26.195   2.389
53287W        W20070   1.896  11.179   4.135
53288W        W20071  44.319   1.949   3.835
53289W        W20072   4.243  22.531   0.313
53290W        W20073  20.731   4.345   0.550
53291W        W20074  30.004  23.992   0.953
53292W        W20075   3.025  28.529  14.708
53293W        W20076  16.389  20.121  14.846
53294W        W20077  42.808  25.741   2.465
53295W        W20078  30.100   5.179  14.577
53296W        W20079  31.018  27.511  14.180
53297W        W20080  24.458  39.403   0.881
53298W        W20081  10.846  21.716   2.325
53299W        W20082   0.194  44.278   3.750
53300W        W20083  23.593  22.505  11.095
53301W        W20084  16.628   2.867   4.519
53302W        W20085   5.162  39.555  13.382
53303W        W20086  20.651  44.443  11.408
53304W        W20087  40.323   0.145  14.711
53305W        W20088  13.965  12.199  14.733
53306W        W20089  32.395  10.747   3.403
53307W        W20090  21.346   1.292  13.921
53308W        W20091  41.340  24.074  11.550
53309W        W20092  35.870  41.914   3.827
53310W        W20093  38.897  30.595   1.667
53311W        W20094  41.364  11.262  11.878
53312W        W20095  28.752  20.187  11.397
53313W        W20096  26.712  22.951  12.100
53314W        W20097   7.694  12.784  10.683
53315W        W20098  41.490  14.077  14.790
53316W        W20099  41.634  35.366   3.598
53317W        W20100  19.104  13.069  14.398
53318W        W20101  16.038  28.911   1.656
53319W        W20102   4.257  21.128  11.215
53320W        W20103  12.689  34.886   2.805
53321W        W20104  36.393  12.285   1.965
53322W        W20105  15.402  26.734  12.467
53323W        W20106  43.924  17.631   1.774
53324W        W20107  41.658  13.089   2.354
53325W        W20108  43.775  37.151  11.208
53326W        W20109   9.422   8.823  11.100
53327W        W20110  44.162   5.680  11.098
53328W        W20111   5.170  40.861   0.943
53329W        W20112   1.998  32.905  10.391
53330W        W20113  25.604  35.371   3.765
53331W        W20114   8.136  37.393   0.890
53332W        W20115  44.774   0.015  10.556
53333W        W20116  28.967  38.789   0.408
53334W        W20117  24.954  38.563   2.330
53335W        W20118  30.965  41.128  11.025
53336W        W20119   5.622  36.459  14.470
53337W        W20120   7.200  26.201  14.829
53338W        W20121  23.523  34.856   4.173
53339W        W20122  41.868  25.236  10.624
53340W        W20123  41.436  35.837   0.420
53341W        W20124  21.114  17.253  13.909
53342W        W20125  10.657  33.714  11.613
53343W        W20126  24.011  33.026  13.078
53344W        W20127  37.766  22.112  10.539
53345W        W20128  43.275  44.419  11.255
53346W        W20129  19.342  31.171  12.417
53347W        W20130  11.178  10.773   2.162
53348W        W20131  10.175   2.982  13.931
53349W        W20132  36.159  36.497   0.433
53350W        W20133  11.942  27.424  13.072
53351W        W20134   7.205  33.525  13.463
53352W        W20135  25.484  28.046   4.332
53353W        W20136  24.281  26.203  14.479
53354W        W20137  42.285  17.218   2.850
53355W        W20138  15.740   6.756   3.253
53356W        W20139  15.088   3.781   0.577
53357W        W20140  18.933  19.690   5.209
53358W        W20141  33.122  25.570   0.804
53359W        W20142  36.238  33.296  11.219
53360W        W20143   2.818   4.331   0.924
53361W        W20144  16.657  21.413  11.824
53362W        W20145   2.886  36.913   4.571
53363W        W20146   7.670  24.143   4.205
53364W        W20147   5.265   5.119  10.482
53365W        W20148  35.474  26.298  11.481
53366W        W20149  18.405  37.722   4.159
53367W        W20150  13.049  22.241   3.746
53368W        W20151   0.258  29.696  13.043
53369W        W20152  39.292  29.194  11.095
53370W        W20153  12.060  41.327  13.549
53371W        W20154  16.833  20.981   2.645
53372W        W20155  15.840  31.427   4.954
53373W        W20156   0.917   4.376  11.888
53374W        W20157  13.643  21.691   4.275
53375W        W20158  12.689  40.755   0.797
53376W        W20159  36.878   0.233   0.351
53377W        W20160   4.690  34.515   3.388
53378W        W20161   5.240  25.862   1.874
53379W        W20162  33.632  29.900  12.075
53380W        W20163  44.992  16.255  13.415
53381W        W20164   5.869  32.574  13.568
53382W        W20165  25.979  40.546  11.154
53383W        W20166  41.116   1.954  10.874
53384W        W20167   5.757  36.955  12.963
53385W        W20168  31.427  13.842   0.222
53386W        W20169  43.351  40.240  14.010
53387W        W20170  33.744  31.588  11.945
53388W        W20171  11.313  17.373   3.124
53389W        W20172  13.804  40.762   2.770
53390W        W20173  13.644  41.090   4.183
53391W        W20174   2.974  23.657   4.704
53392W        W20175  38.533  33.559  14.356
53393W        W20176   1.191  29.046   2.743
53394W        W20177  34.814   8.241  12.392
53395W        W20178  29.231  11.332   4.176
53396W        W20179  13.611  14.885  13.817
53397W        W20180  31.446   3.837  12.046
53398W        W20181  37.192  17.173   5.028
53399W        W20182   6.486  23.132   2.642
53400W        W20183  41.318   6.951  11.945
53401W        W20184   0.901  32.845  10.425
53402W        W20185  27.396  42.931   0.761
53403W        W20186  25.396  15.260   3.853
53404W        W20187  34.611  43.796   3.249
53405W        W20188  26.104   3.474   2.386
53406W        W20189  15.256   0.279   4.196
53407W        W20190  42.522  36.954   0.365
53408W        W20191  21.602   4.851  11.666
53409W        W20192  39.645  12.338   3.345
53410W        W20193   1.839   5.588   1.341
53411W        W20194  35.169  18.128   5.007
53412W        W20195  26.486  33.340   4.177
53413W        W20196  38.272  28.467  14.753
53414W        W20197  42.247  24.587   3.840
53415W        W20198  41.405  12.336   2.728
53416W        W20199   7.480  39.111  12.037
53417W        W20200  17.634  33.498  11.265
53418W        W20201  27.582   6.800   4.495
53419W        W20202  35.355  33.452   2.485
53420W        W20203  26.144  10.549  10.754
53421W        W20204  41.375  21.611   3.100
53422W        W20205  30.393   7.255  13.130
53423W        W20206  19.253  43.817   1.294
53424W        W20207   4.750  39.439  11.722
53425W        W20208  28.863   9.827   2.202
53426W        W20209  17.202   7.677  12.677
53427W        W20210  42.107   3.239   4.095
53428W        W20211  34.009   3.384   3.334
53429W        W20212  21.835  31.069   1.264
53430W        W20213  29.544  13.707  12.197
53431W        W20214  16.039  24.588  12.185
53432W        W20215   6.034  11.114  13.795
53433W        W20216  36.385  18.006  14.156
53434W        W20217   9.033   3.075  12.014
53435W        W20218   3.429  20.659  10.736
53436W        W20219  23.939  18.551  14.801
53437W        W20220  38.934   6.362  14.771
53438W        W20221  23.316  34.911  13.556
53439W        W20222   8.450  36.618  12.060
53440W        W20223  18.807  30.957   0.910
53441W        W20224   7.231  25.545  14.512
53442W        W20225   7.827  14.999   1.221
53443W        W20226  29.336  24.946   3.212
53444W        W20227   0.273  30.619  12.373
53445W        W20228  17.418  26.718   1.347
53446W        W20229  21.241  18.010  13.408
53447W        W20230   9.418   6.264   0.155
53448W        W20231  21.746  42.316  14.837
53449W        W20232  25.737  24.794   1.162
53450W        W20233  33.755  22.718  13.466
53451W        W20234  18.057  13.228   3.649
53452W        W20235  23.256  29.011  10.680
53453W        W20236   3.291  14.341  10.618
53454W        W20237   3.116  33.887  13.782
53455W        W20238  39.040  29.091  10.668
53456W        W20239  44.860  34.426  11.989
53457W        W20240  11.294  40.366  13.916
53458W        W20241   0.839  43.924  13.932
53459W        W20242  21.081  22.310   0.776
53460W        W20243  17.118   3.360  14.929
53461W        W20244  11.862  17.219  14.872
53462W        W20245  43.563  17.324   3.232
53463W        W20246  34.869  23.150   0.199
53464W        W20247  27.677  22.223   2.718
53465W        W20248   5.982  38.387  11.140
53466W        W20249  30.207  40.998   4.210
53467W        W20250   6.831  32.368   4.155
53468W        W20251  19.037  39.002  13.415
53469W        W20252  13.793   9.818   2.354
53470W        W20253  31.869   7.715   2.766
53471W        W20254  24.484   9.415  14.013
53472W        W20255  37.579  13.305  13.471
53473W        W20256  30.612  20.173  11.843
53474W        W20257  25.084   7.429   3.319
53475W        W20258  39.423  23.079   4.459
53476W        W20259  24.973  15.563   1.918
53477W        W20260  27.745  12.174  13.878
53478W        W20261  43.716  21.582   1.129
53479W        W20262  39.652  31.318   2.626
53480W        W20263  14.751   7.532  12.959
53481W        W20264  36.357   5.009   3.624
53482W        W20265   5.213  31.576  12.286
53483W        W20266  33.462  32.535  14.541
53484W        W20267  44.320  25.125   3.208
53485W        W20268  42.214  15.560   3.922
53486W        W20269  12.705  42.403  11.181
53487W        W20270   7.086  38.176  12.044
53488W        W20271  19.370  12.402   4.371
53489W        W20272  34.536  36.588   4.647
53490W        W20273  14.302  29.683  13.798
53491W        W20274  43.988  31.086  12.942
53492W        W20275  10.733   3.061   4.131
53493W        W20276  18.040  13.334   0.888
53494W        W20277  37.050  36.629  13.478
53495W        W20278  26.506  40.955   0.252
53496W        W20279   7.383  30.311  12.047
53497W        W20280  35.904  39.163   3.156
53498W        W20281   8.836  43.033   2.269
53499W        W20282   0.383  41.598  14.970
53500W        W20283   3.809  41.691   1.911
53501W        W20284   3.719  39.069   2.509
53502W        W20285  25.971  44.825   0.407
53503W        W20286  31.514   6.073   0.241
53504W        W20287  19.937  37.321  12.137
53505W        W20288  34.113  27.694   3.300
53506W        W20289  11.746  21.761   2.268
53507W        W20290  15.264  25.476   2.239
53508W        W20291   1.888  23.517  12.109
53509W        W20292  17.258   2.945  12.548
53510W        W20293  31.575  16.830  11.107
53511W        W20294   4.389   0.074   3.518
53512W        W20295  17.667   3.340  14.056
53513W        W20296  19.697  28.181   1.356
53514W        W20297  22.737   0.528   0.256
53515W        W20298  15.134  22.975   3.796
53516W        W20299   6.687  32.600   1.218
53517W        W20300   5.325  17.663   1.626
53518W        W20301  11.130  25.124   4.331
53519W        W20302  15.856  43.319   1.980
53520W        W20303  12.746   0.475   2.171
53521W        W20304  33.928  40.258   1.211
53522W        W20305  34.718   1.820  12.065
53523W        W20306  36.883  14.112  11.583
53524W        W20307   4.348   2.883   4.622
53525W        W20308  13.715  27.767  13.789
53526W        W20309   2.637  11.275   4.830
53527W        W20310  11.496  24.580  13.043
53528W        W20311  11.104  44.295   0.780
53529W        W20312   4.830  22.452  12.837
53530W        W20313  41.513  16.246  13.804
53531W        W20314  27.055  42.916   5.044
53532W        W20315  42.976  36.127  12.886
53533W        W20316  10.249  23.507   1.264
53534W        W20317  43.758  42.056   4.236
53535W        W20318  26.107  31.355  12.790
53536W        W20319  21.291   9.118   4.325
53537W        W20320  31.102  13.345   2.724
53538W        W20321  15.060   5.788   2.757
53539W        W20322  39.298   9.533   3.207
53540W        W20323   2.721  32.646  10.506
53541W        W20324   6.177  36.439  11.514
53542W        W20325  14.786  27.723  10.240
53543W        W20326  18.170  24.050   3.411
53544W        W20327  33.796  34.524  12.365
53545W        W20328   8.352   2.750  13.363
53546W        W20329  39.861   3.234   1.639
53547W        W20330  34.937  10.219  10.592
53548W        W20331  21.271  32.427  10.870
53549W        W20332  24.730  27.414  10.600
53550W        W20333  18.194  23.952   4.493
53551W        W20334  39.453   3.160   0.314
53552W        W20335  18.202  11.105   0.699
53553W        W20336  37.299   4.227  13.082
53554W        W20337  40.126  29.995  14.718
53555W        W20338  11.832  15.733   1.436
53556W        W20339  31.032  16.252  10.685
53557W        W20340  28.453  11.306   1.470
53558W        W20341  14.172  22.697  14.672
53559W        W20342  33.074  43.923   3.270
53560W        W20343  11.893  23.396  12.600
53561W        W20344  16.330   8.559   1.637
53562W        W20345  23.188  40.709   2.920
53563W        W20346   1.714  39.404   4.065
53564W        W20347  38.433  16.761  14.754
53565W        W20348  27.715  35.502  12.923
53566W        W20349  22.824  24.706   1.752
53567W        W20350  25.049   6.161   2.904
53568W        W20351   7.664  17.661   4.556
53569W        W20352  29.498  29.697  11.162
53570W        W20353   2.532  30.578   4.563
53571W        W20354  20.233  11.656  11.488
53572W        W20355   1.974   9.117   3.218
53573W        W20356  28.478  37.371  12.499
53574W        W20357   9.816  32.814  10.673
53575W        W20358   5.138  40.364  13.867
53576W        W20359  13.134   9.343  14.308
53577W        W20360  38.301  29.573  14.907
53578W        W20361  32.651  10.307   2.714
53579W        W20362  20.240  41.529  12.486
53580W        W20363  20.515  21.074   1.832
53581W        W20364  37.207   6.854   1.332
53582W        W20365  19.184  24.795  10.771
53583W        W20366  30.600   6.656   1.320
53584W        W20367  22.167  32.248  13.442
53585W        W20368  32.546   3.919   0.354
53586W        W20369   8.342  12.397   5.023
53587W        W20370  14.623  38.508   1.969
53588W        W20371  22.714  41.558  11.031
53589W        W20372  21.027  15.195  12.442
53590W        W20373  13.901  43.000  10.762
53591W        W20374  35.635  26.042   1.491
53592W        W20375  28.658   7.904  12.916
53593W        W20376  37.752  26.123  11.894
53594W        W20377  39.985  27.023   1.197
53595W        W20378  19.344  19.503   4.836
53596W        W20379  28.317   5.317   4.171
53597W        W20380  15.108  27.467   2.202
53598W        W20381  18.642  26.647   0.690
53599W        W20382  43.345  21.445  13.540
53600W        W20383  41.505  44.284  11.033
53601W        W20384  27.443  35.316   1.660
53602W        W20385  32.878  20.957   1.943
53603W        W20386  13.512  10.578   0.786
53604W        W20387  34.970  23.545  11.799
53605W        W20388  42.708   1.832  12.075
53606W        W20389  22.191  13.625   3.755
53607W        W20390  24.402  15.788   2.227
53608W        W20391  20.944   1.668  12.667
53609W        W20392  22.049   3.763   9.897
53610W        W20393   7.663  12.590  12.960
53611W        W20394  38.695  27.981  11.014
53612W        W20395  30.714  40.177  10.195
53613W        W20396  27.849  10.742   1.318
53614W        W20397  23.593  15.694   3.246
53615W        W20398  40.292  26.626   1.257
53616W        W20399  41.818   9.018   5.134
53617W        W20400  29.716  33.494   1.386
53618W        W20401   3.256  39.071   3.222
53619W        W20402  11.297  37.882   3.993
53620W        W20403   9.639   9.742   3.988
53621W        W20404  34.632  24.592   0.876
53622W        W20405  40.857  29.459  14.982
53623W        W20406   0.969  36.681   4.190
53624W        W20407  22.016  28.488  14.787
53625W        W20408  33.939   3.162   2.863
53626W        W20409  33.375   4.823   0.730
53627W        W20410   0.168  14.691  14.982
53628W        W20411   2.483  17.172  13.793
53629W        W20412  36.310  37.460   0.991
53630W        W20413   4.141  20.669  13.486
53631W        W20414  28.592   2.465   2.188
53632W        W20415  42.058  13.856  12.611
53633W        W20416  23.932   5.068   5.419
53634W        W20417  16.273   3.374  11.237
53635W        W20418  29.994  41.317   0.370
53636W        W20419  17.352  17.157   0.558
53637W        W20420  17.451  37.366   4.208
53638W        W20421  22.510  22.483   1.197
53639W        W20422   1.515  10.207   1.731
53640W        W20423  25.118  40.749   2.202
53641W        W20424  14.028  38.900  12.116
53642W        W20425   8.137  27.737  11.205
53643W        W20426   3.944  38.414   0.682
53644W        W20427  24.044  40.090  10.256
53645W        W20428  40.911  38.515  13.950
53646W        W20429   9.689   9.976   0.013
53647W        W20430  10.338  23.749  13.392
53648W        W20431  21.168  33.395   1.146
53649W        W20432  40.014  34.385  11.535
53650W        W20433  10.731   7.522   3.764
53651W        W20434  41.915  28.683  12.452
53652W        W20435  27.552  26.619   5.484
53653W        W20436  40.244  16.150  14.709
53654W        W20437  37.090  32.613   1.971
53655W        W20438  31.913   2.509  13.547
53656W        W20439   4.892  21.288  13.838
53657W        W20440   1.720  32.043   1.297
53658W        W20441  23.629  20.116   4.058
53659W        W20442  30.929   7.860  13.826
53660W        W20443   1.692  15.251  12.956
53661W        W20444  29.597  12.347   3.720
53662W        W20445  41.535  22.985   1.417
53663W        W20446  41.816   3.792  14.477
53664W        W20447  44.325   7.237   0.329
53665W        W20448  23.821  38.683  12.932
53666W        W20449   7.368  25.697  10.772
53667W        W20450  28.937  33.824   4.106
53668W        W20451   6.476  26.202   3.217
53669W        W20452  11.901  18.144  11.356
53670W        W20453  31.461  44.403   3.479
53671W        W20454  20.435   8.195   2.429
53672W        W20455  11.596   9.340   2.588
53673W        W20456  18.294   7.092  10.716
53674W        W20457  14.024   3.288  13.333
53675W        W20458  34.483   0.898   4.596
53676W        W20459  36.595  41.085   3.856
53677W        W20460  33.565   1.920  12.775
53678W        W20461   1.765  14.242   2.422
53679W        W20462  26.015   8.238  14.303
53680W        W20463  14.317   5.667  13.407
53681W        W20464  38.134  22.613  13.392
53682W        W20465  18.952   1.350  12.918
53683W        W20466  34.415  26.422  13.576
53684W        W20467  15.405  41.403  13.964
53685W        W20468  18.516  44.011   2.874
53686W        W20469   3.933  28.571   2.266
53687W        W20470  20.468  18.046   0.846
53688W        W20471  17.031  21.318   1.680
53689W        W20472  27.100   3.190   2.194
53690W        W20473  32.313  15.176  12.543
53691W        W20474  28.724  29.066   1.402
53692W        W20475  21.999  27.237   3.660
53693W        W20476  12.532  28.111  11.461
53694W        W20477   4.117   8.015  11.995
53695W        W20478  43.865  30.386   1.484
53696W        W20479  44.948   4.352   0.264
53697W        W20480  44.000   1.757   2.484
53698W        W20481  36.611  36.765  11.175
53699W        W20482  44.827  31.596   2.607
53700W        W20483  13.705  22.269  11.478
53701W        W20484  14.176  44.989   3.225
53702W        W20485   3.291  14.940   0.340
53703W        W20486  31.385   7.931   1.861
53704W        W20487  22.756   7.642  11.820
53705W        W20488  12.296  33.920  12.037
53706W        W20489  18.616  33.509   3.118
53707W        W20490  30.868  20.986  14.986
53708W        W20491  16.278  14.081   5.482
53709W        W20492  13.598  43.554   1.781
53710W        W20493  23.674  21.037   5.189
53711W        W20494  40.502  15.714  14.561
53712W        W20495  36.440  24.969  12.431
53713W        W20496  25.010  44.365   3.519
53714W        W20497  10.826  17.933   3.738
53715W        W20498  22.670   0.048  13.127
53716W        W20499  29.103  18.304   4.141
53717W        W20500  26.611  15.903  11.485
53718W        W20501  22.038   1.006   3.150
53719W        W20502  27.369  21.475  11.710
53720W        W20503   5.017  27.926   3.493
53721W        W20504   4.765  41.579   3.207
53722W        W20505   9.697  11.894   0.413
53723W        W20506  40.221  12.733  11.918
53724W        W20507  22.717  15.340   0.512
53725W        W20508  23.452  28.018   3.617
53726W        W20509  23.814  41.156   0.422
53727W        W20510   0.190   4.790   0.459
53728W        W20511  40.873  35.162   4.534
53729W        W20512  24.799  20.700  13.147
53730W        W20513   6.885  26.060  11.500
53731W        W20514  21.069  44.604  11.623
53732W        W20515  38.030  44.354   3.851
53733W        W20516   4.977  42.346  14.466
53734W        W20517  12.844   8.414  12.491
53735W        W20518  16.045  13.411   3.697
53736W        W20519  26.126   2.066   2.183
53737W        W20520  24.175  19.823   3.238
53738W        W20521   6.372  18.297   3.129
53739W        W20522  35.572  28.808  13.511
53740W        W20523  30.430  20.247  12.328
53741W        W20524  26.770  42.434   5.477
53742W        W20525   2.766  16.610   3.694
53743W        W20526  35.009  36.291  14.485
53744W        W20527   7.405   1.504   4.827
53745W        W20528  18.609  43.392  14.776
53746W        W20529  42.486   1.937   0.335
53747W        W20530  21.134  30.278  12.452
53748W        W20531  19.288   1.834   3.193
53749W        W20532  20.112   2.928  11.101
53750W        W20533  32.112  27.934  11.457
53751W        W20534  19.625  40.312  10.991
53752W        W20535  35.074   4.839  14.320
53753W        W20536  19.631  13.592   2.420
53754W        W20537   9.597  44.986  11.093
53755W        W20538   8.905  42.043   2.185
53756W        W20539  14.729  10.277   1.107
53757W        W20540  37.656  30.479  13.887
53758W        W20541  35.002  28.945   3.294
53759W        W20542   2.516   6.789  14.359
53760W        W20543  22.715   3.866  10.314
53761W        W20544  16.206  38.926   3.694
53762W        W20545  36.090  33.080  11.663
53763W        W20546  12.718  25.966  12.979
53764W        W20547  19.306  27.474  12.103
53765W        W20548  27.527  12.962  11.557
53766W        W20549  24.105   1.411   3.353
53767W        W20550   7.410  39.008   0.362
53768W        W20551  29.528  31.967   1.525
53769W        W20552  31.110  41.828   2.253
53770W        W20553  22.623   7.702  14.140
53771W        W20554  28.446  13.000   0.875
53772W        W20555   2.332  42.021  12.898
53773W        W20556  29.890  23.823  13.476
53774W        W20557  27.148  28.530  10.458
53775W        W20558  31.126  11.053  11.221
53776W        W20559  31.031  13.705   2.359
53777W        W20560  43.667  38.886   0.815
53778W        W20561   8.190  16.062  12.975
53779W        W20562  25.200  16.075  14.362
53780W        W20563  28.129  32.989   2.901
53781W        W20564   2.913  20.640  13.876
53782W        W20565   9.804  42.897  13.352
53783W        W20566   7.057  38.669  11.135
53784W        W20567   4.446  18.213   2.752
53785W        W20568  38.535  26.017   3.764
53786W        W20569  10.423   3.553  11.940
53787W        W20570  41.854  15.934  14.802
53788W        W20571  40.715   9.096   0.410
53789W        W20572  30.603  30.019   1.250
53790W        W20573   0.098   4.738   3.880
53791W        W20574  14.845   6.399   0.679
53792W        W20575   4.562   0.638   0.359
53793W        W20576   6.617  18.155   0.737
53794W        W20577  40.439  10.402   1.411
53795W        W20578  24.147  32.629   2.967
53796W        W20579  14.691  12.788  12.033
53797W        W20580   5.946  26.255   3.233
53798W        W20581  29.439   2.409   1.849
53799W        W20582  40.922  41.320  13.103
53800W        W20583  14.643  12.945   3.222
53801W        W20584  36.288  38.022   2.216
53802W        W20585   7.300  29.055   3.091
53803W        W20586  13.435   1.836  14.865
53804W        W20587   6.341  31.577   2.692
53805W        W20588   3.580  40.409  11.111
53806W        W20589  11.407   9.224   2.125
53807W        W20590   8.885  36.314   1.859
53808W        W20591  10.452  12.696   1.384
53809W        W20592  34.860   5.997  12.990
53810W        W20593  27.659  32.860   2.696
53811W        W20594  18.586  25.473  12.799
53812W        W20595  33.589  28.445  11.146
53813W        W20596  14.658  10.655   3.168
53814W        W20597  23.720  43.567  11.645
53815W        W20598  28.935  19.248   4.167
53816W        W20599  16.154  40.889   2.197
53817W        W20600  19.128   7.301  11.048
53818W        W20601   2.775  16.025   2.793
53819W        W20602  36.008  34.728  13.366
53820W        W20603  29.644  16.203  11.564
53821W        W20604   4.967  29.974   3.623
53822W        W20605   5.127  12.232  11.910
53823W        W20606  43.033  35.400   0.983
53824W        W20607  28.999  41.341  10.700
53825W        W20608  20.702  27.758   2.391
53826W        W20609   7.812  25.505   1.263
53827W        W20610  32.683   0.897   0.750
53828W        W20611   2.627  43.532   4.653
53829W        W20612  22.499  32.728  11.822
53830W        W20613  34.564  44.524  13.958
53831W        W20614   1.347  30.551  13.741
53832W        W20615  13.232   4.152   2.845
53833W        W20616   5.816  14.801  13.246
53834W        W20617   8.717   6.687  13.797
53835W        W20618  25.354  35.918   2.959
53836W        W20619   3.903  39.382   0.818
53837W        W20620  36.589   7.280  14.468
53838W        W20621   6.402  35.908   2.807
53839W        W20622  26.221   5.255  14.234
53840W        W20623  11.986   0.516  14.883
53841W        W20624  21.023  26.204  13.810
53842W        W20625  20.964  26.582   4.679
53843W        W20626  27.348  36.875   1.811
53844W        W20627  19.840   7.908   3.334
53845W        W20628  14.068   7.601  12.364
53846W        W20629  37.790   9.717   3.709
53847W        W20630  13.303  25.180  14.391
53848W        W20631   2.003  24.593  10.791
53849W        W20632   3.460  31.610  14.430
53850W        W20633  32.486   8.249   3.638
53851W        W20634   7.737   2.483   2.268
53852W        W20635   9.878  34.141   2.939
53853W        W20636   0.970  23.752  10.251
53854W        W20637  23.726  23.301  14.836
53855W        W20638  28.053  19.352  10.659
53856W        W20639  22.249  44.013  14.432
53857W        W20640  27.949  41.679   5.167
53858W        W20641   6.616  11.593   0.434
53859W        W20642  28.416   8.718  13.356
53860W        W20643  13.047  29.946  14.551
53861W        W20644   1.583   5.140  11.074
53862W        W20645  34.377  18.913  11.736
53863W        W20646  32.566   3.268  10.680
53864W        W20647  20.008  36.477  13.302
53865W        W20648  11.843  44.270  12.694
53866W        W20649  24.508   8.203  13.445
53867W        W20650  18.109  14.809  13.027
53868W        W20651   1.955   1.026  10.629
53869W        W20652   2.068  28.700   0.984
53870W        W20653  36.876  40.052  14.332
53871W        W20654  32.132   2.249   4.199
53872W        W20655  19.946  24.991  14.890
53873W        W20656  39.755  28.235   3.620
53874W        W20657  19.183  32.098   3.134
53875W        W20658   1.880  11.177   1.789
53876W        W20659  36.911  23.713  13.874
53877W        W20660   2.381  25.658  12.364
53878W        W20661   5.948  41.558   4.422
53879W        W20662  40.808  31.538   3.286
53880W        W20663  39.377  10.691   0.785
53881W        W20664   2.547   9.890  13.417
53882W        W20665  13.292  34.783  11.096
53883W        W20666  12.768  41.532  14.509
53884W        W20667  15.439  39.765   2.261
53885W        W20668  36.956  34.606  12.273
53886W        W20669  16.775  13.096   3.258
53887W        W20670   4.271  18.057  12.647
53888W        W20671  11.881  22.645  13.139
53889W        W20672  42.886  24.272   4.613
53890W        W20673  20.458  32.462   4.759
53891W        W20674  17.196   6.005   4.409
53892W        W20675   6.325   7.250   4.162
53893W        W20676   8.847  42.952   1.732
53894W        W20677  12.573  28.612  14.044
53895W        W20678  12.917  35.480   0.430
53896W        W20679   0.043  33.404   0.101
53897W        W20680  14.673  22.976  12.061
53898W        W20681  13.646  33.698   3.560
53899W        W20682  20.696  31.024   2.158
53900W        W20683   1.149   8.198  11.966
53901W        W20684  25.687  42.932   1.355
53902W        W20685   7.695  40.080   3.095
53903W        W20686  14.644  18.700   4.819
53904W        W20687  10.030   6.788   2.866
53905W        W20688   4.626   0.467   3.268
53906W        W20689  26.944  37.559  10.865
53907W        W20690  15.683  14.600   4.960
53908W        W20691  35.607  23.858   5.033
53909W        W20692  40.642   7.354  10.222
53910W        W20693  20.157  14.770   2.440
53911W        W20694  21.490  25.512  14.282
53912W        W20695  35.349  37.012   3.046
53913W        W20696   7.118  33.538   1.902
53914W        W20697  20.354  28.202  12.943
53915W        W20698   1.037  40.153  11.070
53916W        W20699  25.443   3.994   4.547
53917W        W20700  26.180  26.009   1.300
53918W        W20701  37.543   3.747  13.776
53919W        W20702  43.006  13.753   1.289
53920W        W20703  14.168  27.451   3.748
53921W        W20704  13.672  42.729   1.398
53922W        W20705  42.889  40.843   0.388
53923W        W20706  31.011  25.055  12.049
53924W        W20707  12.018   4.299  10.276
53925W        W20708  39.404   4.600  11.172
53926W        W20709  35.334  14.374   4.123
53927W        W20710  17.775  14.796  13.942
53928W        W20711  15.189  35.488   4.642
53929W        W20712  13.182  25.669   4.042
53930W        W20713   9.769  29.828  11.123
53931W        W20714  20.597  39.874   1.715
53932W        W20715  41.953  15.148   3.731
53933W        W20716  33.619  14.546  14.287
53934W        W20717  25.418  25.538   2.611
53935W        W20718  29.462  17.545  14.056
53936W        W20719   5.194  35.986   0.250
53937W        W20720   0.933   1.063   4.470
53938W        W20721  19.728   1.284   4.361
53939W        W20722  43.389   3.671  14.464
53940W        W20723  15.441  16.932   0.281
53941W        W20724  36.060  31.584   1.770
53942W        W20725  22.865  14.226  14.876
53943W        W20726  33.919   0.448   2.200
53944W        W20727   4.071  28.156  12.819
53945W        W20728  44.169   0.121  14.751
53946W        W20729  28.960  37.674   3.129
53947W        W20730  40.887   4.898  13.852
53948W        W20731   5.416  10.146   4.271
53949W        W20732  16.037  28.886   0.316
53950W        W20733  31.832  44.348   3.132
53951W        W20734  13.679  42.221   4.605
53952W        W20735  30.480  41.467   0.092
53953W        W20736   0.644  36.974  13.109
53954W        W20737  29.394  23.166   2.325
53955W        W20738  23.136  41.280   4.565
53956W        W20739   4.452  23.478  11.932
53957W        W20740  34.598  38.954   2.312
53958W        W20741  35.157  34.579  13.562
53959W        W20742  17.307  38.788   1.316
53960W        W20743  36.574   1.816   0.293
53961W        W20744  13.554  12.081  12.506
53962W        W20745  39.578  11.428  14.027
53963W        W20746  10.771  35.521  13.982
53964W        W20747  32.684  26.554  14.058
53965W        W20748  31.160  21.987  14.935
53966W        W20749  18.587  44.777  10.703
53967W        W20750  34.670   1.059   4.135
53968W        W20751  22.064  27.089  12.908
53969W        W20752  30.738  29.588  11.102
53970W        W20753  28.102  33.209   4.807
53971W        W20754  15.774   2.004  11.459
53972W        W20755  38.516  43.383  14.325
53973W        W20756  37.496  33.454  13.500
53974W        W20757  43.038   3.961  12.685
53975W        W20758  39.957  43.783  11.205
53976W        W20759  20.415  14.858   1.985
53977W        W20760  24.071  30.164   4.930
53978W        W20761  14.290  23.737  12.831
53979W        W20762  16.953  14.045  11.211
53980W        W20763  29.647  42.546   2.843
53981W        W20764   5.909  40.005  10.952
53982W        W20765  10.401   2.415   1.700
53983W        W20766  13.414   5.809   2.346
53984W        W20767  10.757  17.574  11.112
53985W        W20768  10.723   1.966   1.068
53986W        W20769   5.180  22.695   2.365
53987W        W20770   5.993  44.298  14.339
53988W        W20771  27.148  20.332   3.198
53989W        W20772  44.019  19.718  10.776
53990W        W20773  39.319   6.746  12.059
53991W        W20774  24.173  31.570   0.420
53992W        W20775  38.404  25.044   4.022
53993W        W20776  13.333  19.266   0.838
53994W        W20777  41.676   2.120   4.206
53995W        W20778  41.651   1.584   0.072
53996W        W20779  26.925  12.270  14.331
53997W        W20780  27.025  44.278   4.673
53998W        W20781  16.768   8.327   2.414
53999W        W20782  37.737  10.163   2.996
54000W        W20783  33.425   9.543   2.225
54001W        W20784  26.231  42.020   4.430
54002W        W20785  42.898  42.892   5.085
54003W        W20786   3.456   3.053  11.482
54004W        W20787   3.486  33.414  10.010
54005W        W20788  10.966  24.500  13.024
54006W        W20789  12.546  18.236   3.163
54007W        W20790  11.356  27.434   1.948
54008W        W20791  11.625  15.163  14.791
54009W        W20792  28.024  21.053  13.765
54010W        W20793  19.583  29.219   0.494
54011W        W20794  35.753  11.223   1.929
54012W        W20795   0.034   0.753   2.459
54013W        W20796  23.106  43.275  13.504
54014W        W20797  14.154   8.477   9.958
54015W        W20798  28.361   1.872   1.392
54016W        W20799   0.403   2.710  14.061
54017W        W20800  39.775  25.179  12.084
54018W        W20801   7.353  25.579   0.474
54019W        W20802  17.455   6.771   2.715
54020W        W20803  23.138   3.667   4.090
54021W        W20804  19.053  26.931  13.921
54022W        W20805  44.400  10.288   1.184
54023W        W20806  14.566  32.832   4.181
54024W        W20807  25.299  39.527  14.345
54025W        W20808  21.071  21.192   0.572
54026W        W20809  24.471  10.887   2.650
54027W        W20810  34.574  12.651  12.548
54028W        W20811  15.894  36.646   1.912
54029W        W20812  42.643  29.990   4.784
54030W        W20813  34.279  40.548   0.539
54031W        W20814   2.273  14.690  12.470
54032W        W20815  29.296   7.420   0.884
54033W        W20816  42.692  11.082   0.013
54034W        W20817  20.056  44.201   2.203
54035W        W20818  44.961  28.590   4.075
54036W        W20819  25.515  10.617   4.145
54037W        W20820  20.155  18.723   3.792
54038W        W20821  35.816  40.071   4.141
54039W        W20822  19.471  25.528   0.444
54040W        W20823   1.481  28.522  14.757
54041W        W20824  30.156   2.910   3.347
54042W        W20825   5.499  27.121  14.745
54043W        W20826  22.514  16.387  10.958
54044W        W20827  38.910  38.981   3.342
54045W        W20828  35.779  43.710   1.957
54046W        W20829  36.026  44.380   4.411
54047W        W20830  35.050  33.888   0.792
54048W        W20831  29.629   8.673  10.325
54049W        W20832  33.556  33.111   0.185
54050W        W20833  15.254  32.647   4.585
54051W        W20834  33.691  23.320  12.586
54052W        W20835  26.041   5.094  11.401
54053W        W20836   1.796  43.385   2.824
54054W        W20837   7.839  25.132   4.173
54055W        W20838  41.334   8.218   2.243
54056W        W20839  31.730   1.865   0.955
54057W        W20840   8.209  19.155   4.817
54058W        W20841  38.432  14.470   3.060
54059W        W20842  29.604  18.100   4.057
54060W        W20843  22.216  43.444  11.945
54061W        W20844  38.937   8.298  14.366
54062W        W20845  24.315   8.719  11.128
54063W        W20846  26.948  39.483  11.604
54064W        W20847  35.835  22.170   0.910
54065W        W20848  43.074   4.178   3.440
54066W        W20849  24.364   6.483  10.136
54067W        W20850  34.100  12.176  13.590
54068W        W20851  37.515   7.207   1.543
54069W        W20852  27.728  10.415  10.036
54070W        W20853  14.205  12.900   0.375
54071W        W20854  15.580  18.629  12.025
54072W        W20855  37.375  39.391  13.903
54073W        W20856  32.960   2.455  14.316
54074W        W20857  39.980  10.821   2.238
54075W        W20858  23.947  10.872   1.724
54076W        W20859  21.127  23.279   4.347
54077W        W20860  35.981  11.136   1.397
54078W        W20861   8.280   4.405   1.461
54079W        W20862  19.186   0.201  12.710
54080W        W20863  27.271   7.162   1.918
54081W        W20864  23.527  16.272   0.296
54082W        W20865  17.866  31.884  12.914
54083W        W20866  11.613  42.155   0.811
54084W        W20867   6.982  43.158  14.454
54085W        W20868  38.174  15.958  12.892
54086W        W20869  38.372  43.737  13.461
54087W        W20870  10.124  21.112  12.788
54088W        W20871  12.388  18.056   2.710
54089W        W20872  31.710  41.087   0.403
54090W        W20873   6.612  18.344  12.121
54091W        W20874   7.641  18.704   1.331
54092W        W20875  12.567  34.453   3.558
54093W        W20876   0.951  38.326  12.995
54094W        W20877  16.719  36.260  10.490
54095W        W20878   3.586  16.655  10.933
54096W        W20879  21.954  31.523  14.920
54097W        W20880  24.473  37.455  10.703
54098W        W20881   2.345   8.960  12.335
54099W        W20882  15.647  21.475   3.281
54100W        W20883  21.218  23.575  12.161
54101W        W20884  33.434  27.287   3.545
54102W        W20885   6.078  23.193   1.300
54103W        W20886  25.261  24.451   0.310
54104W        W20887   4.184  22.131   3.676
54105W        W20888  20.591  31.882  12.087
54106W        W20889  36.951  28.623  14.816
54107W        W20890  23.259  21.487   0.733
54108W        W20891   0.961   1.813   1.856
54109W        W20892  15.584   6.355   0.262
54110W        W20893  44.744  13.159   1.977
54111W        W20894   8.848  40.048  12.847
54112W        W20895   6.277  18.281   3.735
54113W        W20896  28.518  39.449   4.641
54114W        W20897   6.316  36.958  13.994
54115W        W20898  20.909   3.301  13.831
54116W        W20899  44.916   5.452  10.574
54117W        W20900  43.892  35.398   4.551
54118W        W20901  17.684  37.928  11.189
54119W        W20902  35.561  13.402   1.348
54120W        W20903  40.262   4.842   2.861
54121W        W20904  44.810  42.883   2.082
54122W        W20905  33.727  44.799   3.450
54123W        W20906   9.093  14.369   4.514
54124W        W20907  40.108  26.564   2.452
54125W        W20908  27.043   6.822   3.188
54126W        W20909   0.865   2.432  12.499
54127W        W20910   6.934  11.559  14.058
54128W        W20911  34.959  20.017   0.892
54129W        W20912  20.046  43.442   2.698
54130W        W20913  37.579  16.330  13.877
54131W        W20914  13.146   2.275   1.902
54132W        W20915   2.159  15.193   0.415
54133W        W20916  42.417  29.591   1.907
54134W        W20917  43.701  17.365  14.271
54135W        W20918   7.333  35.077  13.763
54136W        W20919  24.010  13.414  11.138
54137W        W20920  18.644  19.183  14.740
54138W        W20921  10.708  31.603   3.220
54139W        W20922   1.778  20.608  12.039
54140W        W20923  22.695  23.651  12.422
54141W        W20924  14.699  12.860   1.680
54142W        W20925   8.435  36.114  12.034
54143W        W20926  40.108  17.323  14.447
54144W        W20927  23.073  13.150   4.732
54145W        W20928  18.166  36.182   4.222
54146W        W20929  44.023   3.768   1.715
54147W        W20930  31.433  43.302  13.447
54148W        W20931  13.725  37.946  10.388
54149W        W20932  28.191   7.184  12.917
54150W        W20933  28.200   7.705  12.916
54151W        W20934  19.819  24.581  12.503
54152W        W20935  26.937  43.287   3.748
54153W        W20936  15.054  31.075   4.760
54154W        W20937  36.290  33.081   3.984
54155W        W20938  33.030  37.853   2.337
54156W        W20939   8.265  36.383   3.117
54157W        W20940  12.377  25.932   1.748
54158W        W20941  27.499  11.781   2.788
54159W        W20942   0.845  27.138   3.766
54160W        W20943  28.657  23.356   0.855
54161W        W20944  15.196   0.172  12.994
54162W        W20945   2.906  18.101  12.217
54163W        W20946  37.057  35.376  10.776
54164W        W20947  26.955   3.290  10.513
54165W        W20948  11.281  27.406  13.591
54166W        W20949  29.500  11.522   5.001
54167W        W20950  27.822   2.008  14.030
54168W        W20951  36.058  22.442   4.712
54169W        W20952  12.411  16.732   2.394
54170W        W20953  43.855  22.573  12.896
54171W        W20954  30.639  18.599   1.807
54172W        W20955  11.917  11.412   4.025
54173W        W20956  18.712  43.896   0.063
54174W        W20957  26.091  17.184  10.415
54175W        W20958  24.636  19.256  11.076
54176W        W20959  30.722  43.756   0.268
54177W        W20960   8.138   7.704   0.734
54178W        W20961  32.517  41.446   4.817
54179W        W20962  25.600  39.914  12.788
54180W        W20963  17.169  33.605  10.595
54181W        W20964  34.285  17.625   5.046
54182W        W20965  11.264  25.441   0.417
54183W        W20966   9.307   1.569   5.045
54184W        W20967  35.917  40.595  11.984
54185W        W20968  24.404  34.606  14.854
54186W        W20969   5.899  34.545  11.091
54187W        W20970  25.790  17.071   2.690
54188W        W20971  24.294  35.402   0.324
54189W        W20972   4.120   0.764   1.811
54190W        W20973  28.457   4.975  10.624
54191W        W20974  10.821  37.389   3.164
54192W        W20975  12.561  18.265   4.074
54193W        W20976   1.837   5.389  10.704
54194W        W20977  30.455  10.436  11.007
54195W        W20978  15.553  28.324   0.952
54196W        W20979  37.641  44.026   3.975
54197W        W20980  42.851  36.515  11.524
54198W        W20981  40.920  21.755   1.521
54199W        W20982  31.670   0.706  11.085
54200W        W20983   8.661  12.576  12.635
54201W        W20984  26.854  34.634  14.027
54202W        W20985  11.875  29.930   3.378
54203W        W20986   8.170   9.666  11.330
54204W        W20987  43.990  18.979  12.047
54205W        W20988  22.790  16.166  11.353
54206W        W20989  11.922  24.493  14.008
54207W        W20990   4.482  16.133   3.881
54208W        W20991  26.130   7.874  12.542
54209W        W20992  37.055  35.050  12.004
54210W        W20993  42.047  40.408  10.817
54211W        W20994  20.286  34.735   4.193
54212W        W20995  11.430  16.747  12.482
54213W        W20996  20.466  18.083   2.376
54214W        W20997  39.805  21.977  13.765
54215W        W20998   6.681   8.182  14.638
54216W        W20999   7.664  26.919   4.798
54217W        W21000  43.065  31.125  11.219
54218W        W21001  17.176   0.265   0.735
54219W        W21002   7.824  33.575   1.333
54220W        W21003  23.010  18.194  12.871
54221W        W21004  10.784  16.172   0.745
54222W        W21005  26.234   1.652  14.877
54223W        W21006  36.305  15.577   0.707
54224W        W21007   8.706   8.631   4.678
54225W        W21008  16.668  11.883   2.696
54226W        W21009  31.788  26.875   0.249
54227W        W21010   3.953  29.529  12.271
54228W        W21011  41.831  32.898   4.288
54229W        W21012  32.477  23.987   1.881
54230W        W21013   6.781  33.865  11.949
54231W        W21014  38.868  30.918  14.001
54232W        W21015  43.439  29.190   1.959
54233W        W21016  24.106  37.746  14.127
54234W        W21017  16.162   1.232  13.748
54235W        W21018  26.860  19.876  13.776
54236W        W21019  20.244   0.491  10.090
54237W        W21020  34.571   6.143   0.553
54238W        W21021  31.893  35.498  10.986
54239W        W21022   1.465   1.479   3.337
54240W        W21023  39.263  44.531   3.248
54241W        W21024  31.799  20.749  13.949
54242W        W21025  26.254  31.563  10.832
54243W        W21026  26.669  28.364   2.327
54244W        W21027   1.972   3.227  11.097
54245W        W21028  23.057  39.595  11.581
54246W        W21029  12.977  35.826   2.201
54247W        W21030  29.112  17.604   2.918
54248W        W21031  31.543  24.402   1.823
54249W        W21032   4.813  13.112  12.538
54250W        W21033   2.761  37.807  11.365
54251W        W21034  18.346   4.391  11.162
54252W        W21035  11.826  27.225  12.444
54253W        W21036  18.015  35.073  11.377
54254W        W21037  13.830  13.295  13.912
54255W        W21038  32.082  11.567  10.662
54256W        W21039  41.876  20.142  12.377
54257W        W21040   9.158   8.910  14.415
54258W        W21041  34.749  17.577   1.210
54259W        W21042  31.726  27.936   3.710
54260W        W21043  39.722  19.077   1.103
54261W        W21044  34.703  26.055  12.332
54262W        W21045   1.376  24.170  10.952
54263W        W21046  42.338  14.808   4.562
54264W        W21047  26.212  20.127  14.421
54265W        W21048  26.916  44.070  12.357
54266W        W21049  32.202  15.131   2.375
54267W        W21050  38.486   6.796  10.499
54268W        W21051  42.865  16.271  14.058
54269W        W21052  21.272   3.087   2.352
54270W        W21053  25.515  15.313  12.242
54271W        W21054   4.869  19.741  12.976
54272W        W21055  37.305   1.449  10.756
54273W        W21056  10.736  27.338  12.716
54274W        W21057   6.860  18.233   1.237
54275W        W21058  18.134   0.763  13.254
54276W        W21059  13.861  32.719   0.262
54277W        W21060   8.823  24.003  13.677
54278W        W21061  43.449  41.864   0.794
54279W        W21062   0.277   3.888  11.148
54280W        W21063  27.825  32.192   0.031
54281W        W21064  14.379   8.278   0.829
54282W        W21065  22.589   3.659   3.406
54283W        W21066  35.791  37.447   1.909
54284W        W21067  33.293  44.735  14.694
54285W        W21068  14.757  38.838  13.552
54286W        W21069  32.130   1.542   1.004
54287W        W21070  40.462  19.239   0.421
54288W        W21071  39.364   8.733   2.719
54289W        W21072  32.393  33.939   0.885
54290W        W21073  12.724  11.606   2.763
54291W        W21074   8.696  36.053  13.367
54292W        W21075   0.416   6.593   2.518
54293W        W21076  35.981  43.735  14.416
54294W        W21077  23.729  31.834  12.993
54295W        W21078   0.664  25.716  11.327
54296W        W21079  38.093  24.676  10.711
54297W        W21080  29.637  20.660   3.637
54298W        W21081   1.017  30.681   2.871
54299W        W21082   7.403   6.435   0.743
54300W        W21083  17.295   4.772   4.091
54301W        W21084  30.298  21.220  10.980
54302W        W21085   0.282  41.968  12.485
54303W        W21086   1.391   5.874   2.093
54304W        W21087  29.140  38.897  14.031
54305W        W21088  42.484  38.263   0.859
54306W        W21089  43.872   8.410   1.348
54307W        W21090  39.069  19.098  11.108
54308W        W21091  22.510  38.508  13.002
54309W        W21092  30.834  23.259   1.738
54310W        W21093  17.186  15.779  11.986
54311W        W21094  26.267  15.391  12.545
54312W        W21095  42.041  30.988  11.875
54313W        W21096  25.119  29.697  10.406
54314W        W21097  14.342  32.685   1.042
54315W        W21098  26.228  39.539  11.082
54316W        W21099  27.639  26.116   4.211
54317W        W21100  14.731  42.512   4.306
54318W        W21101  32.573   1.195  12.538
54319W        W21102  40.222  30.935   1.797
54320W        W21103  12.684  26.664   1.750
54321W        W21104  27.715  22.592   3.103
54322W        W21105  19.776  28.082   3.166
54323W        W21106  37.984  34.399  13.267
54324W        W21107   2.512  14.872   1.875
54325W        W21108   5.008  17.653  10.957
54326W        W21109  33.649   9.805   1.258
54327W        W21110   5.784  17.573  13.943
54328W        W21111  14.674   2.235   2.255
54329W        W21112  30.897  40.865   2.008
54330W        W21113  39.299  37.544  13.959
54331W        W21114  29.961  34.706  10.667
54332W        W21115  32.577  22.567   1.386
54333W        W21116  19.749  40.455   4.475
54334W        W21117  34.854  28.892  10.321
54335W        W21118   5.404  42.264   2.025
54336W        W21119   8.630   8.778   3.298
54337W        W21120  12.199  10.366   1.839
54338W        W21121   5.194  14.134  13.421
54339W        W21122   9.901  35.971   1.176
54340W        W21123  32.608  28.065   1.714
54341W        W21124   2.342   6.173   3.831
54342W        W21125  44.310   7.288   2.678
54343W        W21126  39.561  37.605   1.243
54344W        W21127  14.170  27.426  13.277
54345W        W21128   0.902  18.411   1.907
54346W        W21129  38.102  28.018  10.265
54347W        W21130  22.548   2.892  13.395
54348W        W21131  28.466  15.605  12.321
54349W        W21132   1.983  32.592   0.238
54350W        W21133  16.029   3.395   3.204
54351W        W21134  31.514  15.311  14.827
54352W        W21135  10.798   0.541   1.340
54353W        W21136  13.186  41.988  11.815
54354W        W21137   9.733  18.136   2.813
54355W        W21138  17.349  19.767  12.485
54356W        W21139  29.371  24.507  12.891
54357W        W21140  38.895  32.199  11.994
54358W        W21141  17.212  31.591  13.612
54359W        W21142  13.209  25.930   1.611
54360W        W21143   2.339   7.890   0.954
54361W        W21144   8.711  20.782  13.748
54362W        W21145  22.381   1.091   5.019
54363W        W21146  31.790   3.036  10.768
54364W        W21147  37.007   6.941  13.066
54365W        W21148   0.716  41.262   4.505
54366W        W21149  23.497  29.390  13.062
54367W        W21150  34.786   5.736  10.641
54368W        W21151   8.793   3.255  11.318
54369W        W21152   5.683  14.760   0.341
54370W        W21153  13.240   0.050  11.153
54371W        W21154  10.283  44.510   1.842
54372W        W21155  30.815   1.643  11.129
54373W        W21156   3.077  13.183  14.718
54374W        W21157  36.166  14.191   3.865
54375W        W21158  37.749  32.330  11.320
54376W        W21159  13.025  38.572   3.239
54377W        W21160  28.902  10.652  13.037
54378W        W21161  42.715   3.800   3.641
54379W        W21162  34.038  36.973  12.934
54380W        W21163  35.922  44.184  12.331
54381W        W21164   2.889  41.008  13.366
54382W        W21165   9.634  15.875   3.309
54383W        W21166  32.686  13.249   0.510
54384W        W21167  28.623  29.186   4.813
54385W        W21168   3.903  40.813  10.925
54386W        W21169  28.493  33.251   3.844
54387W        W21170  31.347  37.747   2.826
54388W        W21171  20.539  37.465  13.552
54389W        W21172  16.829  44.485   4.054
54390W        W21173  32.070   2.387  12.760
54391W        W21174  31.295  33.730   0.050
54392W        W21175  38.732  10.719   2.892
54393W        W21176  12.596  30.443  13.870
54394W        W21177  26.038   6.950   2.769
54395W        W21178  19.485   2.352  10.617
54396W        W21179  10.506  20.931  10.118
54397W        W21180  29.162  44.944  10.677
54398W        W21181  29.427  29.449  14.286
54399W        W21182  17.668  16.983   2.351
54400W        W21183   3.555  22.612  10.358
54401W        W21184  19.495  43.940  14.856
54402W        W21185  16.510   5.525   3.730
54403W        W21186   5.819  40.276   1.191
54404W        W21187   7.966  18.299  12.374
54405W        W21188  18.778  21.739   2.015
54406W        W21189  32.085   6.818   3.392
54407W        W21190  25.750  28.963   5.212
54408W        W21191  35.957   0.008  12.896
54409W        W21192  25.012  34.404   4.362
54410W        W21193  34.381  11.706   2.773
54411W        W21194  37.788  23.788  13.903
54412W        W21195  18.153  37.465   1.704
54413W        W21196  21.162  14.817   4.576
54414W        W21197  11.626  18.656  14.285
54415W        W21198   1.367   6.826   2.134
54416W        W21199  14.349  24.654  13.908
54417W        W21200   1.913   8.963  12.574
54418W        W21201  43.127   2.691  14.789
54419W        W21202  39.992   5.367  12.892
54420W        W21203   0.344  42.943   0.185
54421W        W21204  38.554  17.703  14.840
54422W        W21205   8.502  17.303  13.955
54423W        W21206   9.766   3.988  14.454
54424W        W21207  21.366  12.542  13.560
54425W        W21208  12.526  33.697  13.797
54426W        W21209  18.639  27.443  13.144
54427W        W21210  30.555  37.399   3.412
54428W        W21211  30.438  40.342  12.587
54429W        W21212  25.419  39.389   3.154
54430W        W21213  10.210  29.409   0.460
54431W        W21214  19.359  26.222   2.379
54432W        W21215  16.986  30.154   1.330
54433W        W21216  16.335   6.383   0.742
54434W        W21217  39.205   2.172   1.001
54435W        W21218   2.203  31.200  14.381
54436W        W21219  40.003   7.395  14.563
54437W        W21220  37.954  10.733  12.443
54438W        W21221  34.622  28.799   0.223
54439W        W21222   1.713  43.225  14.481
54440W        W21223  27.481  41.544   4.913
54441W        W21224  39.266  28.648  10.557
54442W        W21225  36.597  33.479   4.148
54443W        W21226  10.657  11.997   3.363
54444W        W21227  30.355  39.900   1.142
54445W        W21228  14.238   9.357   0.285
54446W        W21229  22.047   7.199   1.280
54447W        W21230  25.564  29.097  14.968
54448W        W21231  17.726  42.727  11.090
54449W        W21232  13.606  34.704  12.768
54450W        W21233  21.442   7.155   1.816
54451W        W21234   7.660  37.400   4.334
54452W        W21235   8.038   2.410  12.938
54453W        W21236  41.224   1.348  14.734
54454W        W21237  27.336  20.476   4.190
54455W        W21238  35.305  27.479   1.265
54456W        W21239  39.393  32.552  13.663
54457W        W21240  25.678  36.939   2.704
54458W        W21241  26.538  16.016  13.338
54459W        W21242   7.388  41.506  10.933
54460W        W21243  31.166   1.497  13.380
54461W        W21244  22.441   1.912  13.350
54462W        W21245   6.374  22.281   0.869
54463W        W21246  21.736  33.994   3.665
54464W        W21247  25.672   8.379   4.602
54465W        W21248  38.356   0.678   2.213
54466W        W21249   0.251  22.430  13.011
54467W        W21250  30.665  43.764  11.633
54468W        W21251  35.684  16.933   2.874
54469W        W21252  43.313  30.708   4.236
54470W        W21253  34.080  38.529   1.807
54471W        W21254   3.682  15.586   4.653
54472W        W21255  42.074  39.023  11.561
54473W        W21256  19.165  14.075   2.901
54474W        W21257  19.046   9.834  14.845
54475W        W21258  18.192  33.387  13.637
54476W        W21259  37.860   5.689  10.750
54477W        W21260  33.488  25.527  13.030
54478W        W21261  28.215   7.211   1.754
54479W        W21262   8.337  14.264   1.384
54480W        W21263  34.600  28.193   3.654
54481W        W21264   1.744   9.822   4.702
54482W        W21265  34.095  24.144   2.306
54483W        W21266  22.115  25.227   1.215
54484W        W21267  43.239   6.696   1.937
54485W        W21268  32.700   2.842   3.837
54486W        W21269  41.469   3.010  13.864
54487W        W21270  39.235  43.361  14.025
54488W        W21271  40.165   3.293  11.570
54489W        W21272   9.394   3.451  12.113
54490W        W21273  12.235   8.894   1.389
54491W        W21274  18.221  30.583  11.192
54492W        W21275  22.602  27.968   1.699
54493W        W21276  13.556   7.272   3.317
54494W        W21277  28.901  13.251   3.084
54495W        W21278  37.089  20.641  11.517
54496W        W21279   0.777  34.555   3.600
54497W        W21280  38.519   3.756  13.113
54498W        W21281  43.806  24.576   4.280
54499W        W21282  24.579  10.603  11.059
54500W        W21283   8.741  17.101   0.230
54501W        W21284   5.902  36.898  10.897
54502W        W21285  32.498  18.337  10.113
54503W        W21286  21.166  30.627  11.496
54504W        W21287  16.150   4.854  10.455
54505W        W21288  21.543  22.850  10.105
54506W        W21289  28.637   2.489  11.764
54507W        W21290  41.595  36.868  14.543
54508W        W21291  13.707  10.021   0.494
54509W        W21292  13.060   5.971   2.710
54510W        W21293   0.384   2.622   1.711
54511W        W21294  11.858  30.590   4.698
54512W        W21295  10.818  13.762  14.512
54513W        W21296   4.447   7.413  13.820
54514W        W21297   8.755  39.596  13.072
54515W        W21298  17.815   4.609   4.054
54516W        W21299  28.928  41.178   3.396
54517W        W21300  39.430  10.190  11.663
54518W        W21301  25.182  23.705   1.997
54519W        W21302  34.943  12.637  14.003
54520W        W21303  18.362  34.368  13.484
54521W        W21304  22.238  16.979   2.820
54522W        W21305  37.806  40.024  13.299
54523W        W21306  24.032  38.644  11.199
54524W        W21307  30.672   3.326  11.543
54525W        W21308  16.199  30.097  12.971
54526W        W21309  38.512  16.293   0.971
54527W        W21310  31.295  25.507   3.364
54528W        W21311  33.596   1.973  11.173
54529W        W21312  29.086  40.154   4.019
54530W        W21313   6.385  14.827   1.964
54531W        W21314   2.159  12.586   3.743
54532W        W21315   3.408  34.327   4.306
54533W        W21316   8.441  12.677   3.084
54534W        W21317  16.265  33.256   2.715
54535W        W21318  18.751  34.075   4.687
54536W        W21319  16.516  14.880   0.385
54537W        W21320   9.458  21.671  12.461
54538W        W21321  22.065  16.619  11.062
54539W        W21322  44.528  26.769  13.481
54540W        W21323  36.546   9.567   1.048
54541W        W21324   1.334  31.583  14.507
54542W        W21325   8.425  34.063  12.994
54543W        W21326  42.568   3.002   0.449
54544W        W21327  36.845  17.042  13.703
54545W        W21328  33.829  28.900  11.254
54546W        W21329  41.283  33.235  14.296
54547W        W21330  20.466  28.581   2.642
54548W        W21331  14.900  13.403   4.535
54549W        W21332   3.683  33.385  10.749
54550W        W21333  39.367  32.502   1.011
54551W        W21334  31.015  22.676   2.577
54552W        W21335  12.330  34.261  12.954
54553W        W21336  21.241  10.120  10.468
54554W        W21337  39.943  37.954  11.751
54555W        W21338  33.865  13.284   3.650
54556W        W21339   6.223  13.643  13.415
54557W        W21340  21.194  27.460  12.405
54558W        W21341  14.818   2.010   1.780
54559W        W21342  38.328   5.477  13.504
54560W        W21343  35.041  24.659   4.131
54561W        W21344  19.644   8.422  10.807
54562W        W21345  24.907  42.283   1.353
54563W        W21346  37.553  11.641   3.845
54564W        W21347   9.107  43.439   1.783
54565W        W21348   9.300  11.821   2.318
54566W        W21349   1.272  12.595  14.224
54567W        W21350  30.055  34.580   1.627
54568W        W21351  28.462   5.258   2.250
54569W        W21352  41.311  42.295   1.321
54570W        W21353   9.413  41.148  11.708
54571W        W21354   3.019  35.861   4.661
54572W        W21355  14.206   6.752   4.204
54573W        W21356  16.537  16.224   1.307
54574W        W21357  23.319  20.375   2.324
54575W        W21358   9.362  13.815  13.458
54576W        W21359   3.413  30.163  12.466
54577W        W21360   8.949   9.236   1.278
54578W        W21361  26.350  34.008  13.454
54579W        W21362  44.435  35.012   1.295
54580W        W21363  13.178  41.615   3.604
54581W        W21364  37.557   1.234   1.401
54582W        W21365  22.245  41.544  14.688
54583W        W21366   5.881   4.628  11.911
54584W        W21367   8.515  11.447   4.547
54585W        W21368  28.024  21.809   2.692
54586W        W21369   8.735  21.727   4.106
54587W        W21370   2.841  33.100   4.845
54588W        W21371  28.992  36.194  12.656
54589W        W21372  39.816  39.736  10.654
54590W        W21373   6.037  11.586  14.061
54591W        W21374  25.231   8.072  12.960
54592W        W21375  38.980  42.841   1.118
54593W        W21376   2.862  17.057  14.730
54594W        W21377  25.949   8.341  12.648
54595W        W21378  16.756  26.071  12.416
54596W        W21379  24.190  11.670  13.442
54597W        W21380  27.726  38.332   4.406
54598W        W21381  15.818  27.099   1.929
54599W        W21382  15.891  15.414  13.355
54600W        W21383   8.258  11.840  13.776
54601W        W21384  21.125  16.176  14.961
54602W        W21385  35.371  31.947  11.502
54603W        W21386  15.489  16.165   4.739
54604W        W21387   5.413  21.718   2.135
54605W        W21388  16.665  39.504  13.245
54606W        W21389   6.381  23.821  12.069
54607W        W21390  41.896  37.195  13.181
54608W        W21391  40.900  36.035   3.060
54609W        W21392  40.650  15.301   1.388
54610W        W21393  12.541   3.173   1.970
54611W        W21394   2.769  11.839   2.128
54612W        W21395  22.895  29.515   1.437
54613W        W21396  10.097  18.645  13.041
54614W        W21397  22.577   4.717   2.593
54615W        W21398  36.803  21.176   1.023
54616W        W21399  43.250  23.052   1.788
54617W        W21400   4.610  25.548  11.229
54618W        W21401  30.926  43.484   3.669
54619W        W21402   4.506  29.026   1.837
54620W        W21403  35.040  31.706  14.305
54621W        W21404  10.899   9.974   1.751
54622W        W21405  22.605   5.891  13.898
54623W        W21406   7.810  15.627  10.713
54624W        W21407   0.014  23.118   4.241
54625W        W21408  32.247  26.104  13.449
54626W        W21409   6.582   5.878   0.290
54627W        W21410  40.418   7.725   0.654
54628W        W21411  40.558  41.638   3.402
54629W        W21412  39.467  22.145   4.972
54630W        W21413  41.540  42.482   3.291
54631W        W21414  18.824  37.357   4.145
54632W        W21415   9.630  32.599   4.554
54633W        W21416  34.099   0.950   4.238
54634W        W21417   0.467  19.187   0.792
54635W        W21418  24.391  14.261  14.821
54636W        W21419  40.971   2.226  14.369
54637W        W21420   5.371  35.977   0.750
54638W        W21421  37.428  15.445   3.259
54639W        W21422   5.951  15.229  12.992
54640W        W21423  19.577  24.921   1.236
54641W        W21424  43.165   6.407  13.470
54642W        W21425  31.383  36.552  12.620
54643W        W21426   9.601  27.672   3.848
54644W        W21427  19.663  16.576   0.810
54645W        W21428  44.357  39.587   2.237
54646W        W21429  26.501  36.055   3.643
54647W        W21430  25.972  12.130  10.467
54648W        W21431  42.296  39.970   3.594
54649W        W21432  22.987   2.887  14.425
54650W        W21433  31.150   3.666  13.812
54651W        W21434  24.219   9.700   4.526
54652W        W21435  31.327  17.725  13.501
54653W        W21436  20.104  15.003   1.371
54654W        W21437   0.162  22.097   1.306
54655W        W21438  37.072  41.553  13.396
54656W        W21439  20.680   7.988   0.213
54657W        W21440  14.305  44.792   3.728
54658W        W21441  22.198   0.042   3.169
54659W        W21442   0.208   1.341   4.133
54660W        W21443  24.311  11.390  12.647
54661W        W21444  15.754  17.029   1.974
54662W        W21445  11.140  29.044   2.408
54663W        W21446   6.818   5.765   2.246
54664W        W21447  40.875  17.006   4.900
54665W        W21448  35.493  42.326   1.276
54666W        W21449  13.106  41.376   4.492
54667W        W21450  24.929  17.549  12.371
54668W        W21451  26.069   5.733  12.753
54669W        W21452  10.430  19.083   4.230
54670W        W21453  37.158  39.220   1.493
54671W        W21454  34.086  14.186   2.764
54672W        W21455  42.919  21.632  11.115
54673W        W21456  21.784  17.491   3.312
54674W        W21457   4.877   1.443   0.504
54675W        W21458  20.761  19.173   1.703
54676W        W21459  14.747  41.952  13.559
54677W        W21460   8.831   0.541   2.898
54678W        W21461  26.961  29.986  12.394
54679W        W21462  25.988  39.019   3.678
54680W        W21463  31.454  14.317  14.044
54681W        W21464  33.439  28.085   2.417
54682W        W21465  18.042  20.198   0.915
54683W        W21466  18.580  10.166  10.912
54684W        W21467   3.579   9.380  10.969
54685W        W21468   5.004  31.134  11.980
54686W        W21469  41.898  40.162  12.965
54687W        W21470  21.186  13.041   3.847
54688W        W21471  37.341  12.644   4.101
54689W        W21472  21.060  32.659  13.939
54690W        W21473  22.974  44.748   4.239
54691W        W21474  16.715  42.516   4.827
54692W        W21475   9.004  39.127   4.543
54693W        W21476   4.778  14.623   4.844
54694W        W21477  21.483   4.335   1.945
54695W        W21478  27.690  38.214  11.257
54696W        W21479   2.784  39.012  14.283
54697W        W21480  28.761  37.736   9.892
54698W        W21481  25.602  40.589   3.785
54699W        W21482   1.773  20.279  13.408
54700W        W21483  37.853  14.181  10.682
54701W        W21484  38.908   0.818   0.929
54702W        W21485  17.012   7.361  11.453
54703W        W21486   5.704  31.571   2.337
54704W        W21487   0.460  25.578   4.857
54705W        W21488  21.773  26.094  12.049
54706W        W21489  13.217   7.045   4.715
54707W        W21490   1.001  39.570  12.489
54708W        W21491  30.316   0.833   3.295
54709W        W21492  29.414  20.704   2.193
54710W        W21493  27.648   9.109  14.895
54711W        W21494  43.313   7.109  13.843
54712W        W21495   1.944   6.531   3.704
54713W        W21496  37.359  44.349  10.544
54714W        W21497   5.349  40.936   4.091
54715W        W21498  26.756  36.663  13.846
54716W        W21499  13.840  33.717   0.464
54717W        W21500   6.390  37.614   0.343
54718W        W21501  23.749  35.667  13.456
54719W        W21502   5.130  28.563  13.036
54720W        W21503  38.422  16.298  13.624
54721W        W21504   4.838   7.307   5.029
54722W        W21505  27.093  16.033   2.041
54723W        W21506  29.968  32.463  13.942
54724W        W21507  42.757  30.424   2.167
54725W        W21508   1.699   4.267  12.969
54726W        W21509  36.907  31.842  13.808
54727W        W21510   0.300  42.247   4.133
54728W        W21511  11.887  19.182  12.064
54729W        W21512  19.032  39.436  11.046
54730W        W21513  28.716  34.014   0.816
54731W        W21514  31.446   8.785   2.074
54732W        W21515   3.027  38.656  11.559
54733W        W21516  41.349   2.410  13.005
54734W        W21517   1.790  19.145   2.204
54735W        W21518  29.883   6.729   2.845
54736W        W21519   9.975  21.536  13.322
54737W        W21520  15.636  23.796   0.909
54738W        W21521   2.484  31.638   0.481
54739W        W21522  33.690   6.172   2.250
54740W        W21523   7.644  23.725   2.367
54741W        W21524  32.859  30.133   2.868
54742W        W21525  43.995  15.633  13.075
54743W        W21526  32.125  26.447   1.411
54744W        W21527  33.240   2.942   1.754
54745W        W21528   2.784  21.062   2.106
54746W        W21529  27.889  20.875   1.356
54747W        W21530  35.330  24.094   1.564
54748W        W21531  11.234  21.256  12.653
54749W        W21532  12.102  41.396   0.862
54750W        W21533  28.698   3.401   2.327
54751W        W21534  26.111   8.455   1.774
54752W        W21535   6.244  17.364   3.211
54753W        W21536  32.860  28.776   4.032
54754W        W21537  32.646  33.040   3.107
54755W        W21538  44.782  44.499  10.548
54756W        W21539   1.252  19.175   0.263
54757W        W21540  25.347  33.317  12.500
54758W        W21541  37.146  41.059  13.651
54759W        W21542  39.032  13.464   3.958
54760W        W21543  20.679  23.473   4.868
54761W        W21544  38.865  38.509   3.581
54762W        W21545  42.287   4.720   4.609
54763W        W21546  43.104  34.415  13.506
54764W        W21547  21.856  32.020  14.750
54765W        W21548  24.503  21.076  14.862
54766W        W21549   8.124  43.432   4.193
54767W        W21550  17.643  25.867   4.076
54768W        W21551  14.713  10.356   0.568
54769W        W21552  12.462  19.479   1.607
54770W        W21553   5.188  11.139   4.190
54771W        W21554  18.599  15.675  13.303
54772W        W21555  27.256  31.464  10.738
54773W        W21556   3.643  37.661  12.059
54774W        W21557  39.060  25.962   3.234
54775W        W21558   2.180  42.961  12.918
54776W        W21559  42.562  30.716  11.973
54777W        W21560  17.864  35.846  11.055
54778W        W21561   6.125  10.230   3.797
54779W        W21562  34.723  38.774  12.995
54780W        W21563  33.077   2.039  11.796
54781W        W21564  12.390  30.386  11.927
54782W        W21565  20.243  13.588  14.970
54783W        W21566   8.606  21.895  12.122
54784W        W21567  15.642  23.117   3.609
54785W        W21568  17.189  16.926   4.118
54786W        W21569  32.532   2.199   2.521
54787W        W21570  40.825  16.685  13.315
54788W        W21571  38.824  16.285  12.057
54789W        W21572  24.509  27.196  13.249
54790W        W21573  33.664  27.570   0.568
54791W        W21574  16.457   5.922   0.958
54792W        W21575  21.899   3.432   1.297
54793W        W21576   4.925  18.133  10.721
54794W        W21577   7.800  22.184  12.161
54795W        W21578  40.024   2.887   3.909
54796W        W21579   6.226  26.448   3.621
54797W        W21580  10.318   4.244  14.774
54798W        W21581  40.861  14.488   0.460
54799W        W21582  12.223  43.974   0.237
54800W        W21583  17.730  14.202   2.502
54801W        W21584  29.866  10.628  14.081
54802W        W21585  41.141   6.810  13.000
54803W        W21586  43.603  35.371  14.953
54804W        W21587  31.844  32.030  10.805
54805W        W21588  13.826   8.337   9.581
54806W        W21589   6.649  26.215   0.509
54807W        W21590  41.380  38.110   2.903
54808W        W21591   3.127  40.441  12.470
54809W        W21592  32.879  22.364  11.979
54810W        W21593  39.957  32.467   3.356
54811W        W21594  39.270  23.133   1.447
54812W        W21595  40.293  43.545   4.230
54813W        W21596   1.889  22.533   4.786
54814W        W21597  16.865  27.030   1.913
54815W        W21598  34.557  43.386  11.517
54816W        W21599  18.697   2.700  14.375
54817W        W21600   2.412  19.588   0.822
54818W        W21601  44.925   9.927   0.762
54819W        W21602  30.368   2.991  12.065
54820W        W21603  36.873   0.327  12.888
54821W        W21604   8.878  38.347  14.115
54822W        W21605  43.013  41.994  12.481
54823W        W21606  20.142  30.929  13.833
54824W        W21607  38.522  22.741   1.287
54825W        W21608   2.800  26.400  13.393
54826W        W21609   9.204   2.650   1.352
54827W        W21610  31.222  13.355   0.464
54828W        W21611  25.212  10.243   0.947
54829W        W21612   5.893  35.201  12.689
54830W        W21613  11.638  13.375  10.736
54831W        W21614  36.632  34.869   1.459
54832W        W21615   3.795  37.862  14.928
54833W        W21616  35.056  18.489  13.057
54834W        W21617  33.348  14.604  12.536
54835W        W21618  15.722  15.908  13.265
54836W        W21619  17.157  23.286   1.931
54837W        W21620  31.566  17.874   2.857
54838W        W21621  11.542   3.753   3.221
54839W        W21622  26.840  18.120  11.686
54840W        W21623  11.196  11.372  13.685
54841W        W21624  23.939  20.730   1.809
54842W        W21625  40.276  33.461  11.521
54843W        W21626  38.441   0.033   4.251
54844W        W21627  10.841   3.784  13.412
54845W        W21628  12.861  41.735  13.271
54846W        W21629  15.207  30.345  12.392
54847W        W21630  29.594   0.584   1.278
54848W        W21631   7.518   2.839   3.297
54849W        W21632  14.785  28.637   1.451
54850W        W21633  15.604  28.152   4.542
54851W        W21634   9.521  40.816  12.114
54852W        W21635  22.636  39.351  13.910
54853W        W21636  19.189  40.488   2.771
54854W        W21637  16.061   0.436  13.306
54855W        W21638  10.463  22.690  10.790
54856W        W21639  32.996   5.179   4.724
54857W        W21640  36.517  23.495  13.651
54858W        W21641  26.130  26.098  14.520
54859W        W21642   5.315  35.864  12.565
54860W        W21643  41.562  10.691   3.246
54861W        W21644   5.138  25.690  11.264
54862W        W21645  42.307  37.690  11.943
54863W        W21646   7.817  31.579   3.735
54864W        W21647  33.421  11.903   0.337
54865W        W21648   6.483   2.730  14.935
54866W        W21649  14.252  29.191  13.800
54867W        W21650  22.692   5.049   1.594
54868W        W21651   5.793  17.049  13.448
54869W        W21652  24.806  17.245   0.453
54870W        W21653   1.775   3.421  12.053
54871W        W21654  12.595  23.877  12.350
54872W        W21655  16.599  36.436   3.093
54873W        W21656  14.812   2.685   1.311
54874W        W21657  35.865  21.250  10.684
54875W        W21658  44.933  40.638   1.703
54876W        W21659  37.294  19.328   3.758
54877W        W21660  36.086   8.024   2.243
54878W        W21661  28.948  15.524   2.438
54879W        W21662  35.063   8.450   1.249
54880W        W21663  24.982  22.788  12.323
54881W        W21664  35.484   7.685  14.732
54882W        W21665  37.153  37.936  11.477
54883W        W21666   8.379   0.941   3.780
54884W        W21667  30.647  29.945  14.607
54885W        W21668  32.590  11.861  14.938
54886W        W21669   1.084  26.637   0.838
54887W        W21670  24.205   7.800   0.440
54888W        W21671  42.415  28.092  11.739
54889W        W21672  25.281  42.203   4.029
54890W        W21673  40.250  44.908   1.378
54891W        W21674   8.770   4.378   3.666
54892W        W21675  28.916  27.032  13.088
54893W        W21676  14.214  40.059   1.188
54894W        W21677  12.203  19.584  10.769
54895W        W21678  23.101  16.577   3.155
54896W        W21679  29.237  28.125   0.034
54897W        W21680  33.892  27.669  10.644
54898W        W21681  10.379  29.306   2.925
54899W        W21682  37.580  19.656  14.230
54900W        W21683  35.580  25.584   3.209
54901W        W21684  26.874  34.368  11.491
54902W        W21685  44.265  22.714   2.803
54903W        W21686  16.626  35.142   2.262
54904W        W21687   4.833  33.304  12.002
54905W        W21688   1.955  19.092  14.210
54906W        W21689  41.343  39.271   5.133
54907W        W21690  26.103  31.160  12.171
54908W        W21691   5.512  29.093   3.638
54909W        W21692  37.322  30.587   3.254
54910W        W21693  15.154  15.199   4.510
54911W        W21694  21.169  37.683   2.787
54912W        W21695  35.047  23.423  12.318
54913W        W21696  27.941  42.572  11.539
54914W        W21697  14.382  42.790   4.050
54915W        W21698  14.761  32.888  12.078
54916W        W21699  27.946  26.772   5.149
54917W        W21700  18.623  43.280   2.886
54918W        W21701   5.201  25.704  12.036
54919W        W21702  25.753  25.720  13.501
54920W        W21703  43.271  38.112   1.525
54921W        W21704  34.090   6.659  12.883
54922W        W21705  22.398   2.174   3.353
54923W        W21706  24.177  19.195  10.563
54924W        W21707  20.133  20.000  12.433
54925W        W21708  25.833  15.307   0.449
54926W        W21709  30.975  40.391  11.503
54927W        W21710  26.763  26.648  10.833
54928W        W21711   3.864  22.183  14.080
54929W        W21712  43.872  21.610   3.236
54930W        W21713  39.510   7.171   3.909
54931W        W21714  32.913  41.682  14.473
54932W        W21715  18.706  16.849   0.322
54933W        W21716  34.145  39.153   3.275
54934W        W21717   2.063  20.129  13.946
54935W        W21718  21.171  25.856  11.192
54936W        W21719  31.275  27.021   2.112
54937W        W21720  13.293   2.961  12.090
54938W        W21721  22.070  35.361   4.103
54939W        W21722  34.914  32.846  13.947
54940W        W21723  18.015  27.099   3.653
54941W        W21724  16.336   5.830  13.439
54942W        W21725  30.640  11.529  13.451
54943W        W21726   0.427  42.249   2.229
54944W        W21727  16.481  28.501  13.485
54945W        W21728   8.289  15.699  10.411
54946W        W21729  30.074   8.119   3.259
54947W        W21730  12.343  29.849  12.149
54948W        W21731  11.786   9.928   4.501
54949W        W21732  34.895   6.206   1.801
54950W        W21733   6.312  37.729   9.968
54951W        W21734  26.725  38.004  14.107
54952W        W21735   7.799  12.108   0.836
54953W        W21736  13.820  33.290   3.197
54954W        W21737  35.470  43.863  12.475
54955W        W21738  28.608  43.871  12.843
54956W        W21739  15.688  11.413   3.808
54957W        W21740  11.967  42.221  12.458
54958W        W21741  27.506  12.237  13.413
54959W        W21742  39.982   1.931   2.530
54960W        W21743  18.499  40.487   4.506
54961W        W21744  20.252  23.669  11.190
54962W        W21745  40.399   4.403  12.221
54963W        W21746  43.073  27.063   0.399
54964W        W21747  14.492  25.183   4.099
54965W        W21748  14.484  42.943  14.071
54966W        W21749   9.568   6.310  14.300
54967W        W21750  22.269  29.700   4.043
54968W        W21751  17.636   8.783   2.803
54969W        W21752   6.621  33.217   2.488
54970W        W21753  27.604  16.100   4.287
54971W        W21754   0.920  18.312   0.984
54972W        W21755  42.025   4.512   4.995
54973W        W21756  19.523  27.025  11.970
54974W        W21757   3.839  25.484   3.407
54975W        W21758  11.637  41.877  12.233
54976W        W21759  36.953   6.773   0.499
54977W        W21760  22.403  23.010  12.582
54978W        W21761   6.105  30.151  13.496
54979W        W21762  19.215   6.560  13.105
54980W        W21763   5.027   4.738  10.779
54981W        W21764  16.038  16.034   2.991
54982W        W21765  27.277   2.785  14.761
54983W        W21766   1.204  36.854   1.710
54984W        W21767  19.367  42.798  11.677
54985W        W21768  32.497   3.529   4.156
54986W        W21769  41.251   4.676   4.530
54987W        W21770   7.186  37.589  14.845
54988W        W21771  34.171  23.516  13.279
54989W        W21772  11.865  43.749  14.661
54990W        W21773  28.558  38.891   4.731
54991W        W21774  13.036  35.455   3.778
54992W        W21775   9.307  38.364  13.080
54993W        W21776  33.200  10.657   2.676
54994W        W21777  10.938  37.201   3.635
54995W        W21778  10.734  23.781  14.174
54996W        W21779   2.521  42.562  12.907
54997W        W21780  21.060  40.411   3.328
54998W        W21781  25.521   9.301  13.092
54999W        W21782  26.380  15.548   1.152
55000W        W21783   0.255  16.953  12.823
55001W        W21784   4.596  27.645  14.038
55002W        W21785   2.410  32.568   2.001
55003W        W21786  41.826  41.162   4.614
55004W        W21787   4.890  11.719   1.902
55005W        W21788  25.980   0.894   0.294
55006W        W21789  15.046  37.921  12.036
55007W        W21790  41.108  27.613  14.962
55008W        W21791  29.710  40.872   0.533
55009W        W21792  38.356  14.393  14.877
55010W        W21793   7.733   8.162  12.943
55011W        W21794  12.221   5.894  14.027
55012W        W21795  39.049  33.573   4.594
55013W        W21796  26.262  19.135  13.359
55014W        W21797  24.119  32.513   1.391
55015W        W21798  32.962   4.766   1.948
55016W        W21799  11.966  25.143   3.681
55017W        W21800  34.869  42.864  10.419
55018W        W21801   6.453  26.678   0.388
55019W        W21802  44.319   1.318   2.402
55020W        W21803   8.604  40.033   1.168
55021W        W21804  11.087  15.680   1.912
55022W        W21805  23.938  17.724  14.253
55023W        W21806  33.045  42.432   0.008
55024W        W21807  24.498   9.714  10.717
55025W        W21808  22.009  18.332   3.343
55026W        W21809  36.550  33.534   1.851
55027W        W21810  41.296  43.311  14.895
55028W        W21811  35.534  13.657   4.632
55029W        W21812  26.574  22.722   1.016
55030W        W21813  35.845  17.061  11.883
55031W        W21814  22.869   8.921   3.269
55032W        W21815   1.346  39.491   2.218
55033W        W21816  23.809  40.186   0.729
55034W        W21817  10.313  38.050   1.444
55035W        W21818  16.137  36.393  12.419
55036W        W21819   7.020  33.650   3.989
55037W        W21820   3.583   6.823   0.916
55038W        W21821  38.769  38.735  12.140
55039W        W21822  26.468  40.769   4.100
55040W        W21823  23.730  34.076   4.759
55041W        W21824   8.781  19.979   0.730
55042W        W21825  11.335   8.089  11.227
55043W        W21826  42.381   7.570   3.249
55044W        W21827   7.529  39.973  12.489
55045W        W21828   1.397  22.754  14.928
55046W        W21829  19.607  21.278  12.813
55047W        W21830  24.932  29.440   0.272
55048W        W21831  19.124  37.807  12.991
55049W        W21832  39.426  33.099  12.967
55050W        W21833  16.252  20.074   1.235
55051W        W21834  40.761  44.888  12.530
55052W        W21835  36.264  18.972   1.322
55053W        W21836  19.155   3.477   1.453
55054W        W21837  19.904  25.041   4.550
55055W        W21838   9.297  18.381  10.694
55056W        W21839  29.523  31.731   0.660
55057W        W21840  13.135  16.138   1.638
55058W        W21841  13.973  34.718   0.273
55059W        W21842  44.161   3.713  12.523
55060W        W21843   9.730  30.381   2.214
55061W        W21844  28.074  22.458  12.963
55062W        W21845  41.823   0.745   2.500
55063W        W21846  41.981  14.137  14.968
55064W        W21847  30.452  22.574  10.644
55065W        W21848  16.107  12.923   2.119
55066W        W21849   2.795  23.045   2.219
55067W        W21850  14.524  13.310   2.857
55068W        W21851   8.852   3.109   3.353
55069W        W21852  36.966  35.024   0.740
55070W        W21853  17.752  24.241  13.304
55071W        W21854  40.988  43.298  10.780
55072W        W21855   6.833  26.992  12.229
55073W        W21856   4.738  22.228  10.213
55074W        W21857  24.897   0.982  13.601
55075W        W21858   2.853   5.242  11.662
55076W        W21859  16.726  10.788  10.340
55077W        W21860  12.119   5.875   2.968
55078W        W21861   4.518   4.638  14.589
55079W        W21862  24.257  36.924   2.910
55080W        W21863   6.600   2.078  12.942
55081W        W21864  25.165  41.602  12.829
55082W        W21865  10.754  25.110  13.578
55083W        W21866  28.152   0.003   4.099
55084W        W21867  10.606  41.880   1.720
55085W        W21868  42.883  16.503  14.876
55086W        W21869  26.508  12.626   0.492
55087W        W21870  33.041  41.493  14.937
55088W        W21871  15.220  35.589   3.264
55089W        W21872  42.161   3.821  11.591
55090W        W21873  32.169  40.893   2.759
55091W        W21874  27.888  14.920  10.260
55092W        W21875  21.848  44.909   1.785
55093W        W21876  42.267  18.508  10.677
55094W        W21877  28.624   8.056   2.413
55095W        W21878  19.772  34.112  12.009
55096W        W21879  18.306  22.703   3.327
55097W        W21880  12.125  32.206  12.391
55098W        W21881   4.962  14.769   0.808
55099W        W21882   3.590  18.957  11.593
55100W        W21883  25.644  16.748   0.701
55101W        W21884   2.242  21.578  14.906
55102W        W21885  40.562   1.879   1.322
55103W        W21886  20.289  39.495  12.430
55104W        W21887  22.234  20.261   3.172
55105W        W21888  17.250  20.818  14.541
55106W        W21889  19.107  31.459  13.108
55107W        W21890   1.857  31.021   0.911
55108W        W21891   1.498   1.768  13.894
55109W        W21892   2.282   9.529  11.972
55110W        W21893  27.117  34.015   2.237
55111W        W21894  39.456  42.887  11.058
55112W        W21895  37.169  27.481  12.473
55113W        W21896  23.444  16.698  11.135
55114W        W21897  15.160   9.894  12.537
55115W        W21898  20.757  34.688  13.433
55116W        W21899  21.498  12.700  14.908
55117W        W21900   2.225  28.981  11.155
55118W        W21901  42.998  11.722   1.750
55119W        W21902  31.078   6.239   1.957
55120W        W21903  26.262  11.319  12.897
55121W        W21904  25.950  18.160   2.697
55122W        W21905  18.808  20.610  14.397
55123W        W21906  43.346   4.933   1.369
55124W        W21907  22.106  30.430  13.437
55125W        W21908  43.080   1.699  12.403
55126W        W21909  10.734  22.982   1.974
55127W        W21910   1.352  40.623   1.538
55128W        W21911  29.459  28.094   1.512
55129W        W21912  21.600  27.160   4.158
55130W        W21913  11.732   1.439   0.551
55131W        W21914  14.688  40.344  13.836
55132W        W21915  39.538  41.401   0.840
55133W        W21916   2.818  36.055   4.180
55134W        W21917   9.055  22.623  11.744
55135W        W21918  39.015  43.671  10.961
55136W        W21919   8.692  11.134  11.057
55137W        W21920  34.189  36.289  11.214
55138W        W21921  28.959  20.966  12.425
55139W        W21922  16.835  22.650  14.809
55140W        W21923  22.205  40.801  14.514
55141W        W21924  20.532  38.479  12.726
55142W        W21925  32.272  16.028   2.771
55143W        W21926  26.062  42.546  11.247
55144W        W21927  10.437  14.090   1.630
55145W        W21928  27.704  36.831   3.671
55146W        W21929  34.894  32.571   2.931
55147W        W21930   2.884   6.735  11.112
55148W        W21931  43.962   9.660   1.910
55149W        W21932  15.783  18.243   1.524
55150W        W21933  42.590  18.112  13.545
55151W        W21934   3.776  26.977  13.923
55152W        W21935  32.010   7.998   3.645
55153W        W21936  40.211  13.399   1.132
55154W        W21937  24.650  23.228  11.566
55155W        W21938  10.954   1.686  13.509
55156W        W21939  36.775  16.743  14.158
55157W        W21940  40.309  33.979  11.684
55158W        W21941  14.734   0.697  13.477
55159W        W21942   2.550  11.813  10.735
55160W        W21943  27.128  42.031   0.501
55161W        W21944  15.435  17.195   2.350
55162W        W21945  41.855  43.024  14.277
55163W        W21946  31.604  22.230  12.501
55164W        W21947  12.834  41.712  14.997
55165W        W21948   0.965  22.767   4.198
55166W        W21949   4.316  28.176   2.361
55167W        W21950   9.274  36.420  12.247
55168W        W21951  10.389  21.214  12.363
55169W        W21952  31.857  12.468   2.220
55170W        W21953  30.340  11.780   0.411
55171W        W21954  35.923  12.047  11.471
55172W        W21955   8.985  12.132  14.731
55173W        W21956  33.655  12.337   3.190
55174W        W21957  22.204   5.047  14.505
55175W        W21958  44.971   6.680  14.585
55176W        W21959   6.899  42.953   0.347
55177W        W21960  39.054  25.437  12.997
55178W        W21961  15.312   7.365  12.461
55179W        W21962   3.883  37.906   1.462
55180W        W21963  15.808  38.286   1.868
55181W        W21964  43.960  33.871   2.226
55182W        W21965   2.551  33.829   0.893
55183W        W21966  44.842  43.606   0.615
55184W        W21967  17.462  17.288   3.220
55185W        W21968  21.719  23.425  13.932
55186W        W21969  15.089  27.115  11.397
55187W        W21970  44.718  15.433   0.703
55188W        W21971  10.053  35.624   0.760
55189W        W21972  14.439  25.490   0.645
55190W        W21973  25.518  31.858  13.304
55191W        W21974  30.908   3.420   4.738
55192W        W21975  39.015  23.994  12.076
55193W        W21976  22.446  26.823  12.007
55194W        W21977  15.094  38.759  14.371
55195W        W21978  15.250  20.915   2.681
55196W        W21979  21.711  19.217   1.629
55197W        W21980  29.168  16.501  10.819
55198W        W21981  29.216  36.244  14.495
55199W        W21982  40.468  21.486  12.869
55200W        W21983  24.653  10.637   3.189
55201W        W21984  33.064  22.538  12.430
55202W        W21985  34.547  33.137   2.188
55203W        W21986  34.369  38.978   1.829
55204W        W21987   1.340  21.344  12.605
55205W        W21988  26.248  33.099  13.481
55206W        W21989  20.000  35.413   3.395
55207W        W21990  34.890  15.503  11.208
55208W        W21991  16.230   5.482   2.230
55209W        W21992  12.074  37.566   2.341
55210W        W21993   0.332   9.386  12.244
55211W        W21994  26.220  29.475  12.539
55212W        W21995   6.450   3.666   2.724
55213W        W21996  27.986  41.959   1.337
55214W        W21997  18.785  28.692   2.367
55215W        W21998   9.555  32.177   0.446
55216W        W21999   9.062   8.978   4.825
55217W        W22000   6.007   9.113  11.542
55218W        W22001   4.256  24.738  10.628
55219W        W22002   6.198  12.102   2.844
55220W        W22003  11.831   5.496  14.085
55221W        W22004  31.912  37.434   3.350
55222W        W22005   3.488   1.936   4.157
55223W        W22006  17.491  12.338   3.704
55224W        W22007  23.113  40.341   1.949
55225W        W22008  28.226  13.621   1.604
55226W        W22009  37.207  27.666   2.706
55227W        W22010  38.899  27.996   4.749
55228W        W22011  32.505  29.233   3.185
55229W        W22012   8.364  36.368   1.785
55230W        W22013  18.244   3.009  12.022
55231W        W22014  33.908  33.477  11.141
55232W        W22015  22.036  19.723  13.542
55233W        W22016  23.840  30.969  10.603
55234W        W22017  26.599  20.455   0.007
55235W        W22018   0.469  26.454   1.709
55236W        W22019   8.562  14.621   1.811
55237W        W22020  21.239  28.081   0.503
55238W        W22021   0.827   8.768   2.722
55239W        W22022  42.752  39.860   2.729
55240W        W22023  25.003  44.837  11.965
55241W        W22024  40.046   6.238   4.594
55242W        W22025  33.320  16.610  14.999
55243W        W22026   0.291   2.451   2.884
55244W        W22027  10.474   5.432  10.226
55245W        W22028  24.653   6.705  12.900
55246W        W22029  20.662  41.866   3.683
55247W        W22030  13.621  19.067   3.152
55248W        W22031  42.062  12.786   0.234
55249W        W22032   9.750  39.962   2.232
55250W        W22033  41.130  19.487  11.008
55251W        W22034  40.569  42.983  11.118
55252W        W22035  44.342  25.947  10.690
55253W        W22036  11.330  20.219  14.762
55254W        W22037  31.351  26.958   4.219
55255W        W22038  38.724  14.542  11.661
55256W        W22039  16.234  37.847   0.175
55257W        W22040   0.334  33.441   2.411
55258W        W22041  35.274   2.802  10.704
55259W        W22042  26.473   4.944   0.001
55260W        W22043  40.287   6.847  14.761
55261W        W22044  11.275  14.178   1.865
55262W        W22045  33.578  12.068   1.197
55263W        W22046  16.870   3.300   2.368
55264W        W22047  22.821   4.127   5.116
55265W        W22048   3.419  19.889  13.908
55266W        W22049   8.716  20.771   1.852
55267W        W22050  16.140  26.481  12.015
55268W        W22051  34.645  30.156  12.054
55269W        W22052  38.517  30.442   4.818
55270W        W22053   2.740   5.427  14.258
55271W        W22054  44.484   3.480  14.849
55272W        W22055  22.991  15.617   1.300
55273W        W22056  26.081  22.607   2.250
55274W        W22057  36.046  28.476  12.086
55275W        W22058   6.466  17.812   2.892
55276W        W22059  24.190   7.134   0.842
55277W        W22060  23.040  39.869   5.012
55278W        W22061  28.120  40.180   2.364
55279W        W22062  24.469  26.347   1.373
55280W        W22063  10.113   7.671  13.563
55281W        W22064  22.048   8.618   1.833
55282W        W22065  15.368  22.503  12.411
55283W        W22066   3.009   3.403  13.991
55284W        W22067  10.729  31.421   3.719
55285W        W22068   0.781  34.035  13.321
55286W        W22069  33.966   4.934  13.169
55287W        W22070  33.545  26.175   2.411
55288W        W22071  12.881   9.168  10.273
55289W        W22072  11.928  43.966   2.778
55290W        W22073  34.109  35.226  10.440
55291W        W22074   8.372  35.608  12.063
55292W        W22075  38.721  13.870   1.114
55293W        W22076  26.431   1.365  14.273
55294W        W22077  39.606   8.344  12.419
55295W        W22078   0.480  36.828   4.251
55296W        W22079  30.750  33.871  10.884
55297W        W22080  12.682  19.681  10.522
55298W        W22081  35.212  40.573   1.615
55299W        W22082  10.093  25.553  13.872
55300W        W22083  10.144   9.153  10.641
55301W        W22084  34.575  29.603   0.887
55302W        W22085  12.128  29.484   3.267
55303W        W22086  43.008  18.881   2.474
55304W        W22087  21.095  22.713  12.120
55305W        W22088  21.557  10.356  11.256
55306W        W22089  34.918  38.426  11.486
55307W        W22090   4.277  18.469  14.364
55308W        W22091   9.973  14.308   2.950
55309W        W22092  43.304  41.876  10.647
55310W        W22093   6.264  35.303   1.252
55311W        W22094  20.264  31.165   4.084
55312W        W22095  32.769  33.734   2.388
55313W        W22096  39.293  21.249  10.711
55314W        W22097  29.579  38.744   2.706
55315W        W22098  19.213  43.950  10.695
55316W        W22099   0.162  18.652   1.906
55317W        W22100  37.212  24.039  11.899
55318W        W22101  39.371  18.810  12.320
55319W        W22102  42.458  14.898  11.124
55320W        W22103   0.546  27.502  13.337
55321W        W22104  30.023  12.119  14.039
55322W        W22105   1.208  30.534   4.341
55323W        W22106  41.541  37.820   0.282
55324W        W22107  12.607  16.850   4.094
55325W        W22108  18.773  44.041  10.441
55326W        W22109   3.715  15.174  12.506
55327W        W22110  31.514  11.685   1.341
55328W        W22111   1.992  35.287   0.408
55329W        W22112  36.559  27.745  13.987
55330W        W22113  14.315  20.141   4.605
55331W        W22114  30.637   2.129  11.966
55332W        W22115   0.716  16.176  12.927
55333W        W22116  25.637  12.915  10.740
55334W        W22117  15.612  20.625  14.483
55335W        W22118  31.988  30.013   2.118
55336W        W22119  13.649   1.129  14.486
55337W        W22120  27.461  18.099   1.374
55338W        W22121  12.796  19.462   0.656
55339W        W22122  11.194  39.979  14.675
55340W        W22123  39.987  24.652   3.783
55341W        W22124  11.838  35.799  14.753
55342W        W22125  30.966  38.198   0.858
55343W        W22126   3.391  20.930  13.857
55344W        W22127  38.507   7.707   1.265
55345W        W22128  31.392  27.910   4.106
55346W        W22129  23.143  12.844   4.143
55347W        W22130   3.255  39.696   4.287
55348W        W22131  20.552   0.527  12.135
55349W        W22132  35.340  33.054  13.729
55350W        W22133  27.887  30.362   1.193
55351W        W22134  44.811   5.200  13.961
55352W        W22135   2.380   9.141   4.550
55353W        W22136  26.237   0.588   4.536
55354W        W22137   7.732   5.666   3.135
55355W        W22138  38.876  27.738   2.315
55356W        W22139  41.907  41.113   0.415
55357W        W22140  40.303  34.398   3.275
55358W        W22141  18.545  36.774   0.681
55359W        W22142  43.422  11.230   4.118
55360W        W22143  21.069  16.729  13.072
55361W        W22144  28.224  27.726   1.030
55362W        W22145  31.313   4.732   0.841
55363W        W22146  26.576  40.073  14.028
55364W        W22147  44.741  21.172  12.738
55365W        W22148   3.005  37.732   0.002
55366W        W22149   5.425  13.117  10.420
55367W        W22150  34.928   1.721   0.922
55368W        W22151  16.573  27.156   2.368
55369W        W22152   1.104  17.306  10.730
55370W        W22153  13.757   9.944  13.024
55371W        W22154  22.475  41.126  13.694
55372W        W22155  29.415  13.949   3.073
55373W        W22156   0.759  15.123   0.816
55374W        W22157  14.174   8.411   4.625
55375W        W22158   1.860  15.791   3.637
55376W        W22159  31.069  23.243  12.043
55377W        W22160  13.801  17.577  11.362
55378W        W22161  24.328  40.393   1.819
55379W        W22162   7.311   3.946  11.908
55380W        W22163  10.100  31.932  12.473
55381W        W22164   6.394  42.526  12.424
55382W        W22165  24.921   1.217  14.287
55383W        W22166  25.649  36.615  13.368
55384W        W22167  40.909  22.258   1.444
55385W        W22168   8.697   4.481  10.498
55386W        W22169  12.630  15.766   4.312
55387W        W22170   4.790  32.936   0.578
55388W        W22171  32.079  29.048   2.916
55389W        W22172  41.402   7.214   2.121
55390W        W22173  23.281   5.725   1.852
55391W        W22174  37.647  14.044  13.999
55392W        W22175  37.377  27.563  14.562
55393W        W22176  25.439  41.381  14.458
55394W        W22177  39.602   3.160   4.100
55395W        W22178   0.281  44.331  10.634
55396W        W22179   9.222  10.378  12.475
55397W        W22180  28.440  16.096  12.534
55398W        W22181   5.754   7.894  10.712
55399W        W22182  27.222   6.266   0.837
55400W        W22183  17.217  40.586   3.807
55401W        W22184   0.982  35.755   4.290
55402W        W22185   9.170   5.346  13.285
55403W        W22186  19.790   1.335   4.885
55404W        W22187  26.811  26.850  10.350
55405W        W22188  28.107  27.581   4.650
55406W        W22189  42.261  23.964   2.983
55407W        W22190  16.170   3.429  13.786
55408W        W22191   5.127   0.327  14.623
55409W        W22192  16.137  35.040   1.469
55410W        W22193   3.977   9.392   0.898
55411W        W22194  28.410  22.979  14.277
55412W        W22195  33.551   3.252   1.292
55413W        W22196  11.168   5.686  13.016
55414W        W22197  20.976   2.893  13.502
55415W        W22198  21.323  29.567   1.859
55416W        W22199  10.615  27.232  10.551
55417W        W22200  40.080  28.450  14.250
55418W        W22201  19.957   2.409   1.310
55419W        W22202   9.652  27.977   0.882
55420W        W22203  35.865  24.232   3.209
55421W        W22204   6.377  22.647  13.121
55422W        W22205  14.264  43.212   4.334
55423W        W22206  25.431  10.015  14.921
55424W        W22207  32.665  33.588  13.019
55425W        W22208   4.715  28.054  10.722
55426W        W22209   6.745  40.465  12.874
55427W        W22210  29.551  41.916  12.491
55428W        W22211  44.549   1.069  13.390
55429W        W22212  18.562  31.499   1.809
55430W        W22213  30.641  12.670   1.915
55431W        W22214  27.867  24.566   2.889
55432W        W22215  43.971  18.179  12.131
55433W        W22216   7.635  39.831   1.340
55434W        W22217  44.265  23.646  14.906
55435W        W22218  28.526   3.220   2.781
55436W        W22219  41.757  15.415  13.018
55437W        W22220  42.931  13.999   0.796
55438W        W22221  14.672  31.986   4.582
55439W        W22222   2.422  39.669  12.088
55440W        W22223  13.236  37.146  14.009
55441W        W22224  14.874  32.036  12.286
55442W        W22225  26.221  11.407   0.533
55443W        W22226  14.164  25.057  10.639
55444W        W22227  31.379   0.388  10.794
55445W        W22228  39.140   4.256   1.845
55446W        W22229  16.821   1.263  12.926
55447W        W22230  38.934   7.989  13.948
55448W        W22231   7.704  14.263  12.980
55449W        W22232  39.757  31.983   4.622
55450W        W22233  34.365  28.419   1.377
55451W        W22234  11.688  14.110   4.091
55452W        W22235  22.604  25.094   0.538
55453W        W22236  17.385  41.478   0.795
55454W        W22237   9.895  40.179   1.773
55455W        W22238  11.093  29.697   0.717
55456W        W22239  28.072  16.258   2.555
55457W        W22240  43.775  40.336   1.212
55458W        W22241  11.154   7.299   2.431
55459W        W22242  25.563   4.402   3.227
55460W        W22243   3.390   3.915   2.263
55461W        W22244  40.967  35.871   3.542
55462W        W22245  21.123   2.075  13.654
55463W        W22246   9.317  20.242  14.905
55464W        W22247   3.797  36.056   3.621
55465W        W22248  34.898  10.051  14.580
55466W        W22249   0.944  42.270   4.621
55467W        W22250   3.634  10.119   2.233
55468W        W22251  23.780   8.114  13.826
55469W        W22252  40.313   2.851  13.260
55470W        W22253  34.112  40.487  10.720
55471W        W22254  19.247  27.962  11.561
55472W        W22255   5.817  17.594   1.782
55473W        W22256  16.540  21.862  11.610
55474W        W22257   6.261  15.580   5.003
55475W        W22258  44.711  22.991   1.581
55476W        W22259   7.187   0.428  10.762
55477W        W22260   3.914  36.912  14.031
55478W        W22261  32.755  35.152   1.757
55479W        W22262  15.765   0.670   2.727
55480W        W22263  42.059  33.009   2.778
55481W        W22264  20.803   4.396  10.939
55482W        W22265  18.059  28.590  12.219
55483W        W22266  30.151  24.470  14.232
55484W        W22267  17.347  36.171   4.158
55485W        W22268  31.170  38.051   0.360
55486W        W22269  42.510  36.177   1.475
55487W        W22270  24.471  29.751   1.799
55488W        W22271  42.080   0.282   0.806
55489W        W22272  17.403  31.326  11.627
55490W        W22273   9.315  37.519  11.611
55491W        W22274   6.594  19.204  13.164
55492W        W22275  41.235   1.157   0.951
55493W        W22276  43.844  21.159   2.062
55494W        W22277  22.466  12.593  14.275
55495W        W22278   5.197   3.942   2.784
55496W        W22279  11.417  20.757   1.815
55497W        W22280  38.839  40.383   4.542
55498W        W22281   1.840  25.222  11.597
55499W        W22282  10.362  41.582   0.358
55500W        W22283  36.240  13.937   1.305
55501W        W22284  34.192  28.491   0.428
55502W        W22285  14.829  12.751   3.672
55503W        W22286  34.897  41.696  13.848
55504W        W22287   7.224  17.083   0.861
55505W        W22288  22.170  26.695   2.772
55506W        W22289  16.359  14.886  12.900
55507W        W22290  22.225   5.659  10.746
55508W        W22291  44.042  42.956   0.777
55509W        W22292  20.621   0.864   0.019
55510W        W22293  44.522  23.828  12.996
55511W        W22294  38.183  16.136   2.295
55512W        W22295  22.501   4.586  14.816
55513W        W22296  16.894  15.592   0.820
55514W        W22297  33.925   2.666   2.778
55515W        W22298  12.038   3.440  10.246
55516W        W22299  12.221  38.350   1.378
55517W        W22300  22.729  30.619   4.055
55518W        W22301  18.561  32.950   0.551
55519W        W22302  36.834  34.297   4.482
55520W        W22303  27.132  29.306   0.031
55521W        W22304  13.609  34.296  12.459
55522W        W22305   3.346  14.174  11.947
55523W        W22306   0.244  43.026   3.693
55524W        W22307  38.522  21.611  10.463
55525W        W22308  42.452  24.098  10.378
55526W        W22309  21.341   3.381   1.275
55527W        W22310   2.768   3.717  13.657
55528W        W22311  41.837  41.525   3.242
55529W        W22312   1.277   8.106   3.166
55530W        W22313   6.382  16.847   3.046
55531W        W22314  19.944  34.488  14.986
55532W        W22315   5.687  31.797   1.199
55533W        W22316  31.423  15.103   2.978
55534W        W22317  39.369  18.696   2.834
55535W        W22318  10.837  14.112   4.912
55536W        W22319  22.129  23.039  13.050
55537W        W22320  17.082  30.963  12.685
55538W        W22321  15.934  25.675  10.676
55539W        W22322   5.816  20.824   2.708
55540W        W22323  22.608  30.553   0.826
55541W        W22324  33.374  18.139   3.734
55542W        W22325  41.707  32.518  11.906
55543W        W22326  37.426  38.663   3.561
55544W        W22327  18.037  43.580  11.102
55545W        W22328  17.687  26.135   2.552
55546W        W22329   8.844  34.442   0.871
55547W        W22330  11.137  36.191  14.404
55548W        W22331  38.043  29.583   3.348
55549W        W22332  38.038   4.181   3.668
55550W        W22333  17.553  41.504   4.118
55551W        W22334  20.258  16.095   5.053
55552W        W22335   2.851  29.402   2.439
55553W        W22336  38.896  28.666   1.980
55554W        W22337  17.656  41.844   3.649
55555W        W22338  39.131   5.193   1.942
55556W        W22339   2.038  26.962  14.887
55557W        W22340  18.737   1.267  10.608
55558W        W22341  30.913  25.527  12.507
55559W        W22342   9.309  18.442   4.518
55560W        W22343  41.379  40.099   2.732
55561W        W22344  17.687  13.568  10.195
55562W        W22345  14.816   2.910  11.653
55563W        W22346  41.626  44.943  11.705
55564W        W22347   5.196  12.591  12.590
55565W        W22348   0.485  31.964   4.213
55566W        W22349  12.722  16.353   4.232
55567W        W22350  11.149  27.118  10.444
55568W        W22351  28.408  32.392   1.190
55569W        W22352  15.096  15.988   0.024
55570W        W22353  42.473  43.277  12.440
55571W        W22354  18.537  35.001   4.543
55572W        W22355  27.197  31.120  12.840
55573W        W22356   0.726   3.395  13.926
55574W        W22357  27.238   0.967   0.655
55575W        W22358  14.607  24.640   3.309
55576W        W22359  33.829  35.003  13.566
55577W        W22360   6.345  12.330   0.234
55578W        W22361  14.250   8.271  10.428
55579W        W22362  17.698   5.050   0.863
55580W        W22363  24.521  38.540  12.507
55581W        W22364  43.596  32.992   3.072
55582W        W22365  39.961  44.794  12.026
55583W        W22366   3.615  38.554  13.218
55584W        W22367  38.577  27.037  12.317
55585W        W22368   7.249  33.163   3.282
55586W        W22369   3.415  11.554   0.963
55587W        W22370   9.688  42.502   0.022
55588W        W22371  29.320  40.290  14.861
55589W        W22372  36.766  37.131   3.236
55590W        W22373  16.644  10.880  13.790
55591W        W22374   0.059   6.264   1.491
55592W        W22375  42.994  25.402  11.587
55593W        W22376   7.813  15.627   2.188
55594W        W22377  14.677  35.655  10.736
55595W        W22378  24.670  16.533   0.276
55596W        W22379   9.872   3.713   4.136
55597W        W22380  29.453   2.185  14.607
55598W        W22381  25.697  33.787  13.964
55599W        W22382  23.551  27.984   3.111
55600W        W22383  39.536  38.540  12.394
55601W        W22384  43.839  38.425  12.874
55602W        W22385  33.244  35.475  14.719
55603W        W22386  13.910  32.509   2.074
55604W        W22387  27.621  30.159  11.032
55605W        W22388  22.131   1.888   0.151
55606W        W22389  42.413   9.410  12.626
55607W        W22390   5.300  25.965   4.454
55608W        W22391  20.148  20.534   1.948
55609W        W22392  34.542  35.112   0.815
55610W        W22393  18.753  42.988  11.988
55611W        W22394   9.186   4.474   4.126
55612W        W22395   0.393  22.485  10.569
55613W        W22396  24.950  42.748  13.538
55614W        W22397  27.547  37.310   3.575
55615W        W22398  30.378   5.470  13.984
55616W        W22399   9.357  13.023   1.754
55617W        W22400   5.670  26.407  12.544
55618W        W22401  28.454  28.584  13.441
55619W        W22402   4.340  24.302  13.944
55620W        W22403   0.563  38.971  11.661
55621W        W22404  25.062  16.590  13.039
55622W        W22405  12.080  40.423  13.500
55623W        W22406  44.199   8.436   3.159
55624W        W22407  36.284  14.378  13.752
55625W        W22408   2.767  23.911   0.256
55626W        W22409  23.567  32.212   3.381
55627W        W22410  12.247  15.194  12.436
55628W        W22411   9.086  10.396   3.606
55629W        W22412  17.022  13.866  10.717
55630W        W22413  15.071  20.175  12.985
55631W        W22414  18.344  41.373   1.168
55632W        W22415   9.727   4.300   1.213
55633W        W22416   5.563  41.397   1.299
55634W        W22417  25.697  39.720   1.791
55635W        W22418  15.020  16.210   9.825
55636W        W22419  33.923  21.577   2.720
55637W        W22420   1.989  17.528   2.203
55638W        W22421  12.010  17.831   1.867
55639W        W22422  17.688  23.227  12.479
55640W        W22423  32.759  23.086  11.672
55641W        W22424  13.709  31.090  13.142
55642W        W22425   4.668  39.430   1.324
55643W        W22426  25.260  33.243   2.631
55644W        W22427  42.728  34.611   2.987
55645W        W22428  44.505   3.260   1.356
55646W        W22429  17.026  36.753  11.767
55647W        W22430   6.600  16.110   1.839
55648W        W22431   4.732   1.060  14.976
55649W        W22432  24.556  41.009  11.305
55650W        W22433   1.773  21.208  10.771
55651W        W22434  25.378  24.100   3.215
55652W        W22435  18.161  42.097   2.829
55653W        W22436  28.425  42.767   0.864
55654W        W22437  21.376  15.881   0.319
55655W        W22438  26.245  38.982   0.827
55656W        W22439   3.956  41.854   2.373
55657W        W22440  36.968  38.944  12.394
55658W        W22441  20.810  18.688  14.558
55659W        W22442  36.854  43.415  12.139
55660W        W22443  26.661  44.460  13.709
55661W        W22444   4.426  39.272  14.939
55662W        W22445   6.267  15.112  10.833
55663W        W22446  12.118  39.921   1.781
55664W        W22447   8.776  29.919  14.878
55665W        W22448  36.098  26.808  14.250
55666W        W22449  24.216  24.066  13.059
55667W        W22450  12.163  28.904  11.166
55668W        W22451  15.154  28.066  13.460
55669W        W22452  30.975   3.936  14.212
55670W        W22453  17.646  10.295   0.958
55671W        W22454  21.696   9.596  13.957
55672W        W22455  42.011   8.164  11.610
55673W        W22456  11.403  18.671  12.612
55674W        W22457  38.134  41.038   2.489
55675W        W22458  26.162  24.683  11.412
55676W        W22459  19.221  12.425  14.822
55677W        W22460  19.736  32.127   1.998
55678W        W22461  26.131   1.507  11.437
55679W        W22462  15.884   3.953  14.908
55680W        W22463  31.680  31.385  13.329
55681W        W22464   6.958  13.117  11.381
55682W        W22465  39.592  28.668   2.682
55683W        W22466   8.899   6.209  13.570
55684W        W22467  38.076  11.404  13.381
55685W        W22468  29.846  11.937   0.463
55686W        W22469  15.144   0.584   3.773
55687W        W22470   1.459  23.023   3.161
55688W        W22471  13.263  12.317   0.477
55689W        W22472  14.579  10.852   2.239
55690W        W22473  14.262  38.492   3.682
55691W        W22474  10.739  28.037  14.249
55692W        W22475  43.702  36.794   0.728
55693W        W22476   7.656   5.056   1.213
55694W        W22477  20.542  24.206  13.361
55695W        W22478   2.432  31.622   2.433
55696W        W22479  15.823   1.070  11.615
55697W        W22480   2.908   1.207   3.608
55698W        W22481   2.286  19.096  13.428
55699W        W22482  16.715   8.687   3.753
55700W        W22483   7.231  29.577   3.092
55701W        W22484  41.092  44.396   1.783
55702W        W22485  38.754  39.414   3.058
55703W        W22486  33.328   6.999   1.256
55704W        W22487  20.496  29.265  13.814
55705W        W22488  13.418   7.131   4.256
55706W        W22489  22.178  28.103  13.735
55707W        W22490  20.325  24.224   0.990
55708W        W22491  13.305  29.620   3.728
55709W        W22492  14.732  36.628   2.377
55710W        W22493  34.421  44.520   1.597
55711W        W22494   4.629  31.408   5.025
55712W        W22495  34.107   3.115  14.394
55713W        W22496  43.259  10.241  11.145
55714W        W22497  41.263   2.922  14.326
55715W        W22498   0.188  18.505  11.518
55716W        W22499  32.000  32.016   2.403
55717W        W22500  14.415  20.482  10.672
55718W        W22501  11.607   7.375   3.305
55719W        W22502  32.126  42.043   0.806
55720W        W22503  40.341  35.660   0.836
55721W        W22504   9.208  28.377  13.298
55722W        W22505  22.718  17.664  11.430
55723W        W22506  39.014  15.016   0.770
55724W        W22507  23.517  41.274  12.597
55725W        W22508  39.351  30.810  14.591
55726W        W22509  30.671   2.714   0.812
55727W        W22510  11.244  30.706  12.367
55728W        W22511  23.148  37.743   3.692
55729W        W22512  17.016  27.002   3.905
55730W        W22513  29.752  18.447   2.006
55731W        W22514  26.169  36.012  11.787
55732W        W22515  19.959  28.642   2.690
55733W        W22516   0.409  25.115  14.287
55734W        W22517  30.926  32.303  11.753
55735W        W22518  11.281  42.738  10.709
55736W        W22519  37.823  13.062  13.889
55737W        W22520   6.376  38.675   5.003
55738W        W22521   9.711  10.917  11.568
55739W        W22522  11.462  34.847   1.471
55740W        W22523  20.534  33.155  13.953
55741W        W22524   1.033  22.451  11.518
55742W        W22525  22.974  15.793  13.209
55743W        W22526  10.200   8.168  13.702
55744W        W22527  37.605  20.051   2.645
55745W        W22528  36.129   1.407   3.322
55746W        W22529  13.740   6.551   2.799
55747W        W22530  10.686  44.834  13.725
55748W        W22531  33.061  43.699  11.617
55749W        W22532  15.616   1.499   2.332
55750W        W22533   9.105   6.947   3.152
55751W        W22534  19.287  37.519  11.545
55752W        W22535   3.450  33.582  11.152
55753W        W22536  42.823  29.975   2.910
55754W        W22537  21.734  43.445   3.209
55755W        W22538  14.129  14.849  12.977
55756W        W22539  39.979  42.961  11.050
55757W        W22540   1.690  33.504   2.439
55758W        W22541  18.345  10.311   1.987
55759W        W22542  13.263   0.923  13.716
55760W        W22543  41.895  44.797   4.660
55761W        W22544  29.911  38.810  14.423
55762W        W22545   9.636  26.732   3.954
55763W        W22546  35.179  14.635  13.594
55764W        W22547   2.721  14.444   2.751
55765W        W22548  24.615  32.731  14.808
55766W        W22549  11.040   2.198   0.737
55767W        W22550  36.888  36.953  14.863
55768W        W22551  43.984  16.861   0.543
55769W        W22552   8.986  41.793   0.731
55770W        W22553   8.497   5.568  14.874
55771W        W22554  14.975  42.342  11.376
55772W        W22555  12.670  38.517  11.077
55773W        W22556  26.322   9.249  13.915
55774W        W22557   1.371  28.842   2.296
55775W        W22558  35.087  14.135   1.070
55776W        W22559  18.822  31.245  10.963
55777W        W22560  20.176   4.938  11.331
55778W        W22561  21.031   2.633  12.422
55779W        W22562  17.574  29.848   3.901
55780W        W22563  44.687  32.412  10.548
55781W        W22564  36.927   5.730   0.781
55782W        W22565  44.334   2.452  10.674
55783W        W22566  24.209  36.376  14.019
55784W        W22567  11.708   6.249  14.343
55785W        W22568   1.058  39.318   1.790
55786W        W22569  34.119   7.042  14.252
55787W        W22570  11.371  42.887   4.548
55788W        W22571  34.568  19.142  13.397
55789W        W22572  40.935  31.158  14.067
55790W        W22573  12.644   5.654   0.385
55791W        W22574  13.212   5.860  14.129
55792W        W22575  18.313   9.266   0.507
55793W        W22576  26.395  41.314   1.708
55794W        W22577  28.072  19.846  13.453
55795W        W22578  39.842  41.621  14.000
55796W        W22579   2.788  39.924   4.330
55797W        W22580  13.580  10.382   4.126
55798W        W22581   7.863  36.015   4.591
55799W        W22582   2.540  34.368   4.329
55800W        W22583  29.011  26.066   1.255
55801W        W22584  20.761  31.463  14.482
55802W        W22585   7.966  29.070  12.548
55803W        W22586  33.831  11.388   2.328
55804W        W22587  29.487  31.175  13.911
55805W        W22588  25.620   9.812   1.880
55806W        W22589   0.876  11.930  11.992
55807W        W22590  32.894  31.471   2.483
55808W        W22591  36.031  37.906   1.792
55809W        W22592  17.756  34.833  12.069
55810W        W22593  13.259  28.958  13.545
55811W        W22594  39.726  11.091   4.054
55812W        W22595  42.187  11.720  13.852
55813W        W22596   1.484  17.504  11.271
55814W        W22597   1.684  34.333  10.702
55815W        W22598  35.510  23.611   3.427
55816W        W22599  19.528  37.562  13.540
55817W        W22600  36.790  13.913   1.351
55818W        W22601  13.102   7.717   9.771
55819W        W22602   7.727  43.402   4.584
55820W        W22603  16.752   3.607  10.566
55821W        W22604  40.692   6.759   1.683
55822W        W22605  43.827  26.608  10.722
55823W        W22606  21.596   6.924  12.271
55824W        W22607   0.256   2.475  11.595
55825W        W22608   4.898  26.745   1.420
55826W        W22609  43.526  17.826   3.275
55827W        W22610  28.901  42.212   3.640
55828W        W22611  43.696  39.118  10.270
55829W        W22612   5.947   4.284  13.779
55830W        W22613   6.398   7.299  12.006
55831W        W22614   3.951  33.517   0.634
55832W        W22615  13.618   7.421  14.439
55833W        W22616  22.120  21.904  14.448
55834W        W22617   0.599  20.644   4.575
55835W        W22618  42.539  23.052  12.396
55836W        W22619  43.359  33.599  11.606
55837W        W22620   8.754   2.482   2.784
55838W        W22621  28.020   3.302  14.404
55839W        W22622  43.211  21.155  11.902
55840W        W22623   9.720  13.385   1.870
55841W        W22624   8.741   3.852   3.710
55842W        W22625  22.935  37.765  12.411
55843W        W22626   4.530  18.701  13.415
55844W        W22627  32.536  37.936  10.737
55845W        W22628  27.016   3.942  11.152
55846W        W22629  33.996  31.464   2.017
55847W        W22630  20.591  26.011   4.215
55848W        W22631  13.689  10.412   2.073
55849W        W22632  30.451   4.263   3.254
55850W        W22633  15.981  40.740  13.042
55851W        W22634  27.975  10.708   4.212
55852W        W22635  39.310  11.806   1.196
55853W        W22636  41.067   1.964  12.824
55854W        W22637  14.119  35.652  12.522
55855W        W22638   6.838  27.736   3.289
55856W        W22639  20.085  27.001  11.085
55857W        W22640  28.091  31.642   2.146
55858W        W22641  26.206  43.709   4.826
55859W        W22642   5.211  37.902   0.341
55860W        W22643  22.648   6.234   0.800
55861W        W22644   8.387  27.234   1.296
55862W        W22645   3.836   5.946  13.600
55863W        W22646  23.450   1.407   0.901
55864W        W22647  29.451   9.614   0.319
55865W        W22648  31.996  34.184   1.135
55866W        W22649  26.436  37.146  11.169
55867W        W22650  28.705  38.807  14.948
55868W        W22651  33.572  23.010   4.100
55869W        W22652  38.717  20.783  13.569
55870W        W22653  16.307   5.477  14.259
55871W        W22654  20.048  11.750  11.009
55872W        W22655  15.877   3.245  13.038
55873W        W22656  22.462  28.730   0.756
55874W        W22657  27.120   4.429  10.985
55875W        W22658  19.250  38.083   0.249
55876W        W22659   0.752  43.503  12.466
55877W        W22660  17.716  16.848   4.085
55878W        W22661   3.277  37.553  12.423
55879W        W22662  11.738  12.690  12.772
55880W        W22663  31.698  21.739  10.510
55881W        W22664   1.390   6.686  12.926
55882W        W22665  13.081  31.607  13.844
55883W        W22666  29.486  19.330   2.121
55884W        W22667  29.628  19.565  14.880
55885W        W22668  21.281  13.836   1.305
55886W        W22669   5.414  43.184   4.542
55887W        W22670  26.069  26.731   4.718
55888W        W22671   7.686  16.700   4.330
55889W        W22672   4.349   3.043   3.741
55890W        W22673  19.677  26.461   0.792
55891W        W22674  15.195  20.146   0.706
55892W        W22675  34.036  13.814   4.487
55893W        W22676  36.063  33.896  13.326
55894W        W22677  28.210  26.484   2.253
55895W        W22678  29.638  10.269   3.852
55896W        W22679  10.415   6.444   0.335
55897W        W22680  31.238  35.295   2.663
55898W        W22681  28.597  17.134   3.306
55899W        W22682  44.035  19.752  14.256
55900W        W22683  44.615   0.968   2.767
55901W        W22684  44.193   3.669   1.226
55902W        W22685  23.093   6.315  11.993
55903W        W22686  12.622  22.470   3.890
55904W        W22687  33.666  24.739  11.697
55905W        W22688  39.559  13.532  10.531
55906W        W22689   0.713  44.842  14.854
55907W        W22690   4.857  22.574  13.350
55908W        W22691  17.242  10.209   4.467
55909W        W22692  10.389   6.963   0.243
55910W        W22693  30.742  26.819  10.769
55911W        W22694   0.764  39.920  10.696
55912W        W22695  33.431  13.712   2.364
55913W        W22696  34.366  31.631  12.935
55914W        W22697  31.097  24.060  11.113
55915W        W22698  33.641  19.191   0.078
55916W        W22699  43.565  14.598   3.307
55917W        W22700  26.117   1.982  12.191
55918W        W22701  11.879   0.340   2.109
55919W        W22702  42.734   7.311  12.344
55920W        W22703  29.986  22.453   3.064
55921W        W22704  37.533   3.864   2.794
55922W        W22705  44.464   1.787  11.847
55923W        W22706  11.276  10.739  12.776
55924W        W22707  26.467  30.058   0.156
55925W        W22708  11.825   1.852  12.938
55926W        W22709  21.655  15.717   2.809
55927W        W22710  34.399  33.380   2.641
55928W        W22711  36.162  33.856  11.254
55929W        W22712  22.997  18.123   3.318
55930W        W22713  16.642  17.562  10.857
55931W        W22714  42.285  26.764  14.412
55932W        W22715  21.108  37.883  11.580
55933W        W22716  33.687   9.929  12.475
55934W        W22717  32.171   1.033   0.850
55935W        W22718  10.851   9.107   0.361
55936W        W22719  44.834   6.901  11.326
55937W        W22720  16.627   9.103   4.059
55938W        W22721   1.747  10.599   2.359
55939W        W22722  23.766  41.084  14.926
55940W        W22723  13.016  22.182  14.402
55941W        W22724   9.097  27.521  13.941
55942W        W22725  26.917   5.236   4.239
55943W        W22726  43.349  41.929   1.845
55944W        W22727  42.438  29.712   1.240
55945W        W22728  12.717  40.107   1.731
55946W        W22729   9.912  26.039   4.627
55947W        W22730   1.368  10.330   3.198
55948W        W22731  24.542   0.063  12.083
55949W        W22732  11.579  19.029  11.199
55950W        W22733  32.128  12.256  14.193
55951W        W22734  21.704   0.699  14.521
55952W        W22735  31.580  24.147   3.653
55953W        W22736   4.891   4.924   1.542
55954W        W22737   4.469   3.327  12.954
55955W        W22738  21.245   8.265   4.307
55956W        W22739  34.539  18.201  10.509
55957W        W22740   0.460   1.211   1.584
55958W        W22741  30.194   0.143   0.780
55959W        W22742  14.170  10.208  10.050
55960W        W22743  10.120  35.109   0.919
55961W        W22744  32.365  44.221   2.283
55962W        W22745  26.668  26.085  14.046
55963W        W22746   3.866  41.472   0.478
55964W        W22747   9.379  32.023  10.668
55965W        W22748  13.264  15.874   3.160
55966W        W22749   6.983  26.941  13.562
55967W        W22750  16.697  22.207  10.556
55968W        W22751  13.226  40.543   3.388
55969W        W22752  27.728  36.226   1.685
55970W        W22753  21.191  42.448  13.532
55971W        W22754  43.978   3.288  11.389
55972W        W22755  18.026  11.379   1.456
55973W        W22756   0.231  29.719  13.579
55974W        W22757  16.285  42.464  10.994
55975W        W22758  16.121  35.860   2.875
55976W        W22759  12.193  25.324  14.075
55977W        W22760  20.538   9.934  12.847
55978W        W22761  44.979  36.674  11.101
55979W        W22762  22.106  24.789   4.810
55980W        W22763  13.202  31.080  11.284
55981W        W22764   7.259  11.171   4.193
55982W        W22765  37.000  44.907   3.111
55983W        W22766  26.263   0.629  14.831
55984W        W22767  11.445  14.568  11.112
55985W        W22768   0.117  42.141   1.042
55986W        W22769  40.537  21.142  13.414
55987W        W22770  38.040  11.678   2.301
55988W        W22771  23.154   4.752  13.465
55989W        W22772  43.543   5.595  13.834
55990W        W22773  41.268   6.931   4.077
55991W        W22774  36.920  18.695   0.036
55992W        W22775  19.303  20.065   1.216
55993W        W22776   4.644  17.161  12.894
55994W        W22777  25.300  28.015   2.414
55995W        W22778  16.629  25.024  10.653
55996W        W22779  35.791  14.722  11.125
55997W        W22780  28.766   7.457  10.754
55998W        W22781  33.512   3.444   0.329
55999W        W22782  15.128  38.895   4.203
56000W        W22783  23.530   0.720   4.667
56001W        W22784   7.817  40.382  14.261
56002W        W22785  41.723  41.294  11.170
56003W        W22786  28.562  15.238  13.609
56004W        W22787  30.867   8.230  11.105
56005W        W22788   3.803  34.899   1.358
56006W        W22789   8.852   3.002   4.803
56007W        W22790  36.092  18.482   1.256
56008W        W22791  43.156  12.238   4.703
56009W        W22792  12.313   7.937   3.033
56010W        W22793  30.433  42.832  14.813
56011W        W22794  18.301  36.361   0.876
56012W        W22795   5.131   6.338  11.296
56013W        W22796  20.051  41.463  10.707
56014W        W22797  32.933  34.993   3.460
56015W        W22798  16.298  18.625   4.281
56016W        W22799   9.355  15.578   0.333
56017W        W22800  28.566  11.172  13.585
56018W        W22801  42.476  26.602  10.535
56019W        W22802  41.177  36.397   1.203
56020W        W22803  31.919  37.404  10.845
56021W        W22804  17.199   6.331   1.845
56022W        W22805  14.121  27.923  13.464
56023W        W22806   5.295  35.550   2.795
56024W        W22807  16.717   7.743  14.072
56025W        W22808   2.435  36.742  14.971
56026W        W22809  29.219  42.344   2.611
56027W        W22810  32.998   3.531  13.841
56028W        W22811  24.701  34.293  10.703
56029W        W22812  39.992  17.925   0.272
56030W        W22813  40.767  36.651   2.160
56031W        W22814  23.581   4.345   1.451
56032W        W22815  31.343   9.368   3.666
56033W        W22816  43.849  12.583   1.498
56034W        W22817  31.355  30.426  11.105
56035W        W22818  24.317  26.434  14.946
56036W        W22819  29.409  15.510  13.699
56037W        W22820   8.925  17.789  10.924
56038W        W22821  44.141  25.611  11.057
56039W        W22822  33.848  13.420  11.761
56040W        W22823  28.172  28.926   4.141
56041W        W22824  31.110  37.275  13.624
56042W        W22825   9.608  12.125  14.519
56043W        W22826  33.032  25.547  14.943
56044W        W22827  40.866  41.196   4.914
56045W        W22828  25.470  39.080   3.852
56046W        W22829  37.436  44.769  14.939
56047W        W22830  11.797  36.362   0.864
56048W        W22831  28.475  44.526   2.248
56049W        W22832  33.145  44.464   0.505
56050W        W22833   8.175  20.165  13.849
56051W        W22834  25.746  44.332  12.783
56052W        W22835  44.589  32.867  14.024
56053W        W22836   4.662   3.646  12.606
56054W        W22837  36.619  37.445  12.565
56055W        W22838  32.292  25.443   0.504
56056W        W22839  38.407  10.805  13.816
56057W        W22840  40.320  38.775   3.838
56058W        W22841  24.483  40.947   2.629
56059W        W22842  15.109   6.553   4.155
56060W        W22843  42.719  26.557   4.819
56061W        W22844   3.507  24.550  12.934
56062W        W22845  27.713  15.078  13.918
56063W        W22846   5.517   4.856  10.856
56064W        W22847  37.113  11.760  14.794
56065W        W22848  37.794  38.042   3.178
56066W        W22849   0.684  20.581  14.979
56067W        W22850  27.767  24.272  11.497
56068W        W22851  11.628  15.121  13.006
56069W        W22852  19.691  17.362  14.563
56070W        W22853  20.104  43.830  11.758
56071W        W22854  40.631   1.016  12.836
56072W        W22855  34.108  31.470  13.367
56073W        W22856  28.880  29.403   4.135
56074W        W22857  26.594  26.650   4.563
56075W        W22858  12.748  26.433  12.761
56076W        W22859  19.318   0.496   1.121
56077W        W22860  22.286  20.916  14.858
56078W        W22861  31.961   8.239   1.397
56079W        W22862   5.118   1.784   3.697
56080W        W22863  40.226  28.966   2.564
56081W        W22864  23.465  29.914  13.008
56082W        W22865   6.318  17.586  13.924
56083W        W22866  22.534  27.695  14.422
56084W        W22867  21.815  12.032  13.966
56085W        W22868  34.936   0.001   3.718
56086W        W22869  38.798  25.762   0.186
56087W        W22870  44.984  30.153   1.811
56088W        W22871  10.824  26.255   0.702
56089W        W22872  25.680  28.367  13.023
56090W        W22873  41.512  22.448  14.736
56091W        W22874  19.916  11.076  12.011
56092W        W22875  44.094  37.967  13.489
56093W        W22876  11.215   8.149  12.989
56094W        W22877  15.098  16.026  10.596
56095W        W22878  15.527  25.338  10.673
56096W        W22879  39.021  37.956  12.849
56097W        W22880   7.611   3.767   0.967
56098W        W22881  39.498   4.762  13.528
56099W        W22882  33.350  44.398   2.311
56100W        W22883   9.989   4.365  11.419
56101W        W22884  19.583   4.116   2.166
56102W        W22885  33.854  36.690  11.619
56103W        W22886   5.618  27.700  11.010
56104W        W22887  30.546  38.915  10.999
56105W        W22888  19.372  13.302   3.252
56106W        W22889   2.383  36.301  12.029
56107W        W22890  20.158  24.752   3.348
56108W        W22891  26.182  27.592  13.477
56109W        W22892  19.266  23.549   3.150
56110W        W22893  12.072  28.136  11.688
56111W        W22894  16.772  32.639   4.751
56112W        W22895  12.741  15.306   2.609
56113W        W22896  10.491  23.729   5.159
56114W        W22897  28.598  40.585   0.451
56115W        W22898  36.506  34.956  12.851
56116W        W22899   2.877  34.173  13.320
56117W        W22900  32.826  16.804   4.143
56118W        W22901  19.139  41.708  10.500
56119W        W22902  12.060  24.753   3.356
56120W        W22903  13.096  11.749  11.427
56121W        W22904  19.001  17.111  14.947
56122W        W22905  40.871  16.723  12.330
56123W        W22906   0.242  32.336  14.344
56124W        W22907  31.262   8.924   2.864
56125W        W22908  41.314   9.720   4.869
56126W        W22909  16.174  18.366   2.235
56127W        W22910  28.787  11.674   3.697
56128W        W22911   1.304  32.105  13.038
56129W        W22912  38.184  25.205   1.754
56130W        W22913  31.802   4.641  14.153
56131W        W22914   8.904  37.531  10.292
56132W        W22915   2.828  31.221   4.026
56133W        W22916  32.646   4.322  14.411
56134W        W22917  21.218   7.022   0.772
56135W        W22918  44.034   9.722   3.736
56136W        W22919  35.409  16.649  14.136
56137W        W22920  17.831  33.401  12.121
56138W        W22921  20.624  22.557   0.731
56139W        W22922  21.995  13.848   1.818
56140W        W22923  31.887  36.450   1.253
56141W        W22924   5.175  27.259   2.246
56142W        W22925  10.295  32.705   3.750
56143W        W22926  27.112  22.611   3.678
56144W        W22927  33.555  30.471  13.837
56145W        W22928  15.999  12.252   4.798
56146W        W22929  30.619   5.562  12.663
56147W        W22930  19.007  13.223   2.709
56148W        W22931  11.156  40.866  13.918
56149W        W22932  35.799  10.858  13.467
56150W        W22933   9.194   9.938   3.782
56151W        W22934  18.162  26.890   0.655
56152W        W22935  19.106   3.447   3.736
56153W        W22936  30.015   9.300   0.993
56154W        W22937   7.874  34.995   0.788
56155W        W22938  35.270  12.823   4.124
56156W        W22939  33.963  41.299  12.856
56157W        W22940   1.897   8.409  10.658
56158W        W22941  16.183  44.522  12.504
56159W        W22942  21.004  35.961  12.782
56160W        W22943  26.466  36.345  14.322
56161W        W22944  33.802  42.966   3.743
56162W        W22945  17.103  27.740  14.212
56163W        W22946  22.126  19.545  10.455
56164W        W22947  44.490  20.305  11.091
56165W        W22948  43.820  37.154  14.949
56166W        W22949  41.226   9.196  13.057
56167W        W22950   7.132  10.657  14.501
56168W        W22951  31.214  18.998  13.063
56169W        W22952  43.471  13.408   2.702
56170W        W22953  13.197  41.783   1.961
56171W        W22954   8.376  34.191  10.427
56172W        W22955   4.055  22.616   1.432
56173W        W22956   6.244  19.545  10.264
56174W        W22957   7.213  25.431  11.176
56175W        W22958  27.206  37.862   0.953
56176W        W22959  23.619  41.475   1.140
56177W        W22960  28.711   9.726   0.761
56178W        W22961  16.736   9.145  14.761
56179W        W22962  17.171  19.691  14.664
56180W        W22963  41.401  38.923  11.972
56181W        W22964  31.180   1.272  14.967
56182W        W22965   9.338  20.532  12.506
56183W        W22966   5.402   5.164  14.883
56184W        W22967  35.057  32.817  12.470
56185W        W22968   5.182  30.005  13.061
56186W        W22969  11.850   4.910   4.672
56187W        W22970  27.193  38.406   0.952
56188W        W22971  38.646  34.124   2.401
56189W        W22972  21.807   4.174   2.855
56190W        W22973  35.667  23.335  10.193
56191W        W22974  24.896  10.925   3.588
56192W        W22975  11.678  12.885  13.274
56193W        W22976   5.683  40.873   0.788
56194W        W22977  44.685  12.060   2.380
56195W        W22978  35.997   0.778   2.101
56196W        W22979  25.634  34.469   2.737
56197W        W22980  38.058  13.150  13.410
56198W        W22981  42.289  31.838   3.243
56199W        W22982  22.083  17.631  13.739
56200W        W22983  44.981  32.546  12.154
56201W        W22984  19.706  18.073   3.774
56202W        W22985   6.966  23.200  13.226
56203W        W22986  25.635   3.265  14.121
56204W        W22987  35.648  11.904  11.873
56205W        W22988  14.942  23.984  10.523
56206W        W22989  40.451   0.850   1.263
56207W        W22990  25.016  21.681   4.050
56208W        W22991  39.025  42.070  13.939
56209W        W22992  32.443  25.264  13.375
56210W        W22993  10.141  12.204   4.585
56211W        W22994  32.439  30.665  12.418
56212W        W22995  30.504  36.920   3.235
56213W        W22996  43.350  32.144  14.348
56214W        W22997  37.632   2.501   0.659
56215W        W22998  29.552  42.179  11.590
56216W        W22999  31.573  13.951  12.858
56217W        W23000  19.069  32.041  12.346
56218W        W23001  44.563  33.610   3.762
56219W        W23002  13.380   4.979   3.634
56220W        W23003  44.757  12.695   0.499
56221W        W23004  34.645  40.551   4.561
56222W        W23005  33.632  14.140  12.575
56223W        W23006  37.875   6.942   1.066
56224W        W23007  16.155  42.766  13.034
56225W        W23008   0.923  35.486  14.980
56226W        W23009  25.252  32.085  10.275
56227W        W23010  28.847  30.569  12.727
56228W        W23011  26.128  22.539   0.823
56229W        W23012   1.959  23.275   3.240
56230W        W23013  13.131   9.135  13.835
56231W        W23014   7.861  22.221   2.711
56232W        W23015  38.164   1.656   3.232
56233W        W23016  37.974   4.573  11.868
56234W        W23017  29.143   9.406  14.299
56235W        W23018   3.430  14.678   4.409
56236W        W23019  22.973  24.453  13.434
56237W        W23020  17.126  21.178   3.521
56238W        W23021  29.628  22.707  12.539
56239W        W23022  22.126  24.692  10.953
56240W        W23023  41.850  10.399   4.445
56241W        W23024  29.059  32.691  14.412
56242W        W23025  40.953   6.889  13.467
56243W        W23026   2.375   7.058   2.191
56244W        W23027   5.453  15.553  12.033
56245W        W23028   5.529  36.880   4.647
56246W        W23029  28.106  11.633  11.553
56247W        W23030  16.799  43.873  12.335
56248W        W23031  31.876  30.269  14.558
56249W        W23032  14.691   2.317  13.406
56250W        W23033  19.113   1.296   3.707
56251W        W23034  31.154  32.287  12.448
56252W        W23035   6.321  30.626   0.322
56253W        W23036  22.556  25.131   0.013
56254W        W23037  41.382  19.515   4.397
56255W        W23038  38.900   9.870   3.331
56256W        W23039  26.097  11.108   1.406
56257W        W23040  44.290  13.210   2.699
56258W        W23041   3.945   7.516  11.992
56259W        W23042  13.669  21.272  13.674
56260W        W23043  16.807  43.889  14.636
56261W        W23044  27.180  17.226   3.655
56262W        W23045  32.383  35.012   3.074
56263W        W23046  22.138  33.915  13.542
56264W        W23047  19.208  15.334  11.929
56265W        W23048  42.015  39.783   5.030
56266W        W23049   0.270   6.421  14.247
56267W        W23050   5.213  13.776   1.918
56268W        W23051  28.715  35.861   0.782
56269W        W23052  20.696  27.015   4.069
56270W        W23053  16.540  37.509  14.070
56271W        W23054   9.576  28.301   2.691
56272W        W23055  21.101  27.842   0.934
56273W        W23056  34.300  19.639   1.964
56274W        W23057  31.602  22.188   2.765
56275W        W23058  31.136   0.968   1.262
56276W        W23059  22.534   1.535   5.259
56277W        W23060  33.171  10.555   0.703
56278W        W23061  44.507  15.391  12.357
56279W        W23062  43.142  39.624   2.995
56280W        W23063   2.544  15.516   3.816
56281W        W23064   8.892   3.596  12.131
56282W        W23065  24.581  26.141  14.009
56283W        W23066   9.347  39.466   4.306
56284W        W23067  43.073   0.317   4.761
56285W        W23068   6.412  25.048  14.495
56286W        W23069  34.091   9.860   1.014
56287W        W23070  41.494  13.429   1.720
56288W        W23071  27.632  44.822   3.411
56289W        W23072  37.545   1.987   1.930
56290W        W23073   9.134  34.639   4.539
56291W        W23074  17.980  17.501  13.014
56292W        W23075  20.483  35.354  10.831
56293W        W23076  36.025   4.094   4.652
56294W        W23077   4.684  11.847   3.205
56295W        W23078  15.183  17.525  13.567
56296W        W23079  32.053  41.256  14.006
56297W        W23080   5.025  22.745   3.290
56298W        W23081  35.441  38.529   2.413
56299W        W23082  28.677  11.599  11.108
56300W        W23083  39.815  31.790  12.333
56301W        W23084  24.563  25.667   3.601
56302W        W23085  12.305   6.855   3.990
56303W        W23086  20.003  42.954  10.649
56304W        W23087  39.759   5.675   2.686
56305W        W23088   2.985  14.680   3.147
56306W        W23089  43.034  36.484   1.972
56307W        W23090   5.654  31.119   3.039
56308W        W23091  44.755  35.938   1.352
56309W        W23092  37.885  22.082   0.190
56310W        W23093  21.670  44.256   4.069
56311W        W23094  29.617  22.421  13.508
56312W        W23095  26.666   7.823   0.477
56313W        W23096  44.965  19.720   3.240
56314W        W23097  32.131  31.268  14.475
56315W        W23098  16.264  42.460   3.961
56316W        W23099   1.328  18.216  13.504
56317W        W23100  35.475  16.683   4.356
56318W        W23101  17.900  25.692   3.652
56319W        W23102  29.664   5.279  12.418
56320W        W23103  23.178  13.028  14.524
56321W        W23104  18.104  24.916  10.703
56322W        W23105  37.042   9.455   2.774
56323W        W23106  41.775  20.509  11.059
56324W        W23107  23.033  10.103   0.895
56325W        W23108  27.354  22.612  12.042
56326W        W23109  37.270  30.805   2.732
56327W        W23110  10.110  41.896  13.866
56328W        W23111  44.493  21.082  10.252
56329W        W23112   9.371  33.317   2.338
56330W        W23113  40.501  35.446   2.395
56331W        W23114  39.915  23.562  14.843
56332W        W23115  20.644  12.826   0.728
56333W        W23116  41.258  36.272  10.766
56334W        W23117  19.545  34.089   1.777
56335W        W23118  23.902  30.997  12.316
56336W        W23119  42.003   8.855   0.363
56337W        W23120  16.586  40.317   2.745
56338W        W23121  13.153  36.361   1.929
56339W        W23122  20.070  17.143   2.718
56340W        W23123  41.345  12.381  10.930
56341W        W23124  42.349  33.513   2.218
56342W        W23125  12.591   1.049   4.165
56343W        W23126   8.293   3.626   1.406
56344W        W23127  35.932  27.012   0.404
56345W        W23128  12.469  31.510  14.752
56346W        W23129   1.752   6.075  14.294
56347W        W23130  22.024   6.440   2.677
56348W        W23131   4.190  18.158   1.386
56349W        W23132   4.900  25.277  11.572
56350W        W23133  17.299  35.888  14.027
56351W        W23134  35.098  10.301   2.266
56352W        W23135  10.204  24.983  12.864
56353W        W23136  42.747  23.007   1.820
56354W        W23137  14.891   3.181   2.402
56355W        W23138   3.893  15.421   1.271
56356W        W23139  20.763  15.923  10.664
56357W        W23140  32.829  23.144  11.177
56358W        W23141  25.094  43.495   3.790
56359W        W23142  41.293   1.264  10.784
56360W        W23143  12.311  42.509   2.632
56361W        W23144  33.576  38.011  12.821
56362W        W23145   2.878  12.847   0.977
56363W        W23146   7.334  25.417   0.956
56364W        W23147  43.778  23.672   4.557
56365W        W23148  39.550  43.337  12.168
56366W        W23149  44.925  34.047  13.404
56367W        W23150  33.141  10.703   4.280
56368W        W23151  28.500  10.449   4.990
56369W        W23152  23.128  43.983  12.005
56370W        W23153  17.862  37.793   3.640
56371W        W23154  18.069  10.261   1.341
56372W        W23155  18.131  34.615  11.211
56373W        W23156   5.238   1.855   3.202
56374W        W23157   8.098  41.875   3.216
56375W        W23158  17.212  23.769   9.978
56376W        W23159  20.029   7.338   1.311
56377W        W23160   7.369  28.406  11.207
56378W        W23161  10.281  24.002  12.100
56379W        W23162  14.671  10.110  11.254
56380W        W23163   5.961  40.021   2.802
56381W        W23164  38.791  20.684  14.340
56382W        W23165  43.553  34.472  14.832
56383W        W23166   3.616  21.213  14.348
56384W        W23167  29.136  43.973   4.475
56385W        W23168  18.649  16.213  11.466
56386W        W23169  42.996  30.456   2.635
56387W        W23170  39.279   1.239  12.162
56388W        W23171  41.948   9.609  12.826
56389W        W23172   8.313  31.556  12.909
56390W        W23173   8.376  41.022   0.200
56391W        W23174   7.775  29.531   1.223
56392W        W23175  23.148  17.159   4.404
56393W        W23176  11.413  40.311  10.941
56394W        W23177  15.259  12.895  12.667
56395W        W23178   3.266  18.674  14.327
56396W        W23179  16.581  31.996   2.336
56397W        W23180  18.209  37.825   1.348
56398W        W23181  14.742  37.337   2.887
56399W        W23182  44.125   5.895   1.340
56400W        W23183  21.756   6.882  14.920
56401W        W23184  19.600  21.427  12.298
56402W        W23185  32.537   2.770   2.427
56403W        W23186  21.058   9.687   1.383
56404W        W23187  39.808  18.975  11.529
56405W        W23188   5.132   3.385   0.531
56406W        W23189  12.880  42.357  12.592
56407W        W23190  39.544  38.607   1.352
56408W        W23191   1.722  36.235   4.127
56409W        W23192  32.811   0.770  12.300
56410W        W23193  36.427  11.079  12.580
56411W        W23194  30.380  43.470   3.568
56412W        W23195  28.692  40.374  14.399
56413W        W23196  12.677  40.344  12.607
56414W        W23197  43.499  38.388  14.241
56415W        W23198   0.748  42.779   4.594
56416W        W23199   7.737  26.214   1.939
56417W        W23200  38.851  24.277  12.479
56418W        W23201  21.128   2.591   2.292
56419W        W23202  44.226  30.688  12.599
56420W        W23203  17.658  43.912   0.951
56421W        W23204  21.693  31.991  13.446
56422W        W23205  39.519  10.250   3.463
56423W        W23206   2.605   0.533   1.692
56424W        W23207  31.826  31.640   0.233
56425W        W23208  17.551  31.222   3.664
56426W        W23209  31.966   3.763  14.326
56427W        W23210  12.664  37.406   2.752
56428W        W23211  11.834  28.171   1.819
56429W        W23212   6.236  36.884  14.934
56430W        W23213  39.825  42.958   0.219
56431W        W23214  33.836  34.940   1.678
56432W        W23215   2.784   4.315  12.108
56433W        W23216   4.727   4.695  14.125
56434W        W23217   5.973  32.936  12.374
56435W        W23218  37.635  26.015   3.725
56436W        W23219  39.757  38.548  14.459
56437W        W23220  40.210  41.502  11.230
56438W        W23221   0.781  18.081   2.282
56439W        W23222  38.516   5.783  14.902
56440W        W23223   4.641  36.669   2.296
56441W        W23224  33.881  10.107   0.380
56442W        W23225  25.439   9.173   1.881
56443W        W23226  17.055  27.419   3.163
56444W        W23227  27.198   7.391  13.758
56445W        W23228   8.869  10.776   2.455
56446W        W23229  34.335   1.771   3.690
56447W        W23230  19.781  41.328   0.213
56448W        W23231   6.706  11.075  13.461
56449W        W23232  18.665  27.453  10.864
56450W        W23233   1.307  42.011   4.936
56451W        W23234  21.725  36.413  13.043
56452W        W23235  38.472  29.326  14.484
56453W        W23236  17.140  21.490  12.045
56454W        W23237  43.046  38.804   0.909
56455W        W23238  15.888  38.164  12.440
56456W        W23239  11.444  39.384  11.138
56457W        W23240  13.097   0.525  12.793
56458W        W23241  14.856  12.667   2.800
56459W        W23242  38.327   0.696  13.244
56460W        W23243  44.272  26.129  11.588
56461W        W23244  10.248  43.493   3.628
56462W        W23245   0.818  17.780  10.982
56463W        W23246  28.744  22.796  12.504
56464W        W23247   7.288  31.831  11.919
56465W        W23248  29.074  38.955  12.677
56466W        W23249  22.293  30.627   3.738
56467W        W23250   9.354  44.832   0.311
56468W        W23251  17.540  17.544  13.875
56469W        W23252  41.769  27.887   1.218
56470W        W23253  14.099  42.997   4.987
56471W        W23254   9.683   4.316  14.857
56472W        W23255  32.201  16.559   4.129
56473W        W23256  15.262  37.416   3.072
56474W        W23257  25.016  32.605   0.512
56475W        W23258  23.363  41.740  11.470
56476W        W23259   2.520  27.088  14.678
56477W        W23260   1.025  20.521  11.530
56478W        W23261  36.776  35.065  12.445
56479W        W23262  35.383  25.117  14.046
56480W        W23263   6.463  35.103   3.136
56481W        W23264  16.315  36.061  10.218
56482W        W23265  39.439  28.500   0.538
56483W        W23266   0.284  26.430  11.497
56484W        W23267  22.493  35.532   4.915
56485W        W23268   8.671  27.654   1.282
56486W        W23269  34.104   9.350  14.731
56487W        W23270   7.675  33.445  12.509
56488W        W23271  40.348  24.769  13.856
56489W        W23272  35.507  23.590  10.635
56490W        W23273  40.038  21.122  14.131
56491W        W23274  20.216  34.762  14.270
56492W        W23275  14.047  12.350   2.826
56493W        W23276  23.664  34.894   1.494
56494W        W23277  26.318  25.369   4.012
56495W        W23278  18.338  13.331  11.869
56496W        W23279   2.131  17.375  10.977
56497W        W23280  29.874  44.857   1.056
56498W        W23281  42.450  10.239   3.291
56499W        W23282   8.650   7.091   2.930
56500W        W23283   2.221  26.705  11.600
56501W        W23284  36.380  19.977  14.790
56502W        W23285  24.645  40.176  14.245
56503W        W23286  23.113   9.813   1.856
56504W        W23287  17.775  27.949  13.115
56505W        W23288  22.686  38.123  12.686
56506W        W23289  13.084  39.556  14.344
56507W        W23290  35.579  33.289  14.409
56508W        W23291  41.508  29.439  11.700
56509W        W23292  15.628  30.463  11.590
56510W        W23293  24.512  43.010  11.802
56511W        W23294  20.065   7.339  14.015
56512W        W23295  11.663   7.221   2.017
56513W        W23296  19.192  20.178  10.365
56514W        W23297  15.656  23.806   1.788
56515W        W23298  44.727  40.344   4.412
56516W        W23299  30.110  11.722   1.388
56517W        W23300  36.365  30.079   0.206
56518W        W23301  38.524   3.890   3.627
56519W        W23302  32.571  24.665   4.989
56520W        W23303   1.743  29.221  12.488
56521W        W23304  33.958   8.659   2.995
56522W        W23305  16.643  21.457   2.742
56523W        W23306  43.044  29.550   2.674
56524W        W23307  23.607  22.058   1.918
56525W        W23308  13.386  30.616  11.998
56526W        W23309  34.339  36.797   3.278
56527W        W23310  20.976  35.665   1.909
56528W        W23311  37.837  29.987   4.627
56529W        W23312  17.295  14.344  13.556
56530W        W23313  25.146  20.251   1.298
56531W        W23314  43.554  32.963  13.929
56532W        W23315  12.137   3.587  12.459
56533W        W23316   0.575   4.667  11.015
56534W        W23317  40.078  38.324   3.775
56535W        W23318  43.874   3.301   3.360
56536W        W23319   3.388  15.231  13.997
56537W        W23320  23.284  33.666  14.450
56538W        W23321  24.093  39.077  13.896
56539W        W23322  22.927  18.715  12.906
56540W        W23323  35.375  26.375  12.853
56541W        W23324   7.916  25.504   2.496
56542W        W23325   2.822  34.624  13.071
56543W        W23326  41.263  14.610  12.799
56544W        W23327   8.835  43.688  14.183
56545W        W23328  10.793  23.016   0.277
56546W        W23329  34.350   4.610   2.112
56547W        W23330  33.519   3.345   3.096
56548W        W23331  36.898  12.192   1.878
56549W        W23332   4.816  29.297  10.518
56550W        W23333   4.198   7.228   4.536
56551W        W23334  39.610  44.837   2.462
56552W        W23335  23.564  14.152   1.349
56553W        W23336  34.430  26.971  12.906
56554W        W23337  29.110  11.230  11.893
56555W        W23338  20.515   6.483   0.456
56556W        W23339  33.509  22.013   3.136
56557W        W23340  41.932   0.264  14.975
56558W        W23341  39.823  33.140  11.999
56559W        W23342  37.039  16.531  11.582
56560W        W23343   0.559  11.207   0.764
56561W        W23344  11.601  37.563   1.264
56562W        W23345  14.376  43.451  12.594
56563W        W23346   3.357   6.372  12.484
56564W        W23347  24.084  18.429   0.309
56565W        W23348   9.147   9.758  13.412
56566W        W23349  38.800  31.543   2.095
56567W        W23350  35.053  35.567   1.429
56568W        W23351  21.219  25.062  14.272
56569W        W23352  33.246  10.827   3.149
56570W        W23353  21.860  37.941   3.814
56571W        W23354  36.894   7.507   0.645
56572W        W23355  41.484  19.291   0.309
56573W        W23356  18.682   4.498   4.634
56574W        W23357  39.304  36.083  13.775
56575W        W23358  26.753   6.724  12.950
56576W        W23359  13.203  37.086   0.922
56577W        W23360   5.921  23.626   1.912
56578W        W23361  35.689  36.150   3.303
56579W        W23362  24.266  10.140  12.390
56580W        W23363  14.248  44.733  12.944
56581W        W23364   6.949  30.019   2.421
56582W        W23365  16.789  32.084  11.574
56583W        W23366   9.139  33.404   3.205
56584W        W23367  36.475  13.260   2.261
56585W        W23368  23.121  41.331  11.253
56586W        W23369   6.605  41.897   0.967
56587W        W23370  18.711  25.572   3.276
56588W        W23371  38.574  44.349   1.695
56589W        W23372  30.581  10.671  13.748
56590W        W23373  41.272  39.187   0.032
56591W        W23374  30.090  33.149  10.580
56592W        W23375  43.731  30.862  12.542
56593W        W23376  15.363  30.253  13.739
56594W        W23377  43.425  40.524  13.337
56595W        W23378  25.253   3.009  11.513
56596W        W23379  33.408  21.646   2.095
56597W        W23380  19.630  17.078   0.873
56598W        W23381  37.744   9.621  11.526
56599W        W23382  39.800   9.583  11.138
56600W        W23383  41.712   2.395   4.987
56601W        W23384  18.022   0.855   0.161
56602W        W23385  11.871   2.214  11.084
56603W        W23386  40.431   3.223  12.437
56604W        W23387  27.128  21.107   0.777
56605W        W23388   6.396  31.918  14.851
56606W        W23389   9.940  27.981  13.943
56607W        W23390  13.855  35.460   0.149
56608W        W23391  19.302  11.748   4.925
56609W        W23392  12.953  31.087  12.630
56610W        W23393   4.962   8.911  13.862
56611W        W23394  19.738   3.660   1.942
56612W        W23395  29.178  30.883   0.911
56613W        W23396  41.770   6.955   3.711
56614W        W23397  31.533  32.433  13.390
56615W        W23398  15.073  39.304   1.991
56616W        W23399  25.598  32.408   2.735
56617W        W23400   5.939  20.603  11.233
56618W        W23401  38.889  34.123  11.737
56619W        W23402  32.656   2.299  10.674
56620W        W23403   5.495  32.387   1.781
56621W        W23404  39.247  16.372  11.745
56622W        W23405  33.698  13.421  14.014
56623W        W23406  17.309  34.821  11.449
56624W        W23407   9.696  16.556   1.224
56625W        W23408  14.653  33.614  12.935
56626W        W23409  30.522   0.724  12.890
56627W        W23410   2.764  18.144  11.706
56628W        W23411   7.273  39.345   3.227
56629W        W23412  12.841  28.482  14.462
56630W        W23413  40.901  22.592   4.849
56631W        W23414  25.943   0.940  14.364
56632W        W23415  23.353   0.892  12.685
56633W        W23416  20.330   9.402  12.003
56634W        W23417   0.459  17.703   3.521
56635W        W23418  19.902  35.877   2.710
56636W        W23419  37.268   2.637   2.126
56637W        W23420  37.985  38.409  14.622
56638W        W23421  33.568   1.002   4.649
56639W        W23422  29.123  22.510  13.761
56640W        W23423  28.359  41.581  12.893
56641W        W23424  11.296   4.791   0.924
56642W        W23425  18.598   5.250   1.456
56643W        W23426  31.770  12.308   0.475
56644W        W23427  22.633  44.026   0.841
56645W        W23428  19.811  32.906   2.224
56646W        W23429  41.252   5.362  14.033
56647W        W23430  18.430  22.655   0.466
56648W        W23431  12.602  32.722  13.580
56649W        W23432  39.383  31.663  12.587
56650W        W23433  25.691  12.414  12.945
56651W        W23434  24.607  32.645  11.568
56652W        W23435   4.850  29.223  14.382
56653W        W23436  26.904  34.952  12.235
56654W        W23437   7.158  21.411   3.035
56655W        W23438  25.721   0.434   0.225
56656W        W23439  31.461  19.252  14.420
56657W        W23440  13.114  27.195   2.354
56658W        W23441  34.131  24.694  10.653
56659W        W23442  39.223   2.921  14.343
56660W        W23443  29.708  36.171   2.828
56661W        W23444  28.997   8.121   1.674
56662W        W23445  29.152  26.249  13.533
56663W        W23446  23.209  30.875   3.321
56664W        W23447  20.836  18.558  14.066
56665W        W23448  37.470  44.320   2.594
56666W        W23449  44.377  36.405   4.196
56667W        W23450  24.921  30.443   4.205
56668W        W23451  20.252  20.606  11.537
56669W        W23452   8.185  40.091  10.725
56670W        W23453  28.372  12.062  14.496
56671W        W23454  28.077  14.468  13.988
56672W        W23455  10.144  22.278  11.645
56673W        W23456  29.400  39.317   3.676
56674W        W23457  40.452  32.782   4.655
56675W        W23458  33.553  35.120   3.131
56676W        W23459   8.858  30.995  13.420
56677W        W23460  41.956  26.886  14.016
56678W        W23461  15.483  12.605  13.028
56679W        W23462  11.904   1.870   1.218
56680W        W23463  12.101  38.884   1.345
56681W        W23464  37.113   6.405  13.037
56682W        W23465   9.862  27.872   2.677
56683W        W23466  16.294   4.280   3.675
56684W        W23467  28.465  17.726   0.255
56685W        W23468  12.135   6.228  11.282
56686W        W23469  28.993   7.857   3.621
56687W        W23470  20.752  17.614   4.243
56688W        W23471  12.774  27.403  11.610
56689W        W23472  29.444  16.803  12.970
56690W        W23473  37.960  26.972  10.675
56691W        W23474  38.674  23.356   4.992
56692W        W23475  34.540  36.562  10.930
56693W        W23476  21.061  31.360  12.502
56694W        W23477   8.172  18.302   1.776
56695W        W23478   4.530  16.278   5.192
56696W        W23479  14.944  10.565  14.715
56697W        W23480  27.055  22.139   0.416
56698W        W23481  40.496   9.790  14.335
56699W        W23482   4.952  36.466   3.774
56700W        W23483  15.555  25.991   1.770
56701W        W23484  27.516  24.255  12.057
56702W        W23485  41.934  27.468   3.145
56703W        W23486  38.742  21.309   2.665
56704W        W23487  35.708  13.911   1.471
56705W        W23488  26.930  40.964   3.223
56706W        W23489  29.076  29.272   3.649
56707W        W23490  15.783  35.832   5.383
56708W        W23491   9.311  20.603  11.590
56709W        W23492  27.785   6.043   2.268
56710W        W23493  38.363   6.057  12.133
56711W        W23494  19.301  19.643   1.753
56712W        W23495  34.167  41.099  14.296
56713W        W23496  22.206   5.937   0.823
56714W        W23497  27.300  35.598   1.234
56715W        W23498   1.349  40.020   3.627
56716W        W23499   4.151   6.249  11.259
56717W        W23500  28.152   2.980  13.511
56718W        W23501  30.480  42.528  13.013
56719W        W23502   2.210  25.039   3.308
56720W        W23503  31.631  30.439   3.389
56721W        W23504  10.332  38.871   0.519
56722W        W23505   3.555  20.516   0.543
56723W        W23506  13.880  30.612   1.208
56724W        W23507   0.390  14.477  12.432
56725W        W23508  31.951  20.243  13.905
56726W        W23509  33.843  12.369  14.924
56727W        W23510  44.846  44.000  10.465
56728W        W23511   5.760   7.432  13.389
56729W        W23512  23.428  31.581   0.901
56730W        W23513  23.521  31.893   4.317
56731W        W23514  18.759  29.108  13.396
56732W        W23515   1.429   2.796  10.529
56733W        W23516  38.740   8.942  11.062
56734W        W23517  21.457  41.764  10.767
56735W        W23518   3.879  28.132  12.323
56736W        W23519  37.849  29.494   1.867
56737W        W23520   0.626  22.021  11.637
56738W        W23521  43.719  34.359   2.089
56739W        W23522  27.708  44.966  11.032
56740W        W23523  21.239  38.565  14.039
56741W        W23524  12.203  26.014   3.673
56742W        W23525  38.518  42.358   0.314
56743W        W23526   5.716  28.634   0.575
56744W        W23527   2.009  28.595  14.859
56745W        W23528   0.857   4.856   0.019
56746W        W23529  28.168  30.565   0.801
56747W        W23530  27.496  29.641  14.126
56748W        W23531  41.782   6.124  12.367
56749W        W23532  27.053  42.453   4.852
56750W        W23533  31.407   7.705  13.417
56751W        W23534  19.771  22.134   1.010
56752W        W23535  36.854  20.990  10.677
56753W        W23536  14.599  10.652  14.327
56754W        W23537   5.901  20.495   1.707
56755W        W23538  10.608  38.917  10.835
56756W        W23539  14.759  31.137  13.755
56757W        W23540  32.683   2.971  11.988
56758W        W23541  19.574  10.016   3.193
56759W        W23542   4.153   4.497  13.320
56760W        W23543  41.253  10.134  12.897
56761W        W23544   5.531   6.306   3.679
56762W        W23545  35.535  43.258   1.779
56763W        W23546  29.641  27.434  13.022
56764W        W23547   2.366  29.819   4.006
56765W        W23548  21.761  29.676  11.561
56766W        W23549   0.889  18.966  13.439
56767W        W23550   3.500  10.191  13.327
56768W        W23551  12.334  39.859  14.891
56769W        W23552  38.005   7.105  13.075
56770W        W23553   7.778  22.484  10.555
56771W        W23554  13.157  11.914  10.546
56772W        W23555  17.865  19.431   3.176
56773W        W23556  19.931  11.679  14.907
56774W        W23557  22.295  20.616   2.800
56775W        W23558  16.328  33.986   0.223
56776W        W23559  39.881  23.624   1.790
56777W        W23560  27.230  37.502  12.130
56778W        W23561  32.327  23.708   2.299
56779W        W23562   3.073  19.274   1.884
56780W        W23563  17.054  28.398   4.523
56781W        W23564  13.778  13.108   1.274
56782W        W23565  34.275  19.510   1.081
56783W        W23566  25.442   5.891  14.327
56784W        W23567  14.111  36.688  13.273
56785W        W23568  24.364   1.493   4.275
56786W        W23569  26.214  31.572   1.332
56787W        W23570  30.673  15.158   2.582
56788W        W23571  18.631   9.245   2.763
56789W        W23572  19.253  32.456  12.599
56790W        W23573   4.373  20.236   0.975
56791W        W23574   2.760  13.773  14.410
56792W        W23575   6.282  42.638   9.993
56793W        W23576   7.131   3.872  12.377
56794W        W23577  16.982  21.769   1.938
56795W        W23578  12.012  16.629   4.933
56796W        W23579  27.137  13.193  13.423
56797W        W23580   6.389  14.639   0.977
56798W        W23581   5.964  25.511   0.931
56799W        W23582  22.283  14.659   1.235
56800W        W23583  12.283   3.416   0.496
56801W        W23584  26.388  14.142  14.759
56802W        W23585  21.664  21.391   4.549
56803W        W23586  29.417  10.315   1.864
56804W        W23587   4.365  38.021  13.596
56805W        W23588  10.605  25.508   1.776
56806W        W23589  26.158  40.540  12.090
56807W        W23590   8.246   0.181  10.989
56808W        W23591  43.352  25.613   0.771
56809W        W23592  25.594  19.268  14.429
56810W        W23593   2.291  42.812   4.421
56811W        W23594   1.915  25.112   3.743
56812W        W23595  27.899  16.784  14.687
56813W        W23596  34.008   0.101   2.679
56814W        W23597  18.037  44.011   2.616
56815W        W23598  26.736  39.420   3.700
56816W        W23599   8.843  19.013   2.412
56817W        W23600  41.553   1.340   4.026
56818W        W23601  20.815  23.127   3.682
56819W        W23602   1.259  35.584   4.944
56820W        W23603  20.354   8.022   3.428
56821W        W23604  20.191  44.400   2.671
56822W        W23605   8.387  38.942   1.734
56823W        W23606  11.609  42.917   2.335
56824W        W23607  42.830  44.753   2.822
56825W        W23608   7.256  23.648   3.636
56826W        W23609  11.787  22.634  14.614
56827W        W23610  15.467  28.961  10.995
56828W        W23611  21.761  30.891  12.927
56829W        W23612  37.386   5.644   1.634
56830W        W23613  16.500  37.402   2.868
56831W        W23614   2.865  11.773   3.647
56832W        W23615  28.552  19.152  13.293
56833W        W23616  37.932  24.757  12.128
56834W        W23617   3.348   3.412   2.397
56835W        W23618   3.461  26.321   3.380
56836W        W23619  20.158   0.906   4.876
56837W        W23620   2.377  42.790   4.976
56838W        W23621   1.973  17.593  11.410
56839W        W23622  22.986   6.360  12.493
56840W        W23623  39.031  43.352  13.516
56841W        W23624  39.079  35.761   3.804
56842W        W23625  20.255  29.677   2.705
56843W        W23626   5.931  44.408  13.041
56844W        W23627   3.718  11.932  13.803
56845W        W23628  14.211  40.339  14.735
56846W        W23629  26.672  19.646   2.833
56847W        W23630  35.840  43.389   0.811
56848W        W23631   7.978  31.870  12.659
56849W        W23632   4.430  24.988  12.942
56850W        W23633  10.039  11.240   2.745
56851W        W23634  23.747  14.323  14.618
56852W        W23635  29.688  37.897   3.361
56853W        W23636  42.462  15.163   3.699
56854W        W23637  12.638  36.310   4.177
56855W        W23638   7.312  32.092   2.238
56856W        W23639  28.268  40.558  13.474
56857W        W23640  29.578  36.080   3.346
56858W        W23641  18.005  32.686   3.744
56859W        W23642  20.209  18.706  13.264
56860W        W23643   5.892  13.194  14.928
56861W        W23644  36.846  20.779  14.736
56862W        W23645   0.235   5.365   1.660
56863W        W23646  13.423  35.259   4.957
56864W        W23647  19.892  33.367   3.543
56865W        W23648  36.155  39.713  13.364
56866W        W23649  15.599  31.935  10.762
56867W        W23650   6.508  40.894  14.686
56868W        W23651  11.376  38.548  10.585
56869W        W23652   3.849   0.546  12.019
56870W        W23653  33.075   1.728  12.599
56871W        W23654  35.952  20.982   3.760
56872W        W23655  32.287  24.129  11.811
56873W        W23656  22.570  34.902  14.294
56874W        W23657  35.885  12.902  13.568
56875W        W23658  34.878  16.775   2.154
56876W        W23659  33.140  12.622   1.869
56877W        W23660  17.821  10.755   4.889
56878W        W23661  27.405  15.247   3.829
56879W        W23662   9.408  29.630  13.544
56880W        W23663  42.550  29.360  14.410
56881W        W23664   1.472  14.098  11.138
56882W        W23665   5.130  34.522   4.564
56883W        W23666  38.939   4.453  12.696
56884W        W23667   0.428  39.937  13.986
56885W        W23668  14.143  30.637   3.327
56886W        W23669  12.862  38.444  13.972
56887W        W23670  25.575  27.958   4.990
56888W        W23671  30.341  23.222  12.567
56889W        W23672   0.180  34.284   2.320
56890W        W23673  37.925  38.798  14.286
56891W        W23674  30.638  20.709   2.818
56892W        W23675  37.978  15.195   1.471
56893W        W23676   3.726  26.504   3.790
56894W        W23677  17.029  34.019  11.498
56895W        W23678  39.884   0.029   2.861
56896W        W23679   3.814  11.910  11.995
56897W        W23680  12.475   2.724  14.916
56898W        W23681  10.546  32.425  10.861
56899W        W23682  31.025  37.955  13.111
56900W        W23683   2.468  13.552   3.713
56901W        W23684   8.312  22.807   4.136
56902W        W23685  29.805   1.260   2.386
56903W        W23686  19.544  27.485  11.669
56904W        W23687   7.758  22.916  14.784
56905W        W23688  43.846  33.066   0.354
56906W        W23689  18.308   5.424   4.538
56907W        W23690  17.078  17.204   1.674
56908W        W23691   9.424   9.070   1.419
56909W        W23692  33.037  28.933  14.393
56910W        W23693  34.966   4.183   2.111
56911W        W23694  13.216  24.670  14.384
56912W        W23695  43.496   1.550  11.098
56913W        W23696  17.063  11.730  13.974
56914W        W23697  36.558  20.190   5.683
56915W        W23698  38.812   1.341  14.585
56916W        W23699   6.468  13.632  12.034
56917W        W23700  26.749  37.578   3.339
56918W        W23701  39.477  34.992  11.977
56919W        W23702  16.676  24.733  11.990
56920W        W23703  23.790   0.789   1.377
56921W        W23704   6.979  29.504  12.135
56922W        W23705  31.026  33.299  13.519
56923W        W23706  14.306   6.359   3.575
56924W        W23707  13.616  27.611   2.242
56925W        W23708  33.094  37.984  13.013
56926W        W23709  41.326   3.434  12.109
56927W        W23710  17.371  24.717   1.846
56928W        W23711   2.479  20.666  10.873
56929W        W23712  35.871  31.511  11.718
56930W        W23713   0.373   2.895   1.279
56931W        W23714  38.260   8.949  10.860
56932W        W23715   9.872  22.663   3.938
56933W        W23716   3.484   1.012  12.872
56934W        W23717  28.931   5.828   3.325
56935W        W23718  33.227  42.245   3.321
56936W        W23719  41.795  23.276  11.670
56937W        W23720  15.018   2.203  13.924
56938W        W23721  21.563  32.827  13.994
56939W        W23722  11.047  39.579   0.448
56940W        W23723  41.764  36.488   2.272
56941W        W23724  16.135  27.028   1.536
56942W        W23725  36.844  16.545   2.179
56943W        W23726   1.686  38.892   4.172
56944W        W23727  44.834  11.300  13.118
56945W        W23728  34.445   8.939   2.396
56946W        W23729   1.912  17.463   1.251
56947W        W23730   2.737   1.211  14.026
56948W        W23731   2.841  35.356   1.523
56949W        W23732   9.131  22.920  10.907
56950W        W23733  27.455  11.162   4.693
56951W        W23734  14.945  32.049   4.109
56952W        W23735  42.970  26.256   1.256
56953W        W23736  22.578  44.319   2.619
56954W        W23737  24.603  35.450   2.845
56955W        W23738  18.592   3.203   0.178
56956W        W23739  18.296  29.361  14.874
56957W        W23740  19.833  13.279   4.100
56958W        W23741   0.227  17.203   3.558
56959W        W23742  17.817  35.063   3.560
56960W        W23743   8.797   8.590  11.631
56961W        W23744   4.338  22.104  12.345
56962W        W23745  18.321  18.059  12.335
56963W        W23746  32.096   7.494  10.776
56964W        W23747   8.430  23.138  12.056
56965W        W23748  37.687  40.298  14.063
56966W        W23749  33.562  15.830  12.006
56967W        W23750   9.556  14.714  14.887
56968W        W23751  28.077  21.229  14.793
56969W        W23752   6.892  22.731   3.497
56970W        W23753  43.330  19.563   1.762
56971W        W23754   6.824   7.428   0.134
56972W        W23755  30.422  32.198  13.890
56973W        W23756  22.200  12.698  14.866
56974W        W23757  15.107  33.108  11.735
56975W        W23758  23.788   5.018  11.188
56976W        W23759  38.518  39.983  13.927
56977W        W23760  17.093  42.281  14.463
56978W        W23761   2.876  34.531  12.503
56979W        W23762  30.615  14.618   3.202
56980W        W23763  20.575  15.962  14.885
56981W        W23764  41.782  32.076  10.366
56982W        W23765  42.640  36.582  14.981
56983W        W23766  33.939  28.689  12.865
56984W        W23767  18.896   4.079  13.306
56985W        W23768  14.713   9.234  13.969
56986W        W23769   7.306  15.812   4.248
56987W        W23770  10.335  11.865  12.306
56988W        W23771  22.028   4.657  12.369
56989W        W23772  20.712  35.084   4.229
56990W        W23773  26.191  10.960   3.216
56991W        W23774  40.026  13.897   0.479
56992W        W23775  10.885  15.245  11.053
56993W        W23776  25.118  32.716   2.692
56994W        W23777  15.573   7.336  11.210
56995W        W23778  14.737  33.178  14.328
56996W        W23779  36.647  16.841   0.438
56997W        W23780  13.326  43.445   3.603
56998W        W23781  22.462  23.044   1.033
56999W        W23782  26.027   9.197  10.663
57000W        W23783  34.582   8.401  11.964
57001W        W23784  42.325  44.002  14.897
57002W        W23785   7.631   9.622  13.332
57003W        W23786  34.870  18.092  12.656
57004W        W23787  15.765  41.234   2.642
57005W        W23788  34.945  37.555  11.587
57006W        W23789   7.272  25.596  13.112
57007W        W23790  12.865  22.415   1.168
57008W        W23791  24.857  20.874  10.986
57009W        W23792  21.328  16.619   4.361
57010W        W23793   1.009  19.173   2.709
57011W        W23794  21.213  42.245   2.676
57012W        W23795   1.142  15.588   1.683
57013W        W23796  39.058  17.841  13.846
57014W        W23797  17.588  29.519   0.946
57015W        W23798  36.504  25.904  14.359
57016W        W23799  41.070  22.625   2.723
57017W        W23800  21.627   2.699  12.961
57018W        W23801   7.965  29.947   2.314
57019W        W23802   2.428  31.201  11.618
57020W        W23803   6.597  16.236   2.353
57021W        W23804  36.748  28.008   1.800
57022W        W23805  24.663  20.980   0.986
57023W        W23806   7.500  40.901   2.636
57024W        W23807   4.405  25.670  12.482
57025W        W23808  22.734  38.363   4.197
57026W        W23809  13.887  27.185   2.000
57027W        W23810  29.118  42.007  14.223
57028W        W23811   8.876  44.985  14.268
57029W        W23812  42.091  30.569  10.173
57030W        W23813  20.687  10.477  11.079
57031W        W23814   5.772  39.065  14.032
57032W        W23815  10.374  44.982  11.626
57033W        W23816  20.354   2.326  11.582
57034W        W23817   6.631   7.678  14.735
57035W        W23818  25.609  11.857  10.738
57036W        W23819  40.582  29.741  11.635
57037W        W23820  24.695  11.366   4.536
57038W        W23821  32.052   8.688   2.699
57039W        W23822   4.154   2.271  14.559
57040W        W23823   2.944  10.247   3.273
57041W        W23824  32.200  18.332  11.638
57042W        W23825  36.964  26.131   0.929
57043W        W23826  25.791  13.709   1.857
57044W        W23827  16.026  11.082   2.669
57045W        W23828   3.151  20.085   2.958
57046W        W23829  14.899   0.050  11.407
57047W        W23830  21.346  23.002  13.433
57048W        W23831  11.794  43.260  14.803
57049W        W23832  37.574  31.516  12.135
57050W        W23833   6.695  33.461  13.401
57051W        W23834  19.294  22.185   4.756
57052W        W23835  31.094  16.680  10.977
57053W        W23836  21.966  21.962  12.982
57054W        W23837  36.329   3.452  10.239
57055W        W23838   7.438  16.884   1.339
57056W        W23839  35.881  26.888  12.850
57057W        W23840  22.765  31.128  13.652
57058W        W23841  15.095  18.712  11.915
57059W        W23842  18.776  41.408   0.233
57060W        W23843  21.781  21.093  10.992
57061W        W23844   5.851  17.073  14.957
57062W        W23845  17.214  33.056   3.282
57063W        W23846   8.704  24.461  11.481
57064W        W23847  32.127  24.230  12.886
57065W        W23848  21.132  27.698   3.626
57066W        W23849  44.527  21.038   3.268
57067W        W23850  34.571  12.023  11.921
57068W        W23851  35.438  33.963  14.846
57069W        W23852  27.840   5.114   4.170
57070W        W23853  44.375   4.958  14.813
57071W        W23854   6.234   0.894  11.514
57072W        W23855  15.250   2.829   3.382
57073W        W23856  32.628  25.753  13.433
57074W        W23857   1.302   6.198  13.013
57075W        W23858  14.136  30.047   1.892
57076W        W23859  19.531  23.605  14.348
57077W        W23860  14.677  16.575  11.719
57078W        W23861  17.835  37.447   0.375
57079W        W23862  31.162  22.026   1.780
57080W        W23863  23.170   2.230   4.041
57081W        W23864  21.609  44.032  12.279
57082W        W23865  41.593  13.758   0.357
57083W        W23866  17.573  24.706   0.549
57084W        W23867  22.875   3.951   3.726
57085W        W23868   6.385  20.092   2.474
57086W        W23869  38.951  37.592  11.246
57087W        W23870  34.101  26.425  14.778
57088W        W23871   5.429  36.920   0.689
57089W        W23872  13.189   0.047   1.405
57090W        W23873  10.416  11.092   1.496
57091W        W23874   8.332  16.850  13.461
57092W        W23875  38.402  13.043  12.992
57093W        W23876  29.758   4.638  12.949
57094W        W23877  20.038  22.115  13.946
57095W        W23878  10.149  26.292  13.515
57096W        W23879  10.751  38.557   0.611
57097W        W23880  42.383  36.394  13.048
57098W        W23881  15.541  19.063  14.435
57099W        W23882   4.453  17.628  12.928
57100W        W23883  21.146  43.319   1.275
57101W        W23884  31.105  25.154   1.824
57102W        W23885  36.459   8.380  13.855
57103W        W23886  30.708  35.930  14.892
57104W        W23887  37.507   3.860  12.796
57105W        W23888  29.351   7.925   0.919
57106W        W23889  32.602  19.690   9.695
57107W        W23890  40.199   2.740  12.766
57108W        W23891  11.599   2.283   1.134
57109W        W23892  27.709   1.058  12.484
57110W        W23893   3.220  42.579  11.153
57111W        W23894  39.597  25.985  13.810
57112W        W23895  26.780  18.748  12.004
57113W        W23896  33.137  27.547  14.799
57114W        W23897  11.567   1.862   0.253
57115W        W23898  20.881  28.091  13.543
57116W        W23899  15.121  35.475  14.951
57117W        W23900  27.488  18.097   4.694
57118W        W23901   5.178  32.344  12.913
57119W        W23902  12.829  33.871  11.177
57120W        W23903  18.173  43.798   0.767
57121W        W23904  28.092  14.484   3.788
57122W        W23905   8.779  41.030   3.904
57123W        W23906   6.307  16.649  14.240
57124W        W23907   0.999  25.757   0.028
57125W        W23908   4.035  16.688  11.199
57126W        W23909  22.420  14.792   3.208
57127W        W23910  34.795  12.396   0.979
57128W        W23911  13.350  42.936   0.387
57129W        W23912  23.440   8.158   0.186
57130W        W23913  39.089  39.739   3.251
57131W        W23914   6.657  28.043   0.152
57132W        W23915  25.626  20.198  12.946
57133W        W23916  25.592  22.557  11.076
57134W        W23917  31.010   2.985   3.176
57135W        W23918  34.899   1.938  12.939
57136W        W23919   8.303  11.390  13.486
57137W        W23920  20.876  38.149   1.673
57138W        W23921  41.301  33.385   5.068
57139W        W23922  35.843  34.519  11.682
57140W        W23923  12.237  32.357   2.781
57141W        W23924  44.186  19.292  14.535
57142W        W23925  29.925  14.217  13.873
57143W        W23926  32.055  15.656  13.314
57144W        W23927  34.912  30.498  10.902
57145W        W23928  19.191  20.004   4.897
57146W        W23929  41.531  40.550  12.959
57147W        W23930   4.006  43.127   0.284
57148W        W23931  11.175  38.981   1.836
57149W        W23932  14.883  20.858  13.389
57150W        W23933  42.945  40.035   0.804
57151W        W23934  30.750  27.048   2.247
57152W        W23935   5.985   4.235  12.796
57153W        W23936  26.682   5.030  14.107
57154W        W23937  16.003   3.920  14.033
57155W        W23938  44.136  11.151   0.859
57156W        W23939  16.027  20.178  11.649
57157W        W23940  13.250   5.188   4.880
57158W        W23941  30.657  34.505   0.981
57159W        W23942  37.540  21.763  11.607
57160W        W23943  37.114   8.679   1.842
57161W        W23944  10.452  40.214  11.150
57162W        W23945  44.702  18.380  10.390
57163W        W23946  35.885  33.281   0.247
57164W        W23947  13.202  30.597  12.486
57165W        W23948  35.593  15.602  10.446
57166W        W23949  13.746   3.347   0.910
57167W        W23950  37.559  31.183  14.475
57168W        W23951  17.852  20.993   0.291
57169W        W23952  38.501  23.264  12.119
57170W        W23953  14.714  22.660  14.698
57171W        W23954  25.472  36.780  11.150
57172W        W23955  24.287   1.940   4.519
57173W        W23956  28.472  10.309   4.458
57174W        W23957  12.028  36.653   1.301
57175W        W23958  14.691  17.553  14.863
57176W        W23959  32.444  42.258   2.961
57177W        W23960  10.066  20.651   4.637
57178W        W23961  34.352  30.458   1.290
57179W        W23962  27.997  14.143   2.396
57180W        W23963  41.906  11.265   3.938
57181W        W23964  14.707   3.261   2.879
57182W        W23965  36.824   6.262  14.632
57183W        W23966  11.224  39.424  10.647
57184W        W23967  42.922  43.411  12.188
57185W        W23968  21.067  13.274  12.957
57186W        W23969  23.901  22.385   5.102
57187W        W23970   7.191  18.997  12.522
57188W        W23971   1.878  24.500   4.505
57189W        W23972  18.545  19.063   3.168
57190W        W23973  30.147   6.951  11.731
57191W        W23974  19.330  30.352  14.769
57192W        W23975  27.363  12.525   4.506
57193W        W23976  38.941  39.122  12.442
57194W        W23977  18.099  25.667  12.599
57195W        W23978  14.019  32.127  11.164
57196W        W23979  21.550   2.483   1.385
57197W        W23980  35.157   0.708  13.445
57198W        W23981  14.855  21.385   4.866
57199W        W23982  35.955  28.498  11.143
57200W        W23983   2.919  20.390  12.501
57201W        W23984  41.852  20.278   3.566
57202W        W23985  32.610   3.408   0.250
57203W        W23986  24.038  27.471  13.073
57204W        W23987  44.502  26.940   0.363
57205W        W23988  14.754  12.396   3.315
57206W        W23989   3.255  12.223  12.409
57207W        W23990  22.702  10.133   2.398
57208W        W23991  29.113  20.979   0.825
57209W        W23992   0.380  43.523  13.345
57210W        W23993   4.889  44.975  11.004
57211W        W23994  16.121   0.360   0.837
57212W        W23995  28.189   4.662   4.837
57213W        W23996   0.497  11.894  10.642
57214W        W23997   5.263  23.535  12.585
57215W        W23998   5.354  32.069   3.388
57216W        W23999   0.565  13.152   3.238
57217W        W24000  25.117  28.644  10.353
57218W        W24001  22.525  10.679   0.722
57219W        W24002  15.927  23.448   3.313
57220W        W24003  30.821  13.234   2.283
57221W        W24004  30.700  13.455  11.216
57222W        W24005  43.457  28.137  14.584
57223W        W24006  30.041  10.105  11.058
57224W        W24007  31.414  36.586  13.204
57225W        W24008  19.209  26.725  13.117
57226W        W24009  31.201   8.398  13.467
57227W        W24010   9.680  23.765   2.288
57228W        W24011  10.849  10.744  12.465
57229W        W24012  33.950  27.460   1.955
57230W        W24013   0.451   4.138  12.502
57231W        W24014  26.283  42.063  11.200
57232W        W24015   2.668  17.569   0.731
57233W        W24016  12.782  33.852  13.363
57234W        W24017  16.617  32.538   1.165
57235W        W24018  35.652  37.286  12.085
57236W        W24019   0.346  11.626  13.739
57237W        W24020   1.859  28.924  12.939
57238W        W24021  29.579   8.389   0.912
57239W        W24022  37.385   1.267   3.704
57240W        W24023  30.492  11.841  13.823
57241W        W24024   0.376  34.561  10.649
57242W        W24025  42.254  16.520   0.350
57243W        W24026   5.674  32.524  12.898
57244W        W24027  32.041  17.628  14.536
57245W        W24028  31.590  13.439  12.952
57246W        W24029   1.830  42.390   1.449
57247W        W24030   1.154  12.552  13.270
57248W        W24031  29.040  12.557  12.064
57249W        W24032  43.444  14.828   0.910
57250W        W24033   1.344  29.797   3.241
57251W        W24034  32.340  19.289  13.459
57252W        W24035  40.615  34.119   1.571
57253W        W24036  28.098  40.015  12.523
57254W        W24037  28.209   3.360  11.200
57255W        W24038  37.954  13.930   1.837
57256W        W24039   5.146  26.989   3.396
57257W        W24040  24.048  25.179  13.840
57258W        W24041   6.135  43.302  14.314
57259W        W24042  29.954  29.959  12.193
57260W        W24043  13.084   3.494  13.475
57261W        W24044  30.387  11.032  12.957
57262W        W24045   9.755  25.636   5.013
57263W        W24046  22.747  11.628  11.175
57264W        W24047   0.423  34.050  14.506
57265W        W24048  42.854  37.576  11.626
57266W        W24049   7.849  37.300   2.607
57267W        W24050   4.881   8.901   3.195
57268W        W24051  11.784  23.626  13.047
57269W        W24052  33.275  23.877  11.755
57270W        W24053  30.061  26.524   3.066
57271W        W24054  20.272  40.590   4.539
57272W        W24055  21.225  30.998   2.226
57273W        W24056  44.928  34.121   0.729
57274W        W24057  26.925  23.568   0.225
57275W        W24058   9.642  33.125   0.787
57276W        W24059  20.014  17.138  11.461
57277W        W24060  31.069  34.683  13.080
57278W        W24061   5.264  35.059   1.233
57279W        W24062   6.884  38.248   2.406
57280W        W24063  18.440  12.063  12.135
57281W        W24064  37.936  36.016   0.028
57282W        W24065   2.594  28.862   1.645
57283W        W24066   4.308   8.619   0.747
57284W        W24067  36.017  31.472  11.093
57285W        W24068  16.579  26.612  13.848
57286W        W24069   3.897  31.126  12.913
57287W        W24070  40.774  26.113   0.852
57288W        W24071  38.764  11.538  10.687
57289W        W24072  13.221  27.588   0.946
57290W        W24073  22.141  37.518   3.607
57291W        W24074  29.690   4.955  12.020
57292W        W24075  23.513  30.505   1.179
57293W        W24076  21.551  36.133   4.187
57294W        W24077   0.673  22.661  13.962
57295W        W24078  26.551  28.231   1.832
57296W        W24079  30.407   5.822  13.601
57297W        W24080  28.393  32.418  14.851
57298W        W24081  32.230   6.987   4.689
57299W        W24082  22.005  31.072   0.272
57300W        W24083  36.846  34.495   0.872
57301W        W24084  29.897   4.242   1.683
57302W        W24085  12.831  38.850  14.844
57303W        W24086  43.400  44.873  10.448
57304W        W24087   4.484  43.853  12.551
57305W        W24088  37.483  31.467  10.411
57306W        W24089  24.785  31.034  14.907
57307W        W24090  34.427   6.881  12.014
57308W        W24091  31.389   7.224  12.950
57309W        W24092  27.692  22.285   1.265
57310W        W24093  28.258  12.300  12.590
57311W        W24094  21.419  44.272   0.989
57312W        W24095  33.581  35.851   5.187
57313W        W24096  37.099   5.758  13.872
57314W        W24097  19.752  20.536  13.556
57315W        W24098  27.622  15.816  12.783
57316W        W24099  17.831  17.570   1.860
57317W        W24100  34.596  22.632   0.838
57318W        W24101   0.209   0.673   2.950
57319W        W24102   8.620  44.817   2.374
57320W        W24103  39.294  14.620  14.208
57321W        W24104   7.704  41.415  12.963
57322W        W24105  21.529  40.874  10.685
57323W        W24106  27.304  19.109   3.903
57324W        W24107  33.956  27.103  11.143
57325W        W24108   5.962  40.054  14.467
57326W        W24109  38.002  15.506  14.693
57327W        W24110  35.315  44.248  10.673
57328W        W24111  30.182  43.332  14.863
57329W        W24112  43.094   5.679  14.970
57330W        W24113  24.798   3.016  14.670
57331W        W24114  14.090  16.117   3.378
57332W        W24115  34.576  27.155  14.298
57333W        W24116  27.046  20.725  11.090
57334W        W24117  28.878  20.066   1.935
57335W        W24118  32.189  10.027  12.648
57336W        W24119  39.999  22.966   4.312
57337W        W24120  14.405   5.390  14.372
57338W        W24121  38.499  31.188  14.734
57339W        W24122  38.100  32.168  13.320
57340W        W24123  20.740  22.664   1.731
57341W        W24124  14.815  30.422   0.274
57342W        W24125  36.498   1.753   1.412
57343W        W24126  21.254  13.375  11.069
57344W        W24127  24.802   1.966  12.910
57345W        W24128  26.028   6.391  11.468
57346W        W24129  35.007  19.321   4.535
57347W        W24130   3.678  15.142  14.446
57348W        W24131  24.531   3.867   2.607
57349W        W24132  12.277  26.036   0.718
57350W        W24133  36.057  41.511  10.476
57351W        W24134  40.499  14.328  13.344
57352W        W24135  37.906  41.174   4.012
57353W        W24136   4.801  12.450  11.566
57354W        W24137  14.946  28.094   1.396
57355W        W24138  14.914  43.045  10.540
57356W        W24139  41.200  19.933  13.044
57357W        W24140  24.665  43.420  14.860
57358W        W24141  44.492  37.552   3.591
57359W        W24142  44.035  44.776  11.470
57360W        W24143  43.005  41.544   1.739
57361W        W24144  28.348   8.155   0.513
57362W        W24145   0.321  13.176   4.024
57363W        W24146  16.444  13.310  12.032
57364W        W24147   1.003  42.938   2.198
57365W        W24148   9.371  29.968  11.844
57366W        W24149  28.045   9.485  12.079
57367W        W24150   3.108  17.207   3.849
57368W        W24151  17.751  29.050   4.576
57369W        W24152  42.476  15.526   1.949
57370W        W24153  32.340  30.203   2.891
57371W        W24154   4.931  39.419   0.843
57372W        W24155   9.481  30.988  14.049
57373W        W24156  12.319   7.361  11.456
57374W        W24157  38.793  11.208   4.246
57375W        W24158   1.846  31.605  13.589
57376W        W24159  30.657  29.547   3.412
57377W        W24160  30.009  31.099   0.398
57378W        W24161  44.304  39.367   0.857
57379W        W24162  35.323   8.655   2.127
57380W        W24163  14.311  39.786  14.775
57381W        W24164   5.320  41.600  10.727
57382W        W24165  37.292  43.501  14.079
57383W        W24166   1.014  33.791   2.259
57384W        W24167  37.110   0.009  13.404
57385W        W24168   3.838   3.479   4.321
57386W        W24169  25.110  20.003  13.043
57387W        W24170  40.759  30.268  11.156
57388W        W24171   1.669  25.503  14.420
57389W        W24172  28.042  10.474   0.881
57390W        W24173  28.550  18.765   0.647
57391W        W24174  19.723  37.361   1.923
57392W        W24175   9.367  16.098   0.368
57393W        W24176   3.440  13.161  14.356
57394W        W24177   4.128  24.038  12.019
57395W        W24178  32.124  41.580   0.521
57396W        W24179  18.852   5.891  10.606
57397W        W24180  26.499  13.654  13.984
57398W        W24181  44.853  36.451   1.372
57399W        W24182  11.867  10.563  11.023
57400W        W24183  13.677   3.488   0.417
57401W        W24184  44.778  37.811  14.598
57402W        W24185  22.009  28.130   4.933
57403W        W24186  35.839  15.699  12.567
57404W        W24187   9.746   5.230  13.963
57405W        W24188  33.617   4.218  14.920
57406W        W24189  30.870   3.937   0.647
57407W        W24190  41.485  33.286  11.619
57408W        W24191  31.467  11.838  12.212
57409W        W24192  26.907  38.480   4.537
57410W        W24193  43.875  30.501  11.405
57411W        W24194  44.753  27.556   0.090
57412W        W24195  34.114  31.895  12.117
57413W        W24196   7.531  23.414  14.788
57414W        W24197  26.479  20.618   1.368
57415W        W24198  27.169  29.495  11.738
57416W        W24199  38.609  29.121   0.733
57417W        W24200  25.929  24.167   2.252
57418W        W24201  18.857  37.828   3.863
57419W        W24202  38.589  42.763  13.016
57420W        W24203   7.012  26.740   4.971
57421W        W24204  19.576  36.464  14.266
57422W        W24205  31.367  42.579   0.830
57423W        W24206  42.981   6.295  12.523
57424W        W24207   9.252  40.551   4.503
57425W        W24208  19.784  21.106   3.645
57426W        W24209  18.574  28.419   4.840
57427W        W24210  31.727  22.095  14.831
57428W        W24211  14.446  37.868   0.588
57429W        W24212  22.799   7.451   1.861
57430W        W24213  24.812  25.649   0.832
57431W        W24214   2.711   8.105  11.178
57432W        W24215  39.946  24.142  12.389
57433W        W24216  33.200  14.003   3.621
57434W        W24217  26.962  43.471   1.328
57435W        W24218  32.604  35.940  13.463
57436W        W24219  19.068  19.004  14.974
57437W        W24220  17.557  14.426   3.614
57438W        W24221  11.403   9.445   3.787
57439W        W24222  13.313   8.415  10.289
57440W        W24223   8.619  15.255   2.354
57441W        W24224  34.353  24.050  13.887
57442W        W24225  16.169  30.703   3.840
57443W        W24226   0.255  33.121   1.360
57444W        W24227  31.498  21.632  14.772
57445W        W24228   3.982   3.925  10.523
57446W        W24229  13.608  31.646  13.860
57447W        W24230   6.262  44.535   3.718
57448W        W24231   1.294  10.189   3.682
57449W        W24232  41.019  28.598   0.499
57450W        W24233   5.146  23.031   0.560
57451W        W24234   7.811  10.886   2.883
57452W        W24235  27.158  28.819   0.225
57453W        W24236  22.461  26.043   0.784
57454W        W24237  12.553  24.634   0.833
57455W        W24238  36.894  40.791  11.157
57456W        W24239  37.252   8.487   4.042
57457W        W24240  42.344  34.397  11.740
57458W        W24241  38.528  14.890  14.914
57459W        W24242  26.066  10.330  13.827
57460W        W24243  26.223  33.417   2.801
57461W        W24244  36.193  41.695   2.301
57462W        W24245  11.861  44.247   3.680
57463W        W24246   7.695   0.827   1.917
57464W        W24247  35.573  37.888   0.480
57465W        W24248   0.392  39.077   2.442
57466W        W24249   4.223  14.406   2.619
57467W        W24250  38.025  24.019  12.857
57468W        W24251  19.556  33.437  11.167
57469W        W24252   4.822  32.948  14.563
57470W        W24253  41.966  36.575   5.026
57471W        W24254   6.374   4.924   3.226
57472W        W24255  22.700  34.227  12.115
57473W        W24256  30.800  25.408   3.207
57474W        W24257  22.609  20.656  10.295
57475W        W24258  27.581  15.605   4.171
57476W        W24259  19.081  18.295   5.162
57477W        W24260  22.924  30.291   1.210
57478W        W24261   9.903  12.384  14.884
57479W        W24262  22.986  25.702   5.281
57480W        W24263  21.642   0.654   4.063
57481W        W24264   1.455  33.404  11.359
57482W        W24265  13.172  19.409  12.392
57483W        W24266  35.057   3.025   3.799
57484W        W24267  14.765  30.129   1.411
57485W        W24268  44.110  15.883  14.402
57486W        W24269  12.741  27.462   3.282
57487W        W24270  38.488  32.584  11.098
57488W        W24271   5.632  43.162  14.440
57489W        W24272   8.293  37.554  14.457
57490W        W24273  16.748  17.984   1.682
57491W        W24274  44.252   4.266  13.860
57492W        W24275  33.996  33.139   3.744
57493W        W24276  42.779   0.984   0.558
57494W        W24277   1.137  27.191  13.239
57495W        W24278  26.588  30.579   1.896
57496W        W24279   2.348  13.174   5.269
57497W        W24280  18.659  19.181  11.197
57498W        W24281   1.496  42.430   4.698
57499W        W24282  34.103  11.497   4.849
57500W        W24283  21.963  30.592   1.391
57501W        W24284  28.521  44.732   3.840
57502W        W24285  43.151   0.019  13.209
57503W        W24286  11.328  37.602   0.414
57504W        W24287  42.212  39.937  10.640
57505W        W24288  24.423   3.194   1.524
57506W        W24289  42.703   7.015   4.633
57507W        W24290   8.500  20.770  12.028
57508W        W24291  20.731  35.023  11.134
57509W        W24292  39.216  42.064  10.675
57510W        W24293   1.320  33.324  10.845
57511W        W24294  18.484   9.803   2.754
57512W        W24295  10.750  44.417   2.907
57513W        W24296  40.547  41.390  11.632
57514W        W24297  42.519  29.187   1.291
57515W        W24298   7.958   3.770   0.002
57516W        W24299  18.797   8.241  12.844
57517W        W24300   2.908  26.456  11.157
57518W        W24301  12.105  18.675   1.461
57519W        W24302  24.469  30.657  11.820
57520W        W24303  35.579  27.045   0.771
57521W        W24304   8.195  25.587   0.528
57522W        W24305  19.195  17.041   2.700
57523W        W24306  42.543   9.765   1.306
57524W        W24307  33.035   9.650  14.287
57525W        W24308  41.147  39.048   1.974
57526W        W24309   7.328   9.393   3.144
57527W        W24310  32.966  23.019  12.510
57528W        W24311  15.363  15.656   4.618
57529W        W24312  29.224  15.287  14.935
57530W        W24313  38.787  43.347   2.469
57531W        W24314   0.988  27.272   4.674
57532W        W24315  25.496  14.094   0.873
57533W        W24316  16.989  13.683   2.250
57534W        W24317  38.952  31.642  12.942
57535W        W24318  41.252  33.651  11.375
57536W        W24319  17.627  11.697  10.771
57537W        W24320  25.679   8.442   3.553
57538W        W24321  25.169  41.495  13.387
57539W        W24322  27.732  30.570  14.456
57540W        W24323  21.313  42.370  12.947
57541W        W24324  37.568  42.850   4.315
57542W        W24325  13.670  43.799  11.434
57543W        W24326  20.426   4.333  14.795
57544W        W24327  21.005  27.131  10.986
57545W        W24328  20.358  13.265   4.022
57546W        W24329   0.950  16.837  11.463
57547W        W24330  35.923  26.737   2.813
57548W        W24331  20.134  28.564  14.464
57549W        W24332  23.270  16.844   2.727
57550W        W24333  23.317  31.067  12.088
57551W        W24334  16.255   6.235   4.873
57552W        W24335   3.818  10.873   2.876
57553W        W24336   9.154   5.018  12.887
57554W        W24337  24.012  19.484   1.357
57555W        W24338  19.144   7.672  10.507
57556W        W24339  27.112  34.788   3.719
57557W        W24340   6.345  14.616   1.490
57558W        W24341  18.156  30.101  11.328
57559W        W24342  44.388  41.485  12.971
57560W        W24343  33.404  30.446   5.264
57561W        W24344   6.849  13.331   0.372
57562W        W24345  39.440   5.380  12.908
57563W        W24346  30.390  10.603  11.504
57564W        W24347  20.282  27.101  14.362
57565W        W24348  36.853  22.930   4.334
57566W        W24349   0.517  14.151   5.161
57567W        W24350  21.258   2.235  11.079
57568W        W24351   3.860  18.234   1.855
57569W        W24352  42.449  38.285   4.322
57570W        W24353  18.844  41.439   1.270
57571W        W24354  12.889  39.791   2.108
57572W        W24355  44.580  15.703  14.412
57573W        W24356  19.118  19.788  11.679
57574W        W24357  11.284  10.538   4.712
57575W        W24358  31.868  31.144   0.971
57576W        W24359   9.201   4.815  12.408
57577W        W24360  43.817  30.060   2.725
57578W        W24361  31.180   2.745   0.691
57579W        W24362   9.598  43.065   2.149
57580W        W24363  20.638  25.526  14.782
57581W        W24364   3.801  11.272  10.680
57582W        W24365  40.883  12.230  10.694
57583W        W24366  17.128  21.577  10.656
57584W        W24367  28.421  26.981   3.615
57585W        W24368  29.822  16.298   1.629
57586W        W24369   2.798  25.057  12.171
57587W        W24370  22.732  13.096   0.411
57588W        W24371   5.813  34.996   2.401
57589W        W24372  15.142   8.345   0.357
57590W        W24373  33.399  14.224  14.927
57591W        W24374  42.237   1.498   2.760
57592W        W24375   1.308  30.297   3.119
57593W        W24376  20.677  30.433   0.386
57594W        W24377  26.429  25.081  12.849
57595W        W24378  13.150  43.726  11.594
57596W        W24379  31.235  43.894  14.401
57597W        W24380   5.835   4.560  11.179
57598W        W24381  16.109   5.716  10.744
57599W        W24382  36.946  39.460  12.380
57600W        W24383  41.527  25.398  14.721
57601W        W24384   6.877  17.260   2.341
57602W        W24385  17.531  32.147   0.475
57603W        W24386  36.452   3.193  14.283
57604W        W24387  14.530  38.611   3.266
57605W        W24388  38.426  34.562   2.596
57606W        W24389  43.272   7.677  14.961
57607W        W24390   6.726  10.152  12.749
57608W        W24391  41.921  24.722  10.739
57609W        W24392   6.948  22.612  14.687
57610W        W24393  27.091  21.160   3.961
57611W        W24394   8.289  18.998   2.350
57612W        W24395  44.981  15.149  14.071
57613W        W24396   7.109  35.644  14.395
57614W        W24397   1.459  14.712   3.684
57615W        W24398   2.800  43.453  13.540
57616W        W24399  22.789   0.725   2.611
57617W        W24400  16.755  44.246   9.785
57618W        W24401  40.807  36.109  14.847
57619W        W24402   6.202  42.418   0.183
57620W        W24403  37.420  16.042  12.419
57621W        W24404  26.009  32.696   0.870
57622W        W24405  40.755  25.767   0.372
57623W        W24406  42.809   2.694  10.618
57624W        W24407  36.668  21.759  10.191
57625W        W24408  30.938  37.589  11.769
57626W        W24409  19.553  39.082  14.982
57627W        W24410  14.118  35.130  12.510
57628W        W24411  23.487  29.347  11.160
57629W        W24412  15.921   1.476   4.375
57630W        W24413  33.838   8.169   0.853
57631W        W24414  32.951   3.139  12.381
57632W        W24415  23.216  10.963  14.888
57633W        W24416  43.886  43.523  10.514
57634W        W24417  25.724  31.030  13.946
57635W        W24418  17.640   7.848  10.555
57636W        W24419  27.708  21.088  11.666
57637W        W24420  33.588   9.910   2.929
57638W        W24421  20.232  25.164   2.281
57639W        W24422  23.220  40.491  10.202
57640W        W24423  33.800  12.207  11.471
57641W        W24424   7.848   3.593   1.659
57642W        W24425  21.943  25.222   5.327
57643W        W24426   9.354  43.522  13.961
57644W        W24427  24.258   3.851  14.929
57645W        W24428  23.948   7.312   0.384
57646W        W24429   5.689  10.007  11.909
57647W        W24430  13.132  22.320  12.050
57648W        W24431   3.478  29.547  14.154
57649W        W24432  20.283  20.948  12.525
57650W        W24433  34.058  34.342   0.859
57651W        W24434  43.941  19.247  11.606
57652W        W24435   0.738   1.770  13.606
57653W        W24436  20.179  12.889  12.558
57654W        W24437  42.496  40.962  12.586
57655W        W24438  27.122   1.464  13.422
57656W        W24439  38.106  34.399  14.312
57657W        W24440   9.763  16.066   3.766
57658W        W24441   6.114  40.562   1.511
57659W        W24442  42.867  28.856  11.960
57660W        W24443  18.559   4.421   0.604
57661W        W24444   1.223  20.074   1.183
57662W        W24445   8.368   9.910  10.950
57663W        W24446  39.637   3.391  11.572
57664W        W24447  29.759  36.019  13.068
57665W        W24448  32.220  15.668  12.847
57666W        W24449  37.437  42.221   2.428
57667W        W24450  17.344  19.072   2.846
57668W        W24451  30.910  26.400   2.915
57669W        W24452  13.787  17.690  10.354
57670W        W24453  11.619  44.984   0.426
57671W        W24454  21.668  13.748  11.715
57672W        W24455   0.364  34.404   2.772
57673W        W24456   1.816  17.286  12.242
57674W        W24457   7.588  37.486   4.898
57675W        W24458   8.193  21.581   3.389
57676W        W24459  22.270  31.093  11.175
57677W        W24460   4.352  32.533   4.094
57678W        W24461  25.587  10.534  13.997
57679W        W24462  20.096   7.754   4.679
57680W        W24463   4.202  18.599  12.579
57681W        W24464   2.672   7.211  11.074
57682W        W24465  31.300   7.118   1.680
57683W        W24466  17.026  28.174  11.019
57684W        W24467  36.553  14.622  14.931
57685W        W24468  32.919  17.967  12.097
57686W        W24469  18.038  32.532  12.136
57687W        W24470   8.716  40.043  12.347
57688W        W24471  25.468  21.653   1.393
57689W        W24472  42.062  38.945  14.873
57690W        W24473  36.656  10.655  13.792
57691W        W24474  12.349  39.948  13.431
57692W        W24475  38.874   9.214  11.480
57693W        W24476  22.613   8.644   2.293
57694W        W24477   0.555  19.870  10.500
57695W        W24478  36.662  16.619  12.349
57696W        W24479  22.090  23.889   0.907
57697W        W24480   9.739  41.486  11.931
57698W        W24481  12.828   9.395  13.489
57699W        W24482   1.986   9.269   0.411
57700W        W24483  12.318  26.549   1.379
57701W        W24484  20.236  18.288   4.609
57702W        W24485  41.141  22.957  12.388
57703W        W24486  37.295  11.269   4.089
57704W        W24487  20.130  27.896   2.194
57705W        W24488  33.981   0.805   1.174
57706W        W24489  37.403  21.823   3.691
57707W        W24490   3.923  12.364  13.082
57708W        W24491  26.466  30.234  10.729
57709W        W24492  39.443  21.460   0.443
57710W        W24493  43.344  15.653   1.418
57711W        W24494  33.978  38.082  12.059
57712W        W24495  40.451  41.903   2.124
57713W        W24496  11.246  20.736   0.462
57714W        W24497  20.076  39.346  11.831
57715W        W24498  29.506  35.614   0.901
57716W        W24499  31.419  16.100  11.974
57717W        W24500  30.393   7.354  11.998
57718W        W24501   3.277  13.826  14.460
57719W        W24502  16.098  33.290  13.045
57720W        W24503  18.984  21.581  11.553
57721W        W24504   5.298   2.480   1.238
57722W        W24505  24.616  15.690  14.091
57723W        W24506  30.824  21.189  13.961
57724W        W24507  24.936  42.977  14.928
57725W        W24508   2.950  13.620   3.865
57726W        W24509  40.416  26.986   4.073
57727W        W24510   4.789  30.234  13.416
57728W        W24511  11.221  40.231  12.436
57729W        W24512  32.095  31.928  12.103
57730W        W24513  34.445  14.730  10.829
57731W        W24514  24.624  25.905  12.143
57732W        W24515  12.849  31.532   4.616
57733W        W24516   6.752  17.281   0.863
57734W        W24517  16.282  36.590   2.256
57735W        W24518  20.844  29.401   1.765
57736W        W24519  14.727  26.886  10.941
57737W        W24520   9.138  43.422  11.481
57738W        W24521  27.650   0.424  12.981
57739W        W24522   9.294  18.500   3.521
57740W        W24523  26.223  24.924   1.212
57741W        W24524   1.929   3.872   1.823
57742W        W24525  25.751  23.759  12.340
57743W        W24526  24.496  43.816  10.661
57744W        W24527   1.163  29.604  13.079
57745W        W24528   9.238  44.550  11.875
57746W        W24529   5.363  25.161  13.173
57747W        W24530  24.728   6.238   0.943
57748W        W24531  18.205  29.515  12.175
57749W        W24532  21.652   8.286  13.930
57750W        W24533  35.789  44.869  13.863
57751W        W24534  29.974  38.274  11.192
57752W        W24535  40.969  41.258   3.540
57753W        W24536  39.853  31.916  14.058
57754W        W24537  17.224   9.105   0.845
57755W        W24538  40.288  35.080   3.706
57756W        W24539   1.934  13.592   3.057
57757W        W24540  17.336  13.703   1.792
57758W        W24541  16.190   9.816  11.923
57759W        W24542  10.006  27.412  11.066
57760W        W24543  12.619  23.107  10.883
57761W        W24544  30.912  16.537   0.012
57762W        W24545  36.275  29.268   2.863
57763W        W24546  26.953  30.573   2.251
57764W        W24547  14.906  39.955   4.066
57765W        W24548  14.603  38.786   0.562
57766W        W24549   1.773  30.697  11.982
57767W        W24550  33.062  15.343   0.693
57768W        W24551  42.996  11.922  13.046
57769W        W24552  24.124  27.896   0.920
57770W        W24553  38.096  28.134   4.514
57771W        W24554  39.487  37.094   2.937
57772W        W24555   9.592  34.515   2.657
57773W        W24556  33.867  44.060  11.590
57774W        W24557   5.457  30.376  14.594
57775W        W24558  28.458  35.119  13.361
57776W        W24559  24.886  41.940  11.082
57777W        W24560  40.935  37.770   1.180
57778W        W24561  18.085  44.902  10.869
57779W        W24562   0.642  15.279  13.350
57780W        W24563   1.160   1.444  11.537
57781W        W24564  28.622  15.666  10.090
57782W        W24565  20.216  33.674   1.149
57783W        W24566  13.637  27.184   3.577
57784W        W24567  13.386   0.772  14.829
57785W        W24568  15.306  15.044   2.810
57786W        W24569  25.441  14.213  12.579
57787W        W24570  16.266  30.342   3.405
57788W        W24571  30.785   4.325  13.881
57789W        W24572  10.643  26.342   1.187
57790W        W24573   6.969  20.543  12.075
57791W        W24574  11.717  23.206  11.958
57792W        W24575   5.284  23.077   3.617
57793W        W24576   1.462  43.423  14.898
57794W        W24577   1.393   5.816   3.131
57795W        W24578   5.858  38.357   2.628
57796W        W24579   7.124  42.989   3.283
57797W        W24580  35.013  42.076  11.288
57798W        W24581  43.759  10.208  10.246
57799W        W24582  33.015  41.210  10.640
57800W        W24583  18.177  23.547  11.229
57801W        W24584  13.724  18.042   3.613
57802W        W24585   9.101  18.602  14.806
57803W        W24586   4.391  15.829   1.942
57804W        W24587  32.994  33.439   0.220
57805W        W24588  10.037  11.204  10.085
57806W        W24589  25.417  29.688   1.184
57807W        W24590  13.783   8.742  14.076
57808W        W24591  40.513  21.664   2.350
57809W        W24592  44.713  32.529  13.506
57810W        W24593  36.480  31.012   4.736
57811W        W24594  19.219  30.417  13.882
57812W        W24595  10.223  38.947  10.508
57813W        W24596  26.644  16.558   1.918
57814W        W24597  10.384  11.720   4.591
57815W        W24598  36.565  15.370   4.112
57816W        W24599  12.158   9.283  14.008
57817W        W24600  21.665  37.160  12.513
57818W        W24601  13.126  38.749  12.726
57819W        W24602   9.017  29.301   4.023
57820W        W24603   1.907  18.558   4.054
57821W        W24604   0.950  35.103  11.144
57822W        W24605   1.433  31.153  13.098
57823W        W24606  44.584  25.088   2.757
57824W        W24607  20.016  13.960  11.144
57825W        W24608   5.479  36.400   1.374
57826W        W24609  42.797  12.818   2.636
57827W        W24610  34.883   7.278  12.580
57828W        W24611  38.071  19.152  12.078
57829W        W24612  26.882  17.945  13.861
57830W        W24613  18.567  17.098   1.815
57831W        W24614  22.243  30.558  10.634
57832W        W24615   2.874  12.293  10.573
57833W        W24616   0.373  40.384   2.414
57834W        W24617  27.621  20.955  14.089
57835W        W24618   4.138  29.540   3.726
57836W        W24619  33.945  19.091  11.540
57837W        W24620  25.624  20.153   3.157
57838W        W24621  37.754   7.374  14.103
57839W        W24622  35.134  16.294   2.269
57840W        W24623  19.659  44.865  14.860
57841W        W24624  23.810   8.635  11.041
57842W        W24625  33.973   8.743   1.480
57843W        W24626  23.575  37.438   3.695
57844W        W24627  17.258  10.624   0.933
57845W        W24628  43.739  40.669  11.972
57846W        W24629   7.987  20.574   3.195
57847W        W24630  24.442  20.236   4.799
57848W        W24631  39.668   7.533   4.225
57849W        W24632  22.410  19.848  12.329
57850W        W24633  11.117  24.555   0.946
57851W        W24634  10.273   5.843  11.101
57852W        W24635  44.739  37.039   3.285
57853W        W24636  34.378  23.189   0.379
57854W        W24637  31.595  13.220  11.011
57855W        W24638  27.998  11.523   3.982
57856W        W24639   6.396  11.388  12.647
57857W        W24640  34.978  42.334   1.377
57858W        W24641  11.166  31.933   3.703
57859W        W24642   7.914  16.385   2.624
57860W        W24643  21.279  41.086  13.552
57861W        W24644  41.480  41.334   0.893
57862W        W24645  40.528  42.212  12.873
57863W        W24646  19.275   1.882  14.492
57864W        W24647  34.967  41.034   1.634
57865W        W24648  14.928   3.355  13.427
57866W        W24649  19.735  11.638  11.433
57867W        W24650  26.132  12.340   3.358
57868W        W24651  20.028  21.549  13.869
57869W        W24652  34.922  33.915   3.642
57870W        W24653  33.610  42.928   2.800
57871W        W24654  30.624  42.805  11.133
57872W        W24655  44.465  37.606  12.958
57873W        W24656  36.772  17.653  14.263
57874W        W24657   6.642  41.700   1.876
57875W        W24658  42.030  31.975  13.316
57876W        W24659  30.601  36.513   3.546
57877W        W24660  39.794  29.070  11.133
57878W        W24661  23.126  18.536   0.740
57879W        W24662   9.529  14.568  12.548
57880W        W24663  29.614  16.953  11.981
57881W        W24664  10.723   5.670   3.320
57882W        W24665  43.895  26.260  14.398
57883W        W24666  22.644   1.975   0.397
57884W        W24667  11.929  43.499   4.103
57885W        W24668  35.512   8.519   0.387
57886W        W24669   8.681  29.658  13.865
57887W        W24670   9.143  40.187  11.568
57888W        W24671  15.751  15.786   0.787
57889W        W24672  19.201  17.996  14.915
57890W        W24673   1.237  29.857   1.387
57891W        W24674  12.770   0.530   1.659
57892W        W24675  33.957  44.233  14.434
57893W        W24676  23.346  29.996   1.177
57894W        W24677  38.608  24.213  13.800
57895W        W24678  22.814  21.717   0.544
57896W        W24679  44.801  18.749  10.756
57897W        W24680  35.533  17.624   3.571
57898W        W24681  42.005  38.365   0.721
57899W        W24682   2.416  28.628  14.064
57900W        W24683   8.703   3.504   4.623
57901W        W24684  15.736   0.952   1.440
57902W        W24685  17.021  42.822   5.101
57903W        W24686  33.889  30.693   1.216
57904W        W24687   3.855  24.861   5.033
57905W        W24688  22.288  15.573   3.037
57906W        W24689  11.533  25.469  14.071
57907W        W24690   9.405  44.990   3.251
57908W        W24691  22.952  13.112  12.499
57909W        W24692  34.854  44.992  10.876
57910W        W24693  23.680  17.209  12.876
57911W        W24694  30.369  30.832   3.399
57912W        W24695  43.806  29.831  11.068
57913W        W24696   4.880  36.886   1.889
57914W        W24697  36.773   3.140   2.777
57915W        W24698  29.014  12.023  13.222
57916W        W24699  21.665  41.806   1.041
57917W        W24700  26.062  44.002   3.295
57918W        W24701   5.191  43.551   4.176
57919W        W24702  15.821  11.628  12.556
57920W        W24703   8.639  17.057  14.385
57921W        W24704  26.163  15.295  11.212
57922W        W24705  24.377   3.183  14.396
57923W        W24706  14.245  37.079   3.642
57924W        W24707   2.827  24.752  13.368
57925W        W24708  15.263   9.653   0.012
57926W        W24709  29.471  44.712   2.549
57927W        W24710  10.731  20.818  12.250
57928W        W24711   2.690   4.484  12.972
57929W        W24712  35.025  35.116   2.645
57930W        W24713  15.113  25.103   4.277
57931W        W24714  15.580  24.554  11.980
57932W        W24715   3.720  36.393  14.510
57933W        W24716  33.555  17.295  13.365
57934W        W24717  37.050  30.137  10.649
57935W        W24718  33.633  30.529   2.317
57936W        W24719   7.343  29.983  13.894
57937W        W24720  22.609  16.590   1.432
57938W        W24721  30.344  38.536   4.554
57939W        W24722   2.406  34.819  13.332
57940W        W24723   6.815  15.875  13.069
57941W        W24724  15.568  44.234   4.147
57942W        W24725   6.934   0.905   3.220
57943W        W24726   8.166  41.704   1.348
57944W        W24727   7.849  27.389   3.375
57945W        W24728  25.584  15.244   2.886
57946W        W24729  20.274  43.024   1.035
57947W        W24730   5.410  12.788  12.175
57948W        W24731   2.179  24.040   4.632
57949W        W24732  35.136  27.068   4.704
57950W        W24733  15.160  32.116   1.905
57951W        W24734  15.814   2.951  10.525
57952W        W24735  34.837  23.875  14.041
57953W        W24736  31.609  35.005   2.359
57954W        W24737  35.211  40.786   3.733
57955W        W24738   5.958  14.676  14.917
57956W        W24739   8.856  21.760  10.789
57957W        W24740  40.433  24.690   2.103
57958W        W24741  15.512   1.626   4.097
57959W        W24742   4.239  26.671   3.713
57960W        W24743   8.233  13.180   4.625
57961W        W24744   9.272  27.416   3.142
57962W        W24745  41.832  44.352  12.135
57963W        W24746  39.198  20.306   2.338
57964W        W24747  42.801  12.665  11.942
57965W        W24748   2.692  26.128   2.167
57966W        W24749  35.584  10.854   5.671
57967W        W24750  36.864  27.486  11.141
57968W        W24751   9.638  22.253   0.670
57969W        W24752  16.850  10.950   0.786
57970W        W24753  16.608  25.105   4.896
57971W        W24754  34.674   8.399   4.528
57972W        W24755  36.452  20.731   4.954
57973W        W24756  22.503  18.177  13.070
57974W        W24757  15.697  19.753  14.811
57975W        W24758  31.170  27.648   0.210
57976W        W24759  20.913  32.626   4.571
57977W        W24760   9.188  11.818  11.877
57978W        W24761  19.705  12.226   2.535
57979W        W24762  10.265  11.655   0.389
57980W        W24763  27.274  19.559   4.183
57981W        W24764  36.806  42.568   1.935
57982W        W24765  26.289  23.613  11.089
57983W        W24766   1.536  22.226   4.449
57984W        W24767  25.963  10.274   2.435
57985W        W24768   4.340   0.310   1.720
57986W        W24769  10.226   4.732   0.477
57987W        W24770  34.053  24.180   9.741
57988W        W24771  41.476  42.243  14.473
57989W        W24772  39.875  34.511   4.057
57990W        W24773  36.444  19.475   1.280
57991W        W24774  20.942  12.211   3.136
57992W        W24775   0.547  20.421   3.617
57993W        W24776  11.219  15.240   4.528
57994W        W24777  42.624  21.732   2.244
57995W        W24778  39.608  11.263   3.196
57996W        W24779  11.601  14.366   3.648
57997W        W24780  37.094  20.587   1.689
57998W        W24781  21.570  23.329   4.094
57999W        W24782  26.573   1.944  13.995
58000W        W24783   7.145  34.588   2.182
58001W        W24784  20.910  40.553  10.783
58002W        W24785  42.465  22.754   3.626
58003W        W24786  37.874  38.900   3.763
58004W        W24787  25.726  28.390  12.020
58005W        W24788  27.997  36.145  12.529
58006W        W24789  38.174   6.784   4.128
58007W        W24790   7.571   2.839  12.937
58008W        W24791  43.904   1.933   1.904
58009W        W24792  36.462   5.745   2.084
58010W        W24793  39.340  34.410   0.791
58011W        W24794  38.022  40.009  13.783
58012W        W24795  22.571  22.703   0.319
58013W        W24796  42.926   7.214   1.130
58014W        W24797  36.286   8.181  13.059
58015W        W24798   8.098  26.881  10.569
58016W        W24799   7.495  15.262   3.339
58017W        W24800  38.203  32.061  14.918
58018W        W24801  20.117  26.788  12.835
58019W        W24802  21.217   9.151  14.762
58020W        W24803  26.489  17.511  10.647
58021W        W24804  10.712   3.431  14.688
58022W        W24805  43.690  19.543   2.636
58023W        W24806  12.707  26.087   0.402
58024W        W24807  41.271   5.817  14.358
58025W        W24808   5.690  15.344  14.366
58026W        W24809  20.209   0.410   4.166
58027W        W24810  26.986  34.203  10.998
58028W        W24811  30.551  39.275  11.977
58029W        W24812  11.277  13.845   4.264
58030W        W24813  28.133  25.032   2.916
58031W        W24814   0.253  28.414   3.683
58032W        W24815   9.926   9.825   3.588
58033W        W24816  19.755   4.219   0.472
58034W        W24817  19.660  34.068  14.441
58035W        W24818  27.583   7.153  11.218
58036W        W24819  43.849  44.043  10.632
58037W        W24820  20.526  40.963   2.725
58038W        W24821  38.521  34.787  13.897
58039W        W24822  20.476  16.088  12.543
58040W        W24823   5.166  15.652   3.196
58041W        W24824  34.383  10.676  11.547
58042W        W24825   8.650  40.484  13.017
58043W        W24826  30.035  43.340  12.268
58044W        W24827   6.641  12.631   1.215
58045W        W24828   2.199  16.447  11.974
58046W        W24829  27.006  15.805  10.973
58047W        W24830  25.904  15.664   5.228
58048W        W24831  27.929   5.876  14.958
58049W        W24832   4.376  22.135   3.139
58050W        W24833   4.489  15.899   4.341
58051W        W24834  38.400  28.977  10.990
58052W        W24835   8.190  31.325  10.850
58053W        W24836  25.055  42.531  13.001
58054W        W24837  32.060  43.579  10.652
58055W        W24838  44.265  31.934  11.926
58056W        W24839  27.879  42.563   3.742
58057W        W24840  37.524  10.880  13.122
58058W        W24841  13.497  11.054  11.218
58059W        W24842  11.782  17.155   0.820
58060W        W24843  13.709  21.592   2.549
58061W        W24844   0.618   2.746   3.712
58062W        W24845  25.028   6.983  14.761
58063W        W24846   6.448  16.356  14.966
58064W        W24847   0.513  17.113  11.479
58065W        W24848  35.062  32.020  11.991
58066W        W24849  42.923  14.837  13.447
58067W        W24850   6.675  15.900  11.428
58068W        W24851  11.154   2.803   4.434
58069W        W24852  23.246  12.769  13.413
58070W        W24853  38.138   7.198  14.377
58071W        W24854   9.320  26.646  12.448
58072W        W24855  44.168  18.807   1.774
58073W        W24856  27.874  22.812  10.799
58074W        W24857  38.485   3.298   4.795
58075W        W24858   5.427  25.085   3.909
58076W        W24859  38.282  23.208   1.233
58077W        W24860  25.036  20.432  10.801
58078W        W24861   3.386  37.042  12.461
58079W        W24862   9.615  23.068   0.042
58080W        W24863  11.178  31.516   0.327
58081W        W24864   4.399  25.024  11.940
58082W        W24865   4.369   8.935  11.952
58083W        W24866  30.414  35.467  12.552
58084W        W24867  15.800   8.283  10.653
58085W        W24868  38.076  31.214  14.368
58086W        W24869  16.234  23.666   1.586
58087W        W24870  25.740  26.941   0.516
58088W        W24871  18.226  37.793  14.328
58089W        W24872  34.899  43.944  11.484
58090W        W24873  34.344   4.385   5.283
58091W        W24874   0.479   2.850   2.155
58092W        W24875  15.828  19.457   1.876
58093W        W24876   6.910  43.719   3.708
58094W        W24877  31.200  11.020  12.133
58095W        W24878   6.737  37.412  10.667
58096W        W24879  10.073   4.865  11.223
58097W        W24880  30.979   5.868  11.087
58098W        W24881  39.803  19.235  14.798
58099W        W24882   3.355   8.500   2.812
58100W        W24883  20.031  43.962  12.559
58101W        W24884  28.747   7.717  11.489
58102W        W24885  19.628  34.951  12.496
58103W        W24886  37.824   3.463  11.199
58104W        W24887   7.231  11.987   3.886
58105W        W24888  25.848   0.743   2.847
58106W        W24889  33.125   4.299   4.576
58107W        W24890   5.067  35.156  12.062
58108W        W24891  14.359   2.933   0.773
58109W        W24892  22.135   7.848  13.103
58110W        W24893  16.764  11.384  14.453
58111W        W24894   1.646  33.534   0.465
58112W        W24895   4.237  42.573  12.953
58113W        W24896  28.699  30.409  11.396
58114W        W24897  11.006  30.126  11.082
58115W        W24898  17.050  10.671  14.041
58116W        W24899  14.731  21.730   3.349
58117W        W24900  24.503  16.153  10.674
58118W        W24901  31.425   2.147  10.644
58119W        W24902  15.901  37.993  14.380
58120W        W24903  44.437  17.217   0.383
58121W        W24904  15.869  34.550   4.713
58122W        W24905   4.476  24.199  12.407
58123W        W24906  37.795   9.573  14.118
58124W        W24907   9.135   2.390  13.233
58125W        W24908  17.314  33.843  11.066
58126W        W24909   0.784  44.288  14.398
58127W        W24910   3.829   0.998   2.234
58128W        W24911  33.727  30.920  14.084
58129W        W24912   7.893  28.488   1.795
58130W        W24913  39.784  11.611  14.693
58131W        W24914  32.893  37.316  14.419
58132W        W24915  19.569  23.040   3.740
58133W        W24916  39.710   4.179  11.127
58134W        W24917  14.734   1.641   1.203
58135W        W24918   6.336  10.796   1.905
58136W        W24919  36.808   5.330   0.451
58137W        W24920   2.194  32.929  12.022
58138W        W24921  42.558  37.844   2.290
58139W        W24922   9.428  26.192   4.793
58140W        W24923   0.819   2.934  10.512
58141W        W24924  29.757  13.335  13.573
58142W        W24925  15.725  20.436   1.841
58143W        W24926  24.166  43.807   3.306
58144W        W24927  17.291   3.377   1.943
58145W        W24928  40.419  39.321  12.916
58146W        W24929  40.158   7.868  11.078
58147W        W24930  26.799  30.388  14.905
58148W        W24931   6.378  25.202  12.728
58149W        W24932  28.934  17.577  13.951
58150W        W24933   2.076  31.364   1.735
58151W        W24934  14.681  39.583  14.393
58152W        W24935  44.447  34.863  11.922
58153W        W24936  18.242  31.641  12.667
58154W        W24937  37.926  34.964  10.693
58155W        W24938  29.976  27.606  13.393
58156W        W24939  10.161  29.430  11.001
58157W        W24940  31.360  24.944   4.140
58158W        W24941  44.503  32.050  12.378
58159W        W24942   9.223  22.988  11.399
58160W        W24943   6.331   4.279   0.871
58161W        W24944   8.492  17.700  11.183
58162W        W24945  19.708  17.027   3.865
58163W        W24946   8.380   4.746   0.239
58164W        W24947  41.340  13.651   0.814
58165W        W24948  31.197  13.171  12.753
58166W        W24949   1.180  28.020   1.017
58167W        W24950  32.885  40.316  11.622
58168W        W24951  40.217   9.178   0.319
58169W        W24952  30.668   5.718  11.635
58170W        W24953  42.549  39.869   1.917
58171W        W24954  44.115   0.886   2.657
58172W        W24955   9.366  33.816  13.545
58173W        W24956  31.212  43.244  13.953
58174W        W24957  12.053  19.825   4.643
58175W        W24958   2.913  13.738  11.230
58176W        W24959  19.735  37.007   0.025
58177W        W24960  15.331  32.613   0.786
58178W        W24961  16.474   9.529   0.586
58179W        W24962   5.508  17.766  10.928
58180W        W24963  10.171   3.802   0.443
58181W        W24964  20.038  35.103   2.659
58182W        W24965  22.124  18.571  14.249
58183W        W24966  28.193  10.177  10.073
58184W        W24967  27.956  26.516  12.332
58185W        W24968  27.086   4.170   2.381
58186W        W24969  33.492  19.207   2.356
58187W        W24970  40.254  40.699  12.772
58188W        W24971   8.188  41.370   4.892
58189W        W24972  36.459   6.709  14.550
58190W        W24973  22.649  34.377   1.418
58191W        W24974  40.407  38.759   2.737
58192W        W24975  38.644  22.471  14.341
58193W        W24976  23.594  37.435   2.342
58194W        W24977  40.731  34.493  12.863
58195W        W24978   5.678  28.062  10.585
58196W        W24979  36.544  23.746   2.678
58197W        W24980  13.222  42.474   0.185
58198W        W24981  29.885  13.589  11.152
58199W        W24982  25.142   7.702   4.482
58200W        W24983  27.264  37.680   3.295
58201W        W24984   8.778  35.043  14.908
58202W        W24985  16.296  32.156  10.197
58203W        W24986  37.103  25.668  11.600
58204W        W24987  28.126  40.208   3.169
58205W        W24988  34.545  37.128   3.619
58206W        W24989  23.109  32.370  12.556
58207W        W24990   2.837  32.858   2.732
58208W        W24991   2.326  26.793   1.267
58209W        W24992  43.204  15.127   2.294
58210W        W24993  19.869  32.054   4.290
58211W        W24994  22.175  36.963   3.494
58212W        W24995  26.702  33.596   1.441
58213W        W24996  29.194  35.201  12.869
58214W        W24997  30.208  23.913   4.076
58215W        W24998  28.448   6.945  13.320
58216W        W24999  21.416  29.710  14.183
58217W        W25000  31.520  22.091   0.319
58218W        W25001  29.914   7.865  14.048
58219W        W25002   8.802  12.182  11.153
58220W        W25003  24.769  42.406   1.875
58221W        W25004  31.418  34.609   1.695
58222W        W25005   1.862   1.805   0.752
58223W        W25006   0.589  19.861  11.030
58224W        W25007  30.419  23.688   2.981
58225W        W25008  40.806  34.011  13.475
58226W        W25009  23.955  23.938  10.734
58227W        W25010   9.812  40.229  14.538
58228W        W25011  41.408   3.654  13.462
58229W        W25012  39.121   3.372  11.565
58230W        W25013  43.284  32.573   0.758
58231W        W25014   6.087  35.091   3.980
58232W        W25015  34.675  32.408   0.307
58233W        W25016  34.097  42.783   4.151
58234W        W25017   1.389  37.994  10.422
58235W        W25018  44.249  11.771   2.389
58236W        W25019  36.263  13.389  11.595
58237W        W25020  37.082  16.647   3.936
58238W        W25021   6.109  42.872   2.061
58239W        W25022  42.744   8.170  11.234
58240W        W25023  14.650  25.117   2.178
58241W        W25024  33.090  33.888   4.167
58242W        W25025  23.215   0.166   5.085
58243W        W25026  39.432   0.344  11.682
58244W        W25027  37.958   5.487   0.813
58245W        W25028   6.455  43.454  12.850
58246W        W25029  18.782  15.111  12.180
58247W        W25030  40.254  21.014   1.292
58248W        W25031  35.895   7.396  11.633
58249W        W25032  34.652  34.965  11.340
58250W        W25033  18.753  20.095  14.563
58251W        W25034  19.703  21.750  13.216
58252W        W25035  42.920   0.080   0.409
58253W        W25036   9.192  41.302   3.691
58254W        W25037  25.227   1.823  13.494
58255W        W25038  10.743  20.017  12.608
58256W        W25039   0.938  36.380   3.095
58257W        W25040  29.679  15.080  11.095
58258W        W25041  37.961  24.001   2.599
58259W        W25042  11.100   5.272   1.801
58260W        W25043  41.237  25.640   3.344
58261W        W25044  38.315  40.836  13.301
58262W        W25045  29.490   7.676   2.305
58263W        W25046   0.890  20.995   0.880
58264W        W25047  16.327  12.374   4.236
58265W        W25048   7.340   8.736  10.798
58266W        W25049  28.024  22.461   3.485
58267W        W25050  13.673  29.733  13.583
58268W        W25051  12.242  43.978  13.305
58269W        W25052  21.826  37.287   4.845
58270W        W25053   0.033   6.135  13.048
58271W        W25054  32.144  13.281   3.594
58272W        W25055  43.442   7.170   0.707
58273W        W25056  30.134  31.190  10.591
58274W        W25057  11.853  23.284  13.431
58275W        W25058  14.824  24.450  10.707
58276W        W25059  18.099   9.781  12.852
58277W        W25060  23.527  29.276   2.682
58278W        W25061  21.112  29.742   3.250
58279W        W25062  20.702   5.159  14.936
58280W        W25063   3.447  10.266   3.156
58281W        W25064  35.669  34.563   1.957
58282W        W25065  27.579  37.518   4.041
58283W        W25066   6.174  23.922  13.934
58284W        W25067  14.906  38.910  10.701
58285W        W25068  19.302   7.572   4.167
58286W        W25069  23.156  24.959  12.311
58287W        W25070  13.833  32.223   0.441
58288W        W25071   0.974  32.199   1.765
58289W        W25072  32.649  15.252   1.026
58290W        W25073  34.605  27.449  10.764
58291W        W25074   6.455  34.052   4.651
58292W        W25075  43.809  37.534  12.392
58293W        W25076  28.444  32.177  11.993
58294W        W25077  41.882  31.588  13.630
58295W        W25078  33.105   1.870  11.311
58296W        W25079  28.544  41.094  12.776
58297W        W25080  40.700  19.706   0.306
58298W        W25081  14.562  17.609   2.455
58299W        W25082  29.114  27.487  13.943
58300W        W25083  10.873  43.077   2.765
58301W        W25084  41.266  20.229   0.857
58302W        W25085  28.608   7.629  14.346
58303W        W25086  13.771  18.185  13.680
58304W        W25087   9.159   7.692   2.190
58305W        W25088  21.414  18.532   1.776
58306W        W25089   3.392  17.118  11.008
58307W        W25090  34.466   4.506   1.190
58308W        W25091   5.675  12.264  10.637
58309W        W25092  35.803   1.093   0.921
58310W        W25093  29.537  30.903   0.257
58311W        W25094  34.170   4.171   4.436
58312W        W25095   4.771   6.007  12.597
58313W        W25096  24.574  41.525  11.591
58314W        W25097  17.952  13.053  13.068
58315W        W25098  11.905  43.828  14.155
58316W        W25099  32.737  24.156  14.816
58317W        W25100  14.422  33.661   2.001
58318W        W25101  40.942  31.140   4.103
58319W        W25102   8.887  11.413   2.261
58320W        W25103  25.888  10.227  11.135
58321W        W25104  32.926   1.270   1.371
58322W        W25105  42.328  22.157   0.387
58323W        W25106  25.585  12.636   3.855
58324W        W25107  18.652  34.886  12.537
58325W        W25108  26.716  21.912   2.066
58326W        W25109  19.553  41.780   3.270
58327W        W25110   0.589   2.377   3.355
58328W        W25111   5.178   2.835  10.848
58329W        W25112  35.918   0.907  11.449
58330W        W25113  17.143  43.557  12.564
58331W        W25114  41.102  16.507   0.562
58332W        W25115  18.715  27.182   4.405
58333W        W25116  41.287  17.339  10.718
58334W        W25117  13.193  19.879  11.100
58335W        W25118   1.721  42.875   1.178
58336W        W25119  42.661  25.627  11.278
58337W        W25120   0.895  12.560   1.960
58338W        W25121  18.088  31.054  11.061
58339W        W25122  26.375  38.371   1.230
58340W        W25123  25.003  32.505  11.868
58341W        W25124  33.302  21.199   1.818
58342W        W25125  13.644  28.620  14.020
58343W        W25126  19.311  16.710   4.148
58344W        W25127   9.062  27.045   2.384
58345W        W25128  10.118  40.542   2.734
58346W        W25129  23.734  28.549   4.308
58347W        W25130  24.559  20.443  11.141
58348W        W25131  28.627   8.352   1.380
58349W        W25132  12.815   7.322   4.543
58350W        W25133  26.672   8.471  12.397
58351W        W25134  39.330  40.581  12.566
58352W        W25135  40.368   9.152   5.381
58353W        W25136   7.529  36.931  11.295
58354W        W25137  42.365   5.314  14.818
58355W        W25138  39.513   9.840  10.355
58356W        W25139  34.065  36.993   4.544
58357W        W25140  27.256   9.269   0.969
58358W        W25141  26.986   2.301  13.960
58359W        W25142  16.213  29.711   2.624
58360W        W25143   0.828  26.199   2.631
58361W        W25144  11.309   7.907  10.745
58362W        W25145  16.727  40.800  12.344
58363W        W25146  11.846  44.462   2.175
58364W        W25147  18.753   2.449  13.936
58365W        W25148  25.206  31.141  13.941
58366W        W25149  34.601   1.458  13.407
58367W        W25150  22.624  20.715   0.855
58368W        W25151  29.020  19.624   4.912
58369W        W25152  34.048  36.172  12.538
58370W        W25153  34.067  28.680   4.394
58371W        W25154  35.572  27.916   0.234
58372W        W25155   0.023  37.494  14.267
58373W        W25156  39.749  23.429   2.249
58374W        W25157   9.551  10.671   1.879
58375W        W25158  18.915  32.379  13.476
58376W        W25159   5.835  15.770  14.111
58377W        W25160  22.924  16.690  14.408
58378W        W25161   3.240  30.526   3.677
58379W        W25162  40.330  24.589   1.588
58380W        W25163  44.593   7.150   2.256
58381W        W25164  18.241  43.932   4.123
58382W        W25165  37.826  13.231   0.482
58383W        W25166   8.398  25.099   0.497
58384W        W25167  36.654  17.247   4.101
58385W        W25168  28.566   7.866  11.023
58386W        W25169   4.340  37.604   4.366
58387W        W25170  27.753  19.000   1.828
58388W        W25171  27.906  34.052  11.920
58389W        W25172  19.572  11.555   0.789
58390W        W25173  41.786   8.690  13.498
58391W        W25174  32.070  26.885   0.659
58392W        W25175   9.413  42.949   3.603
58393W        W25176   1.104  33.828  12.020
58394W        W25177  13.452  42.715  10.757
58395W        W25178  35.914   8.265  13.399
58396W        W25179  31.420   1.394   3.847
58397W        W25180   4.747   7.688  14.994
58398W        W25181  19.301  44.019  12.057
58399W        W25182  22.270  11.639  10.971
58400W        W25183  18.285   3.991   3.404
58401W        W25184   9.709   4.725   0.310
58402W        W25185  34.424  10.285  10.558
58403W        W25186   6.062   6.302   3.651
58404W        W25187  39.382   2.836   0.770
58405W        W25188  31.571  14.021  12.337
58406W        W25189  16.594  34.625  11.974
58407W        W25190  40.860   5.906  12.012
58408W        W25191  27.560   0.682  10.375
58409W        W25192  35.114  22.168   1.458
58410W        W25193  23.527   2.221  14.031
58411W        W25194  31.411  22.697   3.401
58412W        W25195  22.690  36.905  14.514
58413W        W25196  22.092  25.076  10.597
58414W        W25197  43.697   6.680   4.481
58415W        W25198  18.179  18.792   0.658
58416W        W25199  10.132   2.378  12.387
58417W        W25200   5.019  11.307  13.793
58418W        W25201  41.996  13.819  11.662
58419W        W25202  38.894  31.825   0.379
58420W        W25203   8.881  28.344  12.044
58421W        W25204   1.725  22.726  12.535
58422W        W25205  35.479   5.933   2.338
58423W        W25206   7.986  23.362   5.052
58424W        W25207  28.104  35.827   3.218
58425W        W25208  40.951  40.492   0.554
58426W        W25209   3.983  16.537  14.407
58427W        W25210   2.328   9.437   1.350
58428W        W25211   3.219   6.800  10.718
58429W        W25212   2.481  39.050   1.340
58430W        W25213  30.217  32.472   3.262
58431W        W25214  38.105  22.722   0.979
58432W        W25215  17.372  42.892   2.307
58433W        W25216  17.755  29.592  13.434
58434W        W25217   2.793  27.856  11.017
58435W        W25218  26.811  15.589   1.949
58436W        W25219   2.354  44.227   1.171
58437W        W25220  26.746   6.163   4.214
58438W        W25221  16.272  31.563   2.292
58439W        W25222  19.321  35.647   3.832
58440W        W25223  27.721   5.434  11.772
58441W        W25224  19.007  32.990   3.740
58442W        W25225  13.362  24.191   3.164
58443W        W25226  18.027  31.069  14.283
58444W        W25227  38.172   5.567   9.929
58445W        W25228  39.858  30.606   2.646
58446W        W25229   4.881  28.790  11.226
58447W        W25230  26.965  43.987  11.192
58448W        W25231  23.747  30.271   2.896
58449W        W25232  34.000  28.185   2.571
58450W        W25233  13.552  10.728   2.456
58451W        W25234  44.795  35.922  14.122
58452W        W25235  41.331  22.159  12.175
58453W        W25236   0.749  11.867  14.417
58454W        W25237   9.358  32.706  11.034
58455W        W25238  27.444  18.503  14.906
58456W        W25239  34.990  30.398   3.674
58457W        W25240  11.700   0.592   3.238
58458W        W25241  15.641  22.079  13.531
58459W        W25242  28.443   7.191  14.572
58460W        W25243   1.371  17.569  12.117
58461W        W25244  26.936   5.207  13.390
58462W        W25245  21.926  31.929   4.064
58463W        W25246  37.745   5.921  10.300
58464W        W25247  12.727   6.016  14.190
58465W        W25248  42.958  37.429  14.509
58466W        W25249  20.297  10.776  14.081
58467W        W25250   6.117  30.387   3.321
58468W        W25251  17.430  22.780  13.300
58469W        W25252  15.197  39.431  10.301
58470W        W25253  15.615  44.653   4.488
58471W        W25254  28.050  29.232   3.155
58472W        W25255  17.653  20.718  10.681
58473W        W25256  17.013  38.763   4.084
58474W        W25257  16.644   9.036  12.038
58475W        W25258  25.200  37.310   1.576
58476W        W25259  32.501  33.502   1.483
58477W        W25260  17.579  25.418   1.789
58478W        W25261  13.306  11.431  10.383
58479W        W25262  22.212  37.424   0.742
58480W        W25263  28.960  31.054  10.962
58481W        W25264  44.836  43.929   1.957
58482W        W25265  18.636  37.326  11.910
58483W        W25266  40.582  27.870  11.573
58484W        W25267   4.951  40.105   2.519
58485W        W25268  29.408   5.426   4.891
58486W        W25269  28.746  28.959  11.044
58487W        W25270   4.946  23.116  12.541
58488W        W25271  40.835   8.319   4.147
58489W        W25272  13.529  34.457   9.942
58490W        W25273  35.830  13.717   1.029
58491W        W25274  42.000  20.967  13.295
58492W        W25275  25.634   1.846  14.207
58493W        W25276  22.032  11.630   3.364
58494W        W25277   7.756  22.178   4.486
58495W        W25278  27.987  36.115  10.741
58496W        W25279  42.376  19.793  11.833
58497W        W25280   4.300  10.825   2.672
58498W        W25281  37.329   8.237  13.028
58499W        W25282  24.882   4.299  13.944
58500W        W25283  33.177  25.418   1.291
58501W        W25284  26.125  24.177   3.697
58502W        W25285   7.658  10.253   1.669
58503W        W25286  31.001  30.887   2.873
58504W        W25287  42.854  18.802  12.657
58505W        W25288  15.135  21.399  14.746
58506W        W25289  13.618  24.737  11.082
58507W        W25290  13.233  26.573  12.878
58508W        W25291  15.096   2.419   1.659
58509W        W25292   2.583  13.318  14.628
58510W        W25293  33.463  12.407   0.273
58511W        W25294  37.602  39.997   1.185
58512W        W25295  28.925  37.714  10.482
58513W        W25296  42.877  30.452   4.058
58514W        W25297  17.107   2.205   1.771
58515W        W25298  15.313  12.362  10.771
58516W        W25299  32.907  26.808  10.433
58517W        W25300   2.270  39.085  13.100
58518W        W25301  13.326   7.697  11.534
58519W        W25302  40.541  12.875   0.970
58520W        W25303  15.349   8.688  11.281
58521W        W25304  28.726  19.051  14.836
58522W        W25305  35.664   7.683   2.255
58523W        W25306   7.024  19.053   4.389
58524W        W25307  44.361  19.278   0.460
58525W        W25308  10.292   0.236  14.054
58526W        W25309   9.837  17.691  10.493
58527W        W25310  31.463  44.284   0.910
58528W        W25311   7.467  15.731  11.919
58529W        W25312  16.199  29.163   2.548
58530W        W25313  29.601   0.429  12.863
58531W        W25314  15.767  12.581  11.153
58532W        W25315  36.959  10.644  11.020
58533W        W25316  21.224   1.835   0.831
58534W        W25317  14.229  23.784  11.080
58535W        W25318  38.813   2.913  11.536
58536W        W25319  19.695  20.079  11.618
58537W        W25320  24.219   6.405   3.223
58538W        W25321   6.865   4.910  10.717
58539W        W25322  38.958  15.248   0.302
58540W        W25323  27.486   8.704  11.797
58541W        W25324  30.087  38.613  14.890
58542W        W25325  39.898   6.761  11.905
58543W        W25326  26.196  41.491  14.069
58544W        W25327  16.091   9.884   4.506
58545W        W25328  44.761  31.725   4.113
58546W        W25329  13.681  44.347  12.517
58547W        W25330   5.125  39.504  12.502
58548W        W25331  30.995  17.258   3.153
58549W        W25332  24.669   0.353   4.573
58550W        W25333  27.358  25.404   0.355
58551W        W25334  31.614  28.169   2.802
58552W        W25335  36.419  17.880  13.432
58553W        W25336  31.552  43.911   3.289
58554W        W25337  17.221  30.359  11.163
58555W        W25338  38.994  32.550  10.990
58556W        W25339   5.748   0.451   0.179
58557W        W25340  10.207  34.049   2.265
58558W        W25341  10.768  15.306   1.014
58559W        W25342  10.235   9.356  12.117
58560W        W25343  26.680  38.612  14.921
58561W        W25344  24.525  12.086   1.274
58562W        W25345  37.947  22.259   0.739
58563W        W25346  25.753   8.303  13.864
58564W        W25347   1.067   6.728  10.682
58565W        W25348   0.457  16.336   2.087
58566W        W25349  33.711  28.685   0.375
58567W        W25350  22.730  35.135  11.691
58568W        W25351  11.912  42.363   4.046
58569W        W25352  40.427  17.331   5.128
58570W        W25353  20.017  31.901   0.748
58571W        W25354  36.107  19.381  12.434
58572W        W25355  28.402   0.898  13.031
58573W        W25356  23.639   8.662  10.557
58574W        W25357  10.350   2.852  11.539
58575W        W25358   3.424  27.229   4.173
58576W        W25359  24.650  37.546   3.636
58577W        W25360  26.706  26.002  12.467
58578W        W25361  24.129  27.142   4.700
58579W        W25362  34.474  27.573  11.496
58580W        W25363   5.870   7.213   0.246
58581W        W25364  36.443  39.464  14.940
58582W        W25365  22.243  34.003  12.067
58583W        W25366   7.742   9.338   4.049
58584W        W25367  44.332  20.290  14.082
58585W        W25368  29.213  18.435  11.981
58586W        W25369  42.001  34.561  14.939
58587W        W25370  14.384   8.834  12.832
58588W        W25371  13.694  21.913   0.100
58589W        W25372  44.493  28.711  10.926
58590W        W25373  30.924  30.913   3.386
58591W        W25374  40.481  41.028   1.155
58592W        W25375  41.163  23.489  14.364
58593W        W25376  13.024   8.722  10.009
58594W        W25377   3.368  27.033   2.235
58595W        W25378   8.596   5.908   3.516
58596W        W25379  44.223  30.960  11.974
58597W        W25380  18.308  17.977   2.640
58598W        W25381  21.129  17.138  10.625
58599W        W25382  21.427  10.803   1.784
58600W        W25383  32.367  16.314   3.668
58601W        W25384   2.938  20.253  11.534
58602W        W25385   3.768  31.673   2.861
58603W        W25386  26.081  28.018   1.746
58604W        W25387   4.245   8.830  14.782
58605W        W25388  11.823   7.967   3.172
58606W        W25389  26.065  12.493  12.576
58607W        W25390  37.029   0.280   3.581
58608W        W25391  39.905  39.446   3.628
58609W        W25392  36.102  11.564   2.223
58610W        W25393  25.053  10.253   4.631
58611W        W25394  20.176  42.018  13.485
58612W        W25395  31.880  10.825   1.315
58613W        W25396   4.780  34.110   2.237
58614W        W25397  15.053  23.180   2.782
58615W        W25398   8.921  42.607  12.533
58616W        W25399  40.019  37.920   0.248
58617W        W25400  31.552  41.960   1.600
58618W        W25401   6.825  27.734  11.612
58619W        W25402  12.515  38.697   1.615
58620W        W25403   1.922   2.228   1.702
58621W        W25404   1.528  22.164  14.809
58622W        W25405   5.984  24.967   0.913
58623W        W25406  22.460  29.292   4.384
58624W        W25407  33.569   3.974   0.967
58625W        W25408  12.950  40.975   2.149
58626W        W25409  27.602  31.817   3.645
58627W        W25410  12.221  28.579  10.767
58628W        W25411  32.321  15.818   3.299
58629W        W25412  15.224  25.180   0.886
58630W        W25413   7.845  36.067  13.888
58631W        W25414  24.033   5.331   0.696
58632W        W25415  16.752  42.251   3.231
58633W        W25416  26.593  30.153   4.715
58634W        W25417  15.752  31.494   1.688
58635W        W25418  13.638  27.624  11.143
58636W        W25419  43.078  37.458   1.697
58637W        W25420  13.799   7.491  12.764
58638W        W25421  13.916   3.055   1.935
58639W        W25422  13.568  44.684  14.281
58640W        W25423  23.256  14.160   1.923
58641W        W25424   1.787   8.903  10.785
58642W        W25425  15.992   8.738  13.699
58643W        W25426   8.218  40.362  14.907
58644W        W25427   4.763  32.590  13.177
58645W        W25428  40.143   0.549   5.178
58646W        W25429  24.510  32.257   1.168
58647W        W25430  16.623   4.871  11.761
58648W        W25431  27.369   3.284   0.803
58649W        W25432  19.383  21.028  11.189
58650W        W25433  13.604   8.708  12.389
58651W        W25434  32.046  13.542   0.742
58652W        W25435   8.847  20.056  13.075
58653W        W25436  24.546   9.879  14.879
58654W        W25437  44.286  32.092  14.310
58655W        W25438  38.489  14.215   2.628
58656W        W25439   2.930   7.414  14.911
58657W        W25440  10.824  10.762   0.474
58658W        W25441  32.107  21.412   1.876
58659W        W25442  23.100  14.317   3.330
58660W        W25443  31.141  26.393   3.370
58661W        W25444  24.302  19.600  11.478
58662W        W25445  26.852  41.522   5.558
58663W        W25446  41.513  25.331  14.215
58664W        W25447   0.780  21.325   3.996
58665W        W25448   9.731   3.417  14.931
58666W        W25449  17.439  41.763  12.564
58667W        W25450  17.182  38.777   2.695
58668W        W25451  43.153  36.114   3.175
58669W        W25452  23.246  33.750   4.799
58670W        W25453  15.807  34.776  13.045
58671W        W25454  17.167  24.717  13.857
58672W        W25455  31.712  24.523  13.020
58673W        W25456  34.213  17.313  14.074
58674W        W25457   0.890  16.101  13.892
58675W        W25458  29.090  44.702  11.138
58676W        W25459  24.292  18.340  11.567
58677W        W25460  32.608  37.096  12.963
58678W        W25461  43.253  29.062  11.151
58679W        W25462   7.436  13.150   1.661
58680W        W25463  15.239  31.872   1.434
58681W        W25464  14.353  24.258  11.172
58682W        W25465  17.311   6.240  12.938
58683W        W25466  17.753  40.428  10.754
58684W        W25467  19.982  28.157  12.226
58685W        W25468  31.117  13.867  11.547
58686W        W25469  20.262   0.323   1.301
58687W        W25470  11.569  11.677  13.936
58688W        W25471  13.085  39.033  11.700
58689W        W25472  29.437  44.850   4.371
58690W        W25473   8.615  39.213   2.126
58691W        W25474  11.863  15.293   2.701
58692W        W25475  33.293  43.402  12.007
58693W        W25476  43.997  12.735   4.976
58694W        W25477  41.061  12.026   4.051
58695W        W25478  32.091  22.589  14.413
58696W        W25479  18.644  16.105   1.263
58697W        W25480   3.358   2.204  10.732
58698W        W25481  38.091  28.907  11.517
58699W        W25482  42.361  40.107  11.093
58700W        W25483  38.618  37.906  10.914
58701W        W25484   5.692  36.117   0.381
58702W        W25485  35.578  34.175   1.266
58703W        W25486   4.787  24.021  14.043
58704W        W25487   1.388   1.277   4.618
58705W        W25488  11.704  23.535   1.954
58706W        W25489  11.100   2.283  11.510
58707W        W25490  20.981  33.654  13.920
58708W        W25491  23.680  33.034   4.941
58709W        W25492  10.090  42.180   4.630
58710W        W25493  39.802  40.747  12.579
58711W        W25494  25.220  10.799   0.584
58712W        W25495  12.537  41.056  10.814
58713W        W25496  24.691  35.064  11.140
58714W        W25497   8.299   2.201  11.151
58715W        W25498  24.050  39.404   2.266
58716W        W25499   8.158  32.595  13.146
58717W        W25500  24.098  36.211  11.194
58718W        W25501   1.258  15.195  11.892
58719W        W25502  42.028   3.505   9.968
58720W        W25503   2.464   3.976   0.031
58721W        W25504  20.113  38.293   0.032
58722W        W25505   2.491   3.185   0.338
58723W        W25506  15.308   6.802   1.942
58724W        W25507  12.048   7.217  12.374
58725W        W25508  21.078  13.645   3.189
58726W        W25509  31.978  38.813  11.031
58727W        W25510  36.409  26.773  10.342
58728W        W25511  41.998  38.519  12.439
58729W        W25512   0.950  28.963  12.950
58730W        W25513   6.238  15.137  13.514
58731W        W25514  16.508  21.951   4.603
58732W        W25515  27.556  27.763  11.631
58733W        W25516   0.472  34.841   1.299
58734W        W25517   8.647  24.927   0.941
58735W        W25518  24.621  31.024   3.786
58736W        W25519  39.465  19.715  13.879
58737W        W25520   5.685  10.970  11.573
58738W        W25521  27.648  20.522   4.701
58739W        W25522  13.475  41.000  14.360
58740W        W25523   7.140  20.013  11.555
58741W        W25524  17.953  25.079   4.481
58742W        W25525   2.093  19.788  12.548
58743W        W25526  13.726   6.035  13.390
58744W        W25527  34.483  13.349  11.761
58745W        W25528  44.377  37.300   1.256
58746W        W25529  16.871  18.079  13.441
58747W        W25530  12.379  19.050  12.000
58748W        W25531   1.048  18.743  11.470
58749W        W25532  11.701  16.000   0.334
58750W        W25533  16.871  34.952  14.413
58751W        W25534   5.438  21.053   3.907
58752W        W25535  29.111  31.144  13.552
58753W        W25536  14.676   4.975  11.571
58754W        W25537  21.058  38.758   3.671
58755W        W25538  17.704  33.365  13.777
58756W        W25539  31.171  24.160  12.499
58757W        W25540  35.923  20.615   4.775
58758W        W25541   6.627  41.932  13.569
58759W        W25542  13.345  32.850   0.879
58760W        W25543  15.995   1.325  14.649
58761W        W25544  10.981  19.256   2.286
58762W        W25545   5.422  37.603  11.000
58763W        W25546   2.707   3.033  12.070
58764W        W25547  42.193  13.150   2.217
58765W        W25548   7.723  44.753   4.842
58766W        W25549  17.407  28.744   3.187
58767W        W25550   2.805   3.985   1.395
58768W        W25551  25.345  43.864   0.820
58769W        W25552  37.351  23.208   0.739
58770W        W25553  40.820  23.599   1.765
58771W        W25554  13.812  26.930  14.869
58772W        W25555  26.872   8.608   1.419
58773W        W25556  28.919  36.171   2.197
58774W        W25557  15.846  43.040   0.429
58775W        W25558  28.108  37.849  13.969
58776W        W25559  24.130  35.931   1.980
58777W        W25560  15.022   2.459  11.566
58778W        W25561  36.136  36.337   3.782
58779W        W25562  22.239  21.705  13.370
58780W        W25563  31.511  15.042  14.376
58781W        W25564  10.860  29.651   2.198
58782W        W25565  44.916  36.579   2.349
58783W        W25566  14.439  44.989  11.601
58784W        W25567  39.401   4.271   4.495
58785W        W25568  35.375  39.507  10.674
58786W        W25569  10.490  41.068   0.289
58787W        W25570   0.233  30.121  14.467
58788W        W25571  10.098  25.250   5.161
58789W        W25572  11.743  42.636  10.959
58790W        W25573  37.006  24.113   2.337
58791W        W25574   1.317  23.123   2.676
58792W        W25575   1.327   5.634  14.836
58793W        W25576  31.933  35.308   4.454
58794W        W25577   9.196  29.575   3.176
58795W        W25578  20.124   6.283   0.145
58796W        W25579  35.955  10.599  13.046
58797W        W25580  30.618   9.200   4.556
58798W        W25581  19.022   8.803  14.927
58799W        W25582  31.947  17.243  12.381
58800W        W25583  30.980  23.127  13.867
58801W        W25584  26.145  26.433   3.386
58802W        W25585  24.376  32.768  11.131
58803W        W25586  23.545  35.440   2.844
58804W        W25587  32.142  42.935  14.920
58805W        W25588  25.519  11.906  14.409
58806W        W25589   5.690   0.830  11.559
58807W        W25590  19.543   5.489   0.651
58808W        W25591  30.556  28.252  14.575
58809W        W25592  37.997  14.049  13.604
58810W        W25593   0.755  11.671  14.898
58811W        W25594  22.765  12.243  13.873
58812W        W25595  13.850  20.787   0.828
58813W        W25596  12.900  20.687  14.202
58814W        W25597  17.790  35.876   4.082
58815W        W25598  18.231  35.487  11.082
58816W        W25599  37.317   0.856  11.391
58817W        W25600  20.261  25.110   0.475
58818W        W25601  13.348  18.713   4.456
58819W        W25602  26.938  19.716   1.162
58820W        W25603  38.865  23.506   2.166
58821W        W25604  16.797   1.936  11.701
58822W        W25605  20.137   1.317   4.062
58823W        W25606   4.346  31.578   3.629
58824W        W25607  29.862   2.263  14.011
58825W        W25608  29.880  16.170  13.335
58826W        W25609  37.551   1.485   0.393
58827W        W25610  22.378  41.871   0.542
58828W        W25611  27.401  11.782  11.005
58829W        W25612  14.262   7.511   2.201
58830W        W25613  39.607  32.346  14.531
58831W        W25614  27.119  20.226  13.331
58832W        W25615  18.766  22.544  10.715
58833W        W25616  22.404   3.552   1.314
58834W        W25617  39.459  17.527   2.985
58835W        W25618  12.012  42.243   3.057
58836W        W25619  43.947   2.000  11.885
58837W        W25620   3.661   3.104   1.854
58838W        W25621   6.186  25.523   4.626
58839W        W25622  14.324   6.244  14.320
58840W        W25623  22.120  29.435  13.295
58841W        W25624   3.081  13.304   1.101
58842W        W25625  25.735  42.480   1.568
58843W        W25626  32.965   0.703   1.221
58844W        W25627  38.116  36.269  12.960
58845W        W25628  33.500  10.715  13.773
58846W        W25629  26.627  25.219   1.217
58847W        W25630  10.382  40.975   2.585
58848W        W25631  15.116  20.026  10.624
58849W        W25632  16.071  36.639   0.740
58850W        W25633  25.247   5.661  13.911
58851W        W25634  27.164  19.469   2.192
58852W        W25635  44.355   7.184   3.578
58853W        W25636  30.120  31.194  14.337
58854W        W25637  30.264   2.165   1.275
58855W        W25638  14.608  36.105  14.341
58856W        W25639   2.229  17.742  10.623
58857W        W25640  22.557  11.752  12.137
58858W        W25641  42.679  44.043   4.294
58859W        W25642  39.065  39.413  13.429
58860W        W25643   9.278  17.639   4.451
58861W        W25644  15.596  39.274   2.732
58862W        W25645  39.766   9.700   3.322
58863W        W25646  34.888  16.181  12.836
58864W        W25647  25.573  44.770  13.465
58865W        W25648  34.846   3.237   0.969
58866W        W25649  36.352  33.516  12.524
58867W        W25650   1.250  24.924   3.162
58868W        W25651  35.067   8.237  10.601
58869W        W25652  10.380  21.847  13.414
58870W        W25653  34.068   4.397  11.210
58871W        W25654  40.926  11.598  12.923
58872W        W25655  14.091  35.142  13.431
58873W        W25656  22.704  34.142   3.794
58874W        W25657   5.425  16.851  10.762
58875W        W25658  15.278  17.006  12.361
58876W        W25659   4.385  40.899  11.146
58877W        W25660  18.984  24.761  12.086
58878W        W25661   2.998  31.193   3.122
58879W        W25662  31.568  15.360  13.945
58880W        W25663  25.120   5.913   0.019
58881W        W25664  41.933  10.340   3.384
58882W        W25665  31.060   1.689   0.345
58883W        W25666  36.520  40.813   1.432
58884W        W25667   5.717   9.506  12.577
58885W        W25668   2.205  35.451  14.302
58886W        W25669  42.285  26.125  12.370
58887W        W25670  16.633  24.216  12.716
58888W        W25671   8.432  17.873  10.709
58889W        W25672  24.541  34.414   3.641
58890W        W25673  30.117  31.718  14.343
58891W        W25674  37.351  43.280   3.547
58892W        W25675  16.087  34.780  14.271
58893W        W25676  11.600  29.022  13.421
58894W        W25677  42.714   5.346   2.817
58895W        W25678  44.123  20.490  12.855
58896W        W25679  26.739  34.926   0.427
58897W        W25680  19.026  20.492   4.690
58898W        W25681  10.327  44.303   3.189
58899W        W25682  38.923  27.614   3.780
58900W        W25683  36.370  25.215  11.998
58901W        W25684  29.638  40.327  13.596
58902W        W25685  32.618  31.912  12.077
58903W        W25686  23.582  14.555   1.672
58904W        W25687   5.507   5.071   4.170
58905W        W25688  19.216  35.395   2.919
58906W        W25689  19.134  14.662  14.071
58907W        W25690  18.422  37.820  10.746
58908W        W25691  10.719  17.815   4.469
58909W        W25692   0.573  34.819  13.377
58910W        W25693  41.246  13.367   2.194
58911W        W25694  17.290  42.358  11.104
58912W        W25695  34.625  36.582   0.570
58913W        W25696  27.973  17.132  11.164
58914W        W25697  11.544  26.382   4.067
58915W        W25698  28.731   1.405   2.683
58916W        W25699  22.732  40.346  12.663
58917W        W25700  24.273  28.440   0.698
58918W        W25701   2.820  11.433  10.436
58919W        W25702  13.636  14.185  13.493
58920W        W25703  10.659  43.941  10.380
58921W        W25704  22.924   0.248   4.221
58922W        W25705  12.976  14.038   0.909
58923W        W25706  23.596  21.122  12.306
58924W        W25707  38.721  41.075   5.029
58925W        W25708  32.617  26.736   1.425
58926W        W25709   5.706  26.325   3.733
58927W        W25710  11.381   9.909   3.605
58928W        W25711  18.584  42.806   2.628
58929W        W25712   5.974  22.111   4.687
58930W        W25713  41.147  14.871  11.535
58931W        W25714   6.499  20.513  12.838
58932W        W25715  12.253   9.378  13.489
58933W        W25716   3.995   3.498   1.717
58934W        W25717  18.742  33.655   1.802
58935W        W25718   4.750   9.176   3.613
58936W        W25719  40.884  20.208   1.461
58937W        W25720  17.734  43.522  11.524
58938W        W25721  23.942  29.176   2.353
58939W        W25722  16.542  28.694  11.226
58940W        W25723  36.961  25.613   2.103
58941W        W25724   6.810  15.788   2.208
58942W        W25725  43.105  44.712  11.647
58943W        W25726   2.526  15.323   0.776
58944W        W25727  14.950  42.407   1.340
58945W        W25728  44.302  14.267   0.604
58946W        W25729  18.224  31.050   3.259
58947W        W25730   1.773  24.111  11.668
58948W        W25731  23.254  36.784  11.803
58949W        W25732   8.590  15.563   1.701
58950W        W25733  40.993   5.865   4.496
58951W        W25734  44.931   7.862  13.829
58952W        W25735  11.766   3.220  12.468
58953W        W25736  35.041  20.676   1.278
58954W        W25737  24.449  12.033  12.523
58955W        W25738  19.294  30.908   1.911
58956W        W25739  16.125   3.647  11.661
58957W        W25740  10.458   5.858   1.921
58958W        W25741   1.285  13.185  11.080
58959W        W25742  37.086  42.499  14.373
58960W        W25743  20.093  40.482  10.812
58961W        W25744  13.413  22.609  12.855
58962W        W25745   9.177  13.632   4.582
58963W        W25746  26.015  10.862  13.080
58964W        W25747   7.637   0.471   0.646
58965W        W25748  40.217  41.631  11.939
58966W        W25749   2.462  14.689   4.257
58967W        W25750   5.367   5.387  11.444
58968W        W25751  20.594  42.077   4.134
58969W        W25752  42.051  16.310   1.748
58970W        W25753  30.137  30.686  14.343
58971W        W25754  21.482  18.052  14.675
58972W        W25755   0.803  29.874   3.373
58973W        W25756  38.441   9.304  14.840
58974W        W25757  39.990   6.004  13.838
58975W        W25758  14.072  43.002  12.060
58976W        W25759  40.047  23.854   4.202
58977W        W25760  42.072  14.097  12.103
58978W        W25761  19.234  16.526   2.827
58979W        W25762   0.903  26.358   4.876
58980W        W25763  19.284   7.413  12.542
58981W        W25764  27.125  17.178  14.814
58982W        W25765  24.483  25.864   4.068
58983W        W25766  14.329  25.502  11.938
58984W        W25767  44.448  11.712  13.880
58985W        W25768  13.848  24.053   1.777
58986W        W25769   2.377  29.202   2.224
58987W        W25770  30.943  25.537   2.722
58988W        W25771  26.583   6.341   1.551
58989W        W25772  17.698  14.799   3.252
58990W        W25773  19.184   1.938  10.734
58991W        W25774   9.174  30.547   1.610
58992W        W25775   9.791  15.105   1.442
58993W        W25776   0.921  26.462   0.370
58994W        W25777  12.101  32.181  11.286
58995W        W25778  40.863  14.618  14.399
58996W        W25779  30.962  22.477   4.714
58997W        W25780  31.672  17.556   2.460
58998W        W25781  16.780  28.672   0.464
58999W        W25782   0.010  17.778   0.012
59000W        W25783  30.346  27.591  12.395
59001W        W25784  41.957   5.176  14.515
59002W        W25785  19.201   6.792  10.930
59003W        W25786  14.074  26.279   0.890
59004W        W25787  27.540   2.078   1.833
59005W        W25788  19.290   4.959  14.343
59006W        W25789  22.350   6.878   3.785
59007W        W25790   0.045   0.012  12.035
59008W        W25791  40.556  27.511  13.418
59009W        W25792  13.102  24.749  11.074
59010W        W25793  22.187   2.380   1.415
59011W        W25794  40.573  44.497  12.161
59012W        W25795  31.401   2.493  13.451
59013W        W25796  21.014   6.420  13.518
59014W        W25797  44.366   6.818  14.502
59015W        W25798  26.955   9.447  13.436
59016W        W25799  23.966   1.461   0.933
59017W        W25800  15.711   0.106   3.115
59018W        W25801  33.395  22.279   4.970
59019W        W25802  10.825  11.419  11.555
59020W        W25803  23.635  10.681   4.259
59021W        W25804  18.227  24.649   2.738
59022W        W25805  16.528  25.621  14.932
59023W        W25806  33.874  13.670  12.768
59024W        W25807  27.734   7.269   0.847
59025W        W25808  20.144  32.554   0.522
59026W        W25809  44.930  38.557  11.029
59027W        W25810  12.343  22.524  10.947
59028W        W25811   1.901   4.882   1.942
59029W        W25812  14.240  34.497  11.081
59030W        W25813   7.102  14.182  10.517
59031W        W25814  11.238  36.625  11.486
59032W        W25815   1.109  20.497   3.694
59033W        W25816   0.420  32.502  12.985
59034W        W25817  10.257  34.479  13.454
59035W        W25818  30.665  34.430   3.455
59036W        W25819  15.460  31.933   2.402
59037W        W25820  37.430  11.197   2.217
59038W        W25821  28.599  28.149   4.444
59039W        W25822   0.801  20.709  10.038
59040W        W25823  19.402  43.222  13.901
59041W        W25824  11.360   7.100  13.530
59042W        W25825  24.100  29.292  13.690
59043W        W25826  12.056  37.470  14.037
59044W        W25827   7.769   3.300  12.863
59045W        W25828   5.834   2.012  14.920
59046W        W25829  16.330  21.029   2.718
59047W        W25830  12.501   6.569   4.953
59048W        W25831  42.733  36.368  12.038
59049W        W25832  13.272  41.272   1.257
59050W        W25833  43.102  38.296  11.150
59051W        W25834  33.192  13.924   2.794
59052W        W25835  20.596  38.814   0.392
59053W        W25836   7.223  32.474   0.417
59054W        W25837  20.191   0.323  11.521
59055W        W25838   1.921  33.322   1.432
59056W        W25839  35.295  26.011   3.313
59057W        W25840   5.642  11.172   1.237
59058W        W25841  31.962  24.687   1.893
59059W        W25842  41.246  44.691  12.765
59060W        W25843  12.110  37.499  14.573
59061W        W25844  21.129   6.287   1.177
59062W        W25845  17.636  32.912  12.096
59063W        W25846  43.843  15.767  10.832
59064W        W25847  16.312  13.761  14.092
59065W        W25848  10.201  44.277   1.390
59066W        W25849  43.439  22.443   2.733
59067W        W25850  27.321  14.027   5.012
59068W        W25851  40.787  24.029   4.585
59069W        W25852  39.890  44.538   1.477
59070W        W25853  29.648  31.422   3.338
59071W        W25854  39.825   3.633   1.333
59072W        W25855   7.642  20.081   1.633
59073W        W25856  17.958  39.772   4.133
59074W        W25857  20.923  39.429   3.321
59075W        W25858  14.547   7.846  14.449
59076W        W25859   7.072  29.775  11.391
59077W        W25860  12.465   4.151  11.984
59078W        W25861  15.178  26.008   0.011
59079W        W25862  40.055   2.778  12.276
59080W        W25863  41.687  22.808  12.396
59081W        W25864  21.359  22.415   3.973
59082W        W25865  41.447  15.726  11.689
59083W        W25866  25.252   9.186   4.494
59084W        W25867  35.563  29.983  11.117
59085W        W25868  42.213  26.629  12.424
59086W        W25869  39.988  15.357   3.904
59087W        W25870  31.500   2.329   0.848
59088W        W25871  16.836  18.348   1.327
59089W        W25872  10.679  22.568   1.156
59090W        W25873  31.966  26.747  11.037
59091W        W25874  30.381  25.025   0.479
59092W        W25875  20.237  23.723   4.603
59093W        W25876  38.468  36.313   3.211
59094W        W25877  20.480  21.587  10.880
59095W        W25878  19.969  40.402   2.367
59096W        W25879   2.775  43.436   3.317
59097W        W25880  18.077   2.427   1.411
59098W        W25881  19.197  27.987  12.058
59099W        W25882   1.428   3.337   2.172
59100W        W25883  17.776  43.547   3.704
59101W        W25884   4.507  24.268   1.840
59102W        W25885   3.910  35.452  10.800
59103W        W25886  12.635  14.902   1.514
59104W        W25887  25.006  14.621  13.313
59105W        W25888  32.012  34.404  11.642
59106W        W25889   6.753   4.536  11.115
59107W        W25890  15.149  37.574   0.272
59108W        W25891  23.534  13.129   1.391
59109W        W25892  43.541  17.694  14.744
59110W        W25893  11.667  29.953   1.350
59111W        W25894  29.344  37.400  10.552
59112W        W25895  32.627  10.288  12.924
59113W        W25896  20.495  35.169   3.348
59114W        W25897  16.709  18.303   4.177
59115W        W25898   5.976  29.328   1.799
59116W        W25899  41.567  18.169  12.548
59117W        W25900  39.975  27.166   4.324
59118W        W25901  38.602  28.120   0.408
59119W        W25902  12.674  35.386  12.491
59120W        W25903   7.682  14.340   2.709
59121W        W25904  13.748  34.787  14.601
59122W        W25905  38.783   9.804  13.958
59123W        W25906  35.260  15.823  14.955
59124W        W25907  18.343  38.263   4.094
59125W        W25908  44.125  21.871   0.874
59126W        W25909   7.898   8.604  12.615
59127W        W25910  17.437  37.780   2.363
59128W        W25911  23.044   2.742   1.800
59129W        W25912  35.011   2.710  14.686
59130W        W25913  24.285  12.805   1.377
59131W        W25914   3.703   0.994   0.872
59132W        W25915   7.697  33.910  11.557
59133W        W25916  10.806  42.815   0.009
59134W        W25917  36.213  27.678  14.373
59135W        W25918  10.869   4.395   4.191
59136W        W25919   6.425   0.361   2.772
59137W        W25920  22.619  16.260  14.449
59138W        W25921  13.128  12.838   1.044
59139W        W25922  42.029   4.650  10.953
59140W        W25923  41.751  20.189   2.146
59141W        W25924  32.944   6.204   4.043
59142W        W25925  20.208   0.887   4.380
59143W        W25926  36.762  30.612  11.675
59144W        W25927  19.447  14.064   2.290
59145W        W25928   9.905  15.720   2.291
59146W        W25929  18.518  35.274   4.083
59147W        W25930   7.853  25.527  10.648
59148W        W25931  10.696  26.851   1.281
59149W        W25932  21.803  40.409   0.545
59150W        W25933   0.847  44.024   0.110
59151W        W25934   1.378  27.130   3.620
59152W        W25935  24.029   6.623   2.795
59153W        W25936  37.828  20.589  12.081
59154W        W25937  17.065  35.878  14.962
59155W        W25938  37.946  33.198  13.305
59156W        W25939  27.058  32.130  14.239
59157W        W25940  22.151  28.818   4.281
59158W        W25941  28.907  14.526   2.173
59159W        W25942   8.201  37.539  10.721
59160W        W25943  25.163  19.544   1.909
59161W        W25944  19.802  34.552  14.488
59162W        W25945   5.420  37.395   0.404
59163W        W25946   5.766  18.547  14.979
59164W        W25947  33.189  30.854  13.402
59165W        W25948  24.385  12.224   2.806
59166W        W25949  17.348  36.410  11.544
59167W        W25950  17.053  18.091   0.920
59168W        W25951  21.134  22.514  14.115
59169W        W25952  43.917   9.744  13.356
59170W        W25953  39.211  42.823  11.513
59171W        W25954   5.967  32.197  13.209
59172W        W25955  18.550  41.451   4.106
59173W        W25956   6.393  37.029   3.714
59174W        W25957  25.858  16.115  12.083
59175W        W25958   0.502  32.471   2.376
59176W        W25959  15.992  13.644   4.856
59177W        W25960   7.759  20.244  14.767
59178W        W25961  42.818  29.870   0.863
59179W        W25962   1.671  20.981  12.406
59180W        W25963   3.615  24.066  12.152
59181W        W25964   6.543   1.848   3.107
59182W        W25965  37.468  14.056   3.735
59183W        W25966  17.190   2.364  10.557
59184W        W25967   4.755  23.046  13.606
59185W        W25968  12.062  41.901   0.800
59186W        W25969  12.602  18.694  14.997
59187W        W25970  20.791   2.296   3.786
59188W        W25971   7.509  26.501   0.720
59189W        W25972  20.195   8.695  12.414
59190W        W25973  13.312  40.003   2.312
59191W        W25974  32.074   4.120   4.172
59192W        W25975   6.797   5.180  14.833
59193W        W25976  11.497  42.461   1.598
59194W        W25977   8.267   8.848  13.375
59195W        W25978   1.897  25.649  10.750
59196W        W25979  25.973  18.630   4.358
59197W        W25980   0.368  15.311  12.026
59198W        W25981  12.794  29.692   3.722
59199W        W25982  42.331  39.183   2.853
59200W        W25983  37.463  32.667  11.602
59201W        W25984  23.467   0.311  10.467
59202W        W25985  28.707  12.913  14.490
59203W        W25986  36.108  28.116   4.558
59204W        W25987  28.883  26.713  13.516
59205W        W25988   0.434  39.410  14.942
59206W        W25989  35.373  40.071  11.660
59207W        W25990  40.409  20.159   3.300
59208W        W25991  31.706  27.169  10.844
59209W        W25992  34.175   0.961  12.057
59210W        W25993  25.263  21.017   2.902
59211W        W25994  22.194  39.387   2.422
59212W        W25995  19.272  12.763  12.025
59213W        W25996  16.216  35.814   1.868
59214W        W25997  20.869  17.044   3.030
59215W        W25998  43.836  25.591   2.603
59216W        W25999  32.704  30.055  11.959
59217W        W26000  40.785  44.511  13.961
59218W        W26001  36.012  37.810   2.750
59219W        W26002  36.792   2.508  13.472
59220W        W26003   2.668   2.533   4.211
59221W        W26004  40.270  17.240   1.388
59222W        W26005  14.046  42.411   0.167
59223W        W26006  38.244  39.256   0.398
59224W        W26007  31.452  41.270   0.002
59225W        W26008   3.722  20.076   1.712
59226W        W26009  31.100  28.918  14.775
59227W        W26010   8.641  42.871  13.732
59228W        W26011   9.009  35.056   4.186
59229W        W26012   2.784  41.748  12.999
59230W        W26013   6.709   6.939   0.239
59231W        W26014  19.627  32.936   3.690
59232W        W26015  22.737  21.731  14.995
59233W        W26016  16.497   3.684   1.292
59234W        W26017  25.157   4.196   2.336
59235W        W26018   6.755  19.638  10.939
59236W        W26019  37.027   7.237  13.486
59237W        W26020   6.695  25.030   2.738
59238W        W26021  42.321   9.859  14.961
59239W        W26022  42.979  28.936   2.139
59240W        W26023  19.708  26.292  14.340
59241W        W26024  19.531   3.722   2.496
59242W        W26025   0.057  11.129  11.606
59243W        W26026  41.984  28.707  13.885
59244W        W26027  21.183   3.137   0.175
59245W        W26028  24.359  20.912  11.134
59246W        W26029   4.664  37.939   2.769
59247W        W26030   6.370   9.809   1.707
59248W        W26031  37.868  17.268  12.631
59249W        W26032  39.938   7.876   0.786
59250W        W26033  28.163  32.437  13.456
59251W        W26034  34.902  11.703  10.555
59252W        W26035  28.925  29.490   3.190
59253W        W26036  33.162  32.016  13.012
59254W        W26037  14.139  28.691  11.385
59255W        W26038  41.880  39.053   3.159
59256W        W26039  41.712  12.168  11.228
59257W        W26040   9.783  21.171  10.065
59258W        W26041  14.215  40.375   2.354
59259W        W26042  26.186  43.373  11.530
59260W        W26043  15.085  29.466  13.525
59261W        W26044   5.629  26.222   2.813
59262W        W26045  32.292  21.719  12.937
59263W        W26046  42.963  36.171  10.613
59264W        W26047  24.182  32.412   3.907
59265W        W26048  37.645  44.856   1.828
59266W        W26049  15.131   7.363   0.231
59267W        W26050  32.056  15.562   5.021
59268W        W26051   7.290  31.110   0.644
59269W        W26052  13.549  44.313  11.534
59270W        W26053  37.395  27.316  12.010
59271W        W26054  28.854  26.075  13.156
59272W        W26055  26.669  44.304   9.959
59273W        W26056  21.713  10.088   0.882
59274W        W26057   5.873  37.626   0.259
59275W        W26058  20.993  25.112   1.796
59276W        W26059  10.107  10.134  12.636
59277W        W26060  25.511  23.127  13.075
59278W        W26061  33.833  43.187  14.962
59279W        W26062  21.704  25.780  12.920
59280W        W26063  44.695   8.428   3.253
59281W        W26064  38.722   6.340   3.157
59282W        W26065  41.340  25.718   4.986
59283W        W26066  41.060  12.820  12.573
59284W        W26067  36.442  23.772  12.009
59285W        W26068   3.037   3.434   3.156
59286W        W26069  37.000  13.790  13.678
59287W        W26070  38.238  30.684   5.167
59288W        W26071  28.972  28.777   4.811
59289W        W26072  31.824  18.096  11.066
59290W        W26073   7.478  28.148  14.987
59291W        W26074  31.594  13.424   2.588
59292W        W26075  17.524  26.265   3.144
59293W        W26076   5.423   8.828  14.812
59294W        W26077  14.204  32.569   3.756
59295W        W26078  33.590  16.125  10.937
59296W        W26079  17.298   6.255   2.775
59297W        W26080   2.779  39.931   3.266
59298W        W26081  12.400  37.866   1.410
59299W        W26082   0.963   1.896  10.639
59300W        W26083  30.540  23.163  11.191
59301W        W26084  18.981  24.213  11.583
59302W        W26085   0.858   7.492   3.831
59303W        W26086  24.599  13.219   3.416
59304W        W26087  23.408  36.043   3.124
59305W        W26088  31.155  27.271   2.555
59306W        W26089  36.634  24.099  14.975
59307W        W26090  17.885   6.037  13.297
59308W        W26091  28.810  17.162   2.820
59309W        W26092  15.829   8.746   0.647
59310W        W26093  32.635  31.557  13.622
59311W        W26094  40.200   7.022  10.202
59312W        W26095  13.450  37.191  14.475
59313W        W26096  11.394  19.431  12.662
59314W        W26097  36.991  36.461  14.925
59315W        W26098  29.685  25.207  13.867
59316W        W26099  36.571  24.882  13.359
59317W        W26100  12.748  42.232   0.854
59318W        W26101   6.435  14.140  11.209
59319W        W26102  33.545   8.339   3.678
59320W        W26103  28.839   3.391  13.290
59321W        W26104  31.141  13.218  11.256
59322W        W26105   7.155   2.962   4.552
59323W        W26106  24.077   6.833  10.422
59324W        W26107   3.021  13.229  13.328
59325W        W26108  22.171  28.661   3.776
59326W        W26109   2.936   4.397   3.375
59327W        W26110  24.947  39.514   0.961
59328W        W26111  16.828  35.001   3.650
59329W        W26112  34.916  18.018   2.882
59330W        W26113  24.640  24.239   2.515
59331W        W26114  34.990   8.811  13.009
59332W        W26115  28.184  19.252   1.707
59333W        W26116  19.762  16.340   1.241
59334W        W26117  30.115  17.661   2.645
59335W        W26118  17.816  13.253  11.646
59336W        W26119   5.237   3.869  12.079
59337W        W26120  27.486  37.305   4.578
59338W        W26121   9.675  28.047  14.386
59339W        W26122   2.353  20.264   0.391
59340W        W26123  36.922  34.133   0.168
59341W        W26124   5.406  43.105  12.981
59342W        W26125   9.253   3.440   3.338
59343W        W26126   3.741   4.981   3.187
59344W        W26127  33.061  41.986   3.769
59345W        W26128  37.726  18.425   4.011
59346W        W26129   5.367  31.463  14.518
59347W        W26130  44.539   7.812   1.613
59348W        W26131  39.730  25.939  14.334
59349W        W26132  21.620  16.769  12.880
59350W        W26133  23.763  42.211   3.588
59351W        W26134  21.331   0.782   3.645
59352W        W26135  36.936  21.976  12.313
59353W        W26136  17.103   1.950   2.301
59354W        W26137  23.037  33.965  13.512
59355W        W26138   4.872  41.422  14.451
59356W        W26139  43.371  38.040   1.023
59357W        W26140  20.465  39.282   3.062
59358W        W26141  15.154   8.404  12.606
59359W        W26142  39.245  28.997   2.212
59360W        W26143   7.280   4.736   4.544
59361W        W26144  33.848   9.479  11.719
59362W        W26145  37.412  41.468   3.021
59363W        W26146  30.378  33.499  12.032
59364W        W26147  17.864  39.581   1.337
59365W        W26148  24.955   5.345   0.736
59366W        W26149  34.740  15.392  10.138
59367W        W26150  17.628  16.800   3.181
59368W        W26151  21.077   1.062  13.474
59369W        W26152  13.362  36.443  12.922
59370W        W26153  36.860  37.931   1.252
59371W        W26154  38.972   2.226  13.026
59372W        W26155  26.837   4.715   4.249
59373W        W26156  32.674   4.985   4.014
59374W        W26157  44.913   0.306   1.716
59375W        W26158  14.090  40.891   1.400
59376W        W26159  40.894  12.077  13.876
59377W        W26160  16.281   2.691   1.292
59378W        W26161  43.915  22.583   0.866
59379W        W26162  35.509  18.085   0.300
59380W        W26163  16.827  21.143  13.446
59381W        W26164  23.969  28.065  14.401
59382W        W26165   6.120  32.857   3.301
59383W        W26166  43.756   8.790  14.143
59384W        W26167   6.299  43.875  14.105
59385W        W26168  41.946  36.765  14.003
59386W        W26169  16.135   1.740  11.043
59387W        W26170  28.525  24.061  11.013
59388W        W26171  34.421  25.437   2.411
59389W        W26172  44.206  25.445  14.195
59390W        W26173  35.159  32.052  12.829
59391W        W26174  28.389  43.436  13.051
59392W        W26175  20.639   7.084  12.556
59393W        W26176  18.226  21.521  14.413
59394W        W26177  20.703  25.214  11.544
59395W        W26178   0.738   5.975   4.597
59396W        W26179   3.752  35.846   1.207
59397W        W26180  24.664  20.467   0.916
59398W        W26181  12.698  13.154   3.751
59399W        W26182   6.110   1.322  11.851
59400W        W26183  35.604  21.516  14.740
59401W        W26184  43.393  15.949   1.936
59402W        W26185   2.811  16.994   2.978
59403W        W26186   4.366   0.017  10.800
59404W        W26187  24.377   5.830  14.324
59405W        W26188  43.249   1.824  14.918
59406W        W26189  30.226  19.998  11.019
59407W        W26190   2.018  21.091  12.029
59408W        W26191  40.753   0.406  12.656
59409W        W26192   9.195   4.468   3.230
59410W        W26193  24.289  28.917  11.129
59411W        W26194  15.723  23.457  12.848
59412W        W26195  44.771   7.630  14.339
59413W        W26196  37.259  12.577  11.217
59414W        W26197  23.644  19.966   0.887
59415W        W26198  17.483  34.444  14.676
59416W        W26199  12.437  15.273   4.256
59417W        W26200   8.842  25.725  14.308
59418W        W26201  14.148  35.475   0.956
59419W        W26202   1.055  29.438   0.473
59420W        W26203  26.108   8.152   1.253
59421W        W26204  27.687  25.011   0.965
59422W        W26205   9.987  14.228   1.856
59423W        W26206  39.492  18.531  13.229
59424W        W26207   4.506  26.493   4.179
59425W        W26208  19.818  26.168   3.333
59426W        W26209   7.860  41.242  13.438
59427W        W26210  20.662  12.650   2.259
59428W        W26211   5.631   1.199  13.119
59429W        W26212  37.494  16.432   1.852
59430W        W26213  26.738  23.947   4.092
59431W        W26214   8.529   2.804   3.629
59432W        W26215  19.459   0.066   2.977
59433W        W26216  41.495  40.884  12.382
59434W        W26217  16.804  37.575  12.710
59435W        W26218  30.994  25.735   1.898
59436W        W26219   1.464  16.251  10.740
59437W        W26220  37.566  40.940   4.638
59438W        W26221  41.455  14.274   2.685
59439W        W26222  16.087   3.918   1.519
59440W        W26223  16.384  42.858   4.592
59441W        W26224  44.537  15.319   2.769
59442W        W26225  16.586  16.989   1.752
59443W        W26226  18.551  34.161   1.019
59444W        W26227  24.140  21.728  12.484
59445W        W26228  39.987  33.754  11.194
59446W        W26229  17.825  19.745  12.206
59447W        W26230   0.383  10.329   2.719
59448W        W26231  10.501  29.667  14.785
59449W        W26232  43.198  28.581  14.496
59450W        W26233  14.490  35.864   4.191
59451W        W26234  14.244  13.418  11.056
59452W        W26235  35.492   8.683   4.622
59453W        W26236  40.983  24.650  14.448
59454W        W26237  11.315  12.594  13.031
59455W        W26238  42.194  20.661   2.637
59456W        W26239  44.539  32.426   1.374
59457W        W26240  34.430  17.121  13.306
59458W        W26241  43.791  11.275   2.702
59459W        W26242  44.807  11.803  13.048
59460W        W26243  35.530   2.283   4.577
59461W        W26244  16.837  44.526  12.969
59462W        W26245  19.602  20.070   1.640
59463W        W26246  29.678  28.692  11.953
59464W        W26247  37.023  20.696  13.857
59465W        W26248   6.755  44.257  10.679
59466W        W26249  21.826   0.745   3.570
59467W        W26250   8.405  13.271  12.697
59468W        W26251   3.357  44.700  11.926
59469W        W26252  42.309   0.256  12.166
59470W        W26253  31.570  29.446  14.262
59471W        W26254   4.652  17.134   4.574
59472W        W26255  35.974  19.018  12.108
59473W        W26256  16.889  35.862   4.030
59474W        W26257  42.280   4.316   0.716
59475W        W26258  27.153  22.127  10.992
59476W        W26259  41.348  33.983   1.399
59477W        W26260  22.983  25.690  11.550
59478W        W26261  29.873  43.209   2.343
59479W        W26262  17.324  32.970   2.789
59480W        W26263  34.549  40.609   2.701
59481W        W26264  26.108  20.980   0.039
59482W        W26265  20.697   1.724   3.215
59483W        W26266  34.496  43.488  13.373
59484W        W26267  16.172  29.911   4.338
59485W        W26268  18.555  15.142  14.590
59486W        W26269  28.608  11.329  10.652
59487W        W26270  22.941  19.196  14.490
59488W        W26271  34.956  22.742  10.671
59489W        W26272   5.599  36.532  11.063
59490W        W26273   5.343  43.372   0.807
59491W        W26274  26.076  20.086   3.855
59492W        W26275  37.415  43.046   1.384
59493W        W26276  38.955  10.843  12.632
59494W        W26277  40.031  18.323   3.469
59495W        W26278  13.062  23.981   2.273
59496W        W26279   0.377   3.327   3.266
59497W        W26280  10.409  10.233  11.089
59498W        W26281   2.296  31.526   0.957
59499W        W26282  27.521  22.786   1.291
59500W        W26283  35.876  10.915   4.248
59501W        W26284   3.928  33.947   0.932
59502W        W26285  37.743   6.423  10.086
59503W        W26286  33.540  35.983   4.553
59504W        W26287  15.121  11.341   0.198
59505W        W26288  35.564  31.861   3.150
59506W        W26289  41.762  15.575  12.077
59507W        W26290   0.470  13.423  10.579
59508W        W26291  44.362  12.440   2.367
59509W        W26292   7.932  18.659  14.022
59510W        W26293  37.962  14.944  11.374
59511W        W26294   6.703  44.946   2.912
59512W        W26295  42.188   9.157  12.998
59513W        W26296  19.168  15.777  14.969
59514W        W26297   1.071  29.441  10.408
59515W        W26298  16.478  32.914  13.900
59516W        W26299  14.108  16.688  12.359
59517W        W26300  43.876  37.896   4.821
59518W        W26301  41.754   9.341  14.323
59519W        W26302  30.219  21.087   2.852
59520W        W26303   7.912  27.052  13.627
59521W        W26304  16.792  30.640   1.402
59522W        W26305   9.147  40.891   0.750
59523W        W26306  41.817  17.463  11.896
59524W        W26307  11.115   8.891   0.875
59525W        W26308  25.479  11.223  13.379
59526W        W26309  17.516  26.369  10.631
59527W        W26310  34.158  14.760   3.258
59528W        W26311  44.426   6.030  12.005
59529W        W26312  12.544   4.440  14.938
59530W        W26313  39.549  34.908  14.339
59531W        W26314   3.217  44.769  14.253
59532W        W26315   0.880  14.348   1.324
59533W        W26316  36.811   4.786   2.281
59534W        W26317   8.673  15.878  11.082
59535W        W26318  17.132  21.750  10.126
59536W        W26319  27.566  14.530  13.921
59537W        W26320  26.372   7.624  11.132
59538W        W26321  15.506  35.096  14.849
59539W        W26322  37.431  30.342   1.888
59540W        W26323   1.358   1.243  12.599
59541W        W26324  36.983  44.054   3.222
59542W        W26325  37.575   9.239   3.629
59543W        W26326  23.043   0.566  14.400
59544W        W26327  16.231  11.379  14.487
59545W        W26328  28.304  34.404   1.242
59546W        W26329  29.115  12.332   4.121
59547W        W26330   9.795   0.956   0.590
59548W        W26331  31.993  19.615   0.373
59549W        W26332  11.304  21.713   1.491
59550W        W26333  37.583  16.789   2.762
59551W        W26334   1.935  10.513   1.002
59552W        W26335  37.014  19.543   4.135
59553W        W26336   3.948  41.767   0.036
59554W        W26337  10.192  10.349   3.703
59555W        W26338   8.700  23.316  12.478
59556W        W26339   2.974  14.760   4.162
59557W        W26340  30.386  31.287  11.336
59558W        W26341  18.385  23.072   4.261
59559W        W26342  10.563  28.123   4.654
59560W        W26343  14.639  37.140  10.710
59561W        W26344  35.426  25.477  11.049
59562W        W26345  35.667  44.527  10.988
59563W        W26346   5.184   2.944   4.108
59564W        W26347  30.060  44.946  11.792
59565W        W26348  36.278  13.269  13.612
59566W        W26349  18.129  12.378  12.453
59567W        W26350  44.506  29.472   2.245
59568W        W26351  13.870  14.624   0.391
59569W        W26352  36.444  10.366   0.455
59570W        W26353  37.285  25.923  12.005
59571W        W26354  38.756  19.062  12.956
59572W        W26355  26.247   4.284  13.842
59573W        W26356  13.985  14.838   2.768
59574W        W26357   7.676  42.680   4.161
59575W        W26358  28.424  21.513   2.819
59576W        W26359  13.816  41.035   1.811
59577W        W26360  18.589  23.240   2.877
59578W        W26361   0.538  24.982   0.843
59579W        W26362  32.852  27.586  10.656
59580W        W26363   8.854  15.730   2.240
59581W        W26364  44.441  40.994  13.336
59582W        W26365  16.054  34.511  10.687
59583W        W26366  37.446  38.288   0.404
59584W        W26367  30.388  15.213   1.423
59585W        W26368   8.215  23.154   1.386
59586W        W26369  18.245  21.008  13.070
59587W        W26370  30.886  19.723  13.338
59588W        W26371   6.322  40.718   3.233
59589W        W26372  41.586  21.549  12.835
59590W        W26373  30.843  10.937   2.187
59591W        W26374  10.663  15.810   1.177
59592W        W26375   6.658  37.938  12.941
59593W        W26376   9.822  29.967  13.353
59594W        W26377  34.236  26.044  12.588
59595W        W26378  12.901   3.747   3.719
59596W        W26379   2.406  18.021  13.919
59597W        W26380  44.415  25.614   4.894
59598W        W26381   6.415   0.771  12.969
59599W        W26382  38.768   9.732   4.874
59600W        W26383   2.864  42.846  14.133
59601W        W26384  23.581  21.290  10.550
59602W        W26385  12.932  43.762  10.913
59603W        W26386  28.517  36.597   1.694
59604W        W26387  40.097  34.140   3.775
59605W        W26388  42.349  32.500  14.966
59606W        W26389  30.890  25.125   0.366
59607W        W26390  22.147  43.419   2.275
59608W        W26391  25.988   8.425  13.422
59609W        W26392  28.202  39.929  13.899
59610W        W26393  13.859  18.657   4.307
59611W        W26394  41.341   5.669   3.569
59612W        W26395  10.204   1.574   1.780
59613W        W26396  17.661  44.491  14.586
59614W        W26397   6.894  13.845   0.351
59615W        W26398   7.122  31.333  12.783
59616W        W26399  12.041  17.822  14.041
59617W        W26400  41.400  44.514  14.992
59618W        W26401  16.952   7.303  13.379
59619W        W26402   1.225  37.519  10.493
59620W        W26403  22.260  16.619  10.586
59621W        W26404  41.967  33.877   4.154
59622W        W26405   0.999  34.614  11.315
59623W        W26406  18.788  22.617   1.659
59624W        W26407  18.849  24.146  12.877
59625W        W26408  31.043  32.850   2.183
59626W        W26409   1.907  34.817   1.352
59627W        W26410  14.897  15.610  13.348
59628W        W26411   8.177   4.860  12.559
59629W        W26412  28.560  22.265  12.566
59630W        W26413   1.804  38.872  14.433
59631W        W26414  13.156  17.282   3.697
59632W        W26415  42.324  39.261   0.842
59633W        W26416   2.923  40.406   2.613
59634W        W26417  10.138   2.931  14.476
59635W        W26418  28.899   8.244  12.161
59636W        W26419  25.727   3.741  13.941
59637W        W26420  20.286  35.447   2.956
59638W        W26421  30.580  39.009   4.565
59639W        W26422  19.909   7.121  14.882
59640W        W26423   5.694  30.623  14.181
59641W        W26424   9.199  40.007   3.198
59642W        W26425  23.317  44.450  12.157
59643W        W26426  12.294  13.261  10.934
59644W        W26427   5.815  18.150  11.120
59645W        W26428  15.575   6.619  14.433
59646W        W26429  28.823   6.340  11.005
59647W        W26430  27.764  14.586   4.201
59648W        W26431  24.431  23.415   2.764
59649W        W26432  20.816  30.131  13.265
59650W        W26433  36.866  15.326   1.396
59651W        W26434  11.667  43.757   3.690
59652W        W26435  12.807   2.079  13.354
59653W        W26436  34.941  37.350   0.772
59654W        W26437   3.262  28.018  10.772
59655W        W26438  41.976  32.091  11.860
59656W        W26439  12.961   6.715  12.270
59657W        W26440   0.312  42.260  12.051
59658W        W26441  37.401  13.546   3.709
59659W        W26442   6.829  21.113  11.232
59660W        W26443  11.398  40.655   1.860
59661W        W26444   6.701  28.234   3.655
59662W        W26445   4.426  40.789  13.427
59663W        W26446   5.944  34.982   1.905
59664W        W26447  14.339   4.290   1.269
59665W        W26448  42.540  39.399   0.384
59666W        W26449  24.122  12.299   1.523
59667W        W26450   1.368  41.758  10.643
59668W        W26451  30.644  26.053  13.480
59669W        W26452  43.742  43.315  11.523
59670W        W26453  16.608   2.929   2.646
59671W        W26454  21.154  39.865  11.173
59672W        W26455  25.169   2.046  10.210
59673W        W26456   3.537  21.160   3.650
59674W        W26457  40.619  28.025  13.378
59675W        W26458   1.340  24.765   1.211
59676W        W26459  17.487   6.315   2.289
59677W        W26460  39.307  40.315   2.290
59678W        W26461  31.764  39.995  14.154
59679W        W26462  23.690  13.164  11.475
59680W        W26463  18.174  21.341  14.925
59681W        W26464   0.500  14.214   0.327
59682W        W26465  41.418   0.772   4.683
59683W        W26466   2.938  24.064   3.609
59684W        W26467  21.056   1.261   1.205
59685W        W26468  42.328  40.580  11.957
59686W        W26469  13.613  23.156   2.365
59687W        W26470  28.087  32.074   2.441
59688W        W26471  35.800   8.371  11.641
59689W        W26472  30.940  41.964  10.641
59690W        W26473  15.576  16.264  14.271
59691W        W26474  44.288  44.026   2.731
59692W        W26475   8.824  44.387   1.264
59693W        W26476  35.832  35.928   3.906
59694W        W26477  20.877  33.583   3.713
59695W        W26478  14.448   7.270   4.285
59696W        W26479  23.283  23.539  11.155
59697W        W26480  26.053  16.625  11.997
59698W        W26481  23.325   0.787   3.787
59699W        W26482  32.083   4.983   2.031
59700W        W26483  12.854  28.039   4.256
59701W        W26484  11.199  37.120   2.345
59702W        W26485  41.334   2.808  11.450
59703W        W26486  43.706   0.855  14.491
59704W        W26487  18.573   5.212   3.180
59705W        W26488  33.484   7.093   2.183
59706W        W26489  35.235   2.756   0.166
59707W        W26490  10.730  18.030  10.848
59708W        W26491  19.162   9.834   0.744
59709W        W26492  24.449  32.373   2.195
59710W        W26493  44.241   1.403   1.238
59711W        W26494  28.214  44.667  13.977
59712W        W26495  25.892  32.010   4.997
59713W        W26496  24.721  16.632  10.648
59714W        W26497  11.908   6.673  11.193
59715W        W26498  18.305  44.277   0.685
59716W        W26499  20.805  24.672  14.941
59717W        W26500  38.213  13.814   1.257
59718W        W26501  40.141  12.187  14.956
59719W        W26502  26.347  34.948   1.944
59720W        W26503   1.206  13.315   4.000
59721W        W26504  44.783  11.659   3.273
59722W        W26505  29.120  37.992  14.254
59723W        W26506  36.325   5.310   0.690
59724W        W26507  42.426  32.019   1.874
59725W        W26508  26.407  19.136  13.866
59726W        W26509  25.584  26.960   3.456
59727W        W26510  28.924  27.444  14.780
59728W        W26511   3.376  44.001   4.077
59729W        W26512  22.353   8.269   2.931
59730W        W26513  31.016  11.536  12.120
59731W        W26514   8.707  43.246  13.354
59732W        W26515   7.491  39.444   4.769
59733W        W26516  39.131  34.810  12.346
59734W        W26517   3.458   9.858  10.728
59735W        W26518  43.887  14.418  14.799
59736W        W26519  31.975  17.007   3.434
59737W        W26520  31.889  41.043  14.867
59738W        W26521  16.180  18.807  12.541
59739W        W26522  19.034  37.117  12.183
59740W        W26523   0.528  13.075  14.445
59741W        W26524   9.662  40.818   0.803
59742W        W26525   1.560  17.881   2.212
59743W        W26526  28.378  41.814  11.984
59744W        W26527   6.853  24.335  14.768
59745W        W26528   3.857  10.932  12.048
59746W        W26529  35.336  19.099  10.603
59747W        W26530  11.859  27.029  11.156
59748W        W26531  35.289  19.151  11.531
59749W        W26532  30.950  17.630   4.808
59750W        W26533  24.770  13.582   4.219
59751W        W26534  16.512  18.576   3.524
59752W        W26535   6.380  35.455  10.795
59753W        W26536  15.287  22.479   3.878
59754W        W26537  24.100  12.702  10.821
59755W        W26538  11.491  39.121  14.349
59756W        W26539  28.538   4.916   1.800
59757W        W26540  29.750   5.765  11.798
59758W        W26541   0.730  27.970  10.321
59759W        W26542  43.975  25.036  12.132
59760W        W26543  35.585  10.917   0.185
59761W        W26544  25.129  32.101  14.152
59762W        W26545   4.331  25.955  12.918
59763W        W26546  36.626   0.821   1.462
59764W        W26547   9.737  20.760   3.851
59765W        W26548  44.953   2.182   3.178
59766W        W26549  34.369   8.744   0.525
59767W        W26550  30.166  41.427   1.902
59768W        W26551  42.920  25.888   0.837
59769W        W26552   9.787  31.105   1.702
59770W        W26553  36.276   4.401  12.960
59771W        W26554   7.024  39.242   2.357
59772W        W26555   2.173  12.838  11.317
59773W        W26556  37.505  14.573   2.843
59774W        W26557  27.603  44.313  14.724
59775W        W26558  44.913  23.312  12.207
59776W        W26559   1.026  44.882  10.713
59777W        W26560   4.706  27.115  13.984
59778W        W26561  41.789  38.430   1.452
59779W        W26562  43.926  11.459   0.411
59780W        W26563  38.077  31.146  12.856
59781W        W26564  10.433  23.144  12.453
59782W        W26565  33.402  34.990  11.654
59783W        W26566  26.499  10.687   2.695
59784W        W26567  35.681   5.081   3.301
59785W        W26568   0.424  20.737   3.186
59786W        W26569  41.052  29.707   4.089
59787W        W26570   9.182  25.883   1.886
59788W        W26571  42.930  31.416  11.651
59789W        W26572  13.562  10.789  14.768
59790W        W26573  35.128  27.922   1.057
59791W        W26574  37.101  34.597   0.399
59792W        W26575  43.997   8.927   1.261
59793W        W26576   4.557  20.557  11.488
59794W        W26577  24.806  33.308  13.109
59795W        W26578   1.736  43.757   1.787
59796W        W26579  27.654  36.260   4.842
59797W        W26580   8.719  28.186  10.679
59798W        W26581  15.509   5.705   3.888
59799W        W26582  33.421   8.364  14.416
59800W        W26583  28.493  24.481  14.352
59801W        W26584   2.188   4.888   4.197
59802W        W26585  25.940  38.639  11.357
59803W        W26586  38.446  20.260   4.624
59804W        W26587  29.392  43.784  14.731
59805W        W26588  22.802  43.711  12.582
59806W        W26589  11.250  18.113  13.507
59807W        W26590  38.459   7.909  11.143
59808W        W26591  18.817  24.485   1.774
59809W        W26592  41.764  39.141   0.304
59810W        W26593  26.231  15.660   3.859
59811W        W26594  34.887   1.707   2.360
59812W        W26595  37.876   3.902  12.442
59813W        W26596   8.377  12.899  10.880
59814W        W26597  31.631   4.744  11.140
59815W        W26598  26.725  38.380   3.618
59816W        W26599  32.971  27.398  13.794
59817W        W26600  12.269  26.976  12.333
59818W        W26601   5.749  25.135  12.383
59819W        W26602  31.553  37.107  11.149
59820W        W26603   4.644  42.801   4.194
59821W        W26604  33.131  35.523   1.841
59822W        W26605  29.215  39.555  11.068
59823W        W26606   8.538  44.424   4.962
59824W        W26607  27.142  30.375  11.149
59825W        W26608  19.774   1.013   2.684
59826W        W26609   1.857  18.829  12.558
59827W        W26610  21.368  23.301  14.884
59828W        W26611  37.873  36.377   1.982
59829W        W26612  19.715  15.153  14.571
59830W        W26613  42.498   4.494  10.694
59831W        W26614  32.601  15.278  12.089
59832W        W26615   8.741  34.587   4.864
59833W        W26616  28.262  12.195  13.996
59834W        W26617  31.394   8.858   1.572
59835W        W26618  32.375  35.045  10.653
59836W        W26619  31.220  33.669  10.838
59837W        W26620  11.206  21.697  12.369
59838W        W26621  39.308  40.446  14.657
59839W        W26622  31.399  31.873  13.414
59840W        W26623   1.297  13.546   0.482
59841W        W26624  38.023  39.480   2.312
59842W        W26625  10.672  18.319   0.262
59843W        W26626   8.854  11.341  10.581
59844W        W26627  31.474  35.460   3.114
59845W        W26628  18.605  17.668   4.991
59846W        W26629   3.130  17.886  14.465
59847W        W26630  30.369  34.108  14.729
59848W        W26631   4.724  40.304   2.934
59849W        W26632  33.734  23.482   4.891
59850W        W26633  35.086  20.032  12.051
59851W        W26634  32.655  42.134  14.520
59852W        W26635   9.445   9.100   2.315
59853W        W26636   6.536  33.475   3.831
59854W        W26637   9.222  17.138   0.473
59855W        W26638  37.369   2.585   3.131
59856W        W26639  34.786  43.041  13.367
59857W        W26640   0.854  30.263   0.815
59858W        W26641   0.869  15.631  14.056
59859W        W26642   9.646   1.632  11.622
59860W        W26643   2.996  29.488  13.969
59861W        W26644  20.803  32.897   0.259
59862W        W26645  34.968  11.838   4.340
59863W        W26646   4.274   6.687  12.240
59864W        W26647  30.716  15.729  14.677
59865W        W26648  35.093  36.535   0.299
59866W        W26649  39.898  19.507  11.543
59867W        W26650  23.708  44.901   0.834
59868W        W26651  22.051  35.404  13.630
59869W        W26652  33.848   0.507   3.064
59870W        W26653  10.300   3.701   5.016
59871W        W26654  29.976  24.267  12.113
59872W        W26655   5.303  38.006   2.844
59873W        W26656  26.489  16.328   0.239
59874W        W26657   8.920   5.323   0.074
59875W        W26658  35.519  15.045   0.801
59876W        W26659   9.208  16.820  13.375
59877W        W26660  15.167  15.867  12.937
59878W        W26661  38.444   3.258   1.382
59879W        W26662  33.181  24.476  10.545
59880W        W26663   6.278  30.672   3.740
59881W        W26664   2.408  42.178  12.110
59882W        W26665  36.403   8.412   4.875
59883W        W26666  17.094   1.652  13.952
59884W        W26667  11.445  39.611  12.527
59885W        W26668  39.752  37.368  10.645
59886W        W26669  17.793   9.222   0.587
59887W        W26670   2.546  25.509   1.716
59888W        W26671   5.040   1.261   1.463
59889W        W26672   0.841  14.958   9.986
59890W        W26673  21.814  28.988   1.371
59891W        W26674  32.524  43.565  11.639
59892W        W26675  19.784  20.114   2.588
59893W        W26676  33.926  41.834  11.158
59894W        W26677  33.144  32.494  13.500
59895W        W26678  11.358  44.749  10.699
59896W        W26679  14.239  39.652   9.847
59897W        W26680  43.531  16.035   2.866
59898W        W26681  43.978  14.728   1.228
59899W        W26682  20.019  26.461   0.389
59900W        W26683  20.989  23.791  12.560
59901W        W26684  44.372  11.272   4.571
59902W        W26685  30.129  10.211   3.271
59903W        W26686  14.836  26.966   0.840
59904W        W26687  41.409  39.013  12.886
59905W        W26688  25.713  24.300   1.038
59906W        W26689  41.314  43.290  13.453
59907W        W26690  14.953  38.567   5.037
59908W        W26691  39.292  43.825  14.302
59909W        W26692  36.088  28.031   0.998
59910W        W26693  35.521  18.423  10.679
59911W        W26694   2.367   8.781  12.846
59912W        W26695  22.718  19.158   1.750
59913W        W26696  30.096  27.048   3.137
59914W        W26697  42.353  16.013   0.355
59915W        W26698  15.145  43.439  14.470
59916W        W26699  14.088  25.859   4.736
59917W        W26700  43.123   8.263  14.450
59918W        W26701  18.266  21.557   3.236
59919W        W26702  14.669  18.182   2.348
59920W        W26703  24.723   0.850   3.695
59921W        W26704  38.015  25.000  13.116
59922W        W26705  14.899   5.199   1.425
59923W        W26706  33.982  21.798   3.235
59924W        W26707  39.912   6.134   1.495
59925W        W26708   0.286  16.699   3.682
59926W        W26709  40.483   1.840   2.672
59927W        W26710  44.019  40.579   0.011
59928W        W26711  23.632  10.227   4.935
59929W        W26712  34.338  30.164  11.646
59930W        W26713   3.994   2.388   3.271
59931W        W26714   7.974  15.323   4.307
59932W        W26715  33.045   1.508  11.652
59933W        W26716  23.261  33.013   1.915
59934W        W26717  22.950  38.425  10.520
59935W        W26718  10.830  31.223   4.628
59936W        W26719  42.223  11.299  13.350
59937W        W26720  20.975  33.682  14.801
59938W        W26721  25.862   5.849   0.827
59939W        W26722  25.522   2.571  13.106
59940W        W26723  34.755  17.230   2.381
59941W        W26724   1.347  29.286   1.398
59942W        W26725   1.554  35.532  13.928
59943W        W26726  30.353  31.728   1.709
59944W        W26727  38.521  20.357   2.675
59945W        W26728  44.472  12.206  11.904
59946W        W26729  13.906   1.072   4.073
59947W        W26730  36.272   2.176   2.371
59948W        W26731  36.548   7.022  13.592
59949W        W26732   1.166   6.700   4.182
59950W        W26733  35.639  27.964   3.287
59951W        W26734  36.058  17.159   1.222
59952W        W26735  42.433  38.965   3.303
59953W        W26736  40.232  15.605   1.335
59954W        W26737  37.882  40.519   1.231
59955W        W26738   4.922  39.787   4.343
59956W        W26739  29.585  11.394  11.983
59957W        W26740  23.729  19.379  12.554
59958W        W26741  19.171  35.775  12.905
59959W        W26742  35.123  43.690   4.226
59960W        W26743  33.494  19.089   0.551
59961W        W26744  17.021  12.112   4.651
59962W        W26745  40.047  32.590  10.708
59963W        W26746   7.428   4.570  12.917
59964W        W26747   9.973   4.026   0.856
59965W        W26748  32.570  18.043  13.988
59966W        W26749  34.854   9.907  10.185
59967W        W26750  21.185  29.134  11.723
59968W        W26751   3.089  38.431   1.694
59969W        W26752  29.183   3.886  14.018
59970W        W26753  44.599  20.826   0.340
59971W        W26754  27.150   9.628  13.905
59972W        W26755   3.322  31.022   3.878
59973W        W26756  40.420  27.883   4.020
59974W        W26757  34.595  18.599  14.335
59975W        W26758  12.324  29.391  11.163
59976W        W26759   3.749  36.505   0.910
59977W        W26760  33.923  24.370   0.151
59978W        W26761   7.174   4.735  12.501
59979W        W26762  21.168  28.919  14.038
59980W        W26763  39.991  42.435  11.660
59981W        W26764  21.096  18.809   0.833
59982W        W26765  31.906   0.397  10.738
59983W        W26766  20.452  37.767   4.630
59984W        W26767  40.081  25.027   0.712
59985W        W26768  18.095  40.553  13.459
59986W        W26769  14.258  15.097  11.668
59987W        W26770  44.396  18.214   3.632
59988W        W26771  36.620  38.373   1.382
59989W        W26772  10.725   8.634   0.100
59990W        W26773  16.607  22.562  11.553
59991W        W26774  39.074   5.762  14.082
59992W        W26775   8.267  34.321  14.914
59993W        W26776  15.039   6.233   1.128
59994W        W26777  24.542  41.970   1.106
59995W        W26778  10.911  40.795  12.966
59996W        W26779   4.317  43.170   3.962
59997W        W26780   8.184  35.883   3.362
59998W        W26781  10.208  21.831   1.737
59999W        W26782  20.595   9.401   1.334
60000W        W26783  13.269  23.820  14.272
60001W        W26784  15.331  27.528   1.341
60002W        W26785  34.032  24.947  14.267
60003W        W26786  21.294   5.908  14.876
60004W        W26787  32.457  24.269   1.385
60005W        W26788  21.032  33.981   2.791
60006W        W26789   3.242  14.249   1.643
60007W        W26790  35.496  35.653   4.685
60008W        W26791  41.231   4.508  13.739
60009W        W26792  41.786  25.253  13.789
60010W        W26793   5.398  40.778  11.124
60011W        W26794  13.493  44.848   1.788
60012W        W26795  16.077   2.782   2.805
60013W        W26796  36.343  13.393   0.418
60014W        W26797  16.637  31.362   0.859
60015W        W26798  18.186  10.762   0.319
60016W        W26799  36.265  41.534  13.813
60017W        W26800   7.944  22.008  10.673
60018W        W26801  11.321  16.122  13.600
60019W        W26802  35.585   1.231  12.423
60020W        W26803  20.248  37.352   1.841
60021W        W26804  33.370  41.765  12.394
60022W        W26805  39.972  42.722   2.495
60023W        W26806  41.935  29.680  10.677
60024W        W26807  22.680   6.755   2.529
60025W        W26808  17.134  39.268   2.556
60026W        W26809  35.508  24.584   2.312
60027W        W26810  37.820  15.727  10.798
60028W        W26811  30.875  19.118   5.047
60029W        W26812  26.298  32.404   3.103
60030W        W26813   8.130  36.932  12.407
60031W        W26814   4.631  26.306  10.254
60032W        W26815   2.637  41.795   2.680
60033W        W26816   6.670   5.836   4.222
60034W        W26817  20.402  13.607  12.058
60035W        W26818  14.100  15.387  12.074
60036W        W26819  22.712  26.955   1.189
60037W        W26820  28.279  10.823   2.155
60038W        W26821  36.088   0.823  13.476
60039W        W26822  42.096  30.490  12.016
60040W        W26823  28.175   1.449   1.722
60041W        W26824  34.543  17.254   1.839
60042W        W26825  43.508  34.316   0.744
60043W        W26826   9.216   7.207  13.496
60044W        W26827   7.338   6.147  10.768
60045W        W26828   0.736  32.638   1.932
60046W        W26829  31.078  42.929   2.334
60047W        W26830  24.101  29.398   1.004
60048W        W26831  44.278  13.762   2.754
60049W        W26832  32.084  15.404  10.313
60050W        W26833  15.117  22.283   0.448
60051W        W26834  44.973  39.133   0.312
60052W        W26835  23.660  18.105  14.508
60053W        W26836  10.265   4.224   1.315
60054W        W26837   8.446  42.415   1.918
60055W        W26838  21.464   4.775   1.373
60056W        W26839  36.911  10.232   2.549
60057W        W26840  23.962  28.333  13.342
60058W        W26841  33.108  20.384   4.483
60059W        W26842   3.335  42.032  13.867
60060W        W26843   2.418  38.763   0.025
60061W        W26844  39.914  15.818   4.145
60062W        W26845  17.260  25.299  11.193
60063W        W26846  28.426  22.107  13.048
60064W        W26847  14.561   8.854   1.077
60065W        W26848  35.970   6.575   1.717
60066W        W26849  41.469  38.320  14.484
60067W        W26850   4.947  13.851  14.719
60068W        W26851  24.116  25.083  12.835
60069W        W26852  38.919  28.632  12.964
60070W        W26853  20.096  36.762  14.727
60071W        W26854   0.929   9.185  10.732
60072W        W26855  32.188  28.891  13.590
60073W        W26856  41.300  44.499  14.043
60074W        W26857  32.987  39.875   0.726
60075W        W26858  22.013  25.040   9.750
60076W        W26859  11.265  30.651  12.873
60077W        W26860  22.311  15.844   3.741
60078W        W26861  35.764  29.121   2.835
60079W        W26862  40.931  37.243  14.089
60080W        W26863   6.212  34.104   2.289
60081W        W26864   1.395  22.744   2.317
60082W        W26865  40.297  10.230  11.344
60083W        W26866  37.863   8.676   4.576
60084W        W26867  41.950  23.612   3.224
60085W        W26868  16.242  38.948   2.719
60086W        W26869  21.257   6.404   3.051
60087W        W26870  11.720  36.373  12.390
60088W        W26871   5.943  40.944   2.880
60089W        W26872  37.624   7.823  13.885
60090W        W26873  23.594  30.048  14.805
60091W        W26874  34.129  22.331   2.343
60092W        W26875  43.272  31.066   1.816
60093W        W26876  39.588  13.698   4.555
60094W        W26877  35.188  21.783   3.802
60095W        W26878  14.449  25.508  10.698
60096W        W26879   0.519  15.087  14.928
60097W        W26880  37.339  29.016  13.040
60098W        W26881   1.440  32.003   3.200
60099W        W26882  18.295  34.276   3.601
60100W        W26883  23.171  42.258   0.786
60101W        W26884  27.657  29.938   3.638
60102W        W26885  33.957  38.965  13.345
60103W        W26886  42.868   8.322  12.090
60104W        W26887  34.522  17.022  13.797
60105W        W26888  31.933  26.175  14.419
60106W        W26889   6.423  10.707  14.976
60107W        W26890   8.211  38.479  12.321
60108W        W26891  18.579  21.412   9.591
60109W        W26892  24.183   9.927  13.221
60110W        W26893  28.089   6.604   4.169
60111W        W26894   0.293  22.333   1.809
60112W        W26895  33.534   7.282  11.657
60113W        W26896  41.876  41.692   4.604
60114W        W26897  17.012  27.857   4.482
60115W        W26898  22.670   4.687  13.121
60116W        W26899  43.019  19.068   3.801
60117W        W26900  30.021  13.930  11.528
60118W        W26901   3.867  33.987   0.399
60119W        W26902  18.789  10.015   3.129
60120W        W26903  20.866  24.048   4.533
60121W        W26904  35.137  14.168   2.815
60122W        W26905  27.957   3.901  13.991
60123W        W26906  40.089   6.438  13.561
60124W        W26907  26.934   0.259  10.536
60125W        W26908  25.414   4.434   0.771
60126W        W26909  21.531   4.645   0.872
60127W        W26910  41.205  42.974   1.668
60128W        W26911  41.390   1.325   1.960
60129W        W26912  28.919  23.816  13.576
60130W        W26913  32.744  26.185  13.706
60131W        W26914  18.780   2.822  10.431
60132W        W26915  25.165   0.232  14.363
60133W        W26916  15.559  25.557  12.661
60134W        W26917  41.462  10.965  11.478
60135W        W26918  29.997  30.937  14.767
60136W        W26919  19.191   3.228   0.984
60137W        W26920  35.456  35.226  13.846
60138W        W26921  24.549  27.178   3.768
60139W        W26922  31.276  29.604   0.215
60140W        W26923   5.414  16.753  14.840
60141W        W26924   8.482   3.976   4.154
60142W        W26925  18.825  25.557   2.727
60143W        W26926  23.306  32.498   0.774
60144W        W26927  13.284   2.809   3.144
60145W        W26928   5.216  27.433  11.186
60146W        W26929  22.496  38.869  12.040
60147W        W26930  17.386  15.658  13.963
60148W        W26931  11.319  39.128   0.296
60149W        W26932   6.675  37.440   0.754
60150W        W26933  25.028  43.686   1.182
60151W        W26934   7.392  32.938  11.655
60152W        W26935  25.670  12.289  14.725
60153W        W26936  38.826   9.409   3.067
60154W        W26937   6.823   1.427  12.327
60155W        W26938   8.022  20.897   1.281
60156W        W26939  43.471   9.526   5.356
60157W        W26940  28.910   7.322  14.750
60158W        W26941  25.048  21.722   3.542
60159W        W26942  13.252  38.900   2.885
60160W        W26943   3.452  26.638  10.831
60161W        W26944  15.059  40.604  11.568
60162W        W26945  35.623  39.974   1.647
60163W        W26946  44.043   4.677   2.038
60164W        W26947   8.582  18.030  13.404
60165W        W26948  15.231   1.203  12.956
60166W        W26949  34.234  28.009  11.437
60167W        W26950   5.763  37.772   1.220
60168W        W26951  37.652  26.531  14.585
60169W        W26952  18.580  28.723   1.063
60170W        W26953  28.185  25.514  11.881
60171W        W26954  30.110  39.904  12.385
60172W        W26955   9.842  20.096  11.828
60173W        W26956  29.998  21.751  13.116
60174W        W26957   2.433  10.340   3.277
60175W        W26958  41.714  18.167   4.637
60176W        W26959  32.646  11.943   1.833
60177W        W26960  21.518  19.578   1.320
60178W        W26961   1.422  25.573  11.619
60179W        W26962  25.248   2.180   3.686
60180W        W26963  44.457  13.261  11.614
60181W        W26964  16.501  38.986   1.622
60182W        W26965   0.388  13.573   9.816
60183W        W26966  22.018  37.497  12.372
60184W        W26967   9.360  11.770   1.340
60185W        W26968  12.784   3.315  10.764
60186W        W26969  40.001  36.579  11.669
60187W        W26970  14.267  39.243  11.712
60188W        W26971   2.236  15.275   1.206
60189W        W26972  38.320  25.592  11.460
60190W        W26973  19.877  39.458   1.299
60191W        W26974  37.440  41.403  12.435
60192W        W26975  33.496  26.667  12.463
60193W        W26976   9.446  19.066   0.294
60194W        W26977   8.267  33.553  14.336
60195W        W26978  27.185   2.032  11.012
60196W        W26979  13.738  11.360   1.693
60197W        W26980  13.285   1.433  13.832
60198W        W26981  33.943  17.067   0.837
60199W        W26982   5.872   4.782   1.753
60200W        W26983   7.672  27.166   1.951
60201W        W26984  21.164   3.618  11.830
60202W        W26985  40.675  23.699  14.332
60203W        W26986  16.603   2.380   0.306
60204W        W26987  43.648  20.576  13.008
60205W        W26988  18.257  43.999   0.258
60206W        W26989  36.850  42.779  11.415
60207W        W26990  10.209  15.834  10.602
60208W        W26991  17.647   3.092  14.508
60209W        W26992  10.319  17.697  10.823
60210W        W26993  19.999  33.383  13.977
60211W        W26994  35.600   5.889  13.272
60212W        W26995  34.006  19.833   3.720
60213W        W26996  30.496  31.387   2.165
60214W        W26997   0.718  29.897  12.901
60215W        W26998   2.246   0.424   4.164
60216W        W26999  10.378  25.055   4.751
60217W        W27000  24.129  29.421   1.945
60218W        W27001  31.435  28.642   2.917
60219W        W27002  34.364  15.217   3.358
60220W        W27003  27.352   6.248  11.991
60221W        W27004  39.006   6.433   0.281
60222W        W27005  14.495  30.653   2.806
60223W        W27006   9.775   4.143  13.151
60224W        W27007  20.982  36.065   3.283
60225W        W27008   5.129   7.028   1.285
60226W        W27009  20.764  42.742   0.904
60227W        W27010   8.157  26.253   2.701
60228W        W27011  12.916  26.104   4.107
60229W        W27012  14.635  14.508  14.811
60230W        W27013  35.737  43.743  13.451
60231W        W27014  25.248  36.121   1.236
60232W        W27015  28.405  17.453   2.922
60233W        W27016   5.315   0.898   4.845
60234W        W27017  18.588   4.379   3.608
60235W        W27018  28.566  13.803   4.737
60236W        W27019  37.653   1.544   3.285
60237W        W27020  21.708  13.137   3.128
60238W        W27021  13.218  39.005   0.370
60239W        W27022  25.432  14.725   1.625
60240W        W27023  31.148  25.102  13.952
60241W        W27024  30.175  27.134  13.495
60242W        W27025  18.138  42.607   3.745
60243W        W27026  42.836  42.353  11.346
60244W        W27027  36.189  43.546   1.166
60245W        W27028  34.655  23.946  11.865
60246W        W27029  19.622   4.522   0.875
60247W        W27030   8.780  41.285   3.137
60248W        W27031   4.380  42.888   0.901
60249W        W27032  18.511  23.005  10.592
60250W        W27033  18.531  28.007   4.519
60251W        W27034  29.889   4.376   3.221
60252W        W27035  21.153  11.306   3.091
60253W        W27036  22.616   5.303  11.490
60254W        W27037   1.317  44.284   0.247
60255W        W27038  35.876  44.947  11.955
60256W        W27039  42.061  21.138   3.225
60257W        W27040  35.612  14.336  11.545
60258W        W27041  13.302   0.327   0.976
60259W        W27042  18.668  40.759  11.466
60260W        W27043  42.793  14.211   1.279
60261W        W27044  33.625   3.723  12.828
60262W        W27045  40.957  43.747  14.973
60263W        W27046  34.593  14.300  14.275
60264W        W27047  12.861  33.084  13.975
60265W        W27048  39.871  21.800   4.994
60266W        W27049  35.081  27.962  10.896
60267W        W27050  34.018  26.500  14.277
60268W        W27051  25.928  19.680   4.473
60269W        W27052   5.288   8.756  13.435
60270W        W27053  20.700  43.548   2.324
60271W        W27054  25.536   6.038   2.755
60272W        W27055  36.676  30.532   2.305
60273W        W27056  19.524  42.620   4.308
60274W        W27057  19.286  33.516   4.287
60275W        W27058  37.823  43.382   0.881
60276W        W27059  18.034  11.700  11.617
60277W        W27060  36.563  43.571  11.527
60278W        W27061  15.370  31.770   4.255
60279W        W27062  30.367  21.124   3.625
60280W        W27063  11.437   7.386   2.833
60281W        W27064   4.958   1.948   0.284
60282W        W27065  20.802  22.288   0.079
60283W        W27066  40.458  42.006  13.368
60284W        W27067  17.835  37.056   2.818
60285W        W27068  11.190  29.625  12.911
60286W        W27069  39.865  19.144   4.646
60287W        W27070   5.336  32.708  11.595
60288W        W27071  23.870  29.703   5.077
60289W        W27072  31.747  29.552   3.160
60290W        W27073   3.863  44.288  14.359
60291W        W27074  44.961  43.406   4.299
60292W        W27075   0.832   2.967  12.375
60293W        W27076  18.733  36.025   1.751
60294W        W27077  23.915  18.718   4.210
60295W        W27078   2.906  34.861  12.002
60296W        W27079   0.074  24.662   3.557
60297W        W27080  37.997  16.037  14.731
60298W        W27081  16.149  33.548   4.240
60299W        W27082  11.902   1.098  13.322
60300W        W27083  44.893  34.343  10.666
60301W        W27084   4.970  39.282  13.002
60302W        W27085  28.555   3.973   3.291
60303W        W27086  43.008  22.698   2.855
60304W        W27087  30.864  34.014   2.754
60305W        W27088  17.302  20.116  13.733
60306W        W27089   5.289  15.462   4.145
60307W        W27090  28.837   1.408   3.910
60308W        W27091  32.382  15.337  13.550
60309W        W27092  41.870  41.457  14.456
60310W        W27093  16.092  25.132   4.823
60311W        W27094  44.858   7.629   5.280
60312W        W27095  42.095  21.963  11.150
60313W        W27096  21.754  18.708   0.261
60314W        W27097  11.785  31.843  10.496
60315W        W27098  10.047  16.601   2.043
60316W        W27099   8.838  32.421  11.033
60317W        W27100  10.211  15.720  13.384
60318W        W27101  24.739   7.404  12.002
60319W        W27102  42.535  38.723  11.854
60320W        W27103  15.895   5.974   5.143
60321W        W27104  26.748  26.978   0.272
60322W        W27105  31.981  24.120   1.197
60323W        W27106  42.296  20.727  14.904
60324W        W27107  40.871  16.325  11.465
60325W        W27108  42.796  41.826  10.596
60326W        W27109  30.056  25.086  14.974
60327W        W27110  36.341  15.689   5.058
60328W        W27111  16.359   3.175  12.890
60329W        W27112   8.274  10.097   0.692
60330W        W27113  10.379  42.599   0.221
60331W        W27114  13.698   5.423  14.756
60332W        W27115  12.676  36.781   3.934
60333W        W27116  38.437  31.562   4.051
60334W        W27117   8.205  34.411   3.307
60335W        W27118  35.556   9.034   0.300
60336W        W27119  16.377  25.506  13.041
60337W        W27120  10.783  14.728  11.104
60338W        W27121  29.953  10.657   3.091
60339W        W27122  24.965  37.418  13.008
60340W        W27123  33.624  12.782   4.999
60341W        W27124  15.577  29.713  10.927
60342W        W27125  35.413  11.793   2.655
60343W        W27126  34.310  35.400  12.653
60344W        W27127  18.526  17.736  10.184
60345W        W27128  33.755   1.719   3.651
60346W        W27129  34.184  14.277   0.555
60347W        W27130   6.793   3.209  14.239
60348W        W27131   3.884   6.503  14.698
60349W        W27132   5.895  33.882  14.006
60350W        W27133  14.729  31.231   0.154
60351W        W27134  11.848  18.409   4.812
60352W        W27135  28.937  34.489  12.609
60353W        W27136  39.928   1.719  13.050
60354W        W27137  15.870  31.986  14.042
60355W        W27138   8.892  16.424   1.836
60356W        W27139  40.318  24.951  11.143
60357W        W27140   0.030  19.360  12.555
60358W        W27141  42.556  12.247   1.818
60359W        W27142   8.258  13.311  11.656
60360W        W27143  29.983  43.385  11.236
60361W        W27144  23.509  20.612   4.125
60362W        W27145  44.272  34.532   1.221
60363W        W27146  21.442  21.101   0.190
60364W        W27147  32.692   0.973   2.576
60365W        W27148  10.246   5.216   4.573
60366W        W27149  40.136  36.990   2.656
60367W        W27150  28.042  21.636  14.414
60368W        W27151  38.004  19.836  11.009
60369W        W27152  24.776  18.208  11.548
60370W        W27153   8.060  11.088  10.227
60371W        W27154  18.964   4.669   0.396
60372W        W27155  33.560  25.758  13.478
60373W        W27156  34.385  16.891  11.126
60374W        W27157  16.243  15.179   9.860
60375W        W27158  23.253  24.727   0.341
60376W        W27159  43.624  13.196   0.965
60377W        W27160  33.456  24.828   5.551
60378W        W27161   4.698  19.763  11.972
60379W        W27162   9.087  18.764  11.122
60380W        W27163  18.761  25.075  12.475
60381W        W27164  11.643  43.864   1.357
60382W        W27165  28.084  17.089   3.123
60383W        W27166  26.132  42.261   1.777
60384W        W27167   6.460  27.173  11.061
60385W        W27168  23.106  34.393   2.211
60386W        W27169  10.363  16.723  13.902
60387W        W27170  15.161   7.386   4.792
60388W        W27171  30.256  23.429  12.117
60389W        W27172  26.254   9.164   0.903
60390W        W27173   3.810  27.244   0.206
60391W        W27174  11.275  25.564   4.113
60392W        W27175  16.677  40.253  14.254
60393W        W27176  17.520   9.341   4.662
60394W        W27177  37.878  37.919   1.478
60395W        W27178   7.393  34.394   0.764
60396W        W27179  16.309   5.453   4.214
60397W        W27180  33.438   0.372   3.374
60398W        W27181  36.772  19.052   1.332
60399W        W27182  26.514  44.272   2.081
60400W        W27183  33.665  34.666  13.976
60401W        W27184  29.684   3.676  14.064
60402W        W27185   0.420  21.524   2.740
60403W        W27186   4.826  18.099  13.549
60404W        W27187  29.317  38.591  11.468
60405W        W27188  43.229  27.900  12.886
60406W        W27189  19.544  17.500   3.755
60407W        W27190  39.934  10.035   9.649
60408W        W27191  18.569  36.875   2.114
60409W        W27192  36.810  29.254  11.925
60410W        W27193  41.597   7.335  11.144
60411W        W27194  22.158  19.860   2.380
60412W        W27195  26.653  31.979   3.073
60413W        W27196  19.626   1.341  13.786
60414W        W27197  39.422  27.580   3.968
60415W        W27198  15.364   6.836  11.183
60416W        W27199  32.070  43.156   2.237
60417W        W27200   7.590  35.833   1.317
60418W        W27201  17.297   2.736  14.283
60419W        W27202  26.492   7.809  13.907
60420W        W27203  40.501   7.608   2.452
60421W        W27204  44.876  15.886  12.967
60422W        W27205  42.380  37.399  13.184
60423W        W27206  43.407  18.324   0.217
60424W        W27207  41.982  34.109   4.643
60425W        W27208  14.372  16.322  11.020
60426W        W27209   3.774   0.018  12.870
60427W        W27210  31.540  41.773  13.441
60428W        W27211  14.120  13.148  10.632
60429W        W27212  41.564  28.581   2.333
60430W        W27213  31.697   2.818   0.638
60431W        W27214  38.488  18.648  12.782
60432W        W27215  24.036  20.581  10.431
60433W        W27216  20.702   7.895  12.068
60434W        W27217  43.945   9.367   2.346
60435W        W27218   4.830  26.198   0.809
60436W        W27219  26.457  19.661  14.016
60437W        W27220  16.874   2.779   0.109
60438W        W27221  23.124  12.151   1.233
60439W        W27222   2.360  14.465   3.799
60440W        W27223  37.460  30.596   4.682
60441W        W27224  41.992   2.200  11.831
60442W        W27225  14.102  36.231  12.645
60443W        W27226   2.434  15.363  10.413
60444W        W27227  19.570  19.069  14.346
60445W        W27228  24.863  38.222   0.615
60446W        W27229  18.761  17.217   5.164
60447W        W27230   2.498   5.831   0.039
60448W        W27231  31.851   4.295  10.938
60449W        W27232  27.820   0.320  10.640
60450W        W27233  14.598  16.589  14.419
60451W        W27234   6.839  21.595  13.834
60452W        W27235  19.208  38.034  11.489
60453W        W27236   0.502  18.503   2.280
60454W        W27237  26.653  32.722   4.585
60455W        W27238  24.543  32.877  13.069
60456W        W27239  11.452   8.312   3.154
60457W        W27240  22.789   8.342  14.665
60458W        W27241  15.284   8.334  10.671
60459W        W27242  12.237  37.585  13.136
60460W        W27243  25.908   6.910  13.953
60461W        W27244   8.082  36.372  14.787
60462W        W27245  22.695  24.704  12.539
60463W        W27246  25.387  14.176  11.119
60464W        W27247   2.414  44.751   4.686
60465W        W27248  22.297   4.854   0.256
60466W        W27249  43.840   1.649   3.250
60467W        W27250   7.642  37.450   3.812
60468W        W27251  28.842  37.550  13.390
60469W        W27252  23.965   9.661  14.983
60470W        W27253  36.619   3.489   0.494
60471W        W27254   2.393   2.368   0.633
60472W        W27255  19.241  35.684  11.233
60473W        W27256  16.965  38.110  11.884
60474W        W27257   3.027  25.553  11.542
60475W        W27258  30.879  18.713  13.353
60476W        W27259  40.065  16.827   2.671
60477W        W27260  11.573   5.671   9.821
60478W        W27261  25.731  28.877  12.943
60479W        W27262  31.311  13.057   0.872
60480W        W27263  14.689  31.923   2.647
60481W        W27264  39.100  16.578   2.818
60482W        W27265  26.539   4.766   0.470
60483W        W27266  25.159  17.750   0.726
60484W        W27267   9.776  41.487   1.374
60485W        W27268  17.769  36.075   3.617
60486W        W27269   6.981  44.021  14.493
60487W        W27270  19.302  39.759   1.223
60488W        W27271  20.847  10.753  12.045
60489W        W27272  23.558  25.234  12.143
60490W        W27273   1.491   0.048   0.846
60491W        W27274  23.723   2.757  13.945
60492W        W27275   4.442   2.022   0.274
60493W        W27276  29.861  39.858   4.084
60494W        W27277  22.950  14.768  13.293
60495W        W27278  18.023  26.685   4.693
60496W        W27279  26.910  42.778   0.858
60497W        W27280   5.001   2.236   0.890
60498W        W27281  29.068  26.219   4.502
60499W        W27282   0.166  18.928  11.223
60500W        W27283  44.558  43.966  14.710
60501W        W27284  19.035  11.256  11.575
60502W        W27285  38.095  40.488  11.234
60503W        W27286  28.027  21.810   4.743
60504W        W27287   3.193  12.694  10.696
60505W        W27288  17.278  22.732   0.068
60506W        W27289   2.970  19.988  11.081
60507W        W27290   8.754  29.081  13.857
60508W        W27291  19.772  25.567  12.544
60509W        W27292  21.494  17.150   2.161
60510W        W27293   7.670  33.193   0.408
60511W        W27294   6.230   1.273   4.082
60512W        W27295  35.781  41.869  12.436
60513W        W27296  16.896   0.493  11.868
60514W        W27297  12.375  35.582  10.765
60515W        W27298  11.253  31.347  11.552
60516W        W27299  13.304  15.777  13.364
60517W        W27300  17.349  39.741  12.487
60518W        W27301  24.969  35.351   1.757
60519W        W27302  34.911  11.652   0.495
60520W        W27303  17.597   3.300   3.659
60521W        W27304  37.437  27.591  13.001
60522W        W27305   0.196  26.676   1.255
60523W        W27306   4.648  42.485  14.893
60524W        W27307  18.602  27.971  13.184
60525W        W27308   5.872  40.905   3.377
60526W        W27309  30.179  33.715  14.419
60527W        W27310   0.932  22.562  12.592
60528W        W27311  12.161   3.499   1.819
60529W        W27312   7.645   3.306  11.427
60530W        W27313  21.164  22.021   0.353
60531W        W27314  14.610  27.691  13.941
60532W        W27315   7.361  35.406   1.565
60533W        W27316   5.389  23.247  14.846
60534W        W27317   7.819   0.904  10.380
60535W        W27318  37.899  14.758  14.226
60536W        W27319  22.025  41.423   3.616
60537W        W27320  11.647   0.681   4.156
60538W        W27321   4.381   8.320  10.751
60539W        W27322  34.522  16.377  14.540
60540W        W27323  15.880  31.653   3.571
60541W        W27324  44.754  22.765   2.394
60542W        W27325  27.683  29.625   0.887
60543W        W27326  11.407  32.193  13.957
60544W        W27327  44.919   9.414  14.867
60545W        W27328  22.346  44.887   9.839
60546W        W27329  33.356  23.933  13.863
60547W        W27330  17.229  37.229   0.969
60548W        W27331   5.570  33.564   3.006
60549W        W27332  37.603  32.428  10.821
60550W        W27333  21.904   8.134  14.374
60551W        W27334  36.361   7.864  12.155
60552W        W27335  37.517  28.928   2.327
60553W        W27336  33.344  37.273   1.906
60554W        W27337  24.924  21.810  14.759
60555W        W27338  24.043   1.509  12.780
60556W        W27339   4.339   5.719  10.677
60557W        W27340  41.255  23.547   4.613
60558W        W27341  33.810  12.820   3.072
60559W        W27342   4.871  42.970  14.881
60560W        W27343  33.557  17.809   2.419
60561W        W27344   4.542  42.908  11.443
60562W        W27345  37.607   7.671   2.343
60563W        W27346  17.586  34.501  10.594
60564W        W27347   5.883  28.889   1.511
60565W        W27348   3.680  18.641  13.926
60566W        W27349  17.974  31.194   4.513
60567W        W27350   3.449  24.167   1.880
60568W        W27351  30.235  42.730   4.624
60569W        W27352  17.789  25.694  13.410
60570W        W27353  36.440  18.787   3.858
60571W        W27354  17.369   6.747  12.897
60572W        W27355   0.921   1.415  12.301
60573W        W27356   9.870   3.730  10.802
60574W        W27357  15.130  16.562  11.476
60575W        W27358  27.131  15.301   3.390
60576W        W27359   7.281  21.000  11.923
60577W        W27360   7.087  18.578   0.479
60578W        W27361  39.701  37.594   3.167
60579W        W27362  27.221  15.630   1.621
60580W        W27363  34.687  40.863  12.948
60581W        W27364  29.062   7.390   2.232
60582W        W27365  24.702  36.423  13.832
60583W        W27366  12.379   0.884  13.390
60584W        W27367  41.839   1.456  13.010
60585W        W27368  25.505  18.123   1.622
60586W        W27369  35.903  41.357  12.459
60587W        W27370  17.132  27.747  10.739
60588W        W27371  44.983  37.670  10.986
60589W        W27372  41.512  30.652   2.305
60590W        W27373   5.329  33.991   3.742
60591W        W27374  38.014  42.484  13.307
60592W        W27375  43.467  34.314  12.566
60593W        W27376  34.488  38.644   4.053
60594W        W27377  30.475   9.219  14.065
60595W        W27378  20.299  39.953  11.518
60596W        W27379  19.184  39.889   3.246
60597W        W27380  14.878  26.611  12.563
60598W        W27381   0.680   5.268   2.848
60599W        W27382  27.773  14.755   5.082
60600W        W27383  20.356   2.459   4.547
60601W        W27384   3.835  43.319   4.117
60602W        W27385  19.287   6.765   2.390
60603W        W27386   4.479  16.851  13.569
60604W        W27387  19.923  30.411  11.585
60605W        W27388  36.845   5.345  14.936
60606W        W27389  31.797  40.722   3.606
60607W        W27390  12.275  34.546   2.180
60608W        W27391  29.942  15.603   0.762
60609W        W27392  25.017  31.989  11.138
60610W        W27393  39.146   2.314   3.669
60611W        W27394  30.481   2.518  11.123
60612W        W27395  14.809  11.726   3.730
60613W        W27396  42.967  34.393  10.676
60614W        W27397  26.979  32.508   0.927
60615W        W27398   4.348  20.100  14.458
60616W        W27399  19.046  21.714   4.560
60617W        W27400  26.713  37.205   5.152
60618W        W27401  33.240  15.266   2.707
60619W        W27402  39.817  30.234   0.071
60620W        W27403   9.131   6.401  14.021
60621W        W27404  15.364  40.320   0.933
60622W        W27405  29.405  29.077  14.815
60623W        W27406  34.306  11.292   2.145
60624W        W27407  18.337  11.218   1.851
60625W        W27408  21.450  27.605  11.292
60626W        W27409   7.537  38.258  12.864
60627W        W27410   8.147  31.625   2.317
60628W        W27411  25.778   6.348   0.660
60629W        W27412  21.173  20.676   0.363
60630W        W27413  31.007   3.987  10.791
60631W        W27414  13.322  25.660   1.156
60632W        W27415   6.135  29.957  10.753
60633W        W27416  15.104  27.646   4.087
60634W        W27417  44.976  15.256   4.690
60635W        W27418  12.682  18.601   2.792
60636W        W27419  26.547  11.868  10.531
60637W        W27420  17.711  30.361   4.003
60638W        W27421   1.745  33.049   0.283
60639W        W27422   6.630  10.078  11.075
60640W        W27423  30.760  15.385  13.006
60641W        W27424  22.269  25.643   3.081
60642W        W27425  44.037  17.261  10.662
60643W        W27426  32.093  32.902  10.983
60644W        W27427   5.768   8.846  10.682
60645W        W27428  31.753  11.065  12.120
60646W        W27429  11.903  33.783   2.740
60647W        W27430   6.374   1.523   1.838
60648W        W27431  11.208   1.493  12.556
60649W        W27432  12.106  14.549   3.254
60650W        W27433  12.312  32.070   1.198
60651W        W27434  18.787  16.610   1.661
60652W        W27435   7.931  35.605  10.730
60653W        W27436  40.515   4.348   1.398
60654W        W27437  22.985  12.098  11.225
60655W        W27438  41.128  12.285   3.171
60656W        W27439  43.845  37.424   1.189
60657W        W27440  28.919  21.462   3.241
60658W        W27441  10.215   7.820  14.994
60659W        W27442  34.863  23.128  14.683
60660W        W27443  40.291  44.732  13.781
60661W        W27444  44.332   9.417  12.437
60662W        W27445  43.937  31.429  10.973
60663W        W27446  39.232   7.261  13.593
60664W        W27447   5.822  28.452   0.094
60665W        W27448   9.279   4.837  11.906
60666W        W27449  11.630  22.033  12.880
60667W        W27450  31.095  28.123   2.166
60668W        W27451  20.698  41.298  12.462
60669W        W27452  37.604   4.810  12.102
60670W        W27453  42.936   4.636  12.939
60671W        W27454  18.680   5.225  12.324
60672W        W27455   3.711  25.656   4.413
60673W        W27456  34.792  39.902   4.071
60674W        W27457  29.532  31.391  12.522
60675W        W27458  21.514  27.092  11.028
60676W        W27459  14.222  39.787   0.689
60677W        W27460  18.275  10.750  11.569
60678W        W27461  43.049  10.748  14.868
60679W        W27462  13.694  19.867   2.219
60680W        W27463  29.710   1.545   3.255
60681W        W27464  13.673  31.275  11.210
60682W        W27465  36.342   4.037   2.718
60683W        W27466  28.235  29.453   2.694
60684W        W27467  25.808  41.285   3.786
60685W        W27468  31.065   1.726   4.107
60686W        W27469   9.881  40.456  11.982
60687W        W27470  44.259  18.284  12.560
60688W        W27471  22.114  22.076   3.157
60689W        W27472  37.324  17.290   1.868
60690W        W27473   3.915   8.947   3.896
60691W        W27474  15.727  13.841   3.650
60692W        W27475   9.398  13.082  13.999
60693W        W27476   0.343  17.859   3.035
60694W        W27477  10.537   3.663   3.367
60695W        W27478  11.467  21.844   4.889
60696W        W27479   7.904  16.130  14.893
60697W        W27480  19.015  34.541  14.894
60698W        W27481  24.585   2.311   0.502
60699W        W27482  33.999  43.046  10.662
60700W        W27483  41.211  28.117  13.843
60701W        W27484  17.789   0.978   3.742
60702W        W27485  27.415   0.012  10.456
60703W        W27486  44.946  43.530  12.032
60704W        W27487  44.402  40.546   3.298
60705W        W27488  37.777  15.292   1.928
60706W        W27489  27.722   5.591  11.261
60707W        W27490  33.538  31.656   0.314
60708W        W27491   9.690  43.912  12.093
60709W        W27492  22.450  31.915   4.067
60710W        W27493  39.997  25.182   4.675
60711W        W27494  39.494  21.998  11.474
60712W        W27495   1.065   9.740   3.773
60713W        W27496  36.440  41.027  13.883
60714W        W27497  27.668  19.662  11.070
60715W        W27498  41.235  27.032   0.700
60716W        W27499  17.593  24.150   3.628
60717W        W27500  17.735  27.592   4.560
60718W        W27501  22.236  22.639  13.357
60719W        W27502  42.417  17.364   0.232
60720W        W27503  43.481  35.937  12.877
60721W        W27504  39.537  39.235   3.915
60722W        W27505   7.474   7.286   1.258
60723W        W27506  25.391   3.673   4.154
60724W        W27507   4.817  23.447   1.126
60725W        W27508   9.536  31.598  11.840
60726W        W27509  36.763  26.674  11.584
60727W        W27510   5.607   6.634   1.142
60728W        W27511  12.945  25.922   2.354
60729W        W27512  29.317  20.673  13.597
60730W        W27513  37.195  15.422   1.796
60731W        W27514  13.991   0.287   4.409
60732W        W27515   3.191  29.944   0.299
60733W        W27516  36.356  43.527   2.722
60734W        W27517  11.886  14.731   2.818
60735W        W27518  32.141  38.040  14.437
60736W        W27519  29.559  17.159  12.447
60737W        W27520   5.027   2.746   0.811
60738W        W27521  27.697  18.085  12.635
60739W        W27522  20.783  42.236  12.490
60740W        W27523  27.802  26.586  10.558
60741W        W27524  41.684  16.081  10.378
60742W        W27525   2.339  19.353   4.053
60743W        W27526   2.203   8.972   2.712
60744W        W27527  15.057   0.478  12.555
60745W        W27528  36.484  43.212   1.476
60746W        W27529   3.333  43.383   1.203
60747W        W27530   7.120  18.330  13.267
60748W        W27531  28.890   6.423   4.107
60749W        W27532  24.119  18.711   1.911
60750W        W27533  25.709  26.204   1.294
60751W        W27534  25.117  41.554   0.440
60752W        W27535  23.651  22.720   3.345
60753W        W27536  10.260  23.182   2.844
60754W        W27537  12.890   9.336   3.593
60755W        W27538  41.945   5.640   0.644
60756W        W27539  27.497  19.130   4.388
60757W        W27540  32.907  32.850  12.106
60758W        W27541  12.298  20.049  14.711
60759W        W27542  37.618  40.838   3.705
60760W        W27543  38.254  21.158   4.155
60761W        W27544  30.550  36.061   3.801
60762W        W27545  13.723   7.110   1.491
60763W        W27546  20.281  32.675  12.146
60764W        W27547  23.955  13.719   3.312
60765W        W27548  14.198  10.909  14.519
60766W        W27549  12.714  24.338  12.556
60767W        W27550   3.851  23.530   4.249
60768W        W27551  26.967   2.084  14.421
60769W        W27552   7.667  41.647   4.166
60770W        W27553  36.839  23.294   0.834
60771W        W27554  13.015  32.170  11.140
60772W        W27555  39.041  23.474   0.263
60773W        W27556  12.802  27.483   1.253
60774W        W27557  30.824  11.601   3.549
60775W        W27558  18.159  10.088  11.238
60776W        W27559   4.375  10.090  13.325
60777W        W27560  24.651  25.465   1.821
60778W        W27561  20.673   5.833  10.051
60779W        W27562  16.767  12.788   0.860
60780W        W27563  35.407  44.313   0.614
60781W        W27564  24.944  23.429   3.693
60782W        W27565   1.601  26.190   3.720
60783W        W27566  39.964   8.753   0.039
60784W        W27567  26.282  42.334   5.293
60785W        W27568  11.370   5.256   4.898
60786W        W27569   8.196  37.880   2.168
60787W        W27570  27.710  25.888   1.843
60788W        W27571   4.957  10.079  10.212
60789W        W27572  25.281  11.670   1.698
60790W        W27573  25.173  38.626  13.189
60791W        W27574  36.841  10.646   2.272
60792W        W27575   2.361   6.717   1.760
60793W        W27576  21.041  18.705   0.010
60794W        W27577   3.084  39.494   1.692
60795W        W27578  24.569   4.743   1.011
60796W        W27579   3.434   4.408   3.273
60797W        W27580  10.166  24.776   4.350
60798W        W27581  11.098  23.111   3.663
60799W        W27582  14.297  12.638  14.488
60800W        W27583  27.070  39.904  13.850
60801W        W27584   8.633  36.917  12.423
60802W        W27585  13.990  12.314   3.996
60803W        W27586  38.027   1.337  11.883
60804W        W27587   3.008   4.975   1.235
60805W        W27588  18.228   3.267  11.564
60806W        W27589  39.310  36.828   3.771
60807W        W27590  33.631   6.970   0.386
60808W        W27591  22.352   7.823  11.524
60809W        W27592  27.091   8.443  13.457
60810W        W27593  31.556  36.836   3.835
60811W        W27594   3.054   7.713  12.955
60812W        W27595  18.657  18.757  12.027
60813W        W27596  32.354  40.403  10.813
60814W        W27597  14.632  29.191  12.971
60815W        W27598   8.900  16.394  14.773
60816W        W27599  44.261   3.184   4.092
60817W        W27600   2.269  43.435   3.159
60818W        W27601  41.847  12.846  12.542
60819W        W27602  39.456  14.613   4.868
60820W        W27603   1.582  12.802  13.895
60821W        W27604  38.433   2.343  12.302
60822W        W27605  39.379  44.537   1.391
60823W        W27606  18.977  18.154   4.278
60824W        W27607  17.636  11.769  11.280
60825W        W27608  29.440  23.101   1.410
60826W        W27609   4.345  17.666   2.062
60827W        W27610  33.874  16.548  14.994
60828W        W27611  38.538   2.335  14.302
60829W        W27612  29.657  31.925  13.424
60830W        W27613   5.962   0.699   1.403
60831W        W27614  38.523  11.240   4.691
60832W        W27615   5.932  15.287   4.677
60833W        W27616  31.888  40.592  11.072
60834W        W27617  32.677  36.079  11.222
60835W        W27618  41.767  10.099  12.927
60836W        W27619  15.662  34.289  13.180
60837W        W27620   2.006  40.904   1.239
60838W        W27621  13.285  23.219  13.321
60839W        W27622  37.126  35.525   0.309
60840W        W27623  35.167  12.748   0.879
60841W        W27624  43.320  42.587   1.187
60842W        W27625  20.958   7.145  10.871
60843W        W27626   6.243  37.443   1.903
60844W        W27627  38.671  12.428  11.914
60845W        W27628  22.515  25.692   4.000
60846W        W27629   8.606  32.006  11.904
60847W        W27630   0.270  25.901   0.804
60848W        W27631  37.105  16.686  10.580
60849W        W27632  11.852  15.520   0.399
60850W        W27633  44.839  37.466   0.627
60851W        W27634  23.680  42.113   0.871
60852W        W27635   8.802  34.105   4.647
60853W        W27636  17.170   8.117   2.665
60854W        W27637  13.825  41.015  12.011
60855W        W27638  19.705  25.140  10.106
60856W        W27639   8.247  34.305  12.519
60857W        W27640  34.361   2.193  12.088
60858W        W27641  17.148  16.190   2.774
60859W        W27642  23.864  19.634  11.175
60860W        W27643  23.039  14.598  12.031
60861W        W27644  30.176  34.715  13.500
60862W        W27645   8.461   5.796   1.735
60863W        W27646  34.003  10.356   4.666
60864W        W27647  29.108   1.960   3.771
60865W        W27648  30.914  39.850   3.267
60866W        W27649  36.415  43.084  11.548
60867W        W27650  18.103  21.717   4.484
60868W        W27651  44.295   4.867  10.542
60869W        W27652  13.843  24.279  11.128
60870W        W27653   7.250   4.380  14.709
60871W        W27654  39.489  19.750  14.784
60872W        W27655   1.292  32.091  11.203
60873W        W27656   1.528  44.994  10.817
60874W        W27657  43.452   2.703   0.390
60875W        W27658  44.163  33.274  10.995
60876W        W27659  26.052  11.109   4.509
60877W        W27660   8.657  37.261  10.667
60878W        W27661   4.997  44.432   4.446
60879W        W27662  39.124  25.946  12.968
60880W        W27663   5.661  35.170  11.186
60881W        W27664   9.293   7.105  11.226
60882W        W27665  40.068  38.350  14.908
60883W        W27666  40.701   5.346  11.289
60884W        W27667  40.912   8.327   4.792
60885W        W27668  17.002  34.332   2.242
60886W        W27669  11.342  35.065   1.001
60887W        W27670  32.955   3.830  13.397
60888W        W27671   5.284  44.324  14.819
60889W        W27672  19.506  43.841   2.727
60890W        W27673  30.148   1.970  12.052
60891W        W27674   3.645  25.095  10.242
60892W        W27675  31.600  20.391  12.953
60893W        W27676  31.654  19.545   1.570
60894W        W27677  20.217  22.955   3.702
60895W        W27678  39.556   6.024  12.482
60896W        W27679  10.844  41.252   0.988
60897W        W27680   9.435  29.478  12.660
60898W        W27681  41.599  24.099   0.821
60899W        W27682  23.143   5.620   1.014
60900W        W27683  31.834  17.411   3.106
60901W        W27684   2.032  38.867   0.862
60902W        W27685  30.408  26.710  11.621
60903W        W27686   7.749  37.299  10.749
60904W        W27687  33.444  20.453  11.451
60905W        W27688  23.504  25.390   1.342
60906W        W27689  31.117   2.923  14.273
60907W        W27690  30.149  27.167  12.633
60908W        W27691  19.136  12.561  14.337
60909W        W27692   1.185   2.362   4.483
60910W        W27693  44.446   8.414  11.596
60911W        W27694   1.268   4.283  13.863
60912W        W27695  18.565  41.006   4.374
60913W        W27696   3.905  33.880  10.737
60914W        W27697  15.758   2.343   4.619
60915W        W27698  24.728  10.900   0.483
60916W        W27699  31.910  34.019   1.625
60917W        W27700  13.977  26.121  11.165
60918W        W27701  13.537  33.002  11.087
60919W        W27702  28.867  31.404   2.876
60920W        W27703  21.740  37.443   3.951
60921W        W27704   6.173  20.757   3.238
60922W        W27705  11.263  26.571  10.374
60923W        W27706  25.214   9.993  13.139
60924W        W27707  44.917  35.848   3.747
60925W        W27708  14.292  34.067   2.902
60926W        W27709  10.802   0.809  11.906
60927W        W27710  11.171  44.713   0.463
60928W        W27711  39.789   0.978   4.896
60929W        W27712  41.494   6.632   1.377
60930W        W27713  20.522  37.472   0.047
60931W        W27714  31.632  13.678  11.584
60932W        W27715  17.516   7.449  11.459
60933W        W27716  30.820  34.233   5.275
60934W        W27717  26.346   2.782  11.996
60935W        W27718  35.058  41.438  14.796
60936W        W27719   7.949  10.200   2.097
60937W        W27720  34.596  20.348  12.889
60938W        W27721   7.232  16.866   4.083
60939W        W27722  18.709  23.974  13.835
60940W        W27723  18.688  17.236  14.428
60941W        W27724   6.914  34.098   2.660
60942W        W27725  21.307  13.845   4.675
60943W        W27726  24.691  33.396   0.443
60944W        W27727  38.104  33.917   1.537
60945W        W27728  31.119   8.367   1.784
60946W        W27729   6.079  25.833  11.079
60947W        W27730  39.933  11.353  13.259
60948W        W27731  41.702   8.960   2.472
60949W        W27732  23.565  40.772  12.336
60950W        W27733  31.448  44.997   2.328
60951W        W27734  22.796  31.503   0.336
60952W        W27735  15.038  26.211   4.520
60953W        W27736   4.132  41.280  14.955
60954W        W27737  27.702  15.703   0.394
60955W        W27738  41.374  15.251  11.852
60956W        W27739  28.644   9.392  11.581
60957W        W27740  20.573  12.375  11.369
60958W        W27741  22.664   7.728   0.259
60959W        W27742  38.800  29.571  12.052
60960W        W27743  26.725  20.983  14.565
60961W        W27744  41.795  22.253   4.049
60962W        W27745  20.250  36.051  11.467
60963W        W27746  10.139   3.329   2.182
60964W        W27747  43.779  22.925   4.603
60965W        W27748  44.934   7.901  14.782
60966W        W27749   5.061   0.449  11.892
60967W        W27750  32.871  17.802  13.065
60968W        W27751   8.599  38.015   2.750
60969W        W27752  34.345   6.456   0.904
60970W        W27753  13.709   2.359   1.413
60971W        W27754  23.423   6.161   0.215
60972W        W27755  21.560   4.955  12.717
60973W        W27756  27.874  44.329  11.174
60974W        W27757  41.020  23.700  11.716
60975W        W27758  21.358  37.452   4.690
60976W        W27759  25.952  43.944  10.251
60977W        W27760  23.141  31.071   3.812
60978W        W27761  28.618  33.143   2.947
60979W        W27762  16.263  44.398   2.777
60980W        W27763  30.148   6.256  13.656
60981W        W27764   9.769  34.317  10.632
60982W        W27765   1.026  44.831   0.769
60983W        W27766  41.505  20.032  10.866
60984W        W27767  10.222  40.260  12.323
60985W        W27768  35.648  30.088  11.933
60986W        W27769  24.170   6.922   3.218
60987W        W27770   8.883  10.855   3.780
60988W        W27771  16.549  40.511  14.690
60989W        W27772  32.468  31.221   3.736
60990W        W27773  21.803   0.420   1.927
60991W        W27774   2.956  24.200  13.390
60992W        W27775  23.291   3.985   1.182
60993W        W27776  17.430  32.234  10.797
60994W        W27777  28.665  17.563   2.191
60995W        W27778  13.101  30.568  13.840
60996W        W27779  44.054  14.590   3.110
60997W        W27780  26.593   0.975  11.940
60998W        W27781  30.575  40.567   2.804
60999W        W27782   9.373  11.758   4.550
61000W        W27783   3.406  16.185   1.329
61001W        W27784   1.045   3.600   2.373
61002W        W27785  14.761  12.790  10.647
61003W        W27786   4.658  17.237   0.549
61004W        W27787   7.789  34.067   0.806
61005W        W27788   3.005   4.890  10.641
61006W        W27789  38.368  34.084  11.002
61007W        W27790   7.930  35.461   1.407
61008W        W27791  33.716  31.626   2.871
61009W        W27792   2.623  19.131  11.260
61010W        W27793  42.211  41.800   5.046
61011W        W27794  16.636  43.646   0.064
61012W        W27795  35.123   1.083   4.613
61013W        W27796  35.333  21.082  13.957
61014W        W27797  20.715  10.824   2.492
61015W        W27798   4.910  42.157  13.033
61016W        W27799  31.380   9.807  12.910
61017W        W27800  27.623  20.460   3.695
61018W        W27801  31.588  21.290   3.233
61019W        W27802  18.082  15.351   3.678
61020W        W27803  40.423  27.470   4.330
61021W        W27804  30.448   7.588  14.887
61022W        W27805  11.152   6.000   1.161
61023W        W27806   9.099  22.952   2.592
61024W        W27807   1.698  43.995  14.074
61025W        W27808   7.409  38.011   0.654
61026W        W27809  18.644  19.075   4.643
61027W        W27810  11.502  11.132  14.021
61028W        W27811  31.501   0.070  12.909
61029W        W27812  23.105  20.271   4.069
61030W        W27813  23.217  22.664  14.510
61031W        W27814  44.915   7.470   1.805
61032W        W27815  25.077  39.248   1.369
61033W        W27816   1.487   9.286   0.207
61034W        W27817   3.726  35.661  11.229
61035W        W27818  40.247  32.955   4.205
61036W        W27819  33.532  21.500   3.062
61037W        W27820  30.839  33.990   3.664
61038W        W27821  32.707  44.255  13.933
61039W        W27822  21.907  10.587   5.024
61040W        W27823  36.412   2.948  13.770
61041W        W27824  42.490  20.723  12.526
61042W        W27825   2.924  34.191   2.305
61043W        W27826  29.003  18.627  12.430
61044W        W27827  32.862   8.423   0.936
61045W        W27828  20.113   4.969  13.939
61046W        W27829   1.712  18.982  13.040
61047W        W27830  35.497  30.878   2.775
61048W        W27831   6.475  29.225  11.157
61049W        W27832  13.591  29.081  14.544
61050W        W27833  28.601  42.242   1.767
61051W        W27834  15.220   7.654   2.361
61052W        W27835  28.710   0.956  12.610
61053W        W27836  31.055   2.803   4.257
61054W        W27837  27.955  12.256  12.133
61055W        W27838  28.135  24.509   3.798
61056W        W27839   5.056  18.194   0.941
61057W        W27840  33.607  13.764  11.461
61058W        W27841  34.317  39.457  14.929
61059W        W27842  24.238  29.353   4.176
61060W        W27843  41.603  16.145   3.617
61061W        W27844  15.253  31.368   0.250
61062W        W27845  28.663  10.578  11.103
61063W        W27846  20.078  12.609  11.671
61064W        W27847  17.178   1.861  11.294
61065W        W27848  41.502   7.901  11.193
61066W        W27849  25.146  11.700   2.802
61067W        W27850  18.249  27.955   3.067
61068W        W27851  13.082  25.926  13.859
61069W        W27852  35.014   0.435   1.150
61070W        W27853  24.556  43.491  11.977
61071W        W27854   2.811  21.226  11.538
61072W        W27855   2.776  17.124   1.071
61073W        W27856  36.553   0.659  13.300
61074W        W27857   8.311  29.134  10.744
61075W        W27858  23.575   5.581   4.152
61076W        W27859  26.193  19.716   0.376
61077W        W27860   7.321  20.994   2.141
61078W        W27861  24.039  27.969   1.773
61079W        W27862  41.956   9.351   3.561
61080W        W27863  24.808  20.726   2.347
61081W        W27864  29.202  44.261  14.866
61082W        W27865  20.294   0.739   0.953
61083W        W27866   2.444   5.815  11.123
61084W        W27867  30.245   9.700  11.643
61085W        W27868  16.848   3.032  12.211
61086W        W27869  16.077  25.173   1.256
61087W        W27870  28.076   6.446   5.168
61088W        W27871  34.543  38.167  12.533
61089W        W27872  26.346  43.813   1.849
61090W        W27873   9.289  13.263  10.674
61091W        W27874  38.307  15.339   1.899
61092W        W27875  14.237  41.969  14.970
61093W        W27876  41.601  18.334   3.756
61094W        W27877  31.342   4.300  11.108
61095W        W27878  22.596   3.402  13.422
61096W        W27879  11.097  38.438  13.416
61097W        W27880  16.372  14.748  14.900
61098W        W27881  21.673  37.457  11.522
61099W        W27882   3.993  40.476  10.061
61100W        W27883  15.216  17.390   0.478
61101W        W27884  26.693  34.659   2.171
61102W        W27885   4.652  40.323   4.265
61103W        W27886  25.674  17.380  10.676
61104W        W27887  10.936   1.551  10.434
61105W        W27888  44.442   1.860  14.367
61106W        W27889  12.022  28.588   3.634
61107W        W27890  17.231  11.157   4.378
61108W        W27891  34.623   9.597  12.422
61109W        W27892  22.325  26.101  13.527
61110W        W27893  13.240  27.754   1.909
61111W        W27894   8.191   7.731   2.576
61112W        W27895  15.816  17.262   0.462
61113W        W27896   8.688  21.030   3.384
61114W        W27897  38.100  32.604  12.494
61115W        W27898  31.227  33.674  13.842
61116W        W27899  44.458   7.653  13.904
61117W        W27900  33.985  26.230   4.941
61118W        W27901  16.341   8.286  10.681
61119W        W27902   0.914  10.556  11.579
61120W        W27903  31.831  20.432   3.233
61121W        W27904  14.273  24.738   4.251
61122W        W27905  33.656  35.669   4.168
61123W        W27906  11.646  38.834   1.075
61124W        W27907  22.930  44.029   2.844
61125W        W27908  11.970  21.564  13.990
61126W        W27909  26.108  28.694  13.773
61127W        W27910   0.403  28.390  11.321
61128W        W27911   3.957  33.608  12.146
61129W        W27912  20.281  37.060  14.324
61130W        W27913   5.760  31.497   0.394
61131W        W27914  42.721  24.074  11.624
61132W        W27915   9.928  18.091  12.489
61133W        W27916  39.964  37.324   4.599
61134W        W27917  14.067  43.484  11.617
61135W        W27918  12.565  15.589   0.818
61136W        W27919   4.729  38.107   1.309
61137W        W27920   4.214   8.146   4.554
61138W        W27921   9.059  33.230  14.244
61139W        W27922  40.387  40.581   0.439
61140W        W27923  13.213  30.193  11.244
61141W        W27924  37.109  15.237   2.291
61142W        W27925  36.882   1.401  14.647
61143W        W27926  13.148  37.413   1.339
61144W        W27927  18.093  15.355  14.453
61145W        W27928  39.608  32.075   3.320
61146W        W27929  10.940   8.771   3.955
61147W        W27930  42.766  15.780   4.435
61148W        W27931  21.300  30.062   2.309
61149W        W27932  27.923  23.813   4.979
61150W        W27933  12.413  23.262   2.141
61151W        W27934  31.355  13.957   1.401
61152W        W27935  22.428  11.610  12.641
61153W        W27936   6.872  32.136  14.487
61154W        W27937  39.362   6.662  14.923
61155W        W27938   9.572   6.089  13.828
61156W        W27939  15.022  36.321   1.618
61157W        W27940   6.995  32.034  11.148
61158W        W27941  42.478  33.068   1.901
61159W        W27942  26.076  41.986   2.184
61160W        W27943  12.641  42.881   2.340
61161W        W27944  36.464  19.305  13.488
61162W        W27945  29.705  24.616  11.391
61163W        W27946  26.676  13.659  12.903
61164W        W27947  17.595  38.212   3.725
61165W        W27948   8.333  30.583   4.467
61166W        W27949   0.590  42.018   1.255
61167W        W27950  35.770   5.340  14.825
61168W        W27951  17.266   9.672  10.715
61169W        W27952  32.786  24.514   0.994
61170W        W27953   1.741  32.352  14.815
61171W        W27954  11.074  15.591  14.925
61172W        W27955  33.687  11.897  12.888
61173W        W27956   6.186  32.093  10.625
61174W        W27957  10.668   3.743   0.506
61175W        W27958  42.743  42.317   1.322
61176W        W27959   2.311  41.697  11.996
61177W        W27960   4.363  37.135   4.108
61178W        W27961  19.089  21.038   3.282
61179W        W27962  41.743  11.581   1.379
61180W        W27963  32.830   1.684   2.667
61181W        W27964  29.699  17.644  11.511
61182W        W27965  31.061  19.538  11.376
61183W        W27966  42.307   4.886  12.003
61184W        W27967  32.183  21.992   3.256
61185W        W27968  20.900  28.758   4.498
61186W        W27969  33.955  31.618   3.642
61187W        W27970  28.170  17.073  13.883
61188W        W27971  40.706  13.021  10.267
61189W        W27972  14.590   5.943   3.528
61190W        W27973  15.234  28.027   3.118
61191W        W27974  27.916  20.387   0.327
61192W        W27975  35.037  42.512  13.454
61193W        W27976  28.619  43.491   3.067
61194W        W27977  22.786  33.638   4.998
61195W        W27978   3.629   1.556  11.983
61196W        W27979  31.125   7.308  12.521
61197W        W27980  30.630   0.629   2.667
61198W        W27981  38.914  31.424  12.483
61199W        W27982   3.181  17.671   2.844
61200W        W27983  42.353   7.658  12.400
61201W        W27984  27.682  13.167   3.365
61202W        W27985  43.692  39.007   3.631
61203W        W27986  18.584   8.708  10.779
61204W        W27987   1.774   5.777  12.384
61205W        W27988  21.123  35.044   1.940
61206W        W27989  23.276  43.392  13.993
61207W        W27990  11.189  16.321   2.459
61208W        W27991  30.033  27.736  11.561
61209W        W27992  38.713  10.670  11.520
61210W        W27993  13.183  42.348  13.577
61211W        W27994  41.486  33.492   3.092
61212W        W27995  44.517  24.675   4.866
61213W        W27996  14.489  14.185  12.954
61214W        W27997  19.405  20.934   1.223
61215W        W27998  18.767   5.608  11.021
61216W        W27999  23.689  16.637  14.964
61217W        W28000  29.597  33.660  12.966
61218W        W28001  20.616   3.459   0.888
61219W        W28002  32.629  12.259   3.268
61220W        W28003  40.056   1.455   4.987
61221W        W28004  32.339  31.805  14.516
61222W        W28005  33.524  42.367  13.271
61223W        W28006  37.416  23.609  12.169
61224W        W28007   3.304   2.732   1.761
61225W        W28008   0.684   4.163  10.905
61226W        W28009   3.923  18.117   4.144
61227W        W28010  12.725  18.092   1.653
61228W        W28011   8.758  35.166  13.974
61229W        W28012  37.637  12.806   0.205
61230W        W28013  40.797  34.397   9.735
61231W        W28014  27.083   8.908   4.687
61232W        W28015  44.489  23.673   4.615
61233W        W28016   9.884  10.644   5.826
61234W        W28017  44.174  32.734   3.537
61235W        W28018  10.575  11.634  10.867
61236W        W28019  11.605   8.420   2.672
61237W        W28020  33.574   7.456   1.236
61238W        W28021  39.864  16.469  12.493
61239W        W28022   0.824   9.655  11.422
61240W        W28023  41.861  22.025  11.999
61241W        W28024  17.675  15.580  11.963
61242W        W28025  18.122  35.534  12.586
61243W        W28026   6.297   8.851   4.066
61244W        W28027  25.547   7.390   4.811
61245W        W28028  38.818  37.658   3.414
61246W        W28029  18.062   3.753   0.978
61247W        W28030  19.566   7.178   0.310
61248W        W28031  24.073  35.887   4.878
61249W        W28032  33.554  36.093   1.271
61250W        W28033  43.859  12.613   2.369
61251W        W28034  26.705  32.822   2.776
61252W        W28035  43.555  38.445  12.428
61253W        W28036   6.942   2.733   1.851
61254W        W28037  36.953  20.263  12.976
61255W        W28038  40.892  38.887   0.217
61256W        W28039  21.099  33.424   4.572
61257W        W28040  35.613  39.332  11.997
61258W        W28041  36.462  28.130  12.206
61259W        W28042  42.799   3.776   2.203
61260W        W28043  23.851  41.958   2.355
61261W        W28044  37.995  29.096   4.113
61262W        W28045  38.380  33.466  13.406
61263W        W28046  39.858  23.754  10.711
61264W        W28047  27.024   3.147  14.366
61265W        W28048  23.964   1.006   4.582
61266W        W28049  40.353   5.267  11.649
61267W        W28050  39.781  30.741  14.906
61268W        W28051  27.100  23.627  11.416
61269W        W28052   8.756  18.219   0.932
61270W        W28053  26.917   6.878   2.663
61271W        W28054   1.805   0.971   2.280
61272W        W28055  16.580  19.455  11.171
61273W        W28056  12.640   7.729  14.756
61274W        W28057  43.009  24.029  13.518
61275W        W28058   8.748  18.224  14.871
61276W        W28059   3.596   1.516   2.078
61277W        W28060  24.100   9.702   0.469
61278W        W28061  33.997   5.297   1.349
61279W        W28062   1.433  38.408   1.712
61280W        W28063  25.215  31.498  11.116
61281W        W28064  18.720  15.938  13.757
61282W        W28065   1.702  42.223  12.360
61283W        W28066  25.060  15.824   2.458
61284W        W28067   4.827  22.218   5.030
61285W        W28068   2.182   2.649  14.357
61286W        W28069   7.862   1.931  13.055
61287W        W28070   4.746  25.526  13.775
61288W        W28071  38.619  24.492   2.627
61289W        W28072   4.806  22.617  11.916
61290W        W28073   0.735  44.555  13.495
61291W        W28074  27.091   9.241   0.464
61292W        W28075  25.790  12.017   0.932
61293W        W28076  36.089   3.642  11.194
61294W        W28077  30.584   1.894   2.167
61295W        W28078  26.701  13.366   5.427
61296W        W28079  41.273   1.036   2.934
61297W        W28080   5.374  44.364  10.739
61298W        W28081  33.414  27.534  12.432
61299W        W28082   9.489  14.737  11.704
61300W        W28083  41.808  22.597   3.199
61301W        W28084  29.141  31.958  14.946
61302W        W28085  34.778  21.419  10.260
61303W        W28086  38.876  14.163  13.388
61304W        W28087  33.891  18.331   3.706
61305W        W28088  36.558  36.096  14.251
61306W        W28089   4.672  35.263   3.065
61307W        W28090   9.663  25.283   0.759
61308W        W28091  26.907  13.736   4.834
61309W        W28092   7.247  13.381  14.648
61310W        W28093  43.873  18.654   4.995
61311W        W28094  33.593  35.368  10.527
61312W        W28095  38.378  30.426  12.096
61313W        W28096  44.310  23.580  13.394
61314W        W28097  15.810  34.054  10.652
61315W        W28098  14.767  20.276  13.998
61316W        W28099  18.760  19.217   1.407
61317W        W28100  20.152  16.594   0.308
61318W        W28101   8.822  11.383   3.681
61319W        W28102   4.462  28.645   2.225
61320W        W28103  42.370  10.180   2.778
61321W        W28104  44.907  33.779  12.963
61322W        W28105  14.696  12.706  13.553
61323W        W28106  39.523  43.879  12.864
61324W        W28107  41.490  34.061   2.407
61325W        W28108  13.347  40.369   1.226
61326W        W28109  40.341  14.574  14.335
61327W        W28110  12.875   7.280  14.556
61328W        W28111  16.815   0.483   4.426
61329W        W28112   6.856  23.646   0.924
61330W        W28113   7.135  22.054  12.125
61331W        W28114  31.264  31.335   4.057
61332W        W28115  14.189  11.822  14.448
61333W        W28116  21.186  29.565   2.360
61334W        W28117  15.208  22.868   0.538
61335W        W28118  38.805  30.657  11.937
61336W        W28119  40.281  34.183  14.019
61337W        W28120  42.020  11.770  11.151
61338W        W28121  21.421   2.967  12.578
61339W        W28122  11.944  26.213   1.546
61340W        W28123   7.163  35.522   3.478
61341W        W28124  25.748  39.400  12.701
61342W        W28125  37.239  16.294  11.999
61343W        W28126  37.963   6.599  14.990
61344W        W28127   5.286  28.121  13.822
61345W        W28128  29.398  14.943   0.308
61346W        W28129  17.660   8.877  10.821
61347W        W28130   0.519  27.212  14.816
61348W        W28131  31.878  13.703   3.409
61349W        W28132   0.387  25.977  12.822
61350W        W28133  28.951  23.542   1.730
61351W        W28134  41.338  39.225  12.399
61352W        W28135  11.592  14.354  13.300
61353W        W28136  36.864  22.001   2.630
61354W        W28137  41.366  38.931   3.218
61355W        W28138  13.803  43.733   1.328
61356W        W28139  27.728  38.781   3.313
61357W        W28140  22.292  33.426  11.097
61358W        W28141  11.189   1.708   2.806
61359W        W28142  14.916   0.538   2.669
61360W        W28143   1.400   1.935  14.382
61361W        W28144  23.723  34.447  13.003
61362W        W28145   6.292  34.693  13.990
61363W        W28146  10.677  29.996  10.701
61364W        W28147  29.802   6.081  14.476
61365W        W28148  16.279  31.517   3.259
61366W        W28149  26.416   1.281   0.934
61367W        W28150  22.698  15.641  12.384
61368W        W28151   4.210  21.328   4.219
61369W        W28152  36.483   0.394   0.672
61370W        W28153  38.292   3.151   4.326
61371W        W28154  35.361  24.575  14.681
61372W        W28155   3.349  36.754  11.142
61373W        W28156  39.498  20.273  10.689
61374W        W28157  28.795  34.462   1.057
61375W        W28158   6.881  23.388   2.916
61376W        W28159   6.708  32.610  12.836
61377W        W28160  26.977  18.589  11.528
61378W        W28161   7.914  17.617   4.093
61379W        W28162  41.930  36.677  13.313
61380W        W28163  17.259  42.827  10.830
61381W        W28164   4.974  23.273   3.988
61382W        W28165  29.697   1.452  13.943
61383W        W28166  23.509  35.335   1.241
61384W        W28167  31.196  44.234  11.149
61385W        W28168  34.900  24.475  12.553
61386W        W28169   3.711  28.642  13.496
61387W        W28170   0.878   2.848  14.254
61388W        W28171   5.928  14.244   4.481
61389W        W28172   4.930   6.678   0.504
61390W        W28173  26.939  20.779   0.427
61391W        W28174  27.079  22.466   2.405
61392W        W28175  29.053   6.318   0.261
61393W        W28176  35.806   9.302   0.683
61394W        W28177  12.271   4.887   4.313
61395W        W28178  13.051  30.285   1.397
61396W        W28179  44.866  12.610   3.119
61397W        W28180   4.480  34.109  11.647
61398W        W28181  12.175  34.090   2.399
61399W        W28182  31.889   4.380   4.566
61400W        W28183   3.920  19.267   4.599
61401W        W28184   6.832   0.203  14.790
61402W        W28185  21.528  30.542  12.608
61403W        W28186   2.951   4.928  12.173
61404W        W28187   3.203  22.823   5.056
61405W        W28188  40.568  44.419   4.542
61406W        W28189   5.933  23.560  10.774
61407W        W28190  39.818  11.764  12.972
61408W        W28191  43.973   3.859  10.701
61409W        W28192  44.722  42.979   4.539
61410W        W28193  20.346  10.804  12.092
61411W        W28194  34.790  14.339  13.762
61412W        W28195  32.162  33.205   3.636
61413W        W28196  18.659  29.743  12.922
61414W        W28197  29.638  21.554   3.792
61415W        W28198  23.688  41.592   0.647
61416W        W28199   2.886  19.023   2.307
61417W        W28200  13.750  39.324  12.506
61418W        W28201  43.271  16.778  12.849
61419W        W28202  27.144  27.584  11.893
61420W        W28203   7.938   1.300   1.738
61421W        W28204  10.547  44.236   0.994
61422W        W28205  20.849  12.888   4.636
61423W        W28206  42.842  16.539   2.754
61424W        W28207   2.932  43.930   3.150
61425W        W28208  31.639  29.069   1.323
61426W        W28209  44.734  41.514   2.782
61427W        W28210  40.473   8.305   2.596
61428W        W28211   9.567   8.768  10.124
61429W        W28212  15.120  41.356  14.982
61430W        W28213  20.311  28.688   1.783
61431W        W28214  15.302  35.213   0.910
61432W        W28215  14.390   5.687   1.279
61433W        W28216  31.414   5.713  12.932
61434W        W28217  22.871  16.364   2.705
61435W        W28218   3.204  10.821  12.827
61436W        W28219  44.852   3.809   4.223
61437W        W28220  23.155  32.938   1.008
61438W        W28221  36.899   4.595   2.784
61439W        W28222  32.550  40.301   3.640
61440W        W28223  26.702  44.968  11.134
61441W        W28224  13.574  13.268   0.800
61442W        W28225  26.729   7.347  13.486
61443W        W28226   6.605  30.956  13.480
61444W        W28227  39.067  30.522   2.141
61445W        W28228  11.929  16.299   2.669
61446W        W28229  30.889  11.789  14.543
61447W        W28230   1.976  43.362   3.881
61448W        W28231  10.202  36.200   4.270
61449W        W28232  17.004  13.913  13.513
61450W        W28233  26.282  26.272   3.847
61451W        W28234  15.057  20.420   1.286
61452W        W28235  12.164  21.111   2.795
61453W        W28236  26.601  26.574   5.135
61454W        W28237  37.400  35.641   1.834
61455W        W28238  16.480  14.501   9.894
61456W        W28239  32.018  11.011   0.835
61457W        W28240  31.099   5.643  12.524
61458W        W28241  29.500   4.057   3.340
61459W        W28242   9.850  31.079  11.573
61460W        W28243  22.309  44.383  11.863
61461W        W28244  38.555   4.829  12.454
61462W        W28245  22.821  24.195  14.286
61463W        W28246  33.648  31.022  13.592
61464W        W28247  42.340   1.002   4.602
61465W        W28248  14.892   4.826   3.639
61466W        W28249   4.370  17.077   2.242
61467W        W28250   7.428   4.547   2.734
61468W        W28251  10.102  44.414  11.050
61469W        W28252  16.185  25.100   3.812
61470W        W28253  34.095   1.801   3.231
61471W        W28254   2.223  23.263   1.289
61472W        W28255  19.491  10.342   1.399
61473W        W28256  31.034  21.662   3.694
61474W        W28257   8.449  10.732  14.773
61475W        W28258   3.257  25.447  12.922
61476W        W28259   4.968  38.988  10.653
61477W        W28260  31.163  14.614   4.966
61478W        W28261  15.359  22.228  13.979
61479W        W28262  24.565  31.100   0.372
61480W        W28263  24.604  34.820  10.688
61481W        W28264   8.144   4.804   4.745
61482W        W28265  12.376   2.470   3.295
61483W        W28266  34.873  29.371   3.684
61484W        W28267  23.977  23.593   2.585
61485W        W28268  20.573   0.909  13.641
61486W        W28269   9.726  43.798   3.283
61487W        W28270  10.622  16.668  12.909
61488W        W28271  29.908  40.305   1.857
61489W        W28272  43.339  19.059  14.459
61490W        W28273  43.545  39.883  14.945
61491W        W28274  36.324  17.522  14.896
61492W        W28275  17.562   0.961  11.415
61493W        W28276   1.329  33.383   2.092
61494W        W28277  43.864  20.494  13.857
61495W        W28278  30.540  34.997   0.220
61496W        W28279  35.878   5.817  12.845
61497W        W28280  29.029   4.830   3.872
61498W        W28281  38.122   2.306   3.876
61499W        W28282  10.768  10.303   3.935
61500W        W28283  42.340   5.701   2.587
61501W        W28284   1.960  25.921   1.417
61502W        W28285   5.176  38.917   0.965
61503W        W28286  41.467   4.995   1.883
61504W        W28287  26.997   1.786  10.600
61505W        W28288  36.177  12.773   0.825
61506W        W28289  39.817  42.961  12.398
61507W        W28290  32.323  18.862  14.885
61508W        W28291  44.405  42.636  14.930
61509W        W28292  30.057  12.253  11.880
61510W        W28293   2.304  29.782   3.164
61511W        W28294  33.131  16.176   2.290
61512W        W28295  37.502  15.818  13.943
61513W        W28296  28.097  24.080   4.570
61514W        W28297  27.358  10.574   2.394
61515W        W28298  44.342  17.698   1.399
61516W        W28299  43.869  44.786   0.001
61517W        W28300  42.251   4.721  14.463
61518W        W28301  23.520   6.817   2.811
61519W        W28302   3.415  40.694   1.879
61520W        W28303   4.767  13.309   1.232
61521W        W28304  11.552  40.894   1.397
61522W        W28305  43.724  38.854  14.458
61523W        W28306  39.530   5.400   1.188
61524W        W28307   0.682  13.748  12.350
61525W        W28308  13.145   4.987  12.804
61526W        W28309  21.016  24.409  13.362
61527W        W28310  14.660  14.511   0.961
61528W        W28311  13.747   5.003  13.432
61529W        W28312   5.834  18.077  10.605
61530W        W28313   1.364  16.631  12.376
61531W        W28314  15.427  14.150   2.484
61532W        W28315  24.157  24.194   2.340
61533W        W28316  26.746  42.403  12.079
61534W        W28317  39.883  39.887   2.249
61535W        W28318  17.621  40.207  12.246
61536W        W28319  24.831  24.064  14.880
61537W        W28320  19.656  20.098  12.168
61538W        W28321   1.685  10.161   0.713
61539W        W28322  35.449   7.707  11.585
61540W        W28323   5.983  10.337   3.324
61541W        W28324  28.188  13.131  12.382
61542W        W28325   6.174   0.225   0.427
61543W        W28326   2.533  12.737   2.364
61544W        W28327  31.880   8.299   4.939
61545W        W28328   1.059  14.597  10.288
61546W        W28329  30.683  41.065   0.356
61547W        W28330  25.871   2.643   2.966
61548W        W28331  33.118   8.809  11.374
61549W        W28332  29.024  31.175  11.457
61550W        W28333  41.465  13.064   3.728
61551W        W28334  38.321  15.140  14.496
61552W        W28335  43.478  35.881  11.990
61553W        W28336  33.422  11.351   2.896
61554W        W28337   8.713  28.996   0.276
61555W        W28338   6.586   5.192  12.989
61556W        W28339  23.599  14.782  12.868
61557W        W28340  24.148  18.724  11.874
61558W        W28341  39.701   2.634  12.658
61559W        W28342  34.060  11.073  12.480
61560W        W28343  18.086  41.628  14.378
61561W        W28344  21.833  36.390   4.622
61562W        W28345  15.584  12.658   1.383
61563W        W28346  44.940  37.190  11.151
61564W        W28347  26.695   5.409   0.997
61565W        W28348  25.223  17.695   1.689
61566W        W28349  42.728   6.800   1.917
61567W        W28350  29.650  27.209   4.214
61568W        W28351   7.405   1.074   3.114
61569W        W28352  41.419  29.845  10.780
61570W        W28353   2.696  25.526  11.928
61571W        W28354  11.876  33.165   2.020
61572W        W28355  40.349   0.336   2.187
61573W        W28356  32.151  33.117  11.440
61574W        W28357  25.102  18.186  13.545
61575W        W28358  31.825  29.642   4.046
61576W        W28359  42.993  18.994  11.248
61577W        W28360  22.151  23.999  10.229
61578W        W28361  23.072   8.253   4.106
61579W        W28362  20.674  42.780   2.770
61580W        W28363   1.286  31.791  13.912
61581W        W28364  19.237   9.465  13.890
61582W        W28365   4.254  31.690  11.547
61583W        W28366  29.509   8.955  10.744
61584W        W28367  22.536   3.766  12.044
61585W        W28368  32.611  41.929  14.050
61586W        W28369  13.313  34.319   1.826
61587W        W28370  38.321   2.811  13.043
61588W        W28371  25.584  22.162  11.758
61589W        W28372  11.307  25.724   2.742
61590W        W28373   4.038  26.532   1.938
61591W        W28374  38.519  32.287  12.407
61592W        W28375  14.915   5.912   2.264
61593W        W28376  26.182  38.001   3.681
61594W        W28377  16.749  39.976   4.615
61595W        W28378  31.053  10.070   1.633
61596W        W28379  35.545  28.997  14.377
61597W        W28380  19.666  37.580   3.833
61598W        W28381  38.008   3.528   1.314
61599W        W28382  20.101  15.794   0.798
61600W        W28383  26.218  42.614  14.327
61601W        W28384  19.560   7.659   4.642
61602W        W28385   9.066  15.040  14.924
61603W        W28386  43.259  39.931  10.772
61604W        W28387  40.748  40.875   2.707
61605W        W28388   7.833   1.026  13.056
61606W        W28389  16.181  42.070   0.902
61607W        W28390  37.072  19.647  13.972
61608W        W28391  24.748  18.332   5.015
61609W        W28392  27.072  25.594  14.555
61610W        W28393  22.259  29.809  10.401
61611W        W28394   4.914  34.145  11.366
61612W        W28395   4.178  23.087   2.759
61613W        W28396  13.196  13.274  10.969
61614W        W28397  27.214  18.401  11.936
61615W        W28398   9.856   4.015  12.657
61616W        W28399  14.335   7.923   4.602
61617W        W28400  20.403  38.548   3.160
61618W        W28401  12.085   0.375  11.261
61619W        W28402  11.624  13.833  11.897
61620W        W28403   8.313  12.676   4.579
61621W        W28404  41.893   8.299   0.292
61622W        W28405   3.193   8.893  11.589
61623W        W28406   8.495  19.145  14.496
61624W        W28407   7.924   9.314   3.510
61625W        W28408  15.175  27.184  10.895
61626W        W28409  22.220  32.989   2.195
61627W        W28410  13.633  13.312   3.933
61628W        W28411  22.661  18.809   0.335
61629W        W28412  22.024  18.423  12.992
61630W        W28413  34.429  37.490  11.542
61631W        W28414  38.103  36.811   1.845
61632W        W28415  41.324   6.863  12.502
61633W        W28416  19.548   2.991   3.190
61634W        W28417  35.486   6.427  14.459
61635W        W28418  44.381  30.346   2.385
61636W        W28419  27.075  31.621  12.484
61637W        W28420  29.300  26.076  12.383
61638W        W28421  40.513  42.960  12.990
61639W        W28422  21.642  43.347  14.042
61640W        W28423  35.423  24.437  11.029
61641W        W28424   8.306   4.108   3.681
61642W        W28425  34.131  24.470  10.185
61643W        W28426  19.786  42.098  11.573
61644W        W28427   1.849  29.852   1.649
61645W        W28428  16.384   5.973   2.368
61646W        W28429   7.222  19.737   5.050
61647W        W28430  29.986   3.442  10.737
61648W        W28431  29.629  12.794   2.631
61649W        W28432  32.988  15.792  10.088
61650W        W28433  19.024  17.607   1.350
61651W        W28434  32.175   6.676  13.832
61652W        W28435  13.705   8.631   4.143
61653W        W28436  25.493  32.404   4.947
61654W        W28437  36.444  39.035   0.874
61655W        W28438  14.249  16.203   2.347
61656W        W28439   1.193   1.417  13.636
61657W        W28440  42.422  43.407  11.491
61658W        W28441  15.169  21.571   2.330
61659W        W28442   3.492   4.110  12.378
61660W        W28443  37.986  27.029   2.805
61661W        W28444  29.852  20.928  13.809
61662W        W28445  36.530   3.883  11.040
61663W        W28446  13.782  16.772  13.899
61664W        W28447  23.492  14.817   0.409
61665W        W28448  42.300  44.498  14.846
61666W        W28449  31.880   8.178  13.049
61667W        W28450  37.941  17.787  12.808
61668W        W28451  13.313  11.224   2.445
61669W        W28452  18.852  23.727   1.297
61670W        W28453   2.586   4.249  11.631
61671W        W28454  29.184  37.852  12.857
61672W        W28455  30.656  15.185   1.880
61673W        W28456  13.674  29.894   0.772
61674W        W28457   8.844  41.565  14.871
61675W        W28458  40.395  24.983   2.531
61676W        W28459  26.224  17.435  12.276
61677W        W28460   0.889  12.230  10.839
61678W        W28461  31.211  10.846   0.221
61679W        W28462   2.770  42.578  12.069
61680W        W28463   5.312   9.237  12.116
61681W        W28464  20.861  39.737  11.611
61682W        W28465  41.181  14.356   3.109
61683W        W28466   4.973  35.018   5.055
61684W        W28467  40.928   7.495  14.207
61685W        W28468   7.247  11.247  12.889
61686W        W28469   1.671  29.871  13.037
61687W        W28470  28.069  36.507   2.458
61688W        W28471   8.459  42.285   3.290
61689W        W28472  38.585  16.535  11.681
61690W        W28473  39.872  17.508   2.629
61691W        W28474  17.380  42.402   2.073
61692W        W28475  21.742   4.635  11.212
61693W        W28476  21.430  10.150   2.748
61694W        W28477  20.834   8.672   2.331
61695W        W28478  42.715  42.928   2.630
61696W        W28479  22.075  37.411  10.600
61697W        W28480  20.158  18.280  11.191
61698W        W28481   1.431  44.631  14.386
61699W        W28482  33.879  42.520   0.622
61700W        W28483   6.498  17.693  14.408
61701W        W28484  19.747   9.166  13.037
61702W        W28485  43.918  22.209   0.516
61703W        W28486  40.011  34.680  13.321
61704W        W28487  30.645  14.862  13.229
61705W        W28488  39.966  19.698  14.611
61706W        W28489  31.469  32.096   2.475
61707W        W28490  14.791  19.812   3.456
61708W        W28491  10.819  19.567   0.897
61709W        W28492  34.010  15.030  12.935
61710W        W28493  28.166   8.337  13.606
61711W        W28494  39.942   0.336   3.304
61712W        W28495   1.700  23.741  12.557
61713W        W28496  16.108  43.098   0.896
61714W        W28497   2.449  32.578  14.046
61715W        W28498  16.084  43.899   2.501
61716W        W28499   1.815   4.308   3.371
61717W        W28500   8.873   4.659   1.902
61718W        W28501  36.334  23.554   3.998
61719W        W28502   5.120   2.610  10.390
61720W        W28503  19.175  40.491  11.145
61721W        W28504   6.202  14.770  12.877
61722W        W28505   9.341  31.899   3.268
61723W        W28506  32.519  21.789   2.142
61724W        W28507  24.711  22.500   0.949
61725W        W28508  15.886   6.055  11.220
61726W        W28509  35.131  25.524   3.484
61727W        W28510  10.366  13.631  12.972
61728W        W28511  27.001  17.594  13.421
61729W        W28512  11.679   2.523  14.001
61730W        W28513  31.544  26.038  14.021
61731W        W28514  18.266  29.208  11.511
61732W        W28515   2.674  20.733   3.725
61733W        W28516  39.814  13.086  11.962
61734W        W28517  35.479  10.259   3.109
61735W        W28518  39.741  21.020   1.236
61736W        W28519  38.457  39.261   2.668
61737W        W28520  16.861  13.150  13.794
61738W        W28521   6.209  40.330  12.611
61739W        W28522  30.723  38.498  12.562
61740W        W28523  31.111  26.007  12.531
61741W        W28524  24.898  39.782  14.005
61742W        W28525  40.031  27.816   0.991
61743W        W28526  29.553  13.034   4.523
61744W        W28527  32.553  38.537   3.044
61745W        W28528  14.017  32.809   3.312
61746W        W28529  22.662  25.248   5.374
61747W        W28530  28.735  14.817  13.972
61748W        W28531  14.230  26.542  13.821
61749W        W28532   4.724   2.872  12.955
61750W        W28533  22.162  17.027   4.704
61751W        W28534   8.767   4.125   0.175
61752W        W28535  39.532  36.061  11.983
61753W        W28536  43.369  28.959  12.621
61754W        W28537  23.640   3.639  14.852
61755W        W28538  30.114  33.453  11.410
61756W        W28539  13.881  25.006   3.275
61757W        W28540  17.758  17.620  11.628
61758W        W28541  33.731  17.661  11.043
61759W        W28542  19.762  25.110   0.357
61760W        W28543  28.144  12.041  14.967
61761W        W28544  30.491   6.989  14.061
61762W        W28545  32.863  17.486   1.053
61763W        W28546  17.972  43.123   0.318
61764W        W28547  30.182  36.811   3.622
61765W        W28548  31.157  24.528  11.369
61766W        W28549  44.364  37.103   1.734
61767W        W28550   5.681  28.377  11.571
61768W        W28551   1.288   6.526  11.103
61769W        W28552  18.722  33.397  11.551
61770W        W28553  14.972  28.902  10.870
61771W        W28554   1.967  26.904   2.380
61772W        W28555  30.825  33.091   1.783
61773W        W28556  37.988   7.114   4.976
61774W        W28557  22.230  38.992  11.075
61775W        W28558  20.735  40.990   2.244
61776W        W28559  41.409  34.366   4.657
61777W        W28560   8.684  25.108   4.639
61778W        W28561  18.695   6.416   0.196
61779W        W28562   9.907   9.952  14.148
61780W        W28563   0.035  25.061  11.121
61781W        W28564  25.079   4.144  10.300
61782W        W28565  24.673  29.569   4.686
61783W        W28566   9.377  40.521  14.402
61784W        W28567  34.007   2.169   3.633
61785W        W28568  13.534  36.900   0.457
61786W        W28569   5.764  32.003   0.242
61787W        W28570  27.581  33.339   1.783
61788W        W28571  31.074  31.443   4.527
61789W        W28572  22.757  36.472   2.737
61790W        W28573  18.598  15.152   1.883
61791W        W28574  15.925   0.300   0.361
61792W        W28575  34.527  44.650   0.198
61793W        W28576  13.153  44.629   4.048
61794W        W28577  16.305   8.306   4.666
61795W        W28578  33.984  17.576   2.808
61796W        W28579   7.309  16.147  14.541
61797W        W28580  40.536  34.837   3.214
61798W        W28581   7.218  16.260  14.000
61799W        W28582  32.839  19.125   4.445
61800W        W28583  39.059  24.521  12.082
61801W        W28584  10.115  44.746   4.059
61802W        W28585  40.787  26.700   0.364
61803W        W28586  21.048  34.973   2.764
61804W        W28587  17.314  11.135   0.904
61805W        W28588  26.612  37.455   1.991
61806W        W28589  24.919  12.210   4.573
61807W        W28590  10.646  20.805   2.158
61808W        W28591  11.100  34.843  14.504
61809W        W28592  26.307  43.354   3.172
61810W        W28593   1.345  27.648   3.081
61811W        W28594   5.925  31.870   0.739
61812W        W28595   8.959   3.161   4.285
61813W        W28596  22.161  22.151  11.172
61814W        W28597  20.534   0.542  11.197
61815W        W28598   3.938   9.776  13.346
61816W        W28599   3.420  12.584   4.174
61817W        W28600  28.554  25.575   3.090
61818W        W28601   8.183  32.635  12.219
61819W        W28602  40.976  11.320  12.485
61820W        W28603  10.425  20.366   1.923
61821W        W28604  16.907  28.668   3.277
61822W        W28605  44.906  40.386   1.233
61823W        W28606  25.198   0.535   2.304
61824W        W28607  44.285  40.982  14.803
61825W        W28608  39.393  10.207  13.567
61826W        W28609  28.576   8.825  13.872
61827W        W28610  17.788  34.830  14.862
61828W        W28611  38.519  11.929  12.048
61829W        W28612  30.099  25.991  11.554
61830W        W28613  40.281  41.052   2.775
61831W        W28614  26.332  18.047  11.563
61832W        W28615  35.935  35.384   2.204
61833W        W28616   3.705  27.518   2.245
61834W        W28617  25.256  21.217  13.877
61835W        W28618  36.886   7.219   0.193
61836W        W28619   8.465  36.850   4.600
61837W        W28620  10.610  29.473  10.663
61838W        W28621  35.031  42.876  14.299
61839W        W28622  24.239  14.291  11.587
61840W        W28623   8.245  25.028   3.878
61841W        W28624  16.567   2.697  13.081
61842W        W28625  15.520  33.892  11.935
61843W        W28626  44.555  11.444   0.799
61844W        W28627  35.039  30.451  12.435
61845W        W28628  42.522  40.736   0.028
61846W        W28629  13.324  28.666   3.450
61847W        W28630  24.098  21.159  13.690
61848W        W28631   6.156  41.974  11.968
61849W        W28632  26.411   3.866   4.122
61850W        W28633  10.905  30.919   1.472
61851W        W28634  10.429  35.284  10.460
61852W        W28635   5.187   6.703  13.405
61853W        W28636  23.212   4.905   2.143
61854W        W28637  34.889  21.242   0.484
61855W        W28638  28.132  14.617  10.591
61856W        W28639  18.142  14.310   2.768
61857W        W28640  24.931  39.488  13.008
61858W        W28641   1.081  22.474   1.714
61859W        W28642  12.573  37.372  14.765
61860W        W28643  27.925   6.103  11.596
61861W        W28644  20.718  16.533  12.396
61862W        W28645  37.950  21.639  11.199
61863W        W28646  44.641  41.864   1.396
61864W        W28647   9.198  21.665   2.851
61865W        W28648  39.303  22.115  10.455
61866W        W28649  43.478  25.992  14.198
61867W        W28650  21.297  17.856  12.585
61868W        W28651  26.021  28.535   1.927
61869W        W28652  40.312  38.354   0.366
61870W        W28653   2.755  35.606  13.463
61871W        W28654  28.456  38.450  14.221
61872W        W28655  24.022  28.940   0.500
61873W        W28656  16.829  36.081  13.777
61874W        W28657  35.298   7.810   1.799
61875W        W28658   5.033  30.047  11.628
61876W        W28659  18.861  19.512   3.291
61877W        W28660  33.667  43.431   2.855
61878W        W28661  14.589  33.134   2.761
61879W        W28662   0.298  14.890   0.902
61880W        W28663  13.718   7.219   3.809
61881W        W28664  24.577  36.221   3.622
61882W        W28665  20.249  29.631   3.721
61883W        W28666  23.522  41.986  10.655
61884W        W28667   6.512  16.198  12.592
61885W        W28668  43.587  35.030  14.519
61886W        W28669  17.401  13.265   1.526
61887W        W28670  32.814  30.675  13.098
61888W        W28671  28.597  14.560   3.440
61889W        W28672  28.029   9.161   0.697
61890W        W28673  17.461  22.005  12.850
61891W        W28674  26.309  29.879   4.086
61892W        W28675  26.209  35.057   2.438
61893W        W28676  31.649   3.652  13.009
61894W        W28677  30.531  21.194  12.216
61895W        W28678  22.137  28.036  12.457
61896W        W28679  32.236  11.702   1.670
61897W        W28680  40.337  13.532  12.963
61898W        W28681  24.285   6.220   0.620
61899W        W28682  28.513  25.277  12.442
61900W        W28683  33.891  40.016  10.816
61901W        W28684  17.737  21.686  12.443
61902W        W28685  28.763   8.360  14.866
61903W        W28686  32.089  23.337   1.438
61904W        W28687  38.961  43.319   2.964
61905W        W28688  21.814  38.089   2.381
61906W        W28689  40.121   3.610  12.517
61907W        W28690   9.169  19.306  11.082
61908W        W28691  32.488  26.460  11.573
61909W        W28692  13.145   9.435   4.014
61910W        W28693  14.274  30.950  14.595
61911W        W28694  15.226   2.272  13.025
61912W        W28695  22.587  29.971   1.445
61913W        W28696  22.678  27.707  11.847
61914W        W28697  20.555  19.513   0.451
61915W        W28698   7.262  29.551  12.614
61916W        W28699  10.768  42.108   2.740
61917W        W28700  39.381  28.649  14.503
61918W        W28701  27.161  19.089   4.783
61919W        W28702  24.755  39.876   4.393
61920W        W28703  15.554   3.327   0.401
61921W        W28704  21.271  35.875  13.578
61922W        W28705  28.049   4.254  14.400
61923W        W28706   8.810  27.144   1.881
61924W        W28707  32.410  11.571  11.849
61925W        W28708  32.568  25.774  11.104
61926W        W28709  16.660  13.607   3.626
61927W        W28710   2.319  25.866  11.905
61928W        W28711  38.284   0.007  11.976
61929W        W28712  21.587   4.631   2.792
61930W        W28713  40.244  10.914  12.448
61931W        W28714  20.090  26.645   2.286
61932W        W28715   9.857  22.688  14.774
61933W        W28716  28.700   8.379   4.220
61934W        W28717   0.052  12.385  13.853
61935W        W28718  13.311   1.475   4.576
61936W        W28719   9.202  10.020   2.816
61937W        W28720  12.885  30.198  11.875
61938W        W28721  10.635  20.985  14.977
61939W        W28722  44.110  25.114  10.304
61940W        W28723  22.439   8.301  13.339
61941W        W28724  28.707  16.805  12.028
61942W        W28725  10.862  12.386   1.252
61943W        W28726  40.432   0.093  12.864
61944W        W28727   4.876  31.060  13.822
61945W        W28728  23.999  28.797  13.534
61946W        W28729  31.255   2.853   1.704
61947W        W28730  10.613  42.852   4.116
61948W        W28731  41.215  30.884   1.739
61949W        W28732  42.365  23.111   4.444
61950W        W28733  15.801  44.405  14.704
61951W        W28734  24.204  41.521   0.475
61952W        W28735  39.452  10.451  14.032
61953W        W28736  17.496  38.081   1.914
61954W        W28737  35.901  34.106  10.430
61955W        W28738  15.227  36.542  12.856
61956W        W28739   7.170  32.689  13.078
61957W        W28740   9.608   4.140   2.090
61958W        W28741   8.770  30.304   2.813
61959W        W28742   7.840  42.480   1.954
61960W        W28743  37.024  32.065  14.501
61961W        W28744  19.297   3.280   2.796
61962W        W28745  38.811  33.063  10.245
61963W        W28746  21.695  39.886  14.790
61964W        W28747  42.140  44.943  11.624
61965W        W28748  23.623  12.126  14.561
61966W        W28749  44.742   3.825  12.185
61967W        W28750  44.421  43.319   4.810
61968W        W28751   0.986  30.137   3.834
61969W        W28752   3.824   9.137   1.337
61970W        W28753  26.238  16.837   1.723
61971W        W28754  19.708  29.494   0.049
61972W        W28755   5.096  10.137  14.545
61973W        W28756  22.823   3.866  13.540
61974W        W28757  17.172  41.558   1.906
61975W        W28758  39.148   0.792   1.402
61976W        W28759  20.403  16.078  13.051
61977W        W28760  29.008  37.766   2.612
61978W        W28761  11.247  12.236   2.286
61979W        W28762  44.513  38.758   1.057
61980W        W28763   7.137   6.450   3.582
61981W        W28764  35.104  30.107   4.151
61982W        W28765  38.069  31.481  14.997
61983W        W28766  43.278  39.786  12.065
61984W        W28767   2.528  40.254  14.819
61985W        W28768  23.013  17.104  11.283
61986W        W28769  31.749  23.724   1.430
61987W        W28770  13.311  19.177   3.709
61988W        W28771  39.791  40.319  14.831
61989W        W28772   3.368  34.148   3.738
61990W        W28773  17.844  43.702   1.402
61991W        W28774  13.784  19.519  10.690
61992W        W28775   1.383   6.938  11.990
61993W        W28776   7.220   6.288   4.579
61994W        W28777  40.034  41.190   1.814
61995W        W28778  16.804  27.413  11.642
61996W        W28779  19.095   3.181  12.404
61997W        W28780   4.293  17.383  11.975
61998W        W28781  44.538  36.247   3.733
61999W        W28782   2.010  18.039  12.158
62000W        W28783  42.090  23.933   0.770
62001W        W28784   8.696   0.605   1.590
62002W        W28785  17.361  36.686   4.225
62003W        W28786   2.800  29.698  12.018
62004W        W28787  24.004  32.907   4.070
62005W        W28788  21.487  12.840  13.151
62006W        W28789  21.710  10.434  14.338
62007W        W28790   7.475  25.587   2.736
62008W        W28791  32.237   2.253  13.231
62009W        W28792  17.949  22.083  11.568
62010W        W28793  33.037  39.510   3.213
62011W        W28794   7.738  21.515  13.346
62012W        W28795   3.326  44.204   1.126
62013W        W28796  44.852  11.237   0.369
62014W        W28797   4.917   7.174  13.888
62015W        W28798  27.466  42.819  11.052
62016W        W28799   0.782  35.236  13.084
62017W        W28800  39.799   9.763  13.993
62018W        W28801   0.479   7.875   0.727
62019W        W28802  18.058  39.242   0.798
62020W        W28803  20.224  36.318   2.819
62021W        W28804  36.500  39.401  10.983
62022W        W28805  18.299  13.062  13.465
62023W        W28806  23.584  23.100   1.175
62024W        W28807  44.785  13.633  14.403
62025W        W28808  39.752  20.064  12.129
62026W        W28809  15.754  42.769  10.174
62027W        W28810  23.318  35.951  13.292
62028W        W28811  21.615  12.075  14.439
62029W        W28812  21.516  17.674   0.515
62030W        W28813  25.435  19.711   4.037
62031W        W28814   3.920  19.669  13.019
62032W        W28815  27.545   5.929   3.396
62033W        W28816  19.589  12.803   0.283
62034W        W28817   1.984  22.084   2.488
62035W        W28818  16.258  12.593   3.789
62036W        W28819  13.233   9.406   0.408
62037W        W28820   2.669  41.732  14.975
62038W        W28821  41.080  42.228   3.262
62039W        W28822  14.186  38.302  14.288
62040W        W28823  34.366  29.026  12.933
62041W        W28824  12.495  42.084  14.891
62042W        W28825   0.196   8.310   2.287
62043W        W28826  39.595  34.931   3.345
62044W        W28827  39.489   1.299   4.129
62045W        W28828  43.899  34.397   3.618
62046W        W28829  22.780  38.835  13.843
62047W        W28830   8.243  42.055  10.690
62048W        W28831  10.764  39.886   3.284
62049W        W28832   6.609   1.294   0.972
62050W        W28833  17.636  15.351  12.438
62051W        W28834  22.032  36.562   1.287
62052W        W28835  20.558  16.299   3.996
62053W        W28836   7.171   1.713  12.556
62054W        W28837  30.592   9.502   4.131
62055W        W28838  26.969  41.928   2.283
62056W        W28839  34.963  35.944  14.094
62057W        W28840  17.139  20.498  10.689
62058W        W28841  34.570  31.094   2.605
62059W        W28842   3.697  23.918   0.456
62060W        W28843  27.785  42.946   4.259
62061W        W28844   5.323   9.105   2.931
62062W        W28845  32.615   3.966   3.228
62063W        W28846   1.690  12.576  12.535
62064W        W28847  37.975  27.913  12.464
62065W        W28848  23.042  19.700   3.297
62066W        W28849   3.560  37.509   9.773
62067W        W28850  29.229  14.657  10.876
62068W        W28851   6.419  37.302   1.396
62069W        W28852   4.248  29.441  11.228
62070W        W28853  24.688  24.207   4.049
62071W        W28854  28.599  39.671   5.478
62072W        W28855  26.669   8.820   5.089
62073W        W28856  42.760  27.594   1.432
62074W        W28857   4.063  24.104  11.182
62075W        W28858  39.408  35.006  14.824
62076W        W28859  37.620  11.138   0.713
62077W        W28860   2.299  36.945   4.176
62078W        W28861  43.666  34.535  13.947
62079W        W28862  12.376  29.627  11.620
62080W        W28863   3.154  28.291   4.262
62081W        W28864  27.126  14.843  12.414
62082W        W28865   5.958  40.596  11.933
62083W        W28866  41.283  12.357   5.104
62084W        W28867  11.258  35.360   1.412
62085W        W28868  32.950  36.364   0.754
62086W        W28869   6.313   2.311  10.602
62087W        W28870  18.567  24.741   1.383
62088W        W28871  23.081  14.676   3.720
62089W        W28872   6.846  22.047   0.877
62090W        W28873   3.938  32.672   2.709
62091W        W28874  26.021  34.416  13.945
62092W        W28875  16.263   2.677   2.329
62093W        W28876  33.066  17.807   4.730
62094W        W28877  21.127  32.368   2.208
62095W        W28878  21.688  35.032  13.707
62096W        W28879  33.979  35.317   0.830
62097W        W28880  14.782   4.485   2.254
62098W        W28881  32.438  44.293  13.470
62099W        W28882  32.745  42.917  14.179
62100W        W28883  41.232  41.483   2.220
62101W        W28884   3.610  35.877   1.691
62102W        W28885  16.326  17.222  10.598
62103W        W28886  17.028  16.358   1.365
62104W        W28887   2.730   7.762   1.292
62105W        W28888   9.286  35.918  12.049
62106W        W28889   9.160  17.857  13.619
62107W        W28890   8.630  24.274  12.879
62108W        W28891  26.338   6.355  12.067
62109W        W28892   5.597  27.211   3.597
62110W        W28893  29.260   1.373   2.550
62111W        W28894   6.329  32.317  13.563
62112W        W28895  41.316   4.405   0.717
62113W        W28896  39.121  28.263   5.181
62114W        W28897   5.351  43.864   0.983
62115W        W28898  30.172  20.830   9.797
62116W        W28899  14.562  16.433  12.219
62117W        W28900  38.200   1.851  10.696
62118W        W28901  29.596  38.374   3.145
62119W        W28902  19.788  14.038   4.487
62120W        W28903  28.142  29.266  14.375
62121W        W28904  40.932  37.134   2.351
62122W        W28905  27.313   8.649   2.318
62123W        W28906  34.942  30.722   2.661
62124W        W28907   0.116  33.818  12.147
62125W        W28908  14.189  21.767  12.008
62126W        W28909  27.298  16.371   4.616
62127W        W28910  34.823  17.163  12.999
62128W        W28911   8.260   9.369   0.060
62129W        W28912  33.152  32.661  10.687
62130W        W28913  38.620  30.475  13.999
62131W        W28914  44.379   0.860  11.956
62132W        W28915  35.056   8.340  14.870
62133W        W28916  23.181  36.971  14.361
62134W        W28917  32.389   8.235   4.409
62135W        W28918  18.005  38.404  11.492
62136W        W28919  33.342  11.567  10.363
62137W        W28920   9.812  36.539   1.000
62138W        W28921  34.592   0.716   2.417
62139W        W28922  44.303  10.113   2.402
62140W        W28923  19.002   0.864   1.272
62141W        W28924  22.987   4.913  13.949
62142W        W28925  40.306  36.999  14.889
62143W        W28926  33.956  34.317  14.833
62144W        W28927  44.703  31.689  12.005
62145W        W28928  38.437  28.983  11.929
62146W        W28929  11.870  12.309   4.237
62147W        W28930   4.769  44.164  10.836
62148W        W28931  12.517  30.895  11.777
62149W        W28932   3.776   6.111   0.048
62150W        W28933   3.146  36.062   9.921
62151W        W28934  29.142  30.159   1.410
62152W        W28935   5.771  17.101  10.455
62153W        W28936  18.076   4.728   1.770
62154W        W28937  33.821  25.054   2.788
62155W        W28938  13.834   4.756  11.925
62156W        W28939  10.368  16.572  14.413
62157W        W28940  40.832  28.170   1.792
62158W        W28941  18.493  22.585   4.549
62159W        W28942   9.427  36.532   0.480
62160W        W28943  15.279  38.825  14.863
62161W        W28944   2.425  30.633   1.361
62162W        W28945  12.784  12.585   0.521
62163W        W28946  28.187  38.053   3.212
62164W        W28947  15.113  30.286   1.966
62165W        W28948  44.912   1.511  12.196
62166W        W28949  22.146  31.689   1.870
62167W        W28950  39.036  11.029  11.987
62168W        W28951  31.257  26.567  10.308
62169W        W28952  27.690  13.731   4.807
62170W        W28953  32.172  44.326  13.903
62171W        W28954   4.622   1.570   0.084
62172W        W28955  38.633  19.856  13.496
62173W        W28956  34.881  23.225  14.185
62174W        W28957  22.066  21.198   4.941
62175W        W28958  19.282  38.061  13.416
62176W        W28959  29.499  38.279  12.813
62177W        W28960  22.650  20.271  11.583
62178W        W28961  34.722   2.626   0.134
62179W        W28962  42.151   9.433  10.733
62180W        W28963  40.388  39.556  13.842
62181W        W28964  29.453   6.672  11.579
62182W        W28965  21.829  22.840  11.532
62183W        W28966   6.180   9.517   1.308
62184W        W28967  15.339   6.173   0.709
62185W        W28968  37.422  22.002  13.989
62186W        W28969  41.711  19.949   2.632
62187W        W28970  20.130   4.325   3.572
62188W        W28971  12.223  43.972  11.987
62189W        W28972  34.890  34.063  14.861
62190W        W28973  10.430  15.806   2.254
62191W        W28974  30.993  30.504  10.743
62192W        W28975  14.215  33.614   4.685
62193W        W28976   1.397   5.625   0.712
62194W        W28977   5.580  42.739  13.298
62195W        W28978  35.078   0.849   3.122
62196W        W28979  41.387   6.233  11.321
62197W        W28980   1.162  11.599  11.040
62198W        W28981  40.931  44.534   3.683
62199W        W28982  36.907  33.520  12.879
62200W        W28983  29.114   9.387   2.307
62201W        W28984  17.948  16.806   5.062
62202W        W28985  27.642  22.162  10.747
62203W        W28986  13.858  25.489   2.416
62204W        W28987  19.962   1.850  10.233
62205W        W28988  37.213   1.741  11.791
62206W        W28989  32.510  18.111   4.081
62207W        W28990  39.492  33.083   1.905
62208W        W28991   5.452  17.577   3.708
62209W        W28992  40.087  29.188   2.133
62210W        W28993  30.460   5.957  14.996
62211W        W28994  32.107  42.277   2.564
62212W        W28995   1.746   7.917   4.047
62213W        W28996  36.629  27.226  13.103
62214W        W28997  39.108  22.414   3.432
62215W        W28998  19.969  30.058   3.611
62216W        W28999  20.600   2.046   0.913
62217W        W29000  27.520  20.631  11.214
62218W        W29001  16.240  21.967   3.823
62219W        W29002  42.773  39.962   3.804
62220W        W29003  34.930  38.814   2.707
62221W        W29004   3.724   6.357   4.309
62222W        W29005   0.257  21.922  12.993
62223W        W29006  16.319  13.252  12.944
62224W        W29007  10.365  23.257   1.738
62225W        W29008  28.704  42.321  11.087
62226W        W29009   0.726  31.050  11.537
62227W        W29010  39.237  19.991  12.039
62228W        W29011  30.954  11.314   4.339
62229W        W29012  35.837  35.245   5.123
62230W        W29013   1.854  13.694  12.029
62231W        W29014  17.099  44.888   3.827
62232W        W29015  42.995  29.059   4.574
62233W        W29016   9.798  15.738  12.542
62234W        W29017  15.566  27.197  11.231
62235W        W29018  44.064   6.236  13.800
62236W        W29019  15.828  38.831   0.487
62237W        W29020  30.325  17.853   1.233
62238W        W29021  38.278  23.308  14.331
62239W        W29022  30.873  28.015  11.954
62240W        W29023  17.244  14.536   3.220
62241W        W29024  25.651  17.353  13.446
62242W        W29025  31.631  33.937  10.678
62243W        W29026   6.226  34.217  13.817
62244W        W29027  31.994  15.378   3.197
62245W        W29028  44.536   4.925  10.072
62246W        W29029  43.064  29.948  12.137
62247W        W29030   5.737   1.759   1.891
62248W        W29031  12.218  34.598   4.356
62249W        W29032  40.505   0.804   3.608
62250W        W29033  34.631  27.728   3.235
62251W        W29034  29.198  34.645   3.214
62252W        W29035  19.319  31.528   1.221
62253W        W29036  44.497  29.053  14.057
62254W        W29037   0.271   2.118   0.243
62255W        W29038   8.660  24.146   3.225
62256W        W29039  23.771  17.897   2.399
62257W        W29040  26.687   4.232   3.311
62258W        W29041  33.504  12.877   1.588
62259W        W29042  39.100  11.127   0.890
62260W        W29043  25.550  16.378  14.801
62261W        W29044  26.012   3.940   4.598
62262W        W29045  39.614   4.412  14.875
62263W        W29046  29.585  31.160   0.705
62264W        W29047  24.593  14.526   1.858
62265W        W29048  44.520   1.795   4.285
62266W        W29049  23.286  43.055   2.765
62267W        W29050  12.601  31.568  10.642
62268W        W29051  26.061  16.361  12.485
62269W        W29052  13.199  15.521   2.807
62270W        W29053  34.949  42.805  14.803
62271W        W29054  24.031   9.817   2.038
62272W        W29055   3.347  21.636  14.446
62273W        W29056   1.000   5.717  14.011
62274W        W29057  32.166  35.462  11.418
62275W        W29058  21.324  39.413  10.420
62276W        W29059  40.568   4.880   1.340
62277W        W29060  14.733   7.655   3.813
62278W        W29061  25.959  16.758  14.914
62279W        W29062   3.894  22.465   1.933
62280W        W29063  13.475  24.355   4.105
62281W        W29064  27.393  28.490  10.927
62282W        W29065  15.596  39.307   2.020
62283W        W29066  24.640  13.757  14.989
62284W        W29067  10.616  38.065  11.341
62285W        W29068  24.457  26.894  11.846
62286W        W29069  30.945   5.903  13.462
62287W        W29070  40.820  36.332  11.148
62288W        W29071  36.122  37.815   3.623
62289W        W29072  11.700  37.259   0.280
62290W        W29073  41.516  33.932  12.994
62291W        W29074  19.011  41.419  14.759
62292W        W29075   4.809  28.113  14.038
62293W        W29076  39.237  19.755  11.592
62294W        W29077  42.766   9.486   4.144
62295W        W29078   0.005  44.565   4.267
62296W        W29079  12.659  13.297  12.737
62297W        W29080  13.967  20.413  13.112
62298W        W29081  40.353   0.388  13.339
62299W        W29082  15.172   4.323   3.624
62300W        W29083  18.553  37.510  14.614
62301W        W29084   2.517  18.186   3.182
62302W        W29085  37.417  30.073   3.234
62303W        W29086  42.490   5.337  10.712
62304W        W29087  42.387  21.598   3.195
62305W        W29088  15.661   1.518  11.219
62306W        W29089  19.742  41.358  11.114
62307W        W29090   5.232  37.471   4.037
62308W        W29091  10.348  17.505   4.694
62309W        W29092   3.538  20.712  14.316
62310W        W29093  34.032  29.116   2.336
62311W        W29094  42.390  36.867   3.208
62312W        W29095  18.450  44.946   2.749
62313W        W29096  39.763  29.503   4.201
62314W        W29097  21.224  11.175  14.919
62315W        W29098  25.723  24.835   3.870
62316W        W29099  21.477  42.017   3.304
62317W        W29100  31.007  44.259  14.713
62318W        W29101   3.195   6.974  14.857
62319W        W29102  22.300  14.191  13.624
62320W        W29103  33.018  11.362   2.213
62321W        W29104  25.536   2.968   2.702
62322W        W29105  42.814  26.043   1.698
62323W        W29106  38.787  34.546  13.036
62324W        W29107   9.121  25.794  12.616
62325W        W29108  41.430  42.888   2.155
62326W        W29109  24.016   9.490  13.484
62327W        W29110   7.247  26.675   1.128
62328W        W29111  11.599  43.215   1.895
62329W        W29112  37.527   4.296  12.134
62330W        W29113  33.452   6.662   0.007
62331W        W29114   0.401  30.649  12.844
62332W        W29115  29.888  35.290  12.645
62333W        W29116  32.488   6.357   0.357
62334W        W29117  17.317  28.671   0.292
62335W        W29118   9.285   1.797   0.448
62336W        W29119  18.747  12.160  10.629
62337W        W29120  25.412  17.571   2.197
62338W        W29121   5.395  22.780  14.046
62339W        W29122  18.058  10.018   0.882
62340W        W29123   6.795   5.243   0.810
62341W        W29124  24.148  23.253  11.456
62342W        W29125  28.885  14.362  13.692
62343W        W29126  27.121  28.523  11.364
62344W        W29127  20.726  16.806   1.329
62345W        W29128  40.944  20.670   1.688
62346W        W29129  14.655  25.042  14.082
62347W        W29130  44.918  10.189   1.230
62348W        W29131  44.956  42.364  13.364
62349W        W29132  13.865  31.557  13.399
62350W        W29133  17.675  21.237  10.594
62351W        W29134   4.322  17.770  11.619
62352W        W29135  25.176  32.544  10.872
62353W        W29136  19.057  12.178   1.349
62354W        W29137  23.189  21.757  14.670
62355W        W29138  10.313  18.870   2.876
62356W        W29139  19.725  34.988  11.996
62357W        W29140  43.777  24.425   2.414
62358W        W29141  42.322   2.786   4.196
62359W        W29142  39.680   5.892  10.772
62360W        W29143  29.133  23.488   3.595
62361W        W29144   2.304  10.911   4.291
62362W        W29145  39.313   8.307  13.746
62363W        W29146   1.750  13.229  13.112
62364W        W29147  24.649  40.279  12.546
62365W        W29148  39.362  14.703   0.221
62366W        W29149  14.866   4.248   1.353
62367W        W29150  41.461  37.322   1.193
62368W        W29151  12.630  15.256  14.490
62369W        W29152  43.791  34.604  12.947
62370W        W29153  13.131  16.055  10.764
62371W        W29154  18.723   6.769   0.972
62372W        W29155  43.801  18.394  14.266
62373W        W29156  32.482   2.297  11.539
62374W        W29157  14.750  16.335   4.106
62375W        W29158   1.634   0.419  11.204
62376W        W29159  10.404  16.060   0.356
62377W        W29160  44.789  26.686   3.639
62378W        W29161   7.627  21.209  10.243
62379W        W29162  17.089  21.326  11.105
62380W        W29163  10.083  17.391   1.366
62381W        W29164  19.242  24.487  13.487
62382W        W29165  25.381  40.537   2.653
62383W        W29166   6.365   8.979   3.024
62384W        W29167   4.965  14.147   4.625
62385W        W29168  31.401  44.432   0.417
62386W        W29169  37.149  15.127   1.015
62387W        W29170  13.667   6.292   3.304
62388W        W29171   8.385  26.140   3.659
62389W        W29172  12.400  14.515   2.817
62390W        W29173  31.044  13.157  13.719
62391W        W29174   5.538  23.394  10.479
62392W        W29175   0.387  22.706   1.164
62393W        W29176  37.200  22.951  13.294
62394W        W29177  26.734   4.409   3.813
62395W        W29178   6.646  31.677   1.498
62396W        W29179  15.122  29.859  12.272
62397W        W29180  20.294  10.165  12.465
62398W        W29181  16.093  33.822  14.411
62399W        W29182   9.314  28.602   4.722
62400W        W29183  43.847  24.304  12.856
62401W        W29184  42.426   3.684   3.186
62402W        W29185  28.680   5.412   0.767
62403W        W29186  28.749   5.439  11.519
62404W        W29187  33.607   6.763  11.659
62405W        W29188   6.917  42.544   2.114
62406W        W29189  36.390  35.357  12.061
62407W        W29190  23.397  33.472  11.982
62408W        W29191  19.811   3.837  14.274
62409W        W29192  40.321  25.075   4.122
62410W        W29193   7.748  14.559   2.248
62411W        W29194  27.629  27.669   2.346
62412W        W29195  10.112  14.673  12.192
62413W        W29196  17.687  36.919   0.626
62414W        W29197  12.289  25.563  12.254
62415W        W29198  17.980  38.071  12.669
62416W        W29199  31.555  12.471   2.671
62417W        W29200  19.106   9.127  11.049
62418W        W29201  24.190  21.232  12.687
62419W        W29202  36.955  21.384   0.222
62420W        W29203  22.607  25.350   3.569
62421W        W29204  37.271   3.091   2.927
62422W        W29205  16.395  26.561  12.473
62423W        W29206   5.527  23.670  11.217
62424W        W29207  28.085  30.580   3.610
62425W        W29208  42.974  31.570   1.348
62426W        W29209  43.859  42.049   4.744
62427W        W29210  16.822  16.581   0.033
62428W        W29211   1.872  30.370   1.772
62429W        W29212  26.839  17.646  14.884
62430W        W29213  37.926  15.797  14.267
62431W        W29214  29.516  26.621  11.659
62432W        W29215   4.501  40.589   4.697
62433W        W29216  36.869  30.573   3.820
62434W        W29217  37.548  43.857   0.942
62435W        W29218  23.207  10.525   4.599
62436W        W29219  10.045   8.203  11.907
62437W        W29220  35.824  35.341  12.109
62438W        W29221  33.135  36.858   3.103
62439W        W29222  39.958   3.447   4.582
62440W        W29223   0.441  32.211   1.711
62441W        W29224  33.085  15.626  14.819
62442W        W29225   9.166  14.705  12.164
62443W        W29226  12.746  22.620  10.657
62444W        W29227   8.006   7.181   5.133
62445W        W29228  32.660  38.606  10.984
62446W        W29229  21.572  33.063   0.983
62447W        W29230  27.496  36.989   2.660
62448W        W29231  30.104   9.297  12.965
62449W        W29232  25.161  19.749   3.184
62450W        W29233   3.268  21.964   2.349
62451W        W29234  38.489   5.557   4.577
62452W        W29235   2.469  40.604   0.264
62453W        W29236  32.835  29.977  14.424
62454W        W29237  43.809   1.632   1.464
62455W        W29238  31.477   8.985   5.299
62456W        W29239  27.174  13.342   2.301
62457W        W29240  34.139  25.650  13.842
62458W        W29241  12.305   1.369   1.799
62459W        W29242  36.566  37.015   0.807
62460W        W29243  18.676  20.780   4.418
62461W        W29244  30.612  12.589  13.386
62462W        W29245  24.901  29.922  12.598
62463W        W29246   1.890  22.410   0.431
62464W        W29247  21.934   1.038  10.140
62465W        W29248   6.758  28.897   1.159
62466W        W29249  18.125  29.037  11.979
62467W        W29250  20.201  20.718  14.592
62468W        W29251   6.628   0.101  13.946
62469W        W29252   8.264  44.441  13.149
62470W        W29253  35.844  16.463   0.743
62471W        W29254   4.282  28.187   0.805
62472W        W29255  30.162   6.167  10.717
62473W        W29256  42.135  12.703   3.132
62474W        W29257  20.632   0.173  11.759
62475W        W29258  43.089  39.999  11.588
62476W        W29259   2.848  31.031  13.802
62477W        W29260  42.716  20.270   4.656
62478W        W29261  24.904  14.114   1.904
62479W        W29262  44.962  35.466   1.419
62480W        W29263   4.251   7.797  10.627
62481W        W29264  35.501  28.408   1.681
62482W        W29265  26.052  16.638  12.909
62483W        W29266  44.660  33.421  10.267
62484W        W29267  31.972  18.935  10.491
62485W        W29268  16.271  17.762  10.529
62486W        W29269  11.377  14.688   0.512
62487W        W29270   4.999  15.620  14.513
62488W        W29271   9.075   3.452   9.812
62489W        W29272  15.114  41.364   3.331
62490W        W29273  35.376   4.800   3.635
62491W        W29274  34.847  12.173   0.141
62492W        W29275   0.984   2.474  13.902
62493W        W29276  31.065  29.625   3.764
62494W        W29277  27.021  38.846   2.690
62495W        W29278  25.666   7.331  12.649
62496W        W29279  14.752  10.225  10.742
62497W        W29280  32.953  35.709   0.084
62498W        W29281   0.805  32.552   2.810
62499W        W29282  23.047  38.022   1.926
62500W        W29283  15.346  13.411  12.728
62501W        W29284   9.681   5.313  10.525
62502W        W29285  35.272  16.528  14.710
62503W        W29286   3.622   5.127  14.606
62504W        W29287  34.018  26.712  13.320
62505W        W29288  14.531  22.141   2.273
62506W        W29289  40.523  18.294   3.664
62507W        W29290  44.096  12.436  13.839
62508W        W29291   2.284   3.735  12.320
62509W        W29292  40.514  20.669   0.397
62510W        W29293  16.916  39.812  14.475
62511W        W29294   9.525   1.288  14.306
62512W        W29295  18.713   4.710   4.163
62513W        W29296   1.819  39.458  11.261
62514W        W29297  27.706  41.429  13.523
62515W        W29298  30.451  41.133  11.643
62516W        W29299   9.680   8.832  12.614
62517W        W29300   8.359  30.164  14.717
62518W        W29301  10.330  28.504   4.381
62519W        W29302  43.171  17.714  13.068
62520W        W29303  14.755  40.908   1.964
62521W        W29304  25.039  10.808   1.074
62522W        W29305  40.636  35.986   4.790
62523W        W29306  11.668  36.482   2.683
62524W        W29307  42.893  16.456  10.197
62525W        W29308  27.008  36.579   1.234
62526W        W29309  24.206  26.767   5.078
62527W        W29310  12.360  21.753   1.395
62528W        W29311  31.380   9.106  11.019
62529W        W29312  20.710  13.779  12.467
62530W        W29313  18.591   3.658   2.662
62531W        W29314  37.829  20.493  13.219
62532W        W29315  15.419  38.435  14.080
62533W        W29316  17.663   4.567  14.462
62534W        W29317  30.258  33.212  14.615
62535W        W29318   9.377  13.070   0.295
62536W        W29319   3.905  32.490  11.517
62537W        W29320  34.913   3.661   2.153
62538W        W29321  30.994  15.400   2.931
62539W        W29322  37.912   4.515  13.533
62540W        W29323  15.651  11.887  12.012
62541W        W29324  28.792  28.921  12.961
62542W        W29325  28.452  23.946  13.378
62543W        W29326  26.551  10.301   0.946
62544W        W29327  29.521   3.664   2.424
62545W        W29328  36.233  38.948   4.885
62546W        W29329   1.298  15.950   0.883
62547W        W29330  11.208   8.954   4.994
62548W        W29331   4.306  23.430  12.816
62549W        W29332  41.028   5.063   4.164
62550W        W29333  25.588  36.397   2.929
62551W        W29334   9.402  42.825   0.319
62552W        W29335   6.700  30.903  12.978
62553W        W29336  22.124  37.194   1.833
62554W        W29337  13.705  25.227  14.047
62555W        W29338  17.758  44.006  10.994
62556W        W29339  23.014  44.036   2.322
62557W        W29340  16.336  10.877   4.737
62558W        W29341  21.687  24.210   0.743
62559W        W29342  13.559  43.312  11.599
62560W        W29343  23.586   5.281  10.790
62561W        W29344   9.442  28.977  11.703
62562W        W29345  10.760  35.310   1.200
62563W        W29346  31.013  39.319  13.167
62564W        W29347  44.028  31.857  12.581
62565W        W29348  24.537  10.875  14.994
62566W        W29349  12.252  18.585   2.449
62567W        W29350  30.892  35.129   1.591
62568W        W29351   4.447  26.080  14.420
62569W        W29352  18.185   4.487   2.923
62570W        W29353  10.288   4.403  11.896
62571W        W29354  34.879  43.992   2.842
62572W        W29355  20.365  32.181   2.764
62573W        W29356  33.089  17.902   3.212
62574W        W29357  22.796  41.511  13.817
62575W        W29358  37.864  42.341   2.676
62576W        W29359  19.094  29.127  10.871
62577W        W29360  16.851  26.590   0.005
62578W        W29361  39.533  21.947   1.318
62579W        W29362  22.844  42.431   2.144
62580W        W29363  29.885  24.880   0.425
62581W        W29364  11.313  29.963  13.338
62582W        W29365  17.610   4.967  14.135
62583W        W29366  43.480  17.891   4.661
62584W        W29367  43.034  41.621   0.016
62585W        W29368  14.573  25.300  11.536
62586W        W29369  30.507   7.690  13.443
62587W        W29370  34.084  30.807   3.351
62588W        W29371  33.905   8.298  14.056
62589W        W29372   6.197  31.449  14.900
62590W        W29373  36.888  37.094  13.328
62591W        W29374  13.390  25.558   0.279
62592W        W29375  38.147  25.960  10.973
62593W        W29376  19.989  16.539  14.430
62594W        W29377  32.841  11.592   0.848
62595W        W29378  44.236  32.709  13.518
62596W        W29379   9.367  13.573  14.453
62597W        W29380  33.519  25.081   0.416
62598W        W29381  24.510   7.267   4.662
62599W        W29382  18.837   5.516   2.845
62600W        W29383  41.385   6.426   0.518
62601W        W29384   5.180  35.656  12.124
62602W        W29385  14.834  23.144  13.905
62603W        W29386  33.030  38.653  12.268
62604W        W29387  33.622  30.459  14.788
62605W        W29388   7.185  26.467  13.591
62606W        W29389  12.189  38.838   0.398
62607W        W29390   7.175  17.712  10.776
62608W        W29391   7.262  31.461  14.473
62609W        W29392  10.836   2.425  11.035
62610W        W29393  32.874  15.741   2.372
62611W        W29394  21.227  39.450   1.877
62612W        W29395  17.835  18.170   0.465
62613W        W29396  15.855  21.220   4.179
62614W        W29397   9.293  28.514   3.678
62615W        W29398   2.870  31.482  11.289
62616W        W29399  41.700  43.121   1.759
62617W        W29400  17.439  28.127  12.762
62618W        W29401  26.622  34.873  10.879
62619W        W29402  38.067   1.540  12.880
62620W        W29403   8.411   0.303   1.978
62621W        W29404  10.430  21.543   2.092
62622W        W29405  18.054  35.484   3.821
62623W        W29406  18.718  42.726  14.232
62624W        W29407  27.808  36.482  11.074
62625W        W29408  19.386   6.977   0.760
62626W        W29409  36.593  35.962  11.540
62627W        W29410   7.182  30.830  12.756
62628W        W29411   5.792   2.761   0.373
62629W        W29412  15.333   0.175  11.169
62630W        W29413  12.575   2.788   2.354
62631W        W29414  36.580  14.848   3.297
62632W        W29415  32.832  36.446   3.432
62633W        W29416  34.985  42.689   4.093
62634W        W29417   0.383  41.216  12.113
62635W        W29418  14.185  15.892  12.103
62636W        W29419   4.758  17.491   3.221
62637W        W29420  14.241  12.645  10.606
62638W        W29421  36.911   2.904   3.266
62639W        W29422   3.247  28.408  11.662
62640W        W29423  14.728  33.429  10.960
62641W        W29424   2.963   3.884   4.586
62642W        W29425  17.800  23.160   2.260
62643W        W29426   0.590   3.842   4.087
62644W        W29427   0.362   9.891   1.450
62645W        W29428  43.266   7.214   0.229
62646W        W29429  34.886   9.390  10.256
62647W        W29430  30.144  34.026  10.804
62648W        W29431  15.570   2.607  14.731
62649W        W29432   7.754  26.245  11.158
62650W        W29433   4.723  14.173   1.848
62651W        W29434   2.748  28.138   0.446
62652W        W29435   0.955  43.075  13.822
62653W        W29436  38.892  35.382  12.188
62654W        W29437   5.023   7.661  11.104
62655W        W29438  30.878  34.870  14.829
62656W        W29439  23.048  29.886  10.738
62657W        W29440  25.522  38.755  11.090
62658W        W29441   9.802  26.572  12.566
62659W        W29442  34.950  38.036   0.333
62660W        W29443  16.236  23.424  13.072
62661W        W29444  28.219  23.657  11.087
62662W        W29445  13.832  17.687   1.714
62663W        W29446  30.976   4.488   2.193
62664W        W29447  14.903   6.640  13.967
62665W        W29448   2.075  25.984   3.632
62666W        W29449  18.977  16.712   5.204
62667W        W29450  28.998  40.848   3.778
62668W        W29451  34.966  36.452  12.198
62669W        W29452  12.648   3.681   1.755
62670W        W29453   1.648  34.973  12.535
62671W        W29454  14.643  41.966   2.192
62672W        W29455  35.965   5.249   1.538
62673W        W29456   7.409  39.154   2.023
62674W        W29457  16.360   8.136   2.167
62675W        W29458  15.222  39.634  14.317
62676W        W29459  21.757  35.726  12.397
62677W        W29460  35.044  12.822   3.293
62678W        W29461  43.356  43.888   2.672
62679W        W29462  34.328  22.427   4.134
62680W        W29463   3.195  18.619  11.549
62681W        W29464  38.281   6.475   3.677
62682W        W29465  26.195  36.466   3.695
62683W        W29466  19.160  42.067   2.684
62684W        W29467  28.584  14.286  11.895
62685W        W29468  40.701  29.637   1.461
62686W        W29469  22.743  17.804   2.451
62687W        W29470  12.420  42.007   3.295
62688W        W29471  15.908   8.649   4.607
62689W        W29472  34.603  27.465  12.308
62690W        W29473  19.294  38.986  11.113
62691W        W29474  39.013  18.845   1.221
62692W        W29475  10.902  35.499  12.115
62693W        W29476  37.487  21.700  10.689
62694W        W29477  10.436  12.630   2.377
62695W        W29478   6.989  44.013   0.347
62696W        W29479  17.799  17.664   2.990
62697W        W29480  24.153  15.893  10.982
62698W        W29481   0.211  15.808   2.813
62699W        W29482  39.307  14.786   2.929
62700W        W29483  34.842  24.729  12.983
62701W        W29484  28.356   9.873   2.314
62702W        W29485   4.132  32.515   2.257
62703W        W29486  21.064  37.437  13.682
62704W        W29487  24.543   5.351  11.536
62705W        W29488  34.934  31.300  12.525
62706W        W29489  34.428  35.081  14.446
62707W        W29490  11.341  29.116  12.995
62708W        W29491  28.901  20.460  11.004
62709W        W29492   2.808   0.492  12.118
62710W        W29493  23.775  17.078   1.806
62711W        W29494  27.212  30.006   3.957
62712W        W29495  27.060  27.516  12.935
62713W        W29496   8.568   9.829   3.167
62714W        W29497  43.213  15.860  11.934
62715W        W29498  30.884   3.434  10.383
62716W        W29499  42.903  40.488  13.214
62717W        W29500  36.544  42.398   4.605
62718W        W29501  41.846  30.126   3.312
62719W        W29502  15.167  38.979   2.790
62720W        W29503  33.061   5.502  13.170
62721W        W29504   4.170   8.690  12.795
62722W        W29505  22.264  25.616   5.477
62723W        W29506  26.771  11.300  12.863
62724W        W29507  14.608  27.338  13.566
62725W        W29508  31.577  41.571   2.452
62726W        W29509  29.184  29.566   2.209
62727W        W29510   6.350  12.630   4.572
62728W        W29511  15.579  22.087   2.166
62729W        W29512   6.767  31.608  14.627
62730W        W29513  27.505  43.299   4.891
62731W        W29514  44.008  19.199  10.683
62732W        W29515  38.903  36.924   0.801
62733W        W29516  13.150  27.969  14.944
62734W        W29517  20.187  28.435  13.481
62735W        W29518  42.832   6.970  14.800
62736W        W29519  13.667  40.973   0.952
62737W        W29520   7.043  33.025  14.721
62738W        W29521  16.530   6.902   4.568
62739W        W29522  43.321  16.534   1.090
62740W        W29523  10.331  35.137  11.851
62741W        W29524  41.015  10.099   1.703
62742W        W29525   4.780  40.765  11.640
62743W        W29526  26.811   4.551   0.075
62744W        W29527   3.904  31.656   4.436
62745W        W29528  28.493   4.859  14.993
62746W        W29529  14.409  21.984   2.749
62747W        W29530   4.558  14.647  11.158
62748W        W29531  38.454  12.210  12.496
62749W        W29532   9.572   9.767  13.107
62750W        W29533  40.250  35.728  14.017
62751W        W29534  10.203  28.053  13.483
62752W        W29535  40.801  38.936  11.164
62753W        W29536   0.275  37.828  14.843
62754W        W29537  21.492  29.538  11.989
62755W        W29538  40.183  20.041   4.629
62756W        W29539   7.080  12.321   1.337
62757W        W29540  24.715  19.588  10.650
62758W        W29541  38.107  25.640   1.339
62759W        W29542  39.634  23.730  12.459
62760W        W29543  16.226  31.763   4.481
62761W        W29544  25.603  32.903   2.816
62762W        W29545  27.822  17.106   4.195
62763W        W29546  36.006  17.475  13.368
62764W        W29547  20.638  19.051   0.688
62765W        W29548   5.986  18.759   1.468
62766W        W29549  30.945  11.175  10.764
62767W        W29550   4.042  16.630  12.587
62768W        W29551  16.832  36.992   1.254
62769W        W29552  37.539  16.908  10.410
62770W        W29553  12.294   0.945  10.670
62771W        W29554   7.710  33.518  13.343
62772W        W29555   5.735  41.959  14.018
62773W        W29556  43.926  18.376   3.755
62774W        W29557   4.015  14.797   1.711
62775W        W29558  38.944  40.888  10.923
62776W        W29559  21.103  29.237   3.684
62777W        W29560  32.039  43.016   4.094
62778W        W29561  31.173  43.236  14.819
62779W        W29562  28.576  13.906   4.241
62780W        W29563  11.899  38.099   1.759
62781W        W29564  24.759   3.330  14.056
62782W        W29565  11.643   7.891  13.020
62783W        W29566  35.066   3.939   0.836
62784W        W29567  19.485  27.173   2.177
62785W        W29568  28.418  27.137  13.986
62786W        W29569  12.340  40.876   3.756
62787W        W29570  27.360  35.069  14.771
62788W        W29571   3.125  34.503   0.570
62789W        W29572  38.383  36.101  10.473
62790W        W29573  28.073  39.767   5.401
62791W        W29574  38.343  29.572   0.851
62792W        W29575  21.015  16.684   2.044
62793W        W29576  24.074  42.124  13.969
62794W        W29577   1.955   1.335   3.448
62795W        W29578  24.963   9.118  10.888
62796W        W29579  13.891  43.790   0.809
62797W        W29580  10.783  38.007  13.357
62798W        W29581  29.941  31.701  12.589
62799W        W29582  41.549   3.132   0.232
62800W        W29583  33.483  28.116  14.256
62801W        W29584  13.582  28.218  11.941
62802W        W29585  28.540   0.847  10.750
62803W        W29586  43.665  13.901   1.846
62804W        W29587  26.684  38.932  12.941
62805W        W29588  43.508  11.691   3.778
62806W        W29589  33.170   3.976  11.498
62807W        W29590  28.942  21.044  10.705
62808W        W29591  23.664   1.200   3.198
62809W        W29592  20.016  44.304   3.921
62810W        W29593  10.712  23.995  11.211
62811W        W29594  25.798  21.706  11.052
62812W        W29595  22.191  32.380   4.126
62813W        W29596   9.767  16.783  10.945
62814W        W29597  26.585   0.373   4.886
62815W        W29598  41.044   4.940   2.237
62816W        W29599  26.807   8.512   4.153
62817W        W29600  17.320   3.214  12.084
62818W        W29601  22.065  36.823  13.085
62819W        W29602  19.620  10.799   0.252
62820W        W29603   9.088  39.596   3.506
62821W        W29604   2.874  22.048   0.494
62822W        W29605  35.524  20.608   3.175
62823W        W29606  16.495  24.915  13.324
62824W        W29607  19.806   0.800   4.092
62825W        W29608  19.606   5.133   3.950
62826W        W29609  39.918   9.639   1.502
62827W        W29610  42.357   2.977  11.604
62828W        W29611  30.546   4.262   4.646
62829W        W29612  34.252  36.564  10.435
62830W        W29613  31.056  24.105   4.440
62831W        W29614  19.661  23.759   1.882
62832W        W29615  31.789  11.628   1.873
62833W        W29616  44.229  43.820  11.410
62834W        W29617  24.491   4.312  13.074
62835W        W29618  26.077   6.895  13.452
62836W        W29619  31.622  19.751   2.047
62837W        W29620   5.105  22.904  12.971
62838W        W29621  27.046  18.573   2.307
62839W        W29622  40.278  38.264   1.832
62840W        W29623  36.381   3.936  11.529
62841W        W29624  16.714  15.244  14.451
62842W        W29625  21.252  42.577  11.556
62843W        W29626  20.947  18.007   1.045
62844W        W29627  27.522  24.613   4.115
62845W        W29628  42.993  28.052   0.869
62846W        W29629  39.445  43.141   3.137
62847W        W29630  17.634  39.386   4.517
62848W        W29631  33.526  12.362   1.623
62849W        W29632  28.715  10.216   2.495
62850W        W29633  16.209  13.834  11.084
62851W        W29634   0.664  30.512   1.282
62852W        W29635  17.733  34.144  12.645
62853W        W29636  39.276  17.842  11.104
62854W        W29637  24.636  14.487  11.384
62855W        W29638   7.123  13.805  14.900
62856W        W29639   2.245  37.450   3.276
62857W        W29640   0.454   8.318   3.617
62858W        W29641   8.252   8.865   4.680
62859W        W29642  33.796  25.742  11.846
62860W        W29643  13.885  22.607   0.328
62861W        W29644  37.531  41.250   0.226
62862W        W29645   2.262  13.195   2.262
62863W        W29646  16.609  39.517   4.192
62864W        W29647  30.009  27.921  11.087
62865W        W29648   8.392   3.100   4.596
62866W        W29649  31.408  22.962  12.961
62867W        W29650   1.065  18.689   4.121
62868W        W29651  14.349  42.187  10.585
62869W        W29652   5.282  29.839   2.886
62870W        W29653   0.221  31.014  13.506
62871W        W29654   5.650  29.209  11.610
62872W        W29655  44.461  36.247  11.671
62873W        W29656   4.275   0.293  14.998
62874W        W29657  25.790   6.950  11.170
62875W        W29658  21.224  40.776   4.116
62876W        W29659  43.945  18.001  11.227
62877W        W29660   4.125  34.806   3.795
62878W        W29661  41.730  23.110  11.171
62879W        W29662  43.208   4.436   1.294
62880W        W29663   1.583  31.513   1.839
62881W        W29664   2.188  16.116  12.549
62882W        W29665  37.241  18.213  13.978
62883W        W29666   5.731  32.457   3.926
62884W        W29667  17.745  37.040  13.731
62885W        W29668  40.328  31.019  10.755
62886W        W29669  35.028  22.165  14.878
62887W        W29670  44.913  18.140  11.220
62888W        W29671  24.751  42.044  14.764
62889W        W29672  36.140   5.706   2.776
62890W        W29673  11.267   5.321  14.758
62891W        W29674  36.294  14.332  14.295
62892W        W29675  36.408  30.535   0.464
62893W        W29676  27.682  24.064  10.290
62894W        W29677  13.547  22.555  12.302
62895W        W29678  19.493   9.838   3.682
62896W        W29679  43.842  12.969  10.240
62897W        W29680   0.408  25.081   1.684
62898W        W29681  11.828  27.633   1.886
62899W        W29682  33.979  35.836   3.744
62900W        W29683   9.111  25.205  14.732
62901W        W29684   3.357  37.321   2.393
62902W        W29685  10.568  14.042  12.614
62903W        W29686  12.196  27.728   2.229
62904W        W29687  40.262   1.882  11.208
62905W        W29688  35.066  13.299   1.219
62906W        W29689  25.159  29.705   4.626
62907W        W29690  34.186   2.032   1.411
62908W        W29691   5.212   8.782  11.844
62909W        W29692  39.770   1.741   1.680
62910W        W29693  13.608  23.142  12.932
62911W        W29694  27.679  18.087   1.849
62912W        W29695  24.453  26.189   3.594
62913W        W29696  26.428  33.925  14.440
62914W        W29697  38.919  10.312  13.359
62915W        W29698   3.046  37.531  13.085
62916W        W29699   8.338   8.778   3.737
62917W        W29700  15.152   0.800   4.254
62918W        W29701  32.887  31.572   1.976
62919W        W29702  40.843  12.736  14.488
62920W        W29703  44.036  36.703  11.130
62921W        W29704  44.855  36.626  12.791
62922W        W29705  36.976  24.556   1.346
62923W        W29706  25.499  31.556   2.407
62924W        W29707  22.983   0.310  14.849
62925W        W29708  40.962  15.167   1.813
62926W        W29709  27.422  25.741  12.004
62927W        W29710   5.423  44.425  12.847
62928W        W29711  19.165  38.653   1.896
62929W        W29712  19.691   7.967  12.106
62930W        W29713  27.511   6.837   3.453
62931W        W29714   7.297  14.722   2.447
62932W        W29715  21.403  15.325  10.066
62933W        W29716  26.449   6.377   2.072
62934W        W29717   0.492  16.319   0.289
62935W        W29718  20.951  34.174  13.002
62936W        W29719  35.339  26.710  11.151
62937W        W29720   3.135  42.490  13.917
62938W        W29721  17.825   5.422   2.768
62939W        W29722  32.053  16.611  10.974
62940W        W29723  31.367   5.332   3.794
62941W        W29724  40.746  24.996   1.212
62942W        W29725  28.569  27.977   3.955
62943W        W29726   2.691  26.906  13.408
62944W        W29727  29.771  36.098   4.283
62945W        W29728  37.026  24.772  14.588
62946W        W29729   3.737   7.847   0.712
62947W        W29730  25.755  41.829   3.749
62948W        W29731   6.527  35.114  12.042
62949W        W29732  37.298  14.762  12.047
62950W        W29733  24.978  21.663   1.669
62951W        W29734  34.438  31.601   0.763
62952W        W29735  22.719  40.647   2.747
62953W        W29736  11.743  13.811   4.520
62954W        W29737  21.344   8.493  11.181
62955W        W29738   2.287  28.753   4.276
62956W        W29739  19.968   7.856  14.116
62957W        W29740  26.061   0.249  10.648
62958W        W29741  43.662  14.701  11.268
62959W        W29742  15.563  39.090  13.430
62960W        W29743   9.904   4.729   4.227
62961W        W29744  34.922  19.096  12.473
62962W        W29745  34.427  25.209  14.511
62963W        W29746  10.708  35.850  14.412
62964W        W29747  37.057   7.944   3.371
62965W        W29748  14.728  10.773  10.686
62966W        W29749  40.360   5.199  14.064
62967W        W29750  15.848  14.754  12.021
62968W        W29751   9.908   4.208   4.327
62969W        W29752  44.060   3.365  10.373
62970W        W29753   7.961  19.069   3.103
62971W        W29754   2.330   6.995   1.297
62972W        W29755   9.932  39.376  13.951
62973W        W29756  19.750   7.349  11.588
62974W        W29757   4.488  11.284  13.811
62975W        W29758   4.618  38.601   3.375
62976W        W29759   7.657  21.343  12.785
62977W        W29760  36.611  42.020   3.372
62978W        W29761   0.728  35.081   5.018
62979W        W29762  30.091   3.876  12.045
62980W        W29763  38.457  26.052  10.565
62981W        W29764  15.723  25.704   2.170
62982W        W29765   1.442  37.853  12.481
62983W        W29766   0.670  32.570  11.481
62984W        W29767  29.936  39.399  11.512
62985W        W29768  34.841  11.396  14.692
62986W        W29769   3.839  13.726   2.136
62987W        W29770  21.977  10.409   2.389
62988W        W29771   0.760  41.438   4.979
62989W        W29772  39.774  21.560  11.568
62990W        W29773  17.127  43.917   2.392
62991W        W29774  25.214  23.325   2.394
62992W        W29775  14.781  42.292   3.212
62993W        W29776  16.229  10.602  13.998
62994W        W29777  39.958  29.473  11.973
62995W        W29778   3.953  24.817  12.843
62996W        W29779  28.536  33.343  14.849
62997W        W29780  43.881  36.897  11.672
62998W        W29781   2.959  36.919  10.817
62999W        W29782  14.887  30.033   3.339
63000W        W29783  41.680   8.273   3.573
63001W        W29784  11.158  44.249   1.644
63002W        W29785  27.709  28.225   4.191
63003W        W29786  20.791  36.431   4.553
63004W        W29787  23.482  20.965  14.716
63005W        W29788  31.205   8.617  11.159
63006W        W29789   4.410   7.433   4.111
63007W        W29790  12.082   3.283  13.085
63008W        W29791  35.975   4.379   2.896
63009W        W29792  29.857  22.746   9.818
63010W        W29793  16.562  15.616  11.954
63011W        W29794  22.969  10.330   1.388
63012W        W29795  18.509  25.159   0.722
63013W        W29796  17.552  27.618   0.559
63014W        W29797  11.447   1.380  11.620
63015W        W29798   9.364  33.372  13.289
63016W        W29799  33.671  24.221  12.034
63017W        W29800  34.983   9.990  12.405
63018W        W29801  11.898   4.274  14.395
63019W        W29802  31.042  31.527   2.262
63020W        W29803  20.524  20.271  11.134
63021W        W29804   7.453  10.684  12.051
63022W        W29805  34.339   9.838  10.236
63023W        W29806  29.408  10.771  14.318
63024W        W29807  19.709  31.056   4.099
63025W        W29808  11.828  44.673  11.589
63026W        W29809  34.448  16.091   0.523
63027W        W29810  18.764  33.500  10.742
63028W        W29811  40.465  37.306   4.503
63029W        W29812  15.225   6.318   4.611
63030W        W29813  28.605  41.664  10.615
63031W        W29814  33.068   0.436   3.709
63032W        W29815   1.835  19.124   1.328
63033W        W29816  26.018  41.959  13.959
63034W        W29817  38.771  33.098   2.289
63035W        W29818  38.311  14.069  12.471
63036W        W29819  13.839  19.563   3.123
63037W        W29820  15.192  20.700   0.303
63038W        W29821   3.718  36.348   1.440
63039W        W29822  30.555   2.698   3.132
63040W        W29823  12.990  23.668  10.134
63041W        W29824  39.268  12.789  10.259
63042W        W29825  35.673  20.329   1.735
63043W        W29826  41.458   7.338   0.749
63044W        W29827  30.113  29.878   1.248
63045W        W29828   6.237   2.106   3.419
63046W        W29829  35.136  44.003  11.936
63047W        W29830  39.379  19.207   2.730
63048W        W29831  30.546   9.895   0.731
63049W        W29832  27.441   8.343   2.734
63050W        W29833  28.279  26.663   0.944
63051W        W29834  11.657  12.741  14.073
63052W        W29835  22.246  30.212   1.791
63053W        W29836   1.548  32.044  13.515
63054W        W29837  28.149  25.661   0.756
63055W        W29838   5.320  27.557   4.577
63056W        W29839  26.690  30.983   1.579
63057W        W29840  32.957  17.560  13.540
63058W        W29841  13.001   6.691   3.772
63059W        W29842  10.718  27.814  13.397
63060W        W29843  15.233  42.073   2.037
63061W        W29844  43.540   1.852   5.181
63062W        W29845  35.852  11.810  14.425
63063W        W29846   8.339  43.866   1.810
63064W        W29847   1.493  33.361  14.977
63065W        W29848  11.126  26.073  10.635
63066W        W29849  42.850  36.258   3.743
63067W        W29850  18.274  33.355   4.011
63068W        W29851   6.435  30.924   2.093
63069W        W29852   9.874  32.627  14.233
63070W        W29853  22.774  12.128   0.170
63071W        W29854  34.204  20.671  12.819
63072W        W29855  20.029   5.421  11.520
63073W        W29856  27.105   3.451  13.370
63074W        W29857  17.648  19.251   3.654
63075W        W29858  23.943  22.627  11.925
63076W        W29859   1.712   4.780  12.854
63077W        W29860  25.944  16.257   3.692
63078W        W29861  35.126   9.156  11.838
63079W        W29862  10.601  44.253  13.080
63080W        W29863  28.597  12.576  14.093
63081W        W29864   0.091  36.353  15.000
63082W        W29865   7.404  17.746   2.966
63083W        W29866  21.705  12.633   3.142
63084W        W29867  16.104  18.866   2.394
63085W        W29868   6.775  25.823  13.056
63086W        W29869   7.122  11.342   1.340
63087W        W29870  18.361  33.700   0.938
63088W        W29871  38.858  23.114   1.776
63089W        W29872  10.593   5.347  11.902
63090W        W29873  40.269  12.954   1.388
63091W        W29874   4.910  10.938  12.046
63092W        W29875  37.593  17.858  13.981
63093W        W29876  28.505  24.164   1.399
63094W        W29877   6.997  22.575  12.076
63095W        W29878  28.078  12.220  10.717
63096W        W29879  41.850  34.118   3.148
63097W        W29880  16.660  16.331  10.731
63098W        W29881  22.951  17.760   0.980
63099W        W29882   4.306  14.743  10.722
63100W        W29883  38.872   1.045  11.606
63101W        W29884  39.829  13.535   4.120
63102W        W29885  42.417  15.785  10.746
63103W        W29886  16.051  18.594  13.034
63104W        W29887   1.489   2.908  13.260
63105W        W29888  13.686  17.004  13.068
63106W        W29889  33.396  34.822   2.247
63107W        W29890  12.689  39.792  11.946
63108W        W29891  13.222   5.691   4.664
63109W        W29892  34.441  32.834  11.105
63110W        W29893  20.119  41.606   1.902
63111W        W29894  35.887  10.629  11.599
63112W        W29895  30.091  23.975  14.943
63113W        W29896   1.500  42.489  11.968
63114W        W29897   1.204  26.966  13.899
63115W        W29898  39.849  44.363  13.838
63116W        W29899  26.790  17.484   1.000
63117W        W29900   0.008  24.010   4.779
63118W        W29901  24.300  23.632  11.146
63119W        W29902   4.729  21.062  11.446
63120W        W29903  11.284  44.783   3.298
63121W        W29904  20.341  37.577  14.413
63122W        W29905   8.662  38.770   3.317
63123W        W29906  19.592  19.826  10.471
63124W        W29907   8.321  10.654   1.235
63125W        W29908  20.585   4.240  13.807
63126W        W29909  33.713  11.628   3.273
63127W        W29910  26.232   7.739  14.421
63128W        W29911  17.286  10.350  13.095
63129W        W29912  40.746   8.392   5.292
63130W        W29913   8.732   4.588  11.019
63131W        W29914  10.603  10.374   1.867
63132W        W29915  18.347  39.321  12.921
63133W        W29916  43.451   5.245  12.989
63134W        W29917  24.754  10.157   2.214
63135W        W29918  21.672  22.760   4.144
63136W        W29919   4.836  21.349  11.880
63137W        W29920  41.970  28.484  10.569
63138W        W29921  28.452  29.025  11.466
63139W        W29922  37.305  14.299   0.271
63140W        W29923  44.449  30.246   3.325
63141W        W29924  24.692  18.806   4.702
63142W        W29925  39.560  29.094  10.667
63143W        W29926  35.079   4.165   2.995
63144W        W29927  38.597   8.706   2.349
63145W        W29928  29.122  20.239  11.899
63146W        W29929   6.412  33.812   2.932
63147W        W29930  41.995  27.483   0.958
63148W        W29931  39.614  27.875  12.492
63149W        W29932   9.437  18.047  12.359
63150W        W29933   2.943  23.001   0.259
63151W        W29934  20.331  26.116  11.549
63152W        W29935  22.759  24.403  12.962
63153W        W29936  37.317  32.899   0.973
63154W        W29937  23.035  15.330   1.720
63155W        W29938  29.740  39.996   9.866
63156W        W29939  14.580  22.768   1.733
63157W        W29940  17.349  19.399   3.274
63158W        W29941  40.774  35.110   1.290
63159W        W29942  14.141  11.579   3.261
63160W        W29943   2.912   5.154   2.863
63161W        W29944  39.679  13.861   1.890
63162W        W29945  43.211   4.082   2.203
63163W        W29946  24.669   5.336  14.420
63164W        W29947  20.534  41.316  14.517
63165W        W29948  39.937  40.748  11.291
63166W        W29949  10.873  13.137  12.481
63167W        W29950  41.792  19.991  14.970
63168W        W29951  41.847   0.529   9.797
63169W        W29952   5.899  33.904   4.654
63170W        W29953   7.942  17.668   1.004
63171W        W29954  10.663   3.157   2.179
63172W        W29955  21.556  24.803   9.787
63173W        W29956  30.876  44.023  12.531
63174W        W29957  39.924   7.010  10.656
63175W        W29958  43.792  12.935   1.959
63176W        W29959  29.749   4.074  10.356
63177W        W29960  15.020  39.384   1.268
63178W        W29961   8.339  29.572   4.736
63179W        W29962   3.972   1.049   0.431
63180W        W29963  20.967  41.941   3.287
63181W        W29964  35.537  28.668  10.903
63182W        W29965   9.931  10.386   1.373
63183W        W29966   9.723  29.512  13.139
63184W        W29967  11.539  26.456   1.316
63185W        W29968  10.600   6.752  14.793
63186W        W29969  23.897  38.967  11.846
63187W        W29970  26.544  27.697   3.692
63188W        W29971  25.971  35.579  12.864
63189W        W29972  30.386  20.349   9.779
63190W        W29973  32.103  28.441  11.542
63191W        W29974  40.872  21.109  11.166
63192W        W29975  18.244  41.350  10.921
63193W        W29976   7.555  42.123   1.763
63194W        W29977  22.198  10.242   3.915
63195W        W29978  28.882  43.427  12.922
63196W        W29979   8.258  33.232  10.772
63197W        W29980  13.240   7.176   0.388
63198W        W29981  24.140  40.023   3.277
63199W        W29982  10.556  37.035  14.365
63200W        W29983  24.717  15.495   0.338
63201W        W29984  37.899  29.086   4.634
63202W        W29985   0.248   3.934   0.290
63203W        W29986  39.902   9.111  12.698
63204W        W29987  21.598  15.181  14.257
63205W        W29988  21.058  13.806  10.088
63206W        W29989   2.173  29.146  14.014
63207W        W29990  38.717  40.452  13.992
63208W        W29991   5.163   7.397   3.693
63209W        W29992  21.197   4.354  10.580
63210W        W29993  20.966  12.118  14.527
63211W        W29994   5.682   8.496   4.164
63212W        W29995   6.396  32.981   3.724
63213W        W29996  16.504  44.493  12.034
63214W        W29997  39.343  28.255  10.240
63215W        W29998  40.325  11.146   9.468
63216W        W29999  44.493   0.238  14.323
63217W        W30000  40.882  41.902   0.188
63218W        W30001  21.813  26.496  13.641
63219W        W30002   9.350  13.568  13.012
63220W        W30003  33.203  40.498   3.246
63221W        W30004  33.012  19.224  12.881
63222W        W30005  41.000  35.860  10.908
63223W        W30006  33.058  22.314  13.832
63224W        W30007  24.004  34.994  12.790
63225W        W30008  34.875  14.905  13.901
63226W        W30009  38.554  17.767   4.901
63227W        W30010  19.976  38.013  12.479
63228W        W30011  22.589  29.569   2.370
63229W        W30012  35.491  12.312   2.715
63230W        W30013  26.523  28.450  13.541
63231W        W30014  37.569  11.092  13.999
63232W        W30015  34.886   4.215  10.691
63233W        W30016   2.403  14.329  12.847
63234W        W30017  31.112  38.032  11.599
63235W        W30018  22.618  43.114  12.064
63236W        W30019  39.915  17.323  10.327
63237W        W30020  32.211  41.349  11.237
63238W        W30021  34.493  42.636  13.316
63239W        W30022   7.600  11.696   0.626
63240W        W30023  32.324  24.631  12.038
63241W        W30024  27.032  21.256   1.717
63242W        W30025  20.771  13.431   2.771
63243W        W30026  36.095  30.954  10.958
63244W        W30027  31.932  28.540  13.893
63245W        W30028   9.747  14.583  14.422
63246W        W30029   7.722  11.958   4.125
63247W        W30030  32.696  43.687   0.266
63248W        W30031  35.529  16.472   3.470
63249W        W30032  17.324   9.481   3.534
63250W        W30033  19.104   8.873   0.874
63251W        W30034  44.771   4.643  12.819
63252W        W30035   4.908  40.004  12.394
63253W        W30036   5.674   0.518   2.304
63254W        W30037  15.615   5.274   4.740
63255W        W30038   8.981  22.965  12.170
63256W        W30039  37.027   5.939   3.272
63257W        W30040  15.273  31.510  11.136
63258W        W30041  17.237   2.717   0.802
63259W        W30042  30.035  17.031   4.577
63260W        W30043  20.752  20.057   3.409
63261W        W30044   6.827   3.354   3.260
63262W        W30045  25.658  13.030  14.033
63263W        W30046  15.755  38.603  13.352
63264W        W30047  30.279  18.242  13.086
63265W        W30048  41.756  34.550   1.016
63266W        W30049  29.161  13.329   1.877
63267W        W30050  26.579  22.052   4.690
63268W        W30051  34.150  23.539  10.226
63269W        W30052  33.092  44.833   1.450
63270W        W30053  16.649  39.683   0.368
63271W        W30054  16.137   2.213   1.439
63272W        W30055  18.589  34.939   3.164
63273W        W30056  17.337  33.134  13.488
63274W        W30057  16.289  12.708   4.669
63275W        W30058   5.775  37.377  10.692
63276W        W30059  10.702  23.457   0.029
63277W        W30060  44.902  40.578   3.134
63278W        W30061  38.372  35.016   2.246
63279W        W30062  34.617   7.994   3.146
63280W        W30063  20.972  31.037  14.248
63281W        W30064   1.453  16.369   2.349
63282W        W30065  15.971  30.184  10.742
63283W        W30066  20.565  19.735  11.194
63284W        W30067  30.410  31.689  13.901
63285W        W30068  41.726  44.265   0.880
63286W        W30069  35.089  13.319   3.121
63287W        W30070  31.119  27.083  14.474
63288W        W30071  15.851  26.015   0.868
63289W        W30072  44.226  40.283  11.499
63290W        W30073  25.497   1.850   0.824
63291W        W30074   1.308  17.043  11.115
63292W        W30075  12.597   4.716  12.048
63293W        W30076  35.116  19.841   4.446
63294W        W30077  25.119  34.621  10.679
63295W        W30078   9.367  11.703   3.672
63296W        W30079  10.199  33.233  14.964
63297W        W30080  41.343  36.009   2.398
63298W        W30081  25.733  14.948   1.245
63299W        W30082  17.649  13.525  13.060
63300W        W30083  10.842  17.745  13.491
63301W        W30084   6.148   2.400  13.476
63302W        W30085  16.640  27.046   1.424
63303W        W30086  10.222  31.145  11.952
63304W        W30087   6.933  25.195   1.660
63305W        W30088  10.729  13.642  11.637
63306W        W30089   5.907   5.316  12.680
63307W        W30090  35.649  22.108  11.533
63308W        W30091  36.131  22.192  10.739
63309W        W30092  24.637   3.842  13.989
63310W        W30093  39.324   2.245  12.589
63311W        W30094  26.975  30.920  14.327
63312W        W30095  11.594  15.654  11.447
63313W        W30096   5.865  41.824   1.337
63314W        W30097  22.648  19.736  11.544
63315W        W30098  29.617  27.456   2.165
63316W        W30099  29.050   7.239  12.397
63317W        W30100   5.215  24.709   1.044
63318W        W30101  12.334  39.339   0.497
63319W        W30102  40.721  44.624  12.990
63320W        W30103  15.343   4.879   4.563
63321W        W30104  19.243  30.369   1.189
63322W        W30105  13.388  18.264  14.814
63323W        W30106  18.709  42.267   2.506
63324W        W30107  32.140  27.145   3.924
63325W        W30108  39.823  31.546  10.112
63326W        W30109  23.756  21.473   0.862
63327W        W30110  12.716   0.967  14.190
63328W        W30111  33.429  19.092  10.749
63329W        W30112   2.903   7.495   4.088
63330W        W30113  43.532   3.057  12.106
63331W        W30114  33.575  22.458  13.889
63332W        W30115   7.335  23.769   0.163
63333W        W30116   8.873   9.836  13.877
63334W        W30117   4.629  25.970   0.384
63335W        W30118   7.163   5.322  10.722
63336W        W30119  43.482  30.235  11.971
63337W        W30120  30.035  11.716   3.291
63338W        W30121  43.700  34.391   2.741
63339W        W30122  32.096  41.056  13.493
63340W        W30123  28.941   0.481   2.233
63341W        W30124   1.733  17.247   0.796
63342W        W30125  41.989  27.627   2.653
63343W        W30126   6.749  20.499   4.115
63344W        W30127   9.410  20.313  12.012
63345W        W30128  38.818  14.819   3.153
63346W        W30129  44.643  32.529  12.588
63347W        W30130  12.663  39.650   2.571
63348W        W30131  29.209   9.764  13.917
63349W        W30132   7.030   4.748  14.325
63350W        W30133  33.590  31.550  13.454
63351W        W30134  24.848  33.664  14.865
63352W        W30135  14.151  21.448  13.277
63353W        W30136  38.918  25.871   1.928
63354W        W30137  31.467  43.785   0.785
63355W        W30138  19.243  33.057  14.432
63356W        W30139   2.591   0.776   5.057
63357W        W30140  38.484  41.002   4.218
63358W        W30141  23.008  13.327   3.365
63359W        W30142   7.064  25.035  12.010
63360W        W30143  12.838   0.456   1.166
63361W        W30144  38.088  14.977  12.930
63362W        W30145  44.248   3.763  13.481
63363W        W30146  16.331  42.842   1.288
63364W        W30147  25.597  35.028   1.447
63365W        W30148  23.628   5.439   0.976
63366W        W30149  35.176  35.966  13.596
63367W        W30150   3.377  18.195  12.602
63368W        W30151  24.451  35.172  14.433
63369W        W30152  23.568  41.162   3.629
63370W        W30153  14.780   2.846  13.465
63371W        W30154  43.536  40.390  10.725
63372W        W30155  30.694  18.446   2.743
63373W        W30156  12.283  24.637   4.749
63374W        W30157   9.079  26.945   3.892
63375W        W30158   7.861  27.470  11.852
63376W        W30159  25.634   8.789   0.806
63377W        W30160  41.386   9.259   2.753
63378W        W30161  34.188  38.307   3.744
63379W        W30162  32.512   0.960   4.030
63380W        W30163  20.605  30.238  13.726
63381W        W30164  43.209  24.009   3.247
63382W        W30165  18.306  11.337   3.266
63383W        W30166  21.499   1.422   1.960
63384W        W30167  14.239  21.674  14.276
63385W        W30168  35.797   0.043   1.335
63386W        W30169   9.948  39.027   3.691
63387W        W30170  19.356  37.885   4.597
63388W        W30171  12.188  32.510   1.928
63389W        W30172  27.659  32.988   4.602
63390W        W30173  19.851  14.255   3.188
63391W        W30174  29.378  30.465   1.826
63392W        W30175  18.758  17.319  13.912
63393W        W30176  10.584  19.103  11.156
63394W        W30177  20.488  17.174   4.516
63395W        W30178  11.912  25.393  11.959
63396W        W30179   0.255  37.936  13.217
63397W        W30180  22.232  12.680   0.387
63398W        W30181  29.553  41.873  13.904
63399W        W30182  27.375  11.051   2.159
63400W        W30183  34.624  41.908   2.612
63401W        W30184   1.237   5.974  14.406
63402W        W30185   4.833  23.123  12.055
63403W        W30186  12.813  22.728  11.165
63404W        W30187   4.641  14.139  13.407
63405W        W30188   1.275  44.145  14.319
63406W        W30189  12.143  31.850   2.675
63407W        W30190  34.420  25.065   0.916
63408W        W30191  36.915  21.512  10.587
63409W        W30192  17.846   8.344  11.195
63410W        W30193  16.840   4.301   2.794
63411W        W30194  35.852  15.163   2.273
63412W        W30195  10.038   2.051   1.790
63413W        W30196  42.381  31.082   4.211
63414W        W30197  17.746  26.135   0.808
63415W        W30198  41.580   2.227  13.410
63416W        W30199  16.178   5.416   0.814
63417W        W30200   1.148  34.304   2.336
63418W        W30201  34.463  14.701  14.832
63419W        W30202  19.498   5.083  12.638
63420W        W30203  28.116  41.730   4.298
63421W        W30204   5.718   1.970  10.844
63422W        W30205  12.056   5.879  12.548
63423W        W30206  25.658  27.784   2.850
63424W        W30207  35.214  25.919   0.389
63425W        W30208  16.501  11.271   1.890
63426W        W30209  36.563  18.571   1.511
63427W        W30210  16.647   3.936   4.802
63428W        W30211  19.493   3.802  11.126
63429W        W30212  33.412  37.972   3.664
63430W        W30213  21.781  32.427  10.653
63431W        W30214   4.078   5.182  13.252
63432W        W30215  30.328  34.084   3.689
63433W        W30216  27.490  17.116  11.024
63434W        W30217  34.641  21.417  14.588
63435W        W30218  44.297   1.727   1.646
63436W        W30219  38.451  44.011  13.959
63437W        W30220  35.479  19.680  13.447
63438W        W30221  32.218   4.867   3.727
63439W        W30222   8.688   7.195  10.875
63440W        W30223  20.762  10.091   0.076
63441W        W30224   7.332   1.455   0.419
63442W        W30225  18.957  17.971   9.981
63443W        W30226  38.963   7.517   2.208
63444W        W30227   7.271  23.497  13.872
63445W        W30228  28.103  15.406   4.284
63446W        W30229  20.046  34.554  12.136
63447W        W30230  37.091  31.110  12.490
63448W        W30231   8.036  34.554  14.005
63449W        W30232  31.246  20.216   5.060
63450W        W30233  27.507   0.878  12.020
63451W        W30234  36.119   7.395  12.103
63452W        W30235  20.665  39.993  12.847
63453W        W30236  43.723   4.545   1.327
63454W        W30237  10.275  37.843   0.453
63455W        W30238   1.645  10.655   4.866
63456W        W30239  21.955  36.471  14.420
63457W        W30240  34.194   1.299  11.637
63458W        W30241  14.228  28.013  12.461
63459W        W30242  41.433  40.951   1.726
63460W        W30243  41.097  37.807   4.190
63461W        W30244  11.357  15.861   2.332
63462W        W30245  40.936  17.828   1.745
63463W        W30246  37.173  28.834  10.263
63464W        W30247  28.849  39.990   0.714
63465W        W30248   3.435  28.859   0.398
63466W        W30249  26.989  26.065  14.717
63467W        W30250  33.434  37.092  11.616
63468W        W30251  30.685  25.612   2.279
63469W        W30252  30.022  19.859  10.324
63470W        W30253  23.916  36.821   2.508
63471W        W30254  14.382   0.253   0.197
63472W        W30255  32.614  32.084  11.260
63473W        W30256  11.190  42.923   1.146
63474W        W30257  44.537   6.649   1.335
63475W        W30258  37.416  14.197  12.374
63476W        W30259  35.629  13.081  13.141
63477W        W30260  30.214  33.469   1.250
63478W        W30261  14.510   0.287   4.505
63479W        W30262  27.653  16.038  14.057
63480W        W30263  37.072  37.485   0.479
63481W        W30264  26.120  35.678   0.895
63482W        W30265  34.328   6.286   2.723
63483W        W30266   7.918   7.917   0.214
63484W        W30267   6.563  18.954   4.211
63485W        W30268  37.316  11.739  14.317
63486W        W30269  32.805   1.186   4.379
63487W        W30270   2.838  14.076  10.655
63488W        W30271  16.618  41.113   2.247
63489W        W30272  26.985   2.260   2.247
63490W        W30273  42.464  13.824  11.874
63491W        W30274  16.622  14.772  11.562
63492W        W30275  12.779  39.109  14.373
63493W        W30276  23.692   5.449   3.678
63494W        W30277  29.960  21.961   4.970
63495W        W30278  12.152   2.831   3.888
63496W        W30279  37.309  26.692  13.089
63497W        W30280  29.947  43.083   4.048
63498W        W30281  14.497  14.331  12.008
63499W        W30282   6.589  41.407   1.434
63500W        W30283  18.242  31.140   2.712
63501W        W30284  21.813  19.698  14.882
63502W        W30285   7.246   9.096   0.762
63503W        W30286  16.625  19.347   0.373
63504W        W30287  25.251  25.052   3.761
63505W        W30288  43.827   3.372  14.442
63506W        W30289   2.721  25.405   0.233
63507W        W30290  19.821  17.731  14.212
63508W        W30291  21.385  23.879  10.617
63509W        W30292   5.205  42.639   1.718
63510W        W30293   9.906  42.583   4.917
63511W        W30294  26.004  26.991  10.842
63512W        W30295  10.830  32.015   4.107
63513W        W30296  41.990  40.658   4.642
63514W        W30297  10.386  14.441   4.142
63515W        W30298  36.064  34.389   2.267
63516W        W30299  21.587  17.768   1.542
63517W        W30300  30.038  16.555   1.219
63518W        W30301   6.976  14.557  12.569
63519W        W30302  12.265  24.648  11.543
63520W        W30303  19.281   1.494   4.156
63521W        W30304  30.432  35.023   3.771
63522W        W30305  22.129  27.238   0.438
63523W        W30306  41.293  44.446   4.103
63524W        W30307  35.960  21.151  12.931
63525W        W30308  18.639  29.368  14.450
63526W        W30309  36.400  26.966   2.639
63527W        W30310   6.862  28.568  11.731
63528W        W30311   8.810  27.448  12.691
63529W        W30312  35.507  35.131   4.689
63530W        W30313  19.258  35.012  14.449
63531W        W30314  10.604  27.172  14.484
63532W        W30315  32.796  28.446  10.745
63533W        W30316  31.579   7.801   2.328
63534W        W30317  13.855  26.567   4.141
63535W        W30318   2.450  32.430   4.727
63536W        W30319  25.652  32.454  11.074
63537W        W30320  22.036  32.697  11.547
63538W        W30321  25.436   8.985  11.999
63539W        W30322  32.952  33.607   3.748
63540W        W30323  12.146   9.303   3.233
63541W        W30324  41.501   6.511  12.158
63542W        W30325  18.134  25.877   2.328
63543W        W30326   7.782  40.780  10.730
63544W        W30327  13.823  40.540  12.820
63545W        W30328  23.404  38.984  12.042
63546W        W30329  41.216  10.722  12.647
63547W        W30330  37.095  27.107  14.719
63548W        W30331  44.682  32.903   2.287
63549W        W30332  23.069  20.587   1.102
63550W        W30333  21.153  16.922   0.719
63551W        W30334  23.714  42.119  11.633
63552W        W30335  21.510  30.547  14.079
63553W        W30336  17.348  33.973  14.991
63554W        W30337  27.730  31.176  14.914
63555W        W30338  39.074  33.019  12.492
63556W        W30339  29.370  39.581  12.299
63557W        W30340  19.868   3.479  13.885
63558W        W30341  42.430  28.212   3.192
63559W        W30342   0.925   2.910  11.879
63560W        W30343  24.830  39.579  14.577
63561W        W30344  20.868  36.551  13.530
63562W        W30345  13.505  24.176  12.430
63563W        W30346  28.624  28.987  13.743
63564W        W30347  37.808   7.631  14.841
63565W        W30348  44.535  40.311   2.863
63566W        W30349   2.004  38.357   1.736
63567W        W30350  18.173  15.903  14.657
63568W        W30351  13.757   1.406  10.453
63569W        W30352  33.982  44.585  13.514
63570W        W30353  19.010  44.220  13.842
63571W        W30354  17.785  25.289   0.426
63572W        W30355  20.666  43.929  13.322
63573W        W30356  35.273  35.513   0.549
63574W        W30357  21.107  32.037  12.172
63575W        W30358  37.553   9.569   0.774
63576W        W30359  32.088  19.579  12.922
63577W        W30360  34.088  38.959   4.286
63578W        W30361  21.227  37.781  14.490
63579W        W30362   9.925  44.357   2.199
63580W        W30363  37.689   3.353   2.723
63581W        W30364   3.306  35.442   1.752
63582W        W30365   3.420  19.114   4.762
63583W        W30366  26.830   4.395  12.980
63584W        W30367   6.372  37.455  13.795
63585W        W30368   0.939  25.250  14.935
63586W        W30369  30.140  42.345   2.906
63587W        W30370  28.875  32.624   1.347
63588W        W30371  29.359   2.350  14.134
63589W        W30372  43.983  12.568   4.105
63590W        W30373  21.770  32.496   0.024
63591W        W30374   5.815   3.472   0.679
63592W        W30375  37.924  25.271  12.080
63593W        W30376   2.907  41.071   3.147
63594W        W30377  40.714   6.263  11.673
63595W        W30378  13.993   9.812   0.125
63596W        W30379  43.326   6.744   3.580
63597W        W30380  42.743  27.335  10.691
63598W        W30381  28.389  25.932  13.297
63599W        W30382  27.485  14.252  12.059
63600W        W30383  10.272  25.366  11.009
63601W        W30384  21.118   7.619   2.803
63602W        W30385  20.823  33.929  14.368
63603W        W30386  33.198  22.086   0.034
63604W        W30387  14.401  32.420   2.254
63605W        W30388  31.559   3.191   1.434
63606W        W30389  38.471  41.337  12.515
63607W        W30390  38.374   1.800   2.651
63608W        W30391   2.434  44.707  12.424
63609W        W30392  10.894   9.683  14.019
63610W        W30393  23.541  23.019  11.918
63611W        W30394  25.198  11.184   4.485
63612W        W30395  10.161  30.417   2.490
63613W        W30396  18.862   4.885   2.187
63614W        W30397  12.205  33.496  13.410
63615W        W30398   6.855  15.906  14.446
63616W        W30399  41.499  34.106   0.902
63617W        W30400  30.806  13.879   1.415
63618W        W30401  30.426  37.315   0.752
63619W        W30402  13.458  16.704   0.388
63620W        W30403  19.411  25.037   0.727
63621W        W30404  16.666  24.467  13.954
63622W        W30405  28.671  21.313   1.393
63623W        W30406   0.333   2.033  13.433
63624W        W30407  44.539  24.047  13.454
63625W        W30408  30.024  38.169  12.984
63626W        W30409  40.100  17.211  13.535
63627W        W30410  43.852   7.988  11.611
63628W        W30411  18.814   6.311  14.681
63629W        W30412  44.951   3.319  10.881
63630W        W30413  11.452  38.762   3.643
63631W        W30414   3.318  29.682  14.875
63632W        W30415  36.966  27.467   3.111
63633W        W30416   4.970  16.922   4.198
63634W        W30417  14.589  17.037   2.139
63635W        W30418  40.383   7.672   3.755
63636W        W30419   0.673  33.535   0.249
63637W        W30420  14.100  24.622  12.938
63638W        W30421  18.243  31.503   4.178
63639W        W30422  14.037  26.898   3.743
63640W        W30423  39.742  42.256   1.093
63641W        W30424   7.205  21.075  12.902
63642W        W30425  28.380   1.944  13.334
63643W        W30426  34.489   8.114  12.775
63644W        W30427  21.806  20.091   0.258
63645W        W30428  33.418  19.446  10.060
63646W        W30429  28.020  19.626   0.779
63647W        W30430  28.479  21.201   3.802
63648W        W30431   4.198  28.615   1.758
63649W        W30432  20.027   1.400  10.900
63650W        W30433  20.907  33.471   2.819
63651W        W30434  33.463  36.189  13.973
63652W        W30435  44.040  18.781   0.950
63653W        W30436  18.064  15.326   2.305
63654W        W30437  23.933  44.510  10.574
63655W        W30438  36.820  10.278  12.137
63656W        W30439  31.413   2.866   0.196
63657W        W30440  13.554  26.258  13.149
63658W        W30441  26.785  39.219  13.414
63659W        W30442   1.630   2.538   0.278
63660W        W30443  42.181  13.210   4.381
63661W        W30444   0.603  39.938   1.176
63662W        W30445  29.149  16.780   2.010
63663W        W30446   1.082  24.571   0.398
63664W        W30447   0.409  38.470  12.338
63665W        W30448   4.810  16.209  11.019
63666W        W30449  16.747  19.517  13.496
63667W        W30450  35.579  20.617  14.990
63668W        W30451  35.029  20.274   0.023
63669W        W30452  40.408  25.453  13.457
63670W        W30453  26.004   2.889   3.378
63671W        W30454  32.613  26.188   0.528
63672W        W30455  17.148   7.156  13.820
63673W        W30456  25.288  10.183  12.670
63674W        W30457  16.784   2.719   1.493
63675W        W30458   6.317   8.844  13.405
63676W        W30459  38.937  44.762  14.091
63677W        W30460  19.472   3.525  12.530
63678W        W30461   2.571   0.773  13.242
63679W        W30462  26.092  17.578  13.300
63680W        W30463   7.833   9.805   3.850
63681W        W30464   1.181  41.296  10.728
63682W        W30465  11.895  15.888   4.657
63683W        W30466  22.071  22.709   1.336
63684W        W30467  14.565  30.615  14.856
63685W        W30468   4.854  33.442  11.494
63686W        W30469  28.078  34.571   3.773
63687W        W30470  41.578  26.580   0.817
63688W        W30471   2.390  35.224   0.734
63689W        W30472  29.045  17.672  12.160
63690W        W30473  31.240  10.221  13.565
63691W        W30474  44.754  17.992   3.906
63692W        W30475  39.427   9.551  14.296
63693W        W30476  43.021  15.382  14.111
63694W        W30477  23.834   0.715   3.721
63695W        W30478  24.691  16.316  12.799
63696W        W30479  33.129  31.673  14.885
63697W        W30480  39.595   9.262  14.687
63698W        W30481  10.356  21.645  10.681
63699W        W30482  39.566  33.595  12.024
63700W        W30483  17.083   9.188   3.163
63701W        W30484  32.634  43.020   1.173
63702W        W30485  26.193   7.297   0.746
63703W        W30486  12.147  12.146   0.441
63704W        W30487   8.288  43.772  14.428
63705W        W30488  27.026  15.588  12.977
63706W        W30489  44.001  24.691   4.748
63707W        W30490  26.469  44.938  12.900
63708W        W30491  39.094   5.120  11.109
63709W        W30492  11.577  24.033   3.610
63710W        W30493  37.934   5.355  10.331
63711W        W30494  14.790  23.444   4.399
63712W        W30495   5.047  27.226   0.026
63713W        W30496   0.013  26.002  12.430
63714W        W30497  20.634  15.569   0.792
63715W        W30498   7.216  16.626  14.367
63716W        W30499  27.761  31.694  14.919
63717W        W30500   5.878  34.024  13.401
63718W        W30501  21.951  15.197   4.826
63719W        W30502  33.719  27.954  12.328
63720W        W30503  34.802  13.718   0.967
63721W        W30504  39.999  23.209  13.582
63722W        W30505  43.282  33.838   1.329
63723W        W30506  15.456  42.738   3.643
63724W        W30507  32.073   1.216   3.919
63725W        W30508   2.404  27.698   4.189
63726W        W30509  24.490  25.733   2.228
63727W        W30510  25.899  34.914  12.456
63728W        W30511  21.580   9.445  14.502
63729W        W30512  25.736  17.215   0.950
63730W        W30513   3.739  21.858  10.706
63731W        W30514   6.407   1.385  11.382
63732W        W30515  11.660  35.855   1.225
63733W        W30516  36.316  11.092  13.880
63734W        W30517  39.758  42.495   2.088
63735W        W30518  22.077  43.303  13.322
63736W        W30519  20.327  22.216  12.137
63737W        W30520  34.066  25.148  13.790
63738W        W30521  24.575  41.941   4.162
63739W        W30522  23.130   6.220   1.012
63740W        W30523  34.642  41.921  14.440
63741W        W30524  31.491  28.621  11.593
63742W        W30525  20.575  34.532  11.146
63743W        W30526  22.982  44.180  12.456
63744W        W30527  23.589  39.548  14.342
63745W        W30528  39.895  15.894   2.245
63746W        W30529  17.452  40.742   1.740
63747W        W30530  16.697   7.014  12.414
63748W        W30531  32.439  28.619  13.960
63749W        W30532   1.265  25.057  10.948
63750W        W30533   8.666  33.870  10.736
63751W        W30534  39.497  23.064  12.889
63752W        W30535   3.570   3.101  14.506
63753W        W30536  34.513   5.026   1.286
63754W        W30537  35.157   7.324  13.056
63755W        W30538   9.259  14.866   4.679
63756W        W30539   8.171  17.038  12.867
63757W        W30540  21.259  11.738  14.291
63758W        W30541  26.378   4.738   4.543
63759W        W30542  18.757  36.540   1.733
63760W        W30543  15.141   1.413   2.574
63761W        W30544  34.538   6.833   1.752
63762W        W30545  33.578  30.695   3.312
63763W        W30546  31.593  28.351  12.428
63764W        W30547  19.325  34.460  10.435
63765W        W30548  15.616  30.681  13.925
63766W        W30549  30.751  14.475   3.691
63767W        W30550  42.810  10.004  11.252
63768W        W30551  21.427  35.759   1.482
63769W        W30552  18.133  16.356   4.721
63770W        W30553  10.014  22.588   2.333
63771W        W30554  26.527  26.688   3.621
63772W        W30555  10.241   3.146  10.249
63773W        W30556   3.268   4.507  12.146
63774W        W30557   6.421  20.551   2.259
63775W        W30558  27.462   3.362  10.608
63776W        W30559  26.753  14.870   0.391
63777W        W30560  25.335  19.534  13.333
63778W        W30561   7.200  24.656   3.185
63779W        W30562  39.770  25.564  12.478
63780W        W30563   0.224  24.656  14.506
63781W        W30564   3.792  30.498  11.704
63782W        W30565  16.353  35.924  13.118
63783W        W30566   6.691  13.832  10.814
63784W        W30567  38.941  11.191  13.109
63785W        W30568  23.231   4.191  11.861
63786W        W30569  42.938  25.901  11.604
63787W        W30570  11.923  20.607   1.756
63788W        W30571   6.688  13.521  11.209
63789W        W30572  41.741  27.140  14.417
63790W        W30573  35.076  35.182  11.135
63791W        W30574  25.614  18.881   4.642
63792W        W30575  11.617  40.327  11.495
63793W        W30576  20.041   5.318   1.561
63794W        W30577  26.220   0.649  13.816
63795W        W30578  38.817  22.988   2.705
63796W        W30579  26.709  12.290  12.984
63797W        W30580  13.801  22.155   0.986
63798W        W30581  21.982  20.035  12.123
63799W        W30582   1.923  22.042   1.930
63800W        W30583  44.454  26.445  11.210
63801W        W30584  19.872  29.949  12.349
63802W        W30585   7.775  19.059   2.234
63803W        W30586  24.877  14.426   5.073
63804W        W30587  41.828  18.213  13.136
63805W        W30588  10.677  28.973   3.674
63806W        W30589   7.773  20.261   0.260
63807W        W30590  14.666  34.204  11.883
63808W        W30591  25.169  20.123   3.844
63809W        W30592  32.354  40.890  11.956
63810W        W30593  20.231   5.882   0.447
63811W        W30594  42.366  44.876   1.023
63812W        W30595   6.361  38.936   2.110
63813W        W30596   7.399  32.849   2.797
63814W        W30597  26.495  36.101  12.659
63815W        W30598  19.499  23.956  11.807
63816W        W30599  40.511  22.295  12.450
63817W        W30600  18.112   5.621  13.074
63818W        W30601  16.250  17.765  12.099
63819W        W30602  24.047  10.276  10.442
63820W        W30603  36.020  25.694   2.950
63821W        W30604  18.646  30.218  12.100
63822W        W30605  15.561   7.154   4.553
63823W        W30606  13.112  17.259   1.413
63824W        W30607   6.312  30.005   1.627
63825W        W30608   5.188  25.607   3.258
63826W        W30609  19.172   1.224   0.973
63827W        W30610   5.382  31.101  12.391
63828W        W30611  19.588  44.311  10.708
63829W        W30612  15.828  20.737   0.929
63830W        W30613  14.822   6.918  13.520
63831W        W30614  39.080  34.945   0.897
63832W        W30615   9.275  20.687   2.634
63833W        W30616  15.118  28.498   3.848
63834W        W30617  32.089  31.904  10.376
63835W        W30618   2.945  25.146   1.634
63836W        W30619  42.895  39.943   3.308
63837W        W30620  35.537  34.624   3.956
63838W        W30621  30.970  33.426  14.808
63839W        W30622  41.936  33.568  14.745
63840W        W30623   4.410  11.767   2.238
63841W        W30624   7.782  37.990   5.013
63842W        W30625  21.701  25.444   2.349
63843W        W30626  18.730   8.995   2.284
63844W        W30627  25.614   5.815  12.114
63845W        W30628   7.189  37.339   0.799
63846W        W30629  11.311   9.453  14.185
63847W        W30630  40.639  32.269   1.597
63848W        W30631  12.233  10.205  10.956
63849W        W30632  17.601  19.206  10.459
63850W        W30633  29.619  43.443  10.440
63851W        W30634  43.882  14.792   0.181
63852W        W30635  44.805  11.979  12.573
63853W        W30636  24.005   1.020  14.402
63854W        W30637  10.323   4.507  12.416
63855W        W30638   1.326  25.076  12.402
63856W        W30639  31.048  25.054  10.692
63857W        W30640  28.162  29.934   1.348
63858W        W30641  43.953  41.060   0.902
63859W        W30642   9.477  27.597   1.723
63860W        W30643  17.020   7.415   4.282
63861W        W30644  40.552   2.061   3.135
63862W        W30645  16.274  14.499  14.000
63863W        W30646  12.572   9.039  13.212
63864W        W30647  42.980  34.142  12.411
63865W        W30648  38.817   8.477  13.854
63866W        W30649  19.538  22.641   4.620
63867W        W30650  23.644   1.553  11.471
63868W        W30651  40.930  40.061  12.847
63869W        W30652  14.729  39.929  10.525
63870W        W30653   0.448   1.985   3.071
63871W        W30654  34.342  39.679   2.958
63872W        W30655  14.889  36.856  13.484
63873W        W30656  37.932  40.592   0.228
63874W        W30657  11.594  28.344   4.186
63875W        W30658  24.199   4.660   1.569
63876W        W30659   8.619   6.840   2.259
63877W        W30660  16.220  13.131   0.817
63878W        W30661   5.703   0.523   3.220
63879W        W30662   2.238  26.132  12.543
63880W        W30663  14.529  41.282   4.166
63881W        W30664   8.193  37.744  14.976
63882W        W30665   2.437  31.975  10.759
63883W        W30666   0.874  39.224   2.252
63884W        W30667   7.634  39.954  14.939
63885W        W30668  21.347  15.684  10.701
63886W        W30669  19.592  31.018   2.763
63887W        W30670  44.203  25.548   3.980
63888W        W30671  17.291  29.902  11.380
63889W        W30672  26.612  18.266   4.674
63890W        W30673  25.830   3.735   3.235
63891W        W30674   7.796   3.007   2.382
63892W        W30675  42.677  12.146  10.330
63893W        W30676  42.085  16.750   0.774
63894W        W30677  10.694  25.925   1.496
63895W        W30678  20.695  11.345   1.772
63896W        W30679   4.940  28.545  12.129
63897W        W30680  12.405  11.728  10.904
63898W        W30681  20.645  25.436  10.952
63899W        W30682   1.445  10.173   2.302
63900W        W30683  35.159  11.744   3.084
63901W        W30684  13.343  10.348   1.264
63902W        W30685  40.383  32.009  14.896
63903W        W30686  14.066   3.887   1.440
63904W        W30687   6.504  28.567   3.192
63905W        W30688  20.607  10.887   0.686
63906W        W30689  39.613  26.694  10.545
63907W        W30690   2.345  17.151   1.943
63908W        W30691   0.881   5.332   1.708
63909W        W30692  16.712  27.090   2.880
63910W        W30693  29.163  31.369   3.822
63911W        W30694   3.781  12.689  14.484
63912W        W30695  19.262  37.747  14.732
63913W        W30696  11.319  24.006   3.143
63914W        W30697  20.951  29.132   2.205
63915W        W30698   5.267   7.690  10.639
63916W        W30699  16.031  14.871   3.527
63917W        W30700  42.773   4.923  10.591
63918W        W30701  19.287   0.954   2.792
63919W        W30702   2.852  31.822   0.858
63920W        W30703  40.302  11.850  10.785
63921W        W30704   1.267  39.054  13.036
63922W        W30705  34.547  11.269   0.668
63923W        W30706  18.251  29.145   2.340
63924W        W30707  22.055  13.345  10.579
63925W        W30708  37.312  27.825  11.989
63926W        W30709  40.563  36.829   1.721
63927W        W30710  14.574   8.888  13.305
63928W        W30711   1.007  20.808   1.381
63929W        W30712  21.578  42.039  11.181
63930W        W30713  36.841   4.580  13.493
63931W        W30714  38.376  23.672   2.306
63932W        W30715  41.581  17.031   0.021
63933W        W30716  39.482  22.665   3.188
63934W        W30717  26.071  10.067   4.654
63935W        W30718   3.932  14.924   3.751
63936W        W30719  14.739   9.726   4.185
63937W        W30720  20.131  28.416   2.224
63938W        W30721  44.874  13.649   0.397
63939W        W30722  37.864  20.739  11.199
63940W        W30723  16.304  29.237  10.568
63941W        W30724  23.254  39.574   1.831
63942W        W30725  25.923  32.100   0.006
63943W        W30726  38.033  24.668   0.476
63944W        W30727  19.066  30.513   0.740
63945W        W30728  39.636  34.514   1.765
63946W        W30729  27.658   0.535   4.737
63947W        W30730  16.624  21.611   0.953
63948W        W30731  31.427  38.357  14.213
63949W        W30732   3.954   6.325   0.981
63950W        W30733  20.951  36.143   0.099
63951W        W30734  37.836  16.096   0.236
63952W        W30735  40.566   2.342   4.036
63953W        W30736  24.492  13.336   3.891
63954W        W30737  19.271  31.667   2.191
63955W        W30738  35.573  38.456  13.425
63956W        W30739  44.837  27.981  12.435
63957W        W30740  42.333  43.922  11.611
63958W        W30741  13.822  41.517  12.908
63959W        W30742  28.470  36.511  12.981
63960W        W30743   4.799  30.418   3.868
63961W        W30744   8.323  38.832   0.803
63962W        W30745  33.581  44.785  12.524
63963W        W30746   5.702  16.366   1.344
63964W        W30747  39.950  27.030   2.255
63965W        W30748  28.067  10.010   1.865
63966W        W30749  22.655  29.802   3.689
63967W        W30750  14.041  20.939  13.244
63968W        W30751  32.127   3.916  13.859
63969W        W30752  37.657   2.351   2.271
63970W        W30753  11.807  27.357   3.190
63971W        W30754   9.130  38.089   4.609
63972W        W30755   8.174  25.922  12.303
63973W        W30756  38.444  28.437   2.291
63974W        W30757   5.251  25.041  14.552
63975W        W30758  15.603   1.952   3.161
63976W        W30759  42.449  28.656   1.255
63977W        W30760   7.951  22.465   4.857
63978W        W30761  40.787   1.950  11.282
63979W        W30762  24.638  16.595  13.779
63980W        W30763   7.189  28.112   3.613
63981W        W30764   9.860   7.209   9.690
63982W        W30765  37.072   3.322   1.383
63983W        W30766  13.283   9.821   1.284
63984W        W30767  28.690  15.359  14.967
63985W        W30768  35.078   3.513   0.560
63986W        W30769  43.465  36.000  14.449
63987W        W30770  27.655  23.633   4.223
63988W        W30771  32.095  38.824   2.355
63989W        W30772  30.282  15.440   2.359
63990W        W30773  41.463  20.225  12.677
63991W        W30774  21.344  36.999  10.689
63992W        W30775  24.411  31.325   0.814
63993W        W30776   8.702   5.755   4.009
63994W        W30777   3.147  36.378  13.835
63995W        W30778  24.675  15.583  13.552
63996W        W30779   1.325  27.059   0.663
63997W        W30780  30.435  30.389   3.690
63998W        W30781   0.940  10.609  14.906
63999W        W30782  22.025  38.772  14.361
64000W        W30783  23.467  15.765  12.845
64001W        W30784  33.979   6.631  12.034
64002W        W30785  40.290  11.803  14.638
64003W        W30786  32.707  17.573   2.197
64004W        W30787   2.706  38.410   2.834
64005W        W30788  35.058  19.034   4.106
64006W        W30789  22.958  28.388   2.732
64007W        W30790  44.560  29.614   2.739
64008W        W30791   4.254  43.591   0.292
64009W        W30792   2.016  37.019  14.004
64010W        W30793  24.173  35.834  11.536
64011W        W30794  37.364  29.875  14.870
64012W        W30795  20.551  44.153  11.841
64013W        W30796  16.785  29.985  12.810
64014W        W30797   0.750  39.843  11.366
64015W        W30798   9.200  37.589   3.279
64016W        W30799  39.611  26.740   3.205
64017W        W30800  41.364  27.144   4.087
64018W        W30801  10.578  34.094  12.480
64019W        W30802  20.667  27.938  11.018
64020W        W30803  29.620  37.094   0.230
64021W        W30804  26.452   2.213  14.436
64022W        W30805   0.228  26.088  13.772
64023W        W30806  40.559  28.167   2.719
64024W        W30807   8.423  15.600   4.986
64025W        W30808  13.622   5.357   4.523
64026W        W30809  24.144  19.028   3.840
64027W        W30810   4.770  34.204   2.802
64028W        W30811  32.072  18.241  13.958
64029W        W30812  21.147   1.881   3.702
64030W        W30813  25.507  11.073  11.204
64031W        W30814  13.380  18.681   0.335
64032W        W30815  28.884   0.758   3.306
64033W        W30816  36.907  28.700  12.931
64034W        W30817  18.767  19.578   0.849
64035W        W30818  19.379  15.414   1.263
64036W        W30819   8.591  43.422   1.786
64037W        W30820  38.931  17.913  10.500
64038W        W30821   3.752  23.624   0.025
64039W        W30822  22.911  29.847   3.194
64040W        W30823  39.050   7.684  11.821
64041W        W30824   0.443  23.929   3.785
64042W        W30825  44.369   3.683   4.112
64043W        W30826   3.142   4.887   2.468
64044W        W30827   3.158   4.315  14.927
64045W        W30828  44.878  20.630   1.901
64046W        W30829  13.047  31.501   3.653
64047W        W30830  21.457  34.632   3.230
64048W        W30831   5.311   6.743   3.144
64049W        W30832  44.162   6.214   4.534
64050W        W30833  13.248  25.160   2.115
64051W        W30834  26.741   7.165   3.947
64052W        W30835  26.763   1.480  13.861
64053W        W30836   7.487  13.645   2.586
64054W        W30837  21.165  24.770   4.171
64055W        W30838  27.395  17.655   1.887
64056W        W30839   9.107  37.324  14.919
64057W        W30840  42.034  34.435   3.817
64058W        W30841  36.053  30.121  13.445
64059W        W30842  32.994  36.116  10.784
64060W        W30843  27.604   5.601   4.778
64061W        W30844  40.216  40.828   3.672
64062W        W30845  30.543  31.279   3.575
64063W        W30846  25.265   0.504  13.931
64064W        W30847  33.638  38.608   2.034
64065W        W30848   8.142  43.725   2.281
64066W        W30849  34.511  25.365  13.609
64067W        W30850  28.779   5.970   1.584
64068W        W30851  39.586  37.994  14.010
64069W        W30852  15.075  14.904   2.352
64070W        W30853  17.034  20.334  14.467
64071W        W30854  26.881  22.480  10.738
64072W        W30855  38.115  27.588   1.883
64073W        W30856  26.753  36.947   1.898
64074W        W30857   3.280  24.488  11.480
64075W        W30858  38.748  15.147   3.716
64076W        W30859  19.008  33.257   2.012
64077W        W30860  13.944  10.359  14.886
64078W        W30861  25.131  22.739  10.950
64079W        W30862   7.721  14.744   0.241
64080W        W30863  24.029   9.965  13.708
64081W        W30864  43.867  36.799  14.593
64082W        W30865   9.656   5.719   2.219
64083W        W30866   2.139  36.944   2.770
64084W        W30867   6.365  13.196   0.673
64085W        W30868  44.225  35.861   0.428
64086W        W30869  23.760  11.621  11.179
64087W        W30870  17.224  36.761   3.292
64088W        W30871  22.546  14.891   4.486
64089W        W30872   9.641  14.909  12.178
64090W        W30873  32.995   9.772  13.404
64091W        W30874  27.603  12.048   4.524
64092W        W30875  33.427  13.156  14.858
64093W        W30876  28.134  34.492   1.721
64094W        W30877  32.065  23.972  13.383
64095W        W30878   4.346  23.554   1.277
64096W        W30879  22.242   9.173  11.916
64097W        W30880   6.475  27.630  11.997
64098W        W30881  24.482  21.479   1.810
64099W        W30882   7.769  35.148  11.569
64100W        W30883  40.338  10.261  12.963
64101W        W30884  35.068   4.472   0.815
64102W        W30885   4.462   6.958   3.277
64103W        W30886  42.838   9.837   4.724
64104W        W30887  11.818  22.080  14.052
64105W        W30888  14.353  35.726   5.468
64106W        W30889  11.758  21.442   2.682
64107W        W30890  16.155  26.651   0.260
64108W        W30891   1.730   2.318   2.753
64109W        W30892   1.284  31.607  12.901
64110W        W30893  39.400  44.264   4.119
64111W        W30894  17.804  23.179   4.564
64112W        W30895  22.062  23.662   2.413
64113W        W30896  16.783   0.950   4.095
64114W        W30897  43.346  21.525  14.463
64115W        W30898  33.255   7.446   3.550
64116W        W30899  22.046  35.930   3.213
64117W        W30900   8.738  39.833   4.319
64118W        W30901  43.331   9.856  10.015
64119W        W30902  43.839  20.138   4.039
64120W        W30903  32.267  22.069  12.560
64121W        W30904  11.641  42.439  10.493
64122W        W30905  28.277   8.247   3.318
64123W        W30906  43.683  33.200  11.705
64124W        W30907  31.585  30.898   0.253
64125W        W30908  32.902  33.108  10.797
64126W        W30909  33.561   4.407  10.734
64127W        W30910  19.189  37.817  10.602
64128W        W30911  36.889  40.994  11.605
64129W        W30912   2.533  19.556   3.354
64130W        W30913  31.938  18.723  12.613
64131W        W30914  23.635  12.572   4.094
64132W        W30915  37.337  33.116   4.002
64133W        W30916  36.216  40.435   5.020
64134W        W30917  38.282  17.604  11.037
64135W        W30918   2.742  37.564   1.736
64136W        W30919  43.299   5.300  14.639
64137W        W30920  35.054   4.348   3.712
64138W        W30921   5.170  39.886   0.921
64139W        W30922  18.098  22.254   1.589
64140W        W30923  19.978  12.533   3.285
64141W        W30924  43.026  34.954   0.358
64142W        W30925  40.784   0.540   0.462
64143W        W30926  14.083  30.157   1.028
64144W        W30927   3.932  39.463  11.231
64145W        W30928   7.909  31.596   2.807
64146W        W30929  13.226  34.379  12.826
64147W        W30930  10.731   1.235  13.326
64148W        W30931  10.305  22.460  11.205
64149W        W30932   0.285  29.541  14.955
64150W        W30933   8.895  39.544  13.559
64151W        W30934  14.710   2.256   0.306
64152W        W30935   1.479  18.324  13.992
64153W        W30936  10.301  15.425   1.219
64154W        W30937  10.620  15.419   1.966
64155W        W30938  13.725  20.832  12.844
64156W        W30939   4.689  41.085   2.242
64157W        W30940  27.130  43.631  11.525
64158W        W30941  37.198   1.993   1.513
64159W        W30942  40.898  31.945   4.822
64160W        W30943  37.572  39.861  14.768
64161W        W30944  17.079  10.407  13.571
64162W        W30945  38.177  19.683  12.923
64163W        W30946  35.070  18.638  10.576
64164W        W30947   4.335  43.484   1.161
64165W        W30948   0.427  22.678  14.815
64166W        W30949  37.957   5.079  11.758
64167W        W30950   2.115  30.382  13.090
64168W        W30951  15.691  20.614   9.940
64169W        W30952  42.451  23.469  10.989
64170W        W30953  13.521  26.537  10.592
64171W        W30954  25.443   9.629   4.066
64172W        W30955  34.623   4.183   0.767
64173W        W30956   1.044   3.805   1.888
64174W        W30957   4.888  43.060   0.865
64175W        W30958  28.247  22.742  12.544
64176W        W30959  10.313   9.548   1.446
64177W        W30960  42.941   6.934  13.465
64178W        W30961  13.484  20.097   4.504
64179W        W30962  19.611  43.645  11.912
64180W        W30963  12.620   5.853  10.705
64181W        W30964  37.991   7.858   1.988
64182W        W30965  18.081  22.686   1.884
64183W        W30966  30.986  22.909   3.037
64184W        W30967  34.171   0.443  12.136
64185W        W30968  27.625   5.158  14.342
64186W        W30969  27.549  23.125   4.390
64187W        W30970  38.050  37.919   2.747
64188W        W30971  31.432  20.289  13.442
64189W        W30972   2.863  29.676   4.139
64190W        W30973  23.553  31.697   3.345
64191W        W30974   1.876  24.278   3.198
64192W        W30975  11.972  41.095   2.250
64193W        W30976   4.092  10.678  12.449
64194W        W30977  15.983  34.568   2.793
64195W        W30978  29.437  15.864   5.199
64196W        W30979  36.322   5.237  11.146
64197W        W30980   2.976   1.505  13.682
64198W        W30981  38.322   5.354  10.716
64199W        W30982   3.024  20.489   3.267
64200W        W30983  43.457  16.912  11.421
64201W        W30984  37.174  35.719   1.344
64202W        W30985  25.628  32.559  12.106
64203W        W30986  16.753  12.100   2.193
64204W        W30987  41.320  27.012   5.102
64205W        W30988  32.446   0.181  12.554
64206W        W30989  21.649  38.240  14.974
64207W        W30990  42.672  13.502  13.258
64208W        W30991  20.551  39.788  10.555
64209W        W30992   8.847  23.516   4.429
64210W        W30993  10.801  37.525  13.564
64211W        W30994  28.557   2.451   4.228
64212W        W30995  43.868   0.890  13.994
64213W        W30996  10.404  37.941   3.659
64214W        W30997  32.246  26.642   4.239
64215W        W30998  37.023   7.462  14.731
64216W        W30999  15.337  21.556   4.771
64217W        W31000   0.861  15.262   4.993
64218W        W31001   3.332  38.787   2.316
64219W        W31002  43.804   2.381  10.624
64220W        W31003  19.870  33.951   1.398
64221W        W31004  21.040  29.145   1.359
64222W        W31005  12.074  28.568  13.922
64223W        W31006  15.839  12.334  13.874
64224W        W31007   9.637  19.003  12.426
64225W        W31008  24.746  28.279   4.501
64226W        W31009  41.268   5.987   1.765
64227W        W31010  32.929   8.260   2.341
64228W        W31011  40.809   7.873  11.972
64229W        W31012  36.577  10.275  11.448
64230W        W31013  15.811   6.964  14.113
64231W        W31014  28.955  14.470  12.771
64232W        W31015  27.946   4.868   0.973
64233W        W31016  43.237  23.085  11.162
64234W        W31017  11.377   4.356  13.869
64235W        W31018   4.462  17.623   4.874
64236W        W31019  22.533  43.378  14.394
64237W        W31020  10.206  21.194   1.217
64238W        W31021  20.594  37.939  11.754
64239W        W31022  20.331  42.482   3.031
64240W        W31023  31.655  15.526  10.683
64241W        W31024  16.802  19.215   4.100
64242W        W31025  32.580  21.836   0.720
64243W        W31026  12.025  18.571  12.112
64244W        W31027  42.981  25.346   5.196
64245W        W31028  44.972  25.326  14.989
64246W        W31029  42.706   8.852   3.702
64247W        W31030   8.982  22.110   1.694
64248W        W31031   7.149  23.226   0.815
64249W        W31032  39.324   8.413   4.553
64250W        W31033  21.539   3.656   3.671
64251W        W31034  14.560  10.900  12.014
64252W        W31035   3.886   2.318   0.939
64253W        W31036   2.241  16.290   2.881
64254W        W31037  14.740  34.101  12.747
64255W        W31038  35.821  33.737  14.529
64256W        W31039  29.996  32.961   0.518
64257W        W31040  27.521  30.080  14.499
64258W        W31041  20.574   8.907   1.402
64259W        W31042  33.410  29.418   1.209
64260W        W31043  42.469  32.203   4.201
64261W        W31044  42.381   8.490   0.471
64262W        W31045  27.510  10.711  12.679
64263W        W31046  44.061  24.116  14.697
64264W        W31047   7.412  17.770   0.930
64265W        W31048  24.630  11.586  11.348
64266W        W31049   4.926  38.371   2.702
64267W        W31050  13.368  18.779   9.744
64268W        W31051   3.032   6.686   0.275
64269W        W31052  33.538  30.032   0.072
64270W        W31053   3.629  10.458  12.164
64271W        W31054  13.295  11.319  14.740
64272W        W31055  44.362  25.983  13.699
64273W        W31056   0.885  36.165  11.177
64274W        W31057  15.850  30.215  13.943
64275W        W31058   7.163  18.766  13.535
64276W        W31059  20.064   3.713   3.131
64277W        W31060  21.547  36.501  10.729
64278W        W31061  18.559  10.750  14.752
64279W        W31062  34.044  32.742  12.381
64280W        W31063   5.916  28.158   3.009
64281W        W31064   7.530   7.181  12.545
64282W        W31065  38.907  41.335   3.202
64283W        W31066   3.041   9.551   1.756
64284W        W31067   9.281  19.670   4.167
64285W        W31068  36.354  35.038   4.423
64286W        W31069  26.683  24.283   1.838
64287W        W31070  33.532  18.948   5.176
64288W        W31071  37.898  42.062  12.473
64289W        W31072  26.734   4.217   1.294
64290W        W31073  32.318  43.807  13.373
64291W        W31074   3.318  30.836  11.697
64292W        W31075  42.841  43.738   4.677
64293W        W31076  28.955   5.350  12.874
64294W        W31077  28.505   5.177   1.313
64295W        W31078  18.196  26.368   2.442
64296W        W31079  11.057  31.945  14.258
64297W        W31080  25.450  32.641   2.262
64298W        W31081  34.919  29.642   4.148
64299W        W31082  11.668  31.020   0.844
64300W        W31083   1.415  24.220   4.457
64301W        W31084  17.323   6.361  10.682
64302W        W31085  43.931  33.105   1.791
64303W        W31086  22.917  11.381  11.603
64304W        W31087  23.324   1.386   0.355
64305W        W31088   6.362  36.553   0.874
64306W        W31089  40.502  19.594  13.858
64307W        W31090  26.795  42.052  11.072
64308W        W31091  30.140  32.228  14.364
64309W        W31092  40.009  17.220   3.601
64310W        W31093  20.038  14.040   4.959
64311W        W31094  34.484  34.642  12.402
64312W        W31095  39.468   9.880   1.455
64313W        W31096  37.516   1.647   4.802
64314W        W31097  13.096  43.820   0.085
64315W        W31098  26.963  31.876  13.796
64316W        W31099  31.848  20.763  14.832
64317W        W31100  38.756  41.475   1.524
64318W        W31101   3.956  13.125  14.272
64319W        W31102  31.590  34.495  12.268
64320W        W31103  16.091   6.497   0.309
64321W        W31104  25.716  14.094   3.214
64322W        W31105  26.859  25.174  12.487
64323W        W31106  11.817  39.262   0.379
64324W        W31107  37.552  29.658  11.222
64325W        W31108  14.776  23.019  12.932
64326W        W31109  18.678  37.602  14.089
64327W        W31110  19.214  28.961   2.262
64328W        W31111   7.370  23.283   0.348
64329W        W31112   0.184  18.447   0.225
64330W        W31113  18.675  19.679  11.953
64331W        W31114  18.133  22.758  13.772
64332W        W31115  41.415  37.439  11.871
64333W        W31116  41.014  18.048   2.963
64334W        W31117   1.685  14.840  11.594
64335W        W31118  41.447  37.500   0.708
64336W        W31119   9.367  19.132  13.240
64337W        W31120   8.269  33.374   2.568
64338W        W31121  36.579  38.107  10.681
64339W        W31122  36.987  44.789  14.405
64340W        W31123  22.801  17.839   4.339
64341W        W31124  42.404  30.587   4.446
64342W        W31125  36.631  25.123  13.830
64343W        W31126  34.085  29.964   2.871
64344W        W31127  12.549  27.084   1.473
64345W        W31128  20.248  14.758  11.590
64346W        W31129  31.907  41.866   4.346
64347W        W31130  13.688  40.187   4.826
64348W        W31131  44.963   4.310  12.496
64349W        W31132  22.185   4.494   2.991
64350W        W31133  22.763  19.685   2.823
64351W        W31134  25.180  43.369   0.752
64352W        W31135  21.041  39.015  13.456
64353W        W31136  44.226   8.028   2.195
64354W        W31137   7.697  13.174  14.800
64355W        W31138  18.586  18.826   2.719
64356W        W31139  42.283  41.468   1.272
64357W        W31140   2.448  39.555  13.943
64358W        W31141  26.027   2.717  13.968
64359W        W31142   8.381  24.309  11.097
64360W        W31143   7.506   0.151  13.011
64361W        W31144   6.300  16.767   2.552
64362W        W31145  16.462  13.571   4.603
64363W        W31146  27.630  40.399  14.430
64364W        W31147  19.209  41.516  10.964
64365W        W31148   9.647  10.258   3.737
64366W        W31149  35.495   2.484  11.682
64367W        W31150  11.852  30.592  14.491
64368W        W31151   4.384  17.958   0.645
64369W        W31152   1.983  31.631   2.166
64370W        W31153  38.004  12.753  10.657
64371W        W31154  18.577   5.440  13.286
64372W        W31155  13.125  37.309  13.122
64373W        W31156   0.292  18.935   1.441
64374W        W31157  28.252   3.463  13.960
64375W        W31158   0.823  14.209  12.526
64376W        W31159  39.860  26.071   0.665
64377W        W31160  18.918  25.620   1.361
64378W        W31161  34.994  20.084  14.541
64379W        W31162  13.828  40.270  13.930
64380W        W31163  11.143  33.810   4.080
64381W        W31164  10.243  42.371   2.364
64382W        W31165  29.162  31.582   1.385
64383W        W31166  31.436  29.364  13.724
64384W        W31167  36.820  13.654   4.310
64385W        W31168  21.660  28.494   3.719
64386W        W31169  24.319  14.958   1.932
64387W        W31170  40.296   0.297   2.709
64388W        W31171  44.015  28.817  11.092
64389W        W31172  28.631  20.098  11.866
64390W        W31173  33.223  30.201  12.002
64391W        W31174  17.752   5.566   0.960
64392W        W31175  40.879  12.329  12.476
64393W        W31176  12.176  10.423   3.829
64394W        W31177  35.763   2.265  12.073
64395W        W31178   6.137  44.211   4.895
64396W        W31179   8.758   9.272   3.072
64397W        W31180  37.286  44.920  13.985
64398W        W31181  29.941  31.357  11.624
64399W        W31182  38.368  38.523  14.251
64400W        W31183  27.141  21.693  10.728
64401W        W31184  29.484  43.475  13.484
64402W        W31185  13.099  36.099  12.587
64403W        W31186  37.750  24.952   5.062
64404W        W31187  21.022  30.441   0.840
64405W        W31188  34.322  44.992  14.852
64406W        W31189  34.418  32.799   0.551
64407W        W31190   9.928  31.609  11.527
64408W        W31191  21.545  15.684  13.347
64409W        W31192  43.709  20.244   2.222
64410W        W31193   3.624  43.231   4.581
64411W        W31194   2.859  22.178   4.072
64412W        W31195  35.395  24.688  12.397
64413W        W31196  21.153  43.471  14.412
64414W        W31197  44.681  17.785   0.866
64415W        W31198  18.283   9.706  13.790
64416W        W31199  21.219  42.845  13.182
64417W        W31200  30.065  21.270  10.071
64418W        W31201  27.999  44.161   1.017
64419W        W31202  11.220  26.256  13.742
64420W        W31203  39.352  42.634   3.208
64421W        W31204   7.243  36.448  10.681
64422W        W31205  11.900  13.618  11.459
64423W        W31206   6.869  36.820  10.669
64424W        W31207   2.035  25.629   2.497
64425W        W31208  43.929  12.174  13.139
64426W        W31209   4.835  26.442   0.347
64427W        W31210   7.682   3.834   4.492
64428W        W31211   3.309  22.673   4.576
64429W        W31212   0.929  37.697  10.115
64430W        W31213  11.131  13.277  10.830
64431W        W31214   6.026  41.400  12.887
64432W        W31215  33.121  11.658  11.992
64433W        W31216  13.354   8.334   2.778
64434W        W31217  38.711   1.402  13.556
64435W        W31218   9.785  11.682  12.079
64436W        W31219   6.003  18.517  12.984
64437W        W31220  26.514   2.327  12.179
64438W        W31221  25.907  10.831   3.641
64439W        W31222  24.533  20.252   0.455
64440W        W31223   2.885  12.633  12.146
64441W        W31224   4.911  43.782  13.548
64442W        W31225  29.104   3.108  11.608
64443W        W31226  43.537  40.412  14.886
64444W        W31227  19.913  16.023  14.500
64445W        W31228   5.790   5.915   4.362
64446W        W31229   6.679  11.426  10.773
64447W        W31230  23.116   7.205   0.933
64448W        W31231  44.014  16.206  13.994
64449W        W31232  24.050  37.175  10.699
64450W        W31233  17.177  28.705   0.796
64451W        W31234   7.754  20.831   2.373
64452W        W31235  22.695  17.375  10.502
64453W        W31236  36.931  28.610   2.785
64454W        W31237  21.253   3.440  12.777
64455W        W31238  14.276  15.244   2.856
64456W        W31239  12.839  32.937   0.918
64457W        W31240   3.883   7.316   1.783
64458W        W31241  31.649  40.225   0.064
64459W        W31242  29.049  18.256  11.128
64460W        W31243  14.732   2.282  14.371
64461W        W31244  44.243  34.468  12.742
64462W        W31245  27.558  23.817   3.719
64463W        W31246  20.335  33.233  12.953
64464W        W31247  31.629   1.178  10.905
64465W        W31248  43.037   4.957   0.778
64466W        W31249   2.865   1.400  14.869
64467W        W31250  29.629   3.403  14.579
64468W        W31251  38.924  31.532   4.823
64469W        W31252  22.346   4.054  13.416
64470W        W31253  27.409   4.929   0.833
64471W        W31254   6.833  17.971  10.459
64472W        W31255   7.259  24.554  14.204
64473W        W31256   6.469  26.077  12.219
64474W        W31257  18.145  14.658   2.152
64475W        W31258  18.620  13.002  11.468
64476W        W31259  24.964   2.716   0.375
64477W        W31260   4.393  22.337  14.838
64478W        W31261   1.425  26.023  11.901
64479W        W31262  29.568  39.448   3.181
64480W        W31263  26.504   7.026  12.540
64481W        W31264  42.537  42.003   2.440
64482W        W31265  33.607  31.922  13.945
64483W        W31266  38.466  21.549   4.987
64484W        W31267  27.396  43.293  12.303
64485W        W31268  23.734  41.471   2.151
64486W        W31269  31.379  15.575   0.813
64487W        W31270  19.273  39.495   4.537
64488W        W31271  11.968  17.953  12.557
64489W        W31272   1.818  12.274  12.132
64490W        W31273   5.973   7.436   0.807
64491W        W31274   3.947  42.320  11.382
64492W        W31275  23.949  11.735   4.210
64493W        W31276  19.805  44.437  13.908
64494W        W31277  34.265  31.097  11.530
64495W        W31278   4.330   5.986  11.655
64496W        W31279  28.629  29.543   3.641
64497W        W31280  35.617   9.317  13.826
64498W        W31281  32.886  29.237  14.905
64499W        W31282   1.113   0.822   2.678
64500W        W31283   7.792   2.637   1.763
64501W        W31284  23.563   7.481  12.366
64502W        W31285  40.698  37.443   3.231
64503W        W31286  31.306  15.763   9.878
64504W        W31287  13.657  32.617  10.493
64505W        W31288  35.512  42.812  11.473
64506W        W31289  11.944  11.633   2.702
64507W        W31290  14.591   3.195  10.741
64508W        W31291  15.370  42.687  13.220
64509W        W31292  18.561  18.749  11.466
64510W        W31293  24.570  36.609  14.305
64511W        W31294  41.825  11.661  10.690
64512W        W31295  42.296   2.571  14.458
64513W        W31296  20.662  17.398  11.164
64514W        W31297  35.349   1.875  14.753
64515W        W31298  22.238  25.608  13.604
64516W        W31299  33.104  31.406   0.489
64517W        W31300   6.092  19.704  12.060
64518W        W31301   8.006  40.020  14.567
64519W        W31302  25.110  10.642  11.504
64520W        W31303  17.826  36.623  11.540
64521W        W31304  29.638  43.938   4.520
64522W        W31305  16.618  16.044   0.836
64523W        W31306  26.673   4.022  13.950
64524W        W31307  23.103  28.675   1.397
64525W        W31308  39.373  17.252   1.782
64526W        W31309  41.987  28.987   2.320
64527W        W31310   9.838   5.770   3.031
64528W        W31311  28.943  29.676   0.413
64529W        W31312  14.051  26.708   1.840
64530W        W31313  16.591  34.382  12.442
64531W        W31314  28.025  11.247   2.996
64532W        W31315  36.327  15.018   1.629
64533W        W31316  14.216   3.771  13.364
64534W        W31317  14.734  39.039   5.070
64535W        W31318  43.957  13.975   2.291
64536W        W31319  36.894  32.806  11.076
64537W        W31320   8.407  40.419   2.307
64538W        W31321  17.739   2.725   4.601
64539W        W31322  26.895  11.578  10.276
64540W        W31323   4.248   0.829   0.805
64541W        W31324   5.557  34.060   3.248
64542W        W31325  15.753   8.921  12.001
64543W        W31326  30.582  38.475   4.090
64544W        W31327  32.958  44.164   2.813
64545W        W31328  11.742  19.600   2.863
64546W        W31329  40.092   7.406  13.182
64547W        W31330  28.426  15.212   0.397
64548W        W31331   2.997  15.648   4.060
64549W        W31332   3.280   9.225  13.285
64550W        W31333  18.633   3.045   0.695
64551W        W31334   9.644  26.245   3.798
64552W        W31335  35.027  20.522  14.276
64553W        W31336   1.000  23.638  13.011
64554W        W31337   0.500  41.441  11.228
64555W        W31338  35.950  15.139  14.850
64556W        W31339   4.979  20.774   0.502
64557W        W31340  30.178  37.569  13.797
64558W        W31341  25.830  19.573   2.621
64559W        W31342  14.766   9.073   2.718
64560W        W31343  29.954   2.315   3.756
64561W        W31344  11.740   4.705  14.655
64562W        W31345  14.778  35.150   2.281
64563W        W31346  21.183  13.778  13.953
64564W        W31347   5.381  34.720   2.212
64565W        W31348  19.678  26.874  14.948
64566W        W31349  24.271  16.803   1.780
64567W        W31350  20.024  30.986   3.682
64568W        W31351  31.624  23.880   1.916
64569W        W31352  31.064  24.216  13.969
64570W        W31353  29.014  17.583   1.404
64571W        W31354  30.628   7.197   0.474
64572W        W31355  33.542   1.387   3.290
64573W        W31356  43.450  40.330   3.921
64574W        W31357  22.614   1.714   2.385
64575W        W31358  24.185  19.095  14.003
64576W        W31359  32.671  11.603   4.546
64577W        W31360   7.075  14.380   4.425
64578W        W31361   1.984  39.728  14.120
64579W        W31362  34.690   2.933  11.564
64580W        W31363  25.826  22.040   1.320
64581W        W31364  18.243  29.680   2.356
64582W        W31365  17.508   3.719  11.968
64583W        W31366  43.656  39.262  12.856
64584W        W31367  10.622  40.136  13.501
64585W        W31368  40.744  30.133  13.162
64586W        W31369  15.301  28.523  10.713
64587W        W31370  29.709  20.173  11.670
64588W        W31371  33.650  18.460  14.443
64589W        W31372  26.716  39.167   0.707
64590W        W31373  30.720  44.255  11.820
64591W        W31374   8.088  13.863  14.728
64592W        W31375  13.099  32.007   3.728
64593W        W31376   9.166  35.998  14.381
64594W        W31377  29.643  16.459  12.014
64595W        W31378  33.326   5.508  12.689
64596W        W31379  25.605  35.612  13.513
64597W        W31380  33.061  31.167   4.753
64598W        W31381  26.934   1.053   4.231
64599W        W31382  26.033  22.936   1.284
64600W        W31383  30.579  15.142   3.107
64601W        W31384   3.482  30.452   2.757
64602W        W31385  25.781   2.797   2.209
64603W        W31386  16.670  22.285   1.301
64604W        W31387  18.177  44.252   2.182
64605W        W31388   1.387  37.905   0.857
64606W        W31389  42.799  38.378  14.011
64607W        W31390   7.276   7.688   4.907
64608W        W31391  15.542   1.018  11.183
64609W        W31392  14.180  30.843  10.557
64610W        W31393   2.673  24.752  14.647
64611W        W31394  39.895   2.488   4.637
64612W        W31395  19.032   9.302   1.144
64613W        W31396  20.478  26.960   2.131
64614W        W31397  35.799   4.445  11.409
64615W        W31398   4.424  18.026  10.782
64616W        W31399  27.021  44.363   5.189
64617W        W31400   4.809  18.562   2.425
64618W        W31401   7.370  26.524  14.398
64619W        W31402  32.111  11.213   1.818
64620W        W31403   0.738  31.595  11.066
64621W        W31404  18.608  24.218   1.364
64622W        W31405  20.235  41.153  10.323
64623W        W31406  39.309  15.371  11.612
64624W        W31407  17.009   7.526   0.421
64625W        W31408  36.378  29.539   4.586
64626W        W31409  11.388  28.019   0.893
64627W        W31410   0.046   9.320  11.791
64628W        W31411   9.827  40.270  12.823
64629W        W31412  11.398  14.693  12.775
64630W        W31413  43.403  33.187   4.409
64631W        W31414  32.417  11.042  11.542
64632W        W31415  35.167  37.137  14.399
64633W        W31416  21.170   7.408   4.247
64634W        W31417  13.593  37.567   1.587
64635W        W31418  38.001  31.408  10.592
64636W        W31419  18.509   0.756   0.275
64637W        W31420  38.611  41.800   0.057
64638W        W31421   5.396  30.239   4.146
64639W        W31422  12.232  26.556   3.582
64640W        W31423  20.517   5.753  10.537
64641W        W31424  38.844   8.180   4.199
64642W        W31425   0.404  14.096  12.804
64643W        W31426  22.587  16.919   2.389
64644W        W31427  25.916  28.197  11.555
64645W        W31428  12.778  29.048   2.227
64646W        W31429  12.161  22.614  12.296
64647W        W31430  33.874  27.932   2.139
64648W        W31431  25.220  21.177  11.231
64649W        W31432   0.295  26.148  14.453
64650W        W31433  13.192  42.879  14.309
64651W        W31434  35.789  15.307   1.171
64652W        W31435  15.279   1.142   0.655
64653W        W31436  30.125  24.662  10.688
64654W        W31437  12.728  30.333  14.394
64655W        W31438  16.506  25.862   1.826
64656W        W31439   8.898  36.045   4.781
64657W        W31440   3.221  14.131   3.160
64658W        W31441  26.606   6.863   4.723
64659W        W31442  36.923  32.354  14.060
64660W        W31443  20.136  11.521   3.378
64661W        W31444  26.605  25.741   1.256
64662W        W31445   7.882  32.917   1.363
64663W        W31446  32.273  17.094  11.991
64664W        W31447  40.858  24.972   0.039
64665W        W31448  27.130  44.953  12.177
64666W        W31449  42.508  33.837  13.931
64667W        W31450  22.629  10.978  11.936
64668W        W31451  17.525  13.381   1.000
64669W        W31452  41.911  13.621   3.117
64670W        W31453  44.127   4.388  10.634
64671W        W31454  14.339  23.561  12.332
64672W        W31455   1.901  30.135  12.661
64673W        W31456  42.535  24.078   0.991
64674W        W31457  18.660  21.668  14.121
64675W        W31458  32.573  18.428   0.311
64676W        W31459  22.748  36.840   3.267
64677W        W31460  10.793   8.821   2.112
64678W        W31461  33.979  25.482  13.383
64679W        W31462  20.257   9.900  11.167
64680W        W31463  26.476  11.721  11.039
64681W        W31464  36.484  30.675  13.053
64682W        W31465   1.791  39.681   1.963
64683W        W31466  20.904   3.866   5.051
64684W        W31467  21.071  39.176  12.945
64685W        W31468  30.573  35.569   4.421
64686W        W31469  20.039  38.363   1.529
64687W        W31470  29.474  20.064  13.844
64688W        W31471  42.489  35.909  12.915
64689W        W31472  30.020  14.334  10.662
64690W        W31473  11.810  24.839  10.211
64691W        W31474  25.480   8.592   1.276
64692W        W31475  18.758  16.244   3.588
64693W        W31476  28.939  25.535   1.256
64694W        W31477  42.838  40.332   0.378
64695W        W31478  13.836   2.819  11.193
64696W        W31479   2.732  25.725   3.378
64697W        W31480  17.333  41.541   2.396
64698W        W31481   7.484  13.092  12.712
64699W        W31482  38.096  18.762   4.234
64700W        W31483  25.175  17.352  14.209
64701W        W31484  27.553  26.189   1.370
64702W        W31485  30.924  21.031   0.845
64703W        W31486   8.255   4.615   3.733
64704W        W31487  29.684  36.485  14.792
64705W        W31488  37.134   7.766  11.471
64706W        W31489   2.313  21.607  12.493
64707W        W31490  20.527   3.632   0.037
64708W        W31491  37.539  25.174   3.209
64709W        W31492  26.142  16.611   4.102
64710W        W31493  29.890  41.026   2.277
64711W        W31494  33.906  34.804   2.176
64712W        W31495   8.943   5.948   1.718
64713W        W31496  17.861  10.413  11.631
64714W        W31497  37.382  39.827   0.268
64715W        W31498   8.947  18.208   1.444
64716W        W31499   9.771  36.894  10.671
64717W        W31500  43.880  27.176   4.619
64718W        W31501  28.138  23.415  13.089
64719W        W31502  18.691  16.038  14.815
64720W        W31503   6.784  16.581   4.177
64721W        W31504  39.135  19.794  14.288
64722W        W31505  30.800  11.363  12.990
64723W        W31506  31.799  33.921  14.980
64724W        W31507   2.300  22.265  10.705
64725W        W31508  21.565  14.913  10.958
64726W        W31509  13.970   1.379  11.493
64727W        W31510  18.791  24.746  14.876
64728W        W31511  26.086  41.638   4.091
64729W        W31512   2.240  44.629   2.137
64730W        W31513  19.576   0.669  14.349
64731W        W31514  28.984  29.591  10.799
64732W        W31515  27.895  43.805   1.386
64733W        W31516  13.908   9.758  12.128
64734W        W31517  40.395   7.298   1.488
64735W        W31518   3.607   0.830   1.740
64736W        W31519  11.327   1.769  13.870
64737W        W31520  22.986   1.423  13.541
64738W        W31521  28.515  15.295   2.284
64739W        W31522  37.656  34.540  10.565
64740W        W31523  35.344   9.946  11.503
64741W        W31524  25.703  42.443   2.080
64742W        W31525  19.052  33.043   4.570
64743W        W31526  14.359  31.136   2.639
64744W        W31527  14.641  36.627  14.028
64745W        W31528  34.420  27.680   1.758
64746W        W31529  38.076  10.761   4.058
64747W        W31530   5.926   7.116  12.995
64748W        W31531   7.235  17.636   0.453
64749W        W31532  28.124   8.655   0.358
64750W        W31533  26.055  44.500   2.304
64751W        W31534   1.714  32.475  10.506
64752W        W31535   0.514   3.545  14.415
64753W        W31536  40.831  29.902   4.588
64754W        W31537  15.377  11.117  11.713
64755W        W31538   6.243  41.421   0.429
64756W        W31539  27.206   6.154   3.917
64757W        W31540  30.423  16.228   3.872
64758W        W31541   6.883  13.594  13.888
64759W        W31542  22.057  14.514  11.928
64760W        W31543  41.711   9.372  12.085
64761W        W31544  38.263  33.938   3.737
64762W        W31545  20.241   4.725   3.241
64763W        W31546  13.750   6.055   2.831
64764W        W31547  35.020  13.216   0.703
64765W        W31548   7.170  25.022  12.961
64766W        W31549  39.126  38.918   1.348
64767W        W31550  31.534  29.114  12.993
64768W        W31551  11.759  27.537   4.099
64769W        W31552  18.770  18.581   3.142
64770W        W31553  18.653  37.027   3.331
64771W        W31554  30.093  10.121   0.757
64772W        W31555  10.229  28.099  10.797
64773W        W31556  27.264  28.066  10.684
64774W        W31557  14.623  42.835   2.086
64775W        W31558  36.068   0.164  12.421
64776W        W31559   1.719   9.629   2.072
64777W        W31560   4.425  23.838  13.724
64778W        W31561  41.186   9.846  12.378
64779W        W31562  28.508  19.175   0.292
64780W        W31563  12.436  33.565   0.394
64781W        W31564  34.383  23.835   4.230
64782W        W31565   2.355  18.395   1.327
64783W        W31566  22.606  42.849  11.614
64784W        W31567  37.820   0.956  11.591
64785W        W31568  33.009   5.071  13.564
64786W        W31569  27.646  41.856   4.515
64787W        W31570  43.927   7.387   3.866
64788W        W31571  24.102  38.593   3.272
64789W        W31572  41.925  38.862  12.028
64790W        W31573  23.579  13.735  12.952
64791W        W31574  25.503   0.709  12.971
64792W        W31575   0.393   1.236  12.988
64793W        W31576  40.411  21.918  11.155
64794W        W31577  32.176  36.758  12.958
64795W        W31578  38.862  25.015   1.367
64796W        W31579  11.171  38.050  10.632
64797W        W31580  22.096   1.937  14.141
64798W        W31581  28.991   2.652   1.873
64799W        W31582  36.787  10.782  10.486
64800W        W31583  18.020   0.263  14.517
64801W        W31584  40.865  17.149  13.919
64802W        W31585   0.451   7.343   4.162
64803W        W31586  21.594  31.921  12.005
64804W        W31587  35.455  27.666  12.874
64805W        W31588   4.842   3.121  10.227
64806W        W31589  33.807  23.047   4.574
64807W        W31590  25.584   8.090   1.360
64808W        W31591  13.297  44.799  10.687
64809W        W31592  26.935  42.486   2.381
64810W        W31593   2.544  19.067   2.722
64811W        W31594  26.509  35.516  13.059
64812W        W31595  29.993   9.507  13.430
64813W        W31596  42.882  15.092  11.340
64814W        W31597   4.429  39.710   1.764
64815W        W31598  26.879  24.101  11.609
64816W        W31599   6.861  10.543  14.056
64817W        W31600  26.709  16.287   1.289
64818W        W31601  41.575   8.794   0.018
64819W        W31602  17.104  41.465  14.768
64820W        W31603   4.850  32.662   2.889
64821W        W31604  39.889   0.318  10.376
64822W        W31605  24.583  35.111  14.966
64823W        W31606  10.983  17.186  14.559
64824W        W31607  19.542   8.498   2.170
64825W        W31608   2.807  29.632   0.466
64826W        W31609  26.610   6.800   1.786
64827W        W31610  32.164  35.261   2.612
64828W        W31611  16.891  27.250   4.346
64829W        W31612  10.185  11.192   0.201
64830W        W31613  19.204   7.965   1.404
64831W        W31614  34.433  18.137  12.359
64832W        W31615  22.515  21.745   4.349
64833W        W31616  20.749  15.729   4.764
64834W        W31617  43.416  27.609  13.748
64835W        W31618  39.323  20.028   0.230
64836W        W31619  21.549  43.884   3.433
64837W        W31620  25.659  36.871   2.198
64838W        W31621  13.797   7.704  14.027
64839W        W31622  37.870  23.474   3.524
64840W        W31623  31.191  19.589   2.293
64841W        W31624  37.660  38.928  13.059
64842W        W31625  41.632  32.102  13.610
64843W        W31626  17.772   2.584  14.513
64844W        W31627  12.583  40.970   4.613
64845W        W31628   1.867  40.235  14.237
64846W        W31629  24.747  14.808  13.980
64847W        W31630  27.534  33.304   3.679
64848W        W31631  13.006  16.856  13.363
64849W        W31632  20.139  30.368   1.052
64850W        W31633  34.349   0.460   3.264
64851W        W31634   4.224  40.775  14.942
64852W        W31635   5.840   0.249  10.683
64853W        W31636   7.791   8.670   2.880
64854W        W31637  35.958  17.088  12.377
64855W        W31638  29.925  30.945   4.110
64856W        W31639  17.445  21.279   1.264
64857W        W31640  35.477  15.073  13.604
64858W        W31641   8.277   2.501  13.821
64859W        W31642  20.121  31.964   2.342
64860W        W31643  15.232  25.451   3.206
64861W        W31644  26.497  25.898   2.308
64862W        W31645  33.153  22.792  14.003
64863W        W31646  15.547  27.481  11.981
64864W        W31647  14.322  14.718   3.676
64865W        W31648   2.994  16.756  11.724
64866W        W31649  40.531  39.922   0.815
64867W        W31650  27.586  11.350   3.689
64868W        W31651  13.079   6.841   0.025
64869W        W31652   0.393  34.633  11.919
64870W        W31653   1.634  16.157  13.046
64871W        W31654  14.730   7.259   2.950
64872W        W31655  32.592  35.083   1.274
64873W        W31656  18.155   8.910   3.692
64874W        W31657  34.844  44.456  10.744
64875W        W31658   4.492   6.889  13.948
64876W        W31659  44.625   6.371   1.753
64877W        W31660  23.592  22.422   4.292
64878W        W31661  40.541  43.499  13.646
64879W        W31662   4.371   7.974  11.547
64880W        W31663  19.207  22.426  12.375
64881W        W31664   2.632  22.241   0.927
64882W        W31665  27.141  38.448  12.016
64883W        W31666  22.568  27.267  13.043
64884W        W31667  34.889   6.312   3.400
64885W        W31668  19.275  24.002   0.946
64886W        W31669  10.354  23.286   0.400
64887W        W31670  34.616  35.935  14.490
64888W        W31671  26.003  42.262  11.660
64889W        W31672  16.171  31.144   2.886
64890W        W31673  27.209   0.743  14.558
64891W        W31674  20.568  41.336  10.679
64892W        W31675  25.054  22.490   0.391
64893W        W31676   9.232  17.190   2.000
64894W        W31677  32.981  40.452   1.582
64895W        W31678  40.237  34.341  12.819
64896W        W31679  43.491  12.094  11.637
64897W        W31680  25.478  25.185  12.437
64898W        W31681  28.211  18.244   2.764
64899W        W31682   1.376  30.461   0.181
64900W        W31683  17.629  44.090   2.310
64901W        W31684   6.836   1.718   1.879
64902W        W31685  18.552  10.202   0.479
64903W        W31686  43.333  25.037  11.565
64904W        W31687  12.676   3.474   4.366
64905W        W31688  29.002   9.676  10.603
64906W        W31689   8.220   9.244   3.920
64907W        W31690  35.131  32.488   1.240
64908W        W31691  28.087  11.939   0.818
64909W        W31692  26.116   3.272   4.645
64910W        W31693   8.730  44.965  14.798
64911W        W31694  31.512   4.949  10.457
64912W        W31695  13.341  42.448  12.022
64913W        W31696  23.786  17.597  13.215
64914W        W31697  17.887  11.270   0.028
64915W        W31698   8.613   8.109   2.663
64916W        W31699   2.267  10.612   2.370
64917W        W31700  18.214  32.628  14.400
64918W        W31701  17.275  44.447   2.238
64919W        W31702  32.133  31.780   3.122
64920W        W31703  40.324   6.376  10.981
64921W        W31704  25.173   3.538  11.641
64922W        W31705   2.951  29.213   2.915
64923W        W31706  25.462   7.324   0.408
64924W        W31707   8.891  32.484   0.810
64925W        W31708  34.827  39.781   1.733
64926W        W31709  16.824  17.318   3.545
64927W        W31710   7.185  37.280  11.161
64928W        W31711  35.609  16.253  13.853
64929W        W31712  17.379  21.234  11.525
64930W        W31713  37.820  22.438  10.154
64931W        W31714  31.626  38.019  12.357
64932W        W31715  10.280  12.771  13.350
64933W        W31716  17.552  33.913   3.262
64934W        W31717   2.649  28.463  12.381
64935W        W31718  22.626  30.190  14.837
64936W        W31719   6.873  43.955   1.355
64937W        W31720  20.350   2.413   2.609
64938W        W31721   7.386   9.290  14.818
64939W        W31722   1.529  32.972   3.297
64940W        W31723  26.844  18.456   2.818
64941W        W31724  44.270  13.088  12.827
64942W        W31725  28.370  20.546   4.151
64943W        W31726  43.978   1.578  14.450
64944W        W31727   6.953   2.918   1.183
64945W        W31728  20.235   3.812   0.922
64946W        W31729  44.743   9.969  14.850
64947W        W31730  14.220  22.219   1.376
64948W        W31731  11.613  30.545   0.981
64949W        W31732   8.924  29.705  11.745
64950W        W31733  20.638  25.750  12.408
64951W        W31734   4.149  38.121  14.679
64952W        W31735  22.608  35.460   3.357
64953W        W31736  29.683   7.047  10.451
64954W        W31737  33.752  14.235   0.289
64955W        W31738  12.039  11.089   4.423
64956W        W31739  23.357   3.380   9.792
64957W        W31740   8.972  20.579  11.974
64958W        W31741  27.372  24.495  10.151
64959W        W31742   1.663  42.624  11.066
64960W        W31743  18.523   6.220  12.375
64961W        W31744  10.103   6.266  11.994
64962W        W31745  25.529  15.717  11.549
64963W        W31746  11.240  14.513   1.462
64964W        W31747  21.792   7.245   3.087
64965W        W31748  25.936  19.616  14.919
64966W        W31749  26.885  12.749  13.186
64967W        W31750  29.091  35.361   0.132
64968W        W31751  39.706  31.451   0.346
64969W        W31752  29.959  40.514   2.323
64970W        W31753   9.669  19.544   1.361
64971W        W31754  43.091  33.495  11.185
64972W        W31755   6.178  32.522  12.652
64973W        W31756  22.796  14.550  14.429
64974W        W31757  43.398  36.153   1.307
64975W        W31758  22.181  16.389   0.765
64976W        W31759  13.555  37.966   0.806
64977W        W31760  29.597  30.414  10.689
64978W        W31761  23.952  12.580   4.662
64979W        W31762   0.042  13.195  14.293
64980W        W31763  36.850  14.281   0.540
64981W        W31764  21.496  43.847  13.925
64982W        W31765  11.496  30.914  13.263
64983W        W31766   8.644   7.431   4.518
64984W        W31767  30.971  39.607  10.756
64985W        W31768  25.211  33.783   3.515
64986W        W31769   6.360  10.617   3.537
64987W        W31770  11.340   8.853  13.473
64988W        W31771   6.778  14.755  14.765
64989W        W31772  24.413   0.783   4.520
64990W        W31773  10.153  29.916  12.392
64991W        W31774  40.631  31.852   0.304
64992W        W31775   6.705  36.454   0.487
64993W        W31776   0.300   6.476  11.967
64994W        W31777  13.289  27.252  11.280
64995W        W31778   3.655  39.339  13.454
64996W        W31779  27.565   1.926  11.724
64997W        W31780   2.371   0.395  10.693
64998W        W31781  22.025  10.270  11.013
64999W        W31782  38.782  38.960   3.854
65000W        W31783  20.712   5.877   2.714
65001W        W31784  19.989  10.399  13.868
65002W        W31785  28.664  42.998  13.129
65003W        W31786  23.136  28.570   3.171
65004W        W31787  14.195  15.118   3.379
65005W        W31788  23.076   0.767  11.133
65006W        W31789   4.460   6.236   2.776
65007W        W31790  22.771  43.028   2.822
65008W        W31791  34.499  38.784  12.060
65009W        W31792  44.282  26.663  12.524
65010W        W31793  24.285  34.227   4.982
65011W        W31794  27.494  34.126  14.372
65012W        W31795  16.296   8.917  14.898
65013W        W31796  18.624  17.442  12.596
65014W        W31797   0.727   2.482   1.345
65015W        W31798  20.768  39.500  13.311
65016W        W31799  22.542  27.305  12.136
65017W        W31800   9.346  13.782   4.112
65018W        W31801   1.428  15.790   4.208
65019W        W31802  29.131  36.577  10.561
65020W        W31803  28.213  27.224   5.029
65021W        W31804  18.011  26.707   1.437
65022W        W31805  33.390   3.281   4.079
65023W        W31806  43.231   5.221  13.601
65024W        W31807  19.808  12.258   4.156
65025W        W31808  25.344  44.726  13.005
65026W        W31809  36.956  44.868   4.301
65027W        W31810  28.363  10.830  14.399
65028W        W31811  12.137  21.722  12.770
65029W        W31812  30.967  10.618  14.812
65030W        W31813  17.525  34.843   3.183
65031W        W31814  27.582  34.439  13.974
65032W        W31815   4.316  20.333  13.982
65033W        W31816  43.126  34.881   4.965
65034W        W31817  15.506  36.574   1.567
65035W        W31818  17.328   9.640   3.051
65036W        W31819  19.311   5.487   2.659
65037W        W31820  26.650  24.272   2.821
65038W        W31821  16.498   4.164   2.256
65039W        W31822  12.007   2.759   4.692
65040W        W31823  33.132   8.873  13.012
65041W        W31824  11.462  34.823  12.689
65042W        W31825  43.862  20.239  14.321
65043W        W31826  16.582  27.704  12.067
65044W        W31827  16.061  37.609  14.755
65045W        W31828  24.133  27.327   3.165
65046W        W31829  23.000  15.737   0.796
65047W        W31830  13.219  22.806  10.548
65048W        W31831  27.592  22.539  14.000
65049W        W31832  31.156  37.272   4.645
65050W        W31833  39.329   1.729  12.306
65051W        W31834  35.652  18.658   0.229
65052W        W31835  39.378  17.117  13.086
65053W        W31836  31.012   1.706  13.832
65054W        W31837  13.237  10.615  11.143
65055W        W31838  42.987  40.529   4.065
65056W        W31839  10.165  28.451  14.990
65057W        W31840  21.415  44.353   3.611
65058W        W31841  40.441  13.777  12.068
65059W        W31842   0.710  20.246  14.238
65060W        W31843  24.055  14.206   3.505
65061W        W31844  40.331  14.827   2.643
65062W        W31845  37.078  34.908  11.019
65063W        W31846   6.366  44.131   2.420
65064W        W31847  42.251  23.933  14.984
65065W        W31848  44.468  24.939  12.934
65066W        W31849  33.954   9.045   0.728
65067W        W31850  22.240   6.430  14.050
65068W        W31851  29.724  24.067   1.738
65069W        W31852  25.589  28.188   1.156
65070W        W31853   0.909  28.963  10.189
65071W        W31854  25.719  17.607   1.779
65072W        W31855  39.957  26.751   3.723
65073W        W31856  34.709  34.872  10.811
65074W        W31857  43.373  35.825   1.713
65075W        W31858  36.802  40.234  12.056
65076W        W31859  12.288  22.466   0.338
65077W        W31860   8.876  18.640  12.615
65078W        W31861  43.889   7.210   0.987
65079W        W31862  11.378   9.831   9.848
65080W        W31863  26.212  26.695   4.168
65081W        W31864  36.818  10.491   4.438
65082W        W31865  22.711  38.279  11.271
65083W        W31866   4.932  34.868  13.342
65084W        W31867  38.892  29.234   2.486
65085W        W31868  22.207  41.093  12.550
65086W        W31869  13.292   7.271  13.793
65087W        W31870  39.214  17.529  10.711
65088W        W31871  14.867   4.447  13.078
65089W        W31872  33.409   8.970   4.289
65090W        W31873   7.752  14.638   4.537
65091W        W31874  10.945   9.220   3.668
65092W        W31875   7.261   2.484   0.312
65093W        W31876  19.569  22.032  11.025
65094W        W31877  39.293  42.401  14.816
65095W        W31878   6.686  26.485  13.458
65096W        W31879  25.591   4.951  13.214
65097W        W31880  12.424   5.930  13.534
65098W        W31881  20.639  42.219   1.422
65099W        W31882  29.003  17.628   4.705
65100W        W31883  42.285  40.908   3.716
65101W        W31884  33.919  14.465   2.342
65102W        W31885  34.382  42.365   4.756
65103W        W31886   0.165  31.930   3.829
65104W        W31887  20.454  26.810   0.503
65105W        W31888  17.940  40.736   1.624
65106W        W31889  32.444  38.180  11.183
65107W        W31890  29.406  41.043  13.832
65108W        W31891   8.138  13.892  10.388
65109W        W31892  39.607   8.097  12.890
65110W        W31893  43.331  44.469  10.762
65111W        W31894  43.406   8.904   1.579
65112W        W31895  22.757  19.986  12.677
65113W        W31896   0.494  28.837  13.149
65114W        W31897  12.553  30.987   2.122
65115W        W31898  10.925  37.056  13.391
65116W        W31899   3.797  21.402  12.530
65117W        W31900  38.319  18.147   2.795
65118W        W31901   2.475   4.974  14.851
65119W        W31902  34.838   3.855   4.803
65120W        W31903  29.013  36.423  11.427
65121W        W31904  23.989  15.059  11.931
65122W        W31905   2.839  17.365   2.611
65123W        W31906  21.179  27.580  13.861
65124W        W31907  38.946   6.401   1.194
65125W        W31908  36.820   9.884  12.494
65126W        W31909   1.050  26.683  13.013
65127W        W31910   1.793  14.293   1.773
65128W        W31911  30.882  18.491  12.569
65129W        W31912   1.503  25.766  13.459
65130W        W31913   7.664  43.630  11.710
65131W        W31914   3.512  21.810  11.941
65132W        W31915  10.554  18.180   4.103
65133W        W31916  44.447  32.608   0.160
65134W        W31917  14.275   2.537   0.416
65135W        W31918  42.026  28.637  11.057
65136W        W31919  24.573  34.098  11.163
65137W        W31920  31.904   7.952   1.864
65138W        W31921  32.549  13.642   0.861
65139W        W31922   5.401  13.677  13.608
65140W        W31923  20.707   3.810   3.837
65141W        W31924  23.522  40.090  10.097
65142W        W31925  32.563  15.536  14.809
65143W        W31926   4.325  24.796  13.751
65144W        W31927  25.601  22.176  14.480
65145W        W31928  26.011  28.240  14.033
65146W        W31929   1.743  19.258   3.174
65147W        W31930  25.602  44.314   4.518
65148W        W31931  37.555  21.988  11.123
65149W        W31932  30.237  42.427  11.157
65150W        W31933  29.771  32.286   1.871
65151W        W31934  11.293  33.645  13.800
65152W        W31935  23.473  30.990   4.234
65153W        W31936  34.444  21.922   4.161
65154W        W31937  21.134   3.989  14.362
65155W        W31938  31.812  25.636   3.195
65156W        W31939  15.337  34.000   4.570
65157W        W31940  29.561  26.192  14.997
65158W        W31941  43.308  42.735  12.911
65159W        W31942   9.311  33.767   5.030
65160W        W31943   6.482  36.880   4.194
65161W        W31944  28.626  12.835  12.193
65162W        W31945  34.480  44.941  13.532
65163W        W31946  42.075   4.061  13.023
65164W        W31947  33.426  41.457   3.387
65165W        W31948  44.853   5.990   2.040
65166W        W31949  38.980   7.977  11.296
65167W        W31950  38.656  38.401   4.236
65168W        W31951  26.146  36.717  12.615
65169W        W31952  36.972  21.527  14.249
65170W        W31953  13.536  20.703  11.433
65171W        W31954   7.412   1.237  10.508
65172W        W31955  28.248  15.099  12.211
65173W        W31956   8.123  32.530  11.721
65174W        W31957  11.179  21.270   1.197
65175W        W31958  44.769   2.834  10.972
65176W        W31959  34.517  44.749  14.430
65177W        W31960   5.972  22.589   0.846
65178W        W31961   8.450  30.591  10.473
65179W        W31962  35.983  43.168   2.856
65180W        W31963  33.921  31.818   2.404
65181W        W31964   1.356  26.936  10.587
65182W        W31965  42.469  20.033  13.065
65183W        W31966  16.254  43.574   1.812
65184W        W31967  44.243  44.712  11.004
65185W        W31968   1.311  28.101   4.642
65186W        W31969  43.978  12.546  12.366
65187W        W31970  30.923  43.835   4.129
65188W        W31971  40.637  11.167   3.126
65189W        W31972  25.071  27.866  13.734
65190W        W31973  37.278  31.992   4.723
65191W        W31974   0.374   7.814   2.152
65192W        W31975   9.839   4.800  14.813
65193W        W31976   0.341  13.508   4.420
65194W        W31977  40.823  12.813   4.742
65195W        W31978  10.299  11.103  12.718
65196W        W31979   0.348   0.203  14.864
65197W        W31980  13.066   2.154  11.548
65198W        W31981  44.173   5.033  11.922
65199W        W31982   1.345  10.287  11.450
65200W        W31983  35.404  43.239  12.891
65201W        W31984  24.942   2.397   2.324
65202W        W31985  22.564  17.934  12.037
65203W        W31986  39.806  10.767   2.727
65204W        W31987  25.939  17.283   4.478
65205W        W31988  31.497  19.220  13.496
65206W        W31989  23.584   0.430  14.107
65207W        W31990   9.437   2.754   1.803
65208W        W31991   6.003   2.471   0.823
65209W        W31992   5.516  10.403   4.727
65210W        W31993   4.419   8.340   2.145
65211W        W31994  35.877  28.275  11.641
65212W        W31995  19.670  39.536  14.799
65213W        W31996   8.726  27.084   3.483
65214W        W31997  42.945  39.694  11.193
65215W        W31998  32.064   0.912   0.346
65216W        W31999  32.939   0.924  10.479
65217W        W32000  44.972   4.260  14.377
65218W        W32001  17.013  40.516   4.624
65219W        W32002  11.351  41.356  13.968
65220W        W32003  15.361   8.537   3.180
65221W        W32004   8.844   7.518  13.340
65222W        W32005  38.419  13.835  11.151
65223W        W32006  36.076  23.195   9.775
65224W        W32007   2.550  30.296   4.130
65225W        W32008  38.517   4.451  10.613
65226W        W32009  16.991  23.180  10.852
65227W        W32010  12.170  22.301  14.393
65228W        W32011  17.810   5.686  12.369
65229W        W32012  30.854  19.767  12.836
65230W        W32013  33.885   2.205  14.513
65231W        W32014   3.693  28.088  10.493
65232W        W32015   7.387  24.422   4.575
65233W        W32016  25.717  15.776   3.750
65234W        W32017  44.915  36.230   2.822
65235W        W32018  25.104  20.307  12.605
65236W        W32019  17.138  39.961  12.069
65237W        W32020   4.793  22.451   0.827
65238W        W32021  43.341  36.038   2.686
65239W        W32022  44.377  32.536   2.573
65240W        W32023  17.543  44.973   4.552
65241W        W32024  29.856   9.888   3.601
65242W        W32025  23.630  19.566   4.547
65243W        W32026  20.647  35.474  12.421
65244W        W32027   6.888  15.485  14.045
65245W        W32028  26.126  41.791   0.412
65246W        W32029  40.866   3.693   4.133
65247W        W32030  21.958   5.959   2.086
65248W        W32031  33.032  32.124   3.786
65249W        W32032  26.726  26.254   0.391
65250W        W32033  23.408  32.034   4.928
65251W        W32034  22.695  32.000   0.082
65252W        W32035  32.985  31.219   1.214
65253W        W32036  43.517  38.639   2.806
65254W        W32037  29.692   3.287  13.004
65255W        W32038  14.727   0.476  11.630
65256W        W32039   3.382  38.039   0.185
65257W        W32040  21.987   8.141  13.538
65258W        W32041  35.661  11.174  14.477
65259W        W32042  10.838  10.253   4.428
65260W        W32043  25.523  42.790   3.523
65261W        W32044  25.043  39.094  14.518
65262W        W32045   0.872  19.775  14.045
65263W        W32046  16.693  26.423  11.039
65264W        W32047  21.989  11.767  11.406
65265W        W32048  11.728  12.456  12.322
65266W        W32049   2.951  21.572  14.825
65267W        W32050  35.847  36.052  11.036
65268W        W32051  41.554  35.551  12.487
65269W        W32052  24.054  19.195   0.923
65270W        W32053   6.422   8.185   1.495
65271W        W32054  44.991  19.114   4.804
65272W        W32055  34.479   5.517   3.178
65273W        W32056   2.863  33.917   4.917
65274W        W32057  39.422  16.637  14.443
65275W        W32058  30.561   3.429   4.318
65276W        W32059  34.123  37.894   0.873
65277W        W32060  17.395  29.178  14.307
65278W        W32061   4.924  33.558   1.664
65279W        W32062  18.888   1.240  13.466
65280W        W32063  43.779  39.041  12.073
65281W        W32064   8.486   7.281   3.801
65282W        W32065  15.272  43.044  13.554
65283W        W32066  37.311  23.334  14.442
65284W        W32067  28.542   1.507   0.276
65285W        W32068  21.833  34.318   4.068
65286W        W32069  42.801   2.915  12.839
65287W        W32070  24.368  23.429  14.451
65288W        W32071  25.571   4.252   0.307
65289W        W32072  35.505   9.629   4.288
65290W        W32073  11.687  26.125  13.960
65291W        W32074  16.663  20.953   1.809
65292W        W32075  12.672  40.219  11.677
65293W        W32076  15.124  24.437   1.490
65294W        W32077  29.543  36.326  13.927
65295W        W32078   7.729  10.669   2.007
65296W        W32079  31.228   9.850   1.212
65297W        W32080  21.121  24.150   4.976
65298W        W32081  38.062  39.886   3.495
65299W        W32082  23.520  30.579  13.551
65300W        W32083  17.562  38.290   0.851
65301W        W32084  35.104  26.257  12.021
65302W        W32085   1.361  39.731   2.687
65303W        W32086  40.175  24.648   3.278
65304W        W32087  11.164  18.495  13.052
65305W        W32088  12.358   2.301   4.573
65306W        W32089  40.158  14.381   2.491
65307W        W32090  42.954  31.032  12.995
65308W        W32091  11.337   4.226   4.353
65309W        W32092  10.078  14.169  14.382
65310W        W32093  38.381  16.089  12.446
65311W        W32094  43.916  40.435   3.723
65312W        W32095  15.533  25.027   5.049
65313W        W32096  41.921  38.312   3.905
65314W        W32097  17.076  12.980   1.233
65315W        W32098  25.218  14.706  11.142
65316W        W32099  22.327   7.783   3.807
65317W        W32100  18.777  23.057  12.083
65318W        W32101  28.574  29.431  11.167
65319W        W32102  42.663   5.586  13.082
65320W        W32103   8.414  12.199  12.919
65321W        W32104  34.371   5.704  13.636
65322W        W32105  30.645  35.083   4.246
65323W        W32106  33.023  33.090  14.841
65324W        W32107  14.674   6.340   2.424
65325W        W32108  36.835   1.171   3.671
65326W        W32109  27.100  41.443  11.862
65327W        W32110  11.123  18.363   3.742
65328W        W32111   2.673  37.441   0.294
65329W        W32112  22.692   9.847   1.319
65330W        W32113  14.790  38.321   1.524
65331W        W32114  30.643  29.052  12.895
65332W        W32115  37.495  10.318   1.681
65333W        W32116   2.369   8.574  11.968
65334W        W32117  38.793  10.360   5.105
65335W        W32118  40.274  43.822   3.779
65336W        W32119   0.868  33.975   1.454
65337W        W32120  21.015  29.295   5.104
65338W        W32121  29.869  29.710  10.814
65339W        W32122  28.535  23.646   0.410
65340W        W32123   2.947  17.617   4.387
65341W        W32124  19.614  17.905   2.762
65342W        W32125  12.396  12.068   0.925
65343W        W32126  28.140   3.661  10.773
65344W        W32127  26.512  26.120  14.935
65345W        W32128  33.314  19.778  14.500
65346W        W32129  33.537   5.180  11.202
65347W        W32130  17.243   7.485   9.959
65348W        W32131  11.265  37.864  13.498
65349W        W32132  15.688  40.745   3.083
65350W        W32133   4.231  28.647  10.474
65351W        W32134   0.321  30.142   2.689
65352W        W32135   6.222  28.676   0.461
65353W        W32136  19.309  12.339  13.904
65354W        W32137   2.751   6.329  14.355
65355W        W32138  43.796  17.242   0.913
65356W        W32139  29.789  42.390   3.315
65357W        W32140  30.504  36.167  11.588
65358W        W32141  35.565   0.290   3.094
65359W        W32142  14.154  43.959   2.331
65360W        W32143   8.678  34.190   3.346
65361W        W32144  24.163  21.079   2.758
65362W        W32145  26.541  37.590  14.992
65363W        W32146  11.223  18.449   0.501
65364W        W32147   6.359  22.246  10.864
65365W        W32148  14.777  28.721   0.061
65366W        W32149  13.880  11.661   4.606
65367W        W32150  44.369  16.002  13.120
65368W        W32151  14.086   7.641  14.446
65369W        W32152   0.982  31.796   1.042
65370W        W32153  16.690  38.031   4.582
65371W        W32154   0.085  30.204  12.181
65372W        W32155  30.293  21.274  13.832
65373W        W32156  40.774   9.913   3.565
65374W        W32157  21.145  11.730   2.253
65375W        W32158  44.981  22.004   2.657
65376W        W32159  39.969  39.711   4.148
65377W        W32160  29.370   7.249   4.753
65378W        W32161  35.452   8.573   5.176
65379W        W32162  35.045   2.177   3.272
65380W        W32163   4.209  40.911  13.946
65381W        W32164  13.801  16.834   1.258
65382W        W32165  27.728  43.902   2.208
65383W        W32166  24.812  38.918   2.677
65384W        W32167  37.885  44.228   0.250
65385W        W32168   3.329  23.744   3.731
65386W        W32169  12.187  43.850   3.820
65387W        W32170  36.402   1.352  10.787
65388W        W32171  17.553  18.159  11.103
65389W        W32172  17.782   4.788  13.672
65390W        W32173   7.683  23.618  14.276
65391W        W32174  25.888  23.509  11.872
65392W        W32175  34.908   1.070  11.617
65393W        W32176   5.288  40.040  11.647
65394W        W32177  24.160  39.433   1.755
65395W        W32178   3.025  40.291  14.656
65396W        W32179  39.060  30.478   2.644
65397W        W32180   0.277  11.084  10.253
65398W        W32181  33.518  39.353   1.525
65399W        W32182  10.021  39.956  11.923
65400W        W32183  44.109  14.881   4.610
65401W        W32184  17.746  36.100  14.262
65402W        W32185  26.908  44.929   1.236
65403W        W32186   6.874  22.171   4.608
65404W        W32187   7.782   5.600  12.992
65405W        W32188  19.646  22.786   2.412
65406W        W32189   7.225  26.741  14.852
65407W        W32190   7.835  44.223  11.021
65408W        W32191  39.922   8.829   0.536
65409W        W32192  40.058  44.491   3.621
65410W        W32193  21.171  20.910   1.431
65411W        W32194  37.414   3.966  10.615
65412W        W32195  41.030  16.615  11.062
65413W        W32196   6.149  17.676   0.364
65414W        W32197  38.840  22.742  14.967
65415W        W32198   7.220  30.354   3.705
65416W        W32199  41.941  30.552   4.677
65417W        W32200   5.149  12.751   0.221
65418W        W32201  20.238   2.763  14.394
65419W        W32202  13.625  42.556  13.710
65420W        W32203  12.303  39.510  10.277
65421W        W32204  17.052  30.426   0.879
65422W        W32205   2.933  16.369  13.433
65423W        W32206  34.073  17.587   1.808
65424W        W32207  27.787  17.582  12.873
65425W        W32208   3.895   1.513   4.628
65426W        W32209  23.588  32.980  11.893
65427W        W32210  34.965   7.520  10.346
65428W        W32211  39.816  34.039  12.659
65429W        W32212  24.193   6.907   2.321
65430W        W32213  39.527  19.718   3.981
65431W        W32214  18.180  25.687   4.715
65432W        W32215  29.498  27.951  10.935
65433W        W32216   8.278   3.226  14.962
65434W        W32217  19.631   9.351  13.532
65435W        W32218   6.231  19.053  10.412
65436W        W32219  16.775  43.518   2.538
65437W        W32220  14.747   7.670   2.132
65438W        W32221  23.070  10.558  13.263
65439W        W32222  34.348   2.855   4.060
65440W        W32223  32.347  30.729   2.821
65441W        W32224  35.841  25.088   4.486
65442W        W32225  35.055  44.487   4.742
65443W        W32226  44.216  23.076   1.576
65444W        W32227  26.042  37.475  11.147
65445W        W32228  16.510  12.146  12.132
65446W        W32229  12.362   7.309  13.335
65447W        W32230   3.679  25.682   5.030
65448W        W32231  21.553  39.930   2.858
65449W        W32232  35.399  15.174   4.920
65450W        W32233   0.316  41.331  14.007
65451W        W32234  42.960  35.055  11.498
65452W        W32235  26.774  21.642  11.149
65453W        W32236   4.651  29.615   1.141
65454W        W32237  12.595  23.715   0.363
65455W        W32238   8.842  35.949  12.323
65456W        W32239  30.413  19.560   1.215
65457W        W32240  16.284   3.832  12.593
65458W        W32241  43.300  35.841   0.885
65459W        W32242   1.338  13.263  13.842
65460W        W32243   1.280   4.404   2.091
65461W        W32244   4.090  44.245  13.903
65462W        W32245   0.208   9.377  10.280
65463W        W32246  11.255   6.086  13.353
65464W        W32247   6.437  30.407  13.173
65465W        W32248  18.004  16.827  10.298
65466W        W32249  22.746  37.773  11.176
65467W        W32250  27.892  41.595   3.840
65468W        W32251  41.209  19.096  14.913
65469W        W32252  28.516   2.603  11.248
65470W        W32253  13.432  25.863   3.273
65471W        W32254   6.968  13.138   1.873
65472W        W32255   2.919  39.174  12.445
65473W        W32256   6.748  28.197  11.410
65474W        W32257  21.493  31.029  14.274
65475W        W32258  31.381  16.102   1.736
65476W        W32259  36.504  30.383  13.524
65477W        W32260  42.316  44.708  11.148
65478W        W32261   0.261   1.988  11.438
65479W        W32262  38.022  35.586  12.381
65480W        W32263  26.039  20.343   0.215
65481W        W32264  20.011  41.100   1.882
65482W        W32265  37.445  17.391  14.684
65483W        W32266  38.977  38.129   1.906
65484W        W32267  17.312  33.299  11.917
65485W        W32268  22.677  35.311  12.586
65486W        W32269  18.810  28.245   0.956
65487W        W32270  29.329  22.870  13.448
65488W        W32271  17.086   8.233  11.337
65489W        W32272   6.061  40.960  11.093
65490W        W32273   6.205  35.919  10.973
65491W        W32274   5.901  28.358  13.592
65492W        W32275  29.172  32.649  13.453
65493W        W32276  16.936  23.484   0.304
65494W        W32277  38.463   6.025   4.372
65495W        W32278  23.361  28.360   4.601
65496W        W32279  41.373  34.057  11.654
65497W        W32280  37.091   7.890  12.725
65498W        W32281   9.737  27.182   3.247
65499W        W32282   0.895  33.349   3.061
65500W        W32283  38.406  31.476  12.016
65501W        W32284  21.538   8.894  12.891
65502W        W32285   8.775  15.427   3.667
65503W        W32286  29.719  39.673  13.147
65504W        W32287  26.242   0.678   3.183
65505W        W32288  35.637   7.414   1.779
65506W        W32289  24.079  23.561   3.099
65507W        W32290  28.237   4.510  12.510
65508W        W32291  31.713  41.936   1.116
65509W        W32292   8.720   9.268   4.039
65510W        W32293  37.925  25.650   1.826
65511W        W32294  44.624  42.740  14.438
65512W        W32295  43.822  15.373   0.099
65513W        W32296  20.427  10.578   1.484
65514W        W32297  20.903  24.175  10.725
65515W        W32298  20.995  19.989   2.722
65516W        W32299  17.869  17.189   0.497
65517W        W32300   8.136  11.851   1.916
65518W        W32301  26.288   9.188   3.442
65519W        W32302  40.641  35.479   3.735
65520W        W32303  28.846   5.991   2.417
65521W        W32304  20.766  10.055   2.057
65522W        W32305  16.632   3.611  12.968
65523W        W32306  12.260  35.345   1.739
65524W        W32307  12.818  18.627  11.080
65525W        W32308  22.090   5.928  12.781
65526W        W32309  36.932  26.110   5.022
65527W        W32310  18.560  12.663   4.137
65528W        W32311  21.732  10.272   0.396
65529W        W32312   0.490  30.137   3.694
65530W        W32313  12.320  19.108  14.853
65531W        W32314  37.586   1.478  12.102
65532W        W32315  35.149  37.520   0.311
65533W        W32316  40.094  10.952  13.544
65534W        W32317  25.044  14.942   4.122
65535W        W32318  34.063   5.655   4.338
65536W        W32319  38.300  15.275  13.450
65537W        W32320  40.204   0.808  11.590
65538W        W32321  41.219   9.655   1.892
65539W        W32322  37.130   4.333   2.405
65540W        W32323  18.281   5.615  11.679
65541W        W32324  43.724  24.821   3.835
65542W        W32325  18.626  34.551   1.360
65543W        W32326  26.818   7.672   3.753
65544W        W32327  43.433  36.520  14.465
65545W        W32328  16.707   9.136   0.836
65546W        W32329   7.354   3.314   3.267
65547W        W32330  44.251  34.498   0.346
65548W        W32331   1.416  18.852   3.112
65549W        W32332  15.377   3.282   2.189
65550W        W32333   3.352  36.340   1.821
65551W        W32334   2.067  25.435   1.505
65552W        W32335  17.041  22.244   1.730
65553W        W32336   6.222   0.954   1.027
65554W        W32337  20.408  39.368   9.875
65555W        W32338  43.759  37.966   3.348
65556W        W32339  36.334  21.464   0.931
65557W        W32340  11.104  26.580   1.064
65558W        W32341  29.685  44.500   2.965
65559W        W32342   2.713  27.013   3.032
65560W        W32343   4.669  18.146   4.498
65561W        W32344  28.013  22.186   4.358
65562W        W32345  17.806  27.324   4.117
65563W        W32346  20.233  13.860   0.810
65564W        W32347  10.959  14.786  14.058
65565W        W32348   0.475   4.674   0.990
65566W        W32349  25.362  27.040  12.091
65567W        W32350  15.854  32.406   1.701
65568W        W32351  35.103  29.719  14.223
65569W        W32352  23.929  31.499   0.876
65570W        W32353  28.227   9.736   4.087
65571W        W32354   1.917  36.952   4.560
65572W        W32355   3.219  26.974  12.585
65573W        W32356  43.560  27.958  10.579
65574W        W32357  32.086  29.168  13.170
65575W        W32358  16.844   9.662  12.622
65576W        W32359  36.282   2.972   0.674
65577W        W32360  18.047  21.756  13.433
65578W        W32361  22.920   2.842  11.687
65579W        W32362  44.116  14.578  13.918
65580W        W32363   9.247  31.374   3.280
65581W        W32364  42.537  23.718  13.924
65582W        W32365  34.523  44.708   3.715
65583W        W32366  33.182  36.108   4.158
65584W        W32367  15.876  22.084  12.983
65585W        W32368  33.168  21.482  13.439
65586W        W32369   2.428  30.672  11.642
65587W        W32370  31.684  34.306  11.163
65588W        W32371  20.772  36.429   0.485
65589W        W32372  21.259   7.347   4.741
65590W        W32373  21.665  42.999  13.445
65591W        W32374   2.923  31.849   2.668
65592W        W32375  19.049  22.965   3.768
65593W        W32376  25.587  42.465  12.937
65594W        W32377  25.706   0.365   3.759
65595W        W32378  19.981   0.534  11.075
65596W        W32379  18.859  37.509   5.012
65597W        W32380   7.203  42.292   2.688
65598W        W32381   0.730   7.592   2.461
65599W        W32382   3.649  34.031  12.929
65600W        W32383  33.574  22.881   1.329
65601W        W32384  29.987  41.522  14.890
65602W        W32385  41.500  19.569  14.845
65603W        W32386  24.818  24.696   4.896
65604W        W32387  16.114  16.347  11.390
65605W        W32388  11.031  26.934  12.526
65606W        W32389  31.107  12.726  13.464
65607W        W32390   9.721  29.560   3.239
65608W        W32391  11.592  25.085  10.633
65609W        W32392  11.777  30.010   2.407
65610W        W32393  40.820   8.612  11.522
65611W        W32394  25.257   0.533  12.393
65612W        W32395  38.411  23.701  13.005
65613W        W32396  36.978  34.992  13.950
65614W        W32397  20.092   7.035  12.947
65615W        W32398  32.343  41.306   1.640
65616W        W32399  17.369  43.205  13.194
65617W        W32400  27.408  13.203  14.360
65618W        W32401   2.305  31.997  14.812
65619W        W32402  13.862  31.994  13.099
65620W        W32403  23.099   8.621  12.095
65621W        W32404  26.424  40.505   3.620
65622W        W32405  13.851  22.551   3.702
65623W        W32406  32.306  28.049   0.257
65624W        W32407   1.956  36.277  14.395
65625W        W32408  23.533  12.742  12.047
65626W        W32409  32.827  11.897   0.423
65627W        W32410  22.112  27.051  14.943
65628W        W32411   9.765   8.145   2.470
65629W        W32412  22.954  28.035  14.418
65630W        W32413  14.574  11.414  12.137
65631W        W32414   6.130   9.296  13.586
65632W        W32415  36.839  33.027   4.029
65633W        W32416   1.001   5.201  13.473
65634W        W32417   8.719   1.727   4.419
65635W        W32418   7.281  40.793   3.645
65636W        W32419  11.681  31.010  12.156
65637W        W32420  40.544  10.356   3.680
65638W        W32421   5.498   4.244   4.635
65639W        W32422   2.638  14.542  13.978
65640W        W32423  37.285  10.768  10.614
65641W        W32424  23.233   4.090  11.315
65642W        W32425  33.050  22.757  10.000
65643W        W32426  33.475  19.942   4.477
65644W        W32427  31.805  27.439   3.639
65645W        W32428   7.104  36.182  11.092
65646W        W32429  13.049  43.381  14.463
65647W        W32430  29.721  13.248  12.019
65648W        W32431  35.183  18.337   1.953
65649W        W32432  11.110  41.562  12.486
65650W        W32433  38.868  16.637   1.731
65651W        W32434   3.642   6.210  10.184
65652W        W32435  17.152  43.833   4.407
65653W        W32436  29.397  44.585   3.379
65654W        W32437  11.211  38.967  11.326
65655W        W32438  39.858   1.255  14.938
65656W        W32439  19.281  35.248  11.835
65657W        W32440   8.783  35.170   1.353
65658W        W32441   2.682  39.985  11.180
65659W        W32442  29.772   6.568   0.349
65660W        W32443  27.986   2.998  14.000
65661W        W32444  15.568  32.173   0.581
65662W        W32445  24.555  19.017   3.181
65663W        W32446  39.015  22.093  12.560
65664W        W32447  24.857  27.589   4.983
65665W        W32448  35.694  42.915   0.370
65666W        W32449  30.334  27.781   4.547
65667W        W32450  26.773  18.554  13.808
65668W        W32451  11.299  21.420  10.714
65669W        W32452  30.184   6.898  11.195
65670W        W32453  35.077  43.187   4.169
65671W        W32454  22.981  32.569  11.605
65672W        W32455  35.507  43.405   0.427
65673W        W32456  31.060  15.237  12.109
65674W        W32457  29.105  39.458   2.654
65675W        W32458  28.555   3.218  12.897
65676W        W32459   1.913   6.708   1.327
65677W        W32460  30.882  18.186   2.245
65678W        W32461   1.014  20.053   0.693
65679W        W32462  41.355  26.950   2.603
65680W        W32463  42.450  43.568   4.142
65681W        W32464  34.450  40.432  14.364
65682W        W32465  17.732  35.840  12.834
65683W        W32466  13.545  11.464  12.003
65684W        W32467  39.970  26.966   1.724
65685W        W32468  15.308  12.107  12.958
65686W        W32469  41.387  25.674  13.845
65687W        W32470  40.465  18.488   5.100
65688W        W32471  11.530  18.176   3.996
65689W        W32472   9.327   8.206   3.289
65690W        W32473  39.081  16.133   3.475
65691W        W32474  27.415   9.407   3.124
65692W        W32475  12.988  40.227   3.767
65693W        W32476   0.735  20.189   1.335
65694W        W32477   1.983  11.352   1.271
65695W        W32478  27.474  21.720  12.164
65696W        W32479  29.438  43.364  14.379
65697W        W32480  36.472  18.299   3.643
65698W        W32481   7.305  15.705   2.288
65699W        W32482  14.543  25.979   0.839
65700W        W32483  37.832  19.661  10.177
65701W        W32484  25.017  36.972   3.263
65702W        W32485   4.733  36.524   0.544
65703W        W32486  13.071  38.522   0.214
65704W        W32487  33.455  10.867   0.994
65705W        W32488  14.670  37.049   3.318
65706W        W32489  21.192  41.513  12.808
65707W        W32490  28.009  32.450   3.824
65708W        W32491  32.314  19.386  10.693
65709W        W32492  17.649  42.634   3.184
65710W        W32493  13.293  10.406   5.404
65711W        W32494  23.045  23.646   2.186
65712W        W32495  27.893  35.440  13.397
65713W        W32496   7.931  38.082   0.809
65714W        W32497  31.380   2.227   2.851
65715W        W32498  32.421  26.429   9.789
65716W        W32499  35.297  18.521  14.873
65717W        W32500  11.119  44.236  13.070
65718W        W32501   1.012  38.804   0.771
65719W        W32502  16.160  27.537   0.829
65720W        W32503   4.970  28.626   2.326
65721W        W32504  24.076   9.022  13.753
65722W        W32505  25.214  15.693  12.583
65723W        W32506  13.766  43.858  10.380
65724W        W32507  38.319   2.085   0.230
65725W        W32508  38.408  37.839  13.520
65726W        W32509  33.948   6.096  12.100
65727W        W32510   4.882  14.281  13.830
65728W        W32511  20.989  19.025  12.008
65729W        W32512  25.613   3.810  12.760
65730W        W32513  40.010  42.769  14.772
65731W        W32514   1.580   4.249   2.903
65732W        W32515   7.883  26.647   0.379
65733W        W32516  29.054  25.469  11.530
65734W        W32517  21.075  11.591  11.531
65735W        W32518   5.498  25.557   3.662
65736W        W32519  29.500  14.263  10.667
65737W        W32520  30.507  23.569   1.037
65738W        W32521  13.653  15.150   0.655
65739W        W32522  14.905  15.130  14.046
65740W        W32523  10.684  17.683  13.004
65741W        W32524   2.347   3.469  14.930
65742W        W32525  20.872  20.971  11.751
65743W        W32526  36.285  44.299   4.835
65744W        W32527   9.370  27.080  13.862
65745W        W32528   8.021   0.207   3.733
65746W        W32529   9.002  41.554   2.318
65747W        W32530   8.148   1.722  11.096
65748W        W32531  12.089  37.385  10.505
65749W        W32532  42.489  35.013   3.252
65750W        W32533  28.964   4.341   0.214
65751W        W32534  36.855   8.741   4.281
65752W        W32535  19.705  33.698  11.576
65753W        W32536   3.755  29.386   2.901
65754W        W32537   5.850  11.533  13.591
65755W        W32538  38.378  26.089  12.544
65756W        W32539  26.759  42.701  13.413
65757W        W32540  21.515  11.674  12.535
65758W        W32541   5.927  25.229   1.784
65759W        W32542  35.355  34.538   0.997
65760W        W32543  40.342   9.411   4.935
65761W        W32544   3.999  35.590  13.036
65762W        W32545  14.239  30.525  13.327
65763W        W32546   4.336   8.686  13.303
65764W        W32547   8.759  14.866   3.199
65765W        W32548  19.393   3.274   4.158
65766W        W32549  10.985   5.739   2.035
65767W        W32550  38.435  14.106  14.452
65768W        W32551  15.120  26.540  12.088
65769W        W32552  34.058  41.044   1.373
65770W        W32553  25.172  33.272   3.630
65771W        W32554  42.413  11.067  12.912
65772W        W32555  14.441  18.683  10.707
65773W        W32556  26.202  30.944  11.137
65774W        W32557   8.740  23.075  11.210
65775W        W32558  17.291  18.483  13.882
65776W        W32559   0.291  27.805  12.977
65777W        W32560  43.283  38.866  13.460
65778W        W32561  31.968  10.183  12.160
65779W        W32562  33.660  16.790  12.122
65780W        W32563  28.151  10.929  11.147
65781W        W32564  37.571  10.853   3.892
65782W        W32565   6.095  25.971   2.815
65783W        W32566  43.506  42.355  13.910
65784W        W32567  10.630   3.752  14.139
65785W        W32568  30.822   7.386   4.434
65786W        W32569  44.377   0.816   1.785
65787W        W32570   3.217   5.342  13.485
65788W        W32571  35.346  19.063   3.681
65789W        W32572   1.434  11.673   1.407
65790W        W32573  44.824  21.642  12.964
65791W        W32574  21.477  14.395  12.029
65792W        W32575  13.805  18.235  13.152
65793W        W32576  12.306  27.709  10.705
65794W        W32577   7.697  15.775  14.532
65795W        W32578  33.279   0.096  13.925
65796W        W32579   0.710  10.197  12.586
65797W        W32580  39.590  38.755  12.929
65798W        W32581  31.912   2.072   3.773
65799W        W32582  41.513  27.638  10.431
65800W        W32583  41.107   5.027   3.193
65801W        W32584  15.117  38.502  12.957
65802W        W32585  27.280   3.416   1.701
65803W        W32586  12.556   0.796   3.719
65804W        W32587  15.366  36.141   2.214
65805W        W32588  38.324   2.118   3.056
65806W        W32589  13.103  42.870  12.886
65807W        W32590   6.262  25.971  13.107
65808W        W32591   9.807  22.300  12.054
65809W        W32592   5.720  43.301   2.160
65810W        W32593  20.276   5.188   4.456
65811W        W32594  24.688   8.920  11.684
65812W        W32595  42.104  12.150   4.968
65813W        W32596  39.628  15.724  11.885
65814W        W32597  25.330  26.055  12.648
65815W        W32598  42.336   9.957   4.729
65816W        W32599  16.314  44.367  10.715
65817W        W32600   2.009  13.687  10.763
65818W        W32601  34.244  38.923  12.920
65819W        W32602  24.962  33.609   4.761
65820W        W32603  33.493  24.151   0.527
65821W        W32604  27.739  13.908   0.867
65822W        W32605  11.528  22.270  10.940
65823W        W32606   1.310  41.124  12.918
65824W        W32607  27.490  35.920   2.614
65825W        W32608  25.225   9.762  11.418
65826W        W32609   4.318  33.939   2.791
65827W        W32610  12.541  30.416   1.212
65828W        W32611  24.523  22.763   3.986
65829W        W32612  26.201   8.757  10.910
65830W        W32613  10.779  23.145   3.270
65831W        W32614   2.946  34.043   3.355
65832W        W32615  11.773  10.324   1.498
65833W        W32616  16.100  26.526   1.697
65834W        W32617  40.608  20.292  14.388
65835W        W32618   8.417   9.259   1.345
65836W        W32619   5.629  13.714   0.927
65837W        W32620  26.111  22.294  14.387
65838W        W32621  26.018  26.510   0.473
65839W        W32622  24.491  30.213  11.462
65840W        W32623   2.736  36.779   3.703
65841W        W32624   7.585  37.808  11.578
65842W        W32625  32.429   1.329   0.509
65843W        W32626  31.693   1.295   3.186
65844W        W32627   2.754   1.928   2.313
65845W        W32628  40.823  36.831  12.007
65846W        W32629  28.963  13.605   2.307
65847W        W32630  33.384   6.143   0.051
65848W        W32631  15.465  42.573   1.287
65849W        W32632  12.617  12.150  12.679
65850W        W32633   3.219  10.713   4.392
65851W        W32634  32.917   7.128   0.946
65852W        W32635  24.087  28.863   1.005
65853W        W32636  27.432  29.867  12.546
65854W        W32637   7.936  15.322  12.920
65855W        W32638  40.315  36.947   2.159
65856W        W32639  26.212   0.067  11.558
65857W        W32640  22.272  38.056  11.162
65858W        W32641  31.726  23.923   4.937
65859W        W32642  21.547  37.722  14.954
65860W        W32643  17.744  37.051  14.762
65861W        W32644  30.773  34.526   0.467
65862W        W32645  30.180   1.811   0.855
65863W        W32646  31.131  14.785   0.389
65864W        W32647  28.356  25.110   2.368
65865W        W32648  24.540  22.509  12.552
65866W        W32649  10.717  31.488  12.995
65867W        W32650  15.178  36.865  14.488
65868W        W32651  30.042  32.018   0.949
65869W        W32652  35.158  25.085  13.486
65870W        W32653  10.139   0.377  11.423
65871W        W32654  26.106  27.632   0.748
65872W        W32655  15.271   0.995   1.190
65873W        W32656  22.686  24.927   2.627
65874W        W32657   3.677  10.097   4.059
65875W        W32658  42.804  38.248   1.689
65876W        W32659  36.883   2.189  10.449
65877W        W32660  24.049   4.142  14.263
65878W        W32661  25.349  41.738  11.960
65879W        W32662  10.152   0.800   2.276
65880W        W32663  13.786  31.899   3.277
65881W        W32664  14.573   4.972   2.272
65882W        W32665  37.305  34.835   1.220
65883W        W32666  31.244  15.286   0.403
65884W        W32667  20.017  42.676  11.076
65885W        W32668   8.876   6.082   3.126
65886W        W32669  35.496  14.628   3.675
65887W        W32670  44.765   0.757   3.227
65888W        W32671  33.171   6.760  11.969
65889W        W32672  36.406  27.644  14.870
65890W        W32673   1.153  10.702   3.685
65891W        W32674  33.890  25.398   2.398
65892W        W32675   3.866  29.802  11.209
65893W        W32676  42.522  10.228  12.488
65894W        W32677   6.546  28.932  11.571
65895W        W32678  15.850  41.684   0.922
65896W        W32679  24.147  30.768   3.745
65897W        W32680  23.470   1.232  12.295
65898W        W32681  33.541  37.090  12.863
65899W        W32682  15.676   5.622  10.474
65900W        W32683  18.592   8.161   3.505
65901W        W32684  41.556  20.523  12.221
65902W        W32685  13.262  25.349   0.740
65903W        W32686   5.276  19.009   2.403
65904W        W32687   2.881  43.791  10.727
65905W        W32688  14.175  18.575   5.018
65906W        W32689  19.193  17.806   3.037
65907W        W32690  30.340  17.076   0.285
65908W        W32691   7.800  43.999   0.163
65909W        W32692  24.483  31.684  11.391
65910W        W32693  12.986  38.612  10.677
65911W        W32694   8.492  25.842   2.667
65912W        W32695  20.746  34.922   1.369
65913W        W32696  27.701   2.950   0.563
65914W        W32697  38.718  20.546   3.118
65915W        W32698  29.445  25.438   3.103
65916W        W32699  27.867   4.460   2.446
65917W        W32700  12.410   5.820   3.402
65918W        W32701  26.440  39.524  14.863
65919W        W32702   7.825  16.368  12.109
65920W        W32703  35.622  35.184  10.492
65921W        W32704   6.134  10.728  11.556
65922W        W32705  27.500  18.542  11.538
65923W        W32706  25.650  10.719  11.555
65924W        W32707  35.602  20.404  13.150
65925W        W32708  19.671   9.983   2.203
65926W        W32709   1.279  35.382   3.889
65927W        W32710   8.408  38.329   0.867
65928W        W32711  20.653  29.981  11.920
65929W        W32712  31.956   8.719  11.599
65930W        W32713  37.097  24.497  12.651
65931W        W32714  17.107   8.315  11.845
65932W        W32715  10.910  27.178   1.790
65933W        W32716   0.687  43.273   3.775
65934W        W32717  11.999  25.177  12.424
65935W        W32718   9.779  38.765  14.291
65936W        W32719   7.838   8.313   2.046
65937W        W32720  35.693   7.670   3.602
65938W        W32721  34.031  33.012  11.329
65939W        W32722  23.555  28.395   2.322
65940W        W32723  29.021  12.406   0.323
65941W        W32724   9.125   7.500  10.313
65942W        W32725  28.513  31.439   2.448
65943W        W32726   1.272  31.067   1.935
65944W        W32727  43.516   3.084   1.341
65945W        W32728  17.616  15.185  11.543
65946W        W32729  18.967  37.332  10.584
65947W        W32730  36.815  17.795   0.645
65948W        W32731  19.206  21.664   1.725
65949W        W32732  33.978  31.669  10.739
65950W        W32733   7.901  38.353  13.871
65951W        W32734  44.482   2.860   0.703
65952W        W32735  38.008  28.406  11.510
65953W        W32736  22.605  24.581  12.052
65954W        W32737  36.640  28.452   4.628
65955W        W32738   8.801  11.747   0.550
65956W        W32739   7.463   3.904  10.853
65957W        W32740  17.744  30.395   0.308
65958W        W32741   5.331  30.845   2.748
65959W        W32742  30.684  36.323   2.075
65960W        W32743   5.725  23.375  13.479
65961W        W32744  31.442   0.507   2.359
65962W        W32745   9.212  30.529   4.602
65963W        W32746  34.863  16.003  11.346
65964W        W32747  16.556  38.349   0.056
65965W        W32748  34.354  25.927   1.935
65966W        W32749  22.053  31.931  10.557
65967W        W32750  14.121   8.160  14.494
65968W        W32751  37.995  42.643  11.198
65969W        W32752  40.112  26.989  11.189
65970W        W32753   1.397  11.138  10.954
65971W        W32754   9.182  19.703  10.165
65972W        W32755  37.542  25.044  13.319
65973W        W32756   1.163  39.607  11.550
65974W        W32757  16.541   9.213   3.136
65975W        W32758  44.467   4.000  10.534
65976W        W32759  26.493  41.809   2.403
65977W        W32760  33.358  42.894  11.852
65978W        W32761   3.319  27.783   4.174
65979W        W32762  37.149  19.590  10.590
65980W        W32763  30.049  11.406  11.220
65981W        W32764  18.597  44.255  11.496
65982W        W32765  13.623   5.899  10.779
65983W        W32766  36.825  25.914  10.623
65984W        W32767  40.318  43.013  13.490
65985W        W32768  23.625  12.619   0.434
65986W        W32769  20.452   1.939  14.068
65987W        W32770  35.753  18.261  14.871
65988W        W32771   3.427   2.262  13.794
65989W        W32772  16.440   8.006   2.674
65990W        W32773   6.335  27.877   3.753
65991W        W32774   9.650  26.695   3.447
65992W        W32775   6.873  23.235  12.720
65993W        W32776   5.270  33.910   1.397
65994W        W32777  35.174  13.304   4.664
65995W        W32778  31.209  12.316   1.416
65996W        W32779  33.607   0.925  12.091
65997W        W32780  43.225  41.013  13.402
65998W        W32781   6.738   1.334  14.292
65999W        W32782  39.034  11.082  10.691
66000W        W32783   6.995  12.892  11.975
66001W        W32784  12.740  13.644  14.537
66002W        W32785  42.170  20.178   1.401
66003W        W32786  19.949  27.945   9.922
66004W        W32787  44.846  27.268   0.896
66005W        W32788  44.799  16.418   1.970
66006W        W32789  34.971   1.447  13.874
66007W        W32790  41.756  11.458  13.521
66008W        W32791  20.115   7.673  13.637
66009W        W32792  27.591  42.768  14.202
66010W        W32793  39.526  18.132   1.337
66011W        W32794  42.021  41.986   2.435
66012W        W32795  26.395  42.699   0.849
66013W        W32796  42.934  31.922  11.827
66014W        W32797  16.190  19.276  10.818
66015W        W32798  11.478   8.964   4.537
66016W        W32799   8.381  25.442   2.311
66017W        W32800  20.064  31.163   2.824
66018W        W32801  22.154  40.975   3.894
66019W        W32802  21.808  40.780  12.429
66020W        W32803   9.473  43.663   4.111
66021W        W32804  40.325  10.162  11.859
66022W        W32805  16.147  40.294  14.396
66023W        W32806   8.116  28.910   0.264
66024W        W32807  16.772   3.369   2.879
66025W        W32808  36.678  19.328  10.089
66026W        W32809  17.226  26.520   2.267
66027W        W32810  30.657  42.064   1.905
66028W        W32811  29.210  15.752  14.528
66029W        W32812   8.998   9.930   2.326
66030W        W32813  17.481  38.832  12.522
66031W        W32814  18.073  12.785   4.105
66032W        W32815  34.982  40.797   2.508
66033W        W32816   1.480   6.139  14.872
66034W        W32817   3.209  31.926   1.258
66035W        W32818  11.388  43.398   2.336
66036W        W32819   0.955  12.901  12.898
66037W        W32820   3.003  12.803  13.060
66038W        W32821  30.495  14.620   4.524
66039W        W32822   0.387  35.329   4.431
66040W        W32823   5.506  42.775  14.122
66041W        W32824  31.112  10.642   3.101
66042W        W32825  36.927   2.617   1.737
66043W        W32826   2.346  36.153   1.270
66044W        W32827  24.067   9.808  11.982
66045W        W32828  43.516  41.114   3.381
66046W        W32829  28.027  22.490   0.843
66047W        W32830  40.242   1.964   1.726
66048W        W32831  23.677  16.109  11.587
66049W        W32832  15.570  43.461  11.748
66050W        W32833  43.042  18.553   2.053
66051W        W32834  40.442  21.467   1.450
66052W        W32835  39.820  44.855  14.005
66053W        W32836  29.077   4.017  12.668
66054W        W32837   1.739  42.365   1.950
66055W        W32838   3.251  29.642   0.733
66056W        W32839   3.464  43.036  11.180
66057W        W32840  32.539  41.759   3.765
66058W        W32841  29.777  13.138   2.996
66059W        W32842   0.967  14.368   0.415
66060W        W32843  21.087  29.684  13.301
66061W        W32844  34.679  31.141   0.756
66062W        W32845  11.595  29.874   4.274
66063W        W32846  43.452   7.143  13.028
66064W        W32847  25.266  13.713   1.893
66065W        W32848   7.057   2.712   4.114
66066W        W32849  31.343  28.040  14.910
66067W        W32850   6.875  20.069  10.650
66068W        W32851   8.949  40.522   2.343
66069W        W32852  13.847  29.679   1.227
66070W        W32853  43.544  10.264  13.013
66071W        W32854  11.576   7.412   4.273
66072W        W32855   1.938  42.317  10.745
66073W        W32856  35.499  30.658   0.405
66074W        W32857   9.051  26.446  12.846
66075W        W32858  43.058  34.132  14.452
66076W        W32859  28.646  30.857  14.335
66077W        W32860  12.404  10.734  13.820
66078W        W32861  15.210  37.755  14.777
66079W        W32862  13.486  41.729   1.499
66080W        W32863   7.222  33.074  14.225
66081W        W32864  28.941  44.291   0.328
66082W        W32865  38.985   9.897   2.314
66083W        W32866  40.953  10.385   3.355
66084W        W32867  11.473  28.512   0.920
66085W        W32868  21.907  13.917   3.434
66086W        W32869  30.737  28.009  13.603
66087W        W32870  31.422  32.508   2.116
66088W        W32871  41.672  21.291  12.389
66089W        W32872   8.080  14.841   1.983
66090W        W32873  36.252  27.764   1.955
66091W        W32874  30.238  44.204  14.860
66092W        W32875  29.222  38.029  13.337
66093W        W32876  17.212  20.216   2.126
66094W        W32877  42.569   4.190   3.310
66095W        W32878  14.360   3.798   4.257
66096W        W32879   5.827  40.578   2.159
66097W        W32880   5.714  41.845   0.061
66098W        W32881  35.442  19.771   2.677
66099W        W32882   4.317   3.879   3.409
66100W        W32883   6.387  21.267   3.148
66101W        W32884  24.561   6.012  12.326
66102W        W32885  27.000  34.971  13.558
66103W        W32886  25.176  27.225  14.422
66104W        W32887  31.645  23.607  11.521
66105W        W32888  42.879  44.215  10.644
66106W        W32889   4.209   8.388   3.727
66107W        W32890  43.909  13.667   1.050
66108W        W32891   8.670  33.672   3.301
66109W        W32892  28.510  20.471   0.083
66110W        W32893   7.845  42.853  11.749
66111W        W32894  16.332   7.868  14.699
66112W        W32895  32.630   7.825  14.387
66113W        W32896  32.554  22.705  10.253
66114W        W32897  31.681  34.828  11.210
66115W        W32898  38.198  39.266   1.340
66116W        W32899  31.437   6.656  13.453
66117W        W32900  14.200  38.863  10.270
66118W        W32901  12.464  43.749  12.375
66119W        W32902  38.421  27.163  10.478
66120W        W32903  25.644  11.825   2.923
66121W        W32904  33.973  14.965   3.703
66122W        W32905   1.853   0.709   4.331
66123W        W32906  22.673   4.328  12.511
66124W        W32907  23.684   9.917   0.700
66125W        W32908   5.223  33.372  12.827
66126W        W32909  22.201   2.958   2.144
66127W        W32910   9.711  25.248   2.675
66128W        W32911   1.003   3.368  12.091
66129W        W32912  24.683  32.382  12.974
66130W        W32913   6.701  31.686  12.784
66131W        W32914  42.777  29.523  12.987
66132W        W32915  10.974  36.341   0.310
66133W        W32916  31.043  21.888  12.500
66134W        W32917  10.661  24.213   2.224
66135W        W32918   6.720  36.314  10.749
66136W        W32919  32.570  42.522   1.259
66137W        W32920  20.006  17.691   3.656
66138W        W32921  19.392  36.137  13.773
66139W        W32922  43.502   8.614  14.589
66140W        W32923  36.963  34.421  11.752
66141W        W32924   0.690  15.870   9.827
66142W        W32925   2.323  43.291  13.344
66143W        W32926  33.857  11.685   2.765
66144W        W32927  16.317  10.689   2.818
66145W        W32928  30.744  16.367   4.919
66146W        W32929  26.930  13.829  11.489
66147W        W32930  36.307  28.272   1.935
66148W        W32931  24.642   2.186   3.189
66149W        W32932   8.048  24.582  10.829
66150W        W32933   3.156  28.746   1.757
66151W        W32934   6.843  17.847  12.851
66152W        W32935  27.554   0.688   3.737
66153W        W32936  36.494  17.398   9.803
66154W        W32937  36.576   0.389   1.192
66155W        W32938  23.315  41.597   3.273
66156W        W32939  36.059  26.202   2.904
66157W        W32940   5.938  38.622   2.192
66158W        W32941  34.890   2.199  12.362
66159W        W32942  39.903  22.982  11.571
66160W        W32943  30.175   0.786   0.038
66161W        W32944  36.327  25.219   3.599
66162W        W32945  33.540  30.673   2.799
66163W        W32946  34.847  14.332   3.221
66164W        W32947   5.383  43.664   1.927
66165W        W32948  42.262  37.781   4.719
66166W        W32949  31.001  37.120   3.369
66167W        W32950  10.768  34.953   3.884
66168W        W32951  13.085  43.264  10.772
66169W        W32952  20.774  33.319   3.282
66170W        W32953  13.355   9.359  13.424
66171W        W32954  40.042   0.238   4.763
66172W        W32955  11.157   6.189  12.313
66173W        W32956   2.285  21.234   0.328
66174W        W32957  31.151  38.548   1.362
66175W        W32958  37.822  23.479   1.324
66176W        W32959   4.503   7.628  11.053
66177W        W32960   1.976  35.589  13.030
66178W        W32961   9.087  10.784   3.297
66179W        W32962   5.281  24.312  13.920
66180W        W32963  31.640   2.820   4.661
66181W        W32964  25.063   6.914  10.630
66182W        W32965  25.451  13.284  11.124
66183W        W32966  38.050  18.463   1.237
66184W        W32967  21.208   3.476   2.701
66185W        W32968  22.151  40.251  11.064
66186W        W32969  29.640  15.748  10.310
66187W        W32970  15.761  31.925   4.690
66188W        W32971   9.184  41.911   4.671
66189W        W32972  18.265  30.518   3.278
66190W        W32973   4.414  19.759   0.807
66191W        W32974  35.871  42.643   1.448
66192W        W32975  16.089  19.818  14.484
66193W        W32976  36.490   0.710   4.704
66194W        W32977  24.638  38.451   0.195
66195W        W32978   3.911   4.228  14.327
66196W        W32979   8.426  28.562  14.492
66197W        W32980  37.746  37.323  11.657
66198W        W32981  44.531   1.317   1.915
66199W        W32982  28.608   3.588  10.989
66200W        W32983  26.609   8.022  12.644
66201W        W32984  18.620  18.899   1.823
66202W        W32985  14.085  22.108   3.694
66203W        W32986  39.549  22.659   4.784
66204W        W32987  29.015  40.299  12.975
66205W        W32988  33.555   8.599  12.104
66206W        W32989  15.100  37.369  14.358
66207W        W32990   0.954  11.588   0.820
66208W        W32991  22.219   5.391   0.830
66209W        W32992  25.729   5.675  10.239
66210W        W32993  44.572  35.528  13.899
66211W        W32994  19.228  32.623   0.359
66212W        W32995   1.835  39.242  14.038
66213W        W32996  21.102  44.434  14.324
66214W        W32997   6.329  21.782  11.066
66215W        W32998  19.638   0.954  12.491
66216W        W32999  22.114  20.534   4.161
66217W        W33000  27.697  26.614   2.356
66218W        W33001  25.529   3.705  14.413
66219W        W33002  21.683  33.129  12.731
66220W        W33003  33.973   7.884   3.011
66221W        W33004   5.429  42.448   3.860
66222W        W33005   1.948  22.647  10.634
66223W        W33006  13.686  18.278  14.385
66224W        W33007  33.434  21.104   2.740
66225W        W33008  27.188  38.092  14.346
66226W        W33009   5.342  19.659   3.183
66227W        W33010  32.964  22.482   4.122
66228W        W33011  10.840   4.297   1.495
66229W        W33012  36.013   2.764   2.420
66230W        W33013  37.490   5.868  13.528
66231W        W33014  28.152   0.253  11.992
66232W        W33015   2.543  15.708  12.944
66233W        W33016  18.546  15.326  12.584
66234W        W33017  36.255   8.670   2.188
66235W        W33018  14.509  28.627  11.744
66236W        W33019  44.820  11.389  13.986
66237W        W33020  34.617  19.647   4.522
66238W        W33021  44.492  13.917   2.319
66239W        W33022   3.650  44.029   3.633
66240W        W33023  24.038  43.506   3.702
66241W        W33024  12.671   3.320   3.506
66242W        W33025  15.797  17.745  12.835
66243W        W33026  42.212  42.297  12.610
66244W        W33027   2.925  18.698   3.816
66245W        W33028  12.616  35.489   3.045
66246W        W33029  31.085  33.233  14.334
66247W        W33030  26.639  18.933   2.879
66248W        W33031  42.947  32.121  14.014
66249W        W33032  21.570  42.436   0.373
66250W        W33033  36.121  30.736   3.870
66251W        W33034   7.851  12.911   0.579
66252W        W33035  28.604  42.484  13.128
66253W        W33036   1.485   4.291  12.506
66254W        W33037   7.737  43.288  10.409
66255W        W33038  26.065   8.295  11.165
66256W        W33039  21.150  44.491   3.193
66257W        W33040  19.642   9.817  11.720
66258W        W33041  44.767  37.379  11.607
66259W        W33042  41.118  24.657   4.583
66260W        W33043  16.198  38.416   4.486
66261W        W33044  37.180   9.169  12.008
66262W        W33045  12.343  31.814   0.202
66263W        W33046   4.886  20.726   1.390
66264W        W33047  26.729   0.244  11.566
66265W        W33048  17.123   6.468   0.432
66266W        W33049  11.803  44.788   1.365
66267W        W33050   9.174  32.026  14.456
66268W        W33051   3.919  22.963   1.824
66269W        W33052  17.349   7.760   1.342
66270W        W33053  41.489  25.255  12.705
66271W        W33054  14.093  17.286  14.398
66272W        W33055  33.595  23.130   2.356
66273W        W33056   3.501   3.733  10.653
66274W        W33057  24.676  24.258  14.408
66275W        W33058  11.433  41.915   4.654
66276W        W33059  11.738  12.371   2.257
66277W        W33060  36.934  38.380  11.612
66278W        W33061   3.066   9.264   0.378
66279W        W33062  33.190   2.940   3.769
66280W        W33063  10.592  39.001   4.624
66281W        W33064  29.697   2.087   3.174
66282W        W33065  29.866  38.865  10.463
66283W        W33066   9.275  42.359  14.504
66284W        W33067  15.784  23.229   2.689
66285W        W33068  32.703  33.032   1.352
66286W        W33069  22.295  26.532  14.891
66287W        W33070  23.044  34.100   4.488
66288W        W33071   6.699   0.695   1.879
66289W        W33072  34.516  10.288  10.045
66290W        W33073  36.441  27.748  10.787
66291W        W33074   4.750  44.647  10.648
66292W        W33075  26.349   4.649   4.044
66293W        W33076  29.707  40.233  11.164
66294W        W33077  23.435   3.580   3.113
66295W        W33078  44.350  11.693  10.718
66296W        W33079   6.455   2.009   2.116
66297W        W33080   5.247  19.284  10.682
66298W        W33081  18.587  36.457  10.979
66299W        W33082  19.507  25.777   1.602
66300W        W33083  26.198   0.833  11.031
66301W        W33084  40.751  14.059  11.697
66302W        W33085  23.143  39.350   4.908
66303W        W33086  17.003  40.166  10.307
66304W        W33087  11.715  10.227   9.868
66305W        W33088   4.763  23.302  12.998
66306W        W33089  33.120   3.775  12.888
66307W        W33090  40.758  43.469  11.202
66308W        W33091  36.511  28.689   5.094
66309W        W33092  40.909  26.539   1.818
66310W        W33093   5.881  19.778  11.591
66311W        W33094  38.308  31.841  10.648
66312W        W33095  40.859  24.605   1.552
66313W        W33096   1.975  14.049   1.354
66314W        W33097  26.215  36.548   4.660
66315W        W33098  19.486  11.814  12.994
66316W        W33099  19.397  44.835   4.310
66317W        W33100  20.097   8.327   3.786
66318W        W33101   6.672  25.021   0.336
66319W        W33102  27.866  43.927  12.357
66320W        W33103   6.362  16.725  11.309
66321W        W33104  39.094   3.422   0.636
66322W        W33105  28.917  24.985  11.582
66323W        W33106  24.047  25.682   3.608
66324W        W33107  43.872  37.313  14.426
66325W        W33108   7.232   1.170  14.961
66326W        W33109  19.052  13.194   0.870
66327W        W33110  39.530  32.678   0.059
66328W        W33111  39.079  28.344   1.503
66329W        W33112  20.036  36.963   1.560
66330W        W33113  32.686  41.628  10.637
66331W        W33114  13.349   8.724  14.820
66332W        W33115  31.183   6.261  10.718
66333W        W33116  26.582  25.817  14.499
66334W        W33117   5.454  36.339  14.971
66335W        W33118  16.175  12.560   2.913
66336W        W33119  16.218  28.036   2.122
66337W        W33120  18.992  30.359   2.717
66338W        W33121  37.668  40.916   2.695
66339W        W33122  32.181  26.901   1.669
66340W        W33123  40.023  36.105   3.674
66341W        W33124  18.605  29.197  11.990
66342W        W33125  40.420  17.179   1.891
66343W        W33126  17.812  29.765  10.426
66344W        W33127  10.807  24.169  14.534
66345W        W33128  34.395  14.269  10.635
66346W        W33129  41.164   7.201   4.520
66347W        W33130  27.682  39.072  14.025
66348W        W33131  10.761   6.666   2.355
66349W        W33132  26.739  38.496  11.068
66350W        W33133   3.644   7.052   3.622
66351W        W33134   4.428   2.931   2.760
66352W        W33135  31.160  16.551   1.896
66353W        W33136   5.133  10.803   1.200
66354W        W33137  14.746   2.725   4.805
66355W        W33138  10.167  32.474  12.827
66356W        W33139  23.470  28.093   0.289
66357W        W33140  37.738   5.000  13.398
66358W        W33141  28.551   4.657  11.019
66359W        W33142  19.009   6.959   2.824
66360W        W33143  37.665   6.647   2.397
66361W        W33144  19.119  28.905   1.395
66362W        W33145  16.322  16.728  13.067
66363W        W33146   4.423   9.826   4.096
66364W        W33147   7.967   3.207  10.275
66365W        W33148  35.916  36.005  14.054
66366W        W33149  18.618  37.405   3.683
66367W        W33150  27.435  33.426   0.872
66368W        W33151  16.726   7.734  13.561
66369W        W33152   9.241  11.053   2.887
66370W        W33153   0.206  25.554   1.640
66371W        W33154  36.122  37.698   4.476
66372W        W33155  31.895   8.264  12.196
66373W        W33156  37.886  29.131  11.957
66374W        W33157  24.040  36.873   1.950
66375W        W33158  27.006  29.416  11.244
66376W        W33159   4.456  38.563   0.492
66377W        W33160  32.922  11.392   4.128
66378W        W33161  42.516  26.700  12.858
66379W        W33162  19.205  43.696   3.625
66380W        W33163  40.507   1.746  11.651
66381W        W33164  30.532  36.438  13.621
66382W        W33165  16.837  22.767  11.126
66383W        W33166  21.681   5.163   0.857
66384W        W33167   6.147  19.160  12.933
66385W        W33168  20.093   4.270  11.550
66386W        W33169   8.686   0.225  10.716
66387W        W33170  42.401  29.605  11.475
66388W        W33171  40.484  30.350   2.465
66389W        W33172  42.807  24.044  13.033
66390W        W33173   5.390  14.198  13.973
66391W        W33174   3.318   9.919   1.319
66392W        W33175   7.278  27.560  14.543
66393W        W33176  27.012  20.732  13.389
66394W        W33177  11.317  24.084   0.793
66395W        W33178  12.557  42.257  11.667
66396W        W33179  22.523   4.721  12.183
66397W        W33180  36.111  20.731   0.013
66398W        W33181  25.001  27.613   2.230
66399W        W33182   1.802   4.924  11.880
66400W        W33183  40.965   5.940  13.374
66401W        W33184  30.478  15.756  12.434
66402W        W33185   8.335  32.426   4.041
66403W        W33186  18.358  17.601   1.809
66404W        W33187   5.173  10.542   3.246
66405W        W33188  13.754  39.051   2.109
66406W        W33189   4.886  38.808   2.959
66407W        W33190  41.835  15.772  12.549
66408W        W33191  25.620  33.545  12.912
66409W        W33192   2.811   5.694  13.806
66410W        W33193  27.167  36.856   4.436
66411W        W33194  33.485  31.959   0.780
66412W        W33195  24.149  20.104   4.203
66413W        W33196   2.434  26.203  13.018
66414W        W33197  27.266  21.697  11.261
66415W        W33198   4.870  21.756   4.797
66416W        W33199  35.984  10.329  10.193
66417W        W33200  40.752   7.082  11.396
66418W        W33201  17.022  14.638   2.752
66419W        W33202  39.571  42.496   0.254
66420W        W33203  21.335  10.667  12.921
66421W        W33204  27.511   5.749   1.297
66422W        W33205  18.228  33.987   4.722
66423W        W33206  20.093  44.468   1.760
66424W        W33207  34.032   4.912   3.709
66425W        W33208  22.580  27.522  13.923
66426W        W33209  31.523  43.369   1.556
66427W        W33210  20.117   8.930  11.946
66428W        W33211  26.685  23.421   3.941
66429W        W33212   4.397  18.432   0.885
66430W        W33213   2.178  40.559  13.947
66431W        W33214  41.916  36.289   3.701
66432W        W33215  20.529  37.030  13.839
66433W        W33216  40.413  36.903  12.494
66434W        W33217  11.067  37.112  14.266
66435W        W33218   5.949   8.167  13.006
66436W        W33219  32.455  43.838  11.210
66437W        W33220  33.094  32.349   3.319
66438W        W33221  30.850   6.699   2.750
66439W        W33222  20.411   5.386  10.187
66440W        W33223   2.342  33.667  13.313
66441W        W33224   8.301  31.089   1.458
66442W        W33225  32.692  18.246  11.496
66443W        W33226   4.001  29.854   2.778
66444W        W33227   1.492  37.417  11.201
66445W        W33228   9.135   1.320   4.618
66446W        W33229  12.113  35.385   0.868
66447W        W33230  10.416   2.763   2.442
66448W        W33231  37.280  41.170  11.883
66449W        W33232  33.525  42.856  10.903
66450W        W33233  12.287   2.797   0.847
66451W        W33234  33.080  24.216  12.995
66452W        W33235  27.581  32.315   3.574
66453W        W33236  22.237  22.057   1.063
66454W        W33237   2.598  33.492   2.603
66455W        W33238  40.995  21.021   4.109
66456W        W33239  29.499  26.457   2.370
66457W        W33240  18.000  43.487   4.273
66458W        W33241  37.977  13.641  13.299
66459W        W33242  28.088  39.373   4.134
66460W        W33243   6.775  25.220  14.828
66461W        W33244  43.642  12.030   4.618
66462W        W33245  28.414  19.147  14.427
66463W        W33246  17.238  31.353  11.148
66464W        W33247  30.642   1.919   3.849
66465W        W33248   1.948  29.141   0.381
66466W        W33249  10.085  27.572   3.130
66467W        W33250  41.895  40.774  13.859
66468W        W33251  28.530  34.609   0.308
66469W        W33252   5.143  16.131  12.857
66470W        W33253  27.186  36.409   4.695
66471W        W33254  42.073  41.277  13.899
66472W        W33255  15.838  41.865  14.961
66473W        W33256  22.509  14.676  13.534
66474W        W33257  16.187  25.538   2.869
66475W        W33258  33.967  42.411   1.119
66476W        W33259  24.113  34.484   0.388
66477W        W33260  14.732  41.719   3.206
66478W        W33261  39.315   3.988   4.084
66479W        W33262  19.155   2.848  11.183
66480W        W33263  29.411  44.330   1.718
66481W        W33264   8.231  26.725  11.945
66482W        W33265  31.520  34.985   3.363
66483W        W33266   0.457  22.642  13.452
66484W        W33267  33.517  40.269  14.871
66485W        W33268   9.319  18.307  12.836
66486W        W33269  10.481  20.337  10.706
66487W        W33270  42.854  15.744   1.630
66488W        W33271   8.109  15.614  14.222
66489W        W33272   8.891  36.895   4.146
66490W        W33273  15.203   8.781   2.737
66491W        W33274  41.390  31.589  13.459
66492W        W33275  18.089   4.722  12.457
66493W        W33276   5.162   5.251  14.393
66494W        W33277  13.151  39.544   2.461
66495W        W33278   4.833  41.711   3.708
66496W        W33279   2.709   5.763  12.931
66497W        W33280  44.341  14.390   2.282
66498W        W33281  19.818  10.110   5.070
66499W        W33282  39.596  39.440  13.403
66500W        W33283  12.198   0.740   2.573
66501W        W33284   7.830   7.142  12.124
66502W        W33285  42.421  19.032  12.861
66503W        W33286  20.798  16.347  13.276
66504W        W33287  23.135  41.543   1.334
66505W        W33288   0.920   0.114   4.408
66506W        W33289  19.518   3.846   1.481
66507W        W33290  17.223  36.632  11.100
66508W        W33291  36.210  32.256  10.362
66509W        W33292  33.453  24.727  13.449
66510W        W33293  37.867  21.660  13.035
66511W        W33294   8.873  24.633   3.184
66512W        W33295   7.969   4.919   2.124
66513W        W33296  15.628  15.647  10.253
66514W        W33297  40.011  10.191   3.336
66515W        W33298  39.337  14.129  12.592
66516W        W33299  13.138  26.462  12.371
66517W        W33300  14.292   3.031   3.664
66518W        W33301  38.597   1.296  14.107
66519W        W33302  21.472  44.323  11.485
66520W        W33303   8.160  41.757  14.509
66521W        W33304  34.738   4.486  12.775
66522W        W33305  35.629  16.637  11.666
66523W        W33306  29.630  11.116   2.377
66524W        W33307  40.949   8.940   3.347
66525W        W33308  29.392  18.189  10.739
66526W        W33309  41.830   0.261  11.367
66527W        W33310   2.305  28.121  12.627
66528W        W33311  15.353  31.825  11.559
66529W        W33312   5.043  21.286   4.644
66530W        W33313  12.029   6.807   3.550
66531W        W33314  41.913  44.493   3.706
66532W        W33315  30.177  35.961  14.686
66533W        W33316   8.413  10.287   2.949
66534W        W33317  14.551   4.320  13.470
66535W        W33318   0.401  29.635  11.707
66536W        W33319  19.969  42.480  13.824
66537W        W33320  27.180  19.170  12.592
66538W        W33321   1.307  29.801  11.579
66539W        W33322  33.563  28.946  14.361
66540W        W33323  37.862  35.763  14.109
66541W        W33324  37.858  10.905   1.139
66542W        W33325   3.408   7.769  13.376
66543W        W33326   9.268  31.081   4.580
66544W        W33327  13.240  33.359  11.301
66545W        W33328  20.205  21.066   0.114
66546W        W33329  26.351   5.721   0.717
66547W        W33330  44.654  37.348  10.724
66548W        W33331  18.342   5.112  11.958
66549W        W33332   1.752   9.731   0.385
66550W        W33333   6.419  32.674  14.430
66551W        W33334  13.659  10.698  13.270
66552W        W33335  17.292  27.407  13.824
66553W        W33336  20.848  14.680   4.200
66554W        W33337   9.622  41.912   1.651
66555W        W33338  38.504  28.355   2.814
66556W        W33339   1.086  24.553  14.157
66557W        W33340   5.205  28.704   3.807
66558W        W33341  11.485   3.930   2.263
66559W        W33342  41.143   2.302  11.521
66560W        W33343  34.163  44.911   1.324
66561W        W33344   4.897   0.719   4.545
66562W        W33345  12.811  15.715   1.624
66563W        W33346  20.691  27.012   4.589
66564W        W33347  28.579  17.699  11.044
66565W        W33348  24.736  26.724   5.163
66566W        W33349  25.433  12.728   3.371
66567W        W33350   3.954  24.605   0.322
66568W        W33351   1.791  24.690   3.464
66569W        W33352  41.216  15.304   0.431
66570W        W33353  25.870  43.734   2.011
66571W        W33354  16.169  31.041  13.725
66572W        W33355  41.563   5.941   3.181
66573W        W33356  28.051  40.115  13.410
66574W        W33357   3.311  28.906  10.382
66575W        W33358  34.780   4.100   5.277
66576W        W33359  21.452  27.683   4.897
66577W        W33360  26.497  28.737   2.024
66578W        W33361  13.235  41.469   0.396
66579W        W33362  36.538  15.073  10.796
66580W        W33363  41.345  40.488   2.380
66581W        W33364  34.896   3.687   1.259
66582W        W33365  29.443  24.132  10.745
66583W        W33366  43.716  17.907   3.742
66584W        W33367  40.952  30.669   2.467
66585W        W33368  14.372  15.051  14.041
66586W        W33369   1.571  41.302   3.220
66587W        W33370  27.385  31.779  13.491
66588W        W33371   7.727  18.122   2.246
66589W        W33372   4.369  33.016   3.292
66590W        W33373  27.256  14.313   4.199
66591W        W33374  33.794  44.851  11.562
66592W        W33375   5.368  16.991  14.351
66593W        W33376  33.122  12.335   4.041
66594W        W33377  37.550   6.063  13.993
66595W        W33378  41.258   8.672  11.773
66596W        W33379  19.030  26.161  10.492
66597W        W33380  25.521  31.975   4.110
66598W        W33381  25.847  44.478  10.960
66599W        W33382  39.342  23.577   3.266
66600W        W33383  40.028  43.857  14.841
66601W        W33384  18.258  16.087  11.157
66602W        W33385  22.930  11.705  12.539
66603W        W33386  25.000   6.876   3.659
66604W        W33387  10.702  12.140  12.557
66605W        W33388   1.953  22.264   1.432
66606W        W33389  30.246  32.740   3.797
66607W        W33390   8.595   0.862  14.786
66608W        W33391  29.022  41.676  12.362
66609W        W33392  10.884  17.522   3.421
66610W        W33393  29.417   0.517   3.656
66611W        W33394  19.988  19.101   1.889
66612W        W33395  15.785   6.262  13.916
66613W        W33396  31.427  18.307  14.754
66614W        W33397  27.350  41.339  12.866
66615W        W33398  24.216   2.318   3.588
66616W        W33399  31.923  15.260   1.376
66617W        W33400   8.453   4.963   0.955
66618W        W33401  28.955  34.490   0.568
66619W        W33402  35.108   2.839  14.191
66620W        W33403  20.652   8.413   1.505
66621W        W33404  17.795  24.796   3.042
66622W        W33405  37.879   0.008  14.820
66623W        W33406   7.874  10.027   2.605
66624W        W33407  24.799   6.798  11.062
66625W        W33408  13.248  27.535  13.042
66626W        W33409  36.797   9.787   2.278
66627W        W33410  17.562  28.935  13.088
66628W        W33411  33.416  12.946   2.782
66629W        W33412   5.010   7.396  10.282
66630W        W33413  27.968  27.754   1.885
66631W        W33414  39.974  24.677   0.022
66632W        W33415   7.709  29.089   1.481
66633W        W33416   4.199  37.654  13.938
66634W        W33417  32.908  42.367  14.111
66635W        W33418  10.979  22.714  10.758
66636W        W33419  17.969  44.863   2.886
66637W        W33420  29.170   2.444   2.327
66638W        W33421  13.115   0.298  11.585
66639W        W33422  15.282  17.348  11.103
66640W        W33423  33.108  28.754   3.578
66641W        W33424  10.667   7.991   3.990
66642W        W33425  31.562  34.751  12.917
66643W        W33426   7.745  26.512   4.341
66644W        W33427  41.399  44.847  13.332
66645W        W33428  44.377  42.910  12.038
66646W        W33429   2.715   6.536   3.738
66647W        W33430  39.803  34.453   3.157
66648W        W33431  34.148  36.717  12.503
66649W        W33432  35.466   9.870  12.892
66650W        W33433  35.932   9.861  12.558
66651W        W33434  29.644  41.483  12.204
66652W        W33435  40.881  42.725   0.790
66653W        W33436   7.527  37.105  14.976
66654W        W33437  34.323  27.866   2.821
66655W        W33438  31.454   0.864  13.381
66656W        W33439  16.367  41.559  13.707
66657W        W33440  42.529  25.537  11.768
66658W        W33441  20.085  12.842   4.153
66659W        W33442   2.754  15.110  10.736
66660W        W33443  44.619  37.921   2.045
66661W        W33444  11.612   7.874   2.687
66662W        W33445  38.910  15.216   1.856
66663W        W33446   8.508  23.665  10.612
66664W        W33447  23.516   5.766   1.388
66665W        W33448  19.210   0.687   4.560
66666W        W33449  36.080  26.553  12.153
66667W        W33450  24.414   9.628  12.305
66668W        W33451   7.344  22.004   4.761
66669W        W33452  17.122  10.543  10.601
66670W        W33453  38.874   0.988   3.481
66671W        W33454  43.854  43.279  13.420
66672W        W33455  43.478  17.936  13.440
66673W        W33456  14.197   6.241  12.599
66674W        W33457  27.461  44.509  13.424
66675W        W33458   6.874  19.202  12.172
66676W        W33459   5.926  35.479   1.646
66677W        W33460   9.138   4.253  14.789
66678W        W33461  19.408  31.072   5.058
66679W        W33462   0.717   8.198   3.175
66680W        W33463  15.848  14.747  14.882
66681W        W33464   6.839  14.133  13.890
66682W        W33465  21.739  44.340  11.036
66683W        W33466  32.859  10.959  14.034
66684W        W33467  36.397  23.093  13.995
66685W        W33468  30.899  42.444  12.413
66686W        W33469   8.215  39.331   0.806
66687W        W33470  29.905  43.972   4.079
66688W        W33471  28.282  34.645   4.238
66689W        W33472  18.695  41.304   2.165
66690W        W33473  21.581  38.802  11.101
66691W        W33474  25.462  37.049  11.626
66692W        W33475  15.379   5.722   0.385
66693W        W33476   9.920  36.352   9.992
66694W        W33477  20.309  34.124   0.202
66695W        W33478  33.110   1.196  12.481
66696W        W33479  33.448  35.621  12.486
66697W        W33480   3.681  20.192  10.568
66698W        W33481  11.404  34.069   1.787
66699W        W33482  20.213   2.849   1.274
66700W        W33483  28.432  10.325   2.079
66701W        W33484   0.564  39.331  12.350
66702W        W33485   2.301  25.234   9.643
66703W        W33486  28.023  18.158  14.952
66704W        W33487  16.260  27.496  10.577
66705W        W33488  34.275  14.440  13.761
66706W        W33489  21.958  42.974   3.301
66707W        W33490   5.282  19.960   2.733
66708W        W33491  39.836  12.324  12.515
66709W        W33492  33.311  35.024   1.781
66710W        W33493  10.776  37.057   2.726
66711W        W33494  19.658  12.428  12.024
66712W        W33495  12.012  10.926  10.206
66713W        W33496  20.054   8.882  10.211
66714W        W33497  40.072  12.335   3.830
66715W        W33498  11.689   0.203   4.384
66716W        W33499   6.221  28.735   4.068
66717W        W33500  15.840   5.428  13.216
66718W        W33501  15.041  15.287   0.711
66719W        W33502  27.912  20.829  13.311
66720W        W33503  11.639  11.866   4.122
66721W        W33504  39.466   7.470  14.006
66722W        W33505  29.530  37.360   1.639
66723W        W33506  30.358  27.614   1.994
66724W        W33507  17.702  22.226  13.285
66725W        W33508  20.204  20.650  13.297
66726W        W33509  35.596  28.505  14.534
66727W        W33510   8.849  33.534   2.348
66728W        W33511  41.656  41.628  11.562
66729W        W33512  18.216  17.325   0.939
66730W        W33513  25.818  17.362  12.592
66731W        W33514   8.501  23.081   2.727
66732W        W33515  37.475  37.272   0.243
66733W        W33516   8.097   9.300   2.635
66734W        W33517  37.858  39.810   4.027
66735W        W33518   0.007  26.498   4.165
66736W        W33519   9.346  14.322  13.403
66737W        W33520  29.180  13.901  14.400
66738W        W33521  28.462  17.139   1.975
66739W        W33522   4.158   2.255   2.480
66740W        W33523   3.660  40.614   0.725
66741W        W33524  20.956  31.864   0.674
66742W        W33525  26.844  28.060  13.917
66743W        W33526  10.928   5.484   4.991
66744W        W33527   1.827  23.663   4.662
66745W        W33528  28.634  12.664   0.524
66746W        W33529  15.538  16.689   4.680
66747W        W33530  39.412  24.978  11.590
66748W        W33531   0.513   0.161  12.167
66749W        W33532  38.959  15.771  11.079
66750W        W33533  43.046  28.330  14.928
66751W        W33534  28.970  14.074  10.638
66752W        W33535  36.067  29.412  11.146
66753W        W33536  13.879  18.695   0.275
66754W        W33537   1.784  31.613  12.110
66755W        W33538  12.738  41.788   2.305
66756W        W33539  34.001  30.543   1.683
66757W        W33540  21.176  21.240   4.642
66758W        W33541  27.187  39.066   3.137
66759W        W33542  18.591   0.040  10.216
66760W        W33543  36.971  40.642   3.222
66761W        W33544  39.327  38.972  10.228
66762W        W33545  15.384  27.675   2.630
66763W        W33546  42.949   2.298   4.500
66764W        W33547  34.355  14.914  13.917
66765W        W33548  26.933   4.256   2.849
66766W        W33549  22.271  28.933  13.122
66767W        W33550  36.303  25.463  11.239
66768W        W33551  14.163   3.547   4.682
66769W        W33552  29.983  28.280   3.892
66770W        W33553  42.434  32.109  14.260
66771W        W33554   6.690  32.866   3.296
66772W        W33555   1.393  37.273   4.525
66773W        W33556   5.079  14.037   1.468
66774W        W33557   7.900  29.943   3.203
66775W        W33558  16.243  18.731   3.135
66776W        W33559   6.013  42.854   5.035
66777W        W33560  26.260   6.767   1.385
66778W        W33561   8.834   8.229   0.655
66779W        W33562  25.083  25.173   1.719
66780W        W33563  18.617  42.838   4.871
66781W        W33564  15.900  33.236  10.416
66782W        W33565   5.156  43.530  11.382
66783W        W33566  19.962   4.276   4.804
66784W        W33567  11.356  23.583  10.871
66785W        W33568  36.943   6.235   0.593
66786W        W33569  39.976  41.522  13.097
66787W        W33570  38.837  18.835   0.734
66788W        W33571  12.695  14.672   2.411
66789W        W33572  33.722  15.970  14.258
66790W        W33573  20.239  16.315   0.763
66791W        W33574  42.644   5.421   5.019
66792W        W33575  13.179  26.858   0.703
66793W        W33576  17.569  35.790  12.353
66794W        W33577  15.100  30.990   2.730
66795W        W33578  31.215   3.210   0.977
66796W        W33579   4.445  19.830  13.967
66797W        W33580  18.275  40.022  13.915
66798W        W33581  43.204  33.534   0.473
66799W        W33582  39.951  29.772   0.906
66800W        W33583   0.826  39.276   3.667
66801W        W33584  31.613  44.038  14.066
66802W        W33585   1.081  38.319  13.482
66803W        W33586   0.659  14.829   0.413
66804W        W33587  23.952   2.038   9.876
66805W        W33588  22.801  22.725   0.809
66806W        W33589  41.845  16.834  12.659
66807W        W33590   2.623  11.229   0.625
66808W        W33591  16.732  28.879   1.694
66809W        W33592  13.739  44.729   1.315
66810W        W33593   7.541   3.240  13.912
66811W        W33594   3.070  26.529   0.948
66812W        W33595  40.564  22.638  13.557
66813W        W33596  21.510   1.690  13.019
66814W        W33597  30.749  34.799  12.415
66815W        W33598  18.993  10.441  13.971
66816W        W33599   5.330  30.777  13.774
66817W        W33600  38.547  14.812   0.791
66818W        W33601  19.006  22.644   4.674
66819W        W33602  37.558  27.433   2.398
66820W        W33603  22.755  33.764  11.110
66821W        W33604  20.272   7.184  13.404
66822W        W33605  35.170  23.697   1.900
66823W        W33606  10.774  11.763   0.306
66824W        W33607  22.470  41.906   1.400
66825W        W33608  28.440  20.610  14.586
66826W        W33609  37.412  27.401   3.873
66827W        W33610  12.749  37.921   2.065
66828W        W33611  19.632  32.179   3.459
66829W        W33612   9.650  25.799   0.856
66830W        W33613   7.800   3.361  14.728
66831W        W33614  30.065  39.086   3.720
66832W        W33615   4.354  12.438   1.676
66833W        W33616  30.624  16.558  14.441
66834W        W33617  40.023   0.613   3.749
66835W        W33618   2.915  38.023   1.965
66836W        W33619  26.049  11.661  14.649
66837W        W33620  25.182  11.550  14.927
66838W        W33621  28.301  43.013  11.453
66839W        W33622  12.764  26.923   2.630
66840W        W33623  15.655   0.446  14.957
66841W        W33624  21.103  30.639  13.396
66842W        W33625  36.546   1.469  11.255
66843W        W33626  28.189   7.864   2.622
66844W        W33627  41.814  34.527  11.089
66845W        W33628  35.147  22.664   4.211
66846W        W33629  19.145  18.323  10.797
66847W        W33630  12.727  40.776  12.949
66848W        W33631  13.338   7.619   0.138
66849W        W33632  21.786  19.691  11.712
66850W        W33633   4.928  13.047  10.200
66851W        W33634  37.628   7.157   2.391
66852W        W33635   4.877  19.618   2.662
66853W        W33636   4.894  44.507   3.138
66854W        W33637  23.258   6.342  10.959
66855W        W33638  31.459  25.282  13.402
66856W        W33639  24.605   8.310   3.569
66857W        W33640  16.267  19.387  13.320
66858W        W33641   4.401   1.874  10.469
66859W        W33642  14.306  19.080  12.122
66860W        W33643  34.048  44.866   0.274
66861W        W33644   7.352  18.703   1.741
66862W        W33645  21.779  32.391   3.739
66863W        W33646  10.039   0.323  14.995
66864W        W33647   0.027  22.818  12.204
66865W        W33648  22.206  12.488   0.870
66866W        W33649  15.135   3.452   1.706
66867W        W33650  32.413  17.023  12.482
66868W        W33651  17.111  39.497  10.664
66869W        W33652  42.239  13.358  11.777
66870W        W33653   7.045  24.651  12.405
66871W        W33654  24.633  35.444  12.587
66872W        W33655  40.910  28.652  14.531
66873W        W33656   2.933  15.680  14.349
66874W        W33657   6.223  12.315   4.159
66875W        W33658  41.326  35.988   4.892
66876W        W33659  24.437  13.640   3.109
66877W        W33660  32.643  14.846   3.224
66878W        W33661   7.304   5.845   2.940
66879W        W33662  18.807  29.220   3.176
66880W        W33663  19.533  22.321   4.217
66881W        W33664  43.440  12.627   5.027
66882W        W33665  41.069  11.243   0.763
66883W        W33666  21.973  12.148   2.237
66884W        W33667  33.439   9.247   3.536
66885W        W33668   6.689  38.316   4.204
66886W        W33669  19.088   4.020   2.367
66887W        W33670  33.523  25.727  14.326
66888W        W33671   6.536  12.728  12.178
66889W        W33672  41.510   1.061   0.030
66890W        W33673  28.417  42.516   0.393
66891W        W33674   9.291  39.011  14.294
66892W        W33675  13.080   1.157   4.234
66893W        W33676  18.602  30.541  13.443
66894W        W33677   9.872  23.268  11.889
66895W        W33678   8.994  42.884   9.802
66896W        W33679  25.087  13.730  11.211
66897W        W33680  16.315  32.643  11.460
66898W        W33681  13.533  12.342  12.941
66899W        W33682   0.861  28.981   2.241
66900W        W33683   2.687  10.173  14.491
66901W        W33684  38.228  10.789   0.772
66902W        W33685   2.114  27.234   1.475
66903W        W33686  11.643   6.672  14.820
66904W        W33687  37.836  27.273   3.222
66905W        W33688  20.681   6.291   0.921
66906W        W33689   8.738  37.132   1.383
66907W        W33690  20.664  23.230  14.418
66908W        W33691  16.563  44.753  14.951
66909W        W33692  16.898  34.548  11.558
66910W        W33693  43.780   7.603   0.028
66911W        W33694  27.161  17.519   2.603
66912W        W33695  29.877  40.832   3.240
66913W        W33696   5.159  18.816   4.253
66914W        W33697  34.059   3.376  14.843
66915W        W33698   6.227  41.362   2.779
66916W        W33699  14.146  13.129   3.188
66917W        W33700  40.914  39.840   3.142
66918W        W33701  22.253   2.335  11.445
66919W        W33702  35.160  40.441   2.850
66920W        W33703  42.879  24.803   4.547
66921W        W33704  12.579   1.012   2.849
66922W        W33705  25.423   8.585   5.024
66923W        W33706  43.964   3.782  11.211
66924W        W33707  32.336  17.322  12.887
66925W        W33708   3.071  14.791   2.634
66926W        W33709  32.453   7.853  10.583
66927W        W33710  20.344  14.290   2.655
66928W        W33711  36.444  21.455   4.138
66929W        W33712  17.473  22.240   4.812
66930W        W33713  38.737   0.556  12.432
66931W        W33714  21.612  38.619  13.428
66932W        W33715  29.942  13.861  13.484
66933W        W33716   2.979  20.750   0.926
66934W        W33717  35.831   0.037  10.939
66935W        W33718  19.944   2.472   5.303
66936W        W33719  27.141  42.775  10.658
66937W        W33720   5.935  43.003  13.912
66938W        W33721  37.597   3.435  12.525
66939W        W33722  20.420   3.527  10.985
66940W        W33723   7.789  42.878   0.465
66941W        W33724   2.892  15.227   1.852
66942W        W33725  29.096  29.909  14.978
66943W        W33726   8.316  27.455  12.517
66944W        W33727   2.816  34.873   1.245
66945W        W33728  12.788  23.695  11.088
66946W        W33729  20.242   1.966   1.362
66947W        W33730  11.638  42.831  13.889
66948W        W33731  40.989  34.925  13.592
66949W        W33732  35.289   9.754   4.736
66950W        W33733  38.093   9.758   1.764
66951W        W33734  36.084   9.412  14.771
66952W        W33735  28.091  17.245   4.619
66953W        W33736  39.180  40.355   4.164
66954W        W33737  43.121  34.073  11.887
66955W        W33738  14.558  11.900   3.311
66956W        W33739  13.136  12.374  10.849
66957W        W33740  37.792   7.376   1.940
66958W        W33741  26.549  15.154   0.778
66959W        W33742   8.401  37.349   3.728
66960W        W33743  24.599  20.263  12.985
66961W        W33744  22.467  30.070   0.965
66962W        W33745  11.394  22.210   1.388
66963W        W33746  24.467  26.488  11.528
66964W        W33747   0.852  25.262  12.170
66965W        W33748  25.968  19.074   0.770
66966W        W33749   6.004  33.633   3.270
66967W        W33750   9.756  34.098  13.334
66968W        W33751   8.248  37.632   2.643
66969W        W33752  12.605  32.179  13.562
66970W        W33753  42.808  31.396   2.757
66971W        W33754  16.201  12.316   3.363
66972W        W33755  30.481  19.168   1.590
66973W        W33756  35.031  26.120  13.494
66974W        W33757  28.447  35.946  11.654
66975W        W33758  33.529  24.475  12.981
66976W        W33759  28.079  30.127   3.899
66977W        W33760   4.407  31.475  14.938
66978W        W33761  39.966   1.205   1.929
66979W        W33762  28.517  16.182   4.386
66980W        W33763  16.823  29.079   3.590
66981W        W33764  44.332  24.537   4.381
66982W        W33765  24.633   2.228  12.448
66983W        W33766   3.023  41.525   2.903
66984W        W33767  24.131  28.318  13.855
66985W        W33768  43.312  36.899  10.278
66986W        W33769  34.558   7.811   1.017
66987W        W33770   6.934   2.313  13.994
66988W        W33771   2.970  22.554  13.115
66989W        W33772  16.789  30.707   1.947
66990W        W33773   5.616  18.101  12.009
66991W        W33774  11.599  15.694  13.287
66992W        W33775   1.229   5.809   4.656
66993W        W33776   3.439  41.896   4.595
66994W        W33777  15.698  36.295  12.124
66995W        W33778  44.874   5.215   2.763
66996W        W33779   7.709  39.451   3.741
66997W        W33780  38.615  30.708  10.952
66998W        W33781  19.697  18.742   2.141
66999W        W33782  41.858  34.893  10.630
67000W        W33783  27.593  38.353  13.292
67001W        W33784   5.346  37.342   2.189
67002W        W33785  35.130  20.398   2.598
67003W        W33786  22.610  34.620   2.332
67004W        W33787  32.129  25.001  13.700
67005W        W33788  27.932  10.628  11.545
67006W        W33789  25.714  27.504   4.795
67007W        W33790  22.141  24.624   3.264
67008W        W33791  40.647  42.898   3.301
67009W        W33792   8.972  41.871  12.844
67010W        W33793   3.908  28.201  14.372
67011W        W33794  34.985   7.913  11.796
67012W        W33795   4.952  23.966   3.618
67013W        W33796  36.949  14.360   1.573
67014W        W33797  22.219  10.218   0.232
67015W        W33798  36.338  37.486   1.902
67016W        W33799  28.392  34.078  12.028
67017W        W33800   5.520  31.907  11.132
67018W        W33801  20.536  14.301  14.426
67019W        W33802  13.107  41.081  11.637
67020W        W33803  27.563  13.027   2.485
67021W        W33804  22.224  42.078  14.793
67022W        W33805   4.276  34.776   0.429
67023W        W33806  40.043   3.296  13.415
67024W        W33807  38.564  31.064   4.174
67025W        W33808  36.567  36.655  14.508
67026W        W33809  16.764  22.158   2.791
67027W        W33810  43.172  30.192  11.524
67028W        W33811   9.145   8.682  10.704
67029W        W33812  33.769   1.498  13.744
67030W        W33813  12.647  11.598   0.942
67031W        W33814  25.114  10.427  10.738
67032W        W33815  44.471  15.738  10.675
67033W        W33816  39.050  40.919   2.597
67034W        W33817   6.352  16.652  10.810
67035W        W33818   3.572  32.102  13.635
67036W        W33819  23.012  44.549   3.602
67037W        W33820   6.794  42.983   2.879
67038W        W33821  17.343  34.351  11.754
67039W        W33822  35.504  44.292   3.108
67040W        W33823   0.546  11.704  12.328
67041W        W33824  37.587  43.089  13.381
67042W        W33825  44.520  44.457   1.389
67043W        W33826  35.489  28.018  14.702
67044W        W33827  17.542  10.804  14.705
67045W        W33828  20.889  37.034   0.765
67046W        W33829  30.797  28.875  13.427
67047W        W33830  24.627   5.925   2.725
67048W        W33831   4.424  32.148  10.591
67049W        W33832  37.535  34.668   1.655
67050W        W33833  26.527  23.016  11.105
67051W        W33834   2.452  32.650   3.011
67052W        W33835  11.324  22.077   2.334
67053W        W33836  35.106  34.627  12.015
67054W        W33837  39.089  42.901  14.294
67055W        W33838  15.913  37.407  12.925
67056W        W33839  19.774  16.220  13.771
67057W        W33840  32.520  35.753   0.409
67058W        W33841   5.660  44.375   1.264
67059W        W33842  27.385  43.738   1.491
67060W        W33843  21.743  36.381  11.210
67061W        W33844  21.571  13.932   0.147
67062W        W33845  44.006  24.041   1.186
67063W        W33846  43.048   1.333  14.839
67064W        W33847  19.768  28.831  13.388
67065W        W33848  10.395  43.992   1.886
67066W        W33849   4.562  10.410   1.937
67067W        W33850   8.688  21.986   4.954
67068W        W33851  39.281  43.774   4.257
67069W        W33852  42.421  25.734   2.808
67070W        W33853  18.174  27.076  10.697
67071W        W33854  23.052  13.694  13.757
67072W        W33855  38.926  44.776  13.555
67073W        W33856  28.461  27.475   3.813
67074W        W33857  40.856  24.693   3.762
67075W        W33858  29.695  23.185   4.466
67076W        W33859  31.205  38.977  11.486
67077W        W33860  36.489  35.762   5.068
67078W        W33861  10.446   7.999   2.325
67079W        W33862  19.500   2.463   3.103
67080W        W33863  38.257  12.833  11.086
67081W        W33864  21.275  15.264   1.996
67082W        W33865  26.978  32.170  12.492
67083W        W33866  31.201   4.179   2.529
67084W        W33867   6.749  15.340  10.633
67085W        W33868  30.117  19.465  13.505
67086W        W33869   4.859  12.709   1.396
67087W        W33870   4.660   9.779   3.130
67088W        W33871   1.726  21.952   0.568
67089W        W33872  24.525  22.943   4.468
67090W        W33873   4.301  28.082  13.851
67091W        W33874  26.515  34.405  11.117
67092W        W33875  38.634  29.567   2.195
67093W        W33876   9.737  13.192  11.177
67094W        W33877   3.792  26.854   3.394
67095W        W33878  29.273  29.798   2.746
67096W        W33879  22.602  25.418   1.259
67097W        W33880  41.977   1.091  11.103
67098W        W33881   3.911  25.620  13.349
67099W        W33882  17.734  17.829  13.476
67100W        W33883  18.823  33.671   4.098
67101W        W33884  30.998   4.490   4.726
67102W        W33885   2.811  24.264  14.872
67103W        W33886  35.035   1.585   4.595
67104W        W33887  44.594  14.850  10.355
67105W        W33888   9.805  11.985  12.481
67106W        W33889   2.970  42.821  12.591
67107W        W33890  16.691  34.836  10.298
67108W        W33891  16.366  28.561   3.306
67109W        W33892  29.812  41.388   3.732
67110W        W33893  36.352  36.044   0.758
67111W        W33894  20.713  17.928  11.375
67112W        W33895  11.658   3.192   1.259
67113W        W33896  33.522  29.013   3.345
67114W        W33897  15.198  31.139   0.719
67115W        W33898   2.440  42.795  14.412
67116W        W33899   6.339  20.418  14.182
67117W        W33900   3.298  11.866   4.784
67118W        W33901  32.170  12.090   0.188
67119W        W33902  10.310  34.538  10.155
67120W        W33903  17.658  42.829   0.591
67121W        W33904  38.064  21.418   3.202
67122W        W33905  35.943  36.384   4.684
67123W        W33906  38.928  15.750  14.722
67124W        W33907  20.756  16.549  13.749
67125W        W33908  22.204   6.509   3.462
67126W        W33909  44.610  12.851  10.365
67127W        W33910  31.927  42.574  13.591
67128W        W33911  12.566  34.632  10.701
67129W        W33912  21.621  40.310  12.610
67130W        W33913  33.532  40.252   3.805
67131W        W33914  17.103  33.061  12.317
67132W        W33915  44.559  20.814  14.296
67133W        W33916  23.271  23.017   4.869
67134W        W33917  30.667   8.217  12.405
67135W        W33918   5.488   0.033   2.301
67136W        W33919  33.009  10.280  10.682
67137W        W33920  37.437  21.494  11.176
67138W        W33921   0.522   7.125   5.103
67139W        W33922  29.576  38.551   2.203
67140W        W33923  14.868  22.662   0.201
67141W        W33924  27.465  22.524  11.103
67142W        W33925  36.924  23.632  12.030
67143W        W33926   2.207   9.209  10.603
67144W        W33927  17.702  34.600   4.895
67145W        W33928  44.346  15.634   2.383
67146W        W33929  34.356  11.813   0.507
67147W        W33930  24.295  22.148   4.763
67148W        W33931  10.312   9.137  14.365
67149W        W33932  23.853  13.338   0.773
67150W        W33933  33.121  37.728  12.360
67151W        W33934  16.641  12.207   3.120
67152W        W33935  22.314  11.796   2.969
67153W        W33936  12.990  21.061  14.548
67154W        W33937   4.879  39.273  14.004
67155W        W33938   0.812  13.109  10.282
67156W        W33939  22.245  10.767   4.664
67157W        W33940  33.121  10.163  11.675
67158W        W33941   3.783  30.943   4.131
67159W        W33942  40.074  33.953  13.112
67160W        W33943  24.231  21.712  14.489
67161W        W33944  43.419  26.513   9.984
67162W        W33945  26.154   5.443  10.002
67163W        W33946  22.503  13.588   0.915
67164W        W33947   2.986  37.233  14.904
67165W        W33948  15.213  31.093   3.843
67166W        W33949  28.395  16.259   1.923
67167W        W33950  27.273  36.902  12.935
67168W        W33951  17.558  31.196   0.490
67169W        W33952  36.903   3.450  14.251
67170W        W33953  33.429  34.985   3.658
67171W        W33954  21.068  30.249   3.351
67172W        W33955  42.420  14.133   0.757
67173W        W33956  29.522   4.806  14.670
67174W        W33957  42.751  17.365  12.864
67175W        W33958  35.289   9.112  13.426
67176W        W33959  18.611  35.308   0.242
67177W        W33960  31.940  11.088  10.713
67178W        W33961  27.997   4.209   3.440
67179W        W33962  36.449  28.330  13.578
67180W        W33963  23.089  24.023  10.334
67181W        W33964  24.772   7.327   3.755
67182W        W33965  32.880   7.356  14.796
67183W        W33966  12.068  12.118   3.262
67184W        W33967  36.970  15.823   0.337
67185W        W33968   8.417   2.369   2.410
67186W        W33969  39.341  33.034   0.803
67187W        W33970  43.826  43.807   4.512
67188W        W33971  43.050  39.328   0.302
67189W        W33972  41.405  24.398   2.227
67190W        W33973  43.831  20.130  14.947
67191W        W33974  29.920  27.220   1.822
67192W        W33975  12.693  15.928  13.868
67193W        W33976  36.420  36.170   2.196
67194W        W33977   9.074  21.614  12.086
67195W        W33978  24.729   1.815   1.315
67196W        W33979  31.613  24.981   3.125
67197W        W33980  28.525  41.989   1.319
67198W        W33981  27.583  25.132   5.021
67199W        W33982  31.585   1.805   0.431
67200W        W33983   2.918   9.912  10.674
67201W        W33984  38.527  17.825   1.974
67202W        W33985  44.705  33.149   1.386
67203W        W33986   4.850  41.785   0.445
67204W        W33987  41.008  23.300  12.053
67205W        W33988  35.914  21.692   1.657
67206W        W33989  20.288   5.871   9.682
67207W        W33990  11.537  26.888   0.328
67208W        W33991  18.602   3.534  14.764
67209W        W33992  35.571  40.979   0.868
67210W        W33993  33.593  32.167  10.047
67211W        W33994   4.352   1.854   2.189
67212W        W33995  11.375   6.876   0.223
67213W        W33996   3.116  29.489   3.672
67214W        W33997  20.179  39.244  12.982
67215W        W33998   5.982  42.243   3.190
67216W        W33999  25.372  16.757   4.169
67217W        W34000  12.302  22.101  12.186
67218W        W34001   2.534  25.521  14.763
67219W        W34002  29.081  39.632   4.033
67220W        W34003  10.164  42.212  14.295
67221W        W34004  35.776  25.204   1.405
67222W        W34005  31.619  41.104   2.223
67223W        W34006   3.917  33.149   2.890
67224W        W34007  38.958   0.285   2.198
67225W        W34008  29.108  21.972  12.509
67226W        W34009  21.797   2.837  13.816
67227W        W34010  35.265  32.124  14.113
67228W        W34011  21.043  31.080  12.078
67229W        W34012  21.743  24.204   3.717
67230W        W34013  29.707  21.524   2.039
67231W        W34014   2.821  38.208   3.298
67232W        W34015   3.340  41.807  13.407
67233W        W34016   9.142  32.064  13.518
67234W        W34017  12.260  17.483   4.636
67235W        W34018  19.540  14.154   1.275
67236W        W34019  22.799  14.735  12.528
67237W        W34020  29.492  16.223   4.376
67238W        W34021  39.308  33.012  13.463
67239W        W34022   0.211  38.424  10.627
67240W        W34023  25.582  31.984  11.806
67241W        W34024  28.682  43.041  12.598
67242W        W34025   1.282   9.239  13.438
67243W        W34026   1.682  36.551  11.496
67244W        W34027  43.103  41.968  11.547
67245W        W34028  38.429  39.779   3.835
67246W        W34029  13.856   6.354   3.802
67247W        W34030  26.127  44.520  11.401
67248W        W34031  32.141  22.268   1.409
67249W        W34032   6.309   2.332   4.484
67250W        W34033   5.285  40.641  12.933
67251W        W34034   6.763  13.028  13.016
67252W        W34035   1.849  39.326   0.356
67253W        W34036   7.759  26.016  14.830
67254W        W34037  17.102  13.869   4.155
67255W        W34038  18.828   6.296  11.408
67256W        W34039  27.200  43.597  10.190
67257W        W34040  39.548  24.450   2.646
67258W        W34041  39.014   1.260   1.182
67259W        W34042  38.590  44.954   0.964
67260W        W34043  23.231  29.579   4.040
67261W        W34044  20.619  31.969   4.619
67262W        W34045  44.867  33.371   2.231
67263W        W34046   2.362  15.747   2.367
67264W        W34047  16.019   7.219   1.282
67265W        W34048  13.278  29.036   4.546
67266W        W34049  25.508  29.919   1.669
67267W        W34050  17.846   5.192   1.897
67268W        W34051   7.752  11.771  11.899
67269W        W34052   1.031   0.943  13.463
67270W        W34053  41.796  24.120   3.174
67271W        W34054  16.305  40.521  12.580
67272W        W34055  11.626   4.048  12.901
67273W        W34056  10.100  15.723  11.118
67274W        W34057   5.484  24.130  12.510
67275W        W34058   2.223  12.580  12.547
67276W        W34059  32.468  15.304  10.730
67277W        W34060  43.514  36.308  11.105
67278W        W34061   6.452  11.224   4.696
67279W        W34062   8.683  15.820   4.578
67280W        W34063  24.741  26.027  11.124
67281W        W34064  27.968  20.136   0.784
67282W        W34065  14.373   6.714  11.310
67283W        W34066  36.062   1.848  11.353
67284W        W34067  19.669  28.945   4.215
67285W        W34068  38.473  40.440   3.315
67286W        W34069  30.637  33.501  14.442
67287W        W34070   9.931  42.978  14.270
67288W        W34071  18.843  33.627  11.982
67289W        W34072  23.523  44.820  10.581
67290W        W34073  22.360  15.999  10.552
67291W        W34074  37.531   6.808   3.416
67292W        W34075  23.564   6.509   4.227
67293W        W34076  44.474   0.974  12.482
67294W        W34077   9.773  13.922   2.687
67295W        W34078  21.252  21.122  13.983
67296W        W34079   5.230   0.570   0.083
67297W        W34080  27.277  35.349  13.776
67298W        W34081  12.200   5.217  13.836
67299W        W34082   6.924  24.794  14.559
67300W        W34083   4.257  16.752   4.501
67301W        W34084  42.640  39.531   3.145
67302W        W34085  10.653  34.476   4.563
67303W        W34086  15.719  13.881   2.791
67304W        W34087   7.128   7.728   0.449
67305W        W34088  44.826  24.650  10.769
67306W        W34089  36.375  31.134   1.702
67307W        W34090  37.949  24.412  11.115
67308W        W34091  22.181  36.355  13.346
67309W        W34092  14.680  32.063   3.168
67310W        W34093  34.014  19.698   2.416
67311W        W34094   1.306  27.344   0.242
67312W        W34095  27.410  20.136  11.140
67313W        W34096   9.845  23.032   4.313
67314W        W34097  30.498  37.969   2.924
67315W        W34098  30.131  33.866   4.390
67316W        W34099   4.675  21.226  10.433
67317W        W34100  11.360  11.352  14.850
67318W        W34101  33.961  39.539   1.717
67319W        W34102  13.298  37.973   3.719
67320W        W34103  34.450   3.374  11.482
67321W        W34104  10.247  24.184   3.188
67322W        W34105  21.376   1.377   2.478
67323W        W34106   9.291  14.272  10.400
67324W        W34107  13.211  35.018  11.547
67325W        W34108  23.364  11.390  13.526
67326W        W34109  39.310  24.219   4.647
67327W        W34110  20.321  20.465  12.374
67328W        W34111   9.567  12.659  12.942
67329W        W34112  24.958  16.770   2.960
67330W        W34113  37.125  42.034  13.572
67331W        W34114   8.903  21.655  14.811
67332W        W34115  32.213  31.499  14.925
67333W        W34116  29.562  31.948   5.021
67334W        W34117  11.366   9.622   4.296
67335W        W34118  20.178   7.291  12.492
67336W        W34119  25.141  14.193   0.286
67337W        W34120  35.189   1.770   4.136
67338W        W34121   8.599  38.805   4.609
67339W        W34122  33.505   3.956  14.467
67340W        W34123  15.807  12.234  12.943
67341W        W34124  33.145  18.550  14.405
67342W        W34125   3.498  34.897  11.960
67343W        W34126  26.094  27.710  11.537
67344W        W34127   8.805  28.092   3.124
67345W        W34128  16.672  25.549  11.216
67346W        W34129   1.718  37.286  14.487
67347W        W34130  40.454  29.873   2.748
67348W        W34131  19.208  22.370  11.668
67349W        W34132  42.841  28.911  11.467
67350W        W34133   8.909  42.433  13.623
67351W        W34134   3.997   4.254  13.802
67352W        W34135  18.713   2.305   2.042
67353W        W34136  23.703  21.639  12.211
67354W        W34137  15.013  23.214  11.124
67355W        W34138   1.975  32.103   3.195
67356W        W34139  20.084   9.282   1.317
67357W        W34140   1.274  44.654   2.168
67358W        W34141  10.469   2.921   0.990
67359W        W34142  17.037  28.818  13.852
67360W        W34143  30.207  12.806   0.201
67361W        W34144  28.160  16.816  12.554
67362W        W34145  18.788  29.528  14.911
67363W        W34146  36.874  37.407  13.758
67364W        W34147  34.151  34.533   1.788
67365W        W34148  36.895   8.215   4.280
67366W        W34149  28.180   0.884   2.373
67367W        W34150  28.720  18.105   1.883
67368W        W34151  27.167  11.833   0.106
67369W        W34152  39.858   1.404  12.446
67370W        W34153  17.253   9.746   4.253
67371W        W34154  31.745  16.395  12.990
67372W        W34155  14.306  24.217   4.171
67373W        W34156  25.223  16.668  10.839
67374W        W34157  16.649  27.997   2.663
67375W        W34158  15.223  25.076   3.599
67376W        W34159  21.111   7.845   4.600
67377W        W34160  30.212  44.339  11.795
67378W        W34161  19.837  31.632   0.319
67379W        W34162   5.854  24.189  14.748
67380W        W34163  43.098   9.076   2.769
67381W        W34164  17.587  21.991  14.037
67382W        W34165   7.941   7.284  13.502
67383W        W34166   6.821  44.328   2.188
67384W        W34167  21.165   3.479  14.264
67385W        W34168  43.498  29.973   3.145
67386W        W34169  20.330  19.145  13.921
67387W        W34170  21.865  26.955   1.304
67388W        W34171  36.465  17.150  14.081
67389W        W34172   2.819   2.532   1.870
67390W        W34173   0.336  43.010  11.316
67391W        W34174  24.448  11.265  14.691
67392W        W34175  43.703  28.928  13.270
67393W        W34176  15.157  31.418  12.926
67394W        W34177  29.492   9.713  13.357
67395W        W34178  37.085  27.948  13.487
67396W        W34179  19.175  19.278  10.373
67397W        W34180  11.769  33.187  10.498
67398W        W34181  15.824  36.878   0.333
67399W        W34182  15.632  27.644   4.679
67400W        W34183  35.320  22.116   0.964
67401W        W34184  30.150   3.044  13.527
67402W        W34185  26.459  23.138   3.183
67403W        W34186  42.087  17.188  13.526
67404W        W34187  10.638  40.343  11.622
67405W        W34188  27.188   7.731   2.704
67406W        W34189  30.456  41.810   1.063
67407W        W34190  13.349  25.998  12.366
67408W        W34191  37.335  42.949  11.639
67409W        W34192  21.517  41.592  14.395
67410W        W34193  24.122  22.253  12.410
67411W        W34194   2.370   2.773  13.499
67412W        W34195  15.158  26.245   1.557
67413W        W34196  17.608  12.412  11.238
67414W        W34197  30.469  21.540   2.906
67415W        W34198  32.634  17.916   0.384
67416W        W34199  20.129  40.557   3.672
67417W        W34200  14.317  33.025  14.038
67418W        W34201  33.223   8.247   4.985
67419W        W34202  44.673   7.369   9.931
67420W        W34203  40.410   8.853  11.354
67421W        W34204  10.510  23.239  13.381
67422W        W34205  18.178   1.796  13.478
67423W        W34206  37.914  31.716   4.069
67424W        W34207  40.025  40.233   4.293
67425W        W34208  19.750  26.119  11.155
67426W        W34209  14.158   7.657  11.391
67427W        W34210  23.220   0.706   1.377
67428W        W34211  44.495  12.750  13.617
67429W        W34212   1.907   1.922   1.256
67430W        W34213  40.345   3.831   1.384
67431W        W34214  24.276  32.340  14.833
67432W        W34215   2.340  36.658   1.156
67433W        W34216  42.391  27.206  13.781
67434W        W34217   6.227   4.702  12.615
67435W        W34218  44.441  21.090  14.929
67436W        W34219  32.571   5.306   2.194
67437W        W34220   0.258  36.773  14.048
67438W        W34221  34.056  35.423  13.311
67439W        W34222  19.223  37.586   0.216
67440W        W34223   3.944  25.272  14.936
67441W        W34224  43.025  42.540  12.486
67442W        W34225  30.845   4.440  11.001
67443W        W34226  43.903  34.586  14.447
67444W        W34227  18.578   9.839  12.133
67445W        W34228   4.207   3.403   4.718
67446W        W34229  40.619  17.143  13.470
67447W        W34230   6.288   5.352   4.868
67448W        W34231  44.895   3.181  11.377
67449W        W34232  28.322   2.149  11.566
67450W        W34233  23.124  26.179   1.355
67451W        W34234  39.810  36.503  14.605
67452W        W34235  33.600  11.605   4.218
67453W        W34236   0.380  17.598  12.402
67454W        W34237  29.919  11.991  12.992
67455W        W34238  19.541  22.227   0.509
67456W        W34239  24.518  24.012  13.898
67457W        W34240  37.440  28.593   2.708
67458W        W34241  35.198  36.037   2.138
67459W        W34242  13.370  44.856   3.607
67460W        W34243  33.322   9.674  11.678
67461W        W34244  12.102  31.477  13.291
67462W        W34245   0.839   7.214   1.224
67463W        W34246  28.803  34.511  14.558
67464W        W34247  34.664  21.223  11.862
67465W        W34248  37.975  38.535  10.517
67466W        W34249  31.934  22.105  14.330
67467W        W34250  21.685  16.424   1.487
67468W        W34251  26.521  28.756   2.628
67469W        W34252  41.897   2.776  10.751
67470W        W34253  40.998  21.695  14.255
67471W        W34254  18.074  33.036  12.409
67472W        W34255  37.091  29.451   3.306
67473W        W34256  13.212  30.114   1.881
67474W        W34257  35.470   2.157  11.230
67475W        W34258  14.615  27.258   3.289
67476W        W34259  17.925  39.588   2.363
67477W        W34260  35.163  36.143  14.955
67478W        W34261   7.261  17.035  12.906
67479W        W34262  30.155   1.036  12.703
67480W        W34263  25.010   9.802  13.564
67481W        W34264  40.395  12.731  10.580
67482W        W34265  40.773   9.267   4.161
67483W        W34266  39.697   0.317  14.232
67484W        W34267  16.278  17.604  14.106
67485W        W34268  36.121  12.864  12.574
67486W        W34269  14.787  16.840  13.092
67487W        W34270  15.500  18.263  11.131
67488W        W34271  21.441  24.280   9.843
67489W        W34272  30.133  24.924   4.476
67490W        W34273  11.629  21.577  12.053
67491W        W34274  27.095  43.937  12.851
67492W        W34275  29.722  15.536   4.899
67493W        W34276  14.384  39.581  12.089
67494W        W34277  22.773  10.028  13.328
67495W        W34278  36.236  40.353   2.723
67496W        W34279  25.094  12.848  12.473
67497W        W34280  23.395  42.320   4.035
67498W        W34281  34.085   0.486  14.119
67499W        W34282  35.943  24.051   4.664
67500W        W34283  13.226  42.474   0.701
67501W        W34284  35.104  12.162  14.124
67502W        W34285   7.447   7.724   1.520
67503W        W34286  10.824  34.117   0.020
67504W        W34287  30.203  43.814   0.215
67505W        W34288  27.576  10.142   1.979
67506W        W34289   7.827  31.329   3.253
67507W        W34290  27.536  24.169   1.008
67508W        W34291  14.420  33.111  12.939
67509W        W34292  23.438  43.734   2.120
67510W        W34293  32.209   9.747   1.440
67511W        W34294  13.561  21.784   0.732
67512W        W34295  11.200  17.968  12.117
67513W        W34296  26.191  20.755  11.059
67514W        W34297  22.252  21.405  14.288
67515W        W34298  30.376   1.393  14.527
67516W        W34299  27.051  34.970   1.251
67517W        W34300  20.618  11.761   4.576
67518W        W34301  10.078   9.595  14.505
67519W        W34302   4.340  26.185   4.804
67520W        W34303  35.003  42.478  12.412
67521W        W34304   2.245   5.397   4.224
67522W        W34305  21.119  43.029  12.454
67523W        W34306  16.479   1.362  11.011
67524W        W34307  36.334  14.044  10.623
67525W        W34308  34.263  15.665   4.097
67526W        W34309  30.865  42.807   1.827
67527W        W34310   4.286  21.541   0.515
67528W        W34311  27.298  40.692  12.531
67529W        W34312  31.572  31.225   1.692
67530W        W34313  14.255  39.452   4.099
67531W        W34314  24.251  28.569   4.270
67532W        W34315   6.674   9.190   4.194
67533W        W34316  10.616  38.932   0.955
67534W        W34317  23.909  37.293  13.966
67535W        W34318  37.476  44.996   4.234
67536W        W34319  42.539   0.699   1.849
67537W        W34320  28.588  24.400   0.762
67538W        W34321  29.015  19.565   2.733
67539W        W34322  26.106  32.409   2.614
67540W        W34323  42.573  26.281   0.246
67541W        W34324  41.928   3.737  13.475
67542W        W34325   9.081  29.543   9.805
67543W        W34326  27.720   8.356   1.170
67544W        W34327  18.195  22.016   4.081
67545W        W34328  35.320  34.011   1.704
67546W        W34329  36.921  13.785  12.862
67547W        W34330  22.630  40.231  11.394
67548W        W34331   3.329  26.150   0.733
67549W        W34332  32.207  26.568   3.288
67550W        W34333  13.678   3.587  10.759
67551W        W34334   3.659   6.648  10.502
67552W        W34335  26.528  35.912   1.740
67553W        W34336  22.654  21.309  10.946
67554W        W34337  30.742   2.638  11.980
67555W        W34338  35.379  39.446   4.534
67556W        W34339  15.554   2.928  11.887
67557W        W34340   6.378  12.418   2.453
67558W        W34341  42.531  42.362   0.830
67559W        W34342  19.176  22.834  11.457
67560W        W34343  18.632  16.429   5.468
67561W        W34344  27.611  30.610   0.835
67562W        W34345   0.039   7.846   2.521
67563W        W34346  29.931  27.704  12.061
67564W        W34347  22.102  12.649   2.823
67565W        W34348   6.876   8.904   1.323
67566W        W34349   5.027  32.044   1.759
67567W        W34350  24.109  13.157  12.413
67568W        W34351  17.038   4.394  13.503
67569W        W34352   2.925  14.631  11.162
67570W        W34353  39.568  13.833  13.970
67571W        W34354  11.824  31.512   4.934
67572W        W34355  13.050   2.536   2.348
67573W        W34356  14.634  15.666  12.922
67574W        W34357  37.530  21.316   2.235
67575W        W34358  29.888   6.636   4.103
67576W        W34359  44.776  25.715  11.713
67577W        W34360  25.082   4.964  11.557
67578W        W34361   2.867   8.403   3.694
67579W        W34362   5.661  27.194  13.897
67580W        W34363   5.329  28.079   4.771
67581W        W34364  38.408  29.327  13.605
67582W        W34365  42.005  27.733  11.573
67583W        W34366  27.776  33.029  13.461
67584W        W34367  27.248  28.988   1.785
67585W        W34368  12.562  35.799   4.887
67586W        W34369  22.549  15.580   0.992
67587W        W34370  21.421   1.835  11.360
67588W        W34371  30.608  28.463   0.044
67589W        W34372   6.124  27.601  11.142
67590W        W34373  39.987   7.573   1.326
67591W        W34374   1.849  36.723   4.094
67592W        W34375  41.983   5.187   3.201
67593W        W34376  10.079  30.067   4.136
67594W        W34377   6.194  16.207  10.597
67595W        W34378  18.470  34.862   2.670
67596W        W34379  12.301  30.062   2.461
67597W        W34380  37.795  19.061   2.803
67598W        W34381  39.291   8.276   0.347
67599W        W34382  22.231  40.425  11.631
67600W        W34383  12.775  34.861  12.436
67601W        W34384  32.031   1.128  13.410
67602W        W34385   0.046  11.116   2.341
67603W        W34386  22.545  23.951   2.592
67604W        W34387   9.148   8.091  14.514
67605W        W34388  27.441  27.302   3.609
67606W        W34389  41.373  27.090   4.604
67607W        W34390  42.927  38.300   1.133
67608W        W34391  12.765  35.503  12.002
67609W        W34392  44.405  30.878   2.475
67610W        W34393  23.558  23.340  10.745
67611W        W34394  36.991   1.867   3.262
67612W        W34395   1.011  37.506  12.897
67613W        W34396  19.067  39.742  10.628
67614W        W34397  35.779  25.978   0.945
67615W        W34398  40.782   6.661  14.782
67616W        W34399  43.070  29.421  14.413
67617W        W34400  18.430  42.334   4.992
67618W        W34401   3.804  30.740   2.496
67619W        W34402  38.946   3.245   3.351
67620W        W34403  26.433  37.540  10.832
67621W        W34404  25.216  26.029   0.413
67622W        W34405  21.889  28.612   4.761
67623W        W34406   2.812   9.618  11.530
67624W        W34407  17.290  27.458   2.305
67625W        W34408   3.416  26.867  14.343
67626W        W34409  43.438  24.778   3.250
67627W        W34410  29.301   6.239  13.937
67628W        W34411  32.434  24.897   0.952
67629W        W34412  21.509  41.216  14.029
67630W        W34413  38.508  21.728   1.256
67631W        W34414  40.516  33.349   0.311
67632W        W34415   0.447  43.896   3.534
67633W        W34416  29.409   5.670  14.052
67634W        W34417  32.042  40.731  13.900
67635W        W34418  29.916   2.824  12.948
67636W        W34419  18.541  40.312  12.396
67637W        W34420  43.494   5.749  12.832
67638W        W34421  33.229  20.829   0.721
67639W        W34422  14.668   6.669   4.812
67640W        W34423   2.841  24.256  12.514
67641W        W34424  23.092  36.233   2.420
67642W        W34425  11.904  28.424  12.883
67643W        W34426  40.979   5.347   1.407
67644W        W34427   1.958  31.935  11.701
67645W        W34428  30.573  22.186  13.367
67646W        W34429  21.745  19.921   4.630
67647W        W34430  13.550  22.125   3.758
67648W        W34431  42.350  21.643  12.394
67649W        W34432  32.075  19.131  11.373
67650W        W34433  43.784  33.333   2.733
67651W        W34434  14.856  28.113   4.090
67652W        W34435  26.478   2.546   4.146
67653W        W34436   6.741   9.654   0.346
67654W        W34437  20.478  18.057  13.042
67655W        W34438   7.101  15.950   1.797
67656W        W34439  26.220  42.973   4.182
67657W        W34440   6.395  37.605   2.867
67658W        W34441  28.103  22.445  13.838
67659W        W34442   6.937  26.276  12.020
67660W        W34443   6.249  39.716   3.151
67661W        W34444  14.795  20.245  10.964
67662W        W34445   3.213  41.051  13.782
67663W        W34446  17.138  44.211  11.408
67664W        W34447  21.901  15.140   0.399
67665W        W34448  15.768  27.933  10.158
67666W        W34449   5.789  28.487   1.882
67667W        W34450  11.911  36.049   2.916
67668W        W34451  30.382   7.155   4.573
67669W        W34452  17.213   2.477   0.359
67670W        W34453   6.471  24.894   0.783
67671W        W34454  26.189  39.838  14.473
67672W        W34455  23.594  16.773   4.693
67673W        W34456  16.888   0.479   3.925
67674W        W34457  41.754  44.404   2.701
67675W        W34458  18.708  20.608  13.446
67676W        W34459  40.404  13.594   0.315
67677W        W34460  10.226  37.840   3.169
67678W        W34461  36.480   5.104  10.669
67679W        W34462  14.738  20.570   2.841
67680W        W34463  29.616  23.707   3.599
67681W        W34464  31.889  15.565   0.687
67682W        W34465  38.428   6.225  13.953
67683W        W34466  15.527  27.815   0.064
67684W        W34467  42.879  40.784  14.485
67685W        W34468  35.437  23.618   1.407
67686W        W34469  10.861  43.829   0.856
67687W        W34470  18.474  20.892  11.989
67688W        W34471  10.276  26.257   4.218
67689W        W34472  14.896   1.247  12.033
67690W        W34473  26.723   6.690  11.177
67691W        W34474   3.252  42.437  14.859
67692W        W34475  20.746   9.239  14.957
67693W        W34476  31.870  22.075  11.231
67694W        W34477  28.932  19.212  14.370
67695W        W34478  25.503  34.332   4.535
67696W        W34479   9.627  16.499   4.065
67697W        W34480  14.560  14.802   1.407
67698W        W34481  36.546  33.875  13.532
67699W        W34482  20.731  31.544   3.807
67700W        W34483   2.230  26.457  14.916
67701W        W34484  34.821   6.631   0.026
67702W        W34485  25.502  38.864   9.800
67703W        W34486   2.470  35.490  12.502
67704W        W34487  32.020  20.679   2.814
67705W        W34488  35.685  17.731  12.612
67706W        W34489  22.009   0.926   0.028
67707W        W34490  18.282  30.546  13.022
67708W        W34491  38.454  18.613   0.485
67709W        W34492  40.504  30.011   1.168
67710W        W34493  10.788   2.707  10.606
67711W        W34494  36.103  40.771   1.771
67712W        W34495  36.654   7.179   3.562
67713W        W34496   7.093   5.908   3.928
67714W        W34497   5.421  44.033   2.321
67715W        W34498  28.785  25.591  14.058
67716W        W34499  14.623  38.820   4.575
67717W        W34500   3.493   3.493  11.127
67718W        W34501  39.989   9.389   2.257
67719W        W34502  37.249  13.062  11.041
67720W        W34503  29.451  39.339  12.777
67721W        W34504  42.768   1.905  11.101
67722W        W34505  34.246  26.083   1.460
67723W        W34506  24.149  16.925  12.463
67724W        W34507  29.403  20.332   4.893
67725W        W34508  18.092  42.346   3.272
67726W        W34509   8.959  16.482  11.514
67727W        W34510   9.321  40.946  12.579
67728W        W34511  41.808  40.001  14.431
67729W        W34512  40.580  27.429   2.396
67730W        W34513  34.518   1.442  12.538
67731W        W34514   5.566   8.705   2.692
67732W        W34515  27.566  29.133   0.984
67733W        W34516   9.431  42.849  14.343
67734W        W34517  44.548  24.828   1.617
67735W        W34518  32.531  26.535  13.323
67736W        W34519  28.161  21.526   2.228
67737W        W34520  37.797   0.330   0.359
67738W        W34521  12.175  29.171   0.308
67739W        W34522  43.748  43.367   0.886
67740W        W34523  11.061  23.577   3.365
67741W        W34524   3.973  13.848  11.998
67742W        W34525  41.334  18.194   1.687
67743W        W34526  41.325  25.770  14.441
67744W        W34527  32.027  14.699  12.943
67745W        W34528  18.933  30.843  11.560
67746W        W34529  38.576  11.722  14.511
67747W        W34530  30.640  42.964   1.237
67748W        W34531  30.996  28.533  11.950
67749W        W34532  34.878  16.804  11.113
67750W        W34533   8.847  24.885  11.738
67751W        W34534  42.904  40.800   2.185
67752W        W34535  14.515  37.138   2.431
67753W        W34536  14.773  43.029   4.299
67754W        W34537  31.965   0.006   0.710
67755W        W34538   4.144   2.441  12.092
67756W        W34539  13.519  37.059   1.446
67757W        W34540  38.154  20.065  13.292
67758W        W34541  26.404  30.406  11.627
67759W        W34542  16.241  20.660  12.812
67760W        W34543  16.594   3.414  12.491
67761W        W34544  25.647  29.587   0.705
67762W        W34545  30.113  34.168  13.482
67763W        W34546  41.275  42.112  12.789
67764W        W34547  35.521  12.345   0.428
67765W        W34548  43.705  29.610   1.833
67766W        W34549  23.262   6.824  14.387
67767W        W34550  18.064  18.069   4.169
67768W        W34551  44.350  43.792  10.497
67769W        W34552  43.144  41.311   9.909
67770W        W34553  44.434  26.970   3.870
67771W        W34554   7.733  40.447  14.760
67772W        W34555  23.135  17.827   1.449
67773W        W34556  40.419  43.807  11.006
67774W        W34557  18.851  34.471  13.357
67775W        W34558  22.967   1.695   2.764
67776W        W34559  23.077  30.083   4.144
67777W        W34560  38.858  42.081   3.707
67778W        W34561  32.567   0.938  11.238
67779W        W34562  12.317  15.152  11.090
67780W        W34563   8.610  30.173  13.947
67781W        W34564  15.464  19.752  13.852
67782W        W34565  43.841  22.763  11.584
67783W        W34566  29.372  43.323   4.178
67784W        W34567  28.981   9.157  11.937
67785W        W34568  25.602  41.516   3.352
67786W        W34569  29.513  28.930   4.023
67787W        W34570  32.651   2.853   4.518
67788W        W34571  37.490  19.830   5.146
67789W        W34572  22.117  42.092  13.796
67790W        W34573   7.172  17.350   3.196
67791W        W34574   9.641  30.700  14.471
67792W        W34575  31.896  16.046   3.596
67793W        W34576  36.539  14.115  11.988
67794W        W34577  35.593  29.550  11.898
67795W        W34578   5.824  11.661   2.422
67796W        W34579  38.385  35.350   3.658
67797W        W34580  36.555   3.344  11.693
67798W        W34581  38.109  12.638  13.848
67799W        W34582  21.510   4.371  13.590
67800W        W34583  16.881  33.468  10.138
67801W        W34584  28.651  37.401   1.320
67802W        W34585  35.036  36.197  10.293
67803W        W34586  10.294  37.297   4.477
67804W        W34587   7.845  34.058   4.476
67805W        W34588   1.848  29.490   0.008
67806W        W34589  31.059  15.933   2.907
67807W        W34590  27.219  35.526  10.696
67808W        W34591   7.339  38.911  11.568
67809W        W34592  14.333  12.113   1.999
67810W        W34593  42.496  25.023  11.943
67811W        W34594   7.325   6.706  14.446
67812W        W34595   9.642  14.677   2.817
67813W        W34596   2.334  24.530   3.161
67814W        W34597  27.835  38.156  12.410
67815W        W34598  10.651   8.116  14.997
67816W        W34599  26.698  35.212   2.245
67817W        W34600  10.228  38.321  13.227
67818W        W34601   3.342  29.452   2.617
67819W        W34602  33.020  36.884  13.457
67820W        W34603  28.613  42.057   0.395
67821W        W34604  30.513  37.983  13.047
67822W        W34605  25.613  10.563  12.506
67823W        W34606  15.363  12.777   3.702
67824W        W34607  36.671  14.114   2.655
67825W        W34608  33.239  23.364  11.997
67826W        W34609   4.359   8.419  11.254
67827W        W34610  11.757  33.729   1.429
67828W        W34611  42.374   0.680   5.044
67829W        W34612  29.100  22.696   1.328
67830W        W34613  34.802  29.212  12.033
67831W        W34614  41.547  12.812   0.264
67832W        W34615  14.067   3.567  12.857
67833W        W34616  25.301  28.525  14.426
67834W        W34617  40.392  12.635  13.368
67835W        W34618  17.963  30.074  14.707
67836W        W34619  40.415  37.772   1.922
67837W        W34620  11.212  41.197  12.814
67838W        W34621  42.791  20.361  12.827
67839W        W34622  20.057   0.647  12.361
67840W        W34623  36.430  27.163   0.477
67841W        W34624  23.731  13.393   3.666
67842W        W34625  20.048   7.619  14.922
67843W        W34626   4.263  37.421  12.425
67844W        W34627   7.869   3.004   0.791
67845W        W34628  38.596  11.254   0.798
67846W        W34629   2.865  23.169   3.349
67847W        W34630  17.038  17.014   3.110
67848W        W34631   9.085  40.888  14.082
67849W        W34632  30.242  20.797  13.489
67850W        W34633  22.979  40.123  14.337
67851W        W34634  11.096  39.973  14.175
67852W        W34635   3.159   0.198  14.523
67853W        W34636  36.842  38.289   2.396
67854W        W34637   6.022   1.460  13.314
67855W        W34638   4.767  30.890   2.206
67856W        W34639  17.227  39.107  13.768
67857W        W34640  29.417  11.831  12.877
67858W        W34641  17.636  10.472   4.270
67859W        W34642   6.442  33.250  13.806
67860W        W34643  39.028  33.675  14.461
67861W        W34644  30.195  14.189   4.528
67862W        W34645  31.965  11.242  11.679
67863W        W34646  33.336   3.477  12.481
67864W        W34647  31.162  42.812  11.177
67865W        W34648  34.524  16.787  11.934
67866W        W34649  37.051  23.311  14.876
67867W        W34650  28.298  12.371   4.101
67868W        W34651  22.083  27.933  14.652
67869W        W34652  35.395   9.503   0.453
67870W        W34653  43.958  41.076  12.185
67871W        W34654   4.877  29.714  13.417
67872W        W34655  16.566   1.048   2.537
67873W        W34656  26.625  35.316   4.551
67874W        W34657   3.448  10.480  14.304
67875W        W34658  21.168  29.426   0.936
67876W        W34659  34.406  24.050   2.718
67877W        W34660  24.200  43.911   2.784
67878W        W34661  24.468  20.689   4.530
67879W        W34662  42.767  43.329   1.852
67880W        W34663  30.656  20.838   0.449
67881W        W34664   3.434   1.477   4.352
67882W        W34665   4.443  40.281  13.400
67883W        W34666  39.502  11.243  11.108
67884W        W34667  43.309  24.569  10.698
67885W        W34668  44.990  11.349   1.874
67886W        W34669  34.224  14.721  12.488
67887W        W34670   4.769  38.445  10.754
67888W        W34671  40.802   4.761   0.768
67889W        W34672  34.358   4.815  14.655
67890W        W34673   8.813  44.068   4.592
67891W        W34674   7.988  30.577   1.206
67892W        W34675   1.470  22.543  12.981
67893W        W34676  27.105  21.272  11.009
67894W        W34677  21.196  11.622   4.313
67895W        W34678  12.090  42.336   0.095
67896W        W34679  42.765   0.253   1.723
67897W        W34680  39.097  27.820   1.557
67898W        W34681  32.803  44.862  14.545
67899W        W34682   2.491  40.527   3.771
67900W        W34683  14.356   4.856   2.727
67901W        W34684   6.166   9.888  14.455
67902W        W34685   0.461  17.339   3.123
67903W        W34686  12.910  21.570   1.167
67904W        W34687   3.349  41.889   3.193
67905W        W34688  43.866  26.124  10.560
67906W        W34689  41.725  25.877   1.732
67907W        W34690  43.708   4.772  11.931
67908W        W34691  36.046  26.228   3.793
67909W        W34692  42.400  21.474  14.260
67910W        W34693  16.467  29.667  13.067
67911W        W34694  10.398  13.068  13.768
67912W        W34695  15.263  18.397   0.748
67913W        W34696  39.165  13.862  12.193
67914W        W34697  18.232  33.651  14.620
67915W        W34698  11.314  22.643  11.199
67916W        W34699  29.601  26.642   0.756
67917W        W34700  19.109   1.879   2.723
67918W        W34701  36.404  36.728  13.965
67919W        W34702  38.513  11.101  10.230
67920W        W34703  13.217  34.988   1.864
67921W        W34704  36.993  32.536   2.891
67922W        W34705   4.588  21.152   2.329
67923W        W34706  17.792  39.092  14.365
67924W        W34707  13.309  40.784   2.881
67925W        W34708  16.896   7.390  10.866
67926W        W34709  32.847  10.618  12.603
67927W        W34710  22.912  16.538   1.001
67928W        W34711   7.893  39.388   1.354
67929W        W34712  11.139   3.498  12.628
67930W        W34713  33.973  41.415  11.570
67931W        W34714  13.680   2.472   2.999
67932W        W34715  17.850  32.036   2.833
67933W        W34716  37.465  33.807   0.827
67934W        W34717   2.063  11.220   3.647
67935W        W34718  33.656  27.151  10.711
67936W        W34719  43.440  12.294   1.439
67937W        W34720  35.813  11.421   4.261
67938W        W34721  27.128  32.530  11.576
67939W        W34722  37.127  37.422  10.771
67940W        W34723   1.729   6.426  13.236
67941W        W34724   4.411  33.176  11.544
67942W        W34725   9.207  16.765   4.324
67943W        W34726   5.687  41.091   2.232
67944W        W34727  24.551   1.538  14.120
67945W        W34728  33.806   2.274   0.426
67946W        W34729  18.196   4.189  10.721
67947W        W34730  20.168  28.220   0.818
67948W        W34731  37.042  41.017   0.359
67949W        W34732  22.289  19.036  11.179
67950W        W34733   9.712   4.788  12.200
67951W        W34734  12.749  10.343  13.742
67952W        W34735  39.946  24.778   1.907
67953W        W34736  35.794   7.224  14.867
67954W        W34737   1.543  33.608   2.980
67955W        W34738  19.572  19.640  11.928
67956W        W34739  25.578  13.881   1.390
67957W        W34740  14.804  38.935   0.070
67958W        W34741  10.842   6.844  14.312
67959W        W34742  42.900  37.402   1.024
67960W        W34743  28.445  40.868  10.277
67961W        W34744   0.038   1.982   2.722
67962W        W34745   3.100   5.377  12.434
67963W        W34746  35.842  17.245   3.721
67964W        W34747  21.715  33.010  14.913
67965W        W34748  33.394   0.377  13.530
67966W        W34749  17.066  18.649   2.657
67967W        W34750  26.221  31.717  13.734
67968W        W34751  35.494  24.311   4.811
67969W        W34752  41.615  10.516  14.982
67970W        W34753  24.016  15.398  10.960
67971W        W34754  42.598  25.045  10.165
67972W        W34755   1.921  25.052   0.776
67973W        W34756   3.873   0.314   2.629
67974W        W34757  39.137   0.523   4.301
67975W        W34758  38.968  34.886   3.614
67976W        W34759   4.279  38.536  10.827
67977W        W34760  24.101  18.493   3.780
67978W        W34761  14.781  12.268  10.702
67979W        W34762  36.666  12.669  14.997
67980W        W34763  40.067  14.245  12.145
67981W        W34764  44.967  24.104   0.888
67982W        W34765  28.964   3.353   0.344
67983W        W34766  12.713  24.163   0.608
67984W        W34767  44.597  13.167   5.108
67985W        W34768  42.968   6.604  14.456
67986W        W34769  15.295  17.123   4.854
67987W        W34770  41.318  32.500  11.589
67988W        W34771  35.886  32.404   4.506
67989W        W34772  22.287  28.063  13.238
67990W        W34773  41.226  24.241   0.386
67991W        W34774  19.675  36.484  11.985
67992W        W34775  12.697   2.020  10.969
67993W        W34776  15.275   3.818  11.606
67994W        W34777  33.688   5.890  10.894
67995W        W34778   2.997   0.945  13.020
67996W        W34779  24.878  13.410   0.322
67997W        W34780  36.910  43.869   4.601
67998W        W34781  26.578  19.777  14.521
67999W        W34782  23.992  21.199  13.180
68000W        W34783  30.447  26.299  12.391
68001W        W34784  34.409   9.167   3.725
68002W        W34785  25.898  37.699   4.268
68003W        W34786  16.883  41.491   0.910
68004W        W34787   0.860  18.670   3.638
68005W        W34788   5.237   9.286  14.107
68006W        W34789  31.600  26.465  14.983
68007W        W34790  43.756  31.143  12.079
68008W        W34791  43.455  25.163   5.154
68009W        W34792  18.549  13.294   0.885
68010W        W34793  33.617  39.866   4.174
68011W        W34794  20.047  36.780   3.024
68012W        W34795   3.678  36.773   1.764
68013W        W34796  38.074  17.087   4.427
68014W        W34797   9.347  21.065   1.779
68015W        W34798  16.226  21.960  10.311
68016W        W34799  23.736  15.764   4.218
68017W        W34800   5.383   6.912   2.672
68018W        W34801  36.499  27.424   4.445
68019W        W34802  21.620  18.740   0.791
68020W        W34803  13.979  20.437  10.973
68021W        W34804  43.768  31.565  12.941
68022W        W34805   8.334  10.711   2.649
68023W        W34806  25.710  29.611  13.418
68024W        W34807  18.927  28.952  14.349
68025W        W34808  14.310  14.188  10.634
68026W        W34809  17.301  18.475   0.606
68027W        W34810  35.148  44.805   1.335
68028W        W34811   8.744   6.425   3.492
68029W        W34812   1.262  28.489  11.153
68030W        W34813  26.421  38.886  11.167
68031W        W34814  40.543  31.831   1.247
68032W        W34815  14.062  37.828   2.042
68033W        W34816  20.257  13.809   2.817
68034W        W34817  25.577  18.301   4.645
68035W        W34818  16.804  41.685   1.383
68036W        W34819  17.612  38.710   3.613
68037W        W34820  20.743  36.889   0.250
68038W        W34821   6.791  44.375   4.138
68039W        W34822  32.349  36.936  11.602
68040W        W34823  31.492  20.967  12.986
68041W        W34824  29.610  21.990  11.995
68042W        W34825  19.513   4.436   3.372
68043W        W34826  33.340  28.405  12.140
68044W        W34827   6.391  43.040  12.115
68045W        W34828   6.915   1.626   0.674
68046W        W34829   3.109  26.969   2.696
68047W        W34830   2.708   4.881   4.204
68048W        W34831  43.743  41.168   4.276
68049W        W34832  26.956  42.000   1.328
68050W        W34833  28.374  40.509  12.630
68051W        W34834  37.054  10.776  14.360
68052W        W34835   4.838  27.835  13.131
68053W        W34836  16.522   2.213  10.648
68054W        W34837   3.290  25.730   4.673
68055W        W34838  19.641  11.304   3.611
68056W        W34839  42.397   9.078   2.910
68057W        W34840   6.712   0.236   1.139
68058W        W34841  16.621  29.972   3.556
68059W        W34842  30.356  10.823   1.239
68060W        W34843  25.535   9.454   0.475
68061W        W34844  21.123  19.449  12.935
68062W        W34845   6.330  44.943   0.921
68063W        W34846  15.089  26.230  11.649
68064W        W34847  36.629  13.018  12.524
68065W        W34848   0.821  30.393  12.972
68066W        W34849  44.876  14.566   5.382
68067W        W34850  16.454  18.977  14.252
68068W        W34851  42.367  37.303   4.929
68069W        W34852  29.398  27.063  10.429
68070W        W34853  12.412  27.054   3.289
68071W        W34854  25.558  19.308   4.334
68072W        W34855  14.081   9.486  11.561
68073W        W34856  14.332  10.738   0.392
68074W        W34857  35.539  38.063  12.585
68075W        W34858  25.680  11.682  13.261
68076W        W34859  13.293  40.518  13.032
68077W        W34860  18.322   2.206  14.061
68078W        W34861  10.453  27.622   0.708
68079W        W34862   0.072  28.128  11.011
68080W        W34863  17.585  41.229   1.862
68081W        W34864  41.948  38.879   2.293
68082W        W34865  10.594  21.718   3.238
68083W        W34866  16.847  23.124  14.261
68084W        W34867  12.028  37.495   4.365
68085W        W34868  21.706  14.156   2.134
68086W        W34869  10.923  43.298  12.936
68087W        W34870  17.517  36.650  11.951
68088W        W34871  29.220  27.176  11.109
68089W        W34872  20.905  13.771  11.175
68090W        W34873   1.248  36.094   2.554
68091W        W34874  15.158  17.770   0.066
68092W        W34875  36.312  32.653  13.016
68093W        W34876  26.630  12.093   2.400
68094W        W34877  30.324  39.220   5.004
68095W        W34878  20.285  22.381  13.473
68096W        W34879  10.164  35.743  10.592
68097W        W34880  24.105  20.493   3.576
68098W        W34881  13.755  31.912  11.878
68099W        W34882  29.954  10.731  12.950
68100W        W34883   0.356  31.777   2.912
68101W        W34884  43.277  12.946   2.827
68102W        W34885  17.349  21.890  14.492
68103W        W34886  19.450   4.995  10.241
68104W        W34887  14.412  30.137  14.011
68105W        W34888  34.055  36.809   2.194
68106W        W34889  34.059  20.189  12.873
68107W        W34890  32.927   3.414   2.022
68108W        W34891   2.785  31.998  11.206
68109W        W34892  12.585  20.531   2.771
68110W        W34893   3.885  30.191  14.456
68111W        W34894   2.544  31.127  14.807
68112W        W34895   6.965  17.877  14.493
68113W        W34896   3.244  19.320   4.166
68114W        W34897  36.434  12.421   3.170
68115W        W34898  25.572   9.802   0.876
68116W        W34899   1.034  21.853  13.810
68117W        W34900  38.839  18.342  14.905
68118W        W34901  10.791  31.374  11.119
68119W        W34902  17.012  33.311   2.146
68120W        W34903  25.254   8.655   1.774
68121W        W34904   3.239  36.535  12.470
68122W        W34905   8.304  35.052   1.603
68123W        W34906  28.593  19.368  13.996
68124W        W34907  39.272  36.535   0.505
68125W        W34908   9.191   6.363   1.870
68126W        W34909  43.982  16.233   2.762
68127W        W34910  24.260  25.762  12.488
68128W        W34911  32.557  42.042  12.499
68129W        W34912  14.216  25.653  11.137
68130W        W34913   6.773  27.541   0.294
68131W        W34914  28.221  15.676   0.404
68132W        W34915  28.921  14.161  13.217
68133W        W34916  39.052  44.171  11.098
68134W        W34917  30.935  34.200   1.789
68135W        W34918  14.474   7.932  13.158
68136W        W34919  43.398  14.971   3.634
68137W        W34920  19.881  22.476  11.633
68138W        W34921  18.737  19.842   4.201
68139W        W34922   6.733   5.177   3.636
68140W        W34923  12.802  30.202   0.819
68141W        W34924  31.479  13.823   4.755
68142W        W34925  34.556  19.073   0.068
68143W        W34926  38.850  35.507   3.394
68144W        W34927  19.024  38.016   4.983
68145W        W34928   4.728  11.102   1.379
68146W        W34929  38.211  10.858   2.755
68147W        W34930   7.290  18.446  14.543
68148W        W34931  18.228  40.521  11.532
68149W        W34932  35.566  31.183   3.664
68150W        W34933   9.431  26.149   0.506
68151W        W34934  26.155  29.491   0.746
68152W        W34935  33.363  22.629  13.161
68153W        W34936  44.856  37.970  14.090
68154W        W34937  28.731  35.090   1.887
68155W        W34938   0.741  13.070   1.798
68156W        W34939  36.317  31.468  14.947
68157W        W34940  11.681  10.336   4.063
68158W        W34941  11.392  23.405   2.380
68159W        W34942  38.578  28.736  12.582
68160W        W34943   1.867   4.215   4.405
68161W        W34944  26.073   0.267  12.974
68162W        W34945  22.999  11.907   3.305
68163W        W34946   0.712   2.206  11.536
68164W        W34947  43.779  28.107   3.203
68165W        W34948  17.144  35.382  14.307
68166W        W34949  23.099  21.182   3.435
68167W        W34950  32.327   6.750   2.105
68168W        W34951  20.526  29.066   1.462
68169W        W34952  21.555  43.497  13.529
68170W        W34953  35.631  30.901  14.282
68171W        W34954  42.432   8.902   0.094
68172W        W34955   5.944   9.889   3.087
68173W        W34956  18.534  38.170  14.509
68174W        W34957  18.215   2.190   1.867
68175W        W34958  19.171  11.576   2.033
68176W        W34959   0.673  42.312   0.442
68177W        W34960  16.031  15.401   4.841
68178W        W34961  16.581   2.289   1.765
68179W        W34962   9.688  31.448   3.035
68180W        W34963  30.474  34.416   2.001
68181W        W34964   2.826   5.211   5.000
68182W        W34965  23.979   7.128   2.749
68183W        W34966  17.061  40.523   2.001
68184W        W34967  40.008  29.098   1.272
68185W        W34968  23.049   2.333   1.084
68186W        W34969   8.985  10.763   0.462
68187W        W34970  23.111  38.068  10.947
68188W        W34971  13.324  13.713   0.713
68189W        W34972  19.115  20.603  13.022
68190W        W34973   3.705  39.941   4.474
68191W        W34974  19.252  36.882   1.330
68192W        W34975  41.459  30.914  12.909
68193W        W34976  12.345  30.553   4.092
68194W        W34977  19.078  24.290  10.676
68195W        W34978  22.657  13.856   5.055
68196W        W34979  18.377  16.554  13.954
68197W        W34980  39.738  38.830  11.174
68198W        W34981  16.769  11.691   0.316
68199W        W34982  14.098  44.274  13.501
68200W        W34983  13.996  23.954  14.351
68201W        W34984  44.673  21.927  13.403
68202W        W34985  17.049   0.623  13.977
68203W        W34986   7.361  17.151   0.209
68204W        W34987  39.282  24.961  12.960
68205W        W34988  14.895  23.300  13.362
68206W        W34989  34.095  30.370   3.617
68207W        W34990   5.220  25.686  13.990
68208W        W34991  33.847  20.377  12.425
68209W        W34992  40.433   8.673   0.299
68210W        W34993  15.664  27.950  11.735
68211W        W34994   4.250  12.174  11.882
68212W        W34995   5.394   2.922   4.618
68213W        W34996  33.926  26.549   3.638
68214W        W34997  38.127   4.964   4.106
68215W        W34998  43.043   6.123   3.224
68216W        W34999  39.093   2.574   5.274
68217W        W35000  40.693  36.262   0.338
68218W        W35001   3.294  31.457   2.738
68219W        W35002  25.052   2.503  11.151
68220W        W35003  29.122  29.980   4.858
68221W        W35004  36.443   8.821   2.636
68222W        W35005  16.773  19.822   3.671
68223W        W35006  39.405  25.135   0.429
68224W        W35007   6.187   0.924   3.693
68225W        W35008   5.464   0.370   0.587
68226W        W35009  26.951  12.306  13.445
68227W        W35010  31.197  36.021   1.624
68228W        W35011  18.583  28.029  14.592
68229W        W35012  40.730  23.767   2.281
68230W        W35013   2.253   9.746  12.926
68231W        W35014  31.832  27.506  11.511
68232W        W35015  26.443  34.413  14.297
68233W        W35016  14.472  15.975   5.093
68234W        W35017  22.259  38.745   0.606
68235W        W35018  30.387  26.274  11.889
68236W        W35019   9.433   2.272  12.826
68237W        W35020  43.335  40.083   1.278
68238W        W35021  16.845  38.526   0.428
68239W        W35022  37.426   5.648  12.136
68240W        W35023  12.224  36.390   2.690
68241W        W35024  23.262  38.410   0.909
68242W        W35025  23.208  10.255   2.366
68243W        W35026  13.835  14.812  11.444
68244W        W35027  10.216   6.900   5.448
68245W        W35028  24.553  36.841  11.896
68246W        W35029  43.219   6.438   4.546
68247W        W35030  13.214  31.103  13.925
68248W        W35031  20.430   5.624  11.788
68249W        W35032  44.641  22.572   1.907
68250W        W35033   3.726   8.349  12.982
68251W        W35034  20.087  24.058   1.418
68252W        W35035  41.673   1.493  14.551
68253W        W35036  37.379  28.898  14.920
68254W        W35037  42.292  15.393   3.245
68255W        W35038  41.918  17.601  14.468
68256W        W35039  12.189  26.078   0.218
68257W        W35040  29.803   6.378  14.009
68258W        W35041   0.056  35.493  11.434
68259W        W35042  10.844  16.366   0.181
68260W        W35043  26.543  12.209  11.211
68261W        W35044  27.154  31.424  12.000
68262W        W35045  38.460  11.287  12.913
68263W        W35046  44.972  20.120   1.866
68264W        W35047  19.877   8.201  11.229
68265W        W35048  42.518  16.206   1.307
68266W        W35049  36.620   3.734  14.960
68267W        W35050  15.610  11.252   0.341
68268W        W35051   6.769  36.925   0.689
68269W        W35052  12.268  26.395   1.913
68270W        W35053  21.984  35.790  11.194
68271W        W35054  42.398   6.684  12.466
68272W        W35055  31.227  34.615  11.165
68273W        W35056  22.115   7.614   3.355
68274W        W35057  33.551  18.084   4.210
68275W        W35058  37.815   4.738   5.039
68276W        W35059  23.341  14.646   2.110
68277W        W35060  26.671  26.697   0.687
68278W        W35061  13.697   3.694  13.355
68279W        W35062   3.705  14.129   1.459
68280W        W35063  20.017  21.718  11.464
68281W        W35064  44.522  24.173   4.711
68282W        W35065  35.053   8.216   3.574
68283W        W35066   5.296   7.188  13.539
68284W        W35067   1.244  44.791   0.298
68285W        W35068  25.479  38.761   4.485
68286W        W35069  10.366   2.696   3.946
68287W        W35070  37.173   2.707   3.838
68288W        W35071   4.831  10.765   3.918
68289W        W35072   4.378  31.620   4.641
68290W        W35073   1.840  26.864   3.271
68291W        W35074  36.480  15.803  14.439
68292W        W35075  42.959  15.759   3.586
68293W        W35076  30.999   3.227   3.624
68294W        W35077  39.957  41.556  10.788
68295W        W35078   3.987  18.218  13.975
68296W        W35079  41.023   3.111  11.165
68297W        W35080  28.924  39.609  12.562
68298W        W35081  41.515  32.208   1.242
68299W        W35082  44.898   3.355  12.311
68300W        W35083  39.604  23.751  11.165
68301W        W35084  14.685   1.236  13.454
68302W        W35085  32.552  30.270  11.527
68303W        W35086   9.174  42.270  12.225
68304W        W35087  10.759  34.225  10.850
68305W        W35088  29.870  23.769  12.088
68306W        W35089  30.348  30.170  14.950
68307W        W35090  13.855  11.076  12.482
68308W        W35091  41.110  16.242  13.094
68309W        W35092  12.044   2.912  13.927
68310W        W35093  34.550  29.723   2.872
68311W        W35094  40.037  23.032  12.093
68312W        W35095  24.810  28.191   2.639
68313W        W35096  35.287  44.333   1.659
68314W        W35097  35.355  38.066   4.063
68315W        W35098  38.512  23.674   1.321
68316W        W35099  27.610  30.866  13.519
68317W        W35100   8.295  33.953   3.625
68318W        W35101   6.233   9.358  14.529
68319W        W35102  18.475  26.939  14.854
68320W        W35103  20.615   7.351  12.100
68321W        W35104  15.349   5.691  14.443
68322W        W35105  22.077   2.379  14.552
68323W        W35106  25.212  32.133   1.872
68324W        W35107   9.341  23.237   4.382
68325W        W35108  16.020  29.422   1.787
68326W        W35109  23.133  39.929   0.044
68327W        W35110  41.022  44.012   1.387
68328W        W35111  27.616  13.605   4.216
68329W        W35112  28.981   8.783  14.702
68330W        W35113  10.309   7.447   0.396
68331W        W35114  41.422  12.080   2.260
68332W        W35115  17.057   1.138  14.004
68333W        W35116  32.416  27.185  12.090
68334W        W35117  26.526  31.646   4.507
68335W        W35118  28.897  21.176   5.054
68336W        W35119  36.270   3.912  10.587
68337W        W35120  36.401  11.549  13.369
68338W        W35121  33.119  35.408   3.172
68339W        W35122   0.082   2.808   4.112
68340W        W35123  29.549  41.365   0.683
68341W        W35124  35.183  18.768   3.245
68342W        W35125  28.995   0.192   0.500
68343W        W35126  42.036  37.126  10.841
68344W        W35127  40.528  15.682  12.940
68345W        W35128  14.091   2.325   0.859
68346W        W35129  23.992  32.476  10.913
68347W        W35130   8.805  40.154  14.800
68348W        W35131  42.895  39.308   2.172
68349W        W35132  22.962  15.975  12.719
68350W        W35133  23.749  35.460  10.654
68351W        W35134  30.655   5.816   2.601
68352W        W35135  17.137  30.669  14.425
68353W        W35136   6.627  44.012   2.866
68354W        W35137  26.865  24.054   3.280
68355W        W35138   2.099  34.056  13.512
68356W        W35139   1.681  26.579  11.507
68357W        W35140  24.996  31.868  13.382
68358W        W35141  37.058  23.627  11.538
68359W        W35142  25.135  10.083   1.850
68360W        W35143  42.084  25.696   4.150
68361W        W35144  25.531   2.165   4.997
68362W        W35145   6.697  33.887  14.645
68363W        W35146  13.315  17.677   1.980
68364W        W35147   4.446   9.374  11.702
68365W        W35148  41.367  20.183   3.813
68366W        W35149  20.449   7.085  10.856
68367W        W35150  29.079  43.541   0.680
68368W        W35151  23.278  11.672   1.902
68369W        W35152  36.690  28.866  11.544
68370W        W35153  21.980  31.201  12.560
68371W        W35154  34.412  11.105   4.299
68372W        W35155  21.976  17.591  10.877
68373W        W35156  18.614  39.137  14.866
68374W        W35157  19.191  26.177  14.341
68375W        W35158  22.291  37.330   2.283
68376W        W35159  10.561   3.183   3.534
68377W        W35160  21.978  35.616   0.072
68378W        W35161   4.166  25.443  12.907
68379W        W35162  41.733   1.451  13.912
68380W        W35163   7.803  31.426  12.920
68381W        W35164   9.304  28.676  10.419
68382W        W35165  28.962  25.318   3.247
68383W        W35166  10.647  35.995  10.967
68384W        W35167  22.228   9.487   2.721
68385W        W35168  10.260  19.124   0.633
68386W        W35169   2.633  20.309   4.611
68387W        W35170  40.344  29.471  12.557
68388W        W35171  21.605  12.897  11.858
68389W        W35172  21.177   8.009  11.128
68390W        W35173   4.781  42.319  10.932
68391W        W35174  28.024  13.689   3.145
68392W        W35175  12.134  17.588  12.931
68393W        W35176  32.523   0.954   3.095
68394W        W35177  44.448  35.810  11.953
68395W        W35178   6.614  18.489   0.282
68396W        W35179  40.866  39.907   2.133
68397W        W35180   0.671   0.503  13.481
68398W        W35181   6.286  36.817   3.243
68399W        W35182  18.614  22.770  12.478
68400W        W35183  22.773  10.223   4.610
68401W        W35184  30.833  23.189   1.235
68402W        W35185  32.839   3.085   3.406
68403W        W35186  17.268  41.890   4.310
68404W        W35187   7.275  17.595  14.045
68405W        W35188  38.558  43.235  13.387
68406W        W35189  29.504  27.600  13.599
68407W        W35190  13.557   2.295   0.911
68408W        W35191  29.169  42.308  11.945
68409W        W35192  22.012   4.797   1.325
68410W        W35193  24.263  30.957  14.917
68411W        W35194  41.534  42.848  14.802
68412W        W35195  30.214  22.053   1.764
68413W        W35196   6.262  38.064   2.705
68414W        W35197  12.694   2.361   1.175
68415W        W35198  24.878  41.678  10.641
68416W        W35199  23.436  20.780  14.076
68417W        W35200  29.993  41.839  13.419
68418W        W35201  17.183   8.805  11.551
68419W        W35202  17.062  44.999  12.893
68420W        W35203  17.223   1.003  11.030
68421W        W35204  43.837  23.353  14.334
68422W        W35205  44.165  36.591   0.654
68423W        W35206  22.568  13.291  13.282
68424W        W35207  14.076  14.426   4.494
68425W        W35208   9.596  44.688   4.160
68426W        W35209  13.489  14.684  10.503
68427W        W35210  32.009  27.472  11.991
68428W        W35211  15.200  17.097   3.364
68429W        W35212  38.834   5.961  13.150
68430W        W35213   4.191  13.901   4.877
68431W        W35214   6.990   8.469   1.027
68432W        W35215  36.315  43.781   0.282
68433W        W35216  10.125   3.454  11.542
68434W        W35217  10.214  16.342  10.524
68435W        W35218  26.683   3.756   0.420
68436W        W35219  41.864   4.185  11.362
68437W        W35220   6.307  40.902   4.589
68438W        W35221  30.037  36.723   3.138
68439W        W35222  19.236  14.507   0.520
68440W        W35223  31.904  41.582   1.715
68441W        W35224  11.535  26.637  11.239
68442W        W35225  28.054   4.243   0.342
68443W        W35226   8.956  26.624  11.515
68444W        W35227  16.005  22.977   3.169
68445W        W35228  24.837   0.833  12.453
68446W        W35229  33.971   2.935   1.303
68447W        W35230  25.016  44.423   4.753
68448W        W35231  40.530  13.129  14.454
68449W        W35232  40.396  11.617   3.318
68450W        W35233  29.651   1.812  12.767
68451W        W35234  38.434  16.584   1.397
68452W        W35235  33.993  18.063  12.072
68453W        W35236  19.776  35.820  11.226
68454W        W35237  37.233   1.880  13.127
68455W        W35238  18.024  32.915   4.750
68456W        W35239  28.610   4.158  12.495
68457W        W35240   4.033   9.561   0.067
68458W        W35241  40.864  10.659  13.923
68459W        W35242  27.070  24.930  11.512
68460W        W35243  13.247   4.561  12.534
68461W        W35244  22.337  38.630   2.676
68462W        W35245   9.366   1.811   0.985
68463W        W35246  13.066  42.375  13.076
68464W        W35247  16.031  17.252   3.171
68465W        W35248  40.866  20.727   3.178
68466W        W35249  19.957  36.543   0.735
68467W        W35250  38.480  14.979  11.464
68468W        W35251   3.409  42.827  13.443
68469W        W35252  14.553  19.177  11.655
68470W        W35253  18.507  10.232   1.013
68471W        W35254  21.718   8.141  13.046
68472W        W35255   8.040   1.969   3.285
68473W        W35256  22.107  16.717   2.352
68474W        W35257  30.488   3.747   4.721
68475W        W35258  25.037  16.139   4.878
68476W        W35259  15.440   8.817   0.311
68477W        W35260   8.225   0.510  11.745
68478W        W35261   5.736  18.767   1.938
68479W        W35262  14.369  16.566  10.570
68480W        W35263   5.961  15.739   0.452
68481W        W35264  16.705  41.851   3.562
68482W        W35265  34.320  12.167  10.794
68483W        W35266  28.463  21.037   4.291
68484W        W35267   0.957  30.659   0.458
68485W        W35268  32.309  19.583  12.446
68486W        W35269  34.349  32.488  14.861
68487W        W35270   8.868  15.940   3.788
68488W        W35271  29.295  32.914  11.223
68489W        W35272  40.163   6.483   2.446
68490W        W35273  38.461  20.795   1.302
68491W        W35274   9.929  30.922   3.612
68492W        W35275  38.511  13.142  11.502
68493W        W35276  24.634  27.408  11.889
68494W        W35277  11.904  35.614  10.534
68495W        W35278  28.052   1.798   4.543
68496W        W35279  42.972  44.237   3.308
68497W        W35280  15.704  25.460   2.638
68498W        W35281  20.083  26.510   3.700
68499W        W35282   2.847  28.680   0.710
68500W        W35283  25.028  23.142   1.383
68501W        W35284  17.853  23.825  12.024
68502W        W35285  33.017  27.051  14.668
68503W        W35286  41.075  28.583  12.892
68504W        W35287  28.209  11.420  11.058
68505W        W35288  21.538   8.684  12.412
68506W        W35289  33.955  37.512   4.510
68507W        W35290   3.691   9.840   3.328
68508W        W35291  22.451  19.355  14.437
68509W        W35292  38.308  34.644  11.724
68510W        W35293   9.610  35.494  11.160
68511W        W35294  22.671  33.405   3.487
68512W        W35295  44.062  38.841  14.024
68513W        W35296  34.289   8.395  12.392
68514W        W35297  28.461   5.542  13.357
68515W        W35298  34.377  20.319   1.410
68516W        W35299  13.023  32.890   4.118
68517W        W35300  40.122  31.148   0.235
68518W        W35301  38.793   2.812  10.605
68519W        W35302  37.056  41.987  11.672
68520W        W35303   7.724  12.693  12.464
68521W        W35304  36.047   9.175   4.537
68522W        W35305  29.290  21.478   0.561
68523W        W35306  38.400  35.354   1.756
68524W        W35307   5.360  14.855  13.514
68525W        W35308  22.539   3.923   4.728
68526W        W35309   7.731  26.170  12.568
68527W        W35310  32.015  12.301  13.409
68528W        W35311  15.099  23.323   0.313
68529W        W35312   7.186  29.604  13.579
68530W        W35313   7.232   5.367  12.232
68531W        W35314  16.133  27.482  14.786
68532W        W35315  21.376  11.151  13.121
68533W        W35316  20.369  33.389   4.892
68534W        W35317  14.340  28.955  13.340
68535W        W35318  11.289  42.873  12.129
68536W        W35319  44.014  28.481  12.296
68537W        W35320  35.513  11.068  10.729
68538W        W35321  38.455  34.679  11.189
68539W        W35322  41.312  42.385  14.953
68540W        W35323  29.442  23.661  12.480
68541W        W35324  32.316  27.125   0.237
68542W        W35325  23.710  18.749   4.971
68543W        W35326   2.852   2.343  10.668
68544W        W35327  41.347  18.387  13.326
68545W        W35328  20.402   9.452   4.473
68546W        W35329  12.345  40.257  11.005
68547W        W35330  11.144   4.183   2.562
68548W        W35331  26.686  30.189   3.848
68549W        W35332  42.897  25.267  13.437
68550W        W35333  24.996  26.652   0.429
68551W        W35334  28.947  15.154   3.799
68552W        W35335  34.244  29.258  14.130
68553W        W35336  25.290  34.106  10.727
68554W        W35337  38.934   7.238   4.118
68555W        W35338  22.641  21.289  14.592
68556W        W35339  19.608  35.659  10.412
68557W        W35340  39.055  18.005   2.297
68558W        W35341  16.124  31.288  12.842
68559W        W35342  29.932  41.425   2.781
68560W        W35343  41.018  17.586  11.082
68561W        W35344   9.086   3.445  11.676
68562W        W35345  40.897  30.559  10.731
68563W        W35346  42.830  30.886   4.387
68564W        W35347  14.329  17.425   3.462
68565W        W35348  35.698   0.221   0.703
68566W        W35349  33.398   1.750   4.076
68567W        W35350   7.928   6.856  12.554
68568W        W35351  10.251   0.023   1.789
68569W        W35352  19.021  21.296   1.380
68570W        W35353  28.661  15.705  10.603
68571W        W35354  24.914   5.185   3.246
68572W        W35355  28.492  40.131   9.703
68573W        W35356  15.151  34.010   0.703
68574W        W35357  20.100  19.747   0.431
68575W        W35358  25.295   6.872   4.102
68576W        W35359  16.798  44.435  11.044
68577W        W35360  35.058   9.952  11.044
68578W        W35361  22.652  28.846   4.128
68579W        W35362  13.112   1.417  14.885
68580W        W35363  35.122  12.407  11.151
68581W        W35364  37.056  14.533  12.487
68582W        W35365  31.740  42.941   0.801
68583W        W35366  32.332  19.788  13.323
68584W        W35367  19.653   5.351   0.169
68585W        W35368  42.694   4.936  13.551
68586W        W35369  30.588  31.139   3.052
68587W        W35370  20.471   4.673  10.647
68588W        W35371  26.903  21.003  12.406
68589W        W35372  38.150  17.163   3.912
68590W        W35373   0.922  14.443   3.004
68591W        W35374  43.311  44.071  11.621
68592W        W35375  41.330  19.837  11.377
68593W        W35376  24.731  30.358  11.008
68594W        W35377  13.502  28.553   3.916
68595W        W35378  32.368   2.111  13.719
68596W        W35379  15.066  31.638  11.994
68597W        W35380  14.630  39.028   4.107
68598W        W35381  14.370  12.670   0.804
68599W        W35382  36.069  37.036   1.731
68600W        W35383  13.342  23.072  11.539
68601W        W35384   7.451  41.497  10.422
68602W        W35385   0.401   0.903  12.582
68603W        W35386  38.463  26.358  11.000
68604W        W35387  34.315   9.911   2.191
68605W        W35388   6.574  32.162  13.113
68606W        W35389  26.826  32.998  14.302
68607W        W35390   6.998  36.292   1.979
68608W        W35391   5.902  21.509   1.444
68609W        W35392  11.329  31.859  11.648
68610W        W35393  32.532  14.675   3.724
68611W        W35394  29.951  12.230   1.468
68612W        W35395  19.080  35.522   0.195
68613W        W35396  41.828  44.175  12.602
68614W        W35397   8.813  19.087  14.929
68615W        W35398   4.902   3.400   4.184
68616W        W35399  44.452  16.593  11.351
68617W        W35400   4.876  33.866   0.754
68618W        W35401   6.442  15.570  13.306
68619W        W35402  14.045  35.463   1.475
68620W        W35403   7.274  20.992  11.430
68621W        W35404   6.750  36.833  14.849
68622W        W35405   9.696  12.411   0.382
68623W        W35406  11.188   2.354  13.424
68624W        W35407   4.460   6.167   4.539
68625W        W35408   0.530  16.263  11.048
68626W        W35409  12.174  22.274  13.644
68627W        W35410  23.268  20.651   2.757
68628W        W35411   7.585  30.970  13.136
68629W        W35412  42.360  23.480   1.701
68630W        W35413  16.600  32.843   3.886
68631W        W35414  30.387  19.151   0.841
68632W        W35415  22.708  26.727   2.405
68633W        W35416  40.865  41.273   4.380
68634W        W35417  43.689   9.783   4.968
68635W        W35418  33.565  32.297   4.499
68636W        W35419  17.712  13.271   0.481
68637W        W35420   7.237  26.073  13.934
68638W        W35421   4.470  30.684   1.806
68639W        W35422  32.545  22.671  13.591
68640W        W35423   2.655  29.922  11.224
68641W        W35424   2.123   7.961   2.664
68642W        W35425  20.153  41.821   4.104
68643W        W35426  40.825   8.332   9.936
68644W        W35427  35.337  10.628   4.641
68645W        W35428  33.276  26.713   0.916
68646W        W35429  27.216  34.545  10.603
68647W        W35430   7.918  13.731  13.760
68648W        W35431  33.488  38.720  13.384
68649W        W35432  31.928   5.675   0.471
68650W        W35433  44.475  14.105  12.871
68651W        W35434   0.281   5.893   2.376
68652W        W35435  17.937  37.977  13.945
68653W        W35436  28.922   3.248  10.709
68654W        W35437  30.702   3.215   0.892
68655W        W35438  17.769  27.455  11.515
68656W        W35439   5.241   3.434   2.653
68657W        W35440  31.993  19.075   3.194
68658W        W35441  17.285  28.087  13.245
68659W        W35442  43.375  24.238   1.185
68660W        W35443  36.870  38.819   2.277
68661W        W35444  44.526  36.162   4.653
68662W        W35445   1.703  21.122  13.714
68663W        W35446  12.631  28.502   4.195
68664W        W35447  13.094  26.499   3.411
68665W        W35448  25.171  23.200  10.771
68666W        W35449  30.448  44.976   0.023
68667W        W35450  19.178  10.287   3.376
68668W        W35451  41.908  31.571   4.651
68669W        W35452   2.550  29.560  12.439
68670W        W35453  38.601  23.448  11.002
68671W        W35454  38.352  40.341  12.645
68672W        W35455   3.460   8.781   3.621
68673W        W35456  21.231   0.972   2.212
68674W        W35457  38.362  17.154  12.922
68675W        W35458  15.175  32.495   3.208
68676W        W35459  34.615  17.648  12.431
68677W        W35460  41.582  42.760   0.737
68678W        W35461  27.032   8.265   0.718
68679W        W35462  28.536  41.073  14.071
68680W        W35463  24.275   7.588  11.860
68681W        W35464  12.379   1.402  13.302
68682W        W35465  20.989  30.950   0.750
68683W        W35466  32.864  15.488  13.468
68684W        W35467   4.259  41.009   3.178
68685W        W35468  39.001   6.168  10.230
68686W        W35469  34.476   4.602  11.849
68687W        W35470  31.571  42.029   2.107
68688W        W35471  37.245  39.661   3.292
68689W        W35472  36.280   1.507  11.688
68690W        W35473  17.094   8.383  14.464
68691W        W35474  43.639  32.973   0.842
68692W        W35475  41.884  41.788  14.067
68693W        W35476   0.492  43.515  11.407
68694W        W35477  13.330   4.806   0.916
68695W        W35478  31.220  11.018   1.843
68696W        W35479   4.614  29.956   4.580
68697W        W35480  26.568   5.913   4.684
68698W        W35481  29.536  25.228   0.213
68699W        W35482  14.889  27.212   0.373
68700W        W35483  34.020  37.370  11.857
68701W        W35484   1.216   0.688  11.103
68702W        W35485  30.383   8.167   3.704
68703W        W35486  25.610  13.355   5.441
68704W        W35487  26.002  18.724   1.167
68705W        W35488  12.292   3.739   2.765
68706W        W35489  37.443  12.232   4.519
68707W        W35490  15.750   1.501  13.901
68708W        W35491  30.855  36.377   1.293
68709W        W35492  12.007   2.689  11.284
68710W        W35493   7.156  31.619   1.410
68711W        W35494  13.985  36.881   1.618
68712W        W35495  24.407  13.507   0.963
68713W        W35496   0.301  25.465  12.921
68714W        W35497  31.695  21.765  11.635
68715W        W35498  30.112  38.973  12.596
68716W        W35499  18.842  40.341  13.879
68717W        W35500  23.929  40.141  13.869
68718W        W35501  11.438  32.377  10.516
68719W        W35502  31.156  29.188  10.740
68720W        W35503  14.870  33.971  13.249
68721W        W35504  12.733  32.081  10.686
68722W        W35505  21.904  27.965  12.903
68723W        W35506   9.441  15.207  11.445
68724W        W35507   2.816  25.383  14.296
68725W        W35508  38.406  44.033  12.127
68726W        W35509  36.838  25.119   2.326
68727W        W35510  17.053   1.377  13.490
68728W        W35511  40.553  40.372   2.773
68729W        W35512   2.732   4.737  11.738
68730W        W35513  25.962  32.596   4.066
68731W        W35514  19.431  41.022  13.880
68732W        W35515  11.415  32.956   3.172
68733W        W35516  24.531  29.297   5.108
68734W        W35517  43.871  14.299   0.336
68735W        W35518   6.738  39.527  12.579
68736W        W35519  30.526   4.721   1.831
68737W        W35520  39.066  30.024   2.376
68738W        W35521   1.266  27.983   2.704
68739W        W35522  40.060  39.632  12.160
68740W        W35523   2.228  26.412  10.289
68741W        W35524   2.306  19.315  12.095
68742W        W35525  22.715   0.918  12.501
68743W        W35526  42.923  26.524  10.222
68744W        W35527   2.298  11.419   4.471
68745W        W35528  26.437  40.018  14.922
68746W        W35529   9.690  33.515   4.743
68747W        W35530  39.408  25.206  11.086
68748W        W35531  19.709   0.433  14.791
68749W        W35532  28.622  33.289   2.439
68750W        W35533  15.526  34.500  10.652
68751W        W35534  20.733   9.901  13.702
68752W        W35535  20.556   1.356  14.794
68753W        W35536  26.672  17.672   0.533
68754W        W35537  15.302  27.699  10.157
68755W        W35538  34.024  34.459   4.116
68756W        W35539  31.619  25.403  11.121
68757W        W35540  12.044   7.704  13.284
68758W        W35541  33.711   4.774   5.029
68759W        W35542  15.689  39.965   9.977
68760W        W35543  16.069  27.665   1.796
68761W        W35544   4.734  15.094  13.427
68762W        W35545  20.150  15.954  14.042
68763W        W35546  11.840  38.423   2.878
68764W        W35547  17.598  41.376  12.134
68765W        W35548  39.398   0.340  10.558
68766W        W35549  40.059  18.778   4.983
68767W        W35550  18.067  31.412  10.696
68768W        W35551  43.939  26.004   3.666
68769W        W35552  38.443  37.894   4.143
68770W        W35553  19.736   7.372   3.516
68771W        W35554  30.181  23.136   1.082
68772W        W35555  34.338  35.852  13.428
68773W        W35556  41.716  10.266  11.137
68774W        W35557   8.173  22.515   3.739
68775W        W35558   7.299   6.345  11.239
68776W        W35559  21.284  17.649   4.208
68777W        W35560  13.811   8.056  13.605
68778W        W35561  30.220  13.798  12.962
68779W        W35562  41.819  25.529   5.081
68780W        W35563  11.169  28.605   4.127
68781W        W35564  26.425   3.574   5.497
68782W        W35565  13.565   4.790   1.394
68783W        W35566   5.441  41.345   4.889
68784W        W35567   9.402  35.851   2.947
68785W        W35568  41.994   4.256  13.508
68786W        W35569  38.667  26.934   2.230
68787W        W35570   8.199  34.922   3.491
68788W        W35571  18.737  13.076   0.456
68789W        W35572  28.302  31.682  14.384
68790W        W35573  36.135   7.604  13.070
68791W        W35574  27.272  42.704  13.362
68792W        W35575  30.418  42.273  12.535
68793W        W35576   4.899  19.518   0.302
68794W        W35577  41.222   0.519  12.902
68795W        W35578  43.351  29.931   0.780
68796W        W35579   6.027   2.882   1.726
68797W        W35580  20.509  21.667  14.893
68798W        W35581  14.052   4.802   2.314
68799W        W35582  29.929  19.620  10.794
68800W        W35583  24.693  29.256   3.313
68801W        W35584   5.243  15.025  14.369
68802W        W35585  10.795   5.940   2.881
68803W        W35586  19.703  14.432  12.929
68804W        W35587   0.630  44.833   2.731
68805W        W35588  18.218  42.976  12.064
68806W        W35589   6.727  33.498   4.856
68807W        W35590   2.653   8.514   3.236
68808W        W35591  29.616  14.904   3.076
68809W        W35592  41.955  16.457  13.080
68810W        W35593  37.538  16.567  14.371
68811W        W35594  15.122  17.854  11.077
68812W        W35595   6.969   5.554  13.085
68813W        W35596   1.508  41.050   1.311
68814W        W35597   6.245  32.291   2.227
68815W        W35598  10.663  43.753  12.954
68816W        W35599  43.094  13.044   0.957
68817W        W35600   9.238  20.934   3.666
68818W        W35601  17.211  18.169   1.882
68819W        W35602   6.134  29.143  14.550
68820W        W35603  29.662  10.372   0.919
68821W        W35604  34.496  26.352   3.325
68822W        W35605   8.174  36.425   4.591
68823W        W35606  32.190  29.649   0.406
68824W        W35607   1.057  41.417   3.165
68825W        W35608   8.923  44.757   3.265
68826W        W35609  25.723  24.681   0.217
68827W        W35610  15.350  22.714   3.404
68828W        W35611   6.867  33.838  14.110
68829W        W35612  40.115  21.855  14.668
68830W        W35613  11.720  44.207   4.587
68831W        W35614  32.046   0.292   0.261
68832W        W35615  37.357  20.023   0.005
68833W        W35616  29.442  28.659   4.674
68834W        W35617  30.162  30.561   3.021
68835W        W35618  33.877  13.270   2.795
68836W        W35619   6.915   5.423   1.857
68837W        W35620   8.685  34.573  10.232
68838W        W35621  23.356  40.239  13.983
68839W        W35622   7.110  28.127  13.934
68840W        W35623  30.040  16.266  10.868
68841W        W35624  20.734  29.651  14.901
68842W        W35625  42.321  31.050  10.880
68843W        W35626  44.423  13.430   9.798
68844W        W35627  21.182  24.282  12.470
68845W        W35628  44.629  10.694   1.458
68846W        W35629  13.458  35.991   2.140
68847W        W35630  40.451  29.941   2.125
68848W        W35631  11.977  20.811  10.569
68849W        W35632  20.002  36.358   3.343
68850W        W35633  32.883  44.934   3.686
68851W        W35634  44.427  19.620  13.454
68852W        W35635   7.161  20.214  13.699
68853W        W35636  13.903   0.566   3.926
68854W        W35637  28.656  42.019  12.888
68855W        W35638  34.652   3.825   3.114
68856W        W35639  43.082  14.478   0.676
68857W        W35640   1.198  19.068  13.018
68858W        W35641  29.475  13.532   4.573
68859W        W35642   7.573  21.078   5.206
68860W        W35643  32.400   1.022  13.018
68861W        W35644  34.997   5.377   4.609
68862W        W35645  36.539  41.087   4.421
68863W        W35646  28.439  23.631   1.746
68864W        W35647   0.710   8.795  11.554
68865W        W35648  27.924  28.700   2.407
68866W        W35649  14.650  10.071   2.578
68867W        W35650  18.076  42.395  14.821
68868W        W35651  26.480  24.044  13.011
68869W        W35652  23.263  41.284  14.909
68870W        W35653   2.528  19.712  11.185
68871W        W35654  35.880  11.856  12.706
68872W        W35655  16.169   3.765   2.495
68873W        W35656   0.931  38.306   3.942
68874W        W35657  44.049  23.555   0.372
68875W        W35658  43.501  29.457  10.838
68876W        W35659  20.225   5.167  13.455
68877W        W35660  19.957  37.971  11.022
68878W        W35661  21.263  25.168  13.763
68879W        W35662  21.078  39.507  12.020
68880W        W35663  32.517  33.193  14.927
68881W        W35664  16.281  19.856  13.517
68882W        W35665  39.827  28.655  12.364
68883W        W35666  16.346   1.393   4.683
68884W        W35667   6.176  17.547   1.404
68885W        W35668  26.947  41.433   2.629
68886W        W35669  23.686   9.647   1.205
68887W        W35670  32.309   8.086  12.427
68888W        W35671  10.432  11.847  14.913
68889W        W35672  16.077   1.852  14.794
68890W        W35673  22.106   3.337   2.693
68891W        W35674  13.923   0.042   2.776
68892W        W35675  34.584  33.179  14.542
68893W        W35676  24.596  11.349   3.689
68894W        W35677  15.749   1.486  10.719
68895W        W35678  11.112  24.047   1.320
68896W        W35679  22.318   8.358   1.231
68897W        W35680  23.544   3.167   0.078
68898W        W35681  40.731  30.093  12.050
68899W        W35682  14.070  20.220   3.292
68900W        W35683  17.827   7.800   0.413
68901W        W35684  37.891   3.781   4.875
68902W        W35685  44.390  42.652   3.230
68903W        W35686   2.008  44.776   3.706
68904W        W35687  41.048  24.015   0.830
68905W        W35688   6.319  17.379  10.344
68906W        W35689  35.511  35.472  14.829
68907W        W35690  34.581  25.754  11.435
68908W        W35691  19.697  27.241   4.789
68909W        W35692   6.214  19.222  12.002
68910W        W35693  14.719  32.536  10.672
68911W        W35694  30.049  30.110  13.533
68912W        W35695  32.496  10.109   4.758
68913W        W35696  38.379   5.746  11.410
68914W        W35697  12.670  29.749   4.643
68915W        W35698  17.337  21.378  14.536
68916W        W35699  21.779  25.505   3.244
68917W        W35700  27.532  36.616  11.894
68918W        W35701  40.754   6.990   2.626
68919W        W35702  43.406   8.607  12.051
68920W        W35703   1.520   3.040   2.662
68921W        W35704  17.582  15.509   2.544
68922W        W35705  14.636  21.263   3.577
68923W        W35706  30.353  20.749   3.246
68924W        W35707   4.412   5.058  13.907
68925W        W35708   1.215   3.418   2.831
68926W        W35709  37.944  27.454   1.391
68927W        W35710   4.209  43.845   1.907
68928W        W35711  32.415   9.142   2.338
68929W        W35712  43.300  29.610   0.367
68930W        W35713  31.571  37.032   4.955
68931W        W35714  16.682  19.948  14.454
68932W        W35715   6.197  17.009   4.519
68933W        W35716  19.559  24.429  10.556
68934W        W35717  14.795  32.018  13.906
68935W        W35718   3.445   6.337   2.822
68936W        W35719  30.232   3.262   2.346
68937W        W35720  33.987  25.705  14.814
68938W        W35721  11.283   1.531  14.378
68939W        W35722  25.536   0.369   0.952
68940W        W35723  39.365  23.529  14.634
68941W        W35724  38.383  19.281  14.280
68942W        W35725   1.041  12.669   4.366
68943W        W35726  14.149  12.192  12.386
68944W        W35727  33.468  36.000   2.894
68945W        W35728   0.401  20.635  10.380
68946W        W35729  29.406  38.360   1.756
68947W        W35730  24.955  27.331   0.033
68948W        W35731  15.421  29.283  13.867
68949W        W35732  32.939  13.079   2.044
68950W        W35733  31.235  18.634   3.596
68951W        W35734  34.089  24.196   3.314
68952W        W35735   3.388  36.866   2.173
68953W        W35736  29.960  28.144   4.400
68954W        W35737   1.682  17.032  14.326
68955W        W35738  29.430   2.429   0.474
68956W        W35739  26.105  42.492   4.293
68957W        W35740  19.779  38.819   4.530
68958W        W35741  18.039  11.260   4.706
68959W        W35742  18.718  11.124   1.475
68960W        W35743  44.217  19.193   3.245
68961W        W35744  20.280  23.085   4.349
68962W        W35745   5.262  41.440   3.898
68963W        W35746  17.809  22.654   1.443
68964W        W35747  42.758  19.366   2.439
68965W        W35748  31.640  15.273  11.161
68966W        W35749   8.215   8.763   1.242
68967W        W35750  41.071  44.484  14.510
68968W        W35751  35.649  21.692  12.696
68969W        W35752  35.944  41.405  14.617
68970W        W35753  40.319   3.825  10.579
68971W        W35754  22.756  39.861  12.921
68972W        W35755  17.209  42.904   0.881
68973W        W35756   1.744  17.200  11.723
68974W        W35757  20.637  30.124  12.762
68975W        W35758   0.511  23.091   2.054
68976W        W35759  19.262  39.525   2.463
68977W        W35760  36.049  42.297  14.481
68978W        W35761   4.626   9.909  14.562
68979W        W35762  35.561   5.072   4.044
68980W        W35763  39.935  18.341  14.276
68981W        W35764  31.526  35.586   4.755
68982W        W35765  26.135   8.728   3.656
68983W        W35766  19.342   6.774   1.223
68984W        W35767  16.628   6.715   0.494
68985W        W35768   7.245   1.422  14.017
68986W        W35769  21.067   8.747  11.553
68987W        W35770  43.133  10.693   1.348
68988W        W35771  22.264   4.748  13.591
68989W        W35772  18.168  35.905  10.637
68990W        W35773  21.489  26.557   0.440
68991W        W35774   3.967   3.861   4.666
68992W        W35775  10.673  19.816   0.425
68993W        W35776   9.154   2.990   2.215
68994W        W35777  33.584  19.960   3.452
68995W        W35778  11.144  10.443   1.737
68996W        W35779  44.544  27.546  11.586
68997W        W35780  19.246  25.040  13.276
68998W        W35781  13.764   9.219   4.771
68999W        W35782  25.085  15.494   0.884
69000W        W35783   1.194  22.313   1.226
69001W        W35784   8.788  44.269  11.416
69002W        W35785  11.547  14.173  12.793
69003W        W35786  10.737  23.513   2.000
69004W        W35787  28.279  23.858   3.274
69005W        W35788  27.465  20.463  13.993
69006W        W35789  41.490  27.404   0.927
69007W        W35790  26.607  41.863   3.361
69008W        W35791  37.049  12.573  14.579
69009W        W35792  30.111  36.770  13.359
69010W        W35793  23.701  43.532  12.164
69011W        W35794  17.659  38.416   4.576
69012W        W35795   8.926   6.584   4.313
69013W        W35796  42.515  34.981   4.156
69014W        W35797   1.925   8.536  13.495
69015W        W35798  32.545  34.375  13.421
69016W        W35799   5.306  10.188  14.071
69017W        W35800  35.518  32.951   2.410
69018W        W35801  34.322   9.641   5.527
69019W        W35802  12.224   2.522   1.916
69020W        W35803  41.434  44.019  13.292
69021W        W35804  13.619   0.546  13.629
69022W        W35805  15.568  37.311   0.363
69023W        W35806  37.985  32.991  14.580
69024W        W35807  42.601  18.618   4.557
69025W        W35808  10.376  11.340   4.143
69026W        W35809  24.486  21.589  14.916
69027W        W35810   4.887  15.798   4.020
69028W        W35811  30.100  11.739   0.874
69029W        W35812   1.301  14.521   2.649
69030W        W35813  33.054  21.241   2.355
69031W        W35814  27.692  33.372   2.771
69032W        W35815  35.856  32.143   5.319
69033W        W35816  29.431  36.030  13.530
69034W        W35817  29.077  31.624  12.381
69035W        W35818  15.800  35.761  12.071
69036W        W35819  33.041  39.790   2.186
69037W        W35820  17.024  44.432   3.186
69038W        W35821  41.890  37.831   3.735
69039W        W35822  34.194  28.732  12.368
69040W        W35823  33.511  19.146  11.244
69041W        W35824  19.331  17.802   1.752
69042W        W35825  32.552   1.608   4.632
69043W        W35826  28.477  10.170   1.033
69044W        W35827  30.611  13.627   2.654
69045W        W35828   2.241  28.230  13.112
69046W        W35829  18.041   0.699  10.594
69047W        W35830  27.779  41.775   0.700
69048W        W35831  27.711  34.797  10.911
69049W        W35832  16.419   4.782   3.800
69050W        W35833   3.997  11.420  11.891
69051W        W35834  14.082  41.951   2.215
69052W        W35835   5.448  31.103  14.164
69053W        W35836  16.056  27.604  13.314
69054W        W35837  43.909  41.709  13.601
69055W        W35838  24.247  36.957  12.975
69056W        W35839  21.820  15.652   0.400
69057W        W35840  14.089  14.405  11.159
69058W        W35841  44.949  31.465  12.413
69059W        W35842  22.031  33.347   1.297
69060W        W35843  14.298  17.532   4.828
69061W        W35844   8.020  24.687   2.768
69062W        W35845   5.951  23.656  14.320
69063W        W35846  10.335   0.188   0.393
69064W        W35847  24.733  15.818  12.715
69065W        W35848   1.347   0.185  11.979
69066W        W35849  28.026   7.886  13.376
69067W        W35850  41.307  34.486  11.086
69068W        W35851  13.559  30.358  14.742
69069W        W35852   7.426  11.814  14.910
69070W        W35853  18.494  20.983   3.305
69071W        W35854  39.238  32.117   4.645
69072W        W35855  42.855  29.439  11.931
69073W        W35856  36.620  24.183   1.386
69074W        W35857  34.576  33.347   4.500
69075W        W35858  32.034  35.129  14.903
69076W        W35859  17.840   3.320  11.958
69077W        W35860   7.256   5.264   0.410
69078W        W35861  13.832  39.578  10.998
69079W        W35862   3.837  44.488  10.312
69080W        W35863  28.935  20.061  12.421
69081W        W35864  26.777   3.746  10.752
69082W        W35865  42.808  11.808   4.584
69083W        W35866  25.083  37.674  14.776
69084W        W35867  33.572   1.547   4.674
69085W        W35868   6.219   4.669   2.802
69086W        W35869  31.878  24.699  14.064
69087W        W35870  14.492  42.106   1.356
69088W        W35871  18.615  33.865  12.416
69089W        W35872  38.976  32.340   0.241
69090W        W35873  22.536   8.689   0.904
69091W        W35874  16.221  11.667   0.414
69092W        W35875  19.640  23.030  13.024
69093W        W35876  11.328   6.225   0.705
69094W        W35877   3.366  37.933  14.677
69095W        W35878  26.158  32.358   0.427
69096W        W35879  11.613  10.273   2.679
69097W        W35880  22.739   1.888  12.625
69098W        W35881  38.406   8.378   2.767
69099W        W35882   8.474  22.241   3.389
69100W        W35883  35.318   5.158  11.215
69101W        W35884  25.304  13.895   2.697
69102W        W35885  26.685  40.969   2.772
69103W        W35886   9.133  29.288  12.013
69104W        W35887  25.854  42.858  13.570
69105W        W35888  20.605   8.744  14.990
69106W        W35889  44.319   6.149   2.106
69107W        W35890  40.247  15.672   0.393
69108W        W35891  39.305  22.032   3.718
69109W        W35892  36.189  11.674   3.140
69110W        W35893  29.231  41.972  14.794
69111W        W35894  42.739   6.017  14.356
69112W        W35895  44.294  35.496  10.985
69113W        W35896   3.907  26.572  11.103
69114W        W35897  31.327  13.598  12.502
69115W        W35898  34.658  37.981   0.817
69116W        W35899  42.325   4.393  12.178
69117W        W35900  14.818   9.231   1.335
69118W        W35901  33.073  20.611  11.766
69119W        W35902  19.019   6.309  14.105
69120W        W35903  21.172   0.937   4.102
69121W        W35904   9.850  27.271  13.292
69122W        W35905  10.703  18.056   1.678
69123W        W35906  26.933   3.419   2.692
69124W        W35907  42.270  29.473   2.396
69125W        W35908   4.741  21.735   0.303
69126W        W35909  30.704  44.189  11.314
69127W        W35910   0.168   3.063   4.562
69128W        W35911  35.965  41.575  11.003
69129W        W35912   6.710   6.408   0.393
69130W        W35913  19.726  26.871  12.455
69131W        W35914   7.396   1.471   3.453
69132W        W35915  10.750  44.701   0.788
69133W        W35916  15.810  17.207  13.396
69134W        W35917  36.091  30.019   1.833
69135W        W35918  44.308  27.139  12.871
69136W        W35919  43.057  13.826  11.559
69137W        W35920  27.162  25.588  12.774
69138W        W35921  39.298  18.330  12.540
69139W        W35922  14.905  34.015  10.331
69140W        W35923  29.870  36.591   1.271
69141W        W35924   8.067  40.833  14.332
69142W        W35925   5.488  43.072  10.639
69143W        W35926  40.068  37.773  14.055
69144W        W35927  32.915  40.394   4.289
69145W        W35928  39.407  26.130  10.672
69146W        W35929  23.739   5.717   4.611
69147W        W35930  38.552   9.155  12.296
69148W        W35931  28.376  29.208  12.782
69149W        W35932  17.499  41.939   0.295
69150W        W35933  25.977  38.860   0.369
69151W        W35934  16.597  16.124  14.954
69152W        W35935  26.729   4.734   2.925
69153W        W35936  21.214  22.229   3.101
69154W        W35937   4.212   2.311   1.955
69155W        W35938  26.426   5.374  11.748
69156W        W35939   2.524  43.870  14.761
69157W        W35940  42.746   8.277  14.041
69158W        W35941  28.692  21.900  12.197
69159W        W35942   2.831  35.108  13.371
69160W        W35943  39.556  39.115  13.827
69161W        W35944  21.237   4.399  12.010
69162W        W35945  10.072  23.989   1.375
69163W        W35946  25.090  29.269  13.968
69164W        W35947  42.526  44.556   3.220
69165W        W35948  31.482  19.605   3.545
69166W        W35949  19.785  22.984  10.754
69167W        W35950   6.364  34.612   4.447
69168W        W35951  31.457  35.758  10.955
69169W        W35952  32.689  41.338  11.073
69170W        W35953  28.614  21.019   2.799
69171W        W35954  16.400  24.155   4.231
69172W        W35955  40.378  33.930   2.538
69173W        W35956   0.492  20.174   0.897
69174W        W35957  38.020  13.363   1.389
69175W        W35958  15.880  26.508  14.838
69176W        W35959  30.516  23.615  14.971
69177W        W35960   8.771  28.831  12.415
69178W        W35961  22.647  38.623  12.485
69179W        W35962  11.294  11.519  14.354
69180W        W35963  14.136   0.956  14.408
69181W        W35964   7.957   3.117   1.834
69182W        W35965  23.617  29.526  13.983
69183W        W35966   0.841  44.332  11.356
69184W        W35967  13.283  22.985   4.162
69185W        W35968   8.606  35.564  12.572
69186W        W35969  42.454  30.227   1.206
69187W        W35970  18.696  18.092  10.955
69188W        W35971  10.917  15.575   2.388
69189W        W35972  41.149  36.384   1.720
69190W        W35973  12.214  12.127   2.348
69191W        W35974  32.907  33.835   1.446
69192W        W35975  11.292  12.099   1.269
69193W        W35976   7.806  20.430   4.976
69194W        W35977  20.610  29.546   1.309
69195W        W35978  11.331  36.562  10.602
69196W        W35979  41.808  39.371   0.798
69197W        W35980  35.762  13.092   1.717
69198W        W35981  25.999  14.279   3.710
69199W        W35982  37.519  13.985   4.607
69200W        W35983  41.042   9.367   4.585
69201W        W35984  19.605  29.079  10.144
69202W        W35985  24.213  43.601   0.783
69203W        W35986  33.874  38.357  11.631
69204W        W35987  28.079  18.216   3.913
69205W        W35988  17.346   7.926  14.467
69206W        W35989  13.411  10.382   2.848
69207W        W35990  43.794  28.463  14.913
69208W        W35991   8.195  34.862   4.308
69209W        W35992  13.554  40.319   2.678
69210W        W35993  28.935  16.235  13.515
69211W        W35994  31.694  38.840  11.476
69212W        W35995  13.351  40.358  12.027
69213W        W35996  39.972   5.614   1.399
69214W        W35997  40.429   4.388  14.465
69215W        W35998  15.503  30.965  10.457
69216W        W35999  13.691  24.001   2.740
69217W        W36000  12.908   0.206  13.156
69218W        W36001  38.738   8.872  14.986
69219W        W36002  11.411  44.008   2.779
69220W        W36003  26.274  37.504  13.513
69221W        W36004  26.038  15.271   4.186
69222W        W36005  13.197  29.893  12.141
69223W        W36006  39.108   6.877   3.775
69224W        W36007  10.100   1.197   4.185
69225W        W36008   2.091  16.583   1.265
69226W        W36009  32.908  22.432  13.334
69227W        W36010  43.447  38.068   4.575
69228W        W36011  11.553  22.143   0.897
69229W        W36012  30.153  18.118  13.959
69230W        W36013  29.597  26.702   4.211
69231W        W36014  24.482  30.955  13.570
69232W        W36015  44.733   5.232  14.472
69233W        W36016   9.416  10.689  13.991
69234W        W36017  40.120  20.871   4.524
69235W        W36018   6.614  44.509   2.670
69236W        W36019  17.758  12.905   0.874
69237W        W36020  28.178  17.175   3.646
69238W        W36021  42.828  22.510   3.323
69239W        W36022   7.601  12.679   1.791
69240W        W36023   1.801  36.312  10.494
69241W        W36024   1.558  28.802  13.433
69242W        W36025   0.799   9.660  12.437
69243W        W36026  11.267  35.007  11.916
69244W        W36027  11.390  38.072   1.201
69245W        W36028  42.247  32.430  13.418
69246W        W36029  24.030  40.882   3.676
69247W        W36030  42.099   5.701  13.939
69248W        W36031  38.864  21.622  14.816
69249W        W36032  20.062  34.953   1.775
69250W        W36033  24.956   8.216  14.336
69251W        W36034  42.772  38.877   0.373
69252W        W36035  30.469  22.475  12.027
69253W        W36036   3.468  27.037   4.671
69254W        W36037  15.178  36.793  11.522
69255W        W36038  40.384   9.275  14.440
69256W        W36039  36.472  43.443  12.479
69257W        W36040  15.653  37.678   2.642
69258W        W36041   5.171   0.930  10.225
69259W        W36042   7.956   4.435   1.872
69260W        W36043   5.781  15.103  10.594
69261W        W36044   3.620  18.804   2.541
69262W        W36045  17.840  19.727  10.901
69263W        W36046  42.687  19.072   3.409
69264W        W36047  37.506  24.794   1.214
69265W        W36048  36.070  33.102  10.778
69266W        W36049  38.166  32.013  12.803
69267W        W36050  24.673  15.586   2.680
69268W        W36051  34.635  40.829   0.278
69269W        W36052  29.029  31.890   4.999
69270W        W36053   0.885  15.638   0.786
69271W        W36054  15.171  30.804  11.613
69272W        W36055  10.681   9.142  11.910
69273W        W36056  39.461   8.117   0.791
69274W        W36057  33.337  29.538  13.585
69275W        W36058  23.290  22.833  12.357
69276W        W36059   1.786  25.524  12.982
69277W        W36060   1.419  42.966   4.237
69278W        W36061  15.989  17.897   2.374
69279W        W36062  11.268  40.962   3.193
69280W        W36063  27.226  20.596  12.164
69281W        W36064  36.641  42.091  13.428
69282W        W36065  38.088  18.258  11.879
69283W        W36066  29.504  40.829  11.466
69284W        W36067   1.012  37.513  11.020
69285W        W36068  35.824  10.110  11.629
69286W        W36069  42.049  41.359  10.789
69287W        W36070  10.783  33.568   3.360
69288W        W36071  39.749  37.340  14.124
69289W        W36072   4.917   8.375  10.652
69290W        W36073  29.197  31.668  14.410
69291W        W36074  16.427  16.737  11.226
69292W        W36075  33.586  38.079   4.581
69293W        W36076  14.328   0.829   1.349
69294W        W36077  32.439  13.178  10.717
69295W        W36078  44.310  13.358   1.268
69296W        W36079   5.939  27.064  13.468
69297W        W36080  16.425   8.654   2.133
69298W        W36081  12.325  18.051   3.635
69299W        W36082  14.788  27.037   1.980
69300W        W36083   8.250  40.079   0.346
69301W        W36084  26.409  14.321   4.966
69302W        W36085   6.698  15.603   1.716
69303W        W36086  39.083  17.368  11.216
69304W        W36087  18.292  10.708   2.644
69305W        W36088  24.638  39.901   3.071
69306W        W36089  28.726  14.402   4.205
69307W        W36090  41.350  30.354  14.119
69308W        W36091  27.448  41.452   1.757
69309W        W36092  42.830  36.652  12.916
69310W        W36093  38.929   7.466  11.375
69311W        W36094  37.142   9.265  13.857
69312W        W36095  39.355  16.938  11.138
69313W        W36096  25.038  19.044   3.676
69314W        W36097  32.877   0.803  12.789
69315W        W36098  11.496  31.940  14.507
69316W        W36099  28.183  29.417  14.864
69317W        W36100   5.526  35.411  12.410
69318W        W36101   5.101  23.463  11.381
69319W        W36102  40.658  22.620  14.515
69320W        W36103  10.799  27.513   3.963
69321W        W36104  23.695  39.778  10.472
69322W        W36105  21.650   7.197  14.064
69323W        W36106  41.722  32.617   2.588
69324W        W36107  10.073  40.452   3.261
69325W        W36108  22.705  26.671   2.925
69326W        W36109  27.468  13.243   1.503
69327W        W36110  31.693  24.193  12.529
69328W        W36111   4.851   7.850  12.491
69329W        W36112  37.493   7.749  14.374
69330W        W36113  40.312  35.838  10.712
69331W        W36114   2.765   4.927  14.414
69332W        W36115  40.364  13.713  13.472
69333W        W36116  26.284  42.915   4.686
69334W        W36117   1.436  30.802   1.161
69335W        W36118  14.932  38.906   1.415
69336W        W36119  12.286  32.388  10.646
69337W        W36120  28.485  43.507   4.526
69338W        W36121   3.212   9.787   2.216
69339W        W36122   8.918   0.982  11.847
69340W        W36123   3.007  29.757   2.863
69341W        W36124  44.149  31.326   4.925
69342W        W36125  23.267  26.206   0.301
69343W        W36126   5.337  30.980  11.088
69344W        W36127  19.583   1.181   2.224
69345W        W36128  22.202  41.257  11.282
69346W        W36129  43.845   9.751  11.381
69347W        W36130  18.543  39.317  10.482
69348W        W36131  18.095  30.572  13.509
69349W        W36132  37.157  33.439  12.020
69350W        W36133   5.353  26.510   0.524
69351W        W36134  43.761   6.746   1.940
69352W        W36135  23.088   9.653  12.145
69353W        W36136  17.117  41.512   0.324
69354W        W36137   6.405  11.536   3.865
69355W        W36138   3.282  42.587   1.768
69356W        W36139  21.668  23.795   2.762
69357W        W36140  27.585   3.247  13.294
69358W        W36141  40.026  33.968   3.284
69359W        W36142  15.149  37.822  11.540
69360W        W36143  10.404   6.691  13.404
69361W        W36144  16.131  12.226  11.186
69362W        W36145  44.512  22.777  14.901
69363W        W36146  24.948  41.551  14.560
69364W        W36147  18.424   3.992  12.148
69365W        W36148  22.659  15.875   4.635
69366W        W36149  12.918  37.788  12.008
69367W        W36150  30.092  29.612   2.693
69368W        W36151  12.171  17.158  13.282
69369W        W36152  34.524  23.489  14.975
69370W        W36153   8.896  31.833   2.580
69371W        W36154  26.169  26.749   5.346
69372W        W36155  32.372  43.392  14.992
69373W        W36156   9.134  13.786  14.886
69374W        W36157   2.714  38.139  10.978
69375W        W36158  35.965  15.863  14.490
69376W        W36159   5.147  22.157   1.327
69377W        W36160   3.329  18.853  12.930
69378W        W36161  17.087  12.758   2.608
69379W        W36162  42.097  40.417  13.523
69380W        W36163   1.218   0.871  12.997
69381W        W36164  36.249   2.184  13.335
69382W        W36165  11.167  42.758   3.125
69383W        W36166  29.410  21.118   1.876
69384W        W36167  25.650  35.471   4.280
69385W        W36168  33.797  27.867   4.184
69386W        W36169  28.141  38.845  14.031
69387W        W36170   4.244  16.099   0.875
69388W        W36171  35.682  14.168   2.820
69389W        W36172   9.138   1.702   2.802
69390W        W36173  17.978  28.583  13.518
69391W        W36174  20.651  18.440  11.292
69392W        W36175  22.499   5.780   3.267
69393W        W36176  26.092  25.714  11.249
69394W        W36177   2.448  43.796  13.431
69395W        W36178   2.093  25.569   3.933
69396W        W36179  35.825  37.590  13.878
69397W        W36180  44.782   1.830   1.815
69398W        W36181  36.939  36.403  10.762
69399W        W36182   1.765  39.588   1.450
69400W        W36183  39.338  41.097   1.302
69401W        W36184   3.830  20.431  12.189
69402W        W36185  19.030  26.547   1.621
69403W        W36186   3.740  14.205   2.473
69404W        W36187  20.747  22.778   0.271
69405W        W36188  15.373  33.314   2.790
69406W        W36189  19.678   6.744  13.013
69407W        W36190  34.928  26.238  14.818
69408W        W36191  30.601  39.362   4.122
69409W        W36192  36.354   8.467   0.284
69410W        W36193   6.889  41.832   1.386
69411W        W36194  32.322  23.283  12.426
69412W        W36195  14.151  37.995  12.549
69413W        W36196  36.971  37.821  10.491
69414W        W36197  32.418   4.773  10.738
69415W        W36198  44.722  13.885  12.476
69416W        W36199   4.157   7.624   3.708
69417W        W36200  18.393  21.103  11.514
69418W        W36201  27.489   5.226  13.300
69419W        W36202   3.812   7.377  12.578
69420W        W36203  36.084  41.750  13.379
69421W        W36204   5.411  24.193   4.918
69422W        W36205  18.017  22.832  11.108
69423W        W36206  18.129  14.094   4.105
69424W        W36207  42.257  15.801   4.911
69425W        W36208   3.169  26.453  11.697
69426W        W36209  13.837  34.461   5.174
69427W        W36210  29.642   8.954   1.739
69428W        W36211  27.173  38.645  13.454
69429W        W36212  10.179   0.565  14.503
69430W        W36213   6.356  31.429   1.845
69431W        W36214  13.579  38.843  12.444
69432W        W36215  17.796  10.389  14.998
69433W        W36216  11.865  24.069  10.733
69434W        W36217  23.474   2.733   2.109
69435W        W36218  34.136   5.240   5.532
69436W        W36219   2.945  24.278   0.871
69437W        W36220  38.108  27.053  12.554
69438W        W36221   4.440  10.675  12.080
69439W        W36222  34.949  15.848  10.835
69440W        W36223   1.467  29.433  10.777
69441W        W36224   3.352  16.916   4.523
69442W        W36225  28.043   5.832   2.899
69443W        W36226  37.477  29.999  12.043
69444W        W36227  18.665  37.801   0.428
69445W        W36228  30.679  16.640  10.657
69446W        W36229  33.971   5.126  10.464
69447W        W36230  15.844  21.803   4.129
69448W        W36231  20.867   6.811   3.767
69449W        W36232  30.402  11.298   0.214
69450W        W36233  11.594  23.626  12.240
69451W        W36234  32.510  24.922   4.551
69452W        W36235  41.440   9.301  11.646
69453W        W36236   9.088   1.396   0.876
69454W        W36237  13.350   2.516   4.703
69455W        W36238  27.233  42.780   2.699
69456W        W36239  26.508   1.914  12.536
69457W        W36240  37.521  18.099   4.645
69458W        W36241  10.677  30.766  13.797
69459W        W36242  30.631  12.607   0.441
69460W        W36243  34.886  36.909  11.671
69461W        W36244  44.391  13.325   3.704
69462W        W36245   5.486  14.246   0.359
69463W        W36246  10.857  20.075  14.904
69464W        W36247  31.871  37.843   2.762
69465W        W36248  43.415  20.976  12.782
69466W        W36249  34.410  35.875   2.673
69467W        W36250  20.292  42.504  10.611
69468W        W36251  27.410   7.248   1.398
69469W        W36252  14.812  29.614   1.284
69470W        W36253  34.492  23.975  12.858
69471W        W36254  16.165  23.653  12.601
69472W        W36255   2.622  21.233  14.556
69473W        W36256  26.258  26.924  13.848
69474W        W36257  13.242  33.506  10.820
69475W        W36258  22.042  13.286  12.565
69476W        W36259  11.275  32.429  13.512
69477W        W36260   8.928  19.809   3.422
69478W        W36261  33.152   1.680   3.072
69479W        W36262  22.588  23.228   1.891
69480W        W36263  29.117  19.802  13.544
69481W        W36264  40.862   4.876   0.253
69482W        W36265  33.378  22.673   4.417
69483W        W36266  41.175   6.233  10.313
69484W        W36267  43.463   0.358  10.631
69485W        W36268  42.426  33.019   2.414
69486W        W36269  14.636  40.382   2.031
69487W        W36270  17.748  40.887  12.019
69488W        W36271  37.425  30.625  10.348
69489W        W36272  20.126  38.938  12.557
69490W        W36273  12.947   8.911  10.719
69491W        W36274  12.462  32.604  12.319
69492W        W36275   3.462  14.322  14.547
69493W        W36276  32.681  32.173  12.980
69494W        W36277   2.400  20.754  12.857
69495W        W36278  20.111  13.039  10.544
69496W        W36279  13.837  35.574   9.965
69497W        W36280  26.547  16.431  11.479
69498W        W36281  36.779  20.146   2.417
69499W        W36282  35.833   7.221   3.861
69500W        W36283  37.415  36.608  14.607
69501W        W36284  28.235   4.542  13.509
69502W        W36285  40.240  37.776   4.446
69503W        W36286  35.715  14.532   3.225
69504W        W36287   8.395  27.526  14.484
69505W        W36288  15.710  42.189   4.184
69506W        W36289  22.956  18.258  12.032
69507W        W36290   2.632  35.798   4.986
69508W        W36291  22.503  22.743   2.132
69509W        W36292   0.478  21.470  13.041
69510W        W36293   8.645  39.830  13.910
69511W        W36294  27.876  11.478   0.810
69512W        W36295   6.927   5.682  14.914
69513W        W36296  13.250   3.571   0.686
69514W        W36297  38.979  10.234  11.446
69515W        W36298   4.896  16.965   3.304
69516W        W36299   8.115  27.234  10.966
69517W        W36300  12.265  42.613  11.428
69518W        W36301  36.039  19.655   1.870
69519W        W36302   6.947  20.593   3.577
69520W        W36303  38.113  42.151   4.204
69521W        W36304  14.401  19.257   4.179
69522W        W36305   0.861  13.371  13.665
69523W        W36306  41.265   5.904   0.256
69524W        W36307   7.181  15.019  10.708
69525W        W36308  41.115  16.092   3.721
69526W        W36309  34.579   3.751   4.036
69527W        W36310  43.800   9.637   2.752
69528W        W36311  41.006  24.359   2.916
69529W        W36312  29.747  28.059  13.572
69530W        W36313  28.823  44.231  11.261
69531W        W36314  28.691  13.656   1.876
69532W        W36315  42.826  10.392   2.122
69533W        W36316  19.445  23.195  14.019
69534W        W36317  25.078   7.436  10.617
69535W        W36318  17.388   2.160   2.745
69536W        W36319   3.000  42.865   1.418
69537W        W36320  38.504  18.112  12.188
69538W        W36321  20.023   8.373   2.726
69539W        W36322   5.565  28.621  13.320
69540W        W36323  40.539  21.189   3.223
69541W        W36324  39.226  29.627   5.081
69542W        W36325  27.650  21.661  10.932
69543W        W36326  22.562  42.912  12.988
69544W        W36327  38.760  26.668   0.327
69545W        W36328   0.274  21.189  12.670
69546W        W36329   3.693  36.383  10.640
69547W        W36330  30.886  33.551  12.107
69548W        W36331  25.564  42.351  11.398
69549W        W36332   2.936   6.364   2.699
69550W        W36333  40.768  16.109   0.455
69551W        W36334   5.920  44.394   2.261
69552W        W36335  18.805  34.819   0.280
69553W        W36336   5.776  14.746   4.647
69554W        W36337  41.756  40.434  12.531
69555W        W36338  32.233   2.290   0.301
69556W        W36339   7.428   5.075  14.123
69557W        W36340  33.300  18.009   1.365
69558W        W36341   3.855  27.761   0.183
69559W        W36342  10.613  26.770  14.171
69560W        W36343   7.345  40.076  11.186
69561W        W36344  36.029  23.014   0.841
69562W        W36345  14.219  38.345  12.002
69563W        W36346   0.360  42.991  14.322
69564W        W36347  40.706   6.794  10.940
69565W        W36348  34.706   5.463  10.216
69566W        W36349   0.708  42.980  10.564
69567W        W36350  40.442  18.268   2.773
69568W        W36351  29.699  38.092   0.482
69569W        W36352  18.811  39.378  12.396
69570W        W36353  36.645  38.647  13.055
69571W        W36354  28.542  27.632   4.960
69572W        W36355  32.481  36.788  13.392
69573W        W36356  28.438  27.885   0.388
69574W        W36357  26.434   6.403   4.558
69575W        W36358  11.311   5.883   4.104
69576W        W36359   8.936  35.434  10.641
69577W        W36360  27.667  36.891  10.805
69578W        W36361   1.326  26.741  13.448
69579W        W36362  13.237   5.874  12.630
69580W        W36363  29.329   4.344  14.839
69581W        W36364  12.688  32.650   3.639
69582W        W36365  42.457   4.196   4.945
69583W        W36366   5.732  19.737  12.429
69584W        W36367  41.295  11.691   4.369
69585W        W36368  35.668  12.532   2.250
69586W        W36369  38.815  21.599   0.345
69587W        W36370  31.749  37.033  14.976
69588W        W36371  40.636  31.534  12.237
69589W        W36372  27.512   9.608  14.827
69590W        W36373  18.325  41.325  12.639
69591W        W36374  13.439  19.790   4.912
69592W        W36375  25.550   0.303   2.832
69593W        W36376  37.598  30.894   4.096
69594W        W36377  27.187  27.612  10.439
69595W        W36378   7.223   7.319  14.783
69596W        W36379  24.243  13.796  11.568
69597W        W36380  14.246   7.189  11.078
69598W        W36381  40.232  13.128   2.213
69599W        W36382  15.313   1.129  11.641
69600W        W36383  24.478  26.700  14.522
69601W        W36384  37.973  13.459  14.755
69602W        W36385  40.514  37.092  11.095
69603W        W36386  42.989  40.739  11.151
69604W        W36387  42.821   5.508  14.492
69605W        W36388   5.767  16.788   1.052
69606W        W36389   4.430  21.193  12.150
69607W        W36390   2.340  30.679   3.425
69608W        W36391  17.584  24.976  12.562
69609W        W36392  34.808   6.539  12.063
69610W        W36393  44.012  37.083  12.160
69611W        W36394  22.553  42.855  14.467
69612W        W36395  18.046  41.306  13.066
69613W        W36396  14.178   9.590   4.981
69614W        W36397  11.260  20.422  12.891
69615W        W36398  41.817  26.126  12.560
69616W        W36399  29.881  44.281   0.826
69617W        W36400  34.358   5.608   2.342
69618W        W36401   0.740  43.515  10.587
69619W        W36402  42.382  33.116   0.797
69620W        W36403  14.460  38.732   1.510
69621W        W36404  18.262  15.199  13.416
69622W        W36405  43.924   6.622   3.274
69623W        W36406  25.508  29.396  10.233
69624W        W36407  31.866  39.804  12.728
69625W        W36408  24.259  38.142  12.212
69626W        W36409  12.260  17.739   0.923
69627W        W36410  28.092  20.648   2.772
69628W        W36411  39.077  27.125  13.597
69629W        W36412  35.152  44.999   3.224
69630W        W36413  25.993  16.187   0.033
69631W        W36414  35.362  43.992   2.029
69632W        W36415  22.590  42.176   2.876
69633W        W36416  31.720  41.347  12.153
69634W        W36417  21.549   9.779   0.444
69635W        W36418  29.166  32.125   0.461
69636W        W36419  36.491  18.207   4.461
69637W        W36420  39.098   3.023   2.306
69638W        W36421   3.915   4.797  12.487
69639W        W36422  30.552  26.681  14.336
69640W        W36423  18.601  14.274  14.588
69641W        W36424   4.718   0.212   2.400
69642W        W36425   8.401  33.510  12.099
69643W        W36426  18.577  42.928   3.834
69644W        W36427  26.323  35.401   1.312
69645W        W36428  37.778  32.026   4.502
69646W        W36429  23.123  21.002  12.890
69647W        W36430  25.736  17.517  11.166
69648W        W36431  35.137  11.709   0.030
69649W        W36432  38.655   5.235   1.644
69650W        W36433  28.381  23.226   3.812
69651W        W36434  34.178  26.685   1.939
69652W        W36435  12.541  16.926   1.917
69653W        W36436  35.280  20.987  12.453
69654W        W36437  42.866  21.262  14.342
69655W        W36438  32.025  26.645   3.778
69656W        W36439  15.085  34.409   5.037
69657W        W36440  32.096  16.342   3.214
69658W        W36441  28.000  27.665   0.574
69659W        W36442   0.434  18.681  13.285
69660W        W36443   0.949  21.800   2.228
69661W        W36444  17.292  39.974  10.682
69662W        W36445  20.517  36.768   1.527
69663W        W36446  10.899  11.225  12.258
69664W        W36447   0.159  41.730   1.402
69665W        W36448  17.302   9.180  10.564
69666W        W36449   4.923   9.909   0.866
69667W        W36450   6.929  18.802  14.026
69668W        W36451  40.462  10.834  10.688
69669W        W36452   2.500  33.414  10.989
69670W        W36453  31.685  32.599  11.810
69671W        W36454  21.070  37.113  14.899
69672W        W36455  42.574  27.505   0.940
69673W        W36456  19.295   5.409   3.623
69674W        W36457  33.797  41.227   2.615
69675W        W36458   8.455  35.231   2.216
69676W        W36459  20.941  16.303   2.703
69677W        W36460  33.196  32.105   1.741
69678W        W36461  24.196   0.260   0.339
69679W        W36462  25.975   3.288   3.685
69680W        W36463  37.155   7.251  11.327
69681W        W36464  41.320   8.719   0.963
69682W        W36465  13.835  36.659  12.840
69683W        W36466  43.958  38.111   3.807
69684W        W36467  23.847  18.716  13.835
69685W        W36468  31.621  20.191  12.403
69686W        W36469  31.643  11.710   0.803
69687W        W36470  37.559  11.358  11.204
69688W        W36471  16.582  44.526   0.422
69689W        W36472   6.348   6.580   3.968
69690W        W36473  37.836  25.170   1.371
69691W        W36474  30.487  44.425   3.289
69692W        W36475  37.503  17.072  14.283
69693W        W36476   9.805  14.378   3.441
69694W        W36477  11.292   7.093  14.286
69695W        W36478  31.035  15.313  14.540
69696W        W36479  14.916   7.654   1.217
69697W        W36480   2.861  16.051   3.717
69698W        W36481  20.189  42.920  11.564
69699W        W36482  23.942  15.311   1.909
69700W        W36483  38.195   6.806   4.632
69701W        W36484  16.541  17.181   3.131
69702W        W36485  21.543   6.620   2.693
69703W        W36486  32.825  14.336  11.495
69704W        W36487  31.087  14.754  11.945
69705W        W36488   4.310  23.275  10.686
69706W        W36489   9.878   8.161   0.454
69707W        W36490  21.147  17.449   0.812
69708W        W36491   1.491   4.374   0.385
69709W        W36492  20.487  25.011   3.664
69710W        W36493  28.519  34.276   3.726
69711W        W36494  12.522  37.782   3.078
69712W        W36495  44.946  44.106   0.499
69713W        W36496   6.427   1.501   0.451
69714W        W36497  41.064  44.054  14.110
69715W        W36498   8.247  35.362   4.612
69716W        W36499  42.441   7.761   2.756
69717W        W36500  35.933  24.453   3.681
69718W        W36501  22.565  15.883  11.002
69719W        W36502   8.417  42.874   2.646
69720W        W36503   7.852  25.929  13.498
69721W        W36504  30.934  18.249  12.026
69722W        W36505  38.419  15.730  14.486
69723W        W36506  34.811   7.689   1.878
69724W        W36507  35.008  35.863  12.928
69725W        W36508  34.396  19.381   2.826
69726W        W36509  29.611  22.512  12.069
69727W        W36510  44.363  38.337   4.132
69728W        W36511   5.578  42.042  10.754
69729W        W36512  19.824  16.682   4.224
69730W        W36513   8.119  31.777  13.387
69731W        W36514  17.832  44.422   0.932
69732W        W36515  27.645   8.349   1.679
69733W        W36516  41.888  26.031  13.126
69734W        W36517  15.285  10.039   2.296
69735W        W36518  15.621  20.580   2.742
69736W        W36519  31.314  11.508   1.819
69737W        W36520   6.420  18.764  10.786
69738W        W36521  39.030   4.811  12.285
69739W        W36522  25.109  44.187  14.350
69740W        W36523  41.980  32.875   1.761
69741W        W36524  39.962  39.097  12.978
69742W        W36525  27.954  20.649  10.982
69743W        W36526  10.141  14.811   2.028
69744W        W36527   2.538  24.187  11.086
69745W        W36528   0.787  10.849   2.083
69746W        W36529  14.867  41.591   5.100
69747W        W36530  37.390   5.282   2.825
69748W        W36531  19.731   2.538  13.844
69749W        W36532  19.807  32.963   0.496
69750W        W36533   7.045   3.245  13.795
69751W        W36534  12.203  43.862   3.282
69752W        W36535  36.024  36.343  13.340
69753W        W36536  27.735  27.164   2.335
69754W        W36537  43.107  39.667  13.410
69755W        W36538  22.757  30.626  11.526
69756W        W36539  17.808  25.388   4.073
69757W        W36540   9.226   7.232  14.986
69758W        W36541  29.728  28.111   3.311
69759W        W36542   2.001  24.471  13.882
69760W        W36543  40.415  39.324   1.857
69761W        W36544  38.472   0.196  13.312
69762W        W36545   6.067  12.256  12.308
69763W        W36546  26.646  35.428  12.512
69764W        W36547  44.413  34.205  14.237
69765W        W36548  22.069  32.878   3.215
69766W        W36549  42.900  17.589   5.335
69767W        W36550  36.106  34.400   0.327
69768W        W36551   0.040  17.163   5.029
69769W        W36552  44.899  41.030   0.430
69770W        W36553   0.820  13.827   1.368
69771W        W36554  34.188  34.305  12.102
69772W        W36555  28.637  39.618   2.767
69773W        W36556  36.958   1.169   2.773
69774W        W36557  14.901  25.047   3.161
69775W        W36558   1.489   8.265  11.576
69776W        W36559  31.322   8.197   0.874
69777W        W36560  40.040  35.869  12.421
69778W        W36561   2.384  24.023   3.295
69779W        W36562   3.352  30.052  13.425
69780W        W36563  31.243  43.739   0.324
69781W        W36564  35.446  41.074   3.370
69782W        W36565  12.295  42.448   4.810
69783W        W36566  20.737  16.332  11.935
69784W        W36567  42.458   8.632  12.055
69785W        W36568  37.493  43.339   0.465
69786W        W36569  32.633  38.024   0.802
69787W        W36570   2.467  13.682   2.253
69788W        W36571   6.383  29.488  10.719
69789W        W36572  27.632  25.110   4.183
69790W        W36573   6.747  13.959   5.088
69791W        W36574  19.109  23.495   0.844
69792W        W36575   1.574  28.027   1.351
69793W        W36576   9.340  44.812  14.404
69794W        W36577   9.151   1.768  11.528
69795W        W36578  39.695  21.561   1.876
69796W        W36579  29.828  19.384  11.248
69797W        W36580  29.516  40.884   1.406
69798W        W36581  32.446  39.841  14.944
69799W        W36582  43.326  30.620  13.002
69800W        W36583  32.472  37.885  11.931
69801W        W36584   6.721  10.566  13.437
69802W        W36585  20.553  44.877   1.433
69803W        W36586  25.176  42.824  10.768
69804W        W36587  13.337  43.947   2.899
69805W        W36588   5.832   6.093  12.901
69806W        W36589  11.614   6.443  12.048
69807W        W36590  38.456  43.975   3.215
69808W        W36591  17.587  10.283  13.499
69809W        W36592  12.095  26.232  14.341
69810W        W36593  10.925   5.720  13.537
69811W        W36594  23.568  30.509   3.334
69812W        W36595   9.293  14.081  12.854
69813W        W36596  23.762  14.923   2.861
69814W        W36597  11.207  44.957  13.535
69815W        W36598  18.296  23.724  13.651
69816W        W36599  38.051  33.609   0.819
69817W        W36600  40.005   4.674  14.626
69818W        W36601  42.806  28.869  13.305
69819W        W36602   5.413  39.850   0.479
69820W        W36603  35.277   4.259   4.188
69821W        W36604  29.581  22.558  14.008
69822W        W36605  21.775  20.765  13.426
69823W        W36606  17.320   9.221   2.704
69824W        W36607  16.251   6.132  14.993
69825W        W36608  41.438  34.883   4.664
69826W        W36609  25.023   5.950   0.546
69827W        W36610  30.634   5.463  14.909
69828W        W36611   9.597  18.643  14.950
69829W        W36612  32.534   0.718  10.734
69830W        W36613  17.771  21.555  14.725
69831W        W36614  36.522  11.766  10.471
69832W        W36615  16.597  20.847   3.658
69833W        W36616  13.492  31.022   2.932
69834W        W36617  28.925  10.626   3.849
69835W        W36618  13.867  39.112   1.161
69836W        W36619  19.272  43.292  11.659
69837W        W36620  17.772   4.928  10.379
69838W        W36621  22.099  13.856  11.474
69839W        W36622  39.411  25.048   4.056
69840W        W36623  34.668  13.526   2.351
69841W        W36624  37.476  32.447   4.548
69842W        W36625  31.836  37.510  11.323
69843W        W36626  36.048  25.421   2.459
69844W        W36627  22.319   5.130  10.867
69845W        W36628  43.285  24.264   2.321
69846W        W36629   5.400  38.673  13.060
69847W        W36630  11.694  30.606  10.331
69848W        W36631  12.120   7.580  14.292
69849W        W36632   8.887  40.410  12.029
69850W        W36633  15.206  36.615   2.008
69851W        W36634  38.560  17.156  14.446
69852W        W36635  33.646  12.836  12.800
69853W        W36636  10.675   6.534   3.703
69854W        W36637   3.675  20.082  11.843
69855W        W36638  14.221  18.669   2.178
69856W        W36639  21.313  23.976   2.405
69857W        W36640  44.830  14.724  11.914
69858W        W36641   6.072  20.224   4.696
69859W        W36642  12.299  19.241  14.329
69860W        W36643  22.502  14.053   0.680
69861W        W36644  31.922  15.544  12.455
69862W        W36645  44.060  34.203  13.172
69863W        W36646  24.649  37.302  12.131
69864W        W36647   0.945  14.845   1.201
69865W        W36648  34.297  28.870  11.042
69866W        W36649  38.078  32.160   1.719
69867W        W36650  33.120  16.408  11.008
69868W        W36651  23.664  32.007  14.560
69869W        W36652  16.152  22.770  13.871
69870W        W36653  36.432  35.351   2.758
69871W        W36654  32.000  33.642   1.273
69872W        W36655  39.593  44.264   1.818
69873W        W36656  30.025  31.451  14.777
69874W        W36657  10.706  41.988  13.779
69875W        W36658  28.824  28.751   3.530
69876W        W36659  15.967  21.116  12.986
69877W        W36660  31.505  11.281  10.889
69878W        W36661  34.472  36.053   4.666
69879W        W36662  12.822  25.422   2.286
69880W        W36663  25.575  11.182   2.220
69881W        W36664  18.037  18.445   2.195
69882W        W36665  18.556  23.578   3.919
69883W        W36666  20.079  42.902   3.911
69884W        W36667  12.350  15.110   3.782
69885W        W36668  22.460   1.182  10.134
69886W        W36669  13.351  13.895   4.059
69887W        W36670  10.820  16.272  13.400
69888W        W36671  15.657  30.978  11.539
69889W        W36672  20.612   7.738   4.457
69890W        W36673  17.095   6.669  12.445
69891W        W36674  40.677  18.023   4.805
69892W        W36675  34.961  24.477  14.367
69893W        W36676   0.479  39.383   4.894
69894W        W36677  21.645   0.914   1.859
69895W        W36678   2.256  38.270  11.889
69896W        W36679   4.207  44.916  11.672
69897W        W36680  37.439  20.455  11.192
69898W        W36681  11.090  28.059  10.172
69899W        W36682  35.981  20.749   0.993
69900W        W36683  10.778  23.469   1.495
69901W        W36684  34.446  19.050   0.901
69902W        W36685  28.303  18.465   1.000
69903W        W36686  10.433   7.646  14.554
69904W        W36687   9.617   4.679  11.097
69905W        W36688  37.852  42.442   0.774
69906W        W36689   8.804  19.578  12.883
69907W        W36690   0.697  14.377   9.928
69908W        W36691   4.466  12.576  12.975
69909W        W36692  26.151  32.810  12.969
69910W        W36693  35.439   3.004  11.575
69911W        W36694  15.049  24.964  10.324
69912W        W36695   3.916   3.628   2.965
69913W        W36696   2.232  34.332   2.315
69914W        W36697  27.760  11.851   3.649
69915W        W36698  20.278  44.523  13.736
69916W        W36699  38.798  40.327   3.778
69917W        W36700   3.870  17.554  11.620
69918W        W36701  16.983  18.594  13.455
69919W        W36702  30.527  29.870  13.438
69920W        W36703  29.146   6.241  10.622
69921W        W36704  13.586  35.759   5.060
69922W        W36705  27.902  24.219   3.266
69923W        W36706   8.345  42.718   4.804
69924W        W36707  19.020  30.546  14.374
69925W        W36708   6.832   9.916  14.902
69926W        W36709   8.496   4.293   1.945
69927W        W36710   2.530  31.413  13.941
69928W        W36711  39.959   8.799  13.107
69929W        W36712   9.107   2.191   1.198
69930W        W36713  32.104  37.015  11.142
69931W        W36714   7.417   4.881  10.622
69932W        W36715  36.871  42.042  14.513
69933W        W36716  34.157  32.107  13.106
69934W        W36717   0.271  44.897   0.263
69935W        W36718  35.805  17.525  12.147
69936W        W36719  39.265  15.528  14.374
69937W        W36720  42.507  12.060  12.964
69938W        W36721  35.375  39.888  12.985
69939W        W36722   2.758   4.341   3.871
69940W        W36723   6.302  32.808   2.275
69941W        W36724  16.275  33.188   3.666
69942W        W36725  28.709  12.174   3.845
69943W        W36726  32.080  24.867   4.847
69944W        W36727  30.992   7.768  10.891
69945W        W36728  11.029  14.305   0.380
69946W        W36729   8.823  30.103   4.365
69947W        W36730  15.662  28.536  14.033
69948W        W36731  18.893  39.903   3.811
69949W        W36732   8.853  27.073  14.052
69950W        W36733  27.630  44.065  12.821
69951W        W36734  32.936  20.847  12.198
69952W        W36735   5.392  34.808   1.690
69953W        W36736   9.847   3.174   4.105
69954W        W36737  44.284   4.795   3.266
69955W        W36738   1.719  19.627  11.416
69956W        W36739   3.389  32.395   4.420
69957W        W36740  21.846  15.203  10.623
69958W        W36741  33.905   9.832  14.046
69959W        W36742  27.514  29.598   2.768
69960W        W36743  38.406  41.802   3.797
69961W        W36744  20.073  20.285   0.787
69962W        W36745  21.636  25.723   2.785
69963W        W36746  14.031   4.934  13.886
69964W        W36747  25.505  11.053  12.542
69965W        W36748  34.398  41.455   1.356
69966W        W36749  24.360  32.077  10.164
69967W        W36750  39.427  18.101  13.536
69968W        W36751  43.929   7.313  13.033
69969W        W36752  20.337   1.294   3.136
69970W        W36753  32.074   9.747  14.462
69971W        W36754   3.300  35.177   2.659
69972W        W36755  20.085  19.783   4.045
69973W        W36756  32.842  41.931  13.183
69974W        W36757  28.020  15.386  12.551
69975W        W36758  20.181  21.211   2.198
69976W        W36759  18.864  15.288   1.405
69977W        W36760   1.459  29.730  12.059
69978W        W36761  11.109  12.248   4.807
69979W        W36762  23.145  17.702   1.939
69980W        W36763   1.237  24.400   0.858
69981W        W36764  13.963   2.489  12.637
69982W        W36765  24.109   1.317   2.860
69983W        W36766  11.723   3.457   5.125
69984W        W36767   0.320  14.916   2.730
69985W        W36768  29.154  11.680   1.731
69986W        W36769  24.224   8.411  10.722
69987W        W36770   6.992  40.994   2.681
69988W        W36771  17.714  40.919   0.834
69989W        W36772  18.079   5.697  13.967
69990W        W36773  43.989  37.529   0.272
69991W        W36774  42.397  33.363   3.289
69992W        W36775   1.304  42.459   3.246
69993W        W36776  33.608  20.141  13.087
69994W        W36777   6.579  35.851  10.531
69995W        W36778  42.537  18.004  10.676
69996W        W36779   3.153  42.357   3.353
69997W        W36780  25.632  32.895   0.551
69998W        W36781  18.231   1.183  10.540
69999W        W36782  11.561  24.508   4.230
70000W        W36783  18.660  36.318   4.114
70001W        W36784  24.486   9.733   2.317
70002W        W36785  23.208  43.340  10.746
70003W        W36786  14.167  17.012   3.726
70004W        W36787  13.304  15.323   3.364
70005W        W36788   9.864  13.833  14.029
70006W        W36789   9.698  12.680  11.162
70007W        W36790  39.293  39.713   0.238
70008W        W36791  23.993   6.188  12.888
70009W        W36792  32.915  36.445   1.784
70010W        W36793  11.161  44.673   1.956
70011W        W36794  14.643  17.281  13.308
70012W        W36795  23.447  23.700   4.165
70013W        W36796  21.138  44.537  14.857
70014W        W36797   5.434   4.888   3.702
70015W        W36798  29.042  20.104  12.955
70016W        W36799  38.382  25.241   2.236
70017W        W36800  33.324   0.328   0.450
70018W        W36801   2.274  27.166   4.234
70019W        W36802  39.842  27.337   0.810
70020W        W36803  12.511   7.105   4.926
70021W        W36804  24.915  38.363   1.875
70022W        W36805   2.425  33.419  11.976
70023W        W36806  34.852  25.734  14.847
70024W        W36807  19.656  19.143  12.664
70025W        W36808  13.141   6.190  10.989
70026W        W36809  33.437   0.666   2.185
70027W        W36810   1.811   9.427  10.332
70028W        W36811   7.135  15.113  14.840
70029W        W36812  18.629  24.490  14.043
70030W        W36813  28.274  40.397   1.745
70031W        W36814  38.373  34.978   4.627
70032W        W36815  28.090   4.316   4.439
70033W        W36816  22.301  34.508  12.823
70034W        W36817   7.752   8.160   2.987
70035W        W36818   2.217   0.766  12.861
70036W        W36819  29.373   5.231   1.425
70037W        W36820  25.532  30.383  10.673
70038W        W36821  18.102   9.314   1.397
70039W        W36822  34.903  40.314  11.698
70040W        W36823   5.768  18.307   4.637
70041W        W36824   7.845  16.578  11.611
70042W        W36825   1.531  33.526  11.886
70043W        W36826  14.885   9.293  13.485
70044W        W36827  23.605   0.420  12.562
70045W        W36828  32.360  18.690   0.693
70046W        W36829  20.077   5.460   4.017
70047W        W36830  41.717  36.421   1.284
70048W        W36831  34.739  19.529  10.422
70049W        W36832  36.442  17.075  12.535
70050W        W36833  30.593  33.134   0.018
70051W        W36834  13.075   9.195   2.262
70052W        W36835  25.305   2.038  13.027
70053W        W36836  16.190  11.324   0.007
70054W        W36837  41.724  19.091  14.875
70055W        W36838  28.637  12.195  13.572
70056W        W36839   1.216  16.459   1.007
70057W        W36840  10.913  24.160  11.665
70058W        W36841  39.591  29.016  14.847
70059W        W36842  23.216  10.456  14.077
70060W        W36843   8.333  24.122  13.829
70061W        W36844  18.328  25.632  11.739
70062W        W36845  24.114  29.396   0.217
70063W        W36846  44.033   1.054   0.832
70064W        W36847   8.791  29.379   5.030
70065W        W36848   6.644  40.419   4.184
70066W        W36849  30.007  12.871  13.064
70067W        W36850  22.979  21.489  12.879
70068W        W36851  42.124   0.914  10.648
70069W        W36852  21.068  12.106  13.498
70070W        W36853  33.954   6.057   1.815
70071W        W36854  32.217  16.100  11.038
70072W        W36855  37.940  24.578  13.511
70073W        W36856  14.406  15.532  13.393
70074W        W36857  30.520  12.297  11.117
70075W        W36858   2.742   1.956   0.693
70076W        W36859  37.796  13.137   1.802
70077W        W36860  29.890   3.628  11.639
70078W        W36861  27.593  37.311  13.507
70079W        W36862  36.354  40.930   4.907
70080W        W36863  17.628   9.967  11.615
70081W        W36864   2.684  13.682  11.677
70082W        W36865  42.800  20.065   3.207
70083W        W36866  21.579  10.657   2.688
70084W        W36867  32.143  16.893   0.175
70085W        W36868  35.573  26.026   2.889
70086W        W36869  18.284  26.423   1.036
70087W        W36870  18.146  32.460  13.921
70088W        W36871  36.857  31.616  13.029
70089W        W36872  19.685  18.959   4.278
70090W        W36873  32.646  35.058  13.944
70091W        W36874  17.665  25.853  10.614
70092W        W36875  14.908  21.639   2.794
70093W        W36876   8.161  32.514   3.528
70094W        W36877   4.806  14.803   1.308
70095W        W36878  10.253  42.985  11.265
70096W        W36879   3.206  43.466   2.198
70097W        W36880  16.461  40.911   0.377
70098W        W36881   1.418   6.935   5.058
70099W        W36882   0.272  41.899  11.118
70100W        W36883  22.227  29.933  13.499
70101W        W36884  13.589  43.035  12.915
70102W        W36885  30.633  41.995   2.411
70103W        W36886  37.954   8.662   0.405
70104W        W36887  13.390  32.076   4.143
70105W        W36888   1.164  22.729  11.942
70106W        W36889  30.133  39.345   3.288
70107W        W36890  41.992   9.553  13.883
70108W        W36891  38.779  18.899  11.515
70109W        W36892  21.196   8.132  12.977
70110W        W36893   7.918  36.156  11.687
70111W        W36894   9.551  26.447  11.195
70112W        W36895  33.421  40.582  14.457
70113W        W36896   9.763   1.414   0.292
70114W        W36897  42.858  12.815  13.964
70115W        W36898   6.465  43.753   0.001
70116W        W36899   5.309  24.973  11.675
70117W        W36900  33.159  34.091  12.589
70118W        W36901   8.361  44.839  10.610
70119W        W36902  33.347   0.162   2.196
70120W        W36903  25.677  42.965  10.592
70121W        W36904  10.347  18.169  13.854
70122W        W36905  13.286  18.755   0.860
70123W        W36906  20.580  27.117  12.854
70124W        W36907  38.310  37.085  10.869
70125W        W36908  13.532  28.606  12.632
70126W        W36909   6.412  23.649   0.480
70127W        W36910  35.242   7.764   0.507
70128W        W36911  27.641  42.757  12.986
70129W        W36912  29.038  24.093   1.159
70130W        W36913  24.479   2.740  12.519
70131W        W36914  39.060  41.453  14.424
70132W        W36915  11.380   8.155  12.515
70133W        W36916   7.407  12.357   4.276
70134W        W36917  20.085  29.112  12.010
70135W        W36918  12.239   1.776   4.585
70136W        W36919  19.556  11.173  11.594
70137W        W36920   0.891  12.241  10.325
70138W        W36921  34.064  18.134   4.164
70139W        W36922  34.376  29.605   1.739
70140W        W36923  31.497  18.619   4.036
70141W        W36924   8.134  13.670   0.694
70142W        W36925  31.974   0.871  13.871
70143W        W36926  38.770  10.229   2.704
70144W        W36927  20.752  28.029   3.805
70145W        W36928  24.316  17.033   0.345
70146W        W36929  36.004  44.402   3.907
70147W        W36930   4.756   3.991   1.290
70148W        W36931   8.244  43.031   0.923
70149W        W36932  17.314  17.092  14.060
70150W        W36933  24.464  18.320  12.077
70151W        W36934   6.386  31.399   4.209
70152W        W36935  35.468  12.813  11.270
70153W        W36936  24.348   0.715  12.475
70154W        W36937  23.143  18.821   1.827
70155W        W36938  36.135  36.904   2.641
70156W        W36939  21.281  41.976  14.088
70157W        W36940  39.891  40.879   3.192
70158W        W36941  38.010   3.977   0.983
70159W        W36942  16.770   3.947  13.357
70160W        W36943  15.109  11.252  11.305
70161W        W36944  42.880   5.220   1.460
70162W        W36945   3.862  36.661   4.796
70163W        W36946  43.425  17.975  11.402
70164W        W36947  16.182  38.587   1.644
70165W        W36948   3.700  13.219   1.943
70166W        W36949  15.011  13.836   4.783
70167W        W36950  39.308  18.181   2.721
70168W        W36951  28.971   0.042  14.533
70169W        W36952  42.803  12.524  14.893
70170W        W36953  24.584   9.172   3.953
70171W        W36954  19.643  26.613  11.376
70172W        W36955   2.858  20.198   0.133
70173W        W36956  31.142   5.915   4.937
70174W        W36957  40.860  31.178  11.324
70175W        W36958  37.395  34.971  13.438
70176W        W36959  43.387  29.258   3.947
70177W        W36960   0.354   0.259   3.690
70178W        W36961   3.930  13.866   3.890
70179W        W36962  35.087  24.969  14.454
70180W        W36963  32.975  22.924  14.491
70181W        W36964  38.801  21.297   1.389
70182W        W36965   4.395  41.521   1.226
70183W        W36966  34.845  32.262   4.831
70184W        W36967  27.128   5.484  13.007
70185W        W36968  26.685  22.249  11.743
70186W        W36969  19.986  26.512   4.645
70187W        W36970  14.023   9.357  14.344
70188W        W36971  23.769  13.142  13.355
70189W        W36972  23.224  40.937  11.981
70190W        W36973  38.940   5.285  12.481
70191W        W36974   0.216  31.596  14.810
70192W        W36975  24.189  36.419   1.727
70193W        W36976  10.295  34.316   0.694
70194W        W36977  12.374   0.807  12.403
70195W        W36978  30.414  37.339  11.968
70196W        W36979  32.066   7.884   4.651
70197W        W36980  20.151  16.862  13.623
70198W        W36981  15.859  19.233  14.817
70199W        W36982   6.721  12.902  10.538
70200W        W36983  34.133  23.201   2.387
70201W        W36984  35.656   2.199  14.527
70202W        W36985  19.639  42.794   4.770
70203W        W36986  31.610  26.935  12.563
70204W        W36987  30.860  33.706   3.203
70205W        W36988  41.061  27.227  11.088
70206W        W36989  44.256   5.335   1.698
70207W        W36990  19.328   0.718  11.170
70208W        W36991  35.347   5.897  12.836
70209W        W36992  43.489  26.886  12.298
70210W        W36993  26.480  44.875  13.442
70211W        W36994   0.795  41.830  11.394
70212W        W36995  38.888  14.590  10.285
70213W        W36996   2.931   3.415   0.505
70214W        W36997  18.054  30.577  14.555
70215W        W36998  10.658  44.278   0.493
70216W        W36999  19.013  27.479  11.692
70217W        W37000  10.659  20.736   3.340
70218W        W37001  20.041   6.150   1.708
70219W        W37002   6.601  30.362  10.172
70220W        W37003  12.723  14.162  12.405
70221W        W37004   3.647  38.151  11.950
70222W        W37005  15.149  39.841   4.571
70223W        W37006  38.505  32.278  14.108
70224W        W37007   8.984  30.553   3.675
70225W        W37008  21.175  25.983   2.864
70226W        W37009  13.629  41.818  11.584
70227W        W37010  15.815  33.356  13.520
70228W        W37011  31.038  20.664   4.862
70229W        W37012  43.492  13.245   3.195
70230W        W37013  27.578   6.071  11.148
70231W        W37014   3.022  41.455  12.445
70232W        W37015  44.867  22.712  11.722
70233W        W37016  31.024  43.527   0.774
70234W        W37017  44.739  14.029  11.952
70235W        W37018   6.834  34.330  11.104
70236W        W37019  42.292   9.527   5.044
70237W        W37020  41.569   3.920  12.976
70238W        W37021  30.182  35.933  11.244
70239W        W37022  41.522  38.096  13.925
70240W        W37023  31.518  26.016   2.312
70241W        W37024  27.646  25.901  13.972
70242W        W37025   2.446  18.333  12.054
70243W        W37026  16.147   1.514   5.138
70244W        W37027  10.425   9.386   3.724
70245W        W37028  30.469  30.856  11.088
70246W        W37029  23.362  36.085  12.413
70247W        W37030  27.525  34.529   2.367
70248W        W37031  22.901  42.752  12.381
70249W        W37032  11.342  43.399  11.875
70250W        W37033  27.127   0.433   3.590
70251W        W37034  44.338   7.930  14.366
70252W        W37035  44.701  16.751   1.055
70253W        W37036  42.774  29.908  11.707
70254W        W37037  42.823   0.732  13.776
70255W        W37038  40.743   1.902   4.259
70256W        W37039   2.261   9.725   0.429
70257W        W37040  36.605  40.352   0.203
70258W        W37041  12.089  40.857   4.735
70259W        W37042  32.960  10.314  11.188
70260W        W37043  40.533  20.217  12.564
70261W        W37044  17.773  34.303  11.022
70262W        W37045  33.609  36.823   1.900
70263W        W37046  32.222   7.852   0.763
70264W        W37047  44.491  16.814   3.250
70265W        W37048   6.185  25.222   1.328
70266W        W37049   8.714  40.294   3.288
70267W        W37050  27.699   0.255  10.085
70268W        W37051  34.545  10.859  13.975
70269W        W37052  26.521   5.277  11.260
70270W        W37053   4.240  30.674  11.481
70271W        W37054  43.052  37.792   2.478
70272W        W37055  14.764  17.537  11.449
70273W        W37056  36.376  44.392   3.120
70274W        W37057   9.282   3.726  13.019
70275W        W37058  35.340  28.434   4.109
70276W        W37059  17.722  33.157  11.633
70277W        W37060  24.012  29.379   2.817
70278W        W37061  24.522  11.145  13.098
70279W        W37062   0.684  35.380   0.437
70280W        W37063   3.278  15.926   0.246
70281W        W37064  14.820  33.399  12.057
70282W        W37065  28.421  26.502  14.432
70283W        W37066   7.466  12.507  11.149
70284W        W37067  29.904  34.619  12.790
70285W        W37068  43.907   3.711  14.879
70286W        W37069  12.320  13.527  14.248
70287W        W37070  15.140   1.900   1.378
70288W        W37071  24.168  32.020  11.114
70289W        W37072  13.780  14.697   3.444
70290W        W37073  13.560  14.394  13.972
70291W        W37074   1.670  37.881   0.005
70292W        W37075   2.054  31.767  14.396
70293W        W37076  14.344  34.935   3.531
70294W        W37077  27.724  13.065   0.008
70295W        W37078  26.873  18.712   4.563
70296W        W37079   8.837  16.691  10.626
70297W        W37080  37.883  25.678   2.792
70298W        W37081  29.603  42.071   0.496
70299W        W37082  44.937  39.213   4.555
70300W        W37083  22.529  25.123   9.855
70301W        W37084  41.549  35.169  11.231
70302W        W37085  28.198  37.886  13.098
70303W        W37086  18.700  29.586   1.100
70304W        W37087  17.071  44.387   0.285
70305W        W37088   3.778  21.720   1.409
70306W        W37089   5.899  21.122  10.545
70307W        W37090  37.038  26.432   0.484
70308W        W37091  37.453  44.775  13.035
70309W        W37092   1.168  41.422   1.279
70310W        W37093  22.043  30.621  14.961
70311W        W37094  29.120  40.818  12.032
70312W        W37095  44.513  23.209   2.545
70313W        W37096   0.295  43.983  11.514
70314W        W37097  44.863   1.326  11.228
70315W        W37098  35.510   6.787  14.984
70316W        W37099   8.235   9.197  11.110
70317W        W37100  44.303  28.403  10.564
70318W        W37101  36.450  31.443   2.264
70319W        W37102  17.741  42.057   1.285
70320W        W37103  13.807  39.475   0.769
70321W        W37104  24.344  31.687  10.506
70322W        W37105   8.660  22.115   4.427
70323W        W37106   4.474   0.926  14.549
70324W        W37107   5.440   3.692   0.967
70325W        W37108  37.788  21.191  10.958
70326W        W37109   7.305  11.887  13.491
70327W        W37110  43.021  18.486  11.094
70328W        W37111   0.041   1.910   1.363
70329W        W37112  21.487   0.361   0.007
70330W        W37113  18.968  26.617  10.751
70331W        W37114  35.029  10.575  12.910
70332W        W37115  10.264  17.028  12.006
70333W        W37116  31.485  12.976  13.172
70334W        W37117  21.235  30.945  12.951
70335W        W37118   7.597  30.843   1.425
70336W        W37119   5.912  37.905   4.045
70337W        W37120  23.173  38.096   4.083
70338W        W37121  17.322  37.009   2.842
70339W        W37122  33.223  39.977   4.468
70340W        W37123  15.406  15.236  14.054
70341W        W37124  34.531  19.157   1.408
70342W        W37125   1.754   3.030   0.048
70343W        W37126   1.848  28.895   4.842
70344W        W37127  18.176  37.078  12.426
70345W        W37128  39.869  19.490   2.685
70346W        W37129   6.769  37.593   3.229
70347W        W37130  14.579  34.012   3.328
70348W        W37131  15.308  29.477   1.300
70349W        W37132  21.350   9.310   0.769
70350W        W37133   7.405  43.818   4.594
70351W        W37134  15.741  11.869   2.748
70352W        W37135  15.113   7.152   1.081
70353W        W37136  22.139   3.478   3.629
70354W        W37137  26.289  35.562   2.241
70355W        W37138  24.441  34.899  11.547
70356W        W37139  23.613  31.503   2.254
70357W        W37140  14.777   7.583   9.911
70358W        W37141  16.207  22.958  10.601
70359W        W37142  15.045   7.898  14.397
70360W        W37143  29.356  39.389   1.853
70361W        W37144  16.054  35.797   3.431
70362W        W37145  18.270   7.425  14.334
70363W        W37146  41.509  43.014   3.342
70364W        W37147  14.318  36.280  10.862
70365W        W37148  41.445  13.890   3.092
70366W        W37149  43.022  10.217   1.161
70367W        W37150  20.656  28.586   3.132
70368W        W37151  38.343  36.610  10.671
70369W        W37152  16.655  27.372   0.986
70370W        W37153  34.643  18.169   0.498
70371W        W37154   5.775  30.425   1.215
70372W        W37155  25.451  39.563  11.569
70373W        W37156  32.105   0.673   1.225
70374W        W37157  21.924  37.303  12.948
70375W        W37158  41.080  37.153  12.964
70376W        W37159  12.335  39.894  10.626
70377W        W37160  13.608  26.383  12.572
70378W        W37161  31.857  25.120   4.115
70379W        W37162  24.180   1.508  14.970
70380W        W37163  37.688  12.228  12.056
70381W        W37164  11.688  40.888  11.739
70382W        W37165  40.511  31.123   3.818
70383W        W37166  44.727   3.202   3.800
70384W        W37167  24.374  37.596   1.867
70385W        W37168   3.278  33.458   1.297
70386W        W37169  18.339  11.914   0.297
70387W        W37170  38.797  20.726  13.065
70388W        W37171  27.043  23.758   2.901
70389W        W37172   1.256  43.950  14.822
70390W        W37173  43.838  41.122  11.154
70391W        W37174  39.075   1.567   0.382
70392W        W37175  17.636  18.831   2.337
70393W        W37176  17.180  12.711  10.020
70394W        W37177  16.081  33.178   1.244
70395W        W37178  13.414  42.089   3.384
70396W        W37179  24.699   5.447   0.291
70397W        W37180  30.938  17.457  13.077
70398W        W37181  28.589  14.749  12.100
70399W        W37182   4.271  33.799   0.106
70400W        W37183  38.961  37.174   1.720
70401W        W37184  19.468  38.881   3.631
70402W        W37185  14.675  26.758  13.623
70403W        W37186  31.959  11.102  14.827
70404W        W37187   6.139  43.869  12.885
70405W        W37188  41.003   1.492  12.546
70406W        W37189  21.898  41.832  10.483
70407W        W37190  38.649  26.093  12.975
70408W        W37191   5.321  26.994   1.269
70409W        W37192  19.100  22.128   3.111
70410W        W37193  16.765  28.918  11.681
70411W        W37194  38.014  31.904  11.443
70412W        W37195  12.392  38.473  11.546
70413W        W37196  43.084  19.839  11.182
70414W        W37197  38.820   5.546  11.606
70415W        W37198  15.070  33.331   1.307
70416W        W37199   5.710  11.281   1.806
70417W        W37200   2.825  12.628   1.905
70418W        W37201  39.561  30.480   0.431
70419W        W37202  30.055  22.128   3.487
70420W        W37203   1.029  16.333   1.494
70421W        W37204  31.936  10.524   3.315
70422W        W37205  22.037  11.710   1.921
70423W        W37206  28.416  20.536   3.174
70424W        W37207  36.677   1.766   4.165
70425W        W37208  36.421  41.210  12.471
70426W        W37209  41.501  19.172   0.814
70427W        W37210   8.976  31.123  13.995
70428W        W37211  10.374  29.512   1.990
70429W        W37212  24.459  18.665   1.285
70430W        W37213   7.579  18.048   4.221
70431W        W37214  25.643  41.097  14.844
70432W        W37215   5.614  35.536  10.389
70433W        W37216  32.444  25.639  14.952
70434W        W37217   3.284  22.964   2.099
70435W        W37218  26.015  36.301  10.330
70436W        W37219  22.731  32.849   3.645
70437W        W37220  29.495   5.908  10.897
70438W        W37221  17.715  37.415   0.887
70439W        W37222   2.650  14.040   3.704
70440W        W37223  38.170  36.287   5.080
70441W        W37224  16.117  14.768   4.729
70442W        W37225  37.341  18.021   4.158
70443W        W37226  11.812  36.029   4.266
70444W        W37227  23.948  41.940  13.346
70445W        W37228  27.728  10.424   0.160
70446W        W37229   8.333  40.453   4.571
70447W        W37230  24.227  30.635  10.758
70448W        W37231  23.069   8.922   2.416
70449W        W37232   3.689   8.350   3.371
70450W        W37233   9.535   4.690  13.089
70451W        W37234   3.515  38.457  11.551
70452W        W37235  42.042  28.845  13.395
70453W        W37236  14.285   8.460  14.095
70454W        W37237  35.416  40.804  11.397
70455W        W37238  25.025   5.388  10.642
70456W        W37239   9.151  12.212   2.887
70457W        W37240   0.752  18.626  13.971
70458W        W37241   9.767  40.405  14.063
70459W        W37242  14.665  17.770   3.380
70460W        W37243  31.460  32.990  10.350
70461W        W37244  22.582  27.176  14.301
70462W        W37245  16.166  11.312   4.024
70463W        W37246  16.484  41.456   3.312
70464W        W37247   1.454  44.460  13.016
70465W        W37248  25.519  35.499   1.699
70466W        W37249  33.093  22.766   0.768
70467W        W37250  31.908  12.121   1.826
70468W        W37251   5.988  15.702  13.615
70469W        W37252  12.802  28.725   4.663
70470W        W37253   6.530   4.541   0.253
70471W        W37254  19.824  44.986  11.662
70472W        W37255  23.133  41.386  11.758
70473W        W37256  36.142   6.674  13.844
70474W        W37257  31.897  24.081  11.464
70475W        W37258  36.977  31.921  10.979
70476W        W37259   6.823  21.736  12.886
70477W        W37260  41.888  10.428   0.411
70478W        W37261  15.005   8.387   4.123
70479W        W37262  25.191  39.291   2.667
70480W        W37263  20.095   5.948  12.998
70481W        W37264  10.826  33.081   0.816
70482W        W37265  21.178  14.183  10.419
70483W        W37266  29.764  20.968  12.057
70484W        W37267  24.516  19.447   0.826
70485W        W37268   5.258  10.626   4.195
70486W        W37269  41.570  13.878  13.771
70487W        W37270  13.705  21.714  14.002
70488W        W37271  10.423  26.036   1.910
70489W        W37272  26.424   3.515   2.798
70490W        W37273  37.948  31.249  11.914
70491W        W37274   5.611  14.165   3.496
70492W        W37275  29.959  23.213  10.056
70493W        W37276  13.655  12.341   3.168
70494W        W37277  26.010  32.152  13.488
70495W        W37278  44.598  21.162  10.756
70496W        W37279  14.846  42.095  10.467
70497W        W37280  19.380   7.683   3.277
70498W        W37281   7.635  32.974  11.136
70499W        W37282  40.501  10.750   3.366
70500W        W37283  19.603  38.703   1.291
70501W        W37284  29.862   8.255  11.102
70502W        W37285  22.012  43.271   0.156
70503W        W37286  21.118  18.924  12.900
70504W        W37287  35.126   3.651   2.986
70505W        W37288  11.576  23.611  13.940
70506W        W37289  21.837   9.598   0.916
70507W        W37290  24.697   7.798   0.319
70508W        W37291  27.889  14.154  11.758
70509W        W37292  29.902   1.148  11.098
70510W        W37293  31.868  20.000  13.460
70511W        W37294   8.231  15.721  14.747
70512W        W37295   5.567  32.032   5.183
70513W        W37296  12.146   8.274   3.914
70514W        W37297  37.487  18.675   1.890
70515W        W37298  26.644  19.216  10.681
70516W        W37299   6.251  20.174  13.139
70517W        W37300   5.191  34.895  13.954
70518W        W37301  36.033   5.978   4.203
70519W        W37302  33.537  35.780   2.406
70520W        W37303  24.021  35.041   4.954
70521W        W37304  32.472  41.487  13.826
70522W        W37305  32.479  42.787   3.833
70523W        W37306  25.098  14.229   4.651
70524W        W37307  32.641  25.280   2.165
70525W        W37308  40.050   9.564  11.591
70526W        W37309  19.437  40.874   4.527
70527W        W37310  40.575  21.488  11.996
70528W        W37311  26.114  37.482   3.847
70529W        W37312  17.651  40.816   3.685
70530W        W37313  30.121  42.390  13.383
70531W        W37314  33.034  41.991   0.923
70532W        W37315   6.371  23.620   2.732
70533W        W37316  32.720  18.257  14.429
70534W        W37317   6.214  34.935  12.988
70535W        W37318  21.433  31.449   2.406
70536W        W37319  40.439  14.605   2.123
70537W        W37320  39.709  19.618   0.617
70538W        W37321  40.664  14.034   3.184
70539W        W37322  34.997  41.277  11.885
70540W        W37323  14.485   5.388   2.603
70541W        W37324  31.982  39.831   0.209
70542W        W37325  38.532  41.937   1.440
70543W        W37326   4.502   3.333  12.079
70544W        W37327  36.096   3.870  14.103
70545W        W37328  40.765  17.097   3.382
70546W        W37329   9.829  28.163   2.247
70547W        W37330  25.166   2.498   4.494
70548W        W37331  27.629  21.777   3.697
70549W        W37332   9.968  40.381   4.258
70550W        W37333  34.548   7.724  11.632
70551W        W37334  44.356  33.875  11.582
70552W        W37335  32.327  29.935   0.879
70553W        W37336  16.183  24.481  11.618
70554W        W37337  11.822  33.489  12.658
70555W        W37338  28.960  37.818   1.193
70556W        W37339  35.933  32.260  14.918
70557W        W37340   5.836   8.861   3.122
70558W        W37341  42.555  23.701   2.124
70559W        W37342   8.632  11.258  14.867
70560W        W37343  37.953  37.392   2.663
70561W        W37344  23.001  27.557  13.081
70562W        W37345  28.259  32.772  10.996
70563W        W37346   0.844  21.680   0.518
70564W        W37347  31.833  28.387   1.106
70565W        W37348   0.744  11.270  12.546
70566W        W37349   1.765  20.118   3.088
70567W        W37350  15.719  34.949   1.118
70568W        W37351  32.621  41.055  14.408
70569W        W37352   6.340   5.813  14.284
70570W        W37353  35.061   8.120  13.389
70571W        W37354  42.331  26.402  10.992
70572W        W37355  32.504  20.515   2.744
70573W        W37356  29.217  36.831  13.272
70574W        W37357  39.297  13.017  11.983
70575W        W37358   3.734  15.193   4.154
70576W        W37359  32.617   7.810   4.592
70577W        W37360   8.325  32.046   3.379
70578W        W37361   5.506  35.539  12.921
70579W        W37362   7.385  44.242  13.182
70580W        W37363   4.787  29.670  11.343
70581W        W37364  12.390  19.866   2.209
70582W        W37365   6.366  23.161   0.274
70583W        W37366  44.690  12.321  14.770
70584W        W37367   0.728  36.580   1.662
70585W        W37368   2.971  23.243   1.751
70586W        W37369  35.446  34.208   4.698
70587W        W37370  37.614  42.131  11.708
70588W        W37371  38.566  10.168   1.099
70589W        W37372  15.637  41.405  14.834
70590W        W37373  24.484  20.643  11.627
70591W        W37374  32.066  15.740  14.821
70592W        W37375  11.227  30.215  14.818
70593W        W37376  36.473   7.805  14.423
70594W        W37377  41.264  11.598   3.838
70595W        W37378  10.411  43.836   4.173
70596W        W37379  44.405  31.267  11.076
70597W        W37380  25.916  35.273   3.298
70598W        W37381  24.823   4.299   2.747
70599W        W37382  43.854  25.849  11.410
70600W        W37383   2.595   7.085  13.858
70601W        W37384  13.736  22.112  11.006
70602W        W37385  16.063   6.397  12.221
70603W        W37386  41.626  25.976   1.244
70604W        W37387  10.691   4.859   4.350
70605W        W37388  39.645  42.328  13.038
70606W        W37389  32.908  27.080  13.002
70607W        W37390  38.397  25.312  13.320
70608W        W37391  13.889   1.775   1.352
70609W        W37392  10.299  14.333  10.216
70610W        W37393  36.571  18.926  10.756
70611W        W37394  39.122  16.299  13.119
70612W        W37395  25.218  26.559   3.053
70613W        W37396  14.567  35.595  11.557
70614W        W37397  25.881  24.073   3.204
70615W        W37398  23.643  37.762  13.880
70616W        W37399  31.543  39.996  10.926
70617W        W37400  14.698  10.125  12.514
70618W        W37401  25.834  33.126  14.590
70619W        W37402  21.693  28.431   1.717
70620W        W37403   2.384  25.374  14.007
70621W        W37404  44.402  29.568  13.999
70622W        W37405  24.396   1.297  10.691
70623W        W37406  37.996   4.240  10.702
70624W        W37407   0.860  21.138  14.292
70625W        W37408  24.056  39.815   3.750
70626W        W37409  31.699  42.421  12.126
70627W        W37410  23.747  36.848   3.012
70628W        W37411  19.937   2.767   1.707
70629W        W37412  18.031  39.073  11.115
70630W        W37413  11.572  18.820   0.256
70631W        W37414   1.384  27.190   1.703
70632W        W37415  12.607   3.707   0.204
70633W        W37416  40.422  14.792  12.047
70634W        W37417   6.541  11.388  11.259
70635W        W37418  22.072  31.942   0.744
70636W        W37419  13.150  39.653   4.662
70637W        W37420  30.720  43.362   3.199
70638W        W37421  25.100  38.602  12.064
70639W        W37422  28.114  15.020  11.734
70640W        W37423  35.429   7.190  11.577
70641W        W37424  27.606  29.889   0.423
70642W        W37425  24.457   4.559   4.116
70643W        W37426   4.225  40.625   4.257
70644W        W37427  35.461  18.578  12.722
70645W        W37428  14.509  17.362  11.914
70646W        W37429  18.673  10.599   2.308
70647W        W37430   1.897  10.709  13.588
70648W        W37431   0.679  38.967  14.806
70649W        W37432  26.145  11.076  12.055
70650W        W37433  28.014  25.708  10.443
70651W        W37434  42.752  34.953   0.797
70652W        W37435  19.604   4.964  12.152
70653W        W37436  17.635   9.379  10.929
70654W        W37437  25.354  12.284   0.669
70655W        W37438  32.965  24.497   1.909
70656W        W37439   4.298  12.361   0.308
70657W        W37440  40.274  21.249   4.195
70658W        W37441  34.944  43.840   1.350
70659W        W37442  26.225  38.864  14.004
70660W        W37443  37.541  44.178   4.564
70661W        W37444   5.935  44.292  10.926
70662W        W37445   2.937   6.766  12.998
70663W        W37446  37.359  10.693   2.372
70664W        W37447  19.658   2.856   1.247
70665W        W37448   0.015   9.077   4.968
70666W        W37449  26.884   1.082   0.278
70667W        W37450  29.699  30.886  12.466
70668W        W37451  19.600  28.261   3.632
70669W        W37452  35.109  31.221   2.623
70670W        W37453  24.470  34.192  13.424
70671W        W37454  12.075  15.629   4.217
70672W        W37455  30.243  19.050  13.856
70673W        W37456  35.581  29.080  12.565
70674W        W37457  30.998  19.236  13.482
70675W        W37458   7.012  33.033  13.442
70676W        W37459   7.805  26.950  11.718
70677W        W37460  34.833  15.796  13.750
70678W        W37461  18.642   1.481   4.670
70679W        W37462   6.584   0.603  13.857
70680W        W37463   4.354  29.960  11.179
70681W        W37464  33.923  10.075   3.311
70682W        W37465  30.898   8.985   1.370
70683W        W37466  41.479  31.445  12.422
70684W        W37467  33.155  18.126  12.575
70685W        W37468  30.246  36.068   1.917
70686W        W37469  39.074  10.662   1.363
70687W        W37470  18.479   3.391  11.093
70688W        W37471  19.183  23.661   1.727
70689W        W37472  16.362   0.592   3.385
70690W        W37473  35.345  41.460   4.145
70691W        W37474  20.164  42.733  14.848
70692W        W37475  19.006   2.262   4.574
70693W        W37476  33.446  21.896  11.215
70694W        W37477  26.230   9.101   4.899
70695W        W37478  29.166  42.997  13.012
70696W        W37479  20.440  28.502  14.865
70697W        W37480  32.575   4.683   1.363
70698W        W37481  27.928  39.541  12.710
70699W        W37482  22.175  33.179   0.316
70700W        W37483   9.068  37.865   2.878
70701W        W37484   7.897  15.835   2.647
70702W        W37485  38.823   6.756  13.095
70703W        W37486  24.481   0.332  12.996
70704W        W37487  25.936  19.614   9.913
70705W        W37488  34.913  30.437   0.414
70706W        W37489  11.897  15.668  10.560
70707W        W37490  12.231  44.329   4.583
70708W        W37491  21.080  40.329   3.844
70709W        W37492  42.080  16.743  11.379
70710W        W37493  29.149  37.484   3.598
70711W        W37494  14.129  24.708  11.038
70712W        W37495   1.257  20.509  11.072
70713W        W37496  20.806   0.041   0.450
70714W        W37497  33.233  16.404  13.768
70715W        W37498  44.966  20.338  12.530
70716W        W37499   5.637  43.810   4.087
70717W        W37500  15.337  44.234  14.880
70718W        W37501   2.298   7.212   0.296
70719W        W37502  22.295  20.747  13.458
70720W        W37503  28.562  16.254   3.372
70721W        W37504  17.250  19.391  14.260
70722W        W37505  22.375  37.792  14.608
70723W        W37506  14.110  14.075   4.104
70724W        W37507  14.892  35.247   1.258
70725W        W37508   1.041  12.128  14.080
70726W        W37509  27.595  39.819   3.168
70727W        W37510  35.433   7.331   0.766
70728W        W37511  10.202  39.083  14.295
70729W        W37512  36.341  31.181   0.363
70730W        W37513  29.179   9.807  11.079
70731W        W37514  23.987  18.042  14.925
70732W        W37515  11.747  28.468   1.391
70733W        W37516   3.511  15.049  11.172
70734W        W37517   5.151  36.414   0.970
70735W        W37518  19.494  44.488  12.060
70736W        W37519   9.001   4.703  14.468
70737W        W37520   1.459  14.371  11.585
70738W        W37521  31.148  10.871   2.620
70739W        W37522  24.310  39.358  12.359
70740W        W37523   6.678   7.317   2.868
70741W        W37524  44.530  24.524   0.262
70742W        W37525  40.969   2.742   2.747
70743W        W37526  37.833   5.520  13.378
70744W        W37527  24.282  37.723  11.334
70745W        W37528  28.182  24.382  14.837
70746W        W37529  19.617  14.880  13.291
70747W        W37530  32.002  11.832   1.234
70748W        W37531  24.229  17.289  14.307
70749W        W37532   9.089  43.504  12.551
70750W        W37533  22.157  35.514  14.120
70751W        W37534  16.034  40.009   2.692
70752W        W37535  27.170  24.281   2.867
70753W        W37536  27.826  10.420  13.480
70754W        W37537  21.652  24.512   0.264
70755W        W37538  31.973   9.192  14.887
70756W        W37539  36.999  18.997   3.166
70757W        W37540   4.548  28.401   5.071
70758W        W37541   3.344  17.822  12.230
70759W        W37542  27.169  33.851   3.691
70760W        W37543  37.771  42.003   0.378
70761W        W37544  18.072  40.363   2.849
70762W        W37545  40.956  21.624  11.207
70763W        W37546   1.022  10.265   1.987
70764W        W37547  25.224  28.969   5.119
70765W        W37548  28.391  38.347   2.248
70766W        W37549  25.044  22.954  13.278
70767W        W37550  37.117   3.854   1.233
70768W        W37551  28.175  13.635   5.042
70769W        W37552  22.490  21.188   0.618
70770W        W37553   7.900  15.055   3.589
70771W        W37554   3.959  25.928   2.643
70772W        W37555  40.391  28.901   4.253
70773W        W37556   2.482   0.333  12.992
70774W        W37557  20.498  40.946  11.991
70775W        W37558  23.454  43.737  14.728
70776W        W37559   1.828  30.854  12.929
70777W        W37560  35.373  30.132   4.609
70778W        W37561  19.290   1.126   0.048
70779W        W37562  31.619   6.372   2.110
70780W        W37563  30.781  36.895   1.684
70781W        W37564  13.912  37.099  14.643
70782W        W37565  43.065  23.919  14.452
70783W        W37566  26.495   4.689   3.420
70784W        W37567   9.984  26.029   0.488
70785W        W37568  28.479  38.932   2.908
70786W        W37569  26.073  41.486   1.308
70787W        W37570  13.640  35.014  12.312
70788W        W37571  35.838  31.428  12.793
70789W        W37572  19.470  41.819   2.325
70790W        W37573  31.289  18.526   9.877
70791W        W37574  39.376  30.323  14.410
70792W        W37575  13.428  12.848  11.164
70793W        W37576  35.879  33.132   4.319
70794W        W37577  35.866  27.891   4.160
70795W        W37578  18.696  30.665   0.398
70796W        W37579   8.354   3.014  11.452
70797W        W37580  13.734  26.039  10.712
70798W        W37581  22.566   0.277   3.789
70799W        W37582  12.575  25.101  11.542
70800W        W37583   9.112  31.169  12.987
70801W        W37584  40.769  41.284  13.736
70802W        W37585  40.155  19.230  13.815
70803W        W37586  34.179   4.754   0.363
70804W        W37587  17.593  40.388   0.753
70805W        W37588   7.778  10.563  13.857
70806W        W37589   6.173  41.928   0.349
70807W        W37590  19.628  41.535   1.750
70808W        W37591  20.501  36.206   3.241
70809W        W37592   3.735   0.014  10.266
70810W        W37593  30.242   6.463   2.128
70811W        W37594  27.403  31.360   2.812
70812W        W37595  20.094  35.944   1.985
70813W        W37596  12.427   2.845   4.395
70814W        W37597  32.054  10.294   1.990
70815W        W37598  23.171  13.771  14.246
70816W        W37599  33.290   1.295   4.310
70817W        W37600  27.268  12.159   4.144
70818W        W37601  26.999  11.448  13.323
70819W        W37602  31.542  35.333   0.879
70820W        W37603  22.986  35.689  11.048
70821W        W37604  21.279  30.080   1.749
70822W        W37605  39.024  33.619   0.257
70823W        W37606  28.324  13.051  13.229
70824W        W37607   0.775  16.978   4.620
70825W        W37608   0.082  43.980   4.147
70826W        W37609  26.293  35.831  12.254
70827W        W37610  17.533  28.015   2.770
70828W        W37611  21.229  25.116  11.653
70829W        W37612  30.599  36.857   2.157
70830W        W37613  30.830  29.951  11.448
70831W        W37614  35.240  26.606   0.741
70832W        W37615  15.571  44.210  10.124
70833W        W37616  35.250  40.770   0.480
70834W        W37617  30.284  32.210   1.913
70835W        W37618   4.885  24.014   5.005
70836W        W37619  23.378  40.925   0.294
70837W        W37620  10.319  41.276  10.237
70838W        W37621  41.499  25.072   0.694
70839W        W37622  14.620  39.754   1.292
70840W        W37623  36.657   9.440   0.300
70841W        W37624  28.048   9.410  13.645
70842W        W37625  12.333  23.839  10.764
70843W        W37626   9.225  32.867   2.127
70844W        W37627  40.590  36.567  14.934
70845W        W37628  12.032   2.481   4.228
70846W        W37629  15.642   8.202   0.966
70847W        W37630   2.415   4.822   1.985
70848W        W37631  26.044  38.472  13.715
70849W        W37632   1.697  43.383   4.862
70850W        W37633  36.897  11.750   2.729
70851W        W37634  44.414  32.381  13.891
70852W        W37635  27.752  32.057   0.930
70853W        W37636  28.020  25.891   2.686
70854W        W37637   2.613  41.782  12.445
70855W        W37638   0.445  35.134  12.012
70856W        W37639  39.309   3.056  12.931
70857W        W37640  24.506  21.181   2.334
70858W        W37641   2.233  16.291  11.432
70859W        W37642  22.031  42.970  10.934
70860W        W37643  44.221  37.257  11.498
70861W        W37644  36.373  13.190  10.529
70862W        W37645  10.064   1.677  13.837
70863W        W37646  40.054   7.302   0.464
70864W        W37647  18.159  26.654   1.959
70865W        W37648  29.185  12.040   3.688
70866W        W37649  27.502  37.750   0.308
70867W        W37650   2.721  44.099   1.794
70868W        W37651  18.828  39.877   0.998
70869W        W37652  31.454  12.814   4.886
70870W        W37653  35.361  16.330  12.720
70871W        W37654   0.385  19.975   3.850
70872W        W37655  42.080  17.594   4.910
70873W        W37656  10.366  26.306  10.026
70874W        W37657  37.056  33.452   4.899
70875W        W37658  14.604   4.334  10.468
70876W        W37659  29.204  26.505  14.810
70877W        W37660  34.174  40.917   3.741
70878W        W37661  31.391   6.245  12.854
70879W        W37662  38.437  32.198   4.827
70880W        W37663  33.465   8.847  12.581
70881W        W37664  20.732  20.555   0.644
70882W        W37665   7.868   0.868   0.928
70883W        W37666  18.268  20.120   1.394
70884W        W37667   3.884  24.485  11.987
70885W        W37668  29.453  26.920   2.629
70886W        W37669   0.524  20.404   0.440
70887W        W37670  14.660   6.148   4.910
70888W        W37671   4.381  40.446  12.899
70889W        W37672  29.038  39.633   3.154
70890W        W37673  22.034  35.335  13.103
70891W        W37674   3.658   1.997  13.408
70892W        W37675   2.750   5.783  12.427
70893W        W37676  28.871  21.678  14.628
70894W        W37677  22.953   6.868  12.409
70895W        W37678  15.188   7.062   4.174
70896W        W37679  12.755  16.439   1.837
70897W        W37680   6.798  23.544   2.441
70898W        W37681   3.718  38.342   1.151
70899W        W37682  44.579  33.297  11.614
70900W        W37683  20.211  19.596  13.259
70901W        W37684  34.411  27.463   4.715
70902W        W37685  40.849  28.958   4.497
70903W        W37686  24.483  24.047   4.970
70904W        W37687  30.053  40.766  11.837
70905W        W37688  26.570   3.508  13.023
70906W        W37689  31.955  13.658   4.915
70907W        W37690  27.430  35.988  10.645
70908W        W37691  40.500  12.579   3.659
70909W        W37692  18.647  32.876   1.981
70910W        W37693  24.135  17.130   4.043
70911W        W37694   3.386  44.520   2.218
70912W        W37695  25.795  12.711   4.638
70913W        W37696   5.351  20.280  12.873
70914W        W37697  33.265  15.990   4.679
70915W        W37698  30.917  27.227   4.163
70916W        W37699   0.913  21.501  12.366
70917W        W37700   9.711  15.364  11.917
70918W        W37701  34.190  41.895  13.508
70919W        W37702  36.489   3.194  13.343
70920W        W37703  29.950  30.925  13.927
70921W        W37704  30.047   7.663  10.421
70922W        W37705  17.530   0.373   1.790
70923W        W37706  32.098  17.617  11.040
70924W        W37707  15.580  31.613  11.973
70925W        W37708  33.518  25.239  13.468
70926W        W37709  25.659   8.937   3.748
70927W        W37710   9.685   5.266  13.068
70928W        W37711  32.139  42.987  10.712
70929W        W37712  10.247  25.778  13.400
70930W        W37713   6.780  29.602   3.922
70931W        W37714  31.182  30.177   2.149
70932W        W37715  33.074  26.408   0.536
70933W        W37716  20.485  23.738  12.441
70934W        W37717  33.739  40.543   1.626
70935W        W37718  40.363  24.567   4.182
70936W        W37719  34.112  24.999  11.596
70937W        W37720  28.492  32.659  13.136
70938W        W37721  25.709  18.184   3.613
70939W        W37722  27.124   4.908  14.755
70940W        W37723  21.942   5.806   3.235
70941W        W37724  25.525  35.911   2.032
70942W        W37725  43.292   7.756  14.416
70943W        W37726  38.821  35.082  11.372
70944W        W37727   0.358  11.882   0.207
70945W        W37728   0.738  21.562   1.780
70946W        W37729  36.766  35.413  11.720
70947W        W37730  34.869   5.250  12.437
70948W        W37731   2.966  25.250  14.799
70949W        W37732  28.730  38.558  11.806
70950W        W37733   1.616   9.369  12.459
70951W        W37734  17.645  30.665  14.259
70952W        W37735  41.862  10.950  13.494
70953W        W37736   3.758  31.216   3.113
70954W        W37737  26.918  42.379  13.780
70955W        W37738  22.233  24.820  10.159
70956W        W37739  22.852  10.325  13.755
70957W        W37740   3.818  13.725   1.128
70958W        W37741   5.562  27.095   3.107
70959W        W37742   9.693  12.938  11.637
70960W        W37743   0.371  11.102   0.261
70961W        W37744  30.488   1.495   1.819
70962W        W37745   6.879  25.567  12.322
70963W        W37746  12.791  35.866   3.373
70964W        W37747  18.703  15.300   0.553
70965W        W37748  25.673  26.262  13.498
70966W        W37749  21.146  21.323   1.074
70967W        W37750  33.496  20.892  11.192
70968W        W37751   4.944  21.718  13.538
70969W        W37752  32.449  32.948  10.628
70970W        W37753  10.279  18.561   0.502
70971W        W37754  42.866   9.341   3.663
70972W        W37755   1.646  27.474   1.357
70973W        W37756  20.109  30.037  12.820
70974W        W37757  25.993  13.641   3.234
70975W        W37758   3.879  21.140  13.904
70976W        W37759  32.107  30.186   0.432
70977W        W37760  38.768   9.415  13.483
70978W        W37761  44.425  11.367  10.188
70979W        W37762  22.990  15.243   0.937
70980W        W37763  26.292  27.979   2.228
70981W        W37764  24.688  42.797  12.708
70982W        W37765  25.201  36.535   2.185
70983W        W37766   1.782  35.392  10.787
70984W        W37767  19.678  19.151  11.651
70985W        W37768  26.008  18.374  12.949
70986W        W37769  28.881  26.790  14.446
70987W        W37770  23.419   8.936   3.687
70988W        W37771   2.586   6.377  13.056
70989W        W37772   2.867   5.396  10.621
70990W        W37773  11.718  25.616   3.632
70991W        W37774   8.726   2.211   4.577
70992W        W37775  16.582  38.991  13.391
70993W        W37776   4.941  44.290  13.534
70994W        W37777   4.865  39.381   4.679
70995W        W37778   0.732  43.028  12.160
70996W        W37779  27.917   8.204   2.941
70997W        W37780  12.290  43.547  14.917
70998W        W37781  16.876   1.388   0.715
70999W        W37782  38.415   3.852   4.817
71000W        W37783  27.918   3.770  13.046
71001W        W37784  39.178   6.307  13.337
71002W        W37785  40.107  33.438   3.234
71003W        W37786  15.706  32.906   1.515
71004W        W37787  31.505  43.200  12.506
71005W        W37788  35.510  26.473   3.335
71006W        W37789  40.946  28.195  14.293
71007W        W37790  31.958  22.294   4.577
71008W        W37791  43.788  38.000  12.623
71009W        W37792  14.105  31.435  10.571
71010W        W37793  37.279  13.151   1.807
71011W        W37794  24.623  24.314   3.549
71012W        W37795  14.820  30.518  14.387
71013W        W37796  35.496  41.590  12.751
71014W        W37797   1.270  31.069  13.579
71015W        W37798   3.304  15.319  11.569
71016W        W37799  26.575   9.364  12.915
71017W        W37800  31.084  12.493   0.686
71018W        W37801  25.219   3.434   1.422
71019W        W37802  35.052  23.754  13.306
71020W        W37803  18.125  23.214   3.135
71021W        W37804  27.396  35.835   1.731
71022W        W37805  20.784  44.524  13.609
71023W        W37806  42.704   0.725   1.006
71024W        W37807  22.100   4.301  13.829
71025W        W37808  18.559  42.340  14.992
71026W        W37809  28.961   1.236  11.185
71027W        W37810  44.253  19.863  11.216
71028W        W37811  11.212  13.073  12.077
71029W        W37812   5.844  17.208  12.501
71030W        W37813  32.145  30.097  13.142
71031W        W37814  40.345  42.406   0.903
71032W        W37815  23.946  34.411   0.876
71033W        W37816  43.779   3.337   0.865
71034W        W37817   5.378  39.488  13.899
71035W        W37818  17.089  30.934   3.691
71036W        W37819   0.859  34.481  13.037
71037W        W37820  20.287  37.023   1.073
71038W        W37821   4.335   2.014  12.929
71039W        W37822  21.388  24.054  13.484
71040W        W37823  16.738  34.048   3.737
71041W        W37824  26.957  36.804  12.082
71042W        W37825  23.835  31.061   2.331
71043W        W37826  29.990  42.823   3.115
71044W        W37827   1.439  19.601  10.980
71045W        W37828  41.981  31.045   0.253
71046W        W37829  17.111  15.796   0.385
71047W        W37830  22.235  30.597  11.489
71048W        W37831   8.223   3.813   0.943
71049W        W37832   2.377   4.015  11.098
71050W        W37833  28.533  14.745   2.973
71051W        W37834  21.519  44.181   4.561
71052W        W37835  33.586  30.594   0.798
71053W        W37836  36.354  10.766  10.743
71054W        W37837  33.420  36.117   0.763
71055W        W37838   1.963  29.461   2.011
71056W        W37839  16.968  37.389  14.858
71057W        W37840  15.117   3.229   4.241
71058W        W37841  22.161   5.500   3.604
71059W        W37842  38.959  21.719   4.961
71060W        W37843  31.821  26.945   2.276
71061W        W37844  38.997   2.327   0.558
71062W        W37845   2.995  31.647   0.382
71063W        W37846  44.035  14.798   4.074
71064W        W37847   2.853  14.493   4.594
71065W        W37848  18.588  18.263  12.874
71066W        W37849  44.339  28.115  12.149
71067W        W37850  44.825  12.593   1.363
71068W        W37851  19.217  30.928  11.130
71069W        W37852  27.432  23.063  12.714
71070W        W37853   6.885  38.176  11.178
71071W        W37854  21.728   7.083   2.609
71072W        W37855  19.233  35.210  13.952
71073W        W37856   5.818  26.183   4.509
71074W        W37857  13.171  27.081  12.793
71075W        W37858  25.720  40.823   2.907
71076W        W37859   9.655   1.575   3.522
71077W        W37860   9.148  43.882  11.183
71078W        W37861  41.445  34.942  13.826
71079W        W37862  43.838  21.452   0.254
71080W        W37863  31.480  23.807   0.999
71081W        W37864  16.334  39.338  14.029
71082W        W37865  28.764  11.571  12.084
71083W        W37866  33.119  20.367  12.220
71084W        W37867  43.996  31.023  13.792
71085W        W37868  10.376  42.120   0.465
71086W        W37869  42.733   1.333   2.728
71087W        W37870  41.297   2.407  12.025
71088W        W37871  34.647  14.806  14.356
71089W        W37872  33.889   0.199  12.514
71090W        W37873   4.837  18.591   0.623
71091W        W37874  21.182  39.601   0.775
71092W        W37875  33.076  43.318  13.838
71093W        W37876   0.455  43.935  14.252
71094W        W37877  31.869  10.787  11.476
71095W        W37878  39.488  18.552  11.900
71096W        W37879  21.501  21.549  11.028
71097W        W37880  37.089   3.364   0.308
71098W        W37881  37.874  35.133   2.388
71099W        W37882  40.612  30.049   3.720
71100W        W37883  24.730  21.949   4.529
71101W        W37884  33.969  35.350   2.094
71102W        W37885  31.146  34.410   0.845
71103W        W37886  43.525   6.395  10.613
71104W        W37887  18.140  14.838  14.426
71105W        W37888  23.831  32.373   0.720
71106W        W37889  23.961  26.850   0.763
71107W        W37890  26.502  11.059   2.280
71108W        W37891  20.591  34.565   1.004
71109W        W37892  22.114   3.216   0.674
71110W        W37893   2.798  39.495   4.616
71111W        W37894  25.284  35.694   0.317
71112W        W37895   7.715   4.920  11.077
71113W        W37896  12.523  39.886  12.434
71114W        W37897  16.820  30.685  14.010
71115W        W37898   7.340  34.393   1.716
71116W        W37899   8.997  26.572   4.623
71117W        W37900  17.380  39.443  14.564
71118W        W37901  14.661  43.710   1.530
71119W        W37902  17.495   7.247   4.275
71120W        W37903  35.013  43.343   0.490
71121W        W37904   5.505  10.203   3.434
71122W        W37905   7.527  12.751   2.833
71123W        W37906   0.211  29.735   1.409
71124W        W37907  38.345  24.007  12.419
71125W        W37908   7.810  27.019   3.020
71126W        W37909   8.368  12.149   0.796
71127W        W37910  26.190  34.617   2.758
71128W        W37911   3.446   1.674  10.699
71129W        W37912  31.692  28.002  14.063
71130W        W37913  27.137  37.086  13.403
71131W        W37914  19.209  13.558   1.222
71132W        W37915  13.684  30.149   2.133
71133W        W37916  26.691  37.883   3.756
71134W        W37917  37.899   9.252   1.967
71135W        W37918  27.972  22.904  14.000
71136W        W37919  31.704   2.293   0.294
71137W        W37920  37.654  44.731  10.745
71138W        W37921  14.158  12.232   0.425
71139W        W37922  25.831  22.497  12.058
71140W        W37923  15.388  35.466  12.021
71141W        W37924  18.225   3.968   2.868
71142W        W37925   2.853  33.095   4.338
71143W        W37926  27.609  22.784   3.870
71144W        W37927  12.842  21.224  14.046
71145W        W37928  41.959  38.432  14.780
71146W        W37929  18.445  36.295   9.848
71147W        W37930   7.403   3.439  14.395
71148W        W37931  39.585  39.543  14.304
71149W        W37932   7.765  11.346  13.527
71150W        W37933  12.350  17.008   4.894
71151W        W37934   8.509  10.909   0.274
71152W        W37935  34.413  33.371  11.124
71153W        W37936  39.246  21.132   4.111
71154W        W37937  31.043  17.099  11.737
71155W        W37938   6.696  14.411   4.815
71156W        W37939  20.112  19.220   4.688
71157W        W37940  16.362  16.308  12.307
71158W        W37941  30.189  26.227   3.711
71159W        W37942  24.539  18.452   2.163
71160W        W37943  44.352  40.927  11.874
71161W        W37944  19.020   8.387   3.795
71162W        W37945   5.907  10.201  11.454
71163W        W37946  23.156  13.624   4.965
71164W        W37947   6.696  43.424   2.633
71165W        W37948  41.987  32.347   1.854
71166W        W37949  38.795  14.431  12.911
71167W        W37950  42.734  29.821  14.478
71168W        W37951  29.105  30.416  14.984
71169W        W37952  31.332  24.438   4.007
71170W        W37953  42.562  21.121   3.335
71171W        W37954  34.524  31.971   1.637
71172W        W37955  35.932   3.835  14.591
71173W        W37956   6.448  10.686   2.702
71174W        W37957  24.796  34.972   2.949
71175W        W37958  23.216  26.890  10.760
71176W        W37959  13.934  41.305   9.243
71177W        W37960  15.572  27.270  14.904
71178W        W37961  20.527  21.554   4.555
71179W        W37962  22.246  19.035   0.752
71180W        W37963   3.160  40.968  12.464
71181W        W37964  23.227  32.645  14.715
71182W        W37965  33.096  18.650   5.079
71183W        W37966  35.531  13.085   3.307
71184W        W37967  24.240  39.015   4.135
71185W        W37968  33.963  11.010   0.284
71186W        W37969  11.612   6.955   2.569
71187W        W37970  42.568  41.396  10.779
71188W        W37971  18.646   4.720  12.163
71189W        W37972  42.018  11.294  12.523
71190W        W37973   4.697   0.564  14.840
71191W        W37974  22.563  27.976   3.674
71192W        W37975  33.954  27.733   1.532
71193W        W37976  37.656  43.168   2.282
71194W        W37977  14.678  22.121   4.541
71195W        W37978  15.324  14.260  13.663
71196W        W37979   2.966   8.634  14.420
71197W        W37980  41.836  11.141  12.045
71198W        W37981  22.145   0.566  14.192
71199W        W37982  16.311  22.577  14.825
71200W        W37983  11.778  25.307  14.517
71201W        W37984  41.726  18.644   2.867
71202W        W37985  21.150  44.286   0.327
71203W        W37986  23.537  34.592  12.186
71204W        W37987  32.506  43.318  14.002
71205W        W37988  34.426  13.222   1.986
71206W        W37989  12.338  21.939  14.012
71207W        W37990  21.512  31.370  13.873
71208W        W37991  17.316  11.078  11.744
71209W        W37992  26.425  35.253   0.181
71210W        W37993   7.571  33.815   4.093
71211W        W37994  40.109  42.584  12.980
71212W        W37995  19.004  34.926   2.691
71213W        W37996  12.185   6.757  14.083
71214W        W37997   3.314  23.952  10.753
71215W        W37998   2.290  34.846  11.293
71216W        W37999  27.143  37.777   2.805
71217W        W38000  28.057  20.732  14.945
71218W        W38001  16.095   1.466   1.661
71219W        W38002   0.280  40.834   2.131
71220W        W38003   2.931   9.653   2.630
71221W        W38004  39.665  15.054   4.659
71222W        W38005  26.188  44.797   4.038
71223W        W38006  24.071  38.032  13.710
71224W        W38007   9.597  10.101   0.499
71225W        W38008   2.226  16.108  14.592
71226W        W38009  27.966  23.677   0.379
71227W        W38010  12.371   2.883  11.601
71228W        W38011  43.583  36.289   0.826
71229W        W38012  33.179   2.924  14.454
71230W        W38013   7.188  44.089  10.389
71231W        W38014  31.089  10.229  13.083
71232W        W38015   9.125  24.180   1.204
71233W        W38016  14.855   4.703  14.918
71234W        W38017  43.941   4.210   2.877
71235W        W38018   9.420  41.334   0.919
71236W        W38019  35.086  38.440  11.007
71237W        W38020  27.670  44.393   2.821
71238W        W38021  13.679   4.716  14.180
71239W        W38022   3.196  32.487  14.851
71240W        W38023  33.044  29.162   1.456
71241W        W38024  22.029  15.632  13.563
71242W        W38025  31.959   6.023   4.634
71243W        W38026   7.311  39.099   2.755
71244W        W38027  36.273  17.555  14.361
71245W        W38028  35.464   1.813   0.728
71246W        W38029  19.159  34.672   3.641
71247W        W38030  18.851  13.146  13.513
71248W        W38031  23.191  28.509   0.441
71249W        W38032  25.737  12.560   0.907
71250W        W38033   1.698  41.477   0.481
71251W        W38034  12.664  44.813  14.917
71252W        W38035   9.280  32.183  11.151
71253W        W38036  44.499  43.423  13.884
71254W        W38037  27.119   4.702  14.266
71255W        W38038  35.088  11.679   2.238
71256W        W38039  17.155   4.741   2.679
71257W        W38040  38.630   4.283   2.893
71258W        W38041  11.925   5.334   2.043
71259W        W38042  18.059  33.826  11.890
71260W        W38043  24.004   1.857   4.077
71261W        W38044   1.424  29.204  12.893
71262W        W38045  40.530  39.056  11.625
71263W        W38046   6.745   5.382   0.316
71264W        W38047   8.426   7.773  11.147
71265W        W38048  29.446  18.333   2.404
71266W        W38049  42.472  22.575  11.326
71267W        W38050  32.580  28.012  10.548
71268W        W38051  30.712  27.183  12.350
71269W        W38052  25.795  36.036  12.140
71270W        W38053   2.831   5.146  13.798
71271W        W38054  25.892  26.346   5.509
71272W        W38055   7.077  43.102   1.864
71273W        W38056  43.053  11.134  12.468
71274W        W38057   5.824  19.239  12.342
71275W        W38058  36.382  12.762  13.485
71276W        W38059  30.853  11.869  13.017
71277W        W38060  10.922   1.301  11.751
71278W        W38061  32.900  22.295   0.406
71279W        W38062  39.926  17.802  12.930
71280W        W38063   6.574  40.899  11.106
71281W        W38064   2.925  23.576  11.563
71282W        W38065  35.971  41.982  11.627
71283W        W38066  16.060  16.178  11.888
71284W        W38067  16.388  35.329   1.842
71285W        W38068  32.169   8.405   1.835
71286W        W38069  31.190  25.952   1.345
71287W        W38070  14.754   1.794   2.570
71288W        W38071  10.715  41.469   3.293
71289W        W38072  19.567   9.521   2.402
71290W        W38073  27.229  17.276  12.561
71291W        W38074  29.956  29.601  11.427
71292W        W38075  31.157  29.151  14.310
71293W        W38076  44.027   6.482   2.361
71294W        W38077   6.348   9.512   3.068
71295W        W38078  20.479   7.457  11.218
71296W        W38079  22.131  44.876   5.525
71297W        W38080  34.353  41.269  13.176
71298W        W38081  17.766  29.589  10.901
71299W        W38082  17.674   1.182   1.156
71300W        W38083  40.110  14.649  13.871
71301W        W38084  16.565   8.250  11.144
71302W        W38085  37.308  26.528   0.920
71303W        W38086  22.491  20.142   2.708
71304W        W38087   9.663  26.412   4.361
71305W        W38088  34.305   7.495   2.326
71306W        W38089  13.366  28.221   3.213
71307W        W38090   7.678   7.354   4.790
71308W        W38091  18.037  36.540   0.473
71309W        W38092  25.648  42.672  14.651
71310W        W38093  11.286  20.624  14.452
71311W        W38094  15.212   2.065   0.209
71312W        W38095  28.708  12.275   3.325
71313W        W38096   1.011  24.402   1.942
71314W        W38097  40.043  44.296   0.247
71315W        W38098  37.245  28.072  12.857
71316W        W38099  26.992  19.567   1.672
71317W        W38100  30.028  22.655   0.904
71318W        W38101  32.611  32.077   0.440
71319W        W38102   8.207  23.233   0.876
71320W        W38103  31.940  26.032   0.822
71321W        W38104  20.883  41.378   2.785
71322W        W38105  37.765  12.693  11.152
71323W        W38106  22.626  44.775   3.876
71324W        W38107  44.232  38.172   3.284
71325W        W38108  30.764  44.720  12.084
71326W        W38109   5.631  32.940   3.545
71327W        W38110  38.688   9.960  12.546
71328W        W38111  38.365  30.571   3.821
71329W        W38112  40.945  38.814   4.388
71330W        W38113  11.173  12.894  13.439
71331W        W38114   5.502  35.290  14.822
71332W        W38115   9.950  15.601   3.629
71333W        W38116  14.590  26.774   0.419
71334W        W38117   5.286  13.683   0.526
71335W        W38118  21.373  38.513   4.043
71336W        W38119   2.088  29.732   0.398
71337W        W38120  42.260   3.398   3.606
71338W        W38121   1.482  26.414  13.852
71339W        W38122  27.402  38.274   3.259
71340W        W38123   2.850  43.843   2.267
71341W        W38124  19.586  19.801  14.870
71342W        W38125   9.650  20.023  10.991
71343W        W38126  37.211   7.549   2.641
71344W        W38127  36.485  26.239  12.276
71345W        W38128  33.568  37.866  14.176
71346W        W38129   3.354  10.441   1.297
71347W        W38130  16.168  42.996   1.748
71348W        W38131   3.289   7.298  13.166
71349W        W38132  43.805  13.524  12.550
71350W        W38133   8.793  43.997   0.242
71351W        W38134  10.509  28.110   0.449
71352W        W38135  30.090  21.712  13.650
71353W        W38136  22.888  42.525   1.133
71354W        W38137   6.166  34.039   1.311
71355W        W38138   1.298  19.169  12.103
71356W        W38139  34.549  30.815   0.367
71357W        W38140  40.091  44.074   1.571
71358W        W38141  38.997  44.691  11.184
71359W        W38142  35.856  14.188  14.581
71360W        W38143   7.260  26.613   3.122
71361W        W38144  27.355  12.750  14.030
71362W        W38145  25.056  26.731  11.786
71363W        W38146  24.144  13.156   1.746
71364W        W38147  19.250  31.599  12.140
71365W        W38148  17.542  19.166   0.226
71366W        W38149  26.950  24.762   0.159
71367W        W38150  26.441  20.651   3.239
71368W        W38151  27.733  41.925   2.620
71369W        W38152  19.584   0.691   0.226
71370W        W38153  15.372  42.720  11.394
71371W        W38154  27.661  27.981  13.537
71372W        W38155  16.605  24.236  12.224
71373W        W38156  27.957  10.776  14.083
71374W        W38157  40.982   3.365   2.377
71375W        W38158  28.212  42.617   4.114
71376W        W38159   1.282  11.648  11.858
71377W        W38160  28.978   6.440   0.780
71378W        W38161   6.336  19.349  10.835
71379W        W38162  15.205  44.737  14.966
71380W        W38163  22.051   4.481  11.576
71381W        W38164  38.000   6.971   2.726
71382W        W38165   5.688  12.475  12.571
71383W        W38166  43.438  36.772  14.910
71384W        W38167   3.263  42.399  12.529
71385W        W38168  34.883   5.123  14.709
71386W        W38169  30.982   4.701   1.282
71387W        W38170   9.626  28.189   4.651
71388W        W38171  32.119   9.931  13.963
71389W        W38172  31.904  18.002   2.387
71390W        W38173  25.522  28.697  13.399
71391W        W38174  40.552  10.606  11.606
71392W        W38175  20.440  34.461   3.786
71393W        W38176  39.771   7.421   0.025
71394W        W38177  39.957  43.944   2.045
71395W        W38178  33.591   8.320   0.317
71396W        W38179  10.189  14.119  12.991
71397W        W38180  15.820  14.266   1.549
71398W        W38181  43.074  35.379   0.002
71399W        W38182  10.759   2.878   3.165
71400W        W38183  26.106  10.473  12.752
71401W        W38184  22.069  26.115   2.806
71402W        W38185  10.265  29.366   0.977
71403W        W38186   5.789   6.980   3.207
71404W        W38187   5.823  29.715  13.320
71405W        W38188  29.007  18.087   1.479
71406W        W38189  36.348  18.966  12.612
71407W        W38190  24.130  44.753  12.210
71408W        W38191  17.091  12.699  12.111
71409W        W38192  44.225  39.770   0.418
71410W        W38193  40.875  12.711   3.340
71411W        W38194  15.104  11.857  13.403
71412W        W38195   9.609  16.172  13.869
71413W        W38196  33.210   7.339  14.372
71414W        W38197  38.322  16.043   0.466
71415W        W38198  22.216  41.565  13.831
71416W        W38199  39.686  44.521   0.967
71417W        W38200  13.651   1.733  11.653
71418W        W38201  35.148  24.185   3.927
71419W        W38202  24.104   5.847  12.509
71420W        W38203  33.924  16.716   4.479
71421W        W38204  40.565   5.345  12.926
71422W        W38205  13.086   1.185   0.714
71423W        W38206  34.500  26.514   1.571
71424W        W38207   4.805  40.221   0.203
71425W        W38208   6.727  36.571   3.161
71426W        W38209  24.152  18.597  12.405
71427W        W38210  35.952   1.342  14.348
71428W        W38211  17.741  36.566  14.523
71429W        W38212  42.974   0.941   1.986
71430W        W38213   7.349  39.904   1.800
71431W        W38214  19.586  31.623  11.540
71432W        W38215  42.491  18.945   2.537
71433W        W38216  19.816   6.735   2.363
71434W        W38217  23.500  32.280   0.336
71435W        W38218  12.771  35.600  12.972
71436W        W38219  20.126  17.523   1.489
71437W        W38220   4.701  19.661   2.166
71438W        W38221   5.241  27.907  11.907
71439W        W38222   0.066  18.791  12.554
71440W        W38223  11.807  25.688  13.695
71441W        W38224  35.686   0.217  14.918
71442W        W38225  38.552   9.747   4.388
71443W        W38226  41.273  25.777   0.434
71444W        W38227   7.906   1.324   1.198
71445W        W38228  23.677  15.256   4.189
71446W        W38229  15.481  30.450   2.867
71447W        W38230  20.682  13.024   3.700
71448W        W38231  12.583  27.787   2.824
71449W        W38232  10.844  17.658  11.643
71450W        W38233  44.883  27.981   1.397
71451W        W38234  24.735  22.556   4.765
71452W        W38235  11.248  23.913  14.290
71453W        W38236  16.788  44.604   1.260
71454W        W38237   6.205  44.799  14.060
71455W        W38238  27.605  32.669  12.880
71456W        W38239   5.417  13.981  14.512
71457W        W38240  36.190  26.120  13.050
71458W        W38241  25.572   2.684  11.251
71459W        W38242  21.858  34.664  12.526
71460W        W38243  20.085  19.552   2.276
71461W        W38244  18.789  43.843   2.009
71462W        W38245  32.195  19.523   0.874
71463W        W38246  12.315  11.404  11.310
71464W        W38247  18.013  11.668   1.902
71465W        W38248  38.309  21.762   0.289
71466W        W38249  30.046  22.592  14.774
71467W        W38250  35.157  11.191  11.556
71468W        W38251  15.756  21.605  12.789
71469W        W38252  32.505  16.740  11.194
71470W        W38253  42.079  16.310   4.259
71471W        W38254  28.670  30.123  14.752
71472W        W38255  28.591  42.269   0.864
71473W        W38256  35.970  30.957   4.655
71474W        W38257  39.468  39.299  12.928
71475W        W38258   3.195  36.839  12.897
71476W        W38259  31.832  37.519  14.833
71477W        W38260  14.422  35.445   2.911
71478W        W38261  17.501   4.223   4.184
71479W        W38262   8.297  20.260   4.875
71480W        W38263   0.059  22.172   3.622
71481W        W38264  44.736   0.972   1.441
71482W        W38265  14.313  35.912   2.712
71483W        W38266  13.029   8.164  13.801
71484W        W38267  27.145  19.761   3.159
71485W        W38268  29.292  41.621   1.869
71486W        W38269  18.169  26.658   3.302
71487W        W38270  28.433  27.098   2.751
71488W        W38271  39.164  22.844  10.478
71489W        W38272  26.144  39.372  12.399
71490W        W38273   0.397   7.811   3.352
71491W        W38274  11.177  39.882   2.960
71492W        W38275  38.436  12.873   3.185
71493W        W38276  35.862  35.078   4.310
71494W        W38277  31.996  39.760   9.848
71495W        W38278   0.812  36.411   2.560
71496W        W38279  21.743  31.106  14.712
71497W        W38280  23.524  44.883  11.085
71498W        W38281  42.324   6.036   0.271
71499W        W38282  38.581  30.739   2.811
71500W        W38283  39.335  12.057  10.744
71501W        W38284  43.972  32.372   0.258
71502W        W38285   1.794  11.427  14.842
71503W        W38286  37.542  41.719   2.385
71504W        W38287   5.166  38.077  13.957
71505W        W38288  12.629   4.381  13.281
71506W        W38289  32.519  18.742   1.598
71507W        W38290  36.425  31.690   0.458
71508W        W38291  37.043  26.652   1.879
71509W        W38292  17.139  40.276  14.495
71510W        W38293  26.468  29.488  11.136
71511W        W38294   4.915  21.484  11.183
71512W        W38295  18.163  36.145  14.997
71513W        W38296  14.713  31.537   3.242
71514W        W38297  43.819  37.414   3.203
71515W        W38298  16.584  26.274  10.482
71516W        W38299  34.874  24.127   1.783
71517W        W38300   3.206  19.454   1.354
71518W        W38301  42.158   1.882   4.561
71519W        W38302  15.082  25.604  14.680
71520W        W38303   9.369  24.975  14.353
71521W        W38304   0.772  12.919  13.386
71522W        W38305  16.896  43.409  13.024
71523W        W38306   8.722  17.639   4.563
71524W        W38307  32.438   2.344   3.103
71525W        W38308  32.344  44.377   3.148
71526W        W38309   3.654  24.658   3.450
71527W        W38310  36.924   0.001   1.297
71528W        W38311  35.416  12.309  11.589
71529W        W38312   0.336  40.374   1.895
71530W        W38313  32.390  33.866  12.130
71531W        W38314  19.582   4.397  13.376
71532W        W38315  24.437  39.031  13.469
71533W        W38316  14.243  39.470   0.250
71534W        W38317  39.757   2.167   0.963
71535W        W38318  19.752   5.355  13.517
71536W        W38319  24.028  23.069   0.250
71537W        W38320  37.302  34.427  14.967
71538W        W38321  29.019  11.808   4.147
71539W        W38322  14.085  29.194   3.126
71540W        W38323   5.198  38.399  13.526
71541W        W38324   2.277   8.026   1.462
71542W        W38325   7.299  14.759   1.401
71543W        W38326  33.633  28.945   4.308
71544W        W38327  30.953   2.844  12.919
71545W        W38328  19.346  22.807   4.161
71546W        W38329  11.045  42.542  12.517
71547W        W38330   5.698  38.104   0.366
71548W        W38331  23.659  39.068   1.266
71549W        W38332  39.851  41.859  13.518
71550W        W38333  28.099  27.052   4.533
71551W        W38334  26.694  21.185   1.284
71552W        W38335  35.471  10.434   1.310
71553W        W38336  15.105   0.736  11.912
71554W        W38337  10.120   5.800   3.727
71555W        W38338   5.020  30.930   0.841
71556W        W38339  40.314   5.430  12.493
71557W        W38340  36.399  39.436   4.702
71558W        W38341  14.118  16.730  12.929
71559W        W38342   3.397  26.010  13.975
71560W        W38343   7.829  11.620  13.986
71561W        W38344  22.153  44.989   2.355
71562W        W38345  38.846  36.782  12.092
71563W        W38346  40.850  40.360   1.477
71564W        W38347  13.624  23.597   1.902
71565W        W38348  38.311  33.117  11.084
71566W        W38349  39.964   8.877   2.431
71567W        W38350  27.321   2.710   3.536
71568W        W38351  43.677  10.068   4.552
71569W        W38352  27.744  11.903   1.406
71570W        W38353  37.803  16.641  13.454
71571W        W38354  20.939  14.189   1.440
71572W        W38355  20.576  36.849   2.899
71573W        W38356   0.384  26.585  13.591
71574W        W38357  17.264  38.517  12.905
71575W        W38358   9.809   7.328   0.688
71576W        W38359  20.904  37.649  12.046
71577W        W38360  13.968  18.619  13.503
71578W        W38361  14.192  32.307   3.314
71579W        W38362  40.060  24.611  13.479
71580W        W38363   3.382  29.669  11.093
71581W        W38364  17.112  11.469   1.238
71582W        W38365   5.951  26.109  11.879
71583W        W38366   4.805  34.040   3.750
71584W        W38367  23.973  26.639  14.452
71585W        W38368  37.461  22.493  13.912
71586W        W38369  28.538  33.956  13.366
71587W        W38370  35.484  32.192   2.741
71588W        W38371  25.374  11.626   4.165
71589W        W38372  25.668  23.552  13.808
71590W        W38373  22.197  10.851  11.512
71591W        W38374  23.905  38.475  11.674
71592W        W38375  44.965  10.734  10.708
71593W        W38376  44.551  21.221   2.652
71594W        W38377  12.880  40.244   0.211
71595W        W38378  10.272  27.172  12.928
71596W        W38379  25.618   2.348  10.129
71597W        W38380  19.675  20.270   2.114
71598W        W38381  18.206  41.067  13.496
71599W        W38382  10.930  41.852   4.656
71600W        W38383  26.292   2.280  10.822
71601W        W38384  20.409  16.220  14.418
71602W        W38385  23.490  24.588   9.829
71603W        W38386  24.578  16.237   2.488
71604W        W38387  27.242  36.841  13.949
71605W        W38388  40.397  41.708  12.863
71606W        W38389  11.209  12.920  14.330
71607W        W38390   3.801  18.688  10.734
71608W        W38391   4.342  17.522   4.378
71609W        W38392  43.657  43.394  11.014
71610W        W38393  39.733  17.949   2.819
71611W        W38394  32.607   9.357  12.973
71612W        W38395   5.676  15.249   2.469
71613W        W38396  38.862   7.697  10.367
71614W        W38397  23.588  15.193   2.304
71615W        W38398  36.252   3.095   2.744
71616W        W38399  42.266  27.082   2.016
71617W        W38400  18.635   9.789   0.796
71618W        W38401   3.361  32.582   1.642
71619W        W38402  33.590  33.480  12.018
71620W        W38403   7.319  18.035  13.755
71621W        W38404   7.662  41.851   0.891
71622W        W38405   4.263   8.504  12.225
71623W        W38406  33.024  36.605   4.055
71624W        W38407  15.879  19.262  12.985
71625W        W38408  34.463  30.468  13.567
71626W        W38409   3.456   7.551   2.031
71627W        W38410  43.553  36.410   3.383
71628W        W38411  20.151  36.487  12.377
71629W        W38412  44.825   9.880   3.245
71630W        W38413  34.619  10.594   1.471
71631W        W38414  32.389   6.282   4.590
71632W        W38415  43.960  11.886  11.528
71633W        W38416  22.829  34.442  12.857
71634W        W38417   8.890  33.507   0.026
71635W        W38418  14.373   0.047  13.836
71636W        W38419  25.081  23.530  11.583
71637W        W38420   1.781  40.553   2.284
71638W        W38421   5.419  26.969   0.751
71639W        W38422  32.482  11.147   4.342
71640W        W38423  37.466  31.374   1.847
71641W        W38424  24.932  25.582   3.948
71642W        W38425  38.530  21.637   4.459
71643W        W38426  14.563  34.920  11.188
71644W        W38427  36.513  15.583  13.040
71645W        W38428  36.422  39.991   4.808
71646W        W38429  27.953  19.159  13.047
71647W        W38430   9.196  34.783  14.797
71648W        W38431   8.480  16.284   4.693
71649W        W38432  14.583  20.074   0.036
71650W        W38433  35.529  42.843   3.337
71651W        W38434  34.121   9.661  12.578
71652W        W38435  32.641  11.824   4.072
71653W        W38436  31.087   5.687   2.876
71654W        W38437   3.784  16.194  12.438
71655W        W38438  23.122  30.218   2.089
71656W        W38439  30.712  43.692   2.803
71657W        W38440  43.308  25.153   0.408
71658W        W38441  36.169  35.479   4.172
71659W        W38442  38.944  34.669  13.551
71660W        W38443   6.830   4.859  13.307
71661W        W38444  38.557   3.769   2.752
71662W        W38445  37.823  17.018   3.545
71663W        W38446  38.821  19.963   4.790
71664W        W38447   5.150  15.648  11.628
71665W        W38448   8.872  24.147  14.715
71666W        W38449  23.465  14.335   3.701
71667W        W38450  19.576  19.114   0.353
71668W        W38451  39.841  17.262  14.001
71669W        W38452  27.641  20.170  14.385
71670W        W38453   7.288  28.967   4.102
71671W        W38454  31.606  37.367  13.796
71672W        W38455   3.530  12.738  13.058
71673W        W38456  31.242  42.380  11.443
71674W        W38457   3.837   2.824  13.053
71675W        W38458  17.102  31.447   3.703
71676W        W38459  39.732  13.586   5.034
71677W        W38460  35.577  31.852  11.949
71678W        W38461  20.840  27.193  13.523
71679W        W38462  15.084  39.515  12.886
71680W        W38463   6.880  37.856   3.995
71681W        W38464  40.812  41.365   2.509
71682W        W38465  38.231  27.984  12.920
71683W        W38466   6.761  28.941   4.160
71684W        W38467   0.865  15.568  10.612
71685W        W38468   1.498   3.510  14.303
71686W        W38469  44.494   2.274   1.935
71687W        W38470  21.676  13.673  10.742
71688W        W38471  11.071  13.089   3.760
71689W        W38472  28.294   2.408   1.224
71690W        W38473   1.611  15.814   5.070
71691W        W38474  10.152   3.637   3.707
71692W        W38475   6.614  22.429   3.802
71693W        W38476  34.033  19.234  14.394
71694W        W38477  20.657  21.750   1.736
71695W        W38478  15.367  35.601   4.170
71696W        W38479  19.661  26.272   1.538
71697W        W38480  12.700  22.835   2.012
71698W        W38481  30.133   1.304   0.005
71699W        W38482  37.874  21.543   1.054
71700W        W38483  25.110  16.636  14.989
71701W        W38484  28.673  18.484  12.831
71702W        W38485  25.659  44.167   2.227
71703W        W38486  38.585   2.253  14.818
71704W        W38487  41.960   6.907  11.170
71705W        W38488   0.562  23.666   0.705
71706W        W38489  15.192  24.104  12.353
71707W        W38490  30.188   1.263  14.024
71708W        W38491  16.959   5.838   1.085
71709W        W38492  20.722  32.440  11.098
71710W        W38493  30.617   5.398   0.814
71711W        W38494  38.458  42.053   3.332
71712W        W38495  29.202  25.485  14.889
71713W        W38496  19.174  34.482   4.594
71714W        W38497   3.922   4.947  10.996
71715W        W38498  11.389   5.893  11.983
71716W        W38499   1.829  15.113  12.020
71717W        W38500  21.359  28.624   1.303
71718W        W38501  24.984  34.160   2.617
71719W        W38502  30.859  34.298  12.355
71720W        W38503   5.655  41.848   4.100
71721W        W38504  25.008  24.686  12.383
71722W        W38505   5.774  39.998   2.010
71723W        W38506   7.820  25.952  11.573
71724W        W38507   8.962   2.628   0.430
71725W        W38508  18.423   6.219   4.192
71726W        W38509  15.253  13.785   3.224
71727W        W38510   3.735   1.056  12.033
71728W        W38511  38.547  25.765  12.104
71729W        W38512  19.526  24.333   4.206
71730W        W38513  16.661  19.218  10.366
71731W        W38514  19.633   3.396   1.192
71732W        W38515  13.897  15.811  14.228
71733W        W38516   5.447  20.761  14.753
71734W        W38517  42.993   9.947  10.795
71735W        W38518  36.173   1.986   1.047
71736W        W38519  26.905  24.756  12.752
71737W        W38520  36.821  34.494  12.751
71738W        W38521  39.332  24.635   1.228
71739W        W38522  26.132   0.174   1.677
71740W        W38523  22.025   5.667   1.235
71741W        W38524  15.968  21.593  14.521
71742W        W38525  23.250   7.429   2.150
71743W        W38526  29.160  37.224  11.592
71744W        W38527  25.689  43.506  10.634
71745W        W38528  23.556  13.128   0.354
71746W        W38529   0.948  13.359  14.554
71747W        W38530  14.535  43.923  11.552
71748W        W38531  18.164  26.025  12.130
71749W        W38532  40.312  25.530   4.378
71750W        W38533   5.890  19.573  10.644
71751W        W38534  19.772  27.552   3.097
71752W        W38535   6.327  39.848  13.823
71753W        W38536  35.189   5.453  10.397
71754W        W38537  10.310  21.919   4.079
71755W        W38538  41.318  29.195  11.259
71756W        W38539   1.235   7.351  11.140
71757W        W38540  32.957  31.449  12.562
71758W        W38541   1.757  35.947   3.324
71759W        W38542   2.924  18.104  14.051
71760W        W38543  36.954  38.689   3.258
71761W        W38544  14.617  44.677  13.379
71762W        W38545  22.138   7.754   0.306
71763W        W38546  21.525  27.050  12.459
71764W        W38547  44.094  43.548   1.259
71765W        W38548  15.795  38.524   0.949
71766W        W38549  12.409   4.265  13.733
71767W        W38550  29.529  16.187   3.334
71768W        W38551  16.244   3.489  12.128
71769W        W38552  41.787  22.548  11.147
71770W        W38553   3.383  25.806   1.647
71771W        W38554  27.099  43.487   2.249
71772W        W38555  24.010  28.131   4.078
71773W        W38556  12.097  39.055  13.810
71774W        W38557   5.989  31.654  11.120
71775W        W38558  16.171   2.642   4.781
71776W        W38559   5.761  26.876   1.521
71777W        W38560  44.940  14.625   1.174
71778W        W38561   1.287  34.307  11.050
71779W        W38562  26.993  43.177  13.412
71780W        W38563  33.987   7.707  14.763
71781W        W38564  41.744  41.377  13.493
71782W        W38565  44.265  41.961  13.339
71783W        W38566   5.834  24.219   3.127
71784W        W38567   0.543  20.468  12.923
71785W        W38568  23.661  22.946   9.791
71786W        W38569  22.051   1.258   1.827
71787W        W38570  17.836  12.859  13.581
71788W        W38571  33.167  15.747   3.703
71789W        W38572   3.682  36.139   3.132
71790W        W38573  16.189   9.405   1.386
71791W        W38574  31.254  32.595  12.054
71792W        W38575  32.641  21.282  12.184
71793W        W38576  28.253  35.253   4.914
71794W        W38577  17.051  13.279   1.919
71795W        W38578  10.327  17.738  10.309
71796W        W38579  37.054   0.372  13.861
71797W        W38580  30.990   2.276   4.087
71798W        W38581   2.753  16.328  11.938
71799W        W38582  12.395  38.043  13.343
71800W        W38583   0.577  43.879   4.042
71801W        W38584   5.806  36.493  13.184
71802W        W38585  13.911  38.244   4.324
71803W        W38586   3.338  41.521   9.904
71804W        W38587   4.499  31.061   0.810
71805W        W38588  25.089  37.166  10.111
71806W        W38589  16.377  30.383  13.937
71807W        W38590  19.208  12.237   0.846
71808W        W38591  38.971  28.755  11.603
71809W        W38592  11.924  30.241  11.159
71810W        W38593  37.629  18.680  11.619
71811W        W38594  31.343  39.215  11.993
71812W        W38595  40.266   5.798  12.900
71813W        W38596  13.631  13.319  10.694
71814W        W38597  28.663  16.827   0.705
71815W        W38598  33.105  21.141  11.530
71816W        W38599   5.532  29.204  13.922
71817W        W38600  42.476  13.301  14.671
71818W        W38601  10.253  20.135   4.558
71819W        W38602  44.901   7.375   0.891
71820W        W38603   9.123  26.618   2.673
71821W        W38604  39.041  12.131   0.831
71822W        W38605  33.541  37.418  12.077
71823W        W38606  19.461  35.315  14.835
71824W        W38607  42.413  36.586  13.543
71825W        W38608  31.147  42.251  14.886
71826W        W38609   9.054  39.180  13.863
71827W        W38610  35.117  12.650  12.569
71828W        W38611   5.749   0.958  14.983
71829W        W38612  41.118  38.235   3.535
71830W        W38613  41.450   2.617   2.938
71831W        W38614  28.653  22.143   0.544
71832W        W38615  25.937  34.345  13.012
71833W        W38616  44.308  21.267   4.830
71834W        W38617  33.586   2.627   3.644
71835W        W38618   9.630  15.663   1.758
71836W        W38619  27.960  31.887  14.050
71837W        W38620  40.309  39.020  14.540
71838W        W38621  16.702  33.958   0.570
71839W        W38622  34.547  17.497   4.611
71840W        W38623  27.779  31.016   4.966
71841W        W38624  12.924  22.690   4.888
71842W        W38625   0.358  29.144   2.296
71843W        W38626   8.276   1.485  11.522
71844W        W38627  26.215  15.136   1.407
71845W        W38628  27.936  24.300   2.422
71846W        W38629   7.410  14.370  11.398
71847W        W38630  37.977  22.564  12.890
71848W        W38631  28.618  14.526   0.970
71849W        W38632  23.668  35.552   2.321
71850W        W38633  39.594   3.046  13.934
71851W        W38634  37.456  28.616  12.201
71852W        W38635  37.459   7.278   1.035
71853W        W38636  15.259  18.307  12.844
71854W        W38637  43.159  13.699   1.786
71855W        W38638  15.561  12.262   4.506
71856W        W38639  14.729  16.020  13.685
71857W        W38640  31.585  31.546   1.283
71858W        W38641   6.329   6.809   4.921
71859W        W38642   0.965  27.128  10.864
71860W        W38643  43.483  23.448  12.482
71861W        W38644  33.348  15.174   3.205
71862W        W38645  19.336  14.846  14.752
71863W        W38646  19.266  18.306   1.604
71864W        W38647   6.623  36.383  14.073
71865W        W38648  21.618  26.627   4.045
71866W        W38649  44.421  31.460   2.896
71867W        W38650  33.241  30.795  14.833
71868W        W38651  24.337  38.657  12.991
71869W        W38652  43.860   8.716   1.752
71870W        W38653  19.035  17.370   1.807
71871W        W38654   3.852  24.163   0.026
71872W        W38655   3.204  18.741   0.263
71873W        W38656  42.813  31.348   1.785
71874W        W38657  17.828  40.576   3.263
71875W        W38658  40.882   8.821  14.987
71876W        W38659   7.815  27.955   4.592
71877W        W38660  20.219  25.685   0.899
71878W        W38661  29.380  13.145   1.025
71879W        W38662   1.561  42.815   2.244
71880W        W38663  11.817  38.799  14.594
71881W        W38664  37.046  26.909  11.948
71882W        W38665  33.041   1.876   0.930
71883W        W38666  21.217  29.027  13.536
71884W        W38667  37.531   4.681  13.044
71885W        W38668  12.441  40.020   2.188
71886W        W38669   3.678  38.848  14.993
71887W        W38670   8.832  41.820  13.369
71888W        W38671  28.062  11.356  13.384
71889W        W38672  33.552  24.284   3.230
71890W        W38673  36.361  29.842   3.091
71891W        W38674   0.944  15.968  14.434
71892W        W38675  30.700  39.808   1.514
71893W        W38676  32.016  43.029   3.592
71894W        W38677   1.470  43.831  13.297
71895W        W38678  12.398   9.689   0.987
71896W        W38679  22.963  22.425  12.155
71897W        W38680  13.864   9.225  12.182
71898W        W38681   4.854  35.775  14.877
71899W        W38682  20.440  44.584   4.644
71900W        W38683  25.027  11.006  12.954
71901W        W38684  17.206  38.572  11.861
71902W        W38685  11.343  34.377  14.483
71903W        W38686   7.004  30.217   1.175
71904W        W38687  44.727  28.434  14.831
71905W        W38688   2.492  14.600  14.818
71906W        W38689  29.215  43.520  13.929
71907W        W38690  32.533  35.199   3.727
71908W        W38691  39.907  15.348  11.614
71909W        W38692  15.316  34.678  13.037
71910W        W38693  38.221  19.226   1.184
71911W        W38694  39.452  21.504  13.022
71912W        W38695  44.074  43.059  14.939
71913W        W38696  34.795  31.080   4.087
71914W        W38697  28.465   2.512   3.698
71915W        W38698  13.041  18.596  14.347
71916W        W38699  18.221  19.398  11.037
71917W        W38700  41.003  13.068   9.842
71918W        W38701  15.954  42.535   1.517
71919W        W38702  33.940  24.674   1.484
71920W        W38703  34.882  18.746   3.678
71921W        W38704  23.821   1.793  14.046
71922W        W38705  17.569  15.729  13.391
71923W        W38706   2.116   3.710  11.821
71924W        W38707  33.149  37.469  12.976
71925W        W38708  11.252  18.855  11.740
71926W        W38709  20.479  35.102  13.308
71927W        W38710  41.908  11.598  14.392
71928W        W38711  10.666  35.486  13.475
71929W        W38712  43.662  26.728   4.407
71930W        W38713  39.352  31.341  10.418
71931W        W38714  24.104  15.794   1.729
71932W        W38715  41.448  36.937   3.110
71933W        W38716   3.278  31.521   1.704
71934W        W38717   6.341  40.221   3.146
71935W        W38718  12.157  15.238   0.711
71936W        W38719  13.314  22.689   1.205
71937W        W38720  43.393   4.763  13.178
71938W        W38721  39.298  42.095  12.741
71939W        W38722   1.521  32.806   0.667
71940W        W38723  11.745   4.523   0.958
71941W        W38724  17.288  33.927   4.548
71942W        W38725   8.654   2.946   0.690
71943W        W38726  44.468  40.782   2.630
71944W        W38727   3.219  17.018  14.331
71945W        W38728  23.078   7.967   1.287
71946W        W38729   4.424  29.738   4.118
71947W        W38730  20.652  42.146   4.917
71948W        W38731  35.089   6.845  11.740
71949W        W38732  23.022  44.687   4.977
71950W        W38733  37.853  32.849   0.964
71951W        W38734  27.616  26.977  12.356
71952W        W38735  23.606  41.400  14.509
71953W        W38736  20.776  31.580  13.458
71954W        W38737  39.044  26.178  14.991
71955W        W38738  10.739  19.815  12.122
71956W        W38739  25.979  12.894   2.145
71957W        W38740  27.987  15.845   3.386
71958W        W38741  43.086  33.584   4.214
71959W        W38742  10.266   0.847  14.941
71960W        W38743  38.893  42.360   3.222
71961W        W38744   3.666   2.342   0.432
71962W        W38745  39.258  21.808   1.763
71963W        W38746  10.323  25.044  10.221
71964W        W38747  31.470  22.702   2.344
71965W        W38748   7.616  21.760   0.324
71966W        W38749  32.628  27.676  11.988
71967W        W38750  19.143  14.409   0.034
71968W        W38751  34.392   8.998  11.238
71969W        W38752  31.371   3.852   2.875
71970W        W38753  19.641  41.774  10.731
71971W        W38754  25.822  15.113  12.619
71972W        W38755  30.828  42.447  10.439
71973W        W38756  24.984   6.316   4.733
71974W        W38757  38.904  30.483   3.124
71975W        W38758  15.323  12.441   1.916
71976W        W38759   9.427  14.751  11.178
71977W        W38760  24.953  26.512   1.354
71978W        W38761  39.436  33.527   4.922
71979W        W38762   7.646   7.154   2.841
71980W        W38763  10.278  17.534  11.841
71981W        W38764   3.949   6.169   2.638
71982W        W38765  15.908   4.887   3.805
71983W        W38766  32.190  42.462  10.961
71984W        W38767  29.078  17.145   0.820
71985W        W38768  23.075  11.220   3.921
71986W        W38769  33.991  40.184   4.141
71987W        W38770   9.645  11.651   1.780
71988W        W38771  19.769  17.321  12.944
71989W        W38772   3.975  33.384  14.133
71990W        W38773  40.876  30.660  13.409
71991W        W38774  18.932  30.175  12.555
71992W        W38775  33.517  33.333  12.894
71993W        W38776  12.074  20.594  11.335
71994W        W38777  26.001  14.787   0.410
71995W        W38778  24.982   5.792   1.036
71996W        W38779  40.623  33.537   3.314
71997W        W38780  43.025  16.104   3.032
71998W        W38781  35.082   4.122  13.452
71999W        W38782  22.560  36.026  13.536
72000W        W38783  31.393  27.047  13.027
72001W        W38784  26.133   9.791   1.664
72002W        W38785  10.711  24.502  11.345
72003W        W38786  32.174  13.115   0.426
72004W        W38787   0.053  11.849   2.659
72005W        W38788  44.401  38.797  12.428
72006W        W38789  42.550  21.128   0.793
72007W        W38790  30.428   3.324  15.000
72008W        W38791   8.578  40.818  14.186
72009W        W38792  38.834  22.719  13.904
72010W        W38793  13.534   3.375   1.895
72011W        W38794  40.642  36.499   4.104
72012W        W38795  36.442  43.620  13.912
72013W        W38796  31.079  16.845  14.424
72014W        W38797  19.168   9.616  11.006
72015W        W38798  32.522  12.855  13.990
72016W        W38799   7.357  21.347   3.509
72017W        W38800  26.645  17.092   1.925
72018W        W38801  40.857  12.382  13.421
72019W        W38802   2.321  21.202  10.746
72020W        W38803  33.033  40.039  13.333
72021W        W38804   6.589   7.708   3.159
72022W        W38805  44.581  34.455   3.117
72023W        W38806  15.463  18.591  14.264
72024W        W38807  24.938  19.092  11.890
72025W        W38808  23.220  24.585  10.269
72026W        W38809  17.217   8.871  13.208
72027W        W38810  31.551  24.007   2.761
72028W        W38811  18.184  19.194   4.409
72029W        W38812   6.484  32.118  12.568
72030W        W38813  41.637   6.421  10.524
72031W        W38814   0.866  22.758   0.306
72032W        W38815  42.766  23.570  13.472
72033W        W38816   0.516  35.704   4.066
72034W        W38817  41.092  25.087   1.616
72035W        W38818   1.205  44.197   2.802
72036W        W38819  16.690  14.559  11.097
72037W        W38820  16.086  27.872  12.085
72038W        W38821  29.559   4.956   4.644
72039W        W38822  37.645   9.953  11.101
72040W        W38823  25.202  24.914  14.596
72041W        W38824   1.824  22.888   0.287
72042W        W38825  27.110  15.375  13.466
72043W        W38826   8.697  29.415  14.767
72044W        W38827  34.756   9.269  11.482
72045W        W38828  44.291  27.153  11.847
72046W        W38829  14.308  42.803   2.615
72047W        W38830  31.152  38.432  12.879
72048W        W38831   6.670  18.334   2.110
72049W        W38832  30.960  12.841   4.749
72050W        W38833   3.164  18.684  12.452
72051W        W38834  26.250  14.143   4.152
72052W        W38835  28.658  16.276  10.736
72053W        W38836  36.209  43.468  13.471
72054W        W38837  35.196  30.100   2.006
72055W        W38838  35.573  42.984   2.268
72056W        W38839   8.094  33.322   0.715
72057W        W38840  12.730  23.069  10.377
72058W        W38841  27.363   7.704   2.212
72059W        W38842  40.406  10.442   0.895
72060W        W38843  29.250  33.976   4.483
72061W        W38844  20.490  13.993   3.663
72062W        W38845   0.562  22.184  12.631
72063W        W38846  39.413  32.287   2.401
72064W        W38847  13.341  17.665  11.708
72065W        W38848  10.277   3.777   4.487
72066W        W38849  28.632  17.093  12.447
72067W        W38850  34.177  30.065   1.608
72068W        W38851  41.524   8.229  11.836
72069W        W38852  22.786  23.563  11.026
72070W        W38853   2.982   7.227   3.267
72071W        W38854  23.000  44.724  12.463
72072W        W38855  41.993   3.874  14.965
72073W        W38856   7.705   4.970   2.589
72074W        W38857   9.560   5.789  12.450
72075W        W38858  22.710  34.552   3.194
72076W        W38859   7.141  38.759   4.689
72077W        W38860  43.358  19.584  14.571
72078W        W38861  20.144   9.481  12.904
72079W        W38862   8.187  23.060   4.601
72080W        W38863  37.324  40.706   2.316
72081W        W38864  19.587   6.538  11.991
72082W        W38865  35.257  34.659   4.886
72083W        W38866  17.168  30.389  10.636
72084W        W38867  21.687  27.503  12.208
72085W        W38868   8.723  37.478   2.804
72086W        W38869  20.917   4.727   4.073
72087W        W38870  13.223  17.303   0.838
72088W        W38871  15.285   3.271   2.718
72089W        W38872  28.192  31.331   1.232
72090W        W38873  34.016   1.774  11.701
72091W        W38874  36.202  38.615   4.083
72092W        W38875  37.510  28.944   3.845
72093W        W38876  24.455  39.848  12.330
72094W        W38877  18.491  14.199  12.572
72095W        W38878  40.598  36.483   1.005
72096W        W38879   3.486  20.733   1.001
72097W        W38880  38.282  34.339  14.786
72098W        W38881  29.400  27.599   1.700
72099W        W38882  27.472  32.439   4.612
72100W        W38883  17.714  12.709   4.913
72101W        W38884  19.793  32.982   3.169
72102W        W38885  44.278  25.187   1.300
72103W        W38886  11.355  27.896   0.396
72104W        W38887   5.158  34.536   0.203
72105W        W38888  29.184  19.603   4.431
72106W        W38889   5.304  16.039   2.126
72107W        W38890  25.950  20.546   4.061
72108W        W38891  11.311  16.655   3.632
72109W        W38892  37.349  25.282  12.859
72110W        W38893  12.890   8.572   2.808
72111W        W38894   3.698  35.949  13.270
72112W        W38895  44.549  18.319  10.893
72113W        W38896  10.171  30.354   1.323
72114W        W38897  19.678   9.311   3.810
72115W        W38898   7.737   0.332  13.454
72116W        W38899  14.640  41.523  11.620
72117W        W38900   6.731   6.896  11.643
72118W        W38901  28.147   7.390  13.385
72119W        W38902  10.400  40.876  13.024
72120W        W38903  28.579  43.233   3.512
72121W        W38904   9.854  28.594  11.973
72122W        W38905  31.664   7.837  12.005
72123W        W38906   6.148  35.058  11.075
72124W        W38907  39.856  16.701   4.661
72125W        W38908  16.331  15.676  14.943
72126W        W38909  27.648  31.448   2.337
72127W        W38910   6.382  32.143   0.709
72128W        W38911  31.067   5.358  11.037
72129W        W38912  35.512   4.631  14.511
72130W        W38913   4.728  30.106  12.102
72131W        W38914   9.775  21.120   3.111
72132W        W38915  44.982  30.420  10.648
72133W        W38916   5.481  37.003   4.149
72134W        W38917  42.184  12.286  11.103
72135W        W38918   5.688  12.485   3.298
72136W        W38919  22.462  14.994  14.568
72137W        W38920  15.274   1.497   3.638
72138W        W38921  29.984   5.741  10.988
72139W        W38922  33.890   5.314  13.862
72140W        W38923  19.364   3.237  11.933
72141W        W38924  30.799  32.505   4.628
72142W        W38925  41.356  42.361   2.248
72143W        W38926  15.318  32.405  13.369
72144W        W38927  26.737  18.273  14.242
72145W        W38928  22.689  36.015  14.475
72146W        W38929  36.519   1.803  10.531
72147W        W38930   0.238  30.494   3.956
72148W        W38931  36.501  32.690   0.815
72149W        W38932   8.893  22.777  14.557
72150W        W38933   7.559   7.706  11.214
72151W        W38934  26.920   3.054   4.886
72152W        W38935  12.889   9.230  11.206
72153W        W38936   2.279   1.368   1.678
72154W        W38937  15.559  35.651  12.528
72155W        W38938  40.334  28.218  13.818
72156W        W38939  44.288  24.673   2.953
72157W        W38940  31.438  18.181  11.967
72158W        W38941   3.267  27.421   0.088
72159W        W38942  32.938   9.045   3.587
72160W        W38943  23.798  42.609   0.667
72161W        W38944   0.262   4.900   2.335
72162W        W38945  44.893  40.378  11.265
72163W        W38946  39.346  37.490  10.935
72164W        W38947  26.978  36.046   1.983
72165W        W38948  24.667  38.141  14.364
72166W        W38949  19.177  13.565  14.305
72167W        W38950  11.570  22.531  11.662
72168W        W38951  16.165   4.329   1.825
72169W        W38952  22.026  39.834   0.779
72170W        W38953  16.796  10.871   2.736
72171W        W38954  18.059  28.874  14.831
72172W        W38955  13.280  16.632  13.963
72173W        W38956  28.213   0.174  13.862
72174W        W38957  11.986  13.414   3.593
72175W        W38958  25.565  31.666   1.914
72176W        W38959  24.560  30.715  11.330
72177W        W38960   4.644  40.192  13.884
72178W        W38961  25.757   4.457  14.865
72179W        W38962  38.833  43.021  13.860
72180W        W38963  15.154   9.877  11.219
72181W        W38964  25.657  22.309   0.891
72182W        W38965  17.196   5.634  13.745
72183W        W38966  41.359  15.833  12.270
72184W        W38967  31.839  37.159  12.479
72185W        W38968  18.190  41.896  13.928
72186W        W38969  23.150  26.633   2.125
72187W        W38970  23.600  22.803   0.355
72188W        W38971   7.834  30.831   3.166
72189W        W38972  28.254   3.747   1.636
72190W        W38973   1.953  26.080   2.771
72191W        W38974  37.674  37.106   1.742
72192W        W38975  36.487  39.307   0.418
72193W        W38976  24.091  18.823   3.378
72194W        W38977  18.321  11.221  14.725
72195W        W38978  32.916  24.259  13.909
72196W        W38979  16.324   4.518  12.018
72197W        W38980  19.512   5.703  12.947
72198W        W38981  20.794  39.957   3.530
72199W        W38982   1.360  24.607  11.247
72200W        W38983  38.955  31.025  10.662
72201W        W38984  33.897   8.755   0.294
72202W        W38985  42.530  21.884   0.782
72203W        W38986   7.418  39.008   4.183
72204W        W38987  44.626  11.706   4.523
72205W        W38988  34.942  42.203   0.365
72206W        W38989  39.464  34.488   2.284
72207W        W38990  12.977   4.042   3.299
72208W        W38991  33.892   1.906   2.264
72209W        W38992  31.108  37.912  10.763
72210W        W38993  12.028  19.116   0.289
72211W        W38994  15.219  29.990  13.311
72212W        W38995  15.525  13.643  14.474
72213W        W38996  28.529  35.566   1.814
72214W        W38997  19.920  28.477  13.054
72215W        W38998  33.705  29.197   0.238
72216W        W38999   2.065  15.306   3.642
72217W        W39000  16.347   2.997  12.377
72218W        W39001  35.266  13.329  12.836
72219W        W39002  24.228   6.305   1.135
72220W        W39003  17.676  37.054   3.315
72221W        W39004  14.566  33.694  10.548
72222W        W39005  35.617   3.962   1.736
72223W        W39006  21.020   9.764   0.484
72224W        W39007  14.402  18.679  13.755
72225W        W39008  38.593  19.222  11.951
72226W        W39009  25.122  38.768   4.114
72227W        W39010  32.865  18.523   0.783
72228W        W39011  11.476  29.025   0.997
72229W        W39012   0.502  15.933  10.679
72230W        W39013  38.829  21.983   0.869
72231W        W39014  23.039  32.081   0.985
72232W        W39015  26.300  39.921   4.264
72233W        W39016  15.550  39.987   1.361
72234W        W39017  22.438  24.971   1.533
72235W        W39018   1.405   8.573  12.900
72236W        W39019   6.594  21.358  14.467
72237W        W39020   8.311  27.654  10.722
72238W        W39021  34.159  33.352  14.820
72239W        W39022   7.606  39.450   2.391
72240W        W39023  32.833  24.510   3.690
72241W        W39024  10.117  30.355   1.867
72242W        W39025  22.069   0.971   4.068
72243W        W39026   1.188  14.162  12.001
72244W        W39027   0.956  33.575   1.771
72245W        W39028  41.749  25.216  13.279
72246W        W39029  40.915  12.452   4.313
72247W        W39030  10.147  12.138   0.263
72248W        W39031  25.299   8.710   4.051
72249W        W39032   6.927  42.852   3.769
72250W        W39033  32.549   5.770  13.424
72251W        W39034  42.387  31.617   4.019
72252W        W39035  21.500  13.690  14.709
72253W        W39036  11.726  21.060  12.546
72254W        W39037  18.098  38.319   3.640
72255W        W39038  11.198   3.207  11.368
72256W        W39039  11.572  42.338  14.996
72257W        W39040   0.249  35.606  12.874
72258W        W39041  29.120  12.097   1.340
72259W        W39042  20.655  39.087   4.267
72260W        W39043   1.927  33.233  11.664
72261W        W39044  11.783  27.118   1.988
72262W        W39045  34.132  34.841   0.683
72263W        W39046  11.227   3.747   4.573
72264W        W39047  24.617  19.827   5.047
72265W        W39048  19.640  29.730   3.381
72266W        W39049   3.247  24.740   1.759
72267W        W39050  10.793   2.827   0.145
72268W        W39051  12.848  21.771  13.575
72269W        W39052  13.333   8.272  12.439
72270W        W39053  31.959  39.360  14.905
72271W        W39054  35.311   4.307  11.466
72272W        W39055  19.079  39.021   3.256
72273W        W39056  38.108  41.964  14.984
72274W        W39057   4.844  24.118  10.717
72275W        W39058  11.357  38.527   2.696
72276W        W39059  43.294  42.910  12.189
72277W        W39060  13.021  28.527  14.945
72278W        W39061  15.072   1.959   3.875
72279W        W39062   1.632  15.122   0.411
72280W        W39063  22.627  26.553  12.828
72281W        W39064  16.320  27.038   4.333
72282W        W39065  11.720  36.805  11.219
72283W        W39066   8.036   0.711  10.893
72284W        W39067  15.554  22.736  14.110
72285W        W39068  23.536  39.784  12.353
72286W        W39069  15.549  26.379   2.842
72287W        W39070  30.370  30.902   5.065
72288W        W39071  15.179  24.013   1.823
72289W        W39072  36.523  23.440   9.820
72290W        W39073  16.677  19.573  14.831
72291W        W39074  38.738  42.475   2.605
72292W        W39075  11.698   7.349  14.480
72293W        W39076  12.331  35.308   2.598
72294W        W39077  25.681   3.234   3.192
72295W        W39078   9.151  12.109  14.251
72296W        W39079  18.206  16.391   1.099
72297W        W39080  28.103  34.375   2.751
72298W        W39081  17.153  36.922   0.024
72299W        W39082  34.365  30.571  12.141
72300W        W39083  10.646  43.872   2.338
72301W        W39084  35.490   3.240  13.396
72302W        W39085  32.531   4.423  13.010
72303W        W39086  25.290   1.507   4.721
72304W        W39087  24.333  24.542   5.046
72305W        W39088  19.007   5.211  13.512
72306W        W39089  44.555  27.442   3.066
72307W        W39090  15.610  22.846   0.913
72308W        W39091  34.178  39.778  11.198
72309W        W39092  13.726  17.642  10.863
72310W        W39093  37.352  10.337  13.257
72311W        W39094  42.347  43.470  14.917
72312W        W39095  29.654  26.513  13.109
72313W        W39096  30.679  22.735   4.237
72314W        W39097  12.848  21.202  11.517
72315W        W39098  15.077  21.729   0.463
72316W        W39099  11.400  37.037   5.584
72317W        W39100  14.570  23.191   2.057
72318W        W39101  35.094  14.747   4.464
72319W        W39102  34.096  11.794  14.915
72320W        W39103   5.288  28.640   4.331
72321W        W39104   6.962  36.533   2.703
72322W        W39105  42.174  18.600  13.943
72323W        W39106  36.073  28.904   0.456
72324W        W39107  40.695  25.262  10.004
72325W        W39108  40.304  43.414   0.847
72326W        W39109  13.687  25.652   0.708
72327W        W39110  10.209  15.270   4.761
72328W        W39111  21.460  36.985  12.068
72329W        W39112  21.603  11.894   0.286
72330W        W39113  18.638  30.942  14.960
72331W        W39114  34.363   2.456   1.165
72332W        W39115  36.633  31.614   1.739
72333W        W39116   0.477  12.301  14.445
72334W        W39117  37.012  30.152   2.327
72335W        W39118  41.870  11.059  12.983
72336W        W39119  38.308  37.242  14.966
72337W        W39120  10.684  10.848   2.794
72338W        W39121  18.503  44.664   2.305
72339W        W39122  33.468  43.832   1.925
72340W        W39123   4.652  15.754  10.751
72341W        W39124  10.364  30.295   0.823
72342W        W39125  32.402  29.361   1.735
72343W        W39126  33.921  29.574  12.355
72344W        W39127  39.870  10.120  12.859
72345W        W39128  37.975  35.662   4.141
72346W        W39129  44.972  24.103  11.739
72347W        W39130  10.395  29.681   3.899
72348W        W39131   6.012  14.815  12.375
72349W        W39132  12.210  10.128   4.778
72350W        W39133   5.273  13.111   1.296
72351W        W39134  27.572  19.977   0.002
72352W        W39135  14.537  11.754  11.560
72353W        W39136   8.261  18.070  12.978
72354W        W39137   4.195  13.354   1.910
72355W        W39138   5.429   4.312  13.831
72356W        W39139   8.293  13.146   0.429
72357W        W39140  42.759  36.283  13.824
72358W        W39141  17.741  35.338  11.034
72359W        W39142  31.957  31.145   3.189
72360W        W39143  36.545  22.184  13.478
72361W        W39144  31.391  30.134   0.819
72362W        W39145  29.447   6.280  14.887
72363W        W39146  17.364  13.535  11.997
72364W        W39147  16.526   1.269  13.345
72365W        W39148  12.687  26.776   3.623
72366W        W39149  25.166  33.060  14.473
72367W        W39150  20.517  20.257  13.005
72368W        W39151   6.656   5.673   1.501
72369W        W39152   0.568  24.991   2.703
72370W        W39153  25.797   0.893   1.852
72371W        W39154   8.458  20.586   1.312
72372W        W39155  43.626  16.025  14.304
72373W        W39156  20.564  10.299  12.040
72374W        W39157  14.715   5.353  13.504
72375W        W39158  36.984  35.979   1.813
72376W        W39159  39.617  33.060  12.455
72377W        W39160  16.837   8.344   4.588
72378W        W39161  33.436  40.558   2.440
72379W        W39162  44.087   8.698  12.794
72380W        W39163  15.712  35.285  12.887
72381W        W39164  35.703   4.587   4.121
72382W        W39165  29.046  11.177  10.399
72383W        W39166   1.187  36.485  10.303
72384W        W39167  30.501  37.991   4.697
72385W        W39168  37.500   7.290  14.568
72386W        W39169  21.048  15.067   2.426
72387W        W39170  29.410  29.585   3.324
72388W        W39171  27.995   1.605  13.354
72389W        W39172  36.970  40.535  10.735
72390W        W39173  26.887  11.863   3.335
72391W        W39174  12.716  35.609  11.162
72392W        W39175  22.767  41.512   2.276
72393W        W39176   9.273  19.008   3.597
72394W        W39177  13.273   6.319  14.390
72395W        W39178  28.478  18.652  10.702
72396W        W39179   9.387  16.410   3.594
72397W        W39180  43.544  23.751  14.126
72398W        W39181   9.486  31.499   0.790
72399W        W39182   5.036   7.142  13.082
72400W        W39183  26.486  25.617   3.595
72401W        W39184  44.882  41.676   0.981
72402W        W39185   2.616  25.902   0.183
72403W        W39186  15.700  12.752   0.048
72404W        W39187  29.689  35.418   3.171
72405W        W39188  12.792  20.850   1.565
72406W        W39189  13.945  28.986  10.751
72407W        W39190  18.688  42.534  10.728
72408W        W39191  18.678  36.353  14.348
72409W        W39192  21.182  43.046   0.778
72410W        W39193  36.443  29.329  11.514
72411W        W39194   4.462   0.123   4.048
72412W        W39195   0.696   1.703  11.531
72413W        W39196   1.143  15.322   0.491
72414W        W39197  40.601   8.216   0.817
72415W        W39198  31.114   7.698   3.258
72416W        W39199  16.581  35.041   3.207
72417W        W39200  23.061   2.281   0.576
72418W        W39201  42.868  23.422  14.328
72419W        W39202  41.178  35.080   0.839
72420W        W39203  35.080   4.900   0.345
72421W        W39204  17.796   1.883   1.896
72422W        W39205  39.004   3.908   4.521
72423W        W39206  36.472   3.071   5.074
72424W        W39207  34.951  16.034  14.596
72425W        W39208  24.843   1.707  11.610
72426W        W39209  18.850   7.187   3.276
72427W        W39210  14.275  35.840  12.973
72428W        W39211  16.748   5.886  13.096
72429W        W39212   2.561  22.000  14.929
72430W        W39213  42.451  44.432   1.290
72431W        W39214  33.327   8.171   0.840
72432W        W39215  37.236   5.460   1.165
72433W        W39216   4.336  26.065  11.015
72434W        W39217  12.652  37.611  12.410
72435W        W39218   8.266  38.860   2.236
72436W        W39219   0.977   7.204   2.197
72437W        W39220  18.749  39.440  11.467
72438W        W39221   6.860  19.169   2.266
72439W        W39222  25.540  43.297   4.620
72440W        W39223   4.841   8.949  13.290
72441W        W39224  34.580  27.087  13.771
72442W        W39225  42.695   7.063   5.156
72443W        W39226  30.641  36.895  13.819
72444W        W39227  31.141   5.352   4.301
72445W        W39228  31.218  18.115  12.440
72446W        W39229  31.511  15.859  12.426
72447W        W39230  16.152  21.173  11.140
72448W        W39231  24.110  29.757  13.912
72449W        W39232   5.820  26.658  11.247
72450W        W39233  36.338   8.886  13.758
72451W        W39234  36.945  42.886  10.918
72452W        W39235  36.184  41.038  14.343
72453W        W39236  44.407   7.136  13.037
72454W        W39237  31.266  41.280  11.576
72455W        W39238  11.886  35.535   0.412
72456W        W39239   9.895  39.545   0.862
72457W        W39240  14.304   7.614  10.113
72458W        W39241  31.444  25.528   2.865
72459W        W39242  26.003  23.183  12.808
72460W        W39243  43.812  34.921   1.945
72461W        W39244  17.269  39.830   3.247
72462W        W39245  17.842  44.505  11.062
72463W        W39246   5.403  37.387   1.307
72464W        W39247  32.415   9.823  11.226
72465W        W39248  22.504  16.838  11.219
72466W        W39249   0.863  31.567  12.117
72467W        W39250  21.794   2.574   0.565
72468W        W39251  20.766  41.025   3.185
72469W        W39252   4.887  16.731  13.043
72470W        W39253  39.060   0.922   0.442
72471W        W39254  37.861  40.986  13.475
72472W        W39255  20.795  27.937  13.030
72473W        W39256  25.607  30.571  12.495
72474W        W39257   4.412  28.620   3.186
72475W        W39258  35.314   0.917   1.082
72476W        W39259  16.720  40.474  10.648
72477W        W39260  24.666   7.789  10.540
72478W        W39261  41.978  32.021   1.455
72479W        W39262  32.033  16.041   4.827
72480W        W39263  33.040  13.185   3.564
72481W        W39264   5.435  12.380   3.733
72482W        W39265  11.221  42.911   1.673
72483W        W39266  27.372   4.323  12.859
72484W        W39267  30.229  18.336   0.339
72485W        W39268  14.102   8.689  13.665
72486W        W39269  17.541  40.925  12.992
72487W        W39270  21.657  27.536   9.737
72488W        W39271  44.336  23.709   2.755
72489W        W39272   2.712   7.949  14.958
72490W        W39273  26.359  36.295   0.188
72491W        W39274   8.727  17.195   5.413
72492W        W39275   2.091  42.787  11.565
72493W        W39276  22.274  22.454   1.754
72494W        W39277   6.142  10.771   3.102
72495W        W39278  21.967   7.393  14.933
72496W        W39279  16.970  31.421  10.695
72497W        W39280   0.436   7.717  14.723
72498W        W39281  14.520  43.742   2.041
72499W        W39282  24.531  37.273   3.220
72500W        W39283  40.671  16.684  10.688
72501W        W39284  29.147  43.858  11.562
72502W        W39285  38.050  33.318  10.143
72503W        W39286  33.139  36.956  11.162
72504W        W39287  28.613  16.607  13.360
72505W        W39288  28.446  30.145  10.442
72506W        W39289  12.347  39.031  13.344
72507W        W39290  34.789   5.777   4.261
72508W        W39291  38.131  31.054   3.249
72509W        W39292  31.036  28.518  11.396
72510W        W39293   8.872  23.078   4.070
72511W        W39294  37.317  32.508  14.398
72512W        W39295  20.678  11.071  12.467
72513W        W39296  38.389  19.989   1.722
72514W        W39297  37.877  42.378  12.062
72515W        W39298  26.525  37.384   2.902
72516W        W39299   4.706  14.199   5.122
72517W        W39300   4.458  23.250   0.324
72518W        W39301  25.018  21.600   1.153
72519W        W39302  18.091   8.574  13.479
72520W        W39303  35.577  30.291   0.763
72521W        W39304  14.899  42.958  13.214
72522W        W39305   8.320  15.193  12.076
72523W        W39306  43.051   0.986   2.493
72524W        W39307  22.295  31.449   0.507
72525W        W39308  28.191  19.147   3.655
72526W        W39309  22.309  40.107  12.826
72527W        W39310  10.864  18.091  13.869
72528W        W39311  11.108  14.851   3.211
72529W        W39312  24.995   4.424  12.956
72530W        W39313  39.396  10.191   2.099
72531W        W39314   1.079  12.773  13.761
72532W        W39315   8.812  27.965  14.878
72533W        W39316  13.552  17.205   4.395
72534W        W39317  37.449  16.698   1.403
72535W        W39318  16.482   4.260   4.183
72536W        W39319  13.811   6.213   0.794
72537W        W39320   5.721  22.683  10.483
72538W        W39321   7.626   9.850  14.597
72539W        W39322  34.306  34.570  11.612
72540W        W39323  17.805  39.786  14.956
72541W        W39324   3.520  31.473   1.246
72542W        W39325  30.146   4.337  14.461
72543W        W39326   9.670  15.671  13.074
72544W        W39327   9.140  43.376   3.846
72545W        W39328   7.645  20.033  12.439
72546W        W39329  26.038  13.841  13.766
72547W        W39330  35.013  13.561   1.920
72548W        W39331  25.677   7.381  13.953
72549W        W39332  42.781  34.152  12.925
72550W        W39333  25.979  23.832  10.741
72551W        W39334  25.657  28.155  11.091
72552W        W39335  16.732  20.940  11.992
72553W        W39336  40.217  44.522  10.181
72554W        W39337   3.827  35.767  11.734
72555W        W39338  39.618  13.251   0.722
72556W        W39339  12.901  30.595  11.057
72557W        W39340   6.164  12.693  12.545
72558W        W39341  15.298  40.144  13.071
72559W        W39342  12.447  24.298   2.725
72560W        W39343  31.732  15.820  10.257
72561W        W39344  22.421  16.110  12.319
72562W        W39345  12.640  35.769  14.997
72563W        W39346   4.139   3.130   1.396
72564W        W39347   5.723  29.973   4.555
72565W        W39348  38.430   4.275  11.948
72566W        W39349  14.917  30.189  13.997
72567W        W39350  44.291  31.845   4.907
72568W        W39351  32.043  29.857   4.527
72569W        W39352  23.680  35.127   4.571
72570W        W39353  17.212  28.169  14.471
72571W        W39354  44.455   1.609  11.378
72572W        W39355   5.319   2.855   2.487
72573W        W39356  29.457  22.126   4.938
72574W        W39357  15.792  10.323  13.940
72575W        W39358  22.603  20.059   4.125
72576W        W39359  13.678  12.088   0.213
72577W        W39360  37.544  17.635  11.502
72578W        W39361  22.404   5.818  10.056
72579W        W39362  41.045  41.689   4.841
72580W        W39363  11.259  34.556   1.848
72581W        W39364  32.936   5.831  12.606
72582W        W39365  17.081  21.042   2.148
72583W        W39366  27.747   1.922  14.930
72584W        W39367  36.134  20.001  12.083
72585W        W39368  30.134  11.931   2.397
72586W        W39369  18.622  36.933  14.283
72587W        W39370  15.499  33.523  12.527
72588W        W39371  42.393  22.993   2.787
72589W        W39372  14.596  31.869  11.862
72590W        W39373   5.957   4.846   0.424
72591W        W39374  37.041  42.559   4.614
72592W        W39375   0.759  11.337   1.246
72593W        W39376  22.486  13.210  12.285
72594W        W39377  14.319   1.464  14.082
72595W        W39378  32.779  21.757  10.515
72596W        W39379  30.070  10.074  12.429
72597W        W39380  28.696  32.648   3.122
72598W        W39381  27.467  35.854  11.581
72599W        W39382  43.990  20.301   1.736
72600W        W39383  36.002  20.027   0.377
72601W        W39384  38.051  18.278   3.516
72602W        W39385   5.179  40.865   2.280
72603W        W39386  24.827  42.432  14.405
72604W        W39387  17.696   1.696   0.310
72605W        W39388  38.093  25.687   3.275
72606W        W39389  38.532   0.462   0.793
72607W        W39390   4.897  18.280   4.932
72608W        W39391  29.769  21.402   0.332
72609W        W39392  23.426  41.795  11.959
72610W        W39393  27.513  28.004   1.944
72611W        W39394  20.229  37.637   3.206
72612W        W39395   6.655  43.836   4.146
72613W        W39396   9.400   2.930   4.118
72614W        W39397  15.786   3.026  13.805
72615W        W39398  38.095  23.968   3.544
72616W        W39399  42.736  18.999   2.057
72617W        W39400  36.962  13.277   3.694
72618W        W39401  36.291  35.851  11.147
72619W        W39402  43.158  29.950   4.893
72620W        W39403  22.317  11.498  13.592
72621W        W39404  33.483  11.830   1.977
72622W        W39405   6.128  10.213   2.713
72623W        W39406  36.035   6.956   0.788
72624W        W39407  16.308  44.761   1.458
72625W        W39408   8.205  21.488  12.441
72626W        W39409  11.876  18.126   2.660
72627W        W39410  10.206  40.397  13.271
72628W        W39411  25.502  32.470  11.605
72629W        W39412   9.501   1.744  12.130
72630W        W39413   5.518  34.063  13.017
72631W        W39414  27.609   0.004  11.553
72632W        W39415  20.116  31.711   2.859
72633W        W39416  25.702  44.325  13.725
72634W        W39417  39.667  19.230  13.894
72635W        W39418   2.573  17.164  11.100
72636W        W39419  37.794  34.567  12.812
72637W        W39420  30.137  15.889  14.751
72638W        W39421  14.628  30.528   4.204
72639W        W39422  41.468  12.734  12.184
72640W        W39423   7.853  33.632   2.824
72641W        W39424  44.381  40.564  10.703
72642W        W39425  34.047  37.336   0.763
72643W        W39426  21.276   0.863   0.837
72644W        W39427  44.181  12.697   2.780
72645W        W39428   8.860  13.508   2.807
72646W        W39429   9.201  28.903   0.446
72647W        W39430  30.137  19.354  10.378
72648W        W39431  20.136  36.756  12.891
72649W        W39432  12.820  11.310  12.532
72650W        W39433  17.633  21.355  11.947
72651W        W39434  43.366  35.578   3.885
72652W        W39435  42.461  32.758   0.402
72653W        W39436  11.145  28.619   2.730
72654W        W39437  43.914   8.887   0.410
72655W        W39438  33.711   1.371  14.978
72656W        W39439  23.000  40.083   9.978
72657W        W39440   5.363  26.219  13.100
72658W        W39441  32.126  16.772  12.895
72659W        W39442  20.393  11.305   4.708
72660W        W39443  40.518  14.847  13.420
72661W        W39444  15.251  36.088   2.745
72662W        W39445  28.660  12.509   1.921
72663W        W39446  37.425   4.099   3.874
72664W        W39447  27.714  39.742   4.965
72665W        W39448  42.853  14.235  11.791
72666W        W39449   8.641  16.057  10.594
72667W        W39450  40.565   5.620  13.359
72668W        W39451  11.702  30.939   4.356
72669W        W39452   8.408   8.800  14.989
72670W        W39453  39.037  16.268   4.353
72671W        W39454  33.855  32.381  12.719
72672W        W39455  21.656  19.618   0.823
72673W        W39456  36.956  34.868  10.504
72674W        W39457  18.221   3.532   3.164
72675W        W39458  41.204  32.029   2.167
72676W        W39459  20.959  20.800   3.138
72677W        W39460   9.328  36.731  13.219
72678W        W39461  18.501  12.427  14.482
72679W        W39462   5.766  25.992  12.832
72680W        W39463  40.562  32.331  12.879
72681W        W39464  12.272  31.720  11.447
72682W        W39465  22.398  23.704   3.362
72683W        W39466   6.903  17.372  14.366
72684W        W39467  40.369  44.251  13.008
72685W        W39468  13.934   1.847  14.876
72686W        W39469  10.271   1.183   0.332
72687W        W39470  42.577  26.470  14.744
72688W        W39471  33.529  28.375   5.002
72689W        W39472  33.061  36.725  11.995
72690W        W39473   1.809  16.021  14.312
72691W        W39474  24.052  25.961  14.890
72692W        W39475  28.516  20.328   1.284
72693W        W39476  24.425   4.283   1.846
72694W        W39477  24.612   7.156  10.681
72695W        W39478  16.296   4.717   4.920
72696W        W39479  21.018  23.630   1.146
72697W        W39480  25.233   2.903  12.826
72698W        W39481  27.660   1.612  12.537
72699W        W39482  17.381  38.419   4.145
72700W        W39483   6.180  15.475   3.582
72701W        W39484  29.947  32.553   1.276
72702W        W39485  32.422  14.368   3.288
72703W        W39486  37.510  37.874  13.476
72704W        W39487  43.798  27.140   4.112
72705W        W39488   2.957  12.706  11.637
72706W        W39489  34.009  17.167  12.569
72707W        W39490  22.785  20.507   2.946
72708W        W39491  23.668   9.698   3.363
72709W        W39492  24.782  29.704  13.105
72710W        W39493   9.731  26.666  14.085
72711W        W39494  12.810  16.137  12.991
72712W        W39495  30.055   8.164  12.362
72713W        W39496  24.178  10.923   3.073
72714W        W39497  38.690   1.966  10.644
72715W        W39498  17.329  18.200   2.799
72716W        W39499   3.000   1.668   4.105
72717W        W39500   8.876   6.379   0.038
72718W        W39501  15.757  27.040  11.684
72719W        W39502  23.635  35.950  14.411
72720W        W39503  19.707  42.470   0.150
72721W        W39504  42.080  14.820   4.108
72722W        W39505  44.728  27.915   3.261
72723W        W39506  32.480   7.380   1.285
72724W        W39507  20.497  32.455  11.701
72725W        W39508  36.558  11.629  12.077
72726W        W39509   8.541   6.286  13.127
72727W        W39510  35.429  44.878   0.373
72728W        W39511  19.490  36.385   3.219
72729W        W39512  32.129  23.388  13.491
72730W        W39513  34.942  32.882   4.751
72731W        W39514  42.762  44.299  14.871
72732W        W39515  18.023  15.068  10.989
72733W        W39516  25.056  34.114   1.596
72734W        W39517  13.572  34.440  10.499
72735W        W39518  25.059  33.570   2.173
72736W        W39519  27.664   1.561   1.826
72737W        W39520   0.523  26.574  13.030
72738W        W39521  31.912  12.595  12.144
72739W        W39522  29.157   3.279  12.902
72740W        W39523  17.015  14.777   3.731
72741W        W39524   4.899  31.751   1.335
72742W        W39525  30.969  42.756  14.908
72743W        W39526  31.125  15.651   3.377
72744W        W39527  18.225   8.606   4.117
72745W        W39528  11.767  28.209   2.736
72746W        W39529  16.162   4.753   0.411
72747W        W39530  34.437  13.981  13.911
72748W        W39531  11.133  24.458   2.250
72749W        W39532   2.909  17.918  13.580
72750W        W39533   2.710  13.132  11.059
72751W        W39534   1.412  18.696  12.313
72752W        W39535   4.210  31.081   2.268
72753W        W39536  41.361  29.438   3.679
72754W        W39537   9.381  21.173  11.541
72755W        W39538  32.114  34.893  11.594
72756W        W39539  39.719  33.125   4.173
72757W        W39540   4.690  25.881   3.791
72758W        W39541  14.976  35.848  10.350
72759W        W39542  14.947  25.733   2.598
72760W        W39543  29.102   4.167  11.652
72761W        W39544   2.799  20.384   0.610
72762W        W39545   9.113  22.126  10.512
72763W        W39546  34.901  44.583   3.382
72764W        W39547  10.287  41.401   2.877
72765W        W39548  11.641  35.111   1.874
72766W        W39549  28.633  15.293  13.117
72767W        W39550  23.203   5.351   1.458
72768W        W39551  30.003  35.019   0.977
72769W        W39552  26.556  24.511   4.181
72770W        W39553  37.420   6.595   0.347
72771W        W39554  20.230  31.177   1.953
72772W        W39555  37.912  31.496   3.111
72773W        W39556  30.801  34.424   2.407
72774W        W39557  39.306  24.426   3.385
72775W        W39558  16.114   6.671   2.903
72776W        W39559  37.083  32.541   4.206
72777W        W39560   1.948  15.549  12.481
72778W        W39561  35.198   3.632   1.720
72779W        W39562  44.861  12.678   2.237
72780W        W39563  14.800  15.562  10.740
72781W        W39564  31.502  42.400   1.303
72782W        W39565  30.347  13.711   4.058
72783W        W39566  33.009  38.624   2.813
72784W        W39567  31.694  26.619  12.957
72785W        W39568  32.989  35.064   3.991
72786W        W39569  14.655  16.150   2.679
72787W        W39570  13.761  33.981  14.060
72788W        W39571  15.979  30.203   1.264
72789W        W39572  34.866  24.938   1.159
72790W        W39573   4.691  29.047   3.205
72791W        W39574  43.581  38.318   1.891
72792W        W39575  21.862  44.017  12.718
72793W        W39576  28.160  10.526   3.701
72794W        W39577  23.822  41.394   4.047
72795W        W39578  25.855  34.100  13.548
72796W        W39579  10.321  26.015  13.914
72797W        W39580   4.384  24.615  11.143
72798W        W39581   8.072  41.499  11.601
72799W        W39582   4.690  27.893   2.650
72800W        W39583  42.163  30.050   4.598
72801W        W39584  19.694  11.465   2.156
72802W        W39585  20.716  27.219  12.345
72803W        W39586  13.723  15.022   0.070
72804W        W39587  13.364  30.667   1.193
72805W        W39588  35.410  21.732   2.785
72806W        W39589  40.541  42.393  10.668
72807W        W39590  28.188  24.140   2.839
72808W        W39591  36.920  12.594   3.281
72809W        W39592  25.055  28.638   2.778
72810W        W39593  24.161  12.796  10.318
72811W        W39594  18.256  30.116   4.547
72812W        W39595  32.285  18.207   3.640
72813W        W39596   4.336  14.212  11.770
72814W        W39597   9.670  34.583   3.160
72815W        W39598  42.907  26.559  13.211
72816W        W39599  39.591  16.578  12.938
72817W        W39600  44.154   5.331   0.748
72818W        W39601  21.603   7.380  11.965
72819W        W39602  41.472  40.018  12.700
72820W        W39603  24.071  24.222   4.711
72821W        W39604  44.725  37.605  12.477
72822W        W39605  34.870  39.584  13.513
72823W        W39606   5.793   2.312  10.431
72824W        W39607  40.893  29.638  13.892
72825W        W39608  40.844  24.183  14.242
72826W        W39609   1.257  42.865  10.843
72827W        W39610  35.596   3.603   4.916
72828W        W39611  24.457  28.246  12.979
72829W        W39612   2.878  44.000  14.361
72830W        W39613   8.132  23.014  14.320
72831W        W39614   0.272  34.816   2.441
72832W        W39615  21.307  38.577   0.851
72833W        W39616  28.640  26.221  13.637
72834W        W39617  19.108  16.281   1.407
72835W        W39618  17.102  23.485   3.664
72836W        W39619  30.491   4.473  14.842
72837W        W39620  37.447  31.469   4.850
72838W        W39621   2.450  42.436  11.673
72839W        W39622  34.323  42.876   4.609
72840W        W39623   6.756  26.618   2.382
72841W        W39624  12.356  30.094  13.532
72842W        W39625  34.575  30.044   1.948
72843W        W39626  41.008  35.529  13.055
72844W        W39627   9.616  16.865   2.119
72845W        W39628  43.538   2.365  11.986
72846W        W39629  22.668  44.769   0.311
72847W        W39630  38.245  44.437   3.386
72848W        W39631  24.051  26.246  14.014
72849W        W39632   8.092  36.092  14.345
72850W        W39633  15.162  10.087  10.366
72851W        W39634  38.568  19.127  11.071
72852W        W39635  38.064   8.414   3.734
72853W        W39636   7.708  35.632   1.873
72854W        W39637  21.388   6.131  11.976
72855W        W39638  44.906  14.838   4.097
72856W        W39639   2.217   0.985   1.315
72857W        W39640  34.533  28.055  14.707
72858W        W39641  35.488  10.566  13.746
72859W        W39642   9.804  19.531   4.214
72860W        W39643  28.055  44.923   1.640
72861W        W39644   4.759  13.320  12.043
72862W        W39645  44.492  22.300  11.104
72863W        W39646  30.935  40.763   0.817
72864W        W39647   5.257   4.450   1.498
72865W        W39648  37.120  21.092   1.451
72866W        W39649  25.254  28.509   0.309
72867W        W39650  21.247  41.023   2.219
72868W        W39651  15.826  11.609  13.524
72869W        W39652  24.800   0.812   1.480
72870W        W39653  39.295   8.071   1.553
72871W        W39654  18.220  36.544  12.359
72872W        W39655  20.185  31.918  10.837
72873W        W39656  18.705   1.867  13.970
72874W        W39657   0.247  40.498  10.861
72875W        W39658   4.488  38.894  13.450
72876W        W39659  28.953   5.393   1.188
72877W        W39660  25.557   7.103   1.739
72878W        W39661  16.695  37.916  10.217
72879W        W39662   2.953   8.109  14.339
72880W        W39663  28.975  28.642  11.381
72881W        W39664  15.995  40.473  11.241
72882W        W39665  31.598  25.672   3.806
72883W        W39666   9.438   3.707   2.755
72884W        W39667  10.872   4.858  13.561
72885W        W39668   0.045  21.637  14.471
72886W        W39669   3.269  18.979  13.914
72887W        W39670  26.320   8.626   4.150
72888W        W39671  14.071   7.836   5.491
72889W        W39672   7.866  31.320  13.449
72890W        W39673  33.053  26.484   1.340
72891W        W39674  17.650  29.008  12.172
72892W        W39675  31.959   1.927  14.012
72893W        W39676  31.545   1.640  10.715
72894W        W39677  33.177   2.493  10.530
72895W        W39678  44.971  40.281  13.135
72896W        W39679  16.230  36.362   2.713
72897W        W39680   6.424   7.439   0.476
72898W        W39681  27.878  44.455   4.526
72899W        W39682  14.032  15.862  12.914
72900W        W39683  32.458  19.650  14.227
72901W        W39684   3.973  30.668   1.699
72902W        W39685  25.336  14.831  12.400
72903W        W39686   8.882  30.149   2.334
72904W        W39687  38.061  27.243  11.109
72905W        W39688  34.919  13.096   2.148
72906W        W39689  10.300  29.619   3.348
72907W        W39690  31.378  17.551   1.989
72908W        W39691  38.571  39.898   3.335
72909W        W39692  37.348  10.784  11.618
72910W        W39693  24.946  32.016   0.180
72911W        W39694  37.091  18.162  11.140
72912W        W39695  31.861  19.113  14.766
72913W        W39696  15.856  27.855  13.747
72914W        W39697  34.913   5.410   2.907
72915W        W39698  39.634  27.471   2.246
72916W        W39699  31.937   1.149   1.301
72917W        W39700   2.383  22.353   4.844
72918W        W39701  18.078  37.982   3.232
72919W        W39702   6.760  18.639   0.881
72920W        W39703   2.136  38.612   4.117
72921W        W39704   8.246   2.216  13.365
72922W        W39705  40.095  41.864  14.801
72923W        W39706  26.305  39.258   0.408
72924W        W39707  31.053  38.005   2.198
72925W        W39708  13.093   3.540   3.247
72926W        W39709  18.769  40.556   4.082
72927W        W39710  11.288  21.682   2.010
72928W        W39711  15.305  18.769  11.380
72929W        W39712  27.417  29.093   2.286
72930W        W39713  20.628  33.666   4.513
72931W        W39714  23.207  30.106  12.012
72932W        W39715  23.145   5.693   3.695
72933W        W39716   4.190   6.754  10.507
72934W        W39717  18.085  21.582  11.522
72935W        W39718  26.921  21.302   0.329
72936W        W39719   3.982  33.433   3.783
72937W        W39720  42.993  15.214   5.273
72938W        W39721  11.161   6.633   9.875
72939W        W39722  35.876  13.667   2.809
72940W        W39723  34.573  18.199   4.208
72941W        W39724  44.503  30.542  13.020
72942W        W39725  27.599   7.995  11.780
72943W        W39726  23.114   1.355   3.742
72944W        W39727  16.121   6.633  10.715
72945W        W39728   7.445  29.537  13.133
72946W        W39729  17.264   9.671  13.971
72947W        W39730  41.547  33.649   0.624
72948W        W39731  39.189   1.900  10.560
72949W        W39732  32.678   8.950  11.156
72950W        W39733  13.220   8.004  11.979
72951W        W39734   1.090  31.693   1.876
72952W        W39735  31.064  29.069  12.158
72953W        W39736  21.061  20.436  14.762
72954W        W39737  20.613  27.978   4.292
72955W        W39738  21.692   9.748   3.379
72956W        W39739  34.635  30.614   0.822
72957W        W39740   7.485  31.054  13.677
72958W        W39741  18.873  43.864   3.248
72959W        W39742  28.548  28.922   2.368
72960W        W39743  38.819  36.305   4.593
72961W        W39744   5.660  23.179   0.620
72962W        W39745  21.751   7.178  11.502
72963W        W39746  38.465  23.981   2.734
72964W        W39747  29.063  29.119  14.423
72965W        W39748  15.964  30.790  11.949
72966W        W39749  14.579  44.730  12.481
72967W        W39750   8.799  30.832   4.533
72968W        W39751  26.055  11.453   3.232
72969W        W39752  10.563  16.762   1.952
72970W        W39753  32.397  42.085   4.344
72971W        W39754   5.250  26.101  12.603
72972W        W39755   4.809  21.478  14.860
72973W        W39756  20.145  13.895  10.271
72974W        W39757  11.297  18.823   2.797
72975W        W39758  44.083  16.249  11.503
72976W        W39759  12.832  23.960  14.981
72977W        W39760  37.818  34.987   0.425
72978W        W39761  36.054   4.789  11.130
72979W        W39762  17.090   7.246   1.389
72980W        W39763  33.484  37.847   9.851
72981W        W39764  36.622   8.510   3.893
72982W        W39765  41.937  22.757  14.742
72983W        W39766  12.123  22.258   0.963
72984W        W39767  30.844   5.397   4.821
72985W        W39768   0.722  24.433  14.587
72986W        W39769  27.325   5.336  11.461
72987W        W39770  37.448  29.747   1.176
72988W        W39771  29.336  11.846  12.160
72989W        W39772  10.037  23.181   3.805
72990W        W39773  25.491  35.412  14.351
72991W        W39774  30.480  22.279   3.247
72992W        W39775  25.467  19.033  13.413
72993W        W39776  40.570  11.332   0.825
72994W        W39777   6.386  29.213   3.944
72995W        W39778  11.966  15.280   1.638
72996W        W39779  37.369  28.237  10.706
72997W        W39780  14.671   1.716  11.998
72998W        W39781  42.543   5.744   1.745
72999W        W39782  43.124  12.830  10.669
73000W        W39783  21.063  26.049   0.698
73001W        W39784  11.197  13.660  13.780
73002W        W39785   8.609  36.546  11.124
73003W        W39786  15.379  19.254  11.223
73004W        W39787  44.215  26.495   2.784
73005W        W39788  44.170  43.292  11.238
73006W        W39789  31.985   9.984   3.320
73007W        W39790   5.643  12.182  11.627
73008W        W39791  39.325  26.892  10.957
73009W        W39792  11.194   8.666  13.021
73010W        W39793   8.641  43.980  12.379
73011W        W39794   0.860  37.380   0.412
73012W        W39795  12.619  35.901  12.550
73013W        W39796  25.752  22.214  10.301
73014W        W39797  35.139  35.308   1.923
73015W        W39798   3.396   0.866   3.901
73016W        W39799   2.246   0.275  14.471
73017W        W39800  36.324  11.583  12.541
73018W        W39801  39.944   3.783  13.375
73019W        W39802  33.482  16.192  13.347
73020W        W39803  19.608  20.050  13.558
73021W        W39804  14.230   2.304   1.357
73022W        W39805  25.226  18.266  14.452
73023W        W39806  21.904  22.160   1.969
73024W        W39807  21.942   5.170   0.423
73025W        W39808  43.822  12.998  12.565
73026W        W39809  12.604   9.416   4.862
73027W        W39810  44.851   9.467   4.031
73028W        W39811  38.757  23.515   4.121
73029W        W39812  22.540  28.662  14.840
73030W        W39813  22.525  34.111  11.604
73031W        W39814  10.848  29.615  13.304
73032W        W39815   0.531  12.639   1.612
73033W        W39816  36.519   1.773  12.054
73034W        W39817  40.842   8.899   5.423
73035W        W39818   7.854  27.026   4.316
73036W        W39819   7.421   3.466   0.479
73037W        W39820  39.341   7.632  11.122
73038W        W39821  35.393   5.237  12.520
73039W        W39822  40.266  10.633  12.034
73040W        W39823  44.594  38.947   1.762
73041W        W39824   6.861  32.918   1.588
73042W        W39825  43.250  42.906   2.795
73043W        W39826   0.385   5.888   1.309
73044W        W39827  23.469   2.845   2.623
73045W        W39828  38.064  12.765   0.489
73046W        W39829  33.231  39.053  13.806
73047W        W39830  35.657   2.266   3.727
73048W        W39831   0.151  17.250  11.111
73049W        W39832  41.281  40.974   2.761
73050W        W39833  40.676   1.868  12.489
73051W        W39834  21.794  24.170  11.578
73052W        W39835  17.226  41.989  11.447
73053W        W39836  25.737  37.991   0.921
73054W        W39837  36.985  44.963  11.942
73055W        W39838  39.313  16.026   0.625
73056W        W39839  34.198  41.882  11.593
73057W        W39840  33.728  38.131   1.781
73058W        W39841   9.309  18.740  13.558
73059W        W39842  19.861   2.960  14.876
73060W        W39843  27.979   0.743   1.340
73061W        W39844  30.036  39.015   1.470
73062W        W39845   5.381  33.946   4.666
73063W        W39846  31.529  18.619  10.345
73064W        W39847  26.064  26.716  12.451
73065W        W39848  38.881   4.625  11.172
73066W        W39849   7.900  32.517  14.525
73067W        W39850  21.331  41.404  11.816
73068W        W39851  31.723  13.388   0.342
73069W        W39852  40.039   7.902   4.260
73070W        W39853  41.376   2.238   0.759
73071W        W39854  11.877  22.606  10.748
73072W        W39855  33.885  25.010   4.759
73073W        W39856   6.648  10.735  11.605
73074W        W39857  24.239  40.305   0.998
73075W        W39858  16.783  30.538  10.927
73076W        W39859  13.726   7.622   1.406
73077W        W39860   1.576  39.345  11.695
73078W        W39861  28.573  10.695   1.734
73079W        W39862  36.917  31.148   2.940
73080W        W39863  17.487   1.250   1.625
73081W        W39864  27.093  24.056   0.056
73082W        W39865  34.579  40.311  13.020
73083W        W39866  17.128  24.616   4.692
73084W        W39867  22.929  18.739  14.737
73085W        W39868  35.988  32.885   2.212
73086W        W39869  20.725   5.447   4.469
73087W        W39870  34.997  42.370   4.519
73088W        W39871  25.897  13.224   2.784
73089W        W39872  16.900  28.169  12.827
73090W        W39873  34.862  17.718  14.822
73091W        W39874   3.478  18.089  10.016
73092W        W39875  24.277  16.583   4.394
73093W        W39876  42.564  15.485   5.164
73094W        W39877   0.459  39.347   0.477
73095W        W39878  31.762  14.222   4.531
73096W        W39879  36.659  35.396   0.522
73097W        W39880  44.908  36.442   0.482
73098W        W39881  17.725  16.146   0.820
73099W        W39882  30.619   4.883   4.546
73100W        W39883  33.983  12.753  12.369
73101W        W39884  39.796  32.765  11.154
73102W        W39885  41.529  11.828   1.792
73103W        W39886  10.314  33.566  14.522
73104W        W39887  21.241  31.493  14.315
73105W        W39888   7.170  17.795   4.414
73106W        W39889  36.308  15.268   1.186
73107W        W39890  20.047  33.436  13.353
73108W        W39891  44.998  15.033   5.161
73109W        W39892  43.248   7.695   2.373
73110W        W39893   7.209  23.967   4.378
73111W        W39894  19.641  33.857  13.964
73112W        W39895  28.416  44.536   1.734
73113W        W39896  12.082  39.780   0.376
73114W        W39897   1.283   1.406  13.104
73115W        W39898  26.925   0.749  13.160
73116W        W39899  36.556  11.386  11.508
73117W        W39900  37.479  38.889   3.100
73118W        W39901  15.495  11.967  14.806
73119W        W39902  15.199  14.852   3.697
73120W        W39903  34.864  18.542   2.331
73121W        W39904  36.267  25.154  10.166
73122W        W39905  19.592   6.380   0.923
73123W        W39906  13.656  29.486  10.700
73124W        W39907  17.839  26.159   4.551
73125W        W39908  30.230   6.335   0.417
73126W        W39909  12.815  11.041  12.999
73127W        W39910  36.152  14.400   1.975
73128W        W39911  31.417   8.876  13.356
73129W        W39912  22.747  38.599   2.326
73130W        W39913  17.267  34.923  14.090
73131W        W39914   4.099  13.134   2.390
73132W        W39915   3.910  43.198   1.699
73133W        W39916  30.081  37.098  11.089
73134W        W39917   1.674  40.941  11.136
73135W        W39918  43.490  19.117   4.645
73136W        W39919   9.704  24.359   0.304
73137W        W39920  12.069  43.374  14.375
73138W        W39921  31.490  33.534  14.310
73139W        W39922  20.831  24.204  14.195
73140W        W39923  41.276  24.486  12.963
73141W        W39924  26.730   4.842  10.536
73142W        W39925  40.819  22.693  12.690
73143W        W39926   9.682  40.032  11.028
73144W        W39927   7.107  17.188  11.572
73145W        W39928  19.774  17.828  14.759
73146W        W39929  15.095  10.191   3.842
73147W        W39930  29.378   4.307  12.374
73148W        W39931  23.592   2.212   0.532
73149W        W39932   3.470  18.698  13.463
73150W        W39933  31.943   8.198  11.708
73151W        W39934  11.603  12.775   4.370
73152W        W39935  42.699  18.641  14.047
73153W        W39936  29.090  17.079   3.608
73154W        W39937  24.017  39.597  13.955
73155W        W39938   0.029  39.977  12.109
73156W        W39939  32.918  14.395  10.680
73157W        W39940   6.245  42.037   1.911
73158W        W39941  23.762  10.236   2.444
73159W        W39942  38.059  44.499  11.023
73160W        W39943  31.356  25.107  14.440
73161W        W39944  17.743  32.645  12.535
73162W        W39945  16.771   4.716   4.211
73163W        W39946  42.344  24.730  12.611
73164W        W39947  40.542  44.461  14.435
73165W        W39948   3.977  15.884  11.239
73166W        W39949  17.175  31.674   4.155
73167W        W39950  11.725  11.719   4.974
73168W        W39951  43.955  16.290  13.480
73169W        W39952  41.267  16.068   1.872
73170W        W39953  33.754  44.931  14.853
73171W        W39954  42.515   1.515   3.257
73172W        W39955   8.577  41.594  11.624
73173W        W39956  18.064  33.609   2.409
73174W        W39957  13.345  40.474   0.280
73175W        W39958  20.569   7.624  12.515
73176W        W39959  43.803  36.904  10.730
73177W        W39960  39.027  31.123  12.959
73178W        W39961  36.065  38.377  14.319
73179W        W39962  25.512   7.031   2.785
73180W        W39963  22.251   1.012  12.823
73181W        W39964  30.448  22.518   4.641
73182W        W39965  18.885  24.940  11.188
73183W        W39966   1.410  29.882   2.299
73184W        W39967  18.200  34.829   1.318
73185W        W39968  29.717  16.061   0.898
73186W        W39969  29.541   4.787  12.502
73187W        W39970  30.499  43.768  14.793
73188W        W39971  25.147  22.688   1.843
73189W        W39972  40.569   5.270   3.611
73190W        W39973  12.344  36.621  14.048
73191W        W39974   0.914  20.967  14.771
73192W        W39975  34.125  13.702  10.544
73193W        W39976  28.887   2.078  11.572
73194W        W39977  11.155  14.624   3.674
73195W        W39978   7.929   9.598  12.888
73196W        W39979  36.005  18.875   2.967
73197W        W39980  32.051  11.721  11.532
73198W        W39981  20.669  26.795   1.683
73199W        W39982   3.779  21.057   4.120
73200W        W39983  19.083  42.353   4.380
73201W        W39984  29.580  15.074  13.905
73202W        W39985  41.054  26.437  14.023
73203W        W39986  21.805  23.011  14.840
73204W        W39987   5.374   5.295   4.619
73205W        W39988  43.851   4.969  14.356
73206W        W39989  33.880   2.467   2.291
73207W        W39990  19.051  37.912  13.859
73208W        W39991   6.778  27.654  14.762
73209W        W39992  12.874  36.767  11.908
73210W        W39993  22.765   3.334   2.629
73211W        W39994  21.469  29.439  11.158
73212W        W39995  21.790  24.058   2.254
73213W        W39996  14.265  43.942   1.226
73214W        W39997  24.521   8.832   2.873
73215W        W39998  37.127  43.225  11.259
73216W        W39999  33.064  34.408   4.215
73217W        W40000  28.756  18.030   4.449
73218W        W40001   3.040  26.984  12.076
73219W        W40002   0.026  44.387   1.308
73220W        W40003  17.095  41.506  12.234
73221W        W40004  40.354   7.001  11.732
73222W        W40005  34.027  16.036   0.876
73223W        W40006  16.333   8.820   3.412
73224W        W40007  31.934  42.334   4.546
73225W        W40008  22.662  14.319  12.807
73226W        W40009  27.768  28.261  12.067
73227W        W40010  32.679  27.755  14.985
73228W        W40011  14.343  40.439   4.358
73229W        W40012  32.905   1.431  14.574
73230W        W40013  43.964  13.406  11.646
73231W        W40014  29.367  10.466  10.657
73232W        W40015  25.462  20.637   0.352
73233W        W40016   5.473   6.831   4.489
73234W        W40017  18.035  32.553  11.639
73235W        W40018   8.774   6.962  14.787
73236W        W40019  41.292  37.276   4.051
73237W        W40020  42.275  31.554   2.796
73238W        W40021  19.055   2.749   4.356
73239W        W40022  30.678  34.537  11.946
73240W        W40023   1.506  19.108  14.800
73241W        W40024   1.337  21.524   3.638
73242W        W40025   3.469  12.706  11.579
73243W        W40026  26.126  36.233   1.819
73244W        W40027   2.358  12.820   1.824
73245W        W40028   2.306  29.784   4.993
73246W        W40029   3.737  31.026   2.055
73247W        W40030  17.683  27.477  12.937
73248W        W40031  23.488  16.381   2.281
73249W        W40032  28.562  20.956  12.111
73250W        W40033  35.822  38.625   1.758
73251W        W40034   1.520  36.351   0.830
73252W        W40035  18.544  38.945   3.228
73253W        W40036  33.114   3.281  13.374
73254W        W40037  44.260   7.449   1.318
73255W        W40038  43.626  37.569  10.923
73256W        W40039  30.547  34.469   1.488
73257W        W40040  29.181  44.712   0.472
73258W        W40041  31.384  19.373   1.153
73259W        W40042  39.406   0.001  11.196
73260W        W40043  28.772  23.618  10.941
73261W        W40044  41.567   5.767  13.889
73262W        W40045  16.216  15.098   1.710
73263W        W40046  40.987  15.617   1.185
73264W        W40047  37.934   6.434   2.780
73265W        W40048   6.364  17.119  12.583
73266W        W40049  28.394  14.235   1.343
73267W        W40050  17.505  38.970   4.045
73268W        W40051  12.343   7.752  12.857
73269W        W40052  17.305  10.247  12.413
73270W        W40053  14.367  32.593   4.644
73271W        W40054  41.867  39.273   2.645
73272W        W40055  39.515  44.549  12.062
73273W        W40056  34.398  18.637  13.855
73274W        W40057   6.156  10.932   2.369
73275W        W40058  44.354  13.025   0.399
73276W        W40059   1.182  11.037  13.109
73277W        W40060  19.067  28.888  13.837
73278W        W40061  18.847   8.238  11.930
73279W        W40062  22.799   2.129   3.674
73280W        W40063  26.261  23.660  12.385
73281W        W40064   1.730   0.930  11.081
73282W        W40065  43.783  26.491   3.655
73283W        W40066  18.605   7.853  11.133
73284W        W40067  44.392  38.551   1.498
73285W        W40068   9.455   2.744   0.527
73286W        W40069  41.830  29.169   4.748
73287W        W40070  37.907  14.386   3.871
73288W        W40071  21.559  36.212   5.069
73289W        W40072  21.625  32.043   2.703
73290W        W40073   8.163  34.817   2.071
73291W        W40074  33.423  23.987   2.814
73292W        W40075  20.346  12.900   3.283
73293W        W40076   1.531  44.455  13.923
73294W        W40077  26.632   3.473  13.928
73295W        W40078  23.699  24.576   1.821
73296W        W40079  39.557   0.835  14.294
73297W        W40080   8.102  43.784   1.353
73298W        W40081  22.068  30.072   1.322
73299W        W40082   5.840  42.648   2.879
73300W        W40083   9.183  27.574   1.267
73301W        W40084  13.382  11.665   0.121
73302W        W40085  44.378  12.155  11.395
73303W        W40086  15.818  20.595  13.103
73304W        W40087  31.345  21.241   3.670
73305W        W40088  40.900  10.115  11.601
73306W        W40089  16.254   2.491  12.394
73307W        W40090  36.112  41.804   1.154
73308W        W40091  39.248  10.656   2.823
73309W        W40092  37.420  29.416  12.710
73310W        W40093  18.710  18.391  12.371
73311W        W40094  38.980  16.256   1.363
73312W        W40095   5.211  17.186  11.070
73313W        W40096  11.718  22.127  14.573
73314W        W40097  29.022  14.579  11.863
73315W        W40098  44.990  26.637  13.255
73316W        W40099   4.122   5.204  10.464
73317W        W40100  24.629  28.012  11.244
73318W        W40101  28.974  17.835  12.653
73319W        W40102  19.032  34.043  14.710
73320W        W40103  26.255  38.016  13.911
73321W        W40104   1.098   9.450  14.356
73322W        W40105  32.581  19.208   5.407
73323W        W40106  25.191  29.091  11.109
73324W        W40107  35.287   7.844  12.998
73325W        W40108  11.724  40.901  12.265
73326W        W40109   1.700  44.860   2.704
73327W        W40110  40.858   8.389  11.053
73328W        W40111  38.876  20.097   1.518
73329W        W40112  42.077  29.201  14.521
73330W        W40113  21.287  43.220   4.105
73331W        W40114   9.860   6.924  11.176
73332W        W40115  40.091   5.197   3.821
73333W        W40116  27.846  12.605  13.571
73334W        W40117  15.798  25.669   4.215
73335W        W40118  27.390  40.859   0.195
73336W        W40119   0.945  18.927  10.945
73337W        W40120   0.480  10.736  14.227
73338W        W40121  21.709  40.636   3.176
73339W        W40122  22.776   9.677   4.675
73340W        W40123  36.919  26.979   2.751
73341W        W40124  22.779   6.814   4.676
73342W        W40125  12.641  21.698  11.488
73343W        W40126  12.217  20.148   3.102
73344W        W40127  26.742   5.266   2.870
73345W        W40128   4.680  24.633  13.329
73346W        W40129  15.710  10.987   4.135
73347W        W40130  11.120  10.087  11.613
73348W        W40131  36.913  14.037  12.423
73349W        W40132   9.278   7.273   1.816
73350W        W40133  12.775   1.248  10.725
73351W        W40134  36.874   5.171   1.458
73352W        W40135  16.681   0.025   4.106
73353W        W40136   0.591  41.454  11.708
73354W        W40137  18.686   7.993  10.652
73355W        W40138  40.581   9.125   3.049
73356W        W40139  20.080  39.972  10.639
73357W        W40140  24.979  17.837   2.109
73358W        W40141  39.834  10.559  11.296
73359W        W40142  38.882  41.875  12.480
73360W        W40143  37.485  22.286  11.696
73361W        W40144  29.149  31.616  13.335
73362W        W40145  14.832   0.943  14.785
73363W        W40146   3.449   1.516  12.922
73364W        W40147  21.087   4.989  11.262
73365W        W40148  33.936  39.979   3.150
73366W        W40149  27.542   1.774   0.939
73367W        W40150  15.557  26.122   0.413
73368W        W40151  41.546  16.611   2.888
73369W        W40152  34.389  42.227  12.981
73370W        W40153  43.194   9.899   5.101
73371W        W40154  30.228   1.064   0.478
73372W        W40155  11.832  19.003  13.424
73373W        W40156  35.149   3.474   5.182
73374W        W40157  11.681   3.679   1.385
73375W        W40158  15.078  39.241  13.438
73376W        W40159  44.714  41.354   1.400
73377W        W40160  43.248  29.480  12.656
73378W        W40161  21.245  27.431  11.878
73379W        W40162  23.135  39.517   0.926
73380W        W40163  26.935  39.576   2.470
73381W        W40164  36.581  20.746  12.454
73382W        W40165  29.153  14.272  14.757
73383W        W40166  15.150   0.993   2.241
73384W        W40167  36.606  36.138  14.770
73385W        W40168   1.891  21.733   1.418
73386W        W40169  16.742  32.634   0.659
73387W        W40170  38.539  28.755   3.959
73388W        W40171   7.660  21.261   0.425
73389W        W40172  28.243   1.991  10.002
73390W        W40173   2.229  16.769  11.127
73391W        W40174  39.037  23.991   3.356
73392W        W40175  32.933   9.333   2.294
73393W        W40176  33.980  14.507  10.957
73394W        W40177   2.228   1.253   2.175
73395W        W40178  32.063  33.083  14.700
73396W        W40179  23.060  22.235   3.098
73397W        W40180  42.462  29.052   2.122
73398W        W40181  32.970  29.678   1.344
73399W        W40182  25.022  43.377  11.025
73400W        W40183   5.627  34.238  12.534
73401W        W40184   2.396  34.010  11.574
73402W        W40185  33.640  28.610  11.661
73403W        W40186  22.469  41.871  10.499
73404W        W40187  23.502  23.517  12.061
73405W        W40188  42.538  40.984  14.117
73406W        W40189  13.823  34.177  14.541
73407W        W40190  37.939  15.478  11.233
73408W        W40191  15.333  28.053  14.602
73409W        W40192  24.964  33.955   3.094
73410W        W40193   2.258  13.313   0.069
73411W        W40194  41.382  15.314  11.354
73412W        W40195  41.890  26.889  12.078
73413W        W40196  25.078  11.793   0.704
73414W        W40197   3.296  16.147  14.781
73415W        W40198  19.196  35.844   0.857
73416W        W40199  30.628   5.116  13.173
73417W        W40200  23.137   8.138   4.614
73418W        W40201   2.234  44.590  11.280
73419W        W40202  44.299  30.475  14.001
73420W        W40203  18.097  14.213  12.230
73421W        W40204  26.591  42.853   2.607
73422W        W40205  23.231  24.196  13.029
73423W        W40206  23.849  40.039   4.708
73424W        W40207  24.183  36.051   5.349
73425W        W40208  26.738  24.833   3.764
73426W        W40209   3.989  29.106   1.782
73427W        W40210  30.095  42.929   0.190
73428W        W40211  12.536  14.558   1.909
73429W        W40212  44.767  37.412   2.040
73430W        W40213   8.634  37.146   2.206
73431W        W40214  17.533  26.586   4.563
73432W        W40215  37.659   8.730   1.805
73433W        W40216  40.586  44.243   1.679
73434W        W40217  13.690  29.461   3.360
73435W        W40218  14.776  25.537  14.219
73436W        W40219  14.315  20.796   4.191
73437W        W40220   9.520  14.035   4.562
73438W        W40221  28.081   7.946   4.639
73439W        W40222   9.829  12.896   0.493
73440W        W40223   6.895  30.025  14.838
73441W        W40224  26.507  33.495  10.657
73442W        W40225  27.512   3.087  11.111
73443W        W40226  29.998  34.064   4.851
73444W        W40227  29.700  40.960   2.758
73445W        W40228  17.621   6.163  11.068
73446W        W40229  21.733   5.793   4.517
73447W        W40230  42.044  13.782  10.785
73448W        W40231  39.892  26.109   2.315
73449W        W40232   0.079  39.022   4.090
73450W        W40233  36.869   1.297  14.132
73451W        W40234  12.577  31.111   4.750
73452W        W40235  13.349  27.419  10.761
73453W        W40236  21.830  44.886   2.804
73454W        W40237  21.132   3.016  13.018
73455W        W40238   8.458  19.829  11.621
73456W        W40239  43.316  21.525   0.372
73457W        W40240  37.298  25.090   3.755
73458W        W40241  10.083  27.102   2.324
73459W        W40242  31.386  26.448  12.566
73460W        W40243  18.718  38.778   4.634
73461W        W40244  42.881  37.170  10.420
73462W        W40245  38.418  18.685  14.962
73463W        W40246  12.392   7.137  14.375
73464W        W40247   8.840  23.442   2.637
73465W        W40248   8.825  33.797  11.987
73466W        W40249  33.057   1.190   2.885
73467W        W40250  24.346  31.482  13.606
73468W        W40251  24.189  36.427  14.952
73469W        W40252  22.196  10.733   1.173
73470W        W40253  23.981  26.644  11.640
73471W        W40254  38.430  18.234   4.718
73472W        W40255   3.229  13.658   4.617
73473W        W40256  24.847  27.034  12.147
73474W        W40257  13.655   8.833  11.156
73475W        W40258  25.133   6.471   3.336
73476W        W40259  27.381   2.242   2.777
73477W        W40260  42.380  26.201   2.595
73478W        W40261  30.071  10.253  13.183
73479W        W40262  18.316   8.682   2.390
73480W        W40263  38.198   8.819   1.930
73481W        W40264  23.763  27.946   1.281
73482W        W40265  43.701  22.733  12.107
73483W        W40266  21.424  23.100   2.721
73484W        W40267  35.439   8.714  14.902
73485W        W40268  40.894  37.971   2.703
73486W        W40269  13.146  13.565  14.813
73487W        W40270  28.510  13.273   1.330
73488W        W40271  24.660  33.572  14.043
73489W        W40272  30.393  12.767   3.187
73490W        W40273  24.751  25.046  14.869
73491W        W40274  37.554   3.714  14.722
73492W        W40275   4.725   8.285   0.752
73493W        W40276  33.164   2.186   3.351
73494W        W40277  30.207  20.192   2.561
73495W        W40278  37.100  37.990   4.902
73496W        W40279  43.671  16.715  13.640
73497W        W40280   8.064  31.503  14.808
73498W        W40281  12.844  16.773   1.441
73499W        W40282   7.793  43.243  13.473
73500W        W40283   2.111  41.895  12.435
73501W        W40284  35.525  23.137  12.377
73502W        W40285  39.328  32.953  11.097
73503W        W40286  41.386  38.321  10.747
73504W        W40287  22.135  16.341  14.256
73505W        W40288  14.153  37.712  10.191
73506W        W40289   0.877  41.998   4.146
73507W        W40290  18.034   8.772  10.475
73508W        W40291  39.261  35.884  14.643
73509W        W40292  16.834  25.962   4.297
73510W        W40293   7.926  24.068  14.267
73511W        W40294   4.710   3.975   4.372
73512W        W40295  27.187  37.617   1.430
73513W        W40296  18.185   7.153  11.557
73514W        W40297  12.902  10.824  13.947
73515W        W40298  10.637  11.148   3.703
73516W        W40299   5.222  11.670   0.674
73517W        W40300  29.151  10.177   3.731
73518W        W40301  18.551  21.529  11.285
73519W        W40302  40.700   0.862  11.468
73520W        W40303  36.795  29.633   0.876
73521W        W40304  12.813   8.891  14.204
73522W        W40305  18.002  28.077   4.516
73523W        W40306   0.657   5.966   3.820
73524W        W40307  23.667  25.731   3.255
73525W        W40308   5.880  37.128   0.442
73526W        W40309  23.264  41.766   0.883
73527W        W40310  16.355  28.581   1.321
73528W        W40311  26.739  28.148   0.731
73529W        W40312  29.030  24.896   4.114
73530W        W40313  38.489   5.251   2.180
73531W        W40314   2.245  39.494   4.686
73532W        W40315  21.389  14.833   3.668
73533W        W40316  26.187   9.172   2.919
73534W        W40317  24.665  12.243  13.849
73535W        W40318  30.533  37.678   3.852
73536W        W40319  32.652   7.306   2.691
73537W        W40320  14.898  20.474  10.478
73538W        W40321  24.308   7.512   3.635
73539W        W40322  12.706  36.281   0.031
73540W        W40323   2.415  34.727  12.160
73541W        W40324  17.397  27.490   2.802
73542W        W40325  27.403  30.066  11.479
73543W        W40326  38.233  30.042   4.963
73544W        W40327  41.699  30.372   2.889
73545W        W40328   7.317  19.194   0.912
73546W        W40329  29.919   5.668  13.524
73547W        W40330  15.542  16.678   3.663
73548W        W40331   7.411  40.287   3.740
73549W        W40332   5.863  20.486  14.029
73550W        W40333  33.684  38.525   1.474
73551W        W40334  42.449  23.969   1.501
73552W        W40335  11.012  28.586   3.635
73553W        W40336  29.719  30.476   4.192
73554W        W40337  32.075  44.982  11.558
73555W        W40338  29.576  37.005  11.282
73556W        W40339  38.520  22.198   3.237
73557W        W40340  38.043  33.914  14.601
73558W        W40341  18.007  13.663  11.108
73559W        W40342  16.977  20.372   3.274
73560W        W40343  16.196  32.273   4.554
73561W        W40344   6.836  10.155  13.729
73562W        W40345  18.917   9.362   0.646
73563W        W40346  12.950   7.338   0.795
73564W        W40347   3.971  23.092  12.593
73565W        W40348  43.295  17.286  12.819
73566W        W40349  20.167  11.062   0.448
73567W        W40350   7.750  27.640  13.734
73568W        W40351   4.195   5.679  13.331
73569W        W40352  34.061  34.400  13.745
73570W        W40353  43.795  44.739  12.546
73571W        W40354  30.197  19.222  13.039
73572W        W40355  12.878  25.606   0.322
73573W        W40356  29.937  41.152  11.490
73574W        W40357  32.603  44.724  13.251
73575W        W40358  33.968   5.956  13.414
73576W        W40359  34.994  26.878   2.883
73577W        W40360   2.992  32.223   4.167
73578W        W40361  20.543  34.006   2.619
73579W        W40362  28.113  11.011   1.709
73580W        W40363  21.952  29.390   4.318
73581W        W40364  33.030  12.347  12.468
73582W        W40365  21.216   1.731   4.656
73583W        W40366  41.238   4.969  10.653
73584W        W40367  28.721   6.522  13.473
73585W        W40368   6.488  27.381  12.450
73586W        W40369  10.396  29.215   4.084
73587W        W40370  17.929   7.289  13.581
73588W        W40371  10.785  36.044  11.882
73589W        W40372  37.001  13.807  14.698
73590W        W40373  16.325  17.413   0.534
73591W        W40374  23.227  20.979  11.975
73592W        W40375  22.087  26.226  13.994
73593W        W40376  31.917  24.708  10.642
73594W        W40377  38.266   4.635   2.773
73595W        W40378   1.544  30.630   2.795
73596W        W40379  34.958  23.093   1.392
73597W        W40380  37.026  27.455  13.349
73598W        W40381  41.036  42.376   0.377
73599W        W40382   4.686  34.860   0.095
73600W        W40383   1.396  38.058   3.828
73601W        W40384  26.842  32.413  10.402
73602W        W40385  25.686  11.058  13.900
73603W        W40386   6.012  26.794  10.054
73604W        W40387  42.954  29.498   4.175
73605W        W40388  14.263  25.431   3.688
73606W        W40389   5.819  23.512   1.002
73607W        W40390  38.383  24.551  11.414
73608W        W40391  21.100  40.940  11.971
73609W        W40392  17.606   9.402   4.114
73610W        W40393  12.750  37.057   1.963
73611W        W40394   5.282   1.959  11.586
73612W        W40395  44.048   5.426  12.511
73613W        W40396  41.854  39.463  11.338
73614W        W40397   8.622   6.134  11.157
73615W        W40398   4.340  35.265  14.349
73616W        W40399  38.905  11.922  11.007
73617W        W40400  41.803  33.099   3.277
73618W        W40401  12.605   5.512   0.869
73619W        W40402  25.236  35.558  13.903
73620W        W40403   0.905  25.369   0.952
73621W        W40404  34.229  43.377   4.543
73622W        W40405   9.685  31.157  12.112
73623W        W40406  10.379  17.810   1.258
73624W        W40407  43.903  42.558  14.907
73625W        W40408  10.194  30.030  11.618
73626W        W40409  40.250  21.750   1.867
73627W        W40410  32.166   4.268  14.222
73628W        W40411  34.988  24.600   3.604
73629W        W40412  29.673  37.447   1.140
73630W        W40413  12.052  31.625   1.377
73631W        W40414   2.379  38.034   2.666
73632W        W40415  28.940  42.493  14.064
73633W        W40416  39.612  10.005   5.108
73634W        W40417  26.388  15.142   3.808
73635W        W40418  36.930  26.595  12.442
73636W        W40419   6.843  39.898  10.927
73637W        W40420   7.354  18.961  14.800
73638W        W40421  26.488   5.818   9.860
73639W        W40422   9.335  36.005  12.558
73640W        W40423  13.218  23.763  10.725
73641W        W40424  14.723  42.935   9.914
73642W        W40425  31.005  32.761  13.451
73643W        W40426   9.323  21.395   1.338
73644W        W40427  35.186  30.627  13.782
73645W        W40428  19.134  21.400  12.541
73646W        W40429  16.146  17.152   1.245
73647W        W40430  21.637  22.774  14.391
73648W        W40431  36.838  20.550   3.166
73649W        W40432  18.679  27.639   4.131
73650W        W40433  44.531  43.964  13.003
73651W        W40434  13.756   5.956  12.613
73652W        W40435   5.891  34.424   3.684
73653W        W40436  24.375  29.955   2.279
73654W        W40437  26.809  43.035   9.775
73655W        W40438   3.220  13.885   5.069
73656W        W40439  17.118  38.980   0.396
73657W        W40440  39.966  38.348  13.531
73658W        W40441  35.376  40.929   4.195
73659W        W40442  28.630  10.360   3.489
73660W        W40443  41.427  18.225   1.158
73661W        W40444   0.401  26.213   1.233
73662W        W40445   9.454   0.309   1.178
73663W        W40446  16.770   1.313   5.042
73664W        W40447  14.102  28.031   0.093
73665W        W40448   4.214  39.002   0.651
73666W        W40449  11.408   4.384  14.379
73667W        W40450  37.550  36.930  11.960
73668W        W40451  11.290  22.896   0.189
73669W        W40452   4.797  41.513   0.018
73670W        W40453  17.770   4.334   1.636
73671W        W40454  34.447   5.874  12.154
73672W        W40455  40.256  28.100   3.152
73673W        W40456   2.946  11.630   1.171
73674W        W40457  24.320  44.533   4.004
73675W        W40458  42.411  40.309  13.120
73676W        W40459  34.824  13.120  12.665
73677W        W40460   3.770  31.866  12.408
73678W        W40461  23.964  39.910  14.370
73679W        W40462  41.297   9.185   1.694
73680W        W40463  39.335   1.433   1.679
73681W        W40464   5.918  34.392  12.102
73682W        W40465  32.609  28.095  14.224
73683W        W40466   8.271   3.120   1.395
73684W        W40467  17.354  22.130  12.365
73685W        W40468  38.452  36.818  13.778
73686W        W40469   7.553   4.440  11.244
73687W        W40470  27.668   8.251  13.475
73688W        W40471  21.779  16.153  14.577
73689W        W40472  13.335  21.126  11.691
73690W        W40473   9.553   2.953  11.100
73691W        W40474  33.332  38.421  10.262
73692W        W40475  15.247   8.927   1.290
73693W        W40476  32.166  19.066  12.925
73694W        W40477  33.162  18.250  13.083
73695W        W40478  31.387   5.492   1.469
73696W        W40479  43.780  20.006   1.244
73697W        W40480  29.174  31.396   0.890
73698W        W40481  29.199  23.723  11.222
73699W        W40482  15.121  27.481   3.195
73700W        W40483   3.767  35.915  12.233
73701W        W40484   0.206  32.415   0.190
73702W        W40485   1.388  28.834   4.105
73703W        W40486   2.179  23.589  12.534
73704W        W40487   2.001  29.655  14.239
73705W        W40488  34.482  18.076  13.444
73706W        W40489  28.960  26.748   0.239
73707W        W40490  25.176  31.696  12.014
73708W        W40491   0.170  16.795   0.807
73709W        W40492   2.667  21.394  13.398
73710W        W40493  17.710  18.647   0.867
73711W        W40494   9.605   3.427  11.642
73712W        W40495  32.863   3.831   4.521
73713W        W40496  36.419  23.128   4.559
73714W        W40497  35.318  24.579  13.106
73715W        W40498  24.711   7.780   3.481
73716W        W40499  25.762   9.929   0.340
73717W        W40500  40.816  15.789   3.997
73718W        W40501   9.900  24.913  11.152
73719W        W40502  43.883  31.630   1.932
73720W        W40503  29.136  28.782  11.895
73721W        W40504  24.490  18.943   0.834
73722W        W40505  13.756   8.193  10.081
73723W        W40506  40.988   2.315  10.540
73724W        W40507   2.715   3.534  13.142
73725W        W40508  18.222  38.035  13.492
73726W        W40509  41.337  29.435  14.084
73727W        W40510  36.982  21.783  13.793
73728W        W40511   5.687  10.144   1.248
73729W        W40512  42.018  26.481  12.889
73730W        W40513   2.377  26.716   3.333
73731W        W40514   6.308  42.865   0.554
73732W        W40515  25.084  31.647   2.735
73733W        W40516  40.868  16.162   0.947
73734W        W40517  27.639   4.922  11.842
73735W        W40518  37.031  29.399  14.408
73736W        W40519   4.156  16.302   4.258
73737W        W40520  37.594  32.606   1.820
73738W        W40521  36.426  44.161   4.039
73739W        W40522   9.254   4.208   3.665
73740W        W40523  43.441  28.046   0.097
73741W        W40524  15.396  20.375  14.909
73742W        W40525   4.731  40.331  10.531
73743W        W40526  17.806  42.966  13.038
73744W        W40527   9.201  32.869   0.647
73745W        W40528   8.123   7.610   3.662
73746W        W40529  16.746  28.127  14.272
73747W        W40530   4.816  11.400   2.284
73748W        W40531  10.804  20.441   4.619
73749W        W40532  39.112  33.987  14.903
73750W        W40533  39.849  15.959   1.313
73751W        W40534  36.307   9.313   3.299
73752W        W40535   4.799  32.886   1.081
73753W        W40536  19.661  29.228   2.202
73754W        W40537  23.564   3.622   2.240
73755W        W40538  31.525  41.495  12.997
73756W        W40539  41.507  23.159  12.080
73757W        W40540   4.920  12.905   3.443
73758W        W40541  14.720   9.394   9.788
73759W        W40542  35.383   8.131   5.439
73760W        W40543   4.763  35.113   1.095
73761W        W40544  43.208  13.432  13.313
73762W        W40545  13.269  39.279   1.453
73763W        W40546   9.666  14.075  12.497
73764W        W40547   7.285  20.676   1.742
73765W        W40548  17.662   9.147  14.604
73766W        W40549  37.877  38.829  12.164
73767W        W40550  27.996   8.178  11.507
73768W        W40551  41.479  11.112   3.645
73769W        W40552  18.445  16.098   2.797
73770W        W40553  38.785  37.386  10.252
73771W        W40554  23.140  12.774   0.418
73772W        W40555  29.486  21.983   4.445
73773W        W40556  40.472  10.288  14.507
73774W        W40557  13.017  16.196   3.473
73775W        W40558  20.812   8.373  12.206
73776W        W40559  15.023  21.110   2.119
73777W        W40560  23.055  42.405  12.026
73778W        W40561  32.297  27.970  14.696
73779W        W40562  28.311  36.948  11.713
73780W        W40563   4.795  12.132   0.449
73781W        W40564  42.022   0.886   3.485
73782W        W40565   4.750   0.867  11.981
73783W        W40566   8.884  19.055   3.926
73784W        W40567  14.634  15.090  13.609
73785W        W40568  21.693  27.139   0.706
73786W        W40569  19.551   7.680  12.911
73787W        W40570  31.924  25.657   1.991
73788W        W40571  35.832   3.218   1.214
73789W        W40572   3.418  43.876   4.581
73790W        W40573  15.659  22.339   2.613
73791W        W40574  24.021   3.414   0.724
73792W        W40575  24.020  36.873  12.521
73793W        W40576  18.040  40.480  10.326
73794W        W40577  42.657  41.972  13.795
73795W        W40578  25.386  20.673  11.185
73796W        W40579  32.552  35.398   0.826
73797W        W40580  38.270  19.180  13.049
73798W        W40581  35.449  39.030  10.937
73799W        W40582  42.521   3.309   4.414
73800W        W40583  34.866  26.243  12.954
73801W        W40584  41.775  36.033  12.486
73802W        W40585   7.648  17.817   1.423
73803W        W40586  38.581  28.531  12.107
73804W        W40587   4.986  22.096  10.640
73805W        W40588  35.038  24.658   2.548
73806W        W40589  23.170  15.762   3.567
73807W        W40590  36.118  23.554   1.594
73808W        W40591   4.282  11.724   4.427
73809W        W40592  29.308  24.000  11.700
73810W        W40593  16.508  20.621  14.167
73811W        W40594  42.806  12.311   0.369
73812W        W40595  44.745  21.723   3.402
73813W        W40596  16.198  44.351   0.023
73814W        W40597  24.036  36.924   4.727
73815W        W40598  40.807  42.831  10.697
73816W        W40599   5.930   5.806   0.268
73817W        W40600  27.598   4.146   4.400
73818W        W40601  29.890  39.971   5.205
73819W        W40602  37.610  22.214   1.379
73820W        W40603   3.837  20.857  10.486
73821W        W40604  22.118  11.741   0.364
73822W        W40605  22.711  28.129  10.595
73823W        W40606  19.615  40.039   2.516
73824W        W40607  21.500   6.096   4.158
73825W        W40608  23.465  32.480  13.828
73826W        W40609  20.275  32.521   0.016
73827W        W40610  10.840  33.409  12.985
73828W        W40611  32.196   8.685  14.851
73829W        W40612  30.408  34.944  14.672
73830W        W40613   5.823  28.011   3.980
73831W        W40614  41.064  15.116  14.410
73832W        W40615  34.324  25.855   3.224
73833W        W40616  20.373   8.151  11.361
73834W        W40617  31.858  17.697   1.945
73835W        W40618  22.919  40.772   4.594
73836W        W40619  43.491  14.156   0.021
73837W        W40620  22.509  22.491   5.296
73838W        W40621  28.680  13.171  11.489
73839W        W40622  13.833   9.919  11.643
73840W        W40623  39.520  44.820  10.724
73841W        W40624  43.036  13.044   3.337
73842W        W40625  17.269  23.116   4.734
73843W        W40626  29.458  33.483  11.139
73844W        W40627   1.771  14.223  13.810
73845W        W40628  31.432  10.863  14.733
73846W        W40629   0.477   0.402   4.227
73847W        W40630  35.973  17.073  14.889
73848W        W40631  36.377  12.376  13.110
73849W        W40632  40.273  38.496  14.445
73850W        W40633  13.859  36.051   4.600
73851W        W40634  32.890   1.962  14.547
73852W        W40635  38.376  14.612  14.365
73853W        W40636  27.961  10.851  12.454
73854W        W40637  16.574   1.750  12.145
73855W        W40638   4.086  43.410   2.135
73856W        W40639  15.963  10.195  10.765
73857W        W40640  39.786   8.362  13.478
73858W        W40641   2.051  12.677   1.388
73859W        W40642  25.778   3.937  10.767
73860W        W40643   0.539  12.648  10.164
73861W        W40644   3.992  35.129  12.826
73862W        W40645  12.865   0.659  12.353
73863W        W40646  10.132  35.473  13.506
73864W        W40647   9.780  32.479   3.674
73865W        W40648   1.667  36.491   1.732
73866W        W40649  34.095  32.243   5.110
73867W        W40650  12.304   5.976  13.024
73868W        W40651  28.075  20.860  10.527
73869W        W40652  33.707  40.474   3.295
73870W        W40653  42.584  22.985  14.303
73871W        W40654  38.543  12.083   0.806
73872W        W40655  26.988  20.386  13.785
73873W        W40656  20.117  43.347   1.445
73874W        W40657  10.341  33.184   2.858
73875W        W40658  14.816  10.417  12.087
73876W        W40659   5.728   2.702  11.537
73877W        W40660  31.746  37.321   0.916
73878W        W40661  25.635  32.653   1.762
73879W        W40662  22.702   1.061   5.431
73880W        W40663  22.638  20.984  12.681
73881W        W40664   6.319  41.557   5.085
73882W        W40665  41.973  28.150   2.741
73883W        W40666  31.902  11.968  13.796
73884W        W40667  17.514  22.689  10.325
73885W        W40668  13.914  11.100   4.564
73886W        W40669  31.139  41.798  12.540
73887W        W40670  15.598  32.981  11.810
73888W        W40671  23.284  13.311   1.874
73889W        W40672  39.381  25.702   1.327
73890W        W40673  26.674  38.649   0.836
73891W        W40674  13.384  40.768   1.941
73892W        W40675  41.932  44.033  13.808
73893W        W40676  12.852   8.334   3.611
73894W        W40677  42.819  32.998   1.057
73895W        W40678  29.221  12.129  14.396
73896W        W40679  44.210  15.334   0.443
73897W        W40680   6.814  24.061  11.283
73898W        W40681  31.484  44.831  13.389
73899W        W40682  34.702  41.136   2.760
73900W        W40683  41.777  31.638   3.265
73901W        W40684  23.074  23.510   0.829
73902W        W40685  22.756  12.259   1.592
73903W        W40686  37.414  44.708  11.197
73904W        W40687  21.151  38.041   3.158
73905W        W40688  43.368  20.632   0.882
73906W        W40689   8.394  16.579   2.662
73907W        W40690  44.534  18.076  12.977
73908W        W40691  22.265  28.726   1.428
73909W        W40692  20.237  31.043  12.931
73910W        W40693  13.779  20.397   2.106
73911W        W40694  22.256  41.001   3.388
73912W        W40695  38.491  15.215  10.992
73913W        W40696  42.492  43.693  12.048
73914W        W40697   0.280  28.986   4.182
73915W        W40698  36.379  28.709  12.972
73916W        W40699  16.385  42.287  13.090
73917W        W40700  18.893  14.781   0.758
73918W        W40701   0.432   6.840  13.672
73919W        W40702  27.485   1.987  12.213
73920W        W40703  29.702  23.264  13.397
73921W        W40704  32.158  24.700   4.245
73922W        W40705   0.229  19.604   2.829
73923W        W40706  25.336  20.875  10.722
73924W        W40707  20.347  35.501   3.743
73925W        W40708  39.800   0.758  11.152
73926W        W40709   7.079  29.010  11.573
73927W        W40710  13.348  38.789  14.875
73928W        W40711  40.033  21.449   2.237
73929W        W40712  36.445  40.745  13.235
73930W        W40713   4.294  14.935   0.449
73931W        W40714  28.947  42.443  11.520
73932W        W40715  18.538  17.839   1.293
73933W        W40716   2.316  25.434  11.593
73934W        W40717  18.708   3.685   1.652
73935W        W40718   7.283  16.700   0.525
73936W        W40719  39.404  12.565  12.425
73937W        W40720  34.877  20.812  11.598
73938W        W40721  38.453  40.728   4.685
73939W        W40722  13.075  24.611   3.370
73940W        W40723  35.364   0.106  13.585
73941W        W40724  36.130  28.185   3.770
73942W        W40725   7.149  27.892   0.485
73943W        W40726  28.327  44.975  12.743
73944W        W40727  21.363   8.267  10.707
73945W        W40728  29.354   0.446  10.636
73946W        W40729  19.911   3.824  12.472
73947W        W40730   3.503   9.317   1.729
73948W        W40731  21.919  44.258   3.595
73949W        W40732  37.856   7.354   0.696
73950W        W40733   3.039  24.106  11.214
73951W        W40734   8.663  30.104   3.669
73952W        W40735   9.436   4.392  14.386
73953W        W40736  29.995  29.668   0.771
73954W        W40737  31.222  24.118   4.944
73955W        W40738  41.508  23.270   0.392
73956W        W40739  35.021  23.218  13.301
73957W        W40740  16.611  31.601   1.418
73958W        W40741  44.385  36.763  11.557
73959W        W40742  11.443   8.642   4.139
73960W        W40743  10.955  32.852   1.256
73961W        W40744  37.853   2.938   0.446
73962W        W40745  19.567   5.633   4.036
73963W        W40746  16.367  28.909   2.107
73964W        W40747   6.183  18.818   0.223
73965W        W40748  25.513  34.489  13.384
73966W        W40749  33.027  21.730   1.476
73967W        W40750  25.499  19.843   1.672
73968W        W40751  43.354  24.557   4.560
73969W        W40752   1.235  14.361  13.836
73970W        W40753  36.446  44.412   2.618
73971W        W40754  42.813   6.430   1.101
73972W        W40755  35.442  36.024  10.722
73973W        W40756  12.405   3.581   2.270
73974W        W40757  41.433   6.148   4.463
73975W        W40758   8.190  29.654  12.393
73976W        W40759  14.289  35.292  10.635
73977W        W40760  42.020  29.394  14.999
73978W        W40761  10.199  40.764   0.843
73979W        W40762  21.734  12.172   1.779
73980W        W40763  21.648   7.233   0.933
73981W        W40764  21.015  32.918  12.628
73982W        W40765  18.650  37.276   0.549
73983W        W40766  22.178  27.565  13.622
73984W        W40767   6.589  28.916   2.763
73985W        W40768  31.515  32.591   2.617
73986W        W40769  33.961   1.367   0.429
73987W        W40770  28.921  15.123   0.351
73988W        W40771  19.095  38.821   1.346
73989W        W40772  16.704  13.283   0.984
73990W        W40773  28.164   9.753   0.990
73991W        W40774   8.918  14.069  13.597
73992W        W40775  33.584  38.042   0.753
73993W        W40776  44.332  14.836   0.502
73994W        W40777  23.296  21.181   4.430
73995W        W40778   8.225  26.060   4.149
73996W        W40779  33.114  21.584  14.878
73997W        W40780  41.199  10.255  12.025
73998W        W40781  37.806   2.742  13.000
73999W        W40782  12.028   6.399  11.749
74000W        W40783   1.445  39.641   0.362
74001W        W40784  15.169   0.965  13.423
74002W        W40785  39.554  38.086   3.152
74003W        W40786  29.490   1.459  12.007
74004W        W40787  35.593  10.621  10.989
74005W        W40788  17.638  28.897   1.921
74006W        W40789  38.123   6.303   4.650
74007W        W40790  36.074  12.769   3.691
74008W        W40791  28.213  31.001  12.773
74009W        W40792  39.880  34.237  13.520
74010W        W40793  17.954   9.672  11.868
74011W        W40794   6.804  24.390  13.718
74012W        W40795  13.239  34.947  14.689
74013W        W40796  36.410  38.850   1.364
74014W        W40797   1.759  41.248   4.320
74015W        W40798   8.771  12.027  12.121
74016W        W40799  16.068  44.325   1.401
74017W        W40800  35.014  22.020   3.344
74018W        W40801  34.498  44.375   2.081
74019W        W40802  14.150  40.973   3.214
74020W        W40803  16.991  42.010   0.201
74021W        W40804  37.245  28.226   1.747
74022W        W40805  11.050  19.635   4.846
74023W        W40806  32.995  18.663  10.565
74024W        W40807  41.347  27.104   2.111
74025W        W40808  35.930  39.128   1.637
74026W        W40809  18.070  43.867  13.764
74027W        W40810   9.296  34.337  13.534
74028W        W40811  38.627  44.684   2.503
74029W        W40812   8.392  16.436  10.848
74030W        W40813  29.834  24.093  11.650
74031W        W40814  18.762  44.516   2.773
74032W        W40815  27.187  15.242  13.959
74033W        W40816  22.495  43.242   0.406
74034W        W40817   9.625  29.070   4.540
74035W        W40818  31.196  41.832  13.911
74036W        W40819  22.775   8.413   3.238
74037W        W40820  16.370  39.585  11.439
74038W        W40821  30.156  38.939  13.540
74039W        W40822  33.051  26.416   2.729
74040W        W40823  24.453  33.891  11.606
74041W        W40824  25.885   2.580   0.289
74042W        W40825  23.024  11.137  11.141
74043W        W40826   4.827  41.238   1.074
74044W        W40827  37.035  30.267  11.979
74045W        W40828  30.002   7.827   0.489
74046W        W40829   5.947  23.399  11.262
74047W        W40830  37.376  21.262   3.091
74048W        W40831  28.701  34.889  14.905
74049W        W40832   6.908   7.372  10.717
74050W        W40833  44.633  21.728   3.918
74051W        W40834  16.086  31.372   0.913
74052W        W40835  39.054  39.886  11.937
74053W        W40836  16.718  33.744  13.885
74054W        W40837   4.910  19.005  13.287
74055W        W40838  32.565  19.113  12.606
74056W        W40839   8.585  21.730  13.822
74057W        W40840   2.800  25.651   4.570
74058W        W40841  23.904   5.459  14.985
74059W        W40842  27.770  28.485  12.945
74060W        W40843  13.382  26.679   1.296
74061W        W40844   2.812  33.062   1.347
74062W        W40845  17.752  22.405   2.861
74063W        W40846  20.591   1.787  13.071
74064W        W40847  42.890  12.622   0.777
74065W        W40848  41.025  20.467  14.645
74066W        W40849  36.370  17.225   0.804
74067W        W40850  29.536  13.941  14.809
74068W        W40851  38.123  30.672  11.126
74069W        W40852   3.204  34.419  14.826
74070W        W40853   9.277  11.834   0.790
74071W        W40854  39.922  32.957   4.632
74072W        W40855  35.534  30.588  12.571
74073W        W40856  26.156  17.917  12.063
74074W        W40857   8.007   2.153  14.093
74075W        W40858  35.851  32.983  13.765
74076W        W40859  32.611  43.727  10.744
74077W        W40860   9.951   8.996   2.223
74078W        W40861  22.605   3.233   0.899
74079W        W40862   8.559  14.655  12.967
74080W        W40863  36.323  39.063  13.126
74081W        W40864  12.316  13.789   0.276
74082W        W40865  23.725   0.903   2.755
74083W        W40866   4.514   7.717  14.234
74084W        W40867   9.801  20.922   0.904
74085W        W40868  13.888  17.605   4.490
74086W        W40869  36.644   6.207  10.341
74087W        W40870  40.120  14.764  10.800
74088W        W40871   1.344  30.685  10.592
74089W        W40872  31.450  34.103   1.870
74090W        W40873  34.001  42.482  12.362
74091W        W40874  10.927   9.714   3.805
74092W        W40875   3.284  39.272   2.716
74093W        W40876  12.246  10.895  11.591
74094W        W40877  30.748   9.822  11.701
74095W        W40878  23.109   9.146  12.095
74096W        W40879  17.179  37.590   1.953
74097W        W40880  18.518  41.085  13.039
74098W        W40881  15.552  35.450  13.764
74099W        W40882  15.089  36.050  12.614
74100W        W40883   8.622  21.790   3.596
74101W        W40884  12.644  29.038   1.681
74102W        W40885  12.730  20.729   2.296
74103W        W40886  41.618  43.832   1.255
74104W        W40887  17.201  23.689   2.774
74105W        W40888  18.496  29.235  12.969
74106W        W40889  34.388  43.908   2.781
74107W        W40890  35.464  26.223   4.661
74108W        W40891  25.979  26.624   1.409
74109W        W40892  12.143  23.705   2.204
74110W        W40893  43.168  10.958  13.543
74111W        W40894  35.861   2.965  12.585
74112W        W40895  17.288   7.436   3.328
74113W        W40896  42.242  22.987   1.890
74114W        W40897  39.051   5.981  12.368
74115W        W40898   5.429  30.987   1.192
74116W        W40899  12.177   4.300   2.760
74117W        W40900   3.933  15.609   2.200
74118W        W40901  31.897  26.748   2.929
74119W        W40902  39.317   2.787  10.586
74120W        W40903   3.224  19.814   3.533
74121W        W40904  28.605  16.646   0.215
74122W        W40905  37.528  25.748  12.988
74123W        W40906  38.583  37.657  12.142
74124W        W40907   8.360   4.774   1.817
74125W        W40908  26.183  42.242  10.293
74126W        W40909  43.785   1.498   0.921
74127W        W40910   7.010  23.486  14.874
74128W        W40911   2.468  43.546  12.932
74129W        W40912  33.406  33.591  11.163
74130W        W40913  32.826   5.968   4.476
74131W        W40914  15.436   2.320   2.655
74132W        W40915  25.069   5.968  11.455
74133W        W40916   6.225  25.262  11.671
74134W        W40917  13.082  17.133   4.206
74135W        W40918   2.077   1.235  13.064
74136W        W40919  38.872  26.440  10.050
74137W        W40920  20.095  29.874   3.163
74138W        W40921  39.444  43.375   4.526
74139W        W40922  34.400  22.205   2.799
74140W        W40923  27.095   3.731   0.086
74141W        W40924  29.712  40.401   4.999
74142W        W40925  35.783  21.067  12.441
74143W        W40926  24.619   0.604   3.119
74144W        W40927   7.303  36.613   1.304
74145W        W40928  38.264  22.512  10.415
74146W        W40929  30.881  41.764   0.732
74147W        W40930  32.156  42.243  11.900
74148W        W40931  26.401  10.271   5.015
74149W        W40932  12.549  31.022   2.651
74150W        W40933  11.641  24.266  14.424
74151W        W40934  30.989  23.304   0.419
74152W        W40935  36.993  42.510  13.416
74153W        W40936  25.424  35.309  11.134
74154W        W40937  19.032  44.774   2.366
74155W        W40938  37.999  11.248  10.511
74156W        W40939  14.429  10.533  14.829
74157W        W40940   6.785  38.153  12.482
74158W        W40941   2.325   3.879  13.915
74159W        W40942   9.990  11.204  11.906
74160W        W40943  43.629  10.766  12.202
74161W        W40944   9.751  30.487   3.356
74162W        W40945  23.972  44.397   0.252
74163W        W40946  17.736  26.982  14.414
74164W        W40947   0.447  44.380   3.321
74165W        W40948  36.367  37.920   4.065
74166W        W40949  32.061  32.530   2.522
74167W        W40950   1.806  26.693   4.799
74168W        W40951   9.850  38.244  14.198
74169W        W40952  40.117  36.654   0.948
74170W        W40953  13.651  37.741  11.705
74171W        W40954  24.651   4.975   0.530
74172W        W40955  34.880  42.821   1.199
74173W        W40956  34.341  21.862   4.983
74174W        W40957  22.051   5.022  11.432
74175W        W40958  32.409   9.276   1.369
74176W        W40959   4.178  27.687   2.415
74177W        W40960  14.309   8.398  14.952
74178W        W40961  11.599  23.098  14.723
74179W        W40962  31.429  30.148  10.662
74180W        W40963  19.932  36.539   0.199
74181W        W40964   9.651  10.669  13.503
74182W        W40965  24.608  43.701   3.073
74183W        W40966  21.838  10.780  11.102
74184W        W40967   2.026  24.142   2.741
74185W        W40968  11.837  27.751  14.362
74186W        W40969   4.358   6.767   2.816
74187W        W40970  15.854  29.998  11.605
74188W        W40971   3.400  40.898  11.100
74189W        W40972  10.405  15.231   2.810
74190W        W40973  39.018  23.183  10.862
74191W        W40974  15.130   1.795   4.887
74192W        W40975   9.829   3.487  14.420
74193W        W40976   3.949  27.847  11.507
74194W        W40977  44.309  11.308   2.139
74195W        W40978   8.331   0.398   4.673
74196W        W40979  39.339   9.127  12.102
74197W        W40980  26.705  32.040   0.820
74198W        W40981  41.483  35.088  14.361
74199W        W40982  41.080  38.996  13.917
74200W        W40983  27.715  33.994   0.898
74201W        W40984  40.563  21.003   1.704
74202W        W40985  15.101  37.047  12.967
74203W        W40986  38.257   8.807  14.869
74204W        W40987  33.394   3.628   3.717
74205W        W40988  29.216   2.915   0.505
74206W        W40989   3.265  43.304   3.389
74207W        W40990  42.889   8.012  14.907
74208W        W40991  25.107  34.510  12.450
74209W        W40992  26.966  29.071  14.375
74210W        W40993  17.723  37.015  14.251
74211W        W40994   2.063  19.300   3.610
74212W        W40995  12.278  31.399   2.871
74213W        W40996   0.534   2.207  13.911
74214W        W40997  34.571  19.473  13.812
74215W        W40998   1.539  37.428  12.760
74216W        W40999  43.448   9.773  10.990
74217W        W41000  39.909  41.241   4.150
74218W        W41001  36.125  14.204   4.642
74219W        W41002  41.430   9.402   1.132
74220W        W41003  11.824  38.475  11.492
74221W        W41004  27.946  38.863   2.817
74222W        W41005   5.291  41.494   0.307
74223W        W41006  23.283  30.560  12.769
74224W        W41007   9.735  31.692   0.368
74225W        W41008  31.379   8.100  13.079
74226W        W41009  26.636  30.692   3.916
74227W        W41010  29.630   7.070   3.905
74228W        W41011  18.590  11.793  13.924
74229W        W41012  22.880  30.288  11.062
74230W        W41013  31.556  21.715   3.594
74231W        W41014   1.047  33.453  11.679
74232W        W41015  15.277  25.712  14.223
74233W        W41016   3.019   1.757   2.735
74234W        W41017  38.303  35.801  11.094
74235W        W41018  33.819  19.736  14.375
74236W        W41019  19.354   6.884   3.698
74237W        W41020   2.680  35.090   2.134
74238W        W41021  32.226  42.771   2.637
74239W        W41022  36.526  17.788   3.678
74240W        W41023   6.542  30.587  14.841
74241W        W41024  38.272  30.118   1.380
74242W        W41025  13.453  42.991   3.751
74243W        W41026  10.846  30.981  12.591
74244W        W41027  30.727   3.303  12.960
74245W        W41028  16.603   2.769  13.597
74246W        W41029  18.777  16.743  12.098
74247W        W41030   0.294   8.877  12.450
74248W        W41031   6.105  41.834   0.867
74249W        W41032  38.058  32.383   3.451
74250W        W41033  33.730  42.100  11.558
74251W        W41034  32.787   3.356  14.301
74252W        W41035   1.916   6.921  10.729
74253W        W41036  13.175  36.854   2.248
74254W        W41037  41.363  25.648  12.389
74255W        W41038  34.817  18.703  14.804
74256W        W41039  27.982   6.382  14.759
74257W        W41040   0.666   9.866   2.926
74258W        W41041  31.226  10.427   4.433
74259W        W41042  39.762   1.425   0.871
74260W        W41043  36.366  10.158  12.393
74261W        W41044   7.977  44.635  14.474
74262W        W41045   9.688  31.321   1.236
74263W        W41046  31.917  37.048   0.499
74264W        W41047   6.359  19.663  13.047
74265W        W41048  28.402  39.800  14.859
74266W        W41049  18.990  19.786   0.384
74267W        W41050   8.356   8.323   4.920
74268W        W41051   2.765   5.869   0.962
74269W        W41052  40.306  13.624  14.453
74270W        W41053  21.504  31.101   4.261
74271W        W41054   9.381   7.288   3.404
74272W        W41055   3.259  34.220  10.344
74273W        W41056  15.189  42.132   4.885
74274W        W41057  43.099   6.676  10.736
74275W        W41058  19.162  43.218   1.262
74276W        W41059  41.226   7.874  14.504
74277W        W41060  41.796  35.338  11.964
74278W        W41061  28.294  26.599   4.378
74279W        W41062   3.224  30.438  10.612
74280W        W41063  29.435  21.225  10.748
74281W        W41064  14.907  19.378   4.185
74282W        W41065  44.991   6.225  14.904
74283W        W41066  25.032  44.066   3.091
74284W        W41067   0.812   5.235  13.986
74285W        W41068  40.558  37.317   2.731
74286W        W41069  35.317  31.536   2.249
74287W        W41070  44.506  24.223   2.780
74288W        W41071   0.455  34.086   0.012
74289W        W41072  18.693  20.165   3.719
74290W        W41073  15.900  21.291   4.968
74291W        W41074   6.746  19.396   1.452
74292W        W41075  17.163  15.783   2.422
74293W        W41076  28.963  20.281   4.107
74294W        W41077  29.253  16.661   1.531
74295W        W41078  37.295  14.125   0.759
74296W        W41079  26.636  17.958   4.180
74297W        W41080  34.314  11.286  12.003
74298W        W41081  30.741  34.751  11.470
74299W        W41082  27.687   2.967  12.467
74300W        W41083  38.094   7.312  10.140
74301W        W41084  44.277  36.148  10.437
74302W        W41085  29.899  20.225   3.740
74303W        W41086  41.374   9.547   0.570
74304W        W41087  35.753  27.692   1.187
74305W        W41088  35.457   2.704   0.633
74306W        W41089  30.164  43.945  13.065
74307W        W41090  17.409  37.870   4.120
74308W        W41091  38.965  23.048   4.185
74309W        W41092  26.918  43.359  14.411
74310W        W41093   5.143  16.053  14.233
74311W        W41094  24.128  34.503   2.610
74312W        W41095  25.700  22.689   3.288
74313W        W41096   9.965  30.020   3.306
74314W        W41097  16.580  42.732   3.169
74315W        W41098  20.103  33.518   2.146
74316W        W41099  24.693  23.229   4.080
74317W        W41100  18.849   5.271  14.518
74318W        W41101  25.005  16.124  14.927
74319W        W41102  34.573  16.532  13.939
74320W        W41103  40.966   7.894   2.419
74321W        W41104  29.165   2.982  13.419
74322W        W41105  43.386  31.149   3.107
74323W        W41106  12.627  42.785   0.038
74324W        W41107  41.900  44.780   0.855
74325W        W41108  33.573  27.886  10.250
74326W        W41109  10.680  21.444  11.719
74327W        W41110   4.910  23.110  14.673
74328W        W41111   6.878  36.460   0.993
74329W        W41112  31.967  12.095  12.063
74330W        W41113  33.443  28.914   1.192
74331W        W41114  19.703  25.863   0.105
74332W        W41115  42.009  25.086   3.818
74333W        W41116  18.273   0.892   2.812
74334W        W41117  15.966  30.487   1.710
74335W        W41118  21.488  34.820  12.157
74336W        W41119  43.411  43.368  11.938
74337W        W41120  25.244  34.003  12.381
74338W        W41121  26.759  25.494   0.799
74339W        W41122   2.254   4.298  13.584
74340W        W41123  15.111  39.534   3.531
74341W        W41124  34.642   1.399  14.735
74342W        W41125  43.935  17.376   0.348
74343W        W41126  13.855  10.304   2.551
74344W        W41127  42.044  27.451   4.086
74345W        W41128   6.798  27.151   4.727
74346W        W41129  17.041  40.846   4.213
74347W        W41130   6.894  18.737  11.961
74348W        W41131  13.612  33.518   4.056
74349W        W41132  30.663  16.836   3.112
74350W        W41133  10.177  11.320   0.797
74351W        W41134  11.602  29.208  14.583
74352W        W41135   3.281  44.707   1.272
74353W        W41136   3.282  29.364   0.295
74354W        W41137  29.613  26.404  12.623
74355W        W41138   7.501  18.645  13.119
74356W        W41139  41.298  21.147   3.699
74357W        W41140   2.329  20.856   2.303
74358W        W41141  19.646  10.674  12.318
74359W        W41142  29.537  35.649   4.148
74360W        W41143  25.177  43.920  13.299
74361W        W41144   5.170  14.685  13.970
74362W        W41145  13.300  38.373   1.596
74363W        W41146  25.420  25.160   1.318
74364W        W41147  39.054  35.421   5.027
74365W        W41148  10.151  31.405   2.525
74366W        W41149  38.947  14.578  14.862
74367W        W41150  42.568  20.480  11.684
74368W        W41151  15.413  35.330  11.108
74369W        W41152  10.714  32.904  13.069
74370W        W41153  20.487   2.424   1.230
74371W        W41154  16.411   0.411  12.465
74372W        W41155  24.887  27.080   0.711
74373W        W41156  11.697  24.396   3.281
74374W        W41157  38.613  33.657  11.963
74375W        W41158  23.540  41.777  13.696
74376W        W41159  33.585  11.399  13.283
74377W        W41160  26.851  42.766   3.045
74378W        W41161   2.789  20.026   3.306
74379W        W41162  43.474  15.280   4.515
74380W        W41163  14.010   6.273  11.213
74381W        W41164  14.366  42.866   3.491
74382W        W41165   5.427   5.591   4.177
74383W        W41166   2.735  43.318  12.558
74384W        W41167  34.367  32.340  11.141
74385W        W41168  25.602  23.999  13.039
74386W        W41169  15.590   1.259   1.858
74387W        W41170  10.485  32.513   3.293
74388W        W41171  16.468  29.170   0.374
74389W        W41172   9.866  27.638   2.201
74390W        W41173  43.176  27.523   3.206
74391W        W41174  27.554  19.138  10.767
74392W        W41175  31.831  32.142  11.669
74393W        W41176  24.403  14.976   0.954
74394W        W41177  32.373  38.831   3.710
74395W        W41178  41.910  18.524   3.326
74396W        W41179  28.565  15.389   1.753
74397W        W41180  34.543  24.984  11.894
74398W        W41181  37.284  37.346   4.581
74399W        W41182  35.886  23.775   0.338
74400W        W41183   4.683  35.463   2.155
74401W        W41184  43.748  31.320   0.949
74402W        W41185   1.046  32.275   0.821
74403W        W41186  42.412  22.765  12.809
74404W        W41187   8.327  39.917   4.664
74405W        W41188  38.924  15.282  11.268
74406W        W41189   7.321  29.484  11.770
74407W        W41190   9.030  21.597  13.547
74408W        W41191  10.652  44.850   3.788
74409W        W41192  15.140  25.675  11.921
74410W        W41193  20.805  23.250  10.604
74411W        W41194  11.944  30.092  11.982
74412W        W41195  33.561  26.859   1.334
74413W        W41196  24.901  26.220  12.420
74414W        W41197  43.335  31.552   4.586
74415W        W41198  31.889  17.483   4.253
74416W        W41199  21.563  39.781  12.448
74417W        W41200  35.367  14.289   1.473
74418W        W41201  29.489  12.831   3.652
74419W        W41202  41.338  31.598   2.425
74420W        W41203  15.114  43.815  12.967
74421W        W41204  30.591  22.973   2.445
74422W        W41205  34.560   4.033  12.573
74423W        W41206  35.455  26.681   4.955
74424W        W41207   6.889  19.671   2.381
74425W        W41208  37.617   5.175   0.244
74426W        W41209  28.594  13.093   3.514
74427W        W41210  30.409  19.763  10.615
74428W        W41211   7.369  25.122  10.713
74429W        W41212  17.537   8.430  11.602
74430W        W41213   7.522  35.948   2.778
74431W        W41214  35.030  13.866  13.560
74432W        W41215  17.687   2.735   1.302
74433W        W41216  42.400  40.618   2.301
74434W        W41217  43.024   3.282   4.308
74435W        W41218  38.007   5.252  12.608
74436W        W41219  19.227  11.841   4.372
74437W        W41220  13.763  27.180  13.502
74438W        W41221   9.486   9.303   4.928
74439W        W41222  27.103   7.007  11.312
74440W        W41223  27.566  16.131  12.349
74441W        W41224  42.113  11.725  10.284
74442W        W41225  32.244   0.685   2.688
74443W        W41226  24.212  24.574   1.299
74444W        W41227   8.637  16.662   2.218
74445W        W41228  36.557  22.052  11.980
74446W        W41229  34.853  37.319  12.441
74447W        W41230  12.893  18.102   2.769
74448W        W41231  28.601  41.015   1.409
74449W        W41232   4.781   8.209   3.616
74450W        W41233  10.434   4.266  10.156
74451W        W41234  18.085   4.221   0.694
74452W        W41235  44.350   5.107   1.175
74453W        W41236   1.905  39.804   0.538
74454W        W41237  33.853  34.070   1.712
74455W        W41238  32.431  11.211  10.928
74456W        W41239  10.261   2.338   2.179
74457W        W41240  41.929  12.717   2.115
74458W        W41241  18.509   2.580   1.620
74459W        W41242  14.658  40.781   4.117
74460W        W41243  32.573   3.562  11.108
74461W        W41244  36.378   5.211   1.207
74462W        W41245  25.233  35.870  11.554
74463W        W41246  30.697   7.854   4.208
74464W        W41247  41.852  38.502   4.985
74465W        W41248  29.494  44.122   2.648
74466W        W41249  14.893   5.458  12.504
74467W        W41250  27.507  28.929  12.871
74468W        W41251  36.854  19.038   1.910
74469W        W41252  13.287   3.207   0.234
74470W        W41253  39.949  20.666  12.151
74471W        W41254  13.126  35.386   1.525
74472W        W41255  32.500   8.186  14.823
74473W        W41256  23.656  12.547  11.119
74474W        W41257  17.195  31.350  13.042
74475W        W41258   5.796  32.079   2.066
74476W        W41259  25.249  20.860   4.486
74477W        W41260  33.877   0.392  10.843
74478W        W41261  25.625  18.986   0.406
74479W        W41262  30.139  38.059  10.747
74480W        W41263  26.005  26.942   2.656
74481W        W41264  30.638   0.783   1.162
74482W        W41265  23.963   0.508  14.461
74483W        W41266  30.613  28.013   2.291
74484W        W41267  42.393  29.662   3.887
74485W        W41268  24.952  33.734   1.262
74486W        W41269  24.203  42.507   3.631
74487W        W41270  11.421   5.383   3.507
74488W        W41271   6.135  20.805  13.256
74489W        W41272  36.957  31.488  11.255
74490W        W41273  12.080   4.610  12.043
74491W        W41274  40.514   1.429   4.129
74492W        W41275  39.258  12.319   1.241
74493W        W41276  30.851  19.555   2.718
74494W        W41277  37.729  24.073  13.316
74495W        W41278  35.389  11.431  14.084
74496W        W41279  33.377  10.054   2.146
74497W        W41280  34.038  41.834   3.223
74498W        W41281  40.799  10.687   1.157
74499W        W41282  39.052  27.680  12.965
74500W        W41283   0.722  22.123  13.115
74501W        W41284  43.594  34.068  12.107
74502W        W41285  37.625   8.885   3.198
74503W        W41286   6.841  19.978   4.170
74504W        W41287  39.486  18.615   1.019
74505W        W41288   3.759  27.718  12.018
74506W        W41289  25.310   6.862  11.077
74507W        W41290   2.402  31.931  10.130
74508W        W41291  18.283  43.913  11.991
74509W        W41292  41.339  33.623  14.646
74510W        W41293   5.701   8.678  14.353
74511W        W41294   2.363   5.242  10.747
74512W        W41295  29.403   2.841  12.958
74513W        W41296  11.450  36.938   4.297
74514W        W41297  34.070  23.971   4.637
74515W        W41298  34.425  15.726   3.250
74516W        W41299  30.502  30.007  12.102
74517W        W41300  13.945  25.123  11.973
74518W        W41301  28.231  11.149   4.228
74519W        W41302  41.368  34.866   2.694
74520W        W41303  22.146  21.745   2.139
74521W        W41304   3.920   3.205  11.237
74522W        W41305  21.735   1.498   4.285
74523W        W41306  28.048  11.687   0.328
74524W        W41307   6.308   3.384   3.128
74525W        W41308  19.987  44.584   4.361
74526W        W41309  39.060  13.379  10.600
74527W        W41310   3.805  25.936   3.177
74528W        W41311  33.796   0.089  13.907
74529W        W41312  37.133   4.290   4.747
74530W        W41313  21.962  41.864   4.244
74531W        W41314  24.483  24.679   4.105
74532W        W41315  25.061  11.669  10.602
74533W        W41316   6.391   5.477  14.969
74534W        W41317   1.501  15.708  12.855
74535W        W41318  33.165  18.015  14.478
74536W        W41319  14.179   9.039   5.009
74537W        W41320  42.364  33.323  10.939
74538W        W41321   3.163  18.499  13.844
74539W        W41322   8.840  17.579  10.473
74540W        W41323  28.062  20.050  12.985
74541W        W41324  34.396   6.268   3.614
74542W        W41325   7.261  39.074  10.744
74543W        W41326  40.792  40.106  13.358
74544W        W41327  19.635  25.739  13.600
74545W        W41328  15.150  41.549  11.838
74546W        W41329  20.645  23.004  12.977
74547W        W41330  24.478  20.766  13.565
74548W        W41331  17.217  30.173   4.085
74549W        W41332  42.873  24.018   1.802
74550W        W41333  15.319  26.156  14.498
74551W        W41334   6.762  34.459   1.866
74552W        W41335  22.229   0.581   5.000
74553W        W41336  21.401  36.245  14.884
74554W        W41337   9.894   4.776  11.721
74555W        W41338  27.775  14.748   0.224
74556W        W41339  16.788  37.148   0.314
74557W        W41340  15.131  40.498  14.100
74558W        W41341  37.983  15.852   2.684
74559W        W41342   7.677   7.454  13.929
74560W        W41343   9.843  33.554  14.214
74561W        W41344  28.026   1.307   2.666
74562W        W41345  43.304  24.163  13.931
74563W        W41346  25.589   2.801   1.253
74564W        W41347   9.839  37.891  14.964
74565W        W41348   8.536   7.326   5.037
74566W        W41349   8.715  43.487   3.576
74567W        W41350  33.031  41.748   3.245
74568W        W41351   8.887  30.670   0.405
74569W        W41352  18.406   7.441   1.880
74570W        W41353  23.671  43.701   1.625
74571W        W41354   3.267  23.957   1.439
74572W        W41355  23.234  36.157  14.679
74573W        W41356  41.376  14.675  13.326
74574W        W41357   2.526  20.881  11.862
74575W        W41358   7.076   7.792   3.317
74576W        W41359  16.259  14.879  11.162
74577W        W41360  44.927  13.729   4.609
74578W        W41361  40.905   3.481  13.611
74579W        W41362  39.297   7.635   0.820
74580W        W41363  40.723  37.907  13.408
74581W        W41364  30.973  25.954  13.984
74582W        W41365  14.285  13.594   4.098
74583W        W41366   3.673  44.484   4.952
74584W        W41367  28.381  39.406  11.354
74585W        W41368  27.098  33.427   3.422
74586W        W41369  11.104   8.693   3.305
74587W        W41370  29.515   6.118   0.392
74588W        W41371  28.801  38.271  13.469
74589W        W41372   8.564   7.340  14.456
74590W        W41373  26.517  14.092  11.645
74591W        W41374  21.513   2.267   0.908
74592W        W41375  26.538  28.711  13.086
74593W        W41376   4.987  16.214   4.946
74594W        W41377  19.030   4.891  12.494
74595W        W41378  16.875  22.984  12.523
74596W        W41379  39.049  18.746  12.708
74597W        W41380  36.502  29.707  11.170
74598W        W41381  10.720  21.012   2.904
74599W        W41382  12.194  41.012   4.248
74600W        W41383  36.036  23.776  11.494
74601W        W41384  21.536  18.495   2.768
74602W        W41385  25.072  34.340  11.965
74603W        W41386   9.015   0.581  13.045
74604W        W41387  40.550  31.445   4.236
74605W        W41388  24.704   2.260  10.239
74606W        W41389   5.861   3.844   1.570
74607W        W41390  30.148  25.011   2.672
74608W        W41391  43.217  27.218  10.448
74609W        W41392  13.290  37.126   3.297
74610W        W41393  40.962   1.257  11.688
74611W        W41394  29.367  21.518   4.219
74612W        W41395  36.404  24.189   3.256
74613W        W41396   2.794  30.562   2.293
74614W        W41397   8.144  27.713   1.312
74615W        W41398  17.412  15.708   0.798
74616W        W41399  10.216  33.514   4.675
74617W        W41400  21.951  42.052   0.264
74618W        W41401  36.497  13.546   1.119
74619W        W41402  36.346  38.390   2.722
74620W        W41403  19.444  38.063   0.752
74621W        W41404   2.683  27.512   3.226
74622W        W41405  24.033  40.529   2.350
74623W        W41406  11.860  24.237  11.596
74624W        W41407  35.293  44.766  10.716
74625W        W41408   9.657  17.081  13.313
74626W        W41409  26.478  32.505   0.819
74627W        W41410  22.486  27.694  10.416
74628W        W41411   8.150  18.706   1.440
74629W        W41412  42.797   9.865   2.412
74630W        W41413  20.894  11.307   4.569
74631W        W41414  43.411  38.737  12.916
74632W        W41415  11.203  43.731  12.988
74633W        W41416   3.395  42.940  13.936
74634W        W41417  30.170  21.657   0.912
74635W        W41418  31.223  25.037  11.197
74636W        W41419  30.159   7.378   0.283
74637W        W41420  38.838  26.794  11.541
74638W        W41421  31.444  43.286   0.509
74639W        W41422  10.302   3.369  14.247
74640W        W41423  24.997  10.136  11.705
74641W        W41424  30.733   2.390   1.359
74642W        W41425  13.323   1.232  10.714
74643W        W41426  40.333   3.741  14.344
74644W        W41427  13.863  29.130   1.254
74645W        W41428  39.904   9.310  14.232
74646W        W41429  35.444  19.042   4.551
74647W        W41430  13.066  36.795  13.171
74648W        W41431  44.154  29.500  12.031
74649W        W41432   9.498  28.178  10.244
74650W        W41433  33.538  25.123   3.645
74651W        W41434  11.049  33.959  14.593
74652W        W41435  28.517   1.967   1.892
74653W        W41436   9.111  29.089   2.193
74654W        W41437  29.596  40.276   2.741
74655W        W41438  31.344  12.615  12.811
74656W        W41439   4.155  41.765  12.353
74657W        W41440  34.898  13.118  14.155
74658W        W41441  28.607  26.608  13.972
74659W        W41442  31.985  14.207  13.002
74660W        W41443  37.668   2.811   4.003
74661W        W41444   4.609   6.479  11.273
74662W        W41445  44.343  11.353  12.992
74663W        W41446  38.517   7.126   2.727
74664W        W41447  38.120  24.498   3.671
74665W        W41448  41.555  31.717   1.408
74666W        W41449  20.958  33.797   3.255
74667W        W41450  31.429  12.349  11.525
74668W        W41451   8.736  42.689   4.321
74669W        W41452  21.016  37.414   2.197
74670W        W41453   3.935   1.503  10.685
74671W        W41454   5.874  11.134  13.273
74672W        W41455  32.563   3.199   0.713
74673W        W41456  27.607  26.829   3.724
74674W        W41457  36.766   6.613  13.371
74675W        W41458   0.865  27.703   3.807
74676W        W41459   6.988  14.184   3.121
74677W        W41460  28.632  26.694  10.024
74678W        W41461   4.746  43.618  10.719
74679W        W41462  37.332  31.517  11.621
74680W        W41463  39.862  14.879   0.332
74681W        W41464  29.701  12.071  12.507
74682W        W41465   9.234  11.400   4.919
74683W        W41466  37.335  19.470   0.927
74684W        W41467   3.232  14.072  14.928
74685W        W41468   5.741  19.325   3.192
74686W        W41469  21.123  25.072   1.244
74687W        W41470  10.737   2.381  13.749
74688W        W41471  30.161  23.986  13.900
74689W        W41472  10.146  14.112   3.801
74690W        W41473  33.292  31.363  11.867
74691W        W41474  30.727   2.080   0.218
74692W        W41475  29.992  43.367  13.502
74693W        W41476  38.435  10.536   3.731
74694W        W41477   3.756  34.417  13.519
74695W        W41478  24.142  25.478  12.101
74696W        W41479  11.161  23.397   0.267
74697W        W41480  34.806  36.805  12.566
74698W        W41481   1.959   7.360   3.208
74699W        W41482   8.649   8.258  11.986
74700W        W41483   0.434  31.315  11.967
74701W        W41484   6.767  16.253   0.952
74702W        W41485  42.476  27.657  13.412
74703W        W41486   5.223   1.963  11.014
74704W        W41487  38.484  44.239   0.439
74705W        W41488  24.116   1.467   1.938
74706W        W41489  35.007  42.962  11.436
74707W        W41490  40.440  36.000  11.964
74708W        W41491  33.061  11.597   1.741
74709W        W41492  22.275  11.601  14.868
74710W        W41493  18.247  28.437   3.822
74711W        W41494  24.723  14.394  14.299
74712W        W41495   8.934  41.130   5.171
74713W        W41496  29.350  33.330   4.896
74714W        W41497  31.758  43.397   3.320
74715W        W41498  33.131   1.375  13.383
74716W        W41499  42.487  43.423   2.325
74717W        W41500   4.063  32.517  10.550
74718W        W41501  11.764  11.092   0.420
74719W        W41502  31.504   0.291   1.900
74720W        W41503   0.737   5.137   2.343
74721W        W41504  20.601   8.828  12.140
74722W        W41505  13.084   1.259  12.420
74723W        W41506   7.699   7.316   0.002
74724W        W41507   6.833  40.550  14.476
74725W        W41508   2.930  36.080  11.405
74726W        W41509  23.264  29.466   3.085
74727W        W41510   1.516  29.352   2.317
74728W        W41511  11.245  34.177   0.845
74729W        W41512  38.533   2.882   1.035
74730W        W41513   0.579   0.173   0.830
74731W        W41514   1.091   3.966  11.628
74732W        W41515  33.852  28.372   4.026
74733W        W41516   4.911  23.666   2.281
74734W        W41517  22.540  12.190   2.254
74735W        W41518  41.846  15.641  14.379
74736W        W41519   6.938  32.637  14.392
74737W        W41520  15.223  44.524   0.446
74738W        W41521  41.357  11.988   5.482
74739W        W41522  12.896  34.012   3.783
74740W        W41523   3.225   2.820  14.765
74741W        W41524   6.217  43.454   2.385
74742W        W41525  26.515  41.288  13.127
74743W        W41526  27.638  35.042   0.714
74744W        W41527  26.611   8.934  12.178
74745W        W41528  20.678  22.187   2.775
74746W        W41529  10.069  21.453   4.058
74747W        W41530   6.836  24.155  12.291
74748W        W41531  19.463  31.770   1.698
74749W        W41532  14.183   7.407   4.692
74750W        W41533  21.087  11.219  14.407
74751W        W41534   5.223  25.222   2.400
74752W        W41535  42.935  18.822   0.863
74753W        W41536   7.936   6.448   3.376
74754W        W41537   5.573   4.496   4.135
74755W        W41538  41.819  43.999   3.563
74756W        W41539  15.339  30.243   2.429
74757W        W41540  43.444  38.921  14.911
74758W        W41541  16.113  26.430   4.972
74759W        W41542   6.955  13.378   4.431
74760W        W41543  24.068  23.445  10.703
74761W        W41544  29.906   3.781  13.066
74762W        W41545  12.683  41.754   3.722
74763W        W41546  44.272  10.858  12.861
74764W        W41547  24.558  14.274   4.602
74765W        W41548  41.325  41.821  13.228
74766W        W41549  20.135  31.624  12.047
74767W        W41550  44.339  42.372  13.629
74768W        W41551  37.606   9.597  14.631
74769W        W41552   9.701  33.185  12.539
74770W        W41553  12.099  30.074   1.977
74771W        W41554   1.856  16.053   4.086
74772W        W41555  19.619   2.461   0.853
74773W        W41556  27.096  26.796   4.427
74774W        W41557  12.192  12.810   0.306
74775W        W41558   6.509  18.539  11.640
74776W        W41559  33.068  38.622  10.661
74777W        W41560  26.719  32.106  12.942
74778W        W41561  34.311  16.589   3.434
74779W        W41562  11.240  24.530  12.595
74780W        W41563   8.007  35.151   3.919
74781W        W41564  14.679   1.250  14.371
74782W        W41565  28.074  21.294  12.433
74783W        W41566   5.684  31.033   4.418
74784W        W41567  24.053  25.413  13.397
74785W        W41568   4.376   1.186  13.820
74786W        W41569   0.036   8.641  14.327
74787W        W41570  32.418  37.044  10.340
74788W        W41571  36.910  14.775   4.833
74789W        W41572   1.796  20.933   3.475
74790W        W41573  21.769  35.323   2.751
74791W        W41574  14.532  31.898  11.222
74792W        W41575  33.031   3.730   0.235
74793W        W41576  22.514  40.822   4.246
74794W        W41577  37.701  18.056   1.594
74795W        W41578  28.478  26.056   3.764
74796W        W41579  24.911   0.013  12.915
74797W        W41580  10.928  39.874  11.798
74798W        W41581  43.221  11.985  13.522
74799W        W41582  38.005   5.827  13.781
74800W        W41583  10.151  15.244   3.311
74801W        W41584  14.195  13.393   4.567
74802W        W41585   3.868  37.425   3.190
74803W        W41586  18.642  39.067   1.289
74804W        W41587  25.770  14.391   4.172
74805W        W41588  13.257  30.394  14.301
74806W        W41589  22.993  33.267   0.017
74807W        W41590   2.404  20.116   0.887
74808W        W41591  20.556  21.104  12.133
74809W        W41592  14.399  19.020  11.176
74810W        W41593  18.558  44.021  13.992
74811W        W41594  29.177  25.552   0.791
74812W        W41595  30.714  23.585  11.966
74813W        W41596  18.608  27.804   0.048
74814W        W41597  23.459  11.880   3.619
74815W        W41598  11.828   6.168  14.859
74816W        W41599  22.937  30.736  14.486
74817W        W41600  26.661  33.208   3.616
74818W        W41601  36.354   8.239   5.367
74819W        W41602  13.833  18.494   0.781
74820W        W41603   2.914  37.960  10.550
74821W        W41604  11.545   5.734   4.985
74822W        W41605  44.410  23.299  12.951
74823W        W41606  36.420  25.930  11.449
74824W        W41607   6.981  29.122  12.467
74825W        W41608  17.636  36.187   2.745
74826W        W41609  42.585  35.595   2.841
74827W        W41610   3.686  33.101   0.460
74828W        W41611   9.807  33.588   2.222
74829W        W41612   0.748  32.382  14.567
74830W        W41613  17.510  18.752   3.688
74831W        W41614  17.726  29.033   1.401
74832W        W41615   8.281  27.905  13.268
74833W        W41616  17.307   3.413   1.412
74834W        W41617  27.454  36.415  12.910
74835W        W41618  15.273  17.945   2.906
74836W        W41619  17.373  28.114   4.228
74837W        W41620   9.356  16.518   0.739
74838W        W41621  27.261   0.278  14.290
74839W        W41622   9.247  13.188  11.623
74840W        W41623   8.410  23.006  13.385
74841W        W41624  12.936  44.662   2.706
74842W        W41625  13.533  26.592   0.386
74843W        W41626  17.200   5.753   2.873
74844W        W41627   3.106  40.797   3.611
74845W        W41628  33.884  34.071   3.657
74846W        W41629  37.926  18.533  12.648
74847W        W41630  43.163  11.653   4.208
74848W        W41631   9.781  34.031   1.944
74849W        W41632   2.482   6.870   4.395
74850W        W41633   5.500  13.109  14.267
74851W        W41634  24.794  27.573  14.564
74852W        W41635  40.383  21.710   3.878
74853W        W41636  11.354  32.760   1.766
74854W        W41637   3.879  41.949  13.107
74855W        W41638  29.027  26.739   3.560
74856W        W41639  33.806   9.121  13.493
74857W        W41640  25.066  15.290   2.361
74858W        W41641  31.477  26.411   2.957
74859W        W41642  20.458  26.609   4.822
74860W        W41643  38.113  40.408  13.107
74861W        W41644  27.097  13.009   2.700
74862W        W41645  41.483  16.837   0.763
74863W        W41646  18.921  20.170   2.858
74864W        W41647  12.760  21.743   2.902
74865W        W41648  37.335  43.275  12.047
74866W        W41649  20.495  39.974  13.337
74867W        W41650  37.623   7.284  12.772
74868W        W41651   8.827  15.629   1.213
74869W        W41652  10.615  30.074   4.170
74870W        W41653  38.308  36.605   1.318
74871W        W41654  26.891  14.145  14.895
74872W        W41655   3.665  18.453  11.723
74873W        W41656  16.673   5.453   0.910
74874W        W41657  37.611  26.695   3.227
74875W        W41658   1.368  39.035  12.059
74876W        W41659  21.171  31.816   2.660
74877W        W41660  20.201  22.164  10.747
74878W        W41661  19.682  22.946  11.557
74879W        W41662  24.065  19.218   2.409
74880W        W41663  42.210   5.116   4.985
74881W        W41664  41.041  34.838   3.112
74882W        W41665  44.023  40.757  11.484
74883W        W41666  10.261  18.060   1.930
74884W        W41667  39.032   7.469   5.167
74885W        W41668  22.544  13.706  13.608
74886W        W41669   7.868  33.854  11.023
74887W        W41670  33.306  22.598   0.301
74888W        W41671  22.161  14.712   4.808
74889W        W41672  32.046  16.660   2.340
74890W        W41673  34.854  31.903  11.550
74891W        W41674  39.453  10.370   1.618
74892W        W41675  14.640  44.193   2.337
74893W        W41676   3.135  39.253  13.352
74894W        W41677  24.911  19.544   0.012
74895W        W41678  23.650  12.880   3.656
74896W        W41679  36.399   8.460   4.349
74897W        W41680  42.940  30.063   1.353
74898W        W41681   8.926  16.315  10.967
74899W        W41682  27.112   2.350   0.813
74900W        W41683  28.122  16.277   3.647
74901W        W41684  39.419  22.767   0.706
74902W        W41685  23.306  19.393  10.591
74903W        W41686  33.141  10.762  11.032
74904W        W41687  37.592   8.931   4.110
74905W        W41688  42.525  19.268   3.905
74906W        W41689  41.561  38.788  14.879
74907W        W41690  16.211  40.926  11.194
74908W        W41691  23.597  29.613  12.569
74909W        W41692  26.311  32.056   4.748
74910W        W41693  19.040   7.466  13.907
74911W        W41694  21.051   9.400  14.330
74912W        W41695  22.735   3.690   0.010
74913W        W41696  20.108   9.013   4.420
74914W        W41697  24.279  25.080   2.209
74915W        W41698  32.160  19.496   2.320
74916W        W41699   2.388  12.326  12.019
74917W        W41700  36.129  10.170  14.096
74918W        W41701  42.725   9.426   2.728
74919W        W41702  11.624  40.244  14.831
74920W        W41703  22.289  15.938  11.460
74921W        W41704  33.375  12.280   2.187
74922W        W41705   9.828  20.996  10.790
74923W        W41706   7.676   8.487   4.318
74924W        W41707  44.239  41.249   0.489
74925W        W41708  17.743  15.793   1.205
74926W        W41709  28.549  10.088  11.077
74927W        W41710   1.922  26.597   0.316
74928W        W41711  26.588  31.639  14.503
74929W        W41712   2.884   2.750  13.408
74930W        W41713   0.463  19.268   4.643
74931W        W41714  27.222  36.030   4.351
74932W        W41715  44.582  12.707   1.801
74933W        W41716  17.035  14.310  14.397
74934W        W41717   2.300   6.850   3.890
74935W        W41718  30.048  15.338   3.664
74936W        W41719   1.813  23.654   2.808
74937W        W41720  29.515  22.413  12.971
74938W        W41721  21.917   2.391   0.064
74939W        W41722  24.742  33.993  12.540
74940W        W41723   2.921  42.248  12.962
74941W        W41724  25.882  26.587  13.830
74942W        W41725  37.026   8.420   3.588
74943W        W41726  27.604  10.659   1.917
74944W        W41727  27.473  17.855   2.345
74945W        W41728  34.066  37.358   1.298
74946W        W41729  34.540   1.377   1.153
74947W        W41730  31.848  40.229   0.535
74948W        W41731   2.455   7.239  10.229
74949W        W41732  42.909  23.651   2.497
74950W        W41733  28.943  15.675  13.472
74951W        W41734   1.059   1.034   4.980
74952W        W41735  11.658  10.372  12.791
74953W        W41736  21.801  11.429  12.908
74954W        W41737  23.911  37.583   4.134
74955W        W41738  31.657  11.545   3.271
74956W        W41739  27.501  20.547  13.483
74957W        W41740  38.017  10.865  13.440
74958W        W41741  29.472  42.585  10.716
74959W        W41742  25.161  33.092   0.396
74960W        W41743   6.189  12.194  10.926
74961W        W41744  26.137  28.860   1.156
74962W        W41745  29.388  34.223  14.832
74963W        W41746  37.178  14.523  11.568
74964W        W41747  43.773   5.999  14.413
74965W        W41748  23.649   6.428   3.698
74966W        W41749  35.976  38.939   1.118
74967W        W41750  36.886  28.079   2.704
74968W        W41751  20.414  39.499   5.094
74969W        W41752  42.129  13.027  12.955
74970W        W41753  10.366  44.595  13.389
74971W        W41754   8.679  44.036  10.985
74972W        W41755  43.773  20.783   1.690
74973W        W41756   2.969  12.377   0.767
74974W        W41757   2.351  18.146  13.399
74975W        W41758   8.095  36.477  11.226
74976W        W41759  27.297   3.730   4.310
74977W        W41760   3.175  18.067   1.259
74978W        W41761  17.473  13.751   2.429
74979W        W41762   6.004   0.775  10.598
74980W        W41763  21.688  31.907   3.594
74981W        W41764  14.052  22.263  12.026
74982W        W41765  37.524  29.543   4.683
74983W        W41766  26.062  23.697  12.889
74984W        W41767   1.509  31.136   2.853
74985W        W41768   1.754  20.174   1.201
74986W        W41769  35.615  19.435   0.715
74987W        W41770  28.116  14.584   2.671
74988W        W41771  29.544   7.063   1.453
74989W        W41772  18.652  15.215  13.081
74990W        W41773  40.450  42.388   3.808
74991W        W41774  42.881  32.856   2.573
74992W        W41775  43.943  36.866   4.773
74993W        W41776  16.013  42.572   0.962
74994W        W41777  11.555   1.912   0.773
74995W        W41778  30.957  31.016  12.050
74996W        W41779  14.050  17.724   2.606
74997W        W41780  19.789   9.377  14.846
74998W        W41781   1.242  13.891  14.652
74999W        W41782  40.224  18.231  11.140
75000W        W41783  26.374  18.748   4.692
75001W        W41784  38.679   3.207  10.263
75002W        W41785  27.242  41.335   3.095
75003W        W41786   7.796  19.123   0.162
75004W        W41787   1.497  41.510  11.087
75005W        W41788  14.568  42.414  12.823
75006W        W41789  10.852  24.449   2.675
75007W        W41790  43.643  22.150  11.027
75008W        W41791  34.492  37.273   3.119
75009W        W41792  21.902  16.649   3.714
75010W        W41793  34.569  34.106   0.949
75011W        W41794  19.112  29.856   3.315
75012W        W41795  30.812  26.948   0.515
75013W        W41796  44.570   9.690   3.667
75014W        W41797  35.702   3.944  11.361
75015W        W41798   1.592  35.550   3.037
75016W        W41799   6.999  10.348   2.298
75017W        W41800  24.713   4.439   2.249
75018W        W41801   6.761  42.153  11.315
75019W        W41802  35.622   5.856   3.827
75020W        W41803  15.182   2.865   3.905
75021W        W41804  23.102  36.756  13.512
75022W        W41805  41.735   4.403  13.981
75023W        W41806   1.256   6.063   1.638
75024W        W41807  41.044  26.758   3.354
75025W        W41808  28.251  23.377   0.015
75026W        W41809   5.193  33.091   3.792
75027W        W41810  36.153   9.206  11.972
75028W        W41811   2.727  21.153   1.102
75029W        W41812  25.744  40.682  13.817
75030W        W41813  28.721  16.685  14.331
75031W        W41814   0.062  11.639   3.693
75032W        W41815  18.240  39.513  14.853
75033W        W41816  31.635  17.539   0.841
75034W        W41817   2.462  10.187  10.742
75035W        W41818  24.367  14.902  11.271
75036W        W41819  24.941  11.235  13.400
75037W        W41820   0.002  34.850  14.769
75038W        W41821  35.482  23.855   4.523
75039W        W41822   5.651  17.098  12.961
75040W        W41823  39.078  16.146  10.301
75041W        W41824  24.467  28.052   0.300
75042W        W41825   8.716   4.815   2.750
75043W        W41826  18.156   2.950  14.402
75044W        W41827  38.869  35.064  10.438
75045W        W41828  35.430  36.532   0.945
75046W        W41829  11.741  14.379  10.264
75047W        W41830   5.683   5.403  14.490
75048W        W41831  32.518  24.701  11.141
75049W        W41832  26.050   3.487   1.493
75050W        W41833   8.830  25.162   2.253
75051W        W41834  26.416  39.944   3.736
75052W        W41835  26.633   3.223  13.473
75053W        W41836  34.890  12.717   3.767
75054W        W41837  26.284   3.912  10.696
75055W        W41838  41.910  25.018  14.737
75056W        W41839  35.564  29.586  13.997
75057W        W41840  26.558  14.040   2.318
75058W        W41841  32.021  28.418  14.739
75059W        W41842  24.705  10.205  13.778
75060W        W41843  31.881  43.462   0.741
75061W        W41844   3.990  44.532  11.142
75062W        W41845  36.961   2.669   2.816
75063W        W41846  42.465   8.299  14.476
75064W        W41847  30.617  24.543  11.454
75065W        W41848  19.584  42.330   2.380
75066W        W41849  39.816  34.908  13.750
75067W        W41850  43.796  29.467   2.326
75068W        W41851  43.885  26.086   2.764
75069W        W41852  44.348  36.269   1.320
75070W        W41853  17.698   6.339  12.025
75071W        W41854  22.358  18.330   2.861
75072W        W41855  28.095  39.811   0.286
75073W        W41856   9.469  16.774  14.318
75074W        W41857  22.233   4.021   2.185
75075W        W41858  11.809   6.963   4.435
75076W        W41859  11.288  19.952  13.292
75077W        W41860   9.401  19.167   4.082
75078W        W41861  32.001  36.474  10.900
75079W        W41862  12.911  31.248  13.501
75080W        W41863   9.014  25.036   1.291
75081W        W41864   8.321  40.956  13.332
75082W        W41865  15.155  31.014  13.415
75083W        W41866  25.195  28.960   1.419
75084W        W41867  27.568  30.942   3.099
75085W        W41868  11.026  18.810  11.272
75086W        W41869  16.274  42.036   4.266
75087W        W41870  31.102   7.159   3.285
75088W        W41871  28.719  24.148   0.213
75089W        W41872   1.263   5.342   3.986
75090W        W41873  39.424   7.841  12.490
75091W        W41874   5.974  13.615  12.083
75092W        W41875  41.756  16.338   0.762
75093W        W41876  12.368  36.818  12.018
75094W        W41877  35.007  35.476  13.874
75095W        W41878  44.754  29.167  13.615
75096W        W41879  15.833  24.684   3.889
75097W        W41880  41.388  16.099   0.464
75098W        W41881  36.505  28.656   0.036
75099W        W41882  40.273   0.123  11.064
75100W        W41883  42.476   2.488   0.379
75101W        W41884   3.812  38.053   1.977
75102W        W41885  36.487  33.794  12.067
75103W        W41886  43.401  30.761  12.115
75104W        W41887  19.269  31.952  12.802
75105W        W41888  38.371  41.084  12.075
75106W        W41889   8.793  40.972   1.557
75107W        W41890  37.372  22.804  14.568
75108W        W41891  22.662   7.926   1.712
75109W        W41892  16.192  24.601   1.962
75110W        W41893  14.318  29.878   1.406
75111W        W41894  19.218  40.929  12.523
75112W        W41895  25.943  25.254  12.654
75113W        W41896  36.601  36.635   2.333
75114W        W41897  36.716  31.473  12.560
75115W        W41898   0.793   1.366  13.303
75116W        W41899  44.724  36.756   3.770
75117W        W41900  13.354   4.387   0.323
75118W        W41901  37.974   1.699   4.529
75119W        W41902   1.786  43.324  10.769
75120W        W41903   5.307  12.684   5.221
75121W        W41904  39.268   0.764  11.960
75122W        W41905  23.075  12.316   4.223
75123W        W41906   3.217  23.728  13.382
75124W        W41907  16.873  36.160   1.816
75125W        W41908  22.519  32.128   1.014
75126W        W41909  41.275   8.416  12.281
75127W        W41910  36.423  39.309  13.551
75128W        W41911  23.496  43.314   1.302
75129W        W41912  14.869  42.436  13.358
75130W        W41913  34.665   3.991  13.884
75131W        W41914  26.126  33.741   4.115
75132W        W41915  32.387  23.742  12.158
75133W        W41916   3.957  20.132  13.253
75134W        W41917   1.290  33.847   4.683
75135W        W41918  44.941  27.111   2.728
75136W        W41919   3.759  20.700   3.722
75137W        W41920   9.775   1.758   4.705
75138W        W41921   5.740  34.549   3.201
75139W        W41922  41.402  11.929  11.534
75140W        W41923   9.775   7.603  12.701
75141W        W41924   4.684  15.356  12.935
75142W        W41925  29.557  40.199   2.231
75143W        W41926   2.867  28.385   3.100
75144W        W41927   6.352   6.329   4.707
75145W        W41928  12.265  23.862  12.870
75146W        W41929  17.786  24.299   3.175
75147W        W41930  20.044  14.242   1.148
75148W        W41931  27.104  39.912  12.992
75149W        W41932  41.434  21.240  11.627
75150W        W41933  42.780  12.655  10.326
75151W        W41934  11.515  13.212   3.512
75152W        W41935  14.608   3.827   1.174
75153W        W41936  16.930  15.653  10.276
75154W        W41937  12.095  17.577  10.805
75155W        W41938   9.782  13.049  13.313
75156W        W41939  10.567  20.862  10.650
75157W        W41940   3.451  36.521   2.871
75158W        W41941  21.181  42.435   3.382
75159W        W41942  28.869   9.160  11.186
75160W        W41943   5.339  27.249  12.883
75161W        W41944   2.108  34.773   0.521
75162W        W41945   4.629  35.615  10.164
75163W        W41946  23.785   8.388  12.983
75164W        W41947  42.810  18.981   4.265
75165W        W41948  17.350  27.091  12.882
75166W        W41949   3.362  27.921   0.262
75167W        W41950  22.703  17.275   0.835
75168W        W41951  26.979  14.156  11.883
75169W        W41952  33.814  11.732  10.499
75170W        W41953  29.304  32.966   4.413
75171W        W41954   4.064  10.969   0.280
75172W        W41955  25.658  10.339  12.998
75173W        W41956  42.376  31.112  13.811
75174W        W41957  36.889  10.856  12.529
75175W        W41958   5.451   9.966  11.391
75176W        W41959  41.812  30.426  11.589
75177W        W41960  42.291  11.315   1.202
75178W        W41961  36.029  36.267  14.971
75179W        W41962  23.094  19.159  14.003
75180W        W41963  13.364  39.500   0.473
75181W        W41964  12.003  17.293  11.241
75182W        W41965  10.037  24.350   5.124
75183W        W41966  38.110   9.159  14.018
75184W        W41967  42.250  40.277   1.906
75185W        W41968  28.192   1.216  13.869
75186W        W41969  11.884  31.119   1.314
75187W        W41970  12.722   0.025  13.602
75188W        W41971   3.741  16.691   3.630
75189W        W41972   7.660  37.425  11.228
75190W        W41973  37.084  30.997  14.361
75191W        W41974  21.689   9.872   2.354
75192W        W41975  26.455  20.682  12.536
75193W        W41976  43.424  34.232   3.643
75194W        W41977  38.076  20.644   2.778
75195W        W41978  34.591  15.588   0.492
75196W        W41979  23.445  39.374  10.659
75197W        W41980  25.458  15.528  13.980
75198W        W41981  36.130  20.626   0.504
75199W        W41982  22.574  18.746   1.388
75200W        W41983  34.929  21.164  13.549
75201W        W41984  17.686  22.933  14.779
75202W        W41985  31.655   2.930  13.425
75203W        W41986   2.859  38.201  12.323
75204W        W41987  30.140  21.562   4.663
75205W        W41988  33.761  24.593   0.603
75206W        W41989  44.933  23.725  14.067
75207W        W41990  22.576  22.904  13.952
75208W        W41991  18.830  30.651   1.344
75209W        W41992   4.383  27.153  12.616
75210W        W41993  41.442  37.021   2.208
75211W        W41994   5.875  14.367  14.358
75212W        W41995  44.521  14.884   1.412
75213W        W41996  18.822  44.497   3.664
75214W        W41997  39.403  11.538   0.761
75215W        W41998  29.956  11.212   3.403
75216W        W41999   2.388  34.515  11.660
75217W        W42000  42.540  28.462  12.612
75218W        W42001  33.980   8.909  10.416
75219W        W42002  14.549  35.006  12.847
75220W        W42003  40.061  29.547   3.332
75221W        W42004   2.795  41.428  10.703
75222W        W42005  42.015  22.295  11.545
75223W        W42006  12.418  31.127  13.491
75224W        W42007  22.535  37.102   0.971
75225W        W42008  14.622  42.867  10.957
75226W        W42009  31.859  41.997   0.322
75227W        W42010  30.060   4.927  12.376
75228W        W42011  15.486   3.817   0.255
75229W        W42012  26.755  24.279  10.683
75230W        W42013  39.538  18.880  11.085
75231W        W42014   7.161  21.981   3.198
75232W        W42015  17.387   0.215  13.817
75233W        W42016  32.085  18.459   1.473
75234W        W42017  20.713  36.374   3.691
75235W        W42018  20.569  24.191   2.797
75236W        W42019  30.627   3.838   0.026
75237W        W42020  44.966  33.245  12.994
75238W        W42021  44.789   0.777  11.203
75239W        W42022  20.518  29.889  10.607
75240W        W42023  39.792  16.158   3.241
75241W        W42024  41.958  14.138   0.473
75242W        W42025  10.630  40.746   1.185
75243W        W42026  24.993  24.584  11.848
75244W        W42027  11.621  34.209  14.053
75245W        W42028  17.592   1.724   3.461
75246W        W42029  37.073  44.422  13.887
75247W        W42030  36.162  41.045  12.902
75248W        W42031  16.780  18.315  13.897
75249W        W42032  17.145   9.676  14.949
75250W        W42033  12.040  18.217   1.115
75251W        W42034  39.816  21.534   0.004
75252W        W42035  40.816  32.850  11.117
75253W        W42036  16.138  42.888   0.024
75254W        W42037  13.718  36.041  11.208
75255W        W42038  18.674  13.336  10.109
75256W        W42039   1.908   4.354  14.508
75257W        W42040  41.723   1.274   2.772
75258W        W42041  42.245   2.730   0.776
75259W        W42042  14.623  44.747   3.271
75260W        W42043   4.242   0.992  11.845
75261W        W42044  19.545   9.234  14.401
75262W        W42045  11.166  34.912  10.433
75263W        W42046  31.120  13.322  13.246
75264W        W42047  24.130   7.397   4.987
75265W        W42048   5.106  37.367  11.541
75266W        W42049   2.267  11.845   4.127
75267W        W42050   3.528  19.227   2.830
75268W        W42051  14.510  40.995  11.581
75269W        W42052   4.693  15.856   0.762
75270W        W42053  41.196  41.069  11.984
75271W        W42054  33.606  36.737  13.214
75272W        W42055  13.802  29.661   3.833
75273W        W42056   9.164   7.272   4.421
75274W        W42057  19.729  43.425   3.716
75275W        W42058   5.241   0.829  13.688
75276W        W42059  13.355  39.792   1.815
75277W        W42060  26.408  44.626   4.766
75278W        W42061  22.349  14.081  11.861
75279W        W42062   5.868   1.581  12.243
75280W        W42063   8.309   8.421  12.332
75281W        W42064  10.386  27.176   3.319
75282W        W42065  30.908  39.535   3.695
75283W        W42066   7.243  23.984  12.899
75284W        W42067  12.095   5.372  14.741
75285W        W42068  11.604  23.037  11.042
75286W        W42069   0.285  33.922  10.796
75287W        W42070  41.497  40.772  14.762
75288W        W42071  13.037  20.725  11.501
75289W        W42072  42.217  27.275  14.263
75290W        W42073  19.092   5.315   0.855
75291W        W42074  40.280  18.568   1.878
75292W        W42075  35.021  25.019  12.563
75293W        W42076  31.020  28.390   0.938
75294W        W42077  12.388  17.464  11.533
75295W        W42078  40.900   9.385   3.615
75296W        W42079  10.117  44.239   4.043
75297W        W42080  42.553  30.670  14.674
75298W        W42081  10.624  17.633  14.016
75299W        W42082  39.536  33.453   1.037
75300W        W42083  33.447   0.947  11.169
75301W        W42084  17.709  24.449   4.033
75302W        W42085  40.381  26.014  12.075
75303W        W42086   7.625  13.690  14.877
75304W        W42087  11.096  22.430  14.246
75305W        W42088  11.271  31.710   1.665
75306W        W42089  44.089   4.909   4.251
75307W        W42090  15.302  32.451  11.396
75308W        W42091   2.323  10.986  12.517
75309W        W42092  10.086  10.668   3.081
75310W        W42093  23.445   6.013  14.699
75311W        W42094   8.899  15.757  13.056
75312W        W42095  42.990  27.812   0.005
75313W        W42096   0.959  15.768   4.943
75314W        W42097  26.508   8.627   0.109
75315W        W42098   1.344  10.815  11.365
75316W        W42099  36.312  36.821   4.595
75317W        W42100  24.763   8.668   1.995
75318W        W42101  29.442  17.695  13.524
75319W        W42102  36.243  16.252   0.480
75320W        W42103  28.042  32.965   5.266
75321W        W42104  30.830  15.916   3.711
75322W        W42105  23.883   2.019  11.572
75323W        W42106  31.088  39.904  12.498
75324W        W42107  41.479  11.291  14.307
75325W        W42108  11.747   1.603   4.447
75326W        W42109   2.436  43.004   3.388
75327W        W42110  43.940   7.962   3.875
75328W        W42111  22.117  39.272   0.790
75329W        W42112  25.992  38.929  12.630
75330W        W42113   8.538  39.571   2.527
75331W        W42114   4.924   7.693  13.869
75332W        W42115  18.022   1.271  13.881
75333W        W42116  35.418  30.642  12.085
75334W        W42117  33.352  35.389   0.232
75335W        W42118  24.567  28.494  11.088
75336W        W42119  25.046  31.864   2.280
75337W        W42120  31.385  24.944  11.672
75338W        W42121  15.351  25.794   1.325
75339W        W42122   6.663  34.920   4.153
75340W        W42123  15.225  44.862   1.929
75341W        W42124  37.382  35.071  11.564
75342W        W42125  23.493  21.256  13.126
75343W        W42126  41.884  28.218  14.465
75344W        W42127  24.332  31.711   4.061
75345W        W42128  32.459   2.283   1.559
75346W        W42129  14.440  14.279   2.694
75347W        W42130  42.422  35.838   1.104
75348W        W42131  28.171  17.559   1.270
75349W        W42132  18.887  20.784   1.196
75350W        W42133  14.012  43.879   1.801
75351W        W42134  23.847  37.283   2.758
75352W        W42135  13.098  18.642   1.367
75353W        W42136   5.942  23.935  11.115
75354W        W42137   6.335   4.628   1.858
75355W        W42138  15.727   3.424  13.489
75356W        W42139   7.840  34.261  12.060
75357W        W42140   4.259  11.790  14.752
75358W        W42141  19.396  13.265  11.861
75359W        W42142  27.725   4.680   0.501
75360W        W42143  36.993  12.204  12.626
75361W        W42144  15.221  34.876  14.410
75362W        W42145  32.061   3.018   1.442
75363W        W42146  37.876  30.233  11.093
75364W        W42147  29.181   7.949  14.268
75365W        W42148  21.124  20.629  12.057
75366W        W42149  29.885  28.344   1.381
75367W        W42150  25.006  34.029  14.056
75368W        W42151  23.668  11.091   1.331
75369W        W42152  10.061  33.159   1.478
75370W        W42153  16.104  43.591   0.753
75371W        W42154  33.480  29.874   4.556
75372W        W42155  10.726  14.289   0.806
75373W        W42156   1.341  43.432   4.474
75374W        W42157  42.378  17.822   1.733
75375W        W42158  26.141   5.369  13.740
75376W        W42159  25.882   7.821  11.185
75377W        W42160  33.867  41.931   1.915
75378W        W42161  43.288   9.641  12.010
75379W        W42162  17.101   7.194   2.865
75380W        W42163  34.338  18.017   3.740
75381W        W42164   5.460  36.905  12.509
75382W        W42165  11.386  22.394   0.248
75383W        W42166  36.846  33.628  12.383
75384W        W42167  17.749   3.944  10.606
75385W        W42168  19.110   4.724   3.125
75386W        W42169  30.050  27.546   3.301
75387W        W42170  18.158  27.311  11.171
75388W        W42171   8.310  30.287   1.662
75389W        W42172  41.744  17.509   2.736
75390W        W42173  22.087  44.511  14.370
75391W        W42174  26.288  27.042   1.358
75392W        W42175  29.027  29.691  11.786
75393W        W42176  23.075  35.568   2.584
75394W        W42177   3.252   2.226   2.766
75395W        W42178   4.443  29.513  13.148
75396W        W42179  28.224  41.705  14.795
75397W        W42180  30.125  34.192  14.228
75398W        W42181   1.552   7.322   1.961
75399W        W42182  16.819  17.078  13.400
75400W        W42183  19.812  35.492  13.476
75401W        W42184  44.331  33.126   3.828
75402W        W42185  40.945   2.375   4.370
75403W        W42186  15.882  31.826  10.264
75404W        W42187   3.241  19.815   4.044
75405W        W42188  13.728  13.803  10.451
75406W        W42189  17.285  35.057  12.997
75407W        W42190  15.270  38.806  11.640
75408W        W42191  28.395   1.157   4.118
75409W        W42192  15.813  28.071  14.281
75410W        W42193   9.179  14.780   4.174
75411W        W42194  22.644  24.040  14.746
75412W        W42195  24.180  24.464   3.294
75413W        W42196  26.002  17.204   2.234
75414W        W42197  26.690  42.390   1.150
75415W        W42198  34.239  37.485   1.923
75416W        W42199  25.249  39.555  12.074
75417W        W42200  15.517  10.223   3.129
75418W        W42201  34.369  24.123   0.872
75419W        W42202  32.535   5.233  12.081
75420W        W42203   2.226   6.261  14.390
75421W        W42204  17.510  20.611  13.841
75422W        W42205  20.776  39.835   0.340
75423W        W42206  17.158  39.516   3.633
75424W        W42207  11.752   2.045  13.762
75425W        W42208  37.198  31.630  12.467
75426W        W42209  10.261  28.911   0.260
75427W        W42210   7.146  18.295  11.069
75428W        W42211  23.271  23.496   4.605
75429W        W42212  18.579  14.877   2.330
75430W        W42213  43.927  13.424  13.047
75431W        W42214   6.415  14.304   1.903
75432W        W42215   4.451   7.356   0.266
75433W        W42216   8.796   1.082   1.717
75434W        W42217  17.337  13.748  14.383
75435W        W42218  24.643  12.195  10.917
75436W        W42219  17.727  32.080   0.959
75437W        W42220   5.752  34.810  14.001
75438W        W42221  34.270  30.426  13.091
75439W        W42222  41.747  41.952  11.949
75440W        W42223  28.161  13.179   3.157
75441W        W42224  18.027  35.488  13.117
75442W        W42225  37.425  18.619  10.592
75443W        W42226  31.125  32.922  11.182
75444W        W42227  36.020  33.871   0.276
75445W        W42228  20.522   0.764   1.421
75446W        W42229  19.546  10.625  10.512
75447W        W42230  41.767   9.523   5.029
75448W        W42231  30.605  28.187   3.228
75449W        W42232  17.842   3.573  14.500
75450W        W42233  17.321  35.140   4.202
75451W        W42234  18.631  23.503  10.373
75452W        W42235  37.466  34.001   2.739
75453W        W42236   2.220   0.391  11.688
75454W        W42237   9.250  36.048   0.478
75455W        W42238  27.675  30.695   1.590
75456W        W42239  39.006  36.476  13.609
75457W        W42240  24.206   7.151  11.632
75458W        W42241  42.820  34.005   4.047
75459W        W42242  30.415   1.971   2.648
75460W        W42243  38.486  41.788  11.191
75461W        W42244  30.084  31.172  13.488
75462W        W42245   3.509   5.899   4.295
75463W        W42246   3.169  37.872  12.025
75464W        W42247   4.902  22.496   4.451
75465W        W42248  23.803  14.733  14.298
75466W        W42249  27.364  28.002   3.266
75467W        W42250  27.127  21.634   3.703
75468W        W42251   6.488  42.314  14.209
75469W        W42252   1.777  22.750  13.443
75470W        W42253   7.456  28.914  12.492
75471W        W42254  19.058  10.816  10.651
75472W        W42255  11.785  29.465   1.459
75473W        W42256  24.356  27.153  12.269
75474W        W42257  41.612  17.391  13.473
75475W        W42258   8.842  16.375  12.248
75476W        W42259  24.458   6.919   2.788
75477W        W42260  20.181  39.999   0.755
75478W        W42261  22.755  40.840  10.634
75479W        W42262   2.891  34.145  11.567
75480W        W42263   4.223   9.115   2.628
75481W        W42264  26.193   0.245   0.184
75482W        W42265   7.655   1.246  12.029
75483W        W42266  22.759  16.830   4.190
75484W        W42267  38.759  10.219   4.572
75485W        W42268  35.806  19.075   2.513
75486W        W42269  38.541  34.458  10.707
75487W        W42270  29.378  33.444   3.377
75488W        W42271  41.901  25.936  10.639
75489W        W42272  15.489   4.251   3.176
75490W        W42273  15.829  39.910  12.263
75491W        W42274  12.314  23.468  11.107
75492W        W42275   8.294  29.502  11.102
75493W        W42276  23.927   6.215  12.108
75494W        W42277  22.946  32.541  13.865
75495W        W42278  10.640   5.857   5.199
75496W        W42279  37.875  35.565   3.236
75497W        W42280  17.017  34.485   3.679
75498W        W42281  29.088  32.937   2.841
75499W        W42282  43.374  34.967  13.994
75500W        W42283   5.761  23.300   3.629
75501W        W42284   1.418  38.927  14.025
75502W        W42285  25.175   5.925   4.413
75503W        W42286  27.593  26.196   2.734
75504W        W42287  44.336  11.332   2.681
75505W        W42288  25.123  32.233   4.597
75506W        W42289   8.375  14.793  11.503
75507W        W42290  10.384  22.191   3.251
75508W        W42291  25.104  20.137   1.895
75509W        W42292  42.404  26.616  13.368
75510W        W42293   2.292  22.835   4.593
75511W        W42294   5.465  25.595   0.453
75512W        W42295  27.704  19.165  12.586
75513W        W42296  19.477  18.734  11.878
75514W        W42297  15.183  27.640   0.400
75515W        W42298  38.854  10.776  14.082
75516W        W42299  16.755  44.455   2.592
75517W        W42300   2.509  39.534  10.949
75518W        W42301  38.941  21.225  11.953
75519W        W42302  11.801  43.994   4.130
75520W        W42303   9.102  27.490   2.663
75521W        W42304  16.089  19.380   4.787
75522W        W42305   5.098  10.812  10.739
75523W        W42306   8.541  25.752  13.848
75524W        W42307  12.540  21.042   4.785
75525W        W42308  17.677  31.571  10.391
75526W        W42309  38.016  43.882  12.896
75527W        W42310  16.302  27.148  13.012
75528W        W42311  24.975   1.258  12.192
75529W        W42312  11.103  13.596   1.214
75530W        W42313  36.268  36.482  12.052
75531W        W42314  25.742  19.178   1.216
75532W        W42315  19.198  14.699  13.536
75533W        W42316  23.767  41.367  13.946
75534W        W42317  41.815  25.664   4.579
75535W        W42318  30.838  30.343  14.963
75536W        W42319  12.833  28.926  13.059
75537W        W42320  23.023   4.392  13.991
75538W        W42321   8.352  27.688   4.069
75539W        W42322  36.381  39.350  12.390
75540W        W42323   9.355  24.104  13.441
75541W        W42324  17.831   4.780  14.917
75542W        W42325  26.922  21.630   4.180
75543W        W42326  12.631  19.026  13.761
75544W        W42327  34.426  32.872   3.588
75545W        W42328   6.282  40.368  13.110
75546W        W42329  27.017   3.994  12.707
75547W        W42330  27.731  33.159   4.123
75548W        W42331  12.163   2.770  13.010
75549W        W42332  21.465  27.209   1.492
75550W        W42333  42.790  29.423   2.259
75551W        W42334   5.522   9.709   2.802
75552W        W42335  24.979  33.170  14.015
75553W        W42336  12.640  29.397   3.310
75554W        W42337   9.717  34.046   2.460
75555W        W42338   9.407   4.915  10.691
75556W        W42339   0.457  35.866  11.029
75557W        W42340   0.422  23.601   0.213
75558W        W42341  16.684  31.107  11.513
75559W        W42342  37.326   7.478  10.663
75560W        W42343  39.565  20.335   2.702
75561W        W42344  13.209  34.857  13.063
75562W        W42345  28.687  41.857   3.991
75563W        W42346  42.534  10.993  10.762
75564W        W42347   6.725  21.025  10.749
75565W        W42348  39.272  42.564   2.330
75566W        W42349  22.775  17.727  14.891
75567W        W42350  36.904  38.797  11.901
75568W        W42351  40.525  41.448   1.900
75569W        W42352  20.112   2.241  14.391
75570W        W42353  30.312  38.638   3.675
75571W        W42354  26.661  31.092  12.882
75572W        W42355  32.733  19.620   0.004
75573W        W42356   0.449  12.411  10.635
75574W        W42357  36.537  24.955  11.546
75575W        W42358  17.637  14.579   2.139
75576W        W42359  19.154  30.427   0.247
75577W        W42360   0.806  38.815  12.977
75578W        W42361   4.981  35.937   9.834
75579W        W42362   0.922  40.247  14.857
75580W        W42363   3.437  17.605   3.744
75581W        W42364   2.980   2.017  13.738
75582W        W42365  16.195  30.546  14.715
75583W        W42366  22.875  37.447   1.776
75584W        W42367  23.334   7.732   3.765
75585W        W42368  32.908  25.069   2.589
75586W        W42369  13.642  18.978   2.579
75587W        W42370  16.672  23.295  14.861
75588W        W42371  42.535  39.311  14.510
75589W        W42372   3.849  20.619  13.914
75590W        W42373  18.709  42.555   0.471
75591W        W42374  27.834  38.354   2.991
75592W        W42375  28.356   1.820  12.383
75593W        W42376  13.287  25.667  11.996
75594W        W42377  37.719  10.622   0.735
75595W        W42378  16.768  36.145  12.899
75596W        W42379  19.013  40.443  12.576
75597W        W42380   9.838  10.864   0.351
75598W        W42381  14.745  16.205  11.375
75599W        W42382  10.921  19.063  14.940
75600W        W42383   7.381  35.116   3.077
75601W        W42384  39.892  41.756   4.173
75602W        W42385  44.874  20.708  10.596
75603W        W42386  34.101  33.139  10.789
75604W        W42387  32.371  32.638   1.331
75605W        W42388  29.097  26.631  12.487
75606W        W42389   4.888  26.076  13.987
75607W        W42390  23.762   1.241  14.791
75608W        W42391  36.621   0.373  11.110
75609W        W42392  14.231  33.195   1.887
75610W        W42393  11.256  26.033   4.304
75611W        W42394   6.188  38.601   0.281
75612W        W42395  38.525   7.230   2.211
75613W        W42396  40.600  33.616  11.910
75614W        W42397  31.498  15.894  13.941
75615W        W42398   8.897  34.315   1.759
75616W        W42399   4.405  33.784  10.730
75617W        W42400  20.740   4.946  10.284
75618W        W42401  20.737  22.205   1.430
75619W        W42402  13.360  42.779  13.323
75620W        W42403  39.064  36.139  11.061
75621W        W42404  42.470  30.414   0.724
75622W        W42405  19.117  34.418   1.303
75623W        W42406  34.092  28.249  12.545
75624W        W42407   6.568  35.913  12.865
75625W        W42408  26.576  19.631   3.353
75626W        W42409  27.030   7.653   4.891
75627W        W42410   4.751  16.417   2.579
75628W        W42411  21.115  43.982   3.189
75629W        W42412  35.308  29.169  12.125
75630W        W42413  11.647  33.612  14.937
75631W        W42414   4.724  10.299   0.314
75632W        W42415  18.579  35.585  12.102
75633W        W42416  16.083  28.240  12.486
75634W        W42417  22.612  41.248   4.506
75635W        W42418  34.563  33.470  12.932
75636W        W42419   3.210   1.778  13.322
75637W        W42420  42.942  21.727  11.626
75638W        W42421  21.562  14.301  11.156
75639W        W42422   8.347  31.527   1.768
75640W        W42423  11.348  39.094   2.452
75641W        W42424  32.910  15.475   4.049
75642W        W42425  18.111  19.421  13.506
75643W        W42426   0.733  20.530   1.730
75644W        W42427  10.803  26.648  12.155
75645W        W42428  27.030  32.440  12.060
75646W        W42429  19.575  11.921  10.317
75647W        W42430   7.253  16.079   0.941
75648W        W42431  37.986  35.866  10.679
75649W        W42432  20.764  38.547  11.069
75650W        W42433  20.880  15.754   5.270
75651W        W42434  22.945   2.865   2.758
75652W        W42435   9.134   0.684   1.313
75653W        W42436  19.282  10.733   4.113
75654W        W42437  27.923   3.248   2.267
75655W        W42438  40.014  23.359   4.661
75656W        W42439  34.337  22.632  11.154
75657W        W42440  33.531   8.745   3.316
75658W        W42441   7.749  18.185  14.946
75659W        W42442   7.756  11.353  12.679
75660W        W42443  12.802  17.330  14.045
75661W        W42444  16.360   4.813  14.935
75662W        W42445   3.975  31.541   1.466
75663W        W42446  19.521   7.417  12.053
75664W        W42447  25.173  17.133   0.088
75665W        W42448  14.767   9.590  11.447
75666W        W42449  30.435   4.792  14.424
75667W        W42450  21.762   3.200   2.240
75668W        W42451  18.155  40.049  12.144
75669W        W42452  36.287   4.301  13.875
75670W        W42453  15.370  18.561  10.361
75671W        W42454  21.765  20.692   2.822
75672W        W42455   7.972  40.973  12.944
75673W        W42456  43.369  16.756   1.560
75674W        W42457  40.626  20.008   4.967
75675W        W42458  33.062  41.690   1.351
75676W        W42459  36.028  33.892  12.281
75677W        W42460  30.231  15.269   0.458
75678W        W42461  29.654  41.029  14.312
75679W        W42462   7.701  15.037  10.685
75680W        W42463  43.969  13.593   3.878
75681W        W42464  35.026  17.822   1.890
75682W        W42465  35.060   0.696   0.674
75683W        W42466  34.361  38.540   0.262
75684W        W42467  27.681  26.093   0.012
75685W        W42468  20.066  15.753  14.949
75686W        W42469  25.146  10.740   4.841
75687W        W42470  22.111  41.983   4.772
75688W        W42471  42.569   6.079   1.368
75689W        W42472  31.332  31.182   2.567
75690W        W42473  17.238  25.518   4.808
75691W        W42474  33.185  36.114  14.798
75692W        W42475  34.166  34.516   3.632
75693W        W42476  12.810  13.083   0.389
75694W        W42477  39.499  42.506  10.617
75695W        W42478   9.230  28.025   3.912
75696W        W42479  17.598   5.936  10.585
75697W        W42480  41.083  29.925   1.288
75698W        W42481   6.106  30.918   3.306
75699W        W42482  21.541   7.243  14.576
75700W        W42483  31.351  18.649   4.541
75701W        W42484  12.481  14.096  13.224
75702W        W42485  42.823  27.336  14.998
75703W        W42486  13.625   7.762   0.921
75704W        W42487  38.903  24.975   0.426
75705W        W42488  34.147   6.845   2.813
75706W        W42489  22.338  19.586  14.885
75707W        W42490  22.981   4.744  10.382
75708W        W42491   2.146  44.936   0.265
75709W        W42492  33.786  19.029   1.665
75710W        W42493  40.865  24.415   4.207
75711W        W42494   9.891  36.385   4.627
75712W        W42495  29.464   9.038  14.046
75713W        W42496  39.259  28.210   3.279
75714W        W42497  20.911  26.435  12.044
75715W        W42498   8.203  23.957   5.009
75716W        W42499  23.846   9.613   2.493
75717W        W42500  42.016  27.847  13.519
75718W        W42501  26.149  35.937   1.352
75719W        W42502   1.798  31.632   3.087
75720W        W42503   0.038   6.767   1.376
75721W        W42504  30.359  30.647  12.044
75722W        W42505  32.071  26.280  13.912
75723W        W42506   5.760  13.640  11.613
75724W        W42507  35.498  15.933   2.503
75725W        W42508  16.829  40.131   2.297
75726W        W42509   8.534  24.576   1.790
75727W        W42510  11.248  42.827  11.211
75728W        W42511   9.272   0.866  11.270
75729W        W42512  34.468  13.258  14.955
75730W        W42513   1.338  39.387  13.425
75731W        W42514  22.212   3.990  10.336
75732W        W42515   4.757  13.752   0.671
75733W        W42516   5.788  24.688   3.905
75734W        W42517  18.455  24.272  11.573
75735W        W42518  19.598  35.350  11.402
75736W        W42519  30.000  25.045  12.534
75737W        W42520   6.940  38.887   0.169
75738W        W42521  20.621  35.590  13.018
75739W        W42522  13.274   3.825   4.126
75740W        W42523  35.890   7.856  11.903
75741W        W42524  23.057  17.334   1.236
75742W        W42525  39.432  16.544   3.328
75743W        W42526   0.127  25.956   2.025
75744W        W42527   6.402  34.834  12.521
75745W        W42528  14.127  43.688   2.823
75746W        W42529   8.293  28.929  11.227
75747W        W42530  10.206   5.519   3.308
75748W        W42531  36.474   8.909   3.597
75749W        W42532  38.504  15.358  10.497
75750W        W42533   2.448   1.984  13.815
75751W        W42534   4.746   6.738  14.928
75752W        W42535  44.616  28.258  11.158
75753W        W42536  44.356  13.867   3.654
75754W        W42537   2.689  24.719   3.938
75755W        W42538  34.638  19.498  10.946
75756W        W42539  33.792   4.482  13.009
75757W        W42540  30.567  27.178   3.368
75758W        W42541  43.910  10.647  10.488
75759W        W42542  18.170  25.794  10.771
75760W        W42543  29.618  38.374  13.289
75761W        W42544  16.857  11.044   4.029
75762W        W42545   4.198  36.485  12.322
75763W        W42546  26.515   3.266  14.379
75764W        W42547  29.388  27.447   2.628
75765W        W42548  42.303   8.455  12.576
75766W        W42549  42.468  42.674   9.967
75767W        W42550  19.327  16.714  12.105
75768W        W42551   9.771   4.209  10.976
75769W        W42552  23.427  20.265  12.882
75770W        W42553  18.744   9.917  13.922
75771W        W42554   6.254  34.534   1.997
75772W        W42555  28.802  14.177   0.112
75773W        W42556  31.431  39.534  12.916
75774W        W42557  34.368  28.295  12.121
75775W        W42558  24.229  18.214  10.660
75776W        W42559  38.261   8.260  10.780
75777W        W42560   3.186  37.093  13.348
75778W        W42561  40.590  26.523   4.222
75779W        W42562  34.812   3.910   0.338
75780W        W42563  29.404   4.810  11.601
75781W        W42564  31.211   4.961   2.304
75782W        W42565   0.244  20.081   4.436
75783W        W42566  42.856  22.642  13.058
75784W        W42567  24.102  17.866  11.509
75785W        W42568   5.356  11.736  11.167
75786W        W42569  17.845  28.018   1.853
75787W        W42570  23.731   5.310   1.463
75788W        W42571  26.303   6.252   0.700
75789W        W42572  26.222   2.259   4.585
75790W        W42573  44.377  18.329  13.556
75791W        W42574  11.860  28.492   4.601
75792W        W42575  21.224  15.830  12.963
75793W        W42576  37.954  23.300   1.805
75794W        W42577  17.749  16.687   4.588
75795W        W42578   4.947  24.531   1.912
75796W        W42579  11.933  14.343  11.038
75797W        W42580  16.233  34.993  12.877
75798W        W42581  12.970  37.350  14.436
75799W        W42582  35.233  33.544   2.974
75800W        W42583   3.779  33.503   1.133
75801W        W42584  38.383  33.056  12.915
75802W        W42585  35.886   1.021  13.935
75803W        W42586   5.471  21.404   2.549
75804W        W42587  44.673  24.583   3.990
75805W        W42588  21.690  44.721   2.242
75806W        W42589  30.653  25.445  12.060
75807W        W42590   2.248   5.956  13.039
75808W        W42591   2.484  28.905  12.188
75809W        W42592  17.021  21.289   3.022
75810W        W42593  29.552  44.476  11.172
75811W        W42594  28.031  13.771  11.467
75812W        W42595  16.199  25.091  12.337
75813W        W42596  44.405  28.441   0.435
75814W        W42597   1.718   9.822  11.194
75815W        W42598   0.840  33.575  13.537
75816W        W42599  27.610  29.256  11.906
75817W        W42600   7.250   0.340   4.134
75818W        W42601  11.621  40.075   2.731
75819W        W42602  38.928   1.358  12.951
75820W        W42603  32.325  21.042   2.637
75821W        W42604  23.666  14.596  13.806
75822W        W42605   1.725   0.849  12.962
75823W        W42606  12.640   7.451  12.487
75824W        W42607  30.927   6.391  11.746
75825W        W42608  21.601   6.106   2.781
75826W        W42609  42.578  16.904  10.681
75827W        W42610  11.755  16.377   3.725
75828W        W42611  38.600  11.272  13.968
75829W        W42612   8.653  32.469  10.526
75830W        W42613  30.116   0.471   2.771
75831W        W42614  10.437  32.121  14.024
75832W        W42615  29.862  30.425   1.627
75833W        W42616  19.859   9.857  13.531
75834W        W42617  39.152   1.917   3.279
75835W        W42618  33.792  37.003  14.442
75836W        W42619  39.686  44.952   1.240
75837W        W42620  13.885   1.274  11.986
75838W        W42621   0.180   6.915  14.111
75839W        W42622  13.090  19.056   3.230
75840W        W42623  41.229   5.929   9.809
75841W        W42624  11.103   8.444   1.880
75842W        W42625  19.552  26.593  13.506
75843W        W42626  26.512   1.429   4.221
75844W        W42627  30.003  11.087  13.908
75845W        W42628  42.764  11.436   0.380
75846W        W42629  25.450  44.087  10.249
75847W        W42630  13.686  36.069   9.850
75848W        W42631  26.310  40.332  12.555
75849W        W42632  40.258  28.473   0.144
75850W        W42633   2.450  29.447  14.637
75851W        W42634   5.484  38.822  13.634
75852W        W42635  27.515  11.332  13.452
75853W        W42636  10.970  27.166  10.914
75854W        W42637  21.970   9.838   4.140
75855W        W42638  11.406   3.123   2.632
75856W        W42639  26.781  43.545   1.818
75857W        W42640  32.570  24.176   0.316
75858W        W42641  11.382  24.087  12.418
75859W        W42642   4.267  20.672   3.608
75860W        W42643  17.830  24.967   1.850
75861W        W42644  15.847  15.645   1.681
75862W        W42645  20.102   2.550   0.354
75863W        W42646  19.755  39.838   3.317
75864W        W42647  24.638   8.320  10.396
75865W        W42648   3.285  21.637  10.573
75866W        W42649  27.988  11.021   3.793
75867W        W42650  14.123   1.077  11.129
75868W        W42651  21.757  13.930   2.671
75869W        W42652  19.060  35.391   1.113
75870W        W42653  22.580  21.251   0.101
75871W        W42654  11.705  13.095   0.038
75872W        W42655  21.263  42.895   2.477
75873W        W42656  31.197  38.847   0.027
75874W        W42657  10.624  12.061  14.469
75875W        W42658  13.593  34.042   1.360
75876W        W42659   2.432  26.960   3.789
75877W        W42660  42.782  16.873  13.028
75878W        W42661   1.697  36.989   3.662
75879W        W42662  25.367  14.251  13.446
75880W        W42663   7.299  38.573  14.452
75881W        W42664  28.623   2.218  10.667
75882W        W42665  11.843  12.106  14.879
75883W        W42666  19.595  16.725   2.199
75884W        W42667   4.491  34.299   5.137
75885W        W42668  33.386  22.220  13.453
75886W        W42669  39.245   5.610   2.759
75887W        W42670  13.531   2.263  12.812
75888W        W42671  17.089   9.140   4.475
75889W        W42672  24.060  21.312   0.002
75890W        W42673  32.083  16.611  11.883
75891W        W42674  42.496  29.186   4.122
75892W        W42675  21.904   1.444  11.020
75893W        W42676   0.360  13.289   2.777
75894W        W42677  13.882  31.839   4.171
75895W        W42678  14.290  30.888   4.098
75896W        W42679   8.058  26.964   2.215
75897W        W42680  18.361  23.626   1.749
75898W        W42681  40.574   9.497  10.786
75899W        W42682  22.775  36.361  14.893
75900W        W42683  37.298  37.615  14.893
75901W        W42684  44.011   7.020   4.232
75902W        W42685  32.922  25.757   4.076
75903W        W42686  11.231  41.297   2.763
75904W        W42687  23.727  34.852   1.000
75905W        W42688  38.935   5.467  13.003
75906W        W42689  20.989  43.018  14.203
75907W        W42690   4.138  27.424   4.135
75908W        W42691  34.532  17.254  10.588
75909W        W42692  34.545  27.840  11.948
75910W        W42693  44.013  26.707  13.496
75911W        W42694  36.559  25.680  14.823
75912W        W42695  32.532  31.486   3.290
75913W        W42696  19.040   9.290   4.634
75914W        W42697  19.726  12.622  12.493
75915W        W42698   8.437  26.017  14.495
75916W        W42699  33.545   9.766   3.466
75917W        W42700  14.616  15.221   1.728
75918W        W42701  29.971  44.386   3.783
75919W        W42702  39.013  14.693  13.331
75920W        W42703  24.579  32.445   3.388
75921W        W42704  13.171  33.377   4.317
75922W        W42705  32.542   5.070  13.804
75923W        W42706  27.549  30.207   1.748
75924W        W42707  34.041   8.998  14.323
75925W        W42708  11.738  41.553  10.026
75926W        W42709  40.399  19.083  12.888
75927W        W42710   4.207  25.468  13.736
75928W        W42711  18.042  40.075  11.661
75929W        W42712  16.293  41.678  11.456
75930W        W42713   7.407   5.713  10.499
75931W        W42714  10.303  10.816   0.580
75932W        W42715  27.513  24.605   4.974
75933W        W42716   4.896   0.695  10.592
75934W        W42717   1.471  16.318   3.245
75935W        W42718  37.998  42.434   0.259
75936W        W42719  40.871  18.199   2.481
75937W        W42720   2.256  10.407  14.319
75938W        W42721  23.054  23.146  14.074
75939W        W42722  37.961   0.167   4.174
75940W        W42723   6.202   3.235  12.426
75941W        W42724  41.854   2.324  14.322
75942W        W42725  16.056  14.895  13.786
75943W        W42726  24.103  24.855  14.222
75944W        W42727  33.546  39.793  13.343
75945W        W42728  35.386   2.770   4.602
75946W        W42729  21.532  28.151   0.963
75947W        W42730  14.734  36.520  11.100
75948W        W42731  23.933   8.880   2.266
75949W        W42732  44.006  24.225   2.827
75950W        W42733  36.052   1.071  14.807
75951W        W42734   0.352  21.653  14.895
75952W        W42735  18.704  18.608  10.937
75953W        W42736  26.852  38.589   1.311
75954W        W42737   0.216  23.669   1.091
75955W        W42738  41.247  42.952  13.880
75956W        W42739   3.424   8.427   0.244
75957W        W42740   0.387  24.590  14.989
75958W        W42741  41.312  13.607  14.595
75959W        W42742  42.947   0.259  10.642
75960W        W42743  27.438   9.905  13.324
75961W        W42744  43.941  28.078   3.689
75962W        W42745  39.900  17.223   1.836
75963W        W42746  43.801   3.296  13.909
75964W        W42747  32.649   1.809  13.385
75965W        W42748  38.116  15.753  12.131
75966W        W42749  32.450  14.643   0.783
75967W        W42750   3.287  23.971  11.656
75968W        W42751  34.418  37.468  14.159
75969W        W42752  27.505  29.844  10.648
75970W        W42753   0.921   6.257   1.236
75971W        W42754   8.880   6.321  11.628
75972W        W42755   2.257  26.915   2.824
75973W        W42756  20.764  40.083  10.937
75974W        W42757  20.911  14.448   3.748
75975W        W42758  36.269   9.809   1.423
75976W        W42759   2.759  22.015   2.432
75977W        W42760  11.756  38.378   3.419
75978W        W42761  44.714  29.007  11.597
75979W        W42762  23.259   7.745  12.982
75980W        W42763  16.300  42.799  14.030
75981W        W42764  43.117  26.141  12.008
75982W        W42765   9.288  36.009  10.632
75983W        W42766  13.702  30.912   3.370
75984W        W42767  25.013   8.363   1.413
75985W        W42768  16.173   0.365   2.866
75986W        W42769  19.340  36.098   3.602
75987W        W42770  26.161  31.008  14.789
75988W        W42771  19.704   4.745  13.005
75989W        W42772   8.015  17.173  13.836
75990W        W42773  17.743  30.859   0.103
75991W        W42774  16.599  21.286   1.388
75992W        W42775  12.198  37.022  14.797
75993W        W42776  17.495   7.294   0.446
75994W        W42777   4.843  23.547  13.800
75995W        W42778  35.009  40.121   0.888
75996W        W42779  20.281   7.580  14.428
75997W        W42780  22.663  41.359  11.519
75998W        W42781  18.352  13.144   3.219
75999W        W42782  30.252  42.829   0.678
76000W        W42783  18.140  32.989  11.901
76001W        W42784  22.449  10.757   1.715
76002W        W42785  16.117   6.428   3.382
76003W        W42786  27.561   6.660   0.776
76004W        W42787  40.425  12.371   0.937
76005W        W42788  40.356  14.659  12.950
76006W        W42789  25.094  31.865   1.003
76007W        W42790  14.678  22.711  14.177
76008W        W42791  17.184  26.265  11.043
76009W        W42792   9.111  21.322   2.162
76010W        W42793   1.273   0.179  12.499
76011W        W42794  25.728  44.021  10.714
76012W        W42795  18.178  10.196   2.463
76013W        W42796  11.453   1.901  13.363
76014W        W42797  15.087  11.317  10.782
76015W        W42798  20.890  27.302   2.200
76016W        W42799  29.060  15.448   1.923
76017W        W42800   3.392  12.404  14.958
76018W        W42801  14.523   6.758  14.325
76019W        W42802  11.473   7.748  13.486
76020W        W42803  43.478  39.656  11.159
76021W        W42804  33.371  21.036  14.092
76022W        W42805  15.364  24.121   3.210
76023W        W42806  35.016  16.550  12.004
76024W        W42807  43.058  27.108   3.659
76025W        W42808  12.526   6.443  11.578
76026W        W42809   7.850   1.178  10.810
76027W        W42810  37.467  22.725  10.452
76028W        W42811  39.944  33.582   1.340
76029W        W42812  43.701  40.141  12.091
76030W        W42813  21.408  29.132  13.065
76031W        W42814  30.386   1.684  13.257
76032W        W42815  27.072  39.423   0.988
76033W        W42816  18.998  32.563   3.235
76034W        W42817  21.707  18.217  14.241
76035W        W42818  18.934  35.078  14.845
76036W        W42819   5.663  27.844   1.230
76037W        W42820   3.833  32.471   1.831
76038W        W42821  13.749   9.004   1.873
76039W        W42822  10.375   0.192   4.073
76040W        W42823  32.368  10.485  12.422
76041W        W42824  34.310  29.651  11.692
76042W        W42825   9.926  22.288  13.851
76043W        W42826  15.290  24.134  11.362
76044W        W42827  35.139  17.193   3.232
76045W        W42828  17.580  44.980  11.059
76046W        W42829   6.243  39.973   2.267
76047W        W42830   3.972  31.161   1.120
76048W        W42831  11.641  43.537   2.791
76049W        W42832  18.322  10.215   3.165
76050W        W42833  29.621  41.063  11.917
76051W        W42834  17.977  40.102  14.355
76052W        W42835   2.997  26.142   3.547
76053W        W42836  34.959  22.703  14.262
76054W        W42837  30.705   2.430  12.802
76055W        W42838  22.820  27.678   2.370
76056W        W42839  42.325   5.455  11.679
76057W        W42840  12.640   1.181  15.000
76058W        W42841  36.625   0.830  10.286
76059W        W42842  34.317   9.171  13.481
76060W        W42843  33.512  14.847   0.734
76061W        W42844  18.178  38.034   4.529
76062W        W42845   0.056  40.672   4.139
76063W        W42846   7.838   0.338   3.136
76064W        W42847  11.278  38.787   9.803
76065W        W42848  44.931  11.532  10.072
76066W        W42849  10.825   4.446   2.872
76067W        W42850  21.718  28.977  10.900
76068W        W42851   1.919   3.224   5.137
76069W        W42852   1.848   9.896   2.510
76070W        W42853  30.468  35.448   0.491
76071W        W42854   3.419  44.468   0.680
76072W        W42855  38.059  43.308  13.488
76073W        W42856  29.787  32.600  12.132
76074W        W42857  23.637   4.932   5.001
76075W        W42858  33.251  23.947  14.752
76076W        W42859  42.487  41.082   2.039
76077W        W42860  28.515  18.072  12.593
76078W        W42861  32.082  17.973   4.334
76079W        W42862  14.790  16.814  10.714
76080W        W42863  40.071  27.442   1.909
76081W        W42864  34.660  20.781  12.610
76082W        W42865  23.625   1.407   1.788
76083W        W42866  17.886  11.756   4.751
76084W        W42867  16.350  38.838  13.861
76085W        W42868  24.725  36.670   3.855
76086W        W42869  27.005  21.734  12.911
76087W        W42870  29.351  19.234   0.714
76088W        W42871   1.887  18.315   1.970
76089W        W42872  20.036  21.640   2.432
76090W        W42873  23.804  38.019  11.480
76091W        W42874  18.995  27.865  13.797
76092W        W42875  18.110  27.680   4.905
76093W        W42876   1.224   1.385  10.612
76094W        W42877  27.712  18.804  12.018
76095W        W42878  19.726  16.112  10.892
76096W        W42879  33.353  17.146  10.513
76097W        W42880  26.004  22.251  11.119
76098W        W42881  20.559  10.363  13.437
76099W        W42882  38.964  14.069  11.615
76100W        W42883  24.790  43.385  14.030
76101W        W42884  21.845  19.086  10.378
76102W        W42885  17.541  33.053   3.666
76103W        W42886  32.547  22.218   1.763
76104W        W42887  24.843   0.012   5.626
76105W        W42888  12.976  44.342  10.584
76106W        W42889   6.321   9.238   2.548
76107W        W42890  32.770  20.667  14.762
76108W        W42891   5.932  17.653  11.171
76109W        W42892   7.493  10.271   2.302
76110W        W42893  38.621  39.325  14.297
76111W        W42894   0.499   0.991  13.479
76112W        W42895   4.926  20.746   2.379
76113W        W42896  36.909   2.534  14.358
76114W        W42897  36.112  14.573  13.268
76115W        W42898   1.290  37.461  14.223
76116W        W42899  15.426  14.178   4.388
76117W        W42900   6.630  19.721   0.619
76118W        W42901  13.944   0.082   1.948
76119W        W42902  19.214  36.555  12.396
76120W        W42903  44.053  30.213   1.948
76121W        W42904  40.860  39.028  12.499
76122W        W42905   9.628  35.555  12.514
76123W        W42906  10.815  19.325  14.501
76124W        W42907   8.662  36.889   0.523
76125W        W42908  41.789   6.104   1.930
76126W        W42909  38.586  40.118  11.775
76127W        W42910   0.162  18.115   3.622
76128W        W42911  41.785   5.370  14.988
76129W        W42912  15.855  35.212  11.982
76130W        W42913  10.991  16.734  13.290
76131W        W42914  39.407   5.057  12.514
76132W        W42915  12.278  16.094   4.117
76133W        W42916  30.371  28.513   1.338
76134W        W42917  27.638   3.396   4.521
76135W        W42918  29.596  39.849   1.862
76136W        W42919  25.199   7.421   0.958
76137W        W42920  39.447   6.352  11.492
76138W        W42921  33.309  10.900  13.324
76139W        W42922  40.917  42.012  11.502
76140W        W42923   7.946  33.752   9.997
76141W        W42924  18.439  32.194  14.700
76142W        W42925   7.772  44.889   0.244
76143W        W42926   3.185  24.098  14.028
76144W        W42927  25.898  35.675  14.534
76145W        W42928   3.801  30.634  14.720
76146W        W42929  30.400  25.425   4.539
76147W        W42930  22.640  37.576  12.029
76148W        W42931  31.440  24.642   3.515
76149W        W42932  12.133  38.100   2.240
76150W        W42933  44.469   0.698  14.043
76151W        W42934  33.199  23.464  12.511
76152W        W42935  32.389   1.362   2.726
76153W        W42936  15.890  39.578   2.405
76154W        W42937  25.890  43.052   3.269
76155W        W42938  33.074  42.953  14.936
76156W        W42939  26.483   7.143  14.394
76157W        W42940   9.497  27.172   1.436
76158W        W42941   3.333  29.136  13.322
76159W        W42942  33.732  38.894  14.725
76160W        W42943  10.710  27.990  11.538
76161W        W42944   6.618   2.233  12.014
76162W        W42945  20.774  14.760  12.517
76163W        W42946  12.016  32.897  14.391
76164W        W42947   2.493   4.209  12.546
76165W        W42948  33.130   3.913   1.773
76166W        W42949  16.240  39.865   4.774
76167W        W42950  27.302  10.392  13.458
76168W        W42951  14.155  22.491   0.825
76169W        W42952  16.342  33.389  13.965
76170W        W42953  33.352  11.215  11.140
76171W        W42954  12.252  10.505   1.304
76172W        W42955  14.451  19.599  13.828
76173W        W42956  13.275  12.858   0.500
76174W        W42957  38.843  25.196   3.730
76175W        W42958  24.632   3.797  13.068
76176W        W42959   0.362  41.496   1.817
76177W        W42960  10.204  34.899   0.379
76178W        W42961   0.530  27.974  10.810
76179W        W42962  17.875  13.614  12.020
76180W        W42963  43.908  25.761  14.461
76181W        W42964  13.238   5.492   1.975
76182W        W42965  36.029  17.137   3.249
76183W        W42966  36.327   8.508  10.733
76184W        W42967  37.592  10.879  12.064
76185W        W42968   8.975  12.510  13.489
76186W        W42969  15.879  10.454  14.804
76187W        W42970   4.399   0.502  10.589
76188W        W42971  16.992  43.225   1.282
76189W        W42972  18.551  16.303  12.937
76190W        W42973   5.385  39.972  12.605
76191W        W42974  34.634  12.593   4.748
76192W        W42975  41.900  14.892  14.727
76193W        W42976  28.404   7.096  10.843
76194W        W42977  38.158   9.840  10.647
76195W        W42978  12.103  14.024  11.791
76196W        W42979  29.529  26.615  12.174
76197W        W42980  11.634  26.139  13.421
76198W        W42981   2.702  43.840  13.891
76199W        W42982  36.638  36.999   2.690
76200W        W42983  10.243  20.186  12.563
76201W        W42984  39.861  18.642  13.588
76202W        W42985  23.060   9.626  14.450
76203W        W42986  37.086  27.172   1.753
76204W        W42987  39.282  23.414   2.454
76205W        W42988  30.497  10.554  13.249
76206W        W42989   1.177  22.766  11.132
76207W        W42990   0.815  13.298   1.317
76208W        W42991   1.226  43.326  10.607
76209W        W42992  13.897  39.420  12.029
76210W        W42993  28.844   5.362   1.674
76211W        W42994  11.028  25.273   2.798
76212W        W42995  17.567  16.780  14.364
76213W        W42996  34.471  17.826  11.946
76214W        W42997   6.913   9.343  11.530
76215W        W42998   4.911  16.762   0.475
76216W        W42999  30.974   6.274   0.946
76217W        W43000  34.307  25.766   0.366
76218W        W43001  25.477  35.089   5.014
76219W        W43002  19.672  28.707   0.440
76220W        W43003  11.545  33.541   2.450
76221W        W43004   5.917  30.356  12.055
76222W        W43005  17.546  23.726  13.376
76223W        W43006  21.189  31.991  11.652
76224W        W43007  24.753  28.743   1.900
76225W        W43008  14.480  31.471   3.704
76226W        W43009  20.814  14.569  10.297
76227W        W43010  13.008  20.308   4.495
76228W        W43011  22.031  44.362  12.357
76229W        W43012  32.750  16.620   0.707
76230W        W43013  32.617  18.530   3.032
76231W        W43014  33.910  43.348   1.228
76232W        W43015  32.924  39.981   0.201
76233W        W43016   1.236   7.728   2.714
76234W        W43017  12.594  23.519  11.549
76235W        W43018  18.689  23.626   4.959
76236W        W43019  37.865  30.584   3.323
76237W        W43020   2.733   7.075   3.762
76238W        W43021  17.557  31.769   1.992
76239W        W43022  23.075  18.677   1.329
76240W        W43023   3.462  16.403   0.224
76241W        W43024  14.913  42.964  14.382
76242W        W43025  40.803  10.845  10.285
76243W        W43026  40.406  44.150   4.998
76244W        W43027  22.732   5.629  12.376
76245W        W43028  11.167  19.048   4.191
76246W        W43029   0.434  16.619  11.381
76247W        W43030   7.235  15.680   4.754
76248W        W43031  17.077  24.090  11.515
76249W        W43032   9.911   6.664   1.747
76250W        W43033  40.177  14.906   4.616
76251W        W43034  13.319  14.818  14.248
76252W        W43035  35.767  38.025  13.613
76253W        W43036  38.227  24.355   1.808
76254W        W43037  15.069  34.895   5.200
76255W        W43038   4.127  10.054  11.172
76256W        W43039  40.959   3.716  14.716
76257W        W43040  10.382  33.515  13.250
76258W        W43041  44.938  26.264  12.881
76259W        W43042  34.892   4.995   0.925
76260W        W43043  37.333   0.995   2.453
76261W        W43044  14.647  24.826   0.129
76262W        W43045  27.446   1.710   2.753
76263W        W43046  40.113  37.435  13.671
76264W        W43047  41.757   6.915   0.613
76265W        W43048   1.019  23.282   3.299
76266W        W43049  17.206  19.777  13.321
76267W        W43050  11.050  11.222   2.776
76268W        W43051  22.233  25.129  14.615
76269W        W43052  26.069  30.005   4.541
76270W        W43053  14.226   6.899  13.923
76271W        W43054  15.166  16.090  13.973
76272W        W43055  16.073  19.919   4.757
76273W        W43056  35.591  23.247   2.618
76274W        W43057  29.764   4.881   3.180
76275W        W43058  42.705   2.731  11.950
76276W        W43059   8.171  17.850   1.418
76277W        W43060  37.367   0.039   0.386
76278W        W43061  14.344  16.270  12.884
76279W        W43062  14.607  29.011  12.070
76280W        W43063   0.821  33.412  14.385
76281W        W43064  14.031   4.193  13.539
76282W        W43065  27.844  26.664  11.333
76283W        W43066  41.861  24.190   2.388
76284W        W43067  12.837  13.416  13.950
76285W        W43068  33.443  29.503  10.761
76286W        W43069  22.498  34.911   4.182
76287W        W43070   0.949  42.714   0.688
76288W        W43071  30.693  21.759  11.566
76289W        W43072   0.989  21.758  10.415
76290W        W43073  13.837   5.618   4.133
76291W        W43074  22.108  29.079   4.708
76292W        W43075   3.799   4.018   4.203
76293W        W43076   7.911  15.035  13.378
76294W        W43077  22.280  30.810  12.920
76295W        W43078  23.494  27.611   4.330
76296W        W43079   5.230  36.375  12.467
76297W        W43080  18.542  43.561  10.519
76298W        W43081   5.929   9.796  14.950
76299W        W43082  36.472  30.239  11.167
76300W        W43083  40.348  28.873   0.461
76301W        W43084   0.092  36.418  12.373
76302W        W43085  12.397  29.920   3.445
76303W        W43086  32.790   5.919   0.321
76304W        W43087  12.340  16.637   1.467
76305W        W43088  15.551   1.848   4.570
76306W        W43089   1.327  31.573  11.893
76307W        W43090  21.719  12.522  12.210
76308W        W43091  20.070  34.422   3.275
76309W        W43092   8.288   6.366  11.680
76310W        W43093  23.053  39.707   3.720
76311W        W43094  26.933  32.664   2.331
76312W        W43095   2.414   6.876  12.956
76313W        W43096  42.012   6.915   0.143
76314W        W43097   6.666  31.550   0.144
76315W        W43098  29.557  20.621   2.667
76316W        W43099  20.285  16.361  10.259
76317W        W43100   4.292  25.601  14.708
76318W        W43101  10.763  10.135  14.327
76319W        W43102  14.813  21.930  12.032
76320W        W43103   8.514  37.884   3.759
76321W        W43104  32.072   1.148  11.159
76322W        W43105  44.027  22.516  11.123
76323W        W43106   3.693  31.065  10.435
76324W        W43107  29.360  34.891   2.277
76325W        W43108   5.325   7.915   2.383
76326W        W43109  26.620  29.030  12.571
76327W        W43110  19.825   3.788   4.864
76328W        W43111  39.762  36.884  13.298
76329W        W43112  43.348   1.530   3.346
76330W        W43113   4.756  33.908   0.251
76331W        W43114  15.481  22.827   2.642
76332W        W43115  19.419  34.883  11.521
76333W        W43116   2.761  43.342  14.064
76334W        W43117  39.207  37.502   3.079
76335W        W43118   4.351  10.701   4.125
76336W        W43119   8.839   1.761  14.639
76337W        W43120  31.630  25.161   3.615
76338W        W43121  39.717  23.247  11.185
76339W        W43122  19.243   7.153  10.549
76340W        W43123  36.837   9.010   0.803
76341W        W43124  14.019  41.438   0.739
76342W        W43125  17.563  41.502   0.024
76343W        W43126  11.350  27.554  11.673
76344W        W43127  16.828  28.197  12.138
76345W        W43128  16.162   0.059  14.137
76346W        W43129   2.698  22.158  12.929
76347W        W43130  14.650   0.528   1.655
76348W        W43131   0.431  16.213   2.582
76349W        W43132   8.605  20.749   0.248
76350W        W43133   0.290   7.356   0.080
76351W        W43134   0.775  30.964   0.020
76352W        W43135  36.788  29.627  10.684
76353W        W43136  32.902  24.895  10.661
76354W        W43137  21.644   8.946   1.417
76355W        W43138  16.808  41.753   3.035
76356W        W43139   2.498  17.630   2.178
76357W        W43140  26.377   0.404  13.373
76358W        W43141  32.822  23.280   4.595
76359W        W43142  23.337   8.616  11.228
76360W        W43143  33.841  19.982  13.521
76361W        W43144  22.786   9.943  10.507
76362W        W43145  23.548  28.021   0.800
76363W        W43146  12.272  35.319  12.037
76364W        W43147   6.629  36.378  13.073
76365W        W43148   1.937  37.792  13.623
76366W        W43149  39.843   6.888   9.845
76367W        W43150  40.777  43.090   3.761
76368W        W43151  35.585  41.997   3.422
76369W        W43152  17.220   6.563  11.147
76370W        W43153  15.395  12.761   0.480
76371W        W43154   1.717   4.831   0.243
76372W        W43155  12.341  40.660   3.278
76373W        W43156  36.625  19.746   5.422
76374W        W43157  13.615  42.809   2.353
76375W        W43158   5.977  25.940  14.440
76376W        W43159  26.722   2.519   1.806
76377W        W43160  12.819  23.012  14.421
76378W        W43161  18.573  37.474   4.584
76379W        W43162  38.165  22.651   3.279
76380W        W43163  17.640  12.068  13.189
76381W        W43164  37.809  12.343   3.375
76382W        W43165  39.783  23.421   4.192
76383W        W43166   8.409  19.144   1.409
76384W        W43167  21.399  22.350  10.092
76385W        W43168   8.645  42.190   0.877
76386W        W43169   4.794  38.613   1.243
76387W        W43170  21.967  20.021  13.957
76388W        W43171   4.136   8.263  14.878
76389W        W43172  15.059  13.853  14.500
76390W        W43173  22.748  42.423  13.936
76391W        W43174  20.363   9.711  14.375
76392W        W43175  33.208  26.242  12.532
76393W        W43176  27.606   1.812  11.235
76394W        W43177   1.193  19.618   1.418
76395W        W43178  10.201   0.789  10.701
76396W        W43179  43.931  36.550   1.131
76397W        W43180  36.567   7.842  13.920
76398W        W43181  13.567   0.415   1.844
76399W        W43182  12.628  24.743  12.869
76400W        W43183   5.712   2.984   4.202
76401W        W43184  31.880   5.761   4.191
76402W        W43185  30.922  14.626  13.933
76403W        W43186  17.080  32.822  11.863
76404W        W43187  39.343  32.470   1.924
76405W        W43188  33.573  16.328  12.845
76406W        W43189  22.729  31.977  12.040
76407W        W43190  44.375   3.671  11.528
76408W        W43191  18.024   7.197   2.285
76409W        W43192   3.518  25.639   2.118
76410W        W43193  44.564  44.303  12.623
76411W        W43194  18.640   7.250   1.441
76412W        W43195  11.889   6.181   0.805
76413W        W43196   1.953  42.385   4.416
76414W        W43197  27.927  28.699   3.176
76415W        W43198  44.499  14.870  12.352
76416W        W43199  20.442   4.665   4.247
76417W        W43200  13.586   1.273  12.429
76418W        W43201  23.890  35.775   0.303
76419W        W43202  17.924   6.776   0.486
76420W        W43203  24.574   4.757  14.496
76421W        W43204  26.589  25.552  12.665
76422W        W43205  32.937  13.202  14.018
76423W        W43206  21.261   7.231  11.584
76424W        W43207  32.535  18.646   9.681
76425W        W43208  11.141  16.622   4.639
76426W        W43209  35.051   7.762   3.286
76427W        W43210  20.718   7.865  12.945
76428W        W43211  16.919   4.951   3.744
76429W        W43212   6.151  10.256  11.908
76430W        W43213  34.939  13.413  10.980
76431W        W43214  25.289  17.196   2.732
76432W        W43215  38.284   0.892  14.020
76433W        W43216  33.856  36.427  12.124
76434W        W43217   6.124  19.221  14.481
76435W        W43218   1.212  30.059  13.880
76436W        W43219  17.586  10.283   2.399
76437W        W43220   5.095  33.787  14.444
76438W        W43221  36.570  33.459  10.362
76439W        W43222  19.178  30.466  12.882
76440W        W43223  35.102   9.421  13.821
76441W        W43224  17.313  30.920  13.944
76442W        W43225  27.151  40.508   3.152
76443W        W43226  14.641  22.190  13.328
76444W        W43227   7.315   2.488   3.653
76445W        W43228  27.444  33.596   4.126
76446W        W43229  21.082  25.797   4.224
76447W        W43230  33.339  42.023  11.182
76448W        W43231   2.316  41.807  14.174
76449W        W43232   2.399  12.388  14.796
76450W        W43233  20.827   3.417   0.412
76451W        W43234  24.082   4.383  12.326
76452W        W43235  33.911  37.910   3.623
76453W        W43236  30.919  27.421  10.573
76454W        W43237  12.880   3.964  14.829
76455W        W43238   4.977  43.429  13.140
76456W        W43239   1.221  18.005   3.241
76457W        W43240  39.102   9.401  13.911
76458W        W43241  22.774  25.572  14.938
76459W        W43242  43.280  14.600  14.274
76460W        W43243  29.668  22.034   2.889
76461W        W43244  26.630  32.330   2.654
76462W        W43245  30.680  38.877  14.966
76463W        W43246   7.132  14.722  11.137
76464W        W43247  17.810  27.160  13.345
76465W        W43248   3.292  30.943   4.384
76466W        W43249  11.404  21.128   4.621
76467W        W43250  27.879  25.556   0.272
76468W        W43251  26.086  22.047  13.520
76469W        W43252   9.407  29.568   2.043
76470W        W43253  24.782  15.701   4.725
76471W        W43254  41.339  39.531   1.863
76472W        W43255  23.714  21.193   1.330
76473W        W43256  33.498  24.401  14.811
76474W        W43257   6.357  10.376  13.776
76475W        W43258  41.092  44.418   4.572
76476W        W43259  41.308  24.988  13.114
76477W        W43260  19.693  19.245   2.395
76478W        W43261  35.220  37.004  10.385
76479W        W43262  19.303   7.930  12.489
76480W        W43263   9.164  31.146   3.756
76481W        W43264  13.656   8.286   3.204
76482W        W43265   9.626  17.892  13.831
76483W        W43266  43.019  15.124  12.599
76484W        W43267  10.846  36.772  10.646
76485W        W43268  34.911   6.087   0.996
76486W        W43269  41.682  42.310  12.508
76487W        W43270  31.645   8.940  11.967
76488W        W43271  29.493  15.175   0.771
76489W        W43272  29.234  35.964  13.073
76490W        W43273  25.189   1.058   2.347
76491W        W43274  22.551  32.472   1.400
76492W        W43275  14.801  19.857   3.960
76493W        W43276  38.559  18.940  13.406
76494W        W43277  13.762  44.802   2.328
76495W        W43278  20.148  21.601  10.491
76496W        W43279  39.601  39.398  11.918
76497W        W43280  31.913   3.206   1.910
76498W        W43281  37.435   9.187   4.542
76499W        W43282  14.068  34.329  10.602
76500W        W43283  16.255  22.621   4.772
76501W        W43284  20.558  28.160   2.108
76502W        W43285  13.679  23.482   2.812
76503W        W43286  44.340  32.960   0.529
76504W        W43287   2.110  36.818  11.368
76505W        W43288   6.410  41.391  14.564
76506W        W43289  19.767   2.351  10.201
76507W        W43290   2.804  34.841  14.672
76508W        W43291  22.512  33.372  14.050
76509W        W43292  39.476  16.151  12.149
76510W        W43293  15.760  24.131   0.484
76511W        W43294   1.169  29.163  13.366
76512W        W43295  43.929  40.898  12.669
76513W        W43296  15.289  37.350  12.141
76514W        W43297  22.228   0.533   1.390
76515W        W43298  31.980  44.399   3.633
76516W        W43299  20.062   6.766   4.609
76517W        W43300  44.773  16.663   4.359
76518W        W43301   1.725   3.336   0.786
76519W        W43302  13.682   5.422   3.666
76520W        W43303  34.205  40.423   3.163
76521W        W43304  24.485  34.033  13.945
76522W        W43305  30.598   1.833  11.556
76523W        W43306  11.118  29.037   4.784
76524W        W43307  24.664  23.855   2.850
76525W        W43308   2.507  21.143   2.695
76526W        W43309   4.448  21.656  13.460
76527W        W43310  33.148  43.792   0.036
76528W        W43311  28.211   8.175   4.184
76529W        W43312  14.521  29.963  14.492
76530W        W43313  15.255  33.331  14.279
76531W        W43314  26.174   8.937  12.953
76532W        W43315  29.518  18.748  12.637
76533W        W43316  43.761  40.250   0.335
76534W        W43317  17.220  12.741   5.167
76535W        W43318   0.887  27.166   1.833
76536W        W43319  41.997   9.376   3.049
76537W        W43320  15.658   4.163   1.917
76538W        W43321  11.845  28.926  12.957
76539W        W43322  24.705  44.821  11.543
76540W        W43323   8.484  38.780  14.912
76541W        W43324  16.603  37.902  13.725
76542W        W43325   1.859  15.594   0.251
76543W        W43326  11.243  27.430  12.227
76544W        W43327  44.742   5.319   3.248
76545W        W43328  21.688  21.685   1.890
76546W        W43329  25.229  22.001   4.374
76547W        W43330   4.142   1.921   0.695
76548W        W43331   7.624  11.364   1.332
76549W        W43332   4.977  19.112   2.828
76550W        W43333  11.648   6.384   3.628
76551W        W43334  29.964  20.386   3.265
76552W        W43335   4.842  13.519  10.791
76553W        W43336  14.431  40.875   4.618
76554W        W43337  17.062   3.792   2.209
76555W        W43338  22.400  20.376  12.007
76556W        W43339   8.288  22.569  12.822
76557W        W43340  39.007   0.413   1.706
76558W        W43341  38.825  18.477  12.342
76559W        W43342  18.492  41.773   2.380
76560W        W43343  12.211   8.810  13.555
76561W        W43344  24.445  44.580  11.153
76562W        W43345   1.493  11.909   1.901
76563W        W43346  13.677  38.037   1.780
76564W        W43347  12.284  15.550  12.059
76565W        W43348  36.904  44.246  14.392
76566W        W43349  27.083   6.252   1.363
76567W        W43350  43.455  31.287  14.701
76568W        W43351  19.457  31.154   4.540
76569W        W43352  42.286  18.583  13.405
76570W        W43353   5.860  29.677  11.576
76571W        W43354  26.416  16.748  10.290
76572W        W43355  23.602   7.433  13.349
76573W        W43356  21.053   7.403  14.674
76574W        W43357  26.219  31.948   3.381
76575W        W43358  19.756  33.381   4.080
76576W        W43359  25.658  23.480   2.195
76577W        W43360  27.100  35.532   4.497
76578W        W43361  12.326  19.802  12.485
76579W        W43362   8.296  29.908  11.431
76580W        W43363  37.535  23.720   1.683
76581W        W43364  36.409  14.243   0.851
76582W        W43365  30.003  25.787  13.362
76583W        W43366  30.355  10.433  12.764
76584W        W43367  34.810  42.869   3.503
76585W        W43368   8.203  15.945  10.866
76586W        W43369  25.222  33.601  13.852
76587W        W43370   8.294  12.189   4.434
76588W        W43371  28.574  31.274  12.075
76589W        W43372  16.936  37.825   3.247
76590W        W43373   1.760  16.060  10.327
76591W        W43374   0.592  36.763   0.818
76592W        W43375  41.945  12.354  12.555
76593W        W43376  37.320  15.049   4.639
76594W        W43377  22.219   5.262   1.484
76595W        W43378  15.234   6.718  11.694
76596W        W43379  24.551  44.028  12.037
76597W        W43380  16.542  24.317  14.474
76598W        W43381  34.451  29.012   4.567
76599W        W43382  13.176  31.605   4.200
76600W        W43383  34.618  13.805  14.447
76601W        W43384  15.275   1.520   1.037
76602W        W43385  33.109   4.910  12.154
76603W        W43386  23.264  19.803   4.254
76604W        W43387  10.823   6.152   0.551
76605W        W43388  42.682  28.704  14.954
76606W        W43389  42.460  35.441  13.123
76607W        W43390  16.738  22.536  12.293
76608W        W43391  28.552  36.736   3.274
76609W        W43392  37.785  35.861  11.143
76610W        W43393   8.258  39.326  11.886
76611W        W43394  33.800  11.538   0.282
76612W        W43395  23.570  23.341   0.339
76613W        W43396  35.137  27.659   0.282
76614W        W43397  34.780  21.692  12.885
76615W        W43398  18.168  21.079   1.031
76616W        W43399   4.979  16.181  14.725
76617W        W43400  26.987  44.286  10.770
76618W        W43401  22.572  41.596  10.074
76619W        W43402  27.940  16.335  11.443
76620W        W43403   8.977  31.569   0.757
76621W        W43404  43.578  21.490  12.043
76622W        W43405  27.008  28.839  12.939
76623W        W43406  30.721  11.400  11.237
76624W        W43407  10.851  36.621  14.439
76625W        W43408   2.957   9.593  13.461
76626W        W43409  10.772  10.732  10.953
76627W        W43410  42.536  17.089   0.664
76628W        W43411   8.104  32.090   2.901
76629W        W43412  31.072  37.562   5.088
76630W        W43413  35.045  18.392  14.448
76631W        W43414  18.270  31.067   1.781
76632W        W43415  31.386  35.254  14.469
76633W        W43416  11.323  10.908  12.300
76634W        W43417  39.411  30.567   4.414
76635W        W43418  17.643  15.033   2.361
76636W        W43419  13.629  35.138  11.194
76637W        W43420  13.270  16.201   3.922
76638W        W43421  13.335  22.641   4.588
76639W        W43422   6.315  37.980   3.224
76640W        W43423   8.343  28.133  14.735
76641W        W43424  17.097   9.321   3.994
76642W        W43425  37.255  20.491  14.725
76643W        W43426   6.725  34.649   3.166
76644W        W43427  30.504   2.217  10.691
76645W        W43428  17.856   4.221   4.563
76646W        W43429  11.653  21.566  12.612
76647W        W43430   4.730  34.981   0.590
76648W        W43431  10.468   2.307  12.837
76649W        W43432  15.241  25.486   4.738
76650W        W43433  29.580  19.603   3.494
76651W        W43434   5.809   9.607  11.566
76652W        W43435  10.205  20.086   0.460
76653W        W43436  12.453  37.181   3.193
76654W        W43437  36.949  14.971  11.716
76655W        W43438  38.478  35.540   4.186
76656W        W43439  23.742  39.658  11.014
76657W        W43440  32.091  11.062  13.408
76658W        W43441  40.293   3.230   1.962
76659W        W43442  13.927  23.995  10.704
76660W        W43443  12.173  34.483   5.638
76661W        W43444  14.215  20.230  12.687
76662W        W43445  16.646  33.670  11.489
76663W        W43446   8.159  10.255  14.008
76664W        W43447  33.014  17.137   2.768
76665W        W43448  26.075  22.942   4.343
76666W        W43449  28.116  26.211   3.199
76667W        W43450  38.806  14.265   1.695
76668W        W43451  36.024   4.249   1.906
76669W        W43452  32.239  10.919   0.285
76670W        W43453   3.803  15.132   3.198
76671W        W43454   7.903  11.763   3.348
76672W        W43455   2.010  14.049  11.153
76673W        W43456   5.663  11.390   0.759
76674W        W43457  15.135  37.542   2.569
76675W        W43458  26.940   9.263   3.429
76676W        W43459   0.449  39.913   2.668
76677W        W43460  20.564   1.996   4.562
76678W        W43461  17.934  36.418  12.775
76679W        W43462  17.377  14.013   3.311
76680W        W43463  36.105  15.527  12.134
76681W        W43464  33.162  26.566  10.025
76682W        W43465   1.324  37.394   0.724
76683W        W43466  10.588  23.733   2.434
76684W        W43467   6.721   5.527  14.456
76685W        W43468  26.458  28.620   1.495
76686W        W43469  25.597  31.317  14.355
76687W        W43470   3.000  40.852   1.344
76688W        W43471  22.457   4.360   4.156
76689W        W43472  35.348  39.508  13.337
76690W        W43473   1.876  23.640   1.195
76691W        W43474  41.065  12.575  13.904
76692W        W43475  43.405  17.789   5.396
76693W        W43476  14.595  37.536  13.675
76694W        W43477  22.008  21.553   1.201
76695W        W43478  24.536  30.246   1.842
76696W        W43479  33.604  30.736  10.118
76697W        W43480  13.952   2.052   2.915
76698W        W43481  19.305  41.965  13.489
76699W        W43482  33.038  24.498   2.426
76700W        W43483  14.969  14.625   2.753
76701W        W43484  42.881  42.876   1.561
76702W        W43485  44.103   0.471   4.826
76703W        W43486  29.630  36.869  12.942
76704W        W43487  32.452  23.379  10.876
76705W        W43488   8.539  29.774   1.460
76706W        W43489  20.788  36.698  11.111
76707W        W43490  25.761  18.629   2.840
76708W        W43491   0.477   7.830   3.871
76709W        W43492  23.613  37.949  11.007
76710W        W43493   8.174  29.514   3.154
76711W        W43494  40.207  34.946   5.048
76712W        W43495  24.456  38.143   4.190
76713W        W43496  28.105  15.137   1.953
76714W        W43497  16.314  42.038   0.095
76715W        W43498  43.277   6.295  11.080
76716W        W43499  42.700  38.951   1.856
76717W        W43500  19.213  44.241  13.004
76718W        W43501  12.775  29.668  11.966
76719W        W43502  43.924  13.772   3.378
76720W        W43503   0.234  41.763   2.241
76721W        W43504  15.324  36.619   0.686
76722W        W43505   3.239   1.264   1.756
76723W        W43506   0.277  19.447  12.054
76724W        W43507  17.117  19.929   1.166
76725W        W43508   3.372  42.900   0.954
76726W        W43509  26.733  28.906   4.116
76727W        W43510  25.121  40.036  12.614
76728W        W43511  44.379  41.532   3.215
76729W        W43512  12.670  30.225   4.813
76730W        W43513  10.153  28.033  11.626
76731W        W43514  30.105  17.406   0.636
76732W        W43515  30.918  12.193   1.832
76733W        W43516   3.531  21.134   2.323
76734W        W43517   5.711  26.164  13.838
76735W        W43518  30.611  44.949   3.318
76736W        W43519  32.850  28.551  12.164
76737W        W43520  39.873   0.426  13.504
76738W        W43521  10.109  38.373  13.737
76739W        W43522  10.341  16.168  13.629
76740W        W43523  22.737  30.432   0.319
76741W        W43524  27.242   4.422   4.105
76742W        W43525  30.351   9.777   4.551
76743W        W43526  11.744   3.984   4.587
76744W        W43527  36.642  13.689  13.316
76745W        W43528   2.169   5.204   3.738
76746W        W43529  42.086  33.949  13.003
76747W        W43530  21.780  22.291   4.338
76748W        W43531  21.450  32.644  12.686
76749W        W43532   2.998  14.704   1.753
76750W        W43533   7.149   9.181  11.992
76751W        W43534  27.100   2.930  13.360
76752W        W43535  24.611   8.621   0.999
76753W        W43536   8.424  31.617   2.763
76754W        W43537  20.700  21.191   0.021
76755W        W43538   2.713  32.558   3.437
76756W        W43539  38.075  13.080   0.925
76757W        W43540  20.573  40.496   2.379
76758W        W43541  44.796  27.544  10.558
76759W        W43542  10.655   0.329   1.788
76760W        W43543  26.289   9.905   0.268
76761W        W43544   3.698  39.912  11.180
76762W        W43545  21.587   3.314  14.900
76763W        W43546   9.450  44.351  12.311
76764W        W43547  29.188  39.507   1.245
76765W        W43548  33.490  44.657  10.764
76766W        W43549  43.079  30.426   1.733
76767W        W43550  42.440  26.079  10.592
76768W        W43551  32.873  27.536  12.435
76769W        W43552  27.225   4.257  13.340
76770W        W43553   4.979  43.321   0.432
76771W        W43554  30.898  10.195  12.624
76772W        W43555  28.478  26.083   1.371
76773W        W43556  15.524   5.950  10.870
76774W        W43557   8.933  18.121  12.535
76775W        W43558  17.152   1.508  12.629
76776W        W43559   4.358  13.219   4.249
76777W        W43560  28.507  37.512   1.826
76778W        W43561  39.291  19.815  10.731
76779W        W43562  35.958  10.167   2.895
76780W        W43563  25.424  20.905  13.409
76781W        W43564   2.924  10.973  10.675
76782W        W43565   3.211  26.575   4.733
76783W        W43566  36.622  20.222  13.400
76784W        W43567  39.483  37.807  11.303
76785W        W43568  26.515  24.048  13.566
76786W        W43569  39.588  27.136  13.431
76787W        W43570  38.807  25.707  10.732
76788W        W43571   4.196  23.247  11.534
76789W        W43572  41.234  25.849  11.569
76790W        W43573  21.291  35.346  13.574
76791W        W43574  28.478  23.295   4.310
76792W        W43575  29.956   1.539   0.453
76793W        W43576  23.297  19.718   2.835
76794W        W43577  14.790  12.597  14.566
76795W        W43578  18.629  38.475   0.672
76796W        W43579  21.016  33.961  11.655
76797W        W43580   1.883  20.934  12.870
76798W        W43581  32.624  38.051  14.705
76799W        W43582  22.815  15.806   4.143
76800W        W43583  10.810  18.807  12.079
76801W        W43584  39.349  42.149   3.401
76802W        W43585  42.053  29.857  13.549
76803W        W43586  12.767  15.470   3.906
76804W        W43587  13.275  38.508   5.073
76805W        W43588  34.968  33.823  13.829
76806W        W43589  27.710  36.348   3.833
76807W        W43590  16.905  10.179  14.964
76808W        W43591   5.327   3.657   0.148
76809W        W43592  44.258  28.469   2.695
76810W        W43593  24.739   3.532   1.255
76811W        W43594  18.254  17.555   4.234
76812W        W43595  28.078  31.140   2.329
76813W        W43596   7.660  27.286  11.266
76814W        W43597  44.232  13.187   1.796
76815W        W43598  44.345   5.612   2.152
76816W        W43599  30.558  21.658  12.471
76817W        W43600  18.190   9.523   0.011
76818W        W43601  23.695  16.631  13.547
76819W        W43602  37.251  20.203  10.765
76820W        W43603  18.136  21.572   0.860
76821W        W43604   9.100  29.985  13.969
76822W        W43605  12.249   2.994  10.467
76823W        W43606  25.243  36.045   5.102
76824W        W43607   6.236  21.006  14.365
76825W        W43608   3.073  40.494  11.176
76826W        W43609  39.993   8.730   3.302
76827W        W43610   5.232  31.780   2.391
76828W        W43611   8.251   1.713  14.823
76829W        W43612  16.237  34.174   3.608
76830W        W43613  44.816  41.950   2.494
76831W        W43614  23.041   4.839   4.233
76832W        W43615  29.429  44.779  14.507
76833W        W43616  23.508  38.398  11.243
76834W        W43617  28.894   9.230   2.748
76835W        W43618  10.224   2.420  14.395
76836W        W43619  40.777  15.739   3.495
76837W        W43620  29.926  37.099   1.410
76838W        W43621  39.393  16.039  14.407
76839W        W43622   9.334   1.766  12.664
76840W        W43623  10.256  34.182   3.751
76841W        W43624  30.436  24.543   1.553
76842W        W43625  15.772   6.264   4.599
76843W        W43626  18.074  17.718   0.328
76844W        W43627   1.398  24.856   0.078
76845W        W43628  12.285   6.635   4.463
76846W        W43629  35.037  37.758   1.867
76847W        W43630  12.779  23.259   1.741
76848W        W43631  18.677  38.212  12.113
76849W        W43632   8.666  31.675   0.327
76850W        W43633  34.967  16.053   4.407
76851W        W43634   3.811  20.689   2.337
76852W        W43635   7.130   7.173  14.296
76853W        W43636  24.588  17.975  14.817
76854W        W43637  23.700  24.678   2.758
76855W        W43638  43.914  40.398   5.070
76856W        W43639   6.219   6.999   3.723
76857W        W43640  10.807  41.470  13.925
76858W        W43641  16.774  25.682   2.275
76859W        W43642   9.025  38.566   4.452
76860W        W43643   7.247  40.376  13.921
76861W        W43644  22.594  29.074  13.924
76862W        W43645   9.239  11.181  14.030
76863W        W43646  19.768  36.957  14.368
76864W        W43647   0.214  19.465  11.229
76865W        W43648  37.296  40.241  14.538
76866W        W43649  28.057  26.714   1.830
76867W        W43650  24.154  35.036  11.940
76868W        W43651   1.118   4.180  10.534
76869W        W43652   2.405   2.460  14.791
76870W        W43653   5.249  34.065   0.412
76871W        W43654  13.037  18.967   4.124
76872W        W43655  32.954   6.692   3.163
76873W        W43656  27.555   5.373  10.454
76874W        W43657  21.011  31.360  13.857
76875W        W43658  29.837  36.556  12.014
76876W        W43659  12.684  11.248   0.509
76877W        W43660  39.389  33.942   1.010
76878W        W43661  12.817  39.354   0.684
76879W        W43662  22.173  15.268  12.986
76880W        W43663   4.387  15.560  11.178
76881W        W43664  17.283   4.750  13.778
76882W        W43665  39.026  44.242   0.422
76883W        W43666  39.606  12.781   2.385
76884W        W43667  24.720   5.792  14.715
76885W        W43668  20.166  23.137  14.868
76886W        W43669  27.883  24.925  13.051
76887W        W43670   7.883  40.472  11.968
76888W        W43671   4.349  26.960   4.124
76889W        W43672  27.922   1.376   3.967
76890W        W43673  41.180   3.967  13.822
76891W        W43674   8.645  13.017   3.433
76892W        W43675  42.960  11.128   4.976
76893W        W43676  43.757  25.280   4.053
76894W        W43677   7.731   6.986   4.437
76895W        W43678  18.520   1.332   3.661
76896W        W43679  32.923   8.590  13.483
76897W        W43680  11.194  33.350  12.343
76898W        W43681  24.105  10.432  10.942
76899W        W43682  21.146   9.136   3.812
76900W        W43683   1.863   7.721  12.188
76901W        W43684   5.464  13.633  12.042
76902W        W43685  36.245  35.437  12.956
76903W        W43686   7.728   9.331  11.170
76904W        W43687  40.257  24.037  14.342
76905W        W43688  40.753  33.628   2.288
76906W        W43689  22.036  36.000   4.352
76907W        W43690  38.096  15.650   0.176
76908W        W43691   8.330  28.737  12.699
76909W        W43692  37.677  16.098   2.190
76910W        W43693   8.506  24.681  10.637
76911W        W43694  15.289  13.846  10.268
76912W        W43695   6.217  11.426   2.205
76913W        W43696  41.727  20.984  11.240
76914W        W43697  10.301  35.985  13.563
76915W        W43698   0.662  37.557  12.452
76916W        W43699  22.569  42.618  13.484
76917W        W43700  36.006  21.899  14.870
76918W        W43701   1.941  19.917   0.804
76919W        W43702  32.925  24.636   2.894
76920W        W43703   2.893  27.390  12.341
76921W        W43704  29.658   4.284  13.318
76922W        W43705   4.565   1.494   1.418
76923W        W43706  26.316  21.968   1.528
76924W        W43707  22.577   4.185   3.159
76925W        W43708  21.556  40.167   3.336
76926W        W43709  24.595  19.528   4.088
76927W        W43710  25.658  23.062  13.567
76928W        W43711  15.085  38.802   1.894
76929W        W43712   8.285   3.379  12.823
76930W        W43713   8.960  43.803   4.104
76931W        W43714   8.778  24.316   0.217
76932W        W43715  17.910  28.694   3.211
76933W        W43716  43.325  15.283   3.208
76934W        W43717  20.808  10.213   1.539
76935W        W43718   3.726  43.846  14.045
76936W        W43719  20.062  33.772  14.347
76937W        W43720  29.874  27.798   0.751
76938W        W43721   0.999  10.223  10.615
76939W        W43722  23.715   2.286   3.255
76940W        W43723  17.883  27.366  12.454
76941W        W43724  13.135  36.159  10.076
76942W        W43725  33.238  22.775   4.896
76943W        W43726   4.415  23.466   0.779
76944W        W43727  43.251  31.525  12.040
76945W        W43728  27.468  24.064  14.594
76946W        W43729  18.815  36.127  13.888
76947W        W43730  16.178  18.099  12.916
76948W        W43731  39.649  30.560  14.019
76949W        W43732  26.328   3.876   3.177
76950W        W43733  44.339   2.791   1.814
76951W        W43734  27.642  17.020   0.246
76952W        W43735  27.666   4.796   2.807
76953W        W43736   2.572   7.860  13.001
76954W        W43737  20.374  21.117  11.645
76955W        W43738  25.556   6.024  11.244
76956W        W43739  36.011   2.963  14.084
76957W        W43740  14.314   1.318   3.339
76958W        W43741  16.147  44.800  14.612
76959W        W43742  10.273   8.226  14.668
76960W        W43743  23.002   0.323   2.884
76961W        W43744  17.730  39.103   1.188
76962W        W43745  22.598  15.506   1.920
76963W        W43746  32.402  34.017   1.434
76964W        W43747   5.891  12.021  13.786
76965W        W43748  22.655  18.108  14.448
76966W        W43749  30.244   2.491  12.023
76967W        W43750  42.392  21.010   1.308
76968W        W43751  27.276   7.753   1.334
76969W        W43752  11.796  19.574  11.136
76970W        W43753   6.383  44.614   2.218
76971W        W43754  39.982  21.536   0.502
76972W        W43755  16.395  23.660   4.557
76973W        W43756  14.686   3.114  12.194
76974W        W43757  18.933   2.738   1.824
76975W        W43758  21.159  40.072  12.627
76976W        W43759  15.301  24.243  14.032
76977W        W43760  29.953  44.849   3.979
76978W        W43761  22.665  12.649  12.401
76979W        W43762  12.359  43.695   1.883
76980W        W43763  15.692   2.028  13.910
76981W        W43764  39.317  26.108  12.175
76982W        W43765  25.086  40.342  11.333
76983W        W43766   8.363   5.908  11.946
76984W        W43767  15.725   1.475   3.385
76985W        W43768  23.646   6.592  10.642
76986W        W43769  13.134  19.129   2.374
76987W        W43770  39.056   0.735  14.978
76988W        W43771   9.185   1.854   4.624
76989W        W43772  11.267  35.948  11.173
76990W        W43773  18.735  40.040   1.469
76991W        W43774  21.215  34.702   2.347
76992W        W43775  30.222   7.589   4.250
76993W        W43776  19.940  22.146   1.615
76994W        W43777  17.224  25.792  12.565
76995W        W43778  36.464  42.142  14.820
76996W        W43779  10.678  10.595  13.546
76997W        W43780  22.719   6.898   3.388
76998W        W43781   6.239  35.577  14.429
76999W        W43782  30.837  44.323  10.799
77000W        W43783  33.143  12.690   2.387
77001W        W43784  37.420  10.848   4.367
77002W        W43785  10.397  33.003   4.815
77003W        W43786  11.119   6.821  11.661
77004W        W43787  26.607   9.303   2.615
77005W        W43788  27.676   9.655   1.795
77006W        W43789  25.195   7.769  14.325
77007W        W43790  42.755  17.892  12.836
77008W        W43791   9.369  36.178  11.604
77009W        W43792  31.249  37.947   4.158
77010W        W43793  28.840  43.730  14.837
77011W        W43794  31.299  40.597   3.644
77012W        W43795  33.652   8.966   1.137
77013W        W43796   5.519  26.465   1.296
77014W        W43797  15.817   5.181  12.341
77015W        W43798   6.211  25.267  12.237
77016W        W43799  23.824   6.122   2.155
77017W        W43800  38.745  42.510  13.924
77018W        W43801  27.180  16.406  12.651
77019W        W43802  43.816  33.771   1.237
77020W        W43803  16.571   0.866  12.693
77021W        W43804  44.043  35.624   0.957
77022W        W43805  27.203   8.840  10.548
77023W        W43806  31.442  14.293   2.370
77024W        W43807   9.640  19.484  11.060
77025W        W43808  44.803  16.295  14.815
77026W        W43809  43.209  31.060  13.423
77027W        W43810  32.880  20.481  14.261
77028W        W43811  27.580  27.778   2.850
77029W        W43812  16.807   2.890  11.697
77030W        W43813  43.579  41.602  10.997
77031W        W43814  28.206  38.603   3.217
77032W        W43815  27.157  41.515   0.528
77033W        W43816   0.689  23.913   4.977
77034W        W43817  25.965   3.505  12.021
77035W        W43818  15.227  19.970  12.468
77036W        W43819  41.967   2.405   0.428
77037W        W43820  39.527  32.931  11.591
77038W        W43821   1.377  38.953  10.681
77039W        W43822  13.601  10.344  14.499
77040W        W43823  40.866  27.965   1.289
77041W        W43824  11.895   6.785   0.278
77042W        W43825   2.218  18.129   3.804
77043W        W43826  43.225   7.191  12.289
77044W        W43827   7.306  21.125  12.404
77045W        W43828   5.292  17.345   4.186
77046W        W43829  39.305  21.061   3.573
77047W        W43830  23.336  14.256   0.678
77048W        W43831  36.438  20.530   1.153
77049W        W43832  25.688  22.214   4.603
77050W        W43833   7.480  42.884   2.260
77051W        W43834  20.871  42.841   3.300
77052W        W43835  11.270   7.628  14.339
77053W        W43836  29.511  25.151   4.068
77054W        W43837   4.376  34.927   1.425
77055W        W43838   4.673  18.002   3.223
77056W        W43839   2.235  28.018   2.856
77057W        W43840  37.486  21.612  12.119
77058W        W43841  34.876  36.929   3.236
77059W        W43842  31.833  34.676  13.940
77060W        W43843  31.202  13.186  12.198
77061W        W43844   7.732  16.299  13.883
77062W        W43845  24.883  29.553  14.399
77063W        W43846  17.375  41.269  12.637
77064W        W43847  15.750  40.963  14.067
77065W        W43848  37.601  11.875  12.865
77066W        W43849  26.890  25.107   2.916
77067W        W43850  20.719  22.008   3.819
77068W        W43851  25.941  39.477  11.491
77069W        W43852  22.716   4.415  13.559
77070W        W43853  31.940  30.824  12.540
77071W        W43854  32.107   4.618   0.590
77072W        W43855   2.209   5.633  12.625
77073W        W43856  15.501  23.677   0.385
77074W        W43857  40.998  19.592   1.279
77075W        W43858   3.954  33.978   3.460
77076W        W43859   1.943  33.168   0.741
77077W        W43860  38.815  34.951   5.005
77078W        W43861   1.775  28.073  11.560
77079W        W43862  31.226  44.256  13.793
77080W        W43863  17.047   7.011   0.452
77081W        W43864   9.667  24.822   0.523
77082W        W43865  31.472  38.945   3.085
77083W        W43866   2.242   7.177   0.826
77084W        W43867  26.186   8.761  10.396
77085W        W43868  42.480  33.154   3.789
77086W        W43869  24.870  36.376   4.260
77087W        W43870  16.583  36.159   2.240
77088W        W43871  18.917  12.408  11.020
77089W        W43872   4.569  16.357  11.821
77090W        W43873  13.787  13.609  14.464
77091W        W43874   3.753  32.625  11.996
77092W        W43875  30.046  40.420  12.263
77093W        W43876  27.084  43.767   4.624
77094W        W43877  11.643   6.227  12.504
77095W        W43878  38.043   1.248   0.452
77096W        W43879   7.862  32.138  11.185
77097W        W43880  10.741  36.664   4.854
77098W        W43881  43.307   4.335  11.046
77099W        W43882  10.232   0.995   3.687
77100W        W43883  17.339   9.808   4.815
77101W        W43884  39.821  15.157   1.752
77102W        W43885  34.610  10.993   3.810
77103W        W43886  31.948  13.770   4.400
77104W        W43887  10.631  15.709  11.245
77105W        W43888  44.499  32.165   4.065
77106W        W43889  27.728  34.438   4.135
77107W        W43890   2.342  30.544   0.523
77108W        W43891  20.827  32.566   3.682
77109W        W43892  44.227   0.914  14.444
77110W        W43893   1.986  31.866   1.707
77111W        W43894  23.791  11.614  11.696
77112W        W43895  26.630  14.079   0.762
77113W        W43896   1.341  14.357   4.037
77114W        W43897   0.121  21.655  13.432
77115W        W43898  31.023  43.735  14.844
77116W        W43899  35.076   8.485   4.857
77117W        W43900  23.040  27.922   2.938
77118W        W43901  28.057  33.387  13.190
77119W        W43902  37.253  30.406  12.433
77120W        W43903  34.905   8.967   5.384
77121W        W43904  17.773  23.136   0.767
77122W        W43905  35.206   6.584  11.287
77123W        W43906  31.051  20.707   1.230
77124W        W43907   6.763   4.670  14.769
77125W        W43908   4.734   0.498  14.302
77126W        W43909  14.540  27.220  11.922
77127W        W43910  25.276   8.733  10.977
77128W        W43911   0.786  37.097  12.637
77129W        W43912  32.441   6.723  13.400
77130W        W43913  19.631   5.908   2.742
77131W        W43914  17.107   0.726  11.444
77132W        W43915  31.007   1.640   3.600
77133W        W43916  11.648  29.217  11.191
77134W        W43917  34.823   6.158   3.889
77135W        W43918  16.685  29.915  14.178
77136W        W43919  11.818  34.313   4.552
77137W        W43920  31.112   9.288   1.724
77138W        W43921  11.273  32.897   4.090
77139W        W43922  41.425  32.109  12.143
77140W        W43923  24.086  21.686  11.860
77141W        W43924  17.155  11.738   4.321
77142W        W43925  19.387  13.677   0.210
77143W        W43926   0.715  23.754  13.900
77144W        W43927  10.108  22.174   4.551
77145W        W43928   7.767  37.747   2.887
77146W        W43929  38.002   3.755  12.932
77147W        W43930  19.761  27.925   4.027
77148W        W43931  26.499   6.807  11.630
77149W        W43932  24.769  44.512  14.866
77150W        W43933  44.300  34.915   1.806
77151W        W43934  40.680   5.366   1.851
77152W        W43935   2.890  35.560   2.008
77153W        W43936  10.151  18.804   4.691
77154W        W43937  44.470  31.426  11.603
77155W        W43938  25.569  16.903  10.530
77156W        W43939  21.472   8.109  13.491
77157W        W43940  41.694  24.545   0.525
77158W        W43941  27.539   8.764  12.280
77159W        W43942  16.217   2.983  14.554
77160W        W43943  10.680   9.693  13.534
77161W        W43944   4.419  18.808   0.002
77162W        W43945  27.979  28.918  12.597
77163W        W43946  17.243  29.663  13.561
77164W        W43947  13.057  22.133  13.031
77165W        W43948  19.784   6.984  12.141
77166W        W43949  40.310  12.007   1.429
77167W        W43950   3.824  18.249  12.850
77168W        W43951  18.190  29.778  13.672
77169W        W43952   6.727   0.346   4.133
77170W        W43953   3.502  27.884   1.434
77171W        W43954  34.872   1.952  10.713
77172W        W43955  44.569  25.646  13.390
77173W        W43956  31.853  34.969   1.797
77174W        W43957  31.486  40.747  14.987
77175W        W43958  21.904  11.179   4.270
77176W        W43959  20.595  20.173   1.948
77177W        W43960  14.631  39.613   3.807
77178W        W43961  42.952  36.812   2.382
77179W        W43962  30.573   5.659  13.161
77180W        W43963  23.742   1.895  13.002
77181W        W43964  20.030   8.372  14.196
77182W        W43965  34.275  26.682   5.017
77183W        W43966   8.461  16.105   1.854
77184W        W43967  11.301  21.612   2.524
77185W        W43968  37.379  41.502   1.933
77186W        W43969  37.348   2.819  14.720
77187W        W43970  23.299  19.570  14.256
77188W        W43971  28.230  25.051   3.793
77189W        W43972  34.272  11.262  13.819
77190W        W43973  19.641  37.319   3.392
77191W        W43974  13.530  39.754  11.465
77192W        W43975  33.752   4.182   2.899
77193W        W43976  10.218  16.224   3.959
77194W        W43977  30.589  42.464   4.152
77195W        W43978   6.615  34.504  13.577
77196W        W43979  32.822  21.083  12.632
77197W        W43980  24.106  22.301  11.517
77198W        W43981  31.878  28.618   4.122
77199W        W43982  13.934  25.537  10.704
77200W        W43983  32.920  34.095   4.595
77201W        W43984   4.734  30.387   3.347
77202W        W43985   2.319  18.918   1.421
77203W        W43986   8.004  32.373   5.021
77204W        W43987  31.146   5.973  14.339
77205W        W43988   0.244   5.606  10.931
77206W        W43989  30.150  23.061  10.557
77207W        W43990  18.031  17.908   2.212
77208W        W43991  26.900  32.902   1.259
77209W        W43992  41.332  30.516  13.630
77210W        W43993  16.361  29.137  11.422
77211W        W43994  19.465  26.465   2.843
77212W        W43995  27.256  31.709  11.573
77213W        W43996   5.841   5.082   4.737
77214W        W43997   8.926  20.575   3.381
77215W        W43998  24.614  21.853   3.796
77216W        W43999   0.457  27.155  10.778
77217W        W44000  34.488  19.787  12.106
77218W        W44001  44.287   3.922  12.972
77219W        W44002  14.940  44.283  13.127
77220W        W44003  30.184  40.813   0.351
77221W        W44004  19.845   9.683  12.537
77222W        W44005  28.115  40.422  12.184
77223W        W44006  27.548  15.388   0.765
77224W        W44007  33.954  35.689  12.417
77225W        W44008  16.150  28.920   2.992
77226W        W44009   1.848  27.694  13.865
77227W        W44010  15.086  34.907   1.933
77228W        W44011  28.177  27.408   1.446
77229W        W44012  40.867  17.178   2.858
77230W        W44013  31.889  33.892  11.696
77231W        W44014  28.565  39.299  14.796
77232W        W44015   0.997   3.340  14.378
77233W        W44016  39.703  14.760   0.826
77234W        W44017  41.946  28.515   0.376
77235W        W44018   4.082   2.262  11.164
77236W        W44019  30.165  28.095   2.541
77237W        W44020   8.372  38.371  14.071
77238W        W44021  11.648  14.581   1.876
77239W        W44022  38.063  38.124   1.914
77240W        W44023  33.523  44.922   1.745
77241W        W44024  29.038  34.978  12.453
77242W        W44025  28.621  11.261   2.381
77243W        W44026  21.337   9.595   2.691
77244W        W44027  20.113  13.639   4.347
77245W        W44028   0.055  23.708   0.567
77246W        W44029  12.079  26.727  10.609
77247W        W44030  32.723  20.748   0.721
77248W        W44031  20.787  37.007  14.322
77249W        W44032  40.249  36.482   2.839
77250W        W44033  41.620  13.102  14.375
77251W        W44034  23.014  17.257  12.682
77252W        W44035   7.397  22.459   2.269
77253W        W44036  30.005  28.662  10.562
77254W        W44037  36.013  23.720  10.651
77255W        W44038   8.192  23.761   0.993
77256W        W44039  34.074  44.237  13.127
77257W        W44040  11.101  22.132   4.588
77258W        W44041  21.741   9.746  14.910
77259W        W44042  43.837  28.599   3.919
77260W        W44043  22.063  33.618  13.994
77261W        W44044   3.887  38.367   0.129
77262W        W44045  23.082  29.438  10.434
77263W        W44046  17.020  18.613   3.555
77264W        W44047  26.568  19.212   1.641
77265W        W44048  30.591  13.496  12.124
77266W        W44049  35.055  15.144  14.368
77267W        W44050  32.152  19.704   2.823
77268W        W44051  32.888  12.811  14.761
77269W        W44052  31.319  33.018   2.860
77270W        W44053  37.729   7.003   0.308
77271W        W44054  35.311  10.185  10.212
77272W        W44055   4.727  42.466   4.704
77273W        W44056  17.857  22.269   3.781
77274W        W44057  18.393  43.717   3.294
77275W        W44058  40.751  27.236   0.670
77276W        W44059  27.243  18.811  13.689
77277W        W44060  11.838  17.531  13.484
77278W        W44061  18.827  11.556  11.212
77279W        W44062  35.466   7.372   0.245
77280W        W44063  25.768  15.967   1.853
77281W        W44064  15.545  43.874  10.634
77282W        W44065  35.304  14.633  11.214
77283W        W44066   5.167  20.242   4.086
77284W        W44067  33.332   6.304  10.099
77285W        W44068  41.741  22.036   1.820
77286W        W44069   4.761  40.139   3.408
77287W        W44070  20.484  13.256   4.504
77288W        W44071  43.486  12.311   4.210
77289W        W44072   7.677   1.385  14.765
77290W        W44073  23.978  40.911  11.078
77291W        W44074  11.290   9.614   1.290
77292W        W44075  29.127  30.384   0.945
77293W        W44076  18.458  29.953   1.776
77294W        W44077  32.893  13.581  11.122
77295W        W44078  11.097  37.516   1.362
77296W        W44079  22.350   7.074   5.525
77297W        W44080  27.629  43.909   3.057
77298W        W44081   1.397  32.816  12.451
77299W        W44082  20.564  28.002  14.808
77300W        W44083  26.762  38.150   0.949
77301W        W44084  44.805  13.608   3.522
77302W        W44085   1.501  33.361  10.002
77303W        W44086  33.507   5.440  10.676
77304W        W44087   4.011  33.071   4.269
77305W        W44088  11.120  16.261  14.070
77306W        W44089  33.449  27.172  13.858
77307W        W44090  23.108   8.453   2.215
77308W        W44091  42.288  37.342   4.345
77309W        W44092  26.513  23.834  10.691
77310W        W44093  30.102  36.248  13.383
77311W        W44094   9.261  43.316  12.081
77312W        W44095  44.342  11.169  13.986
77313W        W44096  40.200   1.226   1.016
77314W        W44097  26.942  21.671   3.225
77315W        W44098  29.897  30.475  12.209
77316W        W44099  10.585  27.517   2.998
77317W        W44100  21.539  14.624  13.138
77318W        W44101   0.996  42.904   2.766
77319W        W44102  37.114   1.463   2.264
77320W        W44103  42.682  27.368   3.353
77321W        W44104  24.080   1.549  14.441
77322W        W44105  24.768  33.602  11.292
77323W        W44106  22.304  42.804  10.475
77324W        W44107  37.396  39.352   2.869
77325W        W44108  35.820  25.033   2.702
77326W        W44109  26.958  30.073  10.668
77327W        W44110  34.670   7.482  11.205
77328W        W44111  21.482  43.831  14.974
77329W        W44112  44.859  20.651  13.864
77330W        W44113  26.028   4.814   1.279
77331W        W44114  37.320   5.867  14.396
77332W        W44115  36.086  27.067  13.273
77333W        W44116   4.230  11.167  12.341
77334W        W44117  17.260  24.076  13.987
77335W        W44118  15.602  19.361   4.184
77336W        W44119  42.837   9.887   0.013
77337W        W44120  18.797  37.756   2.291
77338W        W44121  35.645  32.417   3.178
77339W        W44122  21.192  10.133   5.003
77340W        W44123  19.427  25.846   4.926
77341W        W44124  18.436  33.638   4.418
77342W        W44125  10.286  18.751  10.744
77343W        W44126  31.680  23.038   1.360
77344W        W44127   8.288  30.762   1.861
77345W        W44128  22.272  30.244  11.893
77346W        W44129  27.634  24.269  10.753
77347W        W44130  16.996  43.269  13.540
77348W        W44131  40.942  20.201   0.427
77349W        W44132  25.736  31.508  13.665
77350W        W44133  19.568  26.035   1.079
77351W        W44134  16.528   0.737  13.188
77352W        W44135  31.142  42.838   0.434
77353W        W44136   3.437  37.534   5.161
77354W        W44137  32.559  30.795   2.021
77355W        W44138  39.935  30.614   2.117
77356W        W44139  21.782   9.298   0.484
77357W        W44140  41.303  26.664   0.357
77358W        W44141  22.064  17.152  12.515
77359W        W44142  28.855   6.937   3.215
77360W        W44143  17.947  13.575   0.093
77361W        W44144  38.013  29.555   4.926
77362W        W44145  21.809  10.913  12.920
77363W        W44146  15.350  40.165   4.239
77364W        W44147  40.320  34.833   1.163
77365W        W44148  28.410   8.823   1.209
77366W        W44149  30.103   0.778   1.292
77367W        W44150  23.460  35.880  10.686
77368W        W44151  41.981  36.263   1.701
77369W        W44152   4.457   3.909   4.830
77370W        W44153  14.835   6.344  14.454
77371W        W44154  42.916   8.032   3.315
77372W        W44155  12.736  35.825   4.391
77373W        W44156   0.953  36.262  13.544
77374W        W44157  25.442  26.435  11.557
77375W        W44158  22.202   4.484   4.577
77376W        W44159  21.459   5.356   0.418
77377W        W44160   2.429  40.856   3.148
77378W        W44161  22.051   0.277  12.291
77379W        W44162   6.841   7.653  12.897
77380W        W44163  23.280  37.412  14.653
77381W        W44164  11.441  13.560  11.173
77382W        W44165  25.151  35.463   4.109
77383W        W44166  37.867  31.918   3.591
77384W        W44167  17.355  34.489  13.375
77385W        W44168  10.539  22.031  11.033
77386W        W44169   6.744   3.395  11.519
77387W        W44170  40.865  20.518   4.146
77388W        W44171  39.344   5.668   4.625
77389W        W44172  20.742  26.923  10.477
77390W        W44173   6.925  15.843   1.283
77391W        W44174  28.956   9.381   3.632
77392W        W44175   2.061   9.903  13.577
77393W        W44176  31.974  24.788   2.758
77394W        W44177  39.813  37.943   3.565
77395W        W44178  17.650   7.791  14.895
77396W        W44179  41.925   5.387   3.959
77397W        W44180  18.171  16.095  13.899
77398W        W44181  36.891  33.520   2.287
77399W        W44182  27.677  40.360   1.331
77400W        W44183  41.007  36.633  12.926
77401W        W44184  14.828   7.802   4.728
77402W        W44185  15.347   3.842  14.752
77403W        W44186  23.401  24.559  14.876
77404W        W44187   7.596  24.648  12.396
77405W        W44188  29.939  24.778   1.342
77406W        W44189  37.584  36.988  14.297
77407W        W44190  32.963  36.619  14.786
77408W        W44191   3.335  36.439   3.363
77409W        W44192  39.410  19.174   0.670
77410W        W44193  32.923  38.532  13.795
77411W        W44194  21.208  27.522   1.807
77412W        W44195  24.771   8.551  13.021
77413W        W44196  12.034  38.845   4.508
77414W        W44197  21.228  10.267  14.194
77415W        W44198  35.399  15.649  14.477
77416W        W44199  36.016   4.897  12.948
77417W        W44200   1.941  32.542   2.272
77418W        W44201  27.959  18.096   2.281
77419W        W44202  13.554  27.687  12.027
77420W        W44203   0.490   3.331  14.934
77421W        W44204  25.238  10.646   3.301
77422W        W44205  42.522  31.618  14.480
77423W        W44206  10.602  27.018   2.315
77424W        W44207  36.612  35.155  14.761
77425W        W44208   4.621   0.996   2.683
77426W        W44209  15.233  10.892   0.436
77427W        W44210   7.379  30.554   4.617
77428W        W44211   4.686  24.657  11.584
77429W        W44212  29.401  27.485  10.716
77430W        W44213  13.574   2.270  11.498
77431W        W44214  13.575  22.055  11.938
77432W        W44215   5.883   1.278  11.400
77433W        W44216   0.377  12.962  11.486
77434W        W44217  31.950  29.091   1.801
77435W        W44218  43.919  30.580  13.027
77436W        W44219  14.132   3.872  14.322
77437W        W44220   9.432  20.832  12.081
77438W        W44221   1.942  32.366   1.785
77439W        W44222  17.253  37.847   1.513
77440W        W44223  37.834  39.202  13.987
77441W        W44224  29.681  40.414  14.512
77442W        W44225  33.556  22.687  11.580
77443W        W44226  27.721  12.132   1.865
77444W        W44227   6.952  10.283  11.462
77445W        W44228   5.853  44.746  11.154
77446W        W44229  30.577  15.256  12.445
77447W        W44230   2.242   5.700   1.960
77448W        W44231  42.298  42.996   0.118
77449W        W44232  23.411  11.575   3.191
77450W        W44233  35.140  18.258  11.179
77451W        W44234  10.027  21.336   5.314
77452W        W44235   2.190   2.382   4.250
77453W        W44236  40.038  39.201   4.047
77454W        W44237  37.977  40.017  12.787
77455W        W44238  40.879   0.062   3.717
77456W        W44239   7.177  20.251   1.415
77457W        W44240  12.109  13.586   4.884
77458W        W44241  25.698  15.786   0.239
77459W        W44242  24.501  35.917  13.869
77460W        W44243  21.230  23.360  14.012
77461W        W44244   0.325  21.487   4.156
77462W        W44245  12.375  43.339   1.484
77463W        W44246  19.658  38.869   0.432
77464W        W44247  39.536  44.240   0.425
77465W        W44248  41.798  39.275   4.180
77466W        W44249  12.317   2.291  14.213
77467W        W44250   7.370   6.882  12.124
77468W        W44251  33.366  31.253   1.754
77469W        W44252  14.150  26.389   3.752
77470W        W44253   0.446  42.529  13.460
77471W        W44254  28.479  28.139   5.040
77472W        W44255  18.085   8.097   3.239
77473W        W44256   4.303  16.837  12.053
77474W        W44257  37.992  28.364  14.306
77475W        W44258   6.510  33.512  10.468
77476W        W44259   5.839   1.797   1.282
77477W        W44260  43.561  10.206  11.563
77478W        W44261   4.758  18.645  14.263
77479W        W44262  44.306  34.261  11.253
77480W        W44263   0.807  37.853   2.747
77481W        W44264  44.398  16.737  14.476
77482W        W44265   5.345  23.940  11.635
77483W        W44266  23.204  19.003   0.966
77484W        W44267  18.287  28.213   0.292
77485W        W44268  13.870   2.390  13.175
77486W        W44269   5.824  35.854   4.703
77487W        W44270   6.500  34.496  13.009
77488W        W44271  34.551  13.881   4.568
77489W        W44272  31.495  44.741  12.479
77490W        W44273   1.490  12.377  14.694
77491W        W44274  28.079  16.373  12.284
77492W        W44275  17.070  27.872   2.925
77493W        W44276  20.971  40.816   3.660
77494W        W44277  17.300   0.425   1.298
77495W        W44278  17.689  37.143   2.302
77496W        W44279   2.448  35.957   4.528
77497W        W44280  19.572  19.552  10.905
77498W        W44281  21.972  19.558  14.420
77499W        W44282  31.592  30.752   1.876
77500W        W44283  38.607  29.794  11.073
77501W        W44284   2.545  12.036  10.092
77502W        W44285   3.247   9.327  13.799
77503W        W44286  16.103  15.370   3.340
77504W        W44287  22.628   8.263   4.674
77505W        W44288   9.007  15.005   0.929
77506W        W44289   0.729  16.579   1.138
77507W        W44290   6.422  27.100  12.904
77508W        W44291   2.231  17.086   1.442
77509W        W44292  27.653  37.146   2.174
77510W        W44293  23.861  29.814  14.381
77511W        W44294  32.524   2.155  14.884
77512W        W44295  33.412  15.641  11.039
77513W        W44296  19.114  23.597  13.956
77514W        W44297   5.485  16.325  12.526
77515W        W44298  31.591  34.617  13.431
77516W        W44299  19.266  37.594   2.142
77517W        W44300  22.788  32.362  10.396
77518W        W44301  36.093  44.664  12.320
77519W        W44302  15.571  20.851  11.618
77520W        W44303  42.451  16.249  11.042
77521W        W44304  20.954  16.980  14.356
77522W        W44305  40.899  26.914  10.698
77523W        W44306  38.834  18.015   2.786
77524W        W44307  13.246  24.028   0.614
77525W        W44308  16.654   8.712  10.641
77526W        W44309  20.926  28.605  14.770
77527W        W44310   2.648  36.514  10.679
77528W        W44311  28.820  39.956  12.151
77529W        W44312  41.735  11.489  11.612
77530W        W44313  19.458  27.491  11.178
77531W        W44314   6.752   1.453   2.323
77532W        W44315   4.866   5.831   0.467
77533W        W44316   5.878   5.446   3.342
77534W        W44317  39.933  38.797  13.995
77535W        W44318  24.692  14.778   2.291
77536W        W44319  32.063  16.800  13.801
77537W        W44320  19.913  23.259   4.044
77538W        W44321  13.568  34.386  13.238
77539W        W44322  36.490   9.801   3.254
77540W        W44323  31.055  40.357   3.193
77541W        W44324  41.537  40.139  12.181
77542W        W44325  31.056  41.088   1.252
77543W        W44326  36.370  16.274   4.393
77544W        W44327  34.534  12.194   4.399
77545W        W44328  16.530  17.560   2.752
77546W        W44329  43.809  40.965   3.796
77547W        W44330  16.670   3.691  11.065
77548W        W44331   2.751  35.829   1.302
77549W        W44332  12.970  18.537   4.823
77550W        W44333  13.742  10.319   1.582
77551W        W44334  33.163  37.101  14.007
77552W        W44335  31.245  29.777  13.958
77553W        W44336  21.368  33.532   3.053
77554W        W44337  30.849  36.808  11.471
77555W        W44338  10.371  24.726  14.772
77556W        W44339  11.602  16.597  11.217
77557W        W44340  18.355  30.422   1.386
77558W        W44341  28.448   5.304  12.896
77559W        W44342  12.573  29.000  14.410
77560W        W44343  37.927  20.775  14.101
77561W        W44344  26.700   2.532  13.055
77562W        W44345  41.970  21.736  14.207
77563W        W44346  40.908  23.809  13.861
77564W        W44347  10.507  36.490  11.032
77565W        W44348  42.002  13.186  10.821
77566W        W44349  16.721   6.424   1.706
77567W        W44350   6.493   1.819   0.878
77568W        W44351   2.752  14.594   2.239
77569W        W44352  33.884  30.086  12.552
77570W        W44353  28.494  19.627   1.493
77571W        W44354  27.965  43.330   4.618
77572W        W44355  17.787  30.895   1.790
77573W        W44356   1.263  25.054  10.439
77574W        W44357  38.965  26.636   0.854
77575W        W44358  33.721   0.534  11.290
77576W        W44359  14.705  42.281   0.898
77577W        W44360  26.096   6.729   4.796
77578W        W44361  31.195   2.277  12.888
77579W        W44362  15.540  10.470   0.785
77580W        W44363   6.334   0.512  13.421
77581W        W44364  41.779  12.584  10.330
77582W        W44365  26.189  18.148   3.878
77583W        W44366  25.047  23.687  10.706
77584W        W44367  19.950  17.963   2.316
77585W        W44368  17.687  10.841   0.199
77586W        W44369  30.645  44.493   1.395
77587W        W44370  19.053   9.415   1.658
77588W        W44371  23.806  37.217  13.065
77589W        W44372  20.098  39.911   2.341
77590W        W44373  39.364  26.276   4.092
77591W        W44374  11.296   6.600  13.386
77592W        W44375  41.440   4.319  11.644
77593W        W44376   4.297   5.900   3.180
77594W        W44377  41.776  20.924   3.679
77595W        W44378   2.940  19.167   0.040
77596W        W44379  29.979  22.157   1.311
77597W        W44380  36.951  11.288   3.442
77598W        W44381   6.772  24.484   0.886
77599W        W44382  20.665  10.932   1.192
77600W        W44383  27.231  10.052  10.968
77601W        W44384  41.025  44.771   0.824
77602W        W44385  35.903  11.694   0.348
77603W        W44386  11.015  40.633   2.262
77604W        W44387  17.498  44.879   2.685
77605W        W44388  17.234  12.651  13.050
77606W        W44389  10.910  13.017   3.258
77607W        W44390  20.538  17.747  10.115
77608W        W44391  24.703  40.947  13.025
77609W        W44392  44.900  15.409  13.164
77610W        W44393  22.656  10.600   4.987
77611W        W44394  40.294  17.006   3.200
77612W        W44395  26.387   1.383  12.161
77613W        W44396  22.894   7.070  14.669
77614W        W44397  44.994  19.832  11.770
77615W        W44398  15.177  24.002   3.680
77616W        W44399   8.149  29.938  13.256
77617W        W44400  36.128  22.209  14.421
77618W        W44401  31.042  28.295   4.088
77619W        W44402   3.930   1.973   0.224
77620W        W44403  41.212  22.091   1.862
77621W        W44404   9.052   9.609  11.447
77622W        W44405   7.121  24.093  10.412
77623W        W44406  28.031  26.951  12.071
77624W        W44407  31.061  14.799  11.443
77625W        W44408   7.653  40.731  13.920
77626W        W44409  11.677  38.853  11.107
77627W        W44410  30.440  17.554  12.392
77628W        W44411  41.790  14.633   3.714
77629W        W44412   5.758   9.876  13.519
77630W        W44413   5.245  27.505   3.239
77631W        W44414  42.439  16.896  12.211
77632W        W44415  15.513   8.450  10.221
77633W        W44416  27.245  29.500  13.625
77634W        W44417   4.441   2.805  12.327
77635W        W44418  25.247  29.145   2.820
77636W        W44419  34.605  42.310  12.086
77637W        W44420  34.884   2.194   4.168
77638W        W44421  24.840   0.793  11.628
77639W        W44422   3.795  25.253   1.387
77640W        W44423   6.893  35.776   4.733
77641W        W44424  32.740  34.925  12.409
77642W        W44425  22.085   6.125  10.949
77643W        W44426  43.950   4.276   3.386
77644W        W44427   5.278  10.336   0.958
77645W        W44428  33.660   8.450  10.273
77646W        W44429  22.662   2.722  12.935
77647W        W44430  34.020  41.827  14.002
77648W        W44431  34.936  10.734  11.566
77649W        W44432   2.449  14.367  11.950
77650W        W44433  23.091   8.157   3.583
77651W        W44434  43.833  24.937  11.624
77652W        W44435  36.333  23.640  14.102
77653W        W44436  10.515  34.983   2.428
77654W        W44437   9.843  19.787  11.403
77655W        W44438  20.467  42.668   4.918
77656W        W44439  31.237   6.697  11.060
77657W        W44440  17.645  18.076  13.983
77658W        W44441  20.278  24.711   0.823
77659W        W44442  13.159  19.467   4.109
77660W        W44443   2.660  17.010  14.257
77661W        W44444   3.956  15.802   1.670
77662W        W44445  28.581  18.998  12.377
77663W        W44446  18.783  28.436  10.668
77664W        W44447   4.958  28.875   2.792
77665W        W44448  25.235  15.580   3.416
77666W        W44449  30.646   6.021  12.309
77667W        W44450   0.984  30.942   4.601
77668W        W44451  13.610  35.449   1.003
77669W        W44452  40.597  29.430   4.596
77670W        W44453  43.970   1.194  14.833
77671W        W44454   8.937  26.046   4.564
77672W        W44455  40.185  14.518   4.079
77673W        W44456  11.407   2.516  12.526
77674W        W44457  20.438   5.039   0.410
77675W        W44458   5.879  21.133  14.043
77676W        W44459   2.686  44.050   2.704
77677W        W44460  39.619  42.476   4.141
77678W        W44461  32.570  36.975  14.710
77679W        W44462  40.363  39.234  12.409
77680W        W44463  41.811  43.977  11.552
77681W        W44464  40.306  28.972  14.240
77682W        W44465  39.950  20.344   3.088
77683W        W44466  37.116  33.068  11.538
77684W        W44467   7.884  19.571   2.219
77685W        W44468  10.741  42.693   0.951
77686W        W44469  11.997  32.000  14.488
77687W        W44470  33.610  14.719  11.411
77688W        W44471  14.238  33.336  14.461
77689W        W44472  30.059  12.740  10.609
77690W        W44473   6.693  38.613   3.741
77691W        W44474  23.223  15.761  14.137
77692W        W44475  42.149   6.489  13.737
77693W        W44476  44.963  24.013   2.789
77694W        W44477   7.260  16.541  13.017
77695W        W44478  29.183  24.764  11.959
77696W        W44479  37.241  26.526  11.612
77697W        W44480  26.572  32.186  12.065
77698W        W44481  26.021   6.364   1.135
77699W        W44482  36.095  28.481  14.785
77700W        W44483  17.833   4.895   3.623
77701W        W44484  22.268   3.395  12.386
77702W        W44485  41.796  14.276  13.520
77703W        W44486  14.210   2.505   3.717
77704W        W44487  31.145  25.315   5.042
77705W        W44488  11.387  31.961  10.798
77706W        W44489  23.666   9.900  13.284
77707W        W44490  38.383  31.129  11.129
77708W        W44491   2.300  20.097   3.207
77709W        W44492  12.563  33.365  12.828
77710W        W44493  37.493  39.499   2.374
77711W        W44494   7.112  19.274  13.386
77712W        W44495  20.674  14.645  13.906
77713W        W44496  32.172  29.845  12.674
77714W        W44497  12.295  42.068   1.239
77715W        W44498  20.608  17.314  13.448
77716W        W44499  19.883  26.328  14.879
77717W        W44500  11.086   9.773  14.528
77718W        W44501  16.520  13.253  13.418
77719W        W44502   7.803  22.752   0.253
77720W        W44503  27.192  31.939   4.961
77721W        W44504  28.196  29.892  12.160
77722W        W44505  37.057  35.568   0.833
77723W        W44506  34.977  26.908  14.065
77724W        W44507  34.533  33.385   0.380
77725W        W44508   9.339  44.925   1.804
77726W        W44509  40.468  14.896  14.755
77727W        W44510   4.766  37.921   5.146
77728W        W44511  14.866   4.685   0.782
77729W        W44512  27.929  41.732  11.278
77730W        W44513  17.051  32.853  13.084
77731W        W44514  14.859  16.611   2.829
77732W        W44515   4.567  24.012  11.135
77733W        W44516  26.099   1.151  13.908
77734W        W44517   2.497  39.427  14.473
77735W        W44518  42.231  30.498   2.871
77736W        W44519  35.596  39.467  14.316
77737W        W44520  33.281   5.796  10.111
77738W        W44521  44.667   3.682  12.677
77739W        W44522  16.452   7.459   3.690
77740W        W44523  41.323  33.050   4.197
77741W        W44524  37.450  11.293  11.691
77742W        W44525  19.542  25.837  14.140
77743W        W44526   3.295  36.035  12.461
77744W        W44527   6.379   3.192  10.332
77745W        W44528  40.453  31.323   2.033
77746W        W44529  23.306  22.275   2.280
77747W        W44530  20.658  29.116   4.794
77748W        W44531  44.931   7.342  13.917
77749W        W44532  27.307  34.879  13.992
77750W        W44533  32.010  24.562   0.929
77751W        W44534  25.183  43.589  11.486
77752W        W44535  43.306   6.254  14.291
77753W        W44536  29.118  20.759  14.555
77754W        W44537  24.997  31.527  14.991
77755W        W44538  35.751   4.922  10.733
77756W        W44539  10.254  11.819  10.493
77757W        W44540  17.759   1.728  12.046
77758W        W44541  16.455  27.432  11.210
77759W        W44542  34.329  16.818  14.904
77760W        W44543  33.072  44.529  12.015
77761W        W44544   4.372  29.537  10.743
77762W        W44545  23.268  38.834   2.297
77763W        W44546  42.974  27.577   2.313
77764W        W44547   0.119  10.791  11.996
77765W        W44548  44.501  10.165  13.972
77766W        W44549   2.910  36.501  11.135
77767W        W44550  32.807  16.620  14.909
77768W        W44551  25.618  28.390   4.687
77769W        W44552  23.611  10.287  11.668
77770W        W44553  20.953  19.696   4.657
77771W        W44554  14.727  39.084  14.566
77772W        W44555  31.245   2.385   2.320
77773W        W44556   0.488  37.624  14.430
77774W        W44557  17.832  42.233  11.135
77775W        W44558   2.943   3.904   0.224
77776W        W44559  27.201  13.219   3.158
77777W        W44560  42.333  12.525  12.870
77778W        W44561  40.888   6.368   3.666
77779W        W44562  12.338  34.600   1.283
77780W        W44563  34.113  16.867   4.027
77781W        W44564   2.676  43.926   3.866
77782W        W44565  41.306  12.379   1.830
77783W        W44566  40.099   2.871   3.378
77784W        W44567   4.260  12.584  14.269
77785W        W44568  33.632  33.655   1.468
77786W        W44569   2.283   1.475   4.143
77787W        W44570  41.012  21.339  10.734
77788W        W44571  13.978  17.178  12.131
77789W        W44572  16.698   4.124  10.787
77790W        W44573   1.822  31.453   3.883
77791W        W44574   4.570   1.396  11.134
77792W        W44575  20.775  41.884  13.997
77793W        W44576  39.455   2.404   3.273
77794W        W44577  22.751  14.160   4.284
77795W        W44578  29.571  10.232  10.180
77796W        W44579  33.299  33.151   2.101
77797W        W44580  42.928   2.878   3.895
77798W        W44581  33.103  14.568  13.401
77799W        W44582  32.784  30.913   0.762
77800W        W44583  12.105  34.640   4.848
77801W        W44584  27.630  38.628   0.824
77802W        W44585  38.773  17.851  14.378
77803W        W44586  16.914   1.259   2.848
77804W        W44587  36.117  20.555  11.242
77805W        W44588  35.139  27.956  12.602
77806W        W44589  13.355  15.721  12.528
77807W        W44590  34.902  25.231  13.044
77808W        W44591   6.398  28.964   1.815
77809W        W44592  43.336  21.782  13.986
77810W        W44593  11.325  13.846   2.267
77811W        W44594  37.579  11.723   4.344
77812W        W44595  20.463  16.703   4.334
77813W        W44596  28.932  41.090  14.678
77814W        W44597  27.154  32.854   0.313
77815W        W44598  14.498   5.369   0.493
77816W        W44599   8.208  14.294  12.852
77817W        W44600  25.755  42.095   4.210
77818W        W44601  36.244  26.950   3.193
77819W        W44602  11.956  32.232  13.075
77820W        W44603  28.218  21.247  11.549
77821W        W44604  25.622  28.735   1.171
77822W        W44605  24.125  20.736  12.031
77823W        W44606   4.718  41.915   2.834
77824W        W44607  34.911  13.122  14.685
77825W        W44608   9.705   4.077  11.789
77826W        W44609  39.754  18.662   1.922
77827W        W44610  20.337  36.547  13.691
77828W        W44611   3.751  13.586  14.404
77829W        W44612  29.426  15.057  11.533
77830W        W44613  26.128  13.773  13.234
77831W        W44614  27.875  26.515  11.827
77832W        W44615  19.995  29.908  10.558
77833W        W44616  42.656   6.847  13.030
77834W        W44617  32.597  14.624   4.703
77835W        W44618  42.802  42.789  12.064
77836W        W44619  31.653  42.984  12.934
77837W        W44620   4.965  25.546   0.297
77838W        W44621   1.298  11.667   0.405
77839W        W44622  24.798  38.546   3.763
77840W        W44623  40.918  40.977   0.883
77841W        W44624  21.563   1.982  13.435
77842W        W44625  43.312  41.712  11.959
77843W        W44626  10.221  13.620   0.312
77844W        W44627  32.874  34.377  12.240
77845W        W44628   0.824  12.087   0.859
77846W        W44629  24.320  38.399   0.617
77847W        W44630   6.565  36.609   1.976
77848W        W44631  17.165   7.208  12.454
77849W        W44632  44.980  27.720   0.558
77850W        W44633  37.998  41.769  12.951
77851W        W44634  34.392  31.651  10.406
77852W        W44635  33.516  39.482  12.942
77853W        W44636  30.763  42.969  14.442
77854W        W44637   0.058  38.735   2.197
77855W        W44638  16.732  22.028  13.603
77856W        W44639  22.676  31.830   3.604
77857W        W44640  20.785   8.115   1.107
77858W        W44641   3.326  13.374   5.014
77859W        W44642  32.624  16.021   0.502
77860W        W44643  23.539  17.204  11.053
77861W        W44644  12.281  27.016   4.509
77862W        W44645  35.116   3.282   3.354
77863W        W44646  28.523  27.467  10.628
77864W        W44647  17.656  12.818   9.814
77865W        W44648  34.840   7.304  13.527
77866W        W44649  33.379   5.678   2.365
77867W        W44650  18.084  35.198  11.864
77868W        W44651  39.516  19.240   4.211
77869W        W44652  31.663  39.354   3.368
77870W        W44653  31.710  42.943  12.117
77871W        W44654   8.906   7.852   0.284
77872W        W44655  15.632   0.765   0.452
77873W        W44656  36.332  21.859   3.257
77874W        W44657  10.007  38.318   4.502
77875W        W44658  17.202   6.891   3.900
77876W        W44659   6.835  34.074   3.705
77877W        W44660  29.894  14.833   3.654
77878W        W44661  12.889  34.020   2.833
77879W        W44662   0.839  20.044  11.587
77880W        W44663  25.653  10.301   0.684
77881W        W44664  40.906  36.276  12.041
77882W        W44665  28.112  43.912  11.912
77883W        W44666  10.325   1.893   1.389
77884W        W44667   1.350  31.576  13.415
77885W        W44668  33.465   8.801   1.605
77886W        W44669  19.574  37.581  13.038
77887W        W44670  20.280  41.308   0.012
77888W        W44671  26.161   3.650   4.998
77889W        W44672  27.086  18.918  10.776
77890W        W44673  37.638  20.540   0.892
77891W        W44674   0.287  25.424   2.611
77892W        W44675   0.841  11.641  13.937
77893W        W44676  39.694  24.260  11.034
77894W        W44677   0.541   9.165  14.104
77895W        W44678   3.190   1.039   0.851
77896W        W44679  26.214   8.867  13.479
77897W        W44680  39.883   7.338   2.270
77898W        W44681  37.704  24.314   3.402
77899W        W44682  14.256  20.015  10.828
77900W        W44683   8.741  30.190  12.997
77901W        W44684  19.529  35.525   2.475
77902W        W44685  17.770  13.848   2.899
77903W        W44686  44.008  36.050  11.173
77904W        W44687  16.552  21.286  14.529
77905W        W44688  26.681  18.259   3.669
77906W        W44689  32.412  23.164   3.193
77907W        W44690  35.644  43.930  11.973
77908W        W44691  26.682  18.203   2.123
77909W        W44692  28.712  37.944  13.062
77910W        W44693  21.022  39.992  13.450
77911W        W44694  33.715  43.202   3.297
77912W        W44695  12.153  34.882   3.497
77913W        W44696   9.420  12.701   1.328
77914W        W44697  19.285   2.353  13.049
77915W        W44698  16.751  19.104   0.830
77916W        W44699  35.557  40.476   4.415
77917W        W44700  16.059  17.168  12.906
77918W        W44701  25.742  11.319   3.672
77919W        W44702  11.859  41.652   4.590
77920W        W44703  34.614   4.740  13.584
77921W        W44704  41.485  13.419   3.335
77922W        W44705  34.009  29.572   2.564
77923W        W44706  32.301  18.177   0.730
77924W        W44707  36.464  35.187   3.415
77925W        W44708   4.779  37.068   0.479
77926W        W44709  34.259   1.353  13.795
77927W        W44710  37.004   6.891  13.852
77928W        W44711  18.708  16.932   5.605
77929W        W44712  12.283  33.391   2.791
77930W        W44713  17.096  16.703  12.417
77931W        W44714  17.740  19.312  11.807
77932W        W44715  41.394  24.963  11.305
77933W        W44716  35.556  38.952  12.521
77934W        W44717   2.677  10.096   4.243
77935W        W44718  32.803  36.286  12.010
77936W        W44719  11.652   0.845  12.882
77937W        W44720   1.986  44.780   1.712
77938W        W44721  26.254  42.534  13.428
77939W        W44722  37.500  24.714   4.043
77940W        W44723  27.509  29.027  13.415
77941W        W44724  26.238  26.678   0.948
77942W        W44725  22.449  28.881   1.871
77943W        W44726  22.644  38.367   1.858
77944W        W44727   9.127  44.454   0.807
77945W        W44728  43.451  19.713  13.054
77946W        W44729  25.503   4.216  14.465
77947W        W44730  26.116  31.968   2.854
77948W        W44731  24.113  33.654   4.598
77949W        W44732  22.355  14.308  14.128
77950W        W44733  30.148   5.230   3.282
77951W        W44734   3.854  37.855  11.579
77952W        W44735  34.512  34.022  10.921
77953W        W44736   1.539  18.826   4.305
77954W        W44737   2.007  21.464  11.148
77955W        W44738   4.001   1.862   5.006
77956W        W44739  32.105  38.345  13.142
77957W        W44740  35.171  30.016  13.371
77958W        W44741  16.307  21.253  13.518
77959W        W44742  10.738  37.881   3.272
77960W        W44743  32.275  17.509   9.997
77961W        W44744  36.359  16.380   3.359
77962W        W44745   2.017   0.408  13.862
77963W        W44746  20.243  42.038   1.676
77964W        W44747  20.245  25.436  12.227
77965W        W44748  24.510  31.696  12.366
77966W        W44749  36.373  34.527  11.648
77967W        W44750  10.943  39.351   0.902
77968W        W44751  38.941  40.353  13.495
77969W        W44752   9.139   5.268  14.248
77970W        W44753   0.643   4.674   3.153
77971W        W44754  43.454  20.242   3.670
77972W        W44755  44.489  34.518  13.179
77973W        W44756  16.610  19.768  13.922
77974W        W44757  27.694  38.720   3.822
77975W        W44758  32.554  37.574  13.818
77976W        W44759  31.169  11.392   4.825
77977W        W44760  35.912  44.408  13.597
77978W        W44761  38.504  13.361  12.023
77979W        W44762  21.549  19.367  11.160
77980W        W44763   6.840  26.030  12.560
77981W        W44764  42.338  36.436  14.102
77982W        W44765  13.493   9.192  12.564
77983W        W44766  27.210  10.136   2.921
77984W        W44767   8.727  10.598   0.862
77985W        W44768  30.905  20.041   0.035
77986W        W44769   9.293  35.828   3.954
77987W        W44770   6.653  25.169  13.179
77988W        W44771  39.113  30.964  11.640
77989W        W44772  34.897  41.586   2.932
77990W        W44773  43.994  33.313   2.266
77991W        W44774  13.727  28.909  13.056
77992W        W44775   3.552  30.652  10.935
77993W        W44776  28.873  24.143  13.001
77994W        W44777   4.417  21.594  11.117
77995W        W44778  24.193  12.228  14.857
77996W        W44779  30.397  17.283   2.342
77997W        W44780  40.044  32.965  11.570
77998W        W44781  41.286  41.539  14.992
77999W        W44782  39.641  24.699   3.102
78000W        W44783  38.218  26.098  13.820
78001W        W44784   9.095  37.617  12.062
78002W        W44785   3.420  17.626  13.558
78003W        W44786  15.204  10.543  10.598
78004W        W44787  19.349  32.975  11.965
78005W        W44788  20.136  37.884   2.369
78006W        W44789  18.559  26.614   9.989
78007W        W44790  23.880  33.617  12.013
78008W        W44791  10.044  17.032   0.377
78009W        W44792  19.110  44.395   1.742
78010W        W44793  26.747  30.655  11.366
78011W        W44794   5.281  39.382  11.043
78012W        W44795   1.531  20.214  13.856
78013W        W44796   1.679   1.930  11.066
78014W        W44797   0.477  23.962  10.649
78015W        W44798  28.063   3.514   2.702
78016W        W44799   9.043  24.538  12.758
78017W        W44800  10.900  32.167   3.292
78018W        W44801   3.739  39.561  12.602
78019W        W44802  20.583  40.000  14.867
78020W        W44803  15.832  20.178  11.107
78021W        W44804   3.797  31.061   3.617
78022W        W44805  27.345  34.447  13.179
78023W        W44806  35.675  22.183  12.540
78024W        W44807  25.944  39.333  10.671
78025W        W44808   9.291  37.116  12.875
78026W        W44809  42.860  33.373  10.752
78027W        W44810  19.255  18.557   3.309
78028W        W44811  17.572  37.519  11.575
78029W        W44812  35.944   5.698   2.269
78030W        W44813   3.701  23.072  11.473
78031W        W44814  22.537  36.202  12.052
78032W        W44815  23.199  21.649   0.218
78033W        W44816  23.554  21.030  13.581
78034W        W44817  30.941  34.939   3.678
78035W        W44818  24.578   1.256   4.673
78036W        W44819   5.733   1.077   0.879
78037W        W44820  42.272  15.666  13.654
78038W        W44821  32.511  15.680  11.091
78039W        W44822  34.311  36.931  14.364
78040W        W44823  24.128   9.641   3.633
78041W        W44824  41.601  31.815   3.734
78042W        W44825  11.417  24.611  14.088
78043W        W44826  28.894  39.483  11.488
78044W        W44827  38.092  43.475  11.083
78045W        W44828   8.385  41.438   4.401
78046W        W44829  26.675  38.039  11.561
78047W        W44830  20.452  37.866   2.786
78048W        W44831  18.722  25.120   0.219
78049W        W44832  10.854  34.394   0.498
78050W        W44833  36.432   2.866  14.697
78051W        W44834   0.466  20.069   2.786
78052W        W44835   2.663  38.522  13.295
78053W        W44836  24.507   5.822  11.309
78054W        W44837   2.917   0.735  14.006
78055W        W44838  19.067  44.315   1.223
78056W        W44839   1.337  10.531   2.711
78057W        W44840  40.306  10.795   3.855
78058W        W44841  32.536  39.287  11.524
78059W        W44842   1.214  20.025  12.599
78060W        W44843  22.178  21.346  10.780
78061W        W44844  16.180  38.049   3.700
78062W        W44845  42.342   2.481   1.235
78063W        W44846  31.939  14.187   3.231
78064W        W44847   5.810  43.155   3.561
78065W        W44848  31.123  33.311   1.429
78066W        W44849  22.630  38.086  10.769
78067W        W44850  29.629  28.583   0.701
78068W        W44851   4.368  10.811  14.896
78069W        W44852  43.635  42.008   3.356
78070W        W44853  10.304  34.326  10.651
78071W        W44854  10.667   5.873   0.989
78072W        W44855  13.635  15.787  13.777
78073W        W44856  39.787  12.618  14.260
78074W        W44857  42.489  24.561   4.305
78075W        W44858   2.157  11.903  11.439
78076W        W44859  19.591  36.803  11.193
78077W        W44860   0.230   2.013  10.925
78078W        W44861  35.510  25.605   1.235
78079W        W44862  13.815   8.486  13.302
78080W        W44863  25.733  44.261   1.355
78081W        W44864   7.646  22.644   1.863
78082W        W44865   5.539   6.212  10.368
78083W        W44866  25.921   7.739   0.942
78084W        W44867  34.051  10.709   4.292
78085W        W44868  15.140   3.304  11.970
78086W        W44869  28.704  24.520  11.697
78087W        W44870  26.018  32.448   3.555
78088W        W44871  39.630  32.033   9.988
78089W        W44872  39.736  18.258  12.812
78090W        W44873  41.933  36.284  11.952
78091W        W44874   8.414  19.199  13.778
78092W        W44875   0.743  17.064  12.938
78093W        W44876  26.903  10.839   0.359
78094W        W44877  14.775  16.119  12.621
78095W        W44878   7.311   7.523  10.390
78096W        W44879  12.362  17.455  14.279
78097W        W44880  21.757  40.777  14.272
78098W        W44881   1.201  30.279   2.584
78099W        W44882  31.165   8.573  12.955
78100W        W44883   5.693  38.357   3.886
78101W        W44884  15.710   8.365  12.878
78102W        W44885  18.074   0.893   3.320
78103W        W44886  25.241  31.193   4.605
78104W        W44887  27.027  44.057   4.198
78105W        W44888  30.331  25.237   4.063
78106W        W44889  26.535  22.636  12.518
78107W        W44890  31.515  36.350   2.747
78108W        W44891  33.757  28.442   2.178
78109W        W44892  32.911   2.807  13.470
78110W        W44893  36.791  29.955  12.329
78111W        W44894  24.437  17.360  12.194
78112W        W44895  39.404  25.935   3.682
78113W        W44896   7.211  20.745   4.159
78114W        W44897   9.636  39.572  10.812
78115W        W44898  37.893   1.881   2.861
78116W        W44899  33.857  14.452  14.782
78117W        W44900   6.652  16.846   3.736
78118W        W44901  28.312  43.072  10.713
78119W        W44902  26.221   3.458  12.457
78120W        W44903   2.460   0.103  12.054
78121W        W44904   1.648  19.616  12.802
78122W        W44905  40.473  33.961   3.040
78123W        W44906  29.579  27.383   0.841
78124W        W44907  39.152  34.052   2.395
78125W        W44908  30.417  43.333  11.480
78126W        W44909  11.593  39.119  13.835
78127W        W44910  34.588  20.759   0.519
78128W        W44911   0.967  17.123   3.211
78129W        W44912  26.254  22.216   3.407
78130W        W44913  37.038  15.174   4.209
78131W        W44914  12.708  40.964   4.121
78132W        W44915  15.321  15.551   2.840
78133W        W44916  31.162  41.736   4.957
78134W        W44917  15.148  33.004  14.686
78135W        W44918  34.031   0.175   1.777
78136W        W44919  30.411  38.921  14.527
78137W        W44920  13.483  38.843  11.432
78138W        W44921  14.232   7.264   3.842
78139W        W44922   7.933  25.646   1.782
78140W        W44923   0.974  20.078   2.689
78141W        W44924   1.309  21.808   4.190
78142W        W44925   4.898  29.514  12.911
78143W        W44926  34.196   2.904  11.652
78144W        W44927  17.715  22.875   0.319
78145W        W44928  31.110  40.522  14.369
78146W        W44929  32.554  19.189   1.319
78147W        W44930  21.463  20.184  14.030
78148W        W44931  42.829  12.162  12.155
78149W        W44932   1.019  16.674   2.356
78150W        W44933  42.423   3.413   2.181
78151W        W44934  30.536   4.758  13.567
78152W        W44935  12.649  10.167   2.764
78153W        W44936   0.971  26.112  12.122
78154W        W44937  29.565  39.926   4.827
78155W        W44938  25.624  42.601   4.132
78156W        W44939  17.317  24.643  14.740
78157W        W44940  34.498  15.786  14.512
78158W        W44941  28.932  25.070  13.965
78159W        W44942  19.642  42.339  11.120
78160W        W44943  30.689  18.071   4.733
78161W        W44944  18.249  30.968   4.124
78162W        W44945   8.827  15.291  12.806
78163W        W44946  23.067  27.409  11.980
78164W        W44947  10.097  29.040   1.434
78165W        W44948  40.397  42.919   0.955
78166W        W44949  30.200  36.531   2.182
78167W        W44950  13.207   3.132  13.865
78168W        W44951  11.309  20.243  11.515
78169W        W44952  25.847  29.036   0.765
78170W        W44953  36.648  41.965   4.311
78171W        W44954   5.405  16.784   3.302
78172W        W44955  20.686  22.056  10.635
78173W        W44956  22.948   4.454  11.534
78174W        W44957  39.422  19.797  12.463
78175W        W44958  42.953  37.992   3.362
78176W        W44959  30.952  16.674   4.439
78177W        W44960  14.139  14.089   2.255
78178W        W44961  40.789  24.048   0.126
78179W        W44962   7.742  38.315  14.384
78180W        W44963  35.330  11.182   4.188
78181W        W44964   7.974  23.161   2.774
78182W        W44965  20.707   0.719   4.233
78183W        W44966  19.615  41.832  12.048
78184W        W44967   4.265  19.519  14.335
78185W        W44968  44.180  19.594   3.609
78186W        W44969  30.473  43.429  14.408
78187W        W44970   4.299  43.578  11.007
78188W        W44971   9.723  18.532   4.226
78189W        W44972  14.362   0.746  14.840
78190W        W44973  34.572  16.377  11.118
78191W        W44974   6.766  34.437  12.539
78192W        W44975  37.862  18.859  10.373
78193W        W44976  14.268   4.902  12.106
78194W        W44977  33.042  41.476   4.716
78195W        W44978  23.174   0.309  13.810
78196W        W44979  44.227  27.085  14.884
78197W        W44980  39.374  44.605  13.875
78198W        W44981  21.247   8.656  13.857
78199W        W44982  36.803  14.742  11.266
78200W        W44983   6.156  25.482   2.284
78201W        W44984  40.788  23.550   0.730
78202W        W44985   7.509  15.387  11.556
78203W        W44986  24.013  41.985  10.783
78204W        W44987  24.748   6.394   2.353
78205W        W44988  42.960  38.136   4.270
78206W        W44989  11.626   5.037  12.101
78207W        W44990  19.814  27.857  10.900
78208W        W44991   9.232  42.324   3.856
78209W        W44992   6.407  41.441   2.288
78210W        W44993   9.165  28.135   0.876
78211W        W44994   6.829   6.495   2.752
78212W        W44995  11.751  31.221  11.148
78213W        W44996  41.089  29.604   3.214
78214W        W44997   3.560  44.302  13.868
78215W        W44998  41.009  22.281  11.753
78216W        W44999  17.496  34.501  12.342
78217W        W45000  40.877  42.598   1.509
78218W        W45001  32.037  43.238   2.766
78219W        W45002  26.469   7.229   1.182
78220W        W45003  17.643  10.268   4.792
78221W        W45004   5.246  16.968  10.267
78222W        W45005  32.478  44.265   3.632
78223W        W45006   6.962  42.952  12.374
78224W        W45007   5.283  31.547   0.991
78225W        W45008  29.843  42.982  10.592
78226W        W45009  44.249  17.696  14.300
78227W        W45010  17.310   7.306   4.755
78228W        W45011  43.521  32.409  14.810
78229W        W45012  35.043  28.852   2.332
78230W        W45013   9.709  30.173  11.524
78231W        W45014  42.069  11.836   1.706
78232W        W45015  20.724  16.064   1.374
78233W        W45016  14.239  33.611   1.001
78234W        W45017  34.573  12.770   3.107
78235W        W45018  42.766   1.460   0.797
78236W        W45019  25.434  19.198  12.047
78237W        W45020  19.083   7.860   4.529
78238W        W45021  30.331   1.311   2.439
78239W        W45022  44.048  30.005   4.593
78240W        W45023  40.135  11.115   1.826
78241W        W45024  26.718   7.237  11.061
78242W        W45025   5.951  14.782   2.373
78243W        W45026  31.004   4.920  14.401
78244W        W45027  20.345  33.030   2.258
78245W        W45028  14.760   0.969  13.016
78246W        W45029  41.863  23.336   1.623
78247W        W45030  10.152  11.591   3.254
78248W        W45031  30.226  40.418  13.620
78249W        W45032  19.351  25.109  11.351
78250W        W45033  19.379  16.242  13.226
78251W        W45034  35.790  29.097  13.924
78252W        W45035  21.702  33.906   0.442
78253W        W45036   7.927  13.244  10.557
78254W        W45037   1.874  17.771  14.772
78255W        W45038  11.507  35.357   2.363
78256W        W45039   5.854  25.104   3.083
78257W        W45040   4.272  14.213   0.875
78258W        W45041  12.748  25.232   1.244
78259W        W45042  19.629   2.199   2.263
78260W        W45043  13.263  20.151   2.138
78261W        W45044  27.191  40.709  14.722
78262W        W45045  22.011   2.062  13.664
78263W        W45046   4.515  43.301   3.516
78264W        W45047   9.297  25.672   4.730
78265W        W45048  24.237   6.391  12.461
78266W        W45049  37.972  16.852  11.544
78267W        W45050  27.869  22.733  13.448
78268W        W45051  32.772  11.204  11.911
78269W        W45052  12.860   3.757   2.701
78270W        W45053  42.863  32.683  12.341
78271W        W45054  24.625  39.612   1.917
78272W        W45055  35.936   0.000   2.791
78273W        W45056  31.448  44.799  14.318
78274W        W45057  13.330  12.752  13.565
78275W        W45058  12.201  39.953  12.052
78276W        W45059  11.622  23.177   3.646
78277W        W45060  44.969  23.212   3.288
78278W        W45061  25.597  29.430   4.554
78279W        W45062  24.579  22.017  13.375
78280W        W45063  15.932  14.994   5.170
78281W        W45064  41.905  28.940  12.925
78282W        W45065  40.992  18.317  11.652
78283W        W45066  43.280  25.435   3.915
78284W        W45067  43.746   1.287   3.611
78285W        W45068   2.102  23.099  10.403
78286W        W45069   8.158  22.449   1.794
78287W        W45070  35.531  39.355   0.501
78288W        W45071  25.416  10.029  11.006
78289W        W45072  15.124   7.342  13.592
78290W        W45073  25.008  25.631  13.448
78291W        W45074  42.473  38.419   3.422
78292W        W45075  32.205  10.723   2.904
78293W        W45076  10.364  36.027  14.918
78294W        W45077  27.201  16.055   1.257
78295W        W45078   0.413  22.747   4.518
78296W        W45079  23.527   3.900   2.699
78297W        W45080  39.963   8.605  11.377
78298W        W45081  22.460  23.116  11.076
78299W        W45082  23.911  30.204  13.445
78300W        W45083  13.225  22.848  12.022
78301W        W45084  18.581  25.170   5.114
78302W        W45085  36.320   9.217   2.339
78303W        W45086  44.458  34.340   0.783
78304W        W45087  37.150  11.256   5.063
78305W        W45088  40.541   9.323  13.930
78306W        W45089  34.179  26.906  14.995
78307W        W45090  18.550  35.537  13.034
78308W        W45091  33.006  33.919   1.968
78309W        W45092  27.632  34.346   1.832
78310W        W45093  24.724  12.833  14.677
78311W        W45094   9.313   5.227   4.876
78312W        W45095  21.045  22.634   3.560
78313W        W45096  26.308   4.487   0.835
78314W        W45097   7.055   8.276  14.241
78315W        W45098  36.514  12.631   1.579
78316W        W45099  35.305  33.608  13.496
78317W        W45100   5.812   5.906   3.857
78318W        W45101   2.382  44.178  14.365
78319W        W45102  15.554  37.563  10.883
78320W        W45103  29.420  31.635   2.894
78321W        W45104  24.383  14.076  11.131
78322W        W45105  44.732  22.329  10.283
78323W        W45106   9.593  35.046   0.968
78324W        W45107  44.143  35.299   3.993
78325W        W45108   5.128  11.652   4.422
78326W        W45109  11.478  17.817   1.721
78327W        W45110  25.166  18.803  10.971
78328W        W45111  25.445  37.485  13.885
78329W        W45112  16.819  36.590  13.847
78330W        W45113  30.334   9.704   3.683
78331W        W45114   0.124  14.144   1.865
78332W        W45115  33.845   1.387  12.002
78333W        W45116  24.246  22.058   1.327
78334W        W45117   0.742  19.627   2.836
78335W        W45118  29.719  44.250  14.875
78336W        W45119   9.727  31.672  14.100
78337W        W45120  10.729  33.396   4.712
78338W        W45121   9.375  43.786   2.695
78339W        W45122  43.273  11.267   3.604
78340W        W45123   5.396  18.589  11.926
78341W        W45124  22.055  24.724   1.257
78342W        W45125  44.870   3.022  11.937
78343W        W45126  19.968  36.290   4.206
78344W        W45127  32.006   0.278   3.524
78345W        W45128  20.443   1.964   3.596
78346W        W45129   2.838  37.709   3.450
78347W        W45130   9.980   6.764  13.067
78348W        W45131  19.768   7.865   4.224
78349W        W45132  22.463  20.291   4.919
78350W        W45133  26.494  24.770   2.895
78351W        W45134  19.239  20.293  14.439
78352W        W45135  31.691  19.160   0.324
78353W        W45136   8.251  23.024   2.293
78354W        W45137  34.293  33.230   0.818
78355W        W45138  30.382   2.293   0.763
78356W        W45139  14.481  23.347  11.186
78357W        W45140  33.625  38.990  14.221
78358W        W45141  32.049  36.295   0.759
78359W        W45142  10.547  22.684   3.213
78360W        W45143  26.927  40.918   2.316
78361W        W45144  21.878   9.106   1.851
78362W        W45145  41.072   7.802   4.167
78363W        W45146  34.459  32.909   1.683
78364W        W45147  18.539  15.688   4.085
78365W        W45148   7.783  12.640  14.068
78366W        W45149  43.368   9.922  13.405
78367W        W45150  24.113  31.594  12.023
78368W        W45151  10.818  18.060   1.154
78369W        W45152  40.175  40.440  14.505
78370W        W45153  10.830   2.828  12.803
78371W        W45154   4.048  42.301   1.469
78372W        W45155  44.266  43.475   2.099
78373W        W45156   7.745  14.067   3.650
78374W        W45157  13.094  26.952   1.623
78375W        W45158  24.785  12.053  12.931
78376W        W45159  16.772   5.710   3.220
78377W        W45160   7.438   3.328   1.819
78378W        W45161  27.764  31.449  10.640
78379W        W45162  11.179  28.152  13.992
78380W        W45163  18.518  17.787  13.829
78381W        W45164  27.669  19.107   3.540
78382W        W45165  26.709   4.250  13.500
78383W        W45166  18.453  38.631  11.648
78384W        W45167  18.304  41.917  14.778
78385W        W45168  34.589   3.257   2.298
78386W        W45169  34.398  17.688   4.146
78387W        W45170  24.004  33.850   4.132
78388W        W45171  26.961   6.269   1.937
78389W        W45172  10.196  43.800   4.737
78390W        W45173  40.004  35.107   2.544
78391W        W45174  41.104  38.503   0.729
78392W        W45175  41.296  15.232   3.133
78393W        W45176  42.792  40.116   4.292
78394W        W45177  38.549   9.744   1.443
78395W        W45178  38.306  20.049  11.433
78396W        W45179   4.541  16.721  12.609
78397W        W45180  37.374  27.951  13.981
78398W        W45181   2.408  19.844  12.147
78399W        W45182  29.279  18.225   1.899
78400W        W45183  41.959  27.796  11.056
78401W        W45184  39.324  27.539  11.645
78402W        W45185   4.199  37.989  12.016
78403W        W45186   0.785  27.586  12.026
78404W        W45187  16.710  31.014   4.975
78405W        W45188  36.951  17.773  13.417
78406W        W45189  41.546  25.788  12.835
78407W        W45190  43.023  18.901  10.742
78408W        W45191  11.284   1.969   2.381
78409W        W45192  19.560  39.971  11.968
78410W        W45193  43.352  33.570  10.742
78411W        W45194   4.750   2.886  14.922
78412W        W45195  44.303  22.544   5.097
78413W        W45196  23.314  32.774  14.219
78414W        W45197   0.822  16.070  11.908
78415W        W45198  12.863   5.419  11.614
78416W        W45199  40.924  33.344   0.911
78417W        W45200  35.992  12.095   2.238
78418W        W45201  24.874  20.690   4.132
78419W        W45202  25.425  15.581   1.659
78420W        W45203  28.500  31.033  10.683
78421W        W45204  22.484  22.235  14.248
78422W        W45205  13.264  38.269  12.863
78423W        W45206  21.186  36.099  10.647
78424W        W45207  11.400  28.081   1.432
78425W        W45208  35.150  17.633  11.553
78426W        W45209  35.838  40.964  11.637
78427W        W45210  30.681  35.375   3.451
78428W        W45211   9.285   9.866  12.374
78429W        W45212  43.962  12.682   3.593
78430W        W45213   8.340  30.923   4.087
78431W        W45214  37.047  12.683   1.835
78432W        W45215  22.759  10.640   3.162
78433W        W45216  37.568  21.699   1.463
78434W        W45217  19.310  29.407   3.149
78435W        W45218  21.784  38.005  13.732
78436W        W45219  15.116  27.564  14.853
78437W        W45220  24.968  22.887   2.279
78438W        W45221  31.376  44.584  14.923
78439W        W45222  28.102  39.889   4.082
78440W        W45223  12.381  34.150  11.248
78441W        W45224  21.636   0.975  11.844
78442W        W45225  42.479   8.302  13.066
78443W        W45226   8.169   0.027   2.340
78444W        W45227  17.412  31.699  10.811
78445W        W45228  15.201  40.359   4.735
78446W        W45229  21.319  15.677   3.201
78447W        W45230  36.884   1.271  12.521
78448W        W45231  29.396  11.501   2.594
78449W        W45232   2.800  23.739   0.760
78450W        W45233  10.875   6.789   0.233
78451W        W45234  29.730   3.189   2.337
78452W        W45235   1.750  38.559  11.952
78453W        W45236  27.540  19.024   0.394
78454W        W45237   0.316  20.885   9.915
78455W        W45238  21.767  39.526  13.554
78456W        W45239  24.201  10.766   2.170
78457W        W45240  41.088  36.839   2.753
78458W        W45241  37.225  39.609   1.184
78459W        W45242  24.803  43.073   3.767
78460W        W45243  36.436  28.999   4.491
78461W        W45244  32.259   6.358   9.889
78462W        W45245  41.950   4.724   1.817
78463W        W45246  16.393  28.721  10.642
78464W        W45247  11.803  37.097  14.459
78465W        W45248  30.634  13.475  13.725
78466W        W45249  15.523  16.243  11.949
78467W        W45250  41.510  22.567  13.994
78468W        W45251  36.581  18.214   0.427
78469W        W45252  40.919  33.606  10.989
78470W        W45253  14.186  29.621  14.808
78471W        W45254  24.476  21.233  13.341
78472W        W45255  39.349  38.223  14.422
78473W        W45256  15.577  26.910   4.697
78474W        W45257   2.244  13.662  14.364
78475W        W45258  34.392  26.819   2.395
78476W        W45259  11.068  27.644   2.926
78477W        W45260  18.165  11.319  10.784
78478W        W45261   5.679  26.807   3.923
78479W        W45262  12.706   6.510  10.696
78480W        W45263  42.105  31.494  11.077
78481W        W45264  31.674  16.262   4.027
78482W        W45265   3.288  16.004  13.291
78483W        W45266  31.802  17.491   1.347
78484W        W45267  29.372  14.396   2.410
78485W        W45268  42.217   5.235   2.758
78486W        W45269  12.078  30.647   1.239
78487W        W45270   7.796  18.692  14.870
78488W        W45271   6.476  38.422  13.019
78489W        W45272  32.841   5.636  14.865
78490W        W45273   5.465   6.137   1.199
78491W        W45274  11.128  43.857   1.315
78492W        W45275  12.758  35.830  10.294
78493W        W45276  38.558  12.248  13.369
78494W        W45277   4.876  29.831   0.235
78495W        W45278  44.194  40.431  11.988
78496W        W45279  22.958   4.476   2.207
78497W        W45280  23.956  17.055  13.876
78498W        W45281  10.276  31.164   1.136
78499W        W45282  43.959  20.269  11.561
78500W        W45283   2.718  26.532  14.328
78501W        W45284  25.929  31.720  11.519
78502W        W45285   2.416  36.021  14.942
78503W        W45286  31.211  14.242  12.649
78504W        W45287  44.234  21.198  11.116
78505W        W45288  17.065  24.287   1.793
78506W        W45289  21.562  44.847  14.931
78507W        W45290  21.746   0.277  14.041
78508W        W45291  40.390  33.517  14.844
78509W        W45292  34.072  22.969   1.482
78510W        W45293   3.127  11.078   2.694
78511W        W45294  32.089  40.989   1.313
78512W        W45295  18.536  27.249  12.068
78513W        W45296   0.992  32.354   2.297
78514W        W45297  33.095   5.379   2.754
78515W        W45298  27.596  15.764  10.684
78516W        W45299   3.427  43.983   2.319
78517W        W45300  24.431  14.772   4.570
78518W        W45301  23.500   1.777   4.095
78519W        W45302  38.583  39.480   1.767
78520W        W45303  32.251  15.622   1.189
78521W        W45304   8.828   2.995   2.818
78522W        W45305   2.399  22.379   2.286
78523W        W45306  32.345  32.673  14.837
78524W        W45307  29.638   1.000   4.491
78525W        W45308   6.783   1.199   1.870
78526W        W45309  12.830  15.427  14.967
78527W        W45310  41.011  25.402  14.061
78528W        W45311   3.448  38.424  14.815
78529W        W45312  43.531  16.039   1.068
78530W        W45313  32.033   4.529  13.046
78531W        W45314  10.699   5.938   4.679
78532W        W45315   9.074   2.846  11.139
78533W        W45316  36.231  37.878  13.474
78534W        W45317  24.796  10.191   4.027
78535W        W45318   4.473  33.281   1.857
78536W        W45319  10.281   1.879   2.953
78537W        W45320  34.652  42.377  14.803
78538W        W45321  36.021  36.768  14.840
78539W        W45322  31.880  30.485   2.822
78540W        W45323  24.909  20.927   0.134
78541W        W45324  28.407  10.839  10.708
78542W        W45325  17.314  44.294  14.238
78543W        W45326   6.998  33.837  11.049
78544W        W45327   8.438  17.040  12.067
78545W        W45328  16.159  44.940  13.448
78546W        W45329  43.915  37.876  13.966
78547W        W45330  31.422   8.422  14.479
78548W        W45331  23.075   4.697   0.741
78549W        W45332  23.013  40.896   0.668
78550W        W45333  33.687  10.433   0.770
78551W        W45334  26.005  13.780   4.749
78552W        W45335  24.342  14.175   3.001
78553W        W45336  44.824  36.325  10.768
78554W        W45337  25.070  37.745  12.554
78555W        W45338  38.553  42.909   4.630
78556W        W45339  18.031  44.814   4.615
78557W        W45340  11.354  36.063   9.712
78558W        W45341   4.059  20.634  12.603
78559W        W45342  16.125  32.001  13.573
78560W        W45343   5.671   9.440   3.888
78561W        W45344  10.310  19.851  11.576
78562W        W45345  21.369  24.812  14.837
78563W        W45346  20.506  40.987  11.499
78564W        W45347   0.580   3.377   3.752
78565W        W45348  29.514  43.459   4.730
78566W        W45349  20.141  28.762   4.074
78567W        W45350  33.589   1.962  13.860
78568W        W45351   2.397   0.399   2.703
78569W        W45352  42.608  30.848  11.251
78570W        W45353   6.341  12.561  11.254
78571W        W45354  12.833  36.167   0.951
78572W        W45355  19.717  31.176   1.224
78573W        W45356   2.521   3.395   2.721
78574W        W45357  13.316   1.950  11.952
78575W        W45358  25.769   5.803   3.176
78576W        W45359   8.772  39.011   1.268
78577W        W45360   6.633   1.920  13.741
78578W        W45361   8.594  33.550   1.567
78579W        W45362  18.630  32.014   0.744
78580W        W45363   2.309   4.360   1.757
78581W        W45364  42.539   2.393  11.121
78582W        W45365  19.849  38.531   3.178
78583W        W45366  22.477  26.354  10.685
78584W        W45367  24.044  41.994  12.506
78585W        W45368   1.246  10.678   2.228
78586W        W45369   6.982  29.265   2.725
78587W        W45370  18.023  44.958   3.906
78588W        W45371  29.885  17.208   2.854
78589W        W45372  26.452  24.545  12.886
78590W        W45373  20.589  31.499   4.301
78591W        W45374   8.155   4.380   3.267
78592W        W45375  26.169  11.769   3.767
78593W        W45376  36.857  12.822   4.260
78594W        W45377   5.154  36.615  14.227
78595W        W45378  12.489  32.864   4.693
78596W        W45379  12.356  42.540  14.669
78597W        W45380  44.593  21.193  12.235
78598W        W45381  33.936  30.111   4.465
78599W        W45382  14.658  28.636   4.171
78600W        W45383  10.569   8.877   3.582
78601W        W45384   6.642  36.381  11.247
78602W        W45385  22.877  13.372   2.201
78603W        W45386  24.743  37.710   4.966
78604W        W45387  31.925  42.629   2.220
78605W        W45388  23.106  24.524  11.553
78606W        W45389  18.997   0.347  11.171
78607W        W45390  31.171  14.277  14.516
78608W        W45391  21.927   4.318   4.085
78609W        W45392   7.724  12.312   2.652
78610W        W45393  37.276   8.700   0.795
78611W        W45394  35.835  20.046  13.502
78612W        W45395  43.766  18.599   2.820
78613W        W45396   1.050  23.023   3.741
78614W        W45397  40.942  12.794   3.848
78615W        W45398  21.232   5.419  12.811
78616W        W45399  23.053  24.976  14.815
78617W        W45400   8.927  20.445  10.503
78618W        W45401  36.196  24.243  11.658
78619W        W45402  13.186  40.012   3.328
78620W        W45403  31.939  31.113  12.976
78621W        W45404  41.959   3.902   1.750
78622W        W45405   3.381  12.220  11.374
78623W        W45406  24.246   1.747  13.755
78624W        W45407  13.044  43.210  11.637
78625W        W45408  11.202  31.104   2.547
78626W        W45409  29.421   5.412  11.997
78627W        W45410  15.602   2.258  13.410
78628W        W45411  43.909  14.768  13.445
78629W        W45412  10.450  27.838  13.864
78630W        W45413   3.316  22.715  12.187
78631W        W45414  42.753  14.646   0.273
78632W        W45415  42.186  39.153  11.075
78633W        W45416  28.397  37.321   5.084
78634W        W45417   3.690  44.848  13.372
78635W        W45418  16.830   5.724   4.132
78636W        W45419  26.894  16.638   0.420
78637W        W45420  35.945   5.627  13.985
78638W        W45421  30.788  29.710   0.054
78639W        W45422  35.887  27.030   4.181
78640W        W45423  41.348  19.222   4.862
78641W        W45424  20.770  11.252   0.346
78642W        W45425  19.217  10.102  11.142
78643W        W45426  19.461   9.729  12.190
78644W        W45427   6.390  27.890  12.525
78645W        W45428  17.370   3.933   3.257
78646W        W45429  35.605   5.299  11.625
78647W        W45430  16.680  36.949   3.145
78648W        W45431  18.287  13.349   0.425
78649W        W45432   1.812   7.730   1.043
78650W        W45433  19.725   3.954   0.948
78651W        W45434  10.158  10.866   1.085
78652W        W45435  18.150  14.878   0.354
78653W        W45436  25.065  15.827  13.933
78654W        W45437  11.636  22.122   1.889
78655W        W45438  40.965   7.122   0.758
78656W        W45439   0.765   7.326   0.285
78657W        W45440  28.247  41.505   1.338
78658W        W45441  19.427  14.852  12.818
78659W        W45442  42.143  16.657  10.883
78660W        W45443  25.447  41.897  14.418
78661W        W45444  41.047  31.581   1.261
78662W        W45445   8.917  25.227  14.236
78663W        W45446  11.939  18.535  12.619
78664W        W45447  14.358   2.164  11.951
78665W        W45448  42.334  28.943   0.833
78666W        W45449  42.861  39.502   0.783
78667W        W45450  12.139  10.334  14.770
78668W        W45451   9.192  23.536   2.290
78669W        W45452  37.034  31.985   0.794
78670W        W45453   8.301  16.092   2.808
78671W        W45454  15.765  23.612   2.293
78672W        W45455  30.177   5.750   3.344
78673W        W45456   3.964  19.578   1.784
78674W        W45457   8.414  34.177   1.283
78675W        W45458  23.137  39.325  13.104
78676W        W45459  34.867  34.554   0.251
78677W        W45460  13.821  17.637  12.377
78678W        W45461  20.516  41.278   1.866
78679W        W45462  16.075  19.626   0.471
78680W        W45463  31.857   4.004  11.763
78681W        W45464   2.859  22.680   3.202
78682W        W45465  30.207  36.071   2.910
78683W        W45466  33.483  35.190   4.147
78684W        W45467   5.855  12.577  11.010
78685W        W45468  22.552  39.949  12.376
78686W        W45469   7.378  36.308   0.867
78687W        W45470  23.722   9.835   4.589
78688W        W45471  10.659  27.977  10.540
78689W        W45472  28.191   0.423  12.965
78690W        W45473  33.709   2.617  10.509
78691W        W45474  32.382  31.489  14.076
78692W        W45475  13.724  20.367  14.361
78693W        W45476  39.459  24.053   3.042
78694W        W45477  34.491  23.334   4.163
78695W        W45478  10.635  36.436   4.372
78696W        W45479  42.491  18.708   1.695
78697W        W45480  26.354  15.837   2.152
78698W        W45481  29.947   2.394   1.850
78699W        W45482  28.887  44.437   4.537
78700W        W45483  37.782   6.217   0.316
78701W        W45484  26.048  29.018  11.962
78702W        W45485  32.115  23.102  13.037
78703W        W45486  17.852  36.950  12.853
78704W        W45487   7.700  35.124   3.492
78705W        W45488  24.024   3.854  12.302
78706W        W45489  28.111  27.999   2.311
78707W        W45490  12.020  14.092   0.636
78708W        W45491  38.850   6.390   2.655
78709W        W45492  35.699  15.254   0.309
78710W        W45493  37.612  23.192  10.701
78711W        W45494  43.295  38.558   3.674
78712W        W45495   9.549  21.321   0.539
78713W        W45496  17.120  37.293   4.604
78714W        W45497  34.484  37.666  12.491
78715W        W45498   7.877  41.814   4.964
78716W        W45499   2.289   0.718   2.314
78717W        W45500  42.749  25.492   0.257
78718W        W45501  40.404  41.896  12.377
78719W        W45502  40.810  31.557   3.807
78720W        W45503  38.298   4.490   4.764
78721W        W45504   1.180  18.850   1.830
78722W        W45505  15.324  35.957  12.161
78723W        W45506  38.941   2.679  13.396
78724W        W45507  12.966  34.604  11.961
78725W        W45508  13.414  42.679   4.140
78726W        W45509  27.032   7.510   4.244
78727W        W45510  12.135  26.334  13.457
78728W        W45511  27.028   8.622  12.045
78729W        W45512  30.732   2.027   4.877
78730W        W45513  19.768  44.148   3.496
78731W        W45514  14.150   9.570   3.100
78732W        W45515   8.800  17.140   1.241
78733W        W45516  16.269  21.709   1.459
78734W        W45517   0.293  40.711  12.184
78735W        W45518  29.517  30.101   3.524
78736W        W45519  40.410  39.249   3.672
78737W        W45520  27.951  30.588   4.113
78738W        W45521  23.131   3.664   0.753
78739W        W45522  18.811  20.107   1.417
78740W        W45523  39.285  24.144   0.392
78741W        W45524  18.615   4.177   2.583
78742W        W45525   9.627  22.691  12.549
78743W        W45526  41.270  16.615   0.090
78744W        W45527  12.430  36.456  10.787
78745W        W45528  24.753  21.345   3.732
78746W        W45529  41.506  14.754   3.295
78747W        W45530   9.360   4.324   0.259
78748W        W45531   1.445  12.848   4.122
78749W        W45532  43.519  38.845  13.974
78750W        W45533  13.155  28.937  12.086
78751W        W45534  40.864  33.992  14.452
78752W        W45535  42.809  34.841  13.492
78753W        W45536  42.408  42.916   1.839
78754W        W45537  40.756   7.341   4.835
78755W        W45538  17.923  23.677   2.052
78756W        W45539  18.344  44.239  14.416
78757W        W45540  40.440  42.655  11.934
78758W        W45541  27.250  18.063  10.777
78759W        W45542  28.647  30.060   3.137
78760W        W45543   0.252  12.702  14.224
78761W        W45544  28.953  15.304  12.404
78762W        W45545  35.642  42.865  13.166
78763W        W45546   3.772  31.441  11.542
78764W        W45547   8.872  26.950   0.094
78765W        W45548  37.281  11.510  13.823
78766W        W45549  42.663  12.641   5.446
78767W        W45550  42.566  14.017  13.386
78768W        W45551   3.809  33.902   3.947
78769W        W45552   7.150  31.340  11.949
78770W        W45553  20.022  12.790   1.819
78771W        W45554  40.257  31.657  12.565
78772W        W45555   6.188   3.651   3.586
78773W        W45556   1.743   7.030   2.861
78774W        W45557  13.372   2.348   3.380
78775W        W45558  34.145   1.960  11.231
78776W        W45559  26.034  28.631   4.427
78777W        W45560  21.295  24.175  14.415
78778W        W45561  35.383   2.382   1.323
78779W        W45562  10.209   0.560   1.815
78780W        W45563  19.590   3.035  12.436
78781W        W45564   8.351  39.045   4.223
78782W        W45565   1.410  21.217   4.578
78783W        W45566   4.899  13.181  13.422
78784W        W45567  27.170  12.318   3.261
78785W        W45568  42.917   7.256   0.612
78786W        W45569  36.473  17.028   0.001
78787W        W45570  43.730  32.694  12.602
78788W        W45571  13.200   8.194   1.891
78789W        W45572   4.251  40.495   2.815
78790W        W45573  21.689  23.544  10.881
78791W        W45574   4.840  36.345   1.912
78792W        W45575   0.011  33.643  13.884
78793W        W45576  35.081  37.784   3.692
78794W        W45577  37.812  36.467  12.048
78795W        W45578  26.515   9.759   5.021
78796W        W45579   9.313  21.641   0.865
78797W        W45580  35.872   3.643   4.481
78798W        W45581  13.328  38.971   3.409
78799W        W45582   7.760  11.238   0.817
78800W        W45583   0.378   5.560   0.772
78801W        W45584  16.574  22.504  13.325
78802W        W45585  19.550  34.537  12.224
78803W        W45586  26.420  31.372   1.765
78804W        W45587  15.756  21.819  14.020
78805W        W45588  41.275   3.326  14.840
78806W        W45589   2.278  21.236   0.834
78807W        W45590  39.906  36.079   0.295
78808W        W45591  36.890  31.568   1.209
78809W        W45592  20.017  33.127   1.811
78810W        W45593  40.121  44.916  11.540
78811W        W45594  14.670  38.495   5.461
78812W        W45595  22.439   2.948   2.602
78813W        W45596  34.117  13.613  13.237
78814W        W45597  25.516  39.994   3.596
78815W        W45598  24.208  12.330  11.736
78816W        W45599  21.078   0.283  11.995
78817W        W45600  35.612  35.812  12.186
78818W        W45601  13.748  26.609  11.044
78819W        W45602  43.060  23.798   1.346
78820W        W45603  11.212  12.517  12.123
78821W        W45604  15.310  28.176  12.986
78822W        W45605  17.577  36.277   2.210
78823W        W45606  28.533   3.738   2.834
78824W        W45607  38.510  27.787  12.528
78825W        W45608   3.013  43.802  12.596
78826W        W45609  20.618  41.489  11.549
78827W        W45610  10.766   9.333  12.376
78828W        W45611  41.752  39.094   3.686
78829W        W45612  11.593   5.864  10.664
78830W        W45613  33.423   0.216  11.619
78831W        W45614   2.347   4.505  11.234
78832W        W45615   5.500  26.761  10.264
78833W        W45616  42.075   5.776  14.859
78834W        W45617  34.089  35.113   2.959
78835W        W45618   7.654  30.633  13.959
78836W        W45619  19.836  26.273   2.538
78837W        W45620  19.055  40.918  13.522
78838W        W45621  16.240   5.976   3.589
78839W        W45622  34.104  22.432  14.940
78840W        W45623  21.673  35.659   1.040
78841W        W45624  17.736  27.557   3.657
78842W        W45625  42.835  21.729  14.115
78843W        W45626   3.466  35.953  14.715
78844W        W45627  12.863  31.393   1.241
78845W        W45628  34.918  41.447   4.616
78846W        W45629  11.278  16.727  14.859
78847W        W45630  24.480  26.021   0.971
78848W        W45631  40.569  21.195   0.908
78849W        W45632  12.686  37.895  13.789
78850W        W45633  20.611  12.827  14.683
78851W        W45634  26.051  40.734   3.291
78852W        W45635   8.101  10.309  10.800
78853W        W45636  36.604  39.297  11.934
78854W        W45637  35.845  28.933  12.984
78855W        W45638  38.765  15.384  14.321
78856W        W45639  23.212   6.858  10.814
78857W        W45640  15.025  16.569  12.459
78858W        W45641  16.641  29.097  10.928
78859W        W45642  20.572   6.703  10.399
78860W        W45643   1.938  28.007  12.091
78861W        W45644  17.205  18.612   1.608
78862W        W45645  31.723  39.055   4.828
78863W        W45646   3.825  34.953  14.759
78864W        W45647   1.715  16.275   2.790
78865W        W45648  12.019  35.495  11.131
78866W        W45649  40.812  30.528  14.922
78867W        W45650   9.344  17.039   2.533
78868W        W45651   3.860  29.733  10.696
78869W        W45652  39.782  27.244  11.543
78870W        W45653  14.278  32.571  14.980
78871W        W45654  38.397   0.943   0.976
78872W        W45655  11.463  34.104   2.748
78873W        W45656  19.740  43.478   4.252
78874W        W45657  20.507  15.457  14.936
78875W        W45658  34.923  28.099   9.878
78876W        W45659   8.913  10.795  13.862
78877W        W45660  12.817   9.061   2.688
78878W        W45661  14.850  22.143  14.062
78879W        W45662  14.447   3.891  10.734
78880W        W45663   5.085   3.092   3.258
78881W        W45664  39.387  34.416   4.160
78882W        W45665  14.546  33.379  12.496
78883W        W45666  27.091  27.659   4.748
78884W        W45667  15.250  21.665  12.154
78885W        W45668  24.015   0.065  13.137
78886W        W45669  17.246  13.091   9.642
78887W        W45670   5.361  24.719   4.813
78888W        W45671   1.280  14.872  13.041
78889W        W45672  12.387  42.510   0.493
78890W        W45673  35.321  42.390   3.193
78891W        W45674  15.883  26.682   1.208
78892W        W45675  12.657  32.072  11.512
78893W        W45676  15.764   7.655  12.528
78894W        W45677   6.083  34.554  13.457
78895W        W45678  19.590  15.507   0.769
78896W        W45679  25.622  17.322   3.651
78897W        W45680  27.466  12.730   0.786
78898W        W45681  11.502  36.437  13.846
78899W        W45682  35.002   0.229  14.462
78900W        W45683  35.206  20.538  11.954
78901W        W45684   5.289   4.221   3.793
78902W        W45685  12.914  10.727   3.686
78903W        W45686  10.886  41.754  11.658
78904W        W45687  31.037  35.731   4.645
78905W        W45688  13.620   4.395   2.551
78906W        W45689   9.393  37.556   0.322
78907W        W45690  29.297  16.191  14.971
78908W        W45691  14.157   9.788   0.600
78909W        W45692  29.906  40.822  10.537
78910W        W45693  23.661  44.670  13.295
78911W        W45694  17.210  42.817  11.855
78912W        W45695   2.915  11.535  13.248
78913W        W45696  19.558  25.244   1.673
78914W        W45697  44.271  21.089  13.457
78915W        W45698   3.674  35.027  14.259
78916W        W45699  31.981   3.401  13.934
78917W        W45700  24.960  41.952  14.232
78918W        W45701  37.380  21.466   5.069
78919W        W45702   0.439  25.063  14.797
78920W        W45703  26.962   2.808   3.166
78921W        W45704   4.332  35.110   4.235
78922W        W45705  29.361  11.108  12.351
78923W        W45706   8.386   3.189   5.107
78924W        W45707   0.540  25.868  14.804
78925W        W45708  10.725  30.620   4.600
78926W        W45709  37.884  10.078  13.961
78927W        W45710  39.322   9.391  11.656
78928W        W45711  40.870  42.518   2.323
78929W        W45712  18.182   3.185   1.861
78930W        W45713  35.885  25.594  13.628
78931W        W45714  10.418  36.933  13.477
78932W        W45715   9.570  27.495  11.964
78933W        W45716  39.605  36.788   4.597
78934W        W45717   4.387  29.104   3.601
78935W        W45718  40.047  19.690   2.256
78936W        W45719  35.561  12.174   3.780
78937W        W45720  37.754  36.720   1.408
78938W        W45721  13.380   2.092   5.026
78939W        W45722  32.054  30.878   4.582
78940W        W45723  40.010  15.124   2.914
78941W        W45724  37.474  42.793  11.170
78942W        W45725   4.333  35.917  11.639
78943W        W45726  41.923   6.207   4.224
78944W        W45727   4.930   4.711   2.503
78945W        W45728  10.066  17.236  14.857
78946W        W45729  14.352  13.321   5.068
78947W        W45730  25.885  21.322   0.395
78948W        W45731  27.128  14.086   1.711
78949W        W45732  11.353  23.399  14.374
78950W        W45733  30.352  17.331  11.006
78951W        W45734  35.915   5.706   0.280
78952W        W45735  41.081  14.137  12.093
78953W        W45736  33.958  23.026   0.620
78954W        W45737   4.632  23.670  11.493
78955W        W45738   2.495  32.662   1.509
78956W        W45739  22.743   6.416   1.333
78957W        W45740  21.984  34.116  11.625
78958W        W45741  23.142  14.036   2.880
78959W        W45742  24.252  10.253   2.257
78960W        W45743  25.009  31.508   3.224
78961W        W45744  20.554  35.701  11.210
78962W        W45745  33.380   2.951   0.356
78963W        W45746  43.597  25.494   1.196
78964W        W45747  35.952  25.337   0.357
78965W        W45748  34.683  41.019   3.697
78966W        W45749  35.973  17.971   1.059
78967W        W45750  12.293  30.689  12.316
78968W        W45751  24.129  16.308   2.796
78969W        W45752  20.969  44.260   1.282
78970W        W45753  15.021   1.574  11.630
78971W        W45754  22.501   4.750  11.566
78972W        W45755   7.369   1.025  13.334
78973W        W45756  29.665  14.379   4.343
78974W        W45757  44.902  10.323  13.048
78975W        W45758   1.858  18.132   4.351
78976W        W45759  28.141  24.649   0.722
78977W        W45760  10.247  19.284  12.842
78978W        W45761  30.211  14.383   3.668
78979W        W45762  44.295  37.061   3.702
78980W        W45763   8.810  14.095  10.269
78981W        W45764  39.261   4.705   0.909
78982W        W45765   4.354  16.167  10.722
78983W        W45766  16.731  25.560   2.807
78984W        W45767   2.347  15.387  11.409
78985W        W45768  32.990  42.233   0.475
78986W        W45769  26.041  44.111  13.142
78987W        W45770  28.401  17.567  13.837
78988W        W45771  44.088  21.125  10.603
78989W        W45772  24.047   4.967   3.165
78990W        W45773   4.797  28.186  11.218
78991W        W45774  12.590   6.394  12.452
78992W        W45775  13.238   4.950   1.893
78993W        W45776  42.613  34.567   2.469
78994W        W45777  43.764  25.026   1.305
78995W        W45778  18.599   1.827   5.055
78996W        W45779  29.855  10.742   1.246
78997W        W45780  28.319  19.659   4.144
78998W        W45781  13.756  35.146   2.113
78999W        W45782  43.535  22.601   4.296
79000W        W45783  11.377  38.022   2.573
79001W        W45784  41.438  42.583  12.909
79002W        W45785   3.502  11.456  14.008
79003W        W45786  21.350  14.455   1.272
79004W        W45787  38.847  28.731   2.482
79005W        W45788  29.275  20.824  11.046
79006W        W45789  14.558  19.563  11.998
79007W        W45790  14.211  35.890  11.227
79008W        W45791  11.951  26.569   0.282
79009W        W45792  16.762  13.202   2.383
79010W        W45793  39.938   2.539  11.841
79011W        W45794  20.866  38.684  13.082
79012W        W45795  43.046  14.625   1.162
79013W        W45796  24.304  15.189  14.929
79014W        W45797   5.356  39.081   2.909
79015W        W45798  30.645  26.709  12.101
79016W        W45799  43.699  26.204   3.243
79017W        W45800   1.832   0.451   2.312
79018W        W45801  41.952  36.501  14.469
79019W        W45802  32.765  17.772  12.553
79020W        W45803  12.606  13.648   4.681
79021W        W45804  25.481  18.800   3.779
79022W        W45805   4.318  18.456   4.718
79023W        W45806  16.371  13.067  11.556
79024W        W45807  17.643  32.574   4.922
79025W        W45808  21.955  42.472   1.789
79026W        W45809   9.290  43.718   0.119
79027W        W45810  19.814  44.462  12.486
79028W        W45811  21.650  32.982   4.787
79029W        W45812   1.061  21.754  10.945
79030W        W45813   5.985  42.874  12.371
79031W        W45814   1.113  39.897   1.283
79032W        W45815  37.043  29.143   2.398
79033W        W45816  24.645  19.476   1.827
79034W        W45817   3.393  29.407  12.167
79035W        W45818  29.593  28.385  13.209
79036W        W45819  15.743  17.972  11.492
79037W        W45820  14.513  18.258  14.039
79038W        W45821  44.437   5.463  14.882
79039W        W45822  44.242  10.493  14.281
79040W        W45823  36.286   9.751   2.388
79041W        W45824  29.001  41.463   0.514
79042W        W45825  36.322  29.028  11.920
79043W        W45826   0.271  29.608   4.900
79044W        W45827  26.978  19.703   3.692
79045W        W45828  34.340  12.219   0.082
79046W        W45829  26.388  28.467   3.268
79047W        W45830  29.695  11.051   4.309
79048W        W45831  10.826  34.989   2.865
79049W        W45832  23.458  44.010   0.694
79050W        W45833   7.378  13.847  14.390
79051W        W45834   7.778  13.548  11.596
79052W        W45835   2.043  18.145   2.874
79053W        W45836   6.109  25.443  14.364
79054W        W45837  20.192   7.558   4.215
79055W        W45838  23.251  29.421  12.140
79056W        W45839  41.437  13.185  12.518
79057W        W45840  27.181   7.433  11.010
79058W        W45841   2.141  16.563  14.793
79059W        W45842  35.416  19.216  14.370
79060W        W45843  38.151  39.078  13.053
79061W        W45844  41.855  18.765   0.843
79062W        W45845  22.523   7.217  14.328
79063W        W45846   4.883  33.845  11.807
79064W        W45847  26.633   2.406   3.283
79065W        W45848   9.385  40.446  12.503
79066W        W45849  29.511   3.648  11.277
79067W        W45850  26.865  15.744  14.835
79068W        W45851   5.617  22.248   3.711
79069W        W45852  32.067  30.992  12.060
79070W        W45853  30.457  42.208   0.713
79071W        W45854  26.638   3.261  10.910
79072W        W45855  42.488  18.813  11.908
79073W        W45856  31.038  15.184  12.633
79074W        W45857  37.514   5.777   3.158
79075W        W45858  38.840  40.468  12.624
79076W        W45859   3.801   8.670  11.534
79077W        W45860  36.072  13.433   1.423
79078W        W45861  40.247  30.200   5.390
79079W        W45862   4.697   8.339   3.110
79080W        W45863  24.014  37.604  11.763
79081W        W45864  35.095  43.039   3.093
79082W        W45865   4.446  10.121  13.841
79083W        W45866  11.268  16.571   4.128
79084W        W45867  38.079   4.977   2.370
79085W        W45868  26.673  10.819  10.682
79086W        W45869  20.240   5.175   3.615
79087W        W45870  11.099  40.924  13.422
79088W        W45871   8.136  15.896   3.291
79089W        W45872  34.460  26.658  14.054
79090W        W45873  12.611  18.828  11.565
79091W        W45874  35.204   4.751   1.792
79092W        W45875  27.601  15.917  14.564
79093W        W45876  18.299  41.756  10.624
79094W        W45877  27.092  44.570   4.187
79095W        W45878  22.078  31.981  14.255
79096W        W45879   1.463  35.136  12.048
79097W        W45880   9.885   7.133   0.218
79098W        W45881  10.973  44.891   2.919
79099W        W45882   3.338  44.276   3.289
79100W        W45883  38.064  15.488  13.017
79101W        W45884   7.542   8.297  13.397
79102W        W45885   5.443   6.707  11.103
79103W        W45886  23.963  26.760  13.954
79104W        W45887  29.110  13.327  12.740
79105W        W45888   4.243   9.187   3.535
79106W        W45889  29.655  34.775   1.333
79107W        W45890  30.109   2.400   3.251
79108W        W45891   6.832   9.423   3.299
79109W        W45892  19.269  26.161   1.876
79110W        W45893   3.454  20.723  11.256
79111W        W45894  26.396  40.254   1.875
79112W        W45895  11.968  26.707  11.553
79113W        W45896   7.317  36.388   3.420
79114W        W45897   0.802  33.324   2.203
79115W        W45898  24.005   0.261  13.820
79116W        W45899  36.656  31.147  13.075
79117W        W45900   0.448  36.414  11.013
79118W        W45901  38.758  42.820  12.432
79119W        W45902  28.462   9.319   0.965
79120W        W45903  19.726  30.594   4.488
79121W        W45904  32.389  33.075   1.811
79122W        W45905  14.067  27.958   3.640
79123W        W45906  29.490   3.497  12.070
79124W        W45907   2.296  36.390   0.315
79125W        W45908  26.671   1.170   3.809
79126W        W45909   8.633  17.967  14.410
79127W        W45910  28.434  18.000  12.079
79128W        W45911  36.615  35.099  10.804
79129W        W45912  14.921  12.267   2.227
79130W        W45913  38.404  37.072   2.513
79131W        W45914   9.161  28.084  11.585
79132W        W45915  30.519  33.838  13.057
79133W        W45916  27.010  10.659  11.766
79134W        W45917   3.177   0.319   3.844
79135W        W45918  28.545  39.802   1.713
79136W        W45919   1.163  25.931   2.940
79137W        W45920   8.732  43.959  14.612
79138W        W45921  31.736  10.121  13.657
79139W        W45922   2.349   2.075   1.041
79140W        W45923   8.127  32.821   2.498
79141W        W45924  26.973   6.221   4.676
79142W        W45925   3.952   4.223  12.648
79143W        W45926   1.916   2.837   3.400
79144W        W45927  13.909   8.736  14.968
79145W        W45928  18.649  29.709  11.971
79146W        W45929   1.326  33.591  13.334
79147W        W45930  22.552  36.633   1.193
79148W        W45931  42.320  17.358  11.923
79149W        W45932  41.946  37.895   1.333
79150W        W45933  21.113  18.096  10.610
79151W        W45934   4.807  44.795   1.371
79152W        W45935  23.025   7.729   3.317
79153W        W45936   9.730  24.910  13.112
79154W        W45937  16.812  34.168   4.594
79155W        W45938  20.343  23.180   1.795
79156W        W45939  30.444  33.626  14.909
79157W        W45940  42.018  12.662  10.769
79158W        W45941   2.762  36.632  14.266
79159W        W45942  28.521   8.910   0.012
79160W        W45943  33.012   3.212  10.403
79161W        W45944  18.098  41.271   3.174
79162W        W45945  34.162  29.641  14.775
79163W        W45946   8.877  16.227   4.296
79164W        W45947  17.356   1.203   0.749
79165W        W45948  17.888  28.164   1.356
79166W        W45949   3.849   1.289  11.596
79167W        W45950  19.574   9.854   4.188
79168W        W45951   9.933  15.658   5.045
79169W        W45952  43.644  14.519  12.536
79170W        W45953   1.204   5.138   0.778
79171W        W45954  17.147  40.740  14.261
79172W        W45955  35.465  21.008   3.511
79173W        W45956  38.902  15.689   2.654
79174W        W45957  19.669  43.317  10.483
79175W        W45958  24.236  41.335  14.991
79176W        W45959  10.080   0.326  10.449
79177W        W45960  21.701  25.539   1.120
79178W        W45961  12.326  18.637   0.981
79179W        W45962  15.533  40.379  11.462
79180W        W45963  25.677  36.567  14.859
79181W        W45964  32.810  16.146   2.725
79182W        W45965  44.882  27.479   1.392
79183W        W45966  37.767  40.325  12.038
79184W        W45967  14.074   1.791  13.776
79185W        W45968  22.719   0.448   0.777
79186W        W45969   7.789  21.516  10.645
79187W        W45970  39.386  36.006   0.670
79188W        W45971  21.544  26.993   3.686
79189W        W45972  28.158   0.632   0.081
79190W        W45973  25.212   0.413   0.288
79191W        W45974  25.813  11.273   0.237
79192W        W45975  19.342   6.610  10.466
79193W        W45976  39.526  40.449   1.832
79194W        W45977   0.435  35.665   0.103
79195W        W45978  27.917  27.601  10.311
79196W        W45979   6.577  20.655  14.551
79197W        W45980  11.343  13.358  12.534
79198W        W45981   4.797   7.439  13.422
79199W        W45982   5.318   6.987   1.766
79200W        W45983  24.050  36.103  12.008
79201W        W45984  14.766  44.601   1.806
79202W        W45985  31.803  40.914  11.876
79203W        W45986  40.021  20.987  10.303
79204W        W45987   2.359  43.409   1.082
79205W        W45988  17.044  38.788  13.302
79206W        W45989  27.208  13.655   1.363
79207W        W45990  19.563  44.567  11.565
79208W        W45991   5.468  39.887  14.573
79209W        W45992  34.638  26.928  10.743
79210W        W45993  13.083  30.188  13.002
79211W        W45994  13.976  26.074   4.274
79212W        W45995   9.868  13.310  14.020
79213W        W45996  25.563  16.091  12.514
79214W        W45997  43.009  39.488  10.721
79215W        W45998  17.620  18.158   4.471
79216W        W45999  22.633  22.037   3.321
79217W        W46000  13.312  18.247  12.965
79218W        W46001  40.484   6.017   5.066
79219W        W46002  23.702  11.330   1.837
79220W        W46003  22.449  36.865   2.477
79221W        W46004  24.819  26.154   4.384
79222W        W46005  35.491  35.867  12.685
79223W        W46006   0.831  10.880   0.341
79224W        W46007   3.478  29.681  12.590
79225W        W46008  20.479   2.293  10.672
79226W        W46009  19.505  29.600  12.323
79227W        W46010  10.673  17.694  12.149
79228W        W46011  31.869  20.136   1.789
79229W        W46012   8.137   4.912   1.384
79230W        W46013  42.330  35.052  12.397
79231W        W46014  18.273  33.118   3.150
79232W        W46015  34.306  18.660   1.202
79233W        W46016  35.417  25.750   4.862
79234W        W46017   7.952  43.408  13.940
79235W        W46018  38.602  30.953   0.850
79236W        W46019  26.651  44.489  10.453
79237W        W46020  40.135  10.382   9.981
79238W        W46021  13.656  23.592  13.999
79239W        W46022  14.156  37.938   3.583
79240W        W46023  10.215  44.519  11.527
79241W        W46024  30.366  38.310  12.186
79242W        W46025  18.737  23.752   0.600
79243W        W46026   1.028  18.167   2.762
79244W        W46027  35.875  24.741   4.109
79245W        W46028   2.884  11.190  12.379
79246W        W46029  26.149   3.770   3.651
79247W        W46030  41.193  10.528   2.925
79248W        W46031  39.341  18.166   0.822
79249W        W46032   5.442  33.015   1.229
79250W        W46033  29.245   2.782   3.875
79251W        W46034  14.604   9.241   4.007
79252W        W46035  22.904  24.143  12.491
79253W        W46036  12.171  17.255   3.225
79254W        W46037   4.158  39.870   0.884
79255W        W46038   9.741  29.946   1.924
79256W        W46039  15.055  30.797   4.280
79257W        W46040  39.497  23.960   3.589
79258W        W46041  18.934  11.795   1.015
79259W        W46042   9.474  26.754  11.598
79260W        W46043  44.375   1.104  11.254
79261W        W46044   8.141  28.782   1.467
79262W        W46045  26.712  33.093   0.561
79263W        W46046   4.790  19.215   4.546
79264W        W46047  21.303  24.737   1.616
79265W        W46048   2.508   1.294  13.373
79266W        W46049  27.948  15.689   0.865
79267W        W46050  16.135  44.796  11.032
79268W        W46051  23.595  15.422   1.345
79269W        W46052  38.446  37.278   1.866
79270W        W46053  19.426  19.784  13.119
79271W        W46054  43.255  36.999  13.374
79272W        W46055  24.447   3.826  11.677
79273W        W46056  39.207  40.431  14.150
79274W        W46057  30.034  17.770  12.897
79275W        W46058   7.219  38.448  12.465
79276W        W46059  44.987  24.202  14.371
79277W        W46060  40.104   2.000  13.440
79278W        W46061  38.049  28.631   4.384
79279W        W46062  34.625   6.142  13.860
79280W        W46063  34.004  40.892   3.265
79281W        W46064  23.561   7.083   2.355
79282W        W46065  15.127   0.980  12.412
79283W        W46066  24.583  21.509   4.783
79284W        W46067   0.812  22.135  11.165
79285W        W46068  10.675  17.163  13.586
79286W        W46069   7.142  43.352   2.868
79287W        W46070   2.585   9.320   1.802
79288W        W46071  38.001  13.379   2.674
79289W        W46072  29.444   9.959  10.643
79290W        W46073  14.160   5.968   4.917
79291W        W46074  12.853  44.581  14.318
79292W        W46075   9.577   9.745  14.553
79293W        W46076  31.371  21.920   4.057
79294W        W46077  16.193  35.501  12.886
79295W        W46078  34.490  19.039  11.145
79296W        W46079  42.321   0.878  13.584
79297W        W46080  24.103  35.460  12.572
79298W        W46081  13.618  19.306   2.174
79299W        W46082  17.694  36.587  13.492
79300W        W46083  34.584  16.167  10.658
79301W        W46084  22.273  37.542  11.092
79302W        W46085  37.560  38.029   0.843
79303W        W46086   0.531  23.101  14.463
79304W        W46087  25.405  42.827  13.309
79305W        W46088  39.741  10.323   4.702
79306W        W46089  23.200  27.149   1.358
79307W        W46090  15.201   9.707  10.724
79308W        W46091   3.206  10.288  11.880
79309W        W46092  13.383   9.580  12.932
79310W        W46093  41.920  39.730  13.999
79311W        W46094  13.106  23.022  12.875
79312W        W46095  30.105  33.362   4.237
79313W        W46096  14.841   9.354  11.908
79314W        W46097  34.322  27.450   1.287
79315W        W46098  40.055   7.203  12.692
79316W        W46099  20.977   7.861   4.087
79317W        W46100  27.750   0.047  14.090
79318W        W46101   6.941  12.164   1.828
79319W        W46102  28.929  22.026   2.132
79320W        W46103  27.757  15.198  12.060
79321W        W46104  27.957  43.972   2.662
79322W        W46105  11.584  18.080   0.268
79323W        W46106  16.752   3.258  11.341
79324W        W46107   7.681  32.545  11.474
79325W        W46108  11.686  38.364   2.314
79326W        W46109  15.781  20.197   3.641
79327W        W46110  32.783  10.789  14.998
79328W        W46111  34.036  20.769  13.972
79329W        W46112   5.308   9.658  11.776
79330W        W46113   6.405  38.622   1.221
79331W        W46114  44.974  12.269  14.351
79332W        W46115  14.310  39.537  10.745
79333W        W46116  22.045  33.015   0.811
79334W        W46117   7.315  42.621  13.957
79335W        W46118   1.497  26.488  12.121
79336W        W46119  35.386  28.472   2.222
79337W        W46120   3.224  28.011  13.904
79338W        W46121  36.358  19.145  14.474
79339W        W46122  44.461   5.853   1.724
79340W        W46123  25.127  11.721  11.582
79341W        W46124  24.515  28.910   0.714
79342W        W46125  44.411   0.471  12.276
79343W        W46126  14.177   0.922   3.654
79344W        W46127  32.414  34.443   0.178
79345W        W46128  40.526  14.361   0.891
79346W        W46129  27.988   5.827  13.945
79347W        W46130   0.044  30.565  13.700
79348W        W46131   4.760  10.756   2.328
79349W        W46132  37.521  25.604   4.518
79350W        W46133   7.164  14.238   4.904
79351W        W46134  37.994  16.951   3.071
79352W        W46135  28.577  31.986  11.517
79353W        W46136   8.644   3.848  13.917
79354W        W46137   2.254  24.529  14.877
79355W        W46138  22.169   4.922   2.315
79356W        W46139   8.789  22.068  13.508
79357W        W46140  13.147  17.201  10.315
79358W        W46141   0.274  25.996   4.004
79359W        W46142  35.381  32.015  13.607
79360W        W46143  31.357  43.300  11.198
79361W        W46144  32.511  42.935  12.462
79362W        W46145  33.829  12.136  10.946
79363W        W46146  36.019   1.834  12.513
79364W        W46147   6.211  11.220   1.203
79365W        W46148  10.069  14.766  14.832
79366W        W46149   2.437  26.048  13.510
79367W        W46150  26.609  26.343  14.492
79368W        W46151  36.170  17.515  12.590
79369W        W46152  10.026   6.599  11.604
79370W        W46153  19.187  30.141   4.625
79371W        W46154  33.432   3.688  13.302
79372W        W46155   3.996  11.620  12.383
79373W        W46156  10.797   3.208  14.230
79374W        W46157  20.930   1.396  10.905
79375W        W46158   9.505  29.421   4.172
79376W        W46159  13.644   1.094   2.760
79377W        W46160   3.961  15.446   3.724
79378W        W46161   2.904  21.956  10.773
79379W        W46162  25.574  28.559   4.210
79380W        W46163   5.192   5.347   3.783
79381W        W46164  44.954  34.869  14.267
79382W        W46165  25.589  35.551   0.726
79383W        W46166  44.667  32.709   1.808
79384W        W46167  27.274  18.979   2.059
79385W        W46168  41.426  33.066   3.663
79386W        W46169  35.682  19.466  11.525
79387W        W46170  22.725  32.946  14.688
79388W        W46171  38.629  37.486   2.282
79389W        W46172  14.116  42.014   0.489
79390W        W46173   2.194  39.814  11.254
79391W        W46174  13.377   7.784  13.732
79392W        W46175  27.377  28.715  14.269
79393W        W46176   1.885  29.917   3.785
79394W        W46177  31.133  39.053   1.344
79395W        W46178  21.654  18.670  11.584
79396W        W46179  44.705  17.244   0.867
79397W        W46180  28.631  40.110  10.643
79398W        W46181   0.276  25.274   1.193
79399W        W46182  20.809  19.559  10.179
79400W        W46183  41.798  34.425  14.472
79401W        W46184  40.370  17.031  14.914
79402W        W46185  12.795  32.941   2.259
79403W        W46186  19.037  41.984  14.534
79404W        W46187  40.161  40.048  13.992
79405W        W46188  14.742  37.988  14.751
79406W        W46189  26.111  10.561  12.218
79407W        W46190  27.625  28.094  12.593
79408W        W46191  42.431   5.193  14.303
79409W        W46192  42.004  33.920   0.833
79410W        W46193  23.103  36.743   2.330
79411W        W46194   5.904  25.492   2.729
79412W        W46195   4.942   6.231   0.804
79413W        W46196  15.480  14.384  12.855
79414W        W46197  40.028   6.209  13.116
79415W        W46198   2.528   7.776   4.373
79416W        W46199  20.556  36.811  12.022
79417W        W46200  33.162   4.893   3.882
79418W        W46201  42.786  30.162  12.553
79419W        W46202  26.996  38.578   0.334
79420W        W46203  17.904  39.890  12.950
79421W        W46204  44.447  35.469   2.403
79422W        W46205  38.578  33.462   1.716
79423W        W46206  28.459  41.618   4.737
79424W        W46207  14.639  27.373  11.028
79425W        W46208  15.065  26.107  13.052
79426W        W46209   7.374  32.893   0.098
79427W        W46210  19.235   9.062   0.349
79428W        W46211  39.720  22.188   4.068
79429W        W46212  38.994  21.835  11.356
79430W        W46213   1.539  35.346  12.890
79431W        W46214  43.024   2.728   2.396
79432W        W46215   3.882  40.816   3.927
79433W        W46216  23.226  16.804  12.482
79434W        W46217  36.304  34.533   0.810
79435W        W46218  19.840  28.104  10.444
79436W        W46219  31.362   4.080  11.591
79437W        W46220   4.870  17.487  14.827
79438W        W46221  41.376  39.551   4.025
79439W        W46222   2.808   0.756   0.652
79440W        W46223  42.458  44.004   1.607
79441W        W46224  21.675   3.405  13.502
79442W        W46225   1.849  38.530  11.150
79443W        W46226  31.536  16.336  14.840
79444W        W46227  30.346  27.105  11.998
79445W        W46228  33.509  14.856   4.329
79446W        W46229  39.573  30.177   3.690
79447W        W46230   3.751   1.039  14.974
79448W        W46231  41.364  35.109   2.233
79449W        W46232  11.631  14.194  14.290
79450W        W46233   1.233   4.977  12.422
79451W        W46234  28.995  43.867   2.648
79452W        W46235   7.629  14.573  13.383
79453W        W46236  25.089   2.174  14.689
79454W        W46237   1.021  26.463   3.045
79455W        W46238  17.539  42.028   2.371
79456W        W46239  31.386   7.642  13.956
79457W        W46240  20.278  41.231   0.515
79458W        W46241   8.793  31.580  13.096
79459W        W46242  29.860  11.206   4.784
79460W        W46243  31.052  32.341   4.206
79461W        W46244  40.509  36.390  12.385
79462W        W46245   2.545  33.135  14.878
79463W        W46246   6.743  41.284   0.503
79464W        W46247  44.969  26.168  11.052
79465W        W46248   0.999  16.479  10.603
79466W        W46249   5.150   8.218  11.876
79467W        W46250  38.979  19.281   0.944
79468W        W46251   4.028  34.925   1.866
79469W        W46252   4.861   1.722  10.689
79470W        W46253   2.034  27.538   0.520
79471W        W46254  18.626   1.878   2.494
79472W        W46255  26.577  42.485  11.246
79473W        W46256   4.284   9.831  11.973
79474W        W46257  41.814  24.921   2.898
79475W        W46258  37.305  13.790   4.165
79476W        W46259  33.932  13.261  14.889
79477W        W46260   4.729  11.108   2.701
79478W        W46261  35.035  33.610  12.037
79479W        W46262   4.416   1.065   1.225
79480W        W46263  41.092   3.756  12.844
79481W        W46264  21.293  10.350   0.717
79482W        W46265  18.558  24.078   4.154
79483W        W46266  14.286  39.027  13.566
79484W        W46267  44.796  12.365   0.903
79485W        W46268  40.958  38.219  14.411
79486W        W46269  18.521  37.037   1.620
79487W        W46270   2.988   8.582  11.201
79488W        W46271  34.090  17.377   0.438
79489W        W46272   1.935  39.793   4.379
79490W        W46273  13.702   1.384  14.937
79491W        W46274  27.539   8.642  14.699
79492W        W46275   4.016  27.606  10.640
79493W        W46276  15.666  22.843  12.173
79494W        W46277  34.073  11.194   2.757
79495W        W46278  38.823   4.618  11.839
79496W        W46279  11.893  22.610  14.069
79497W        W46280  33.389  37.141   3.825
79498W        W46281  29.320  33.142  14.411
79499W        W46282   7.027   2.629  11.151
79500W        W46283  44.499  21.342   0.376
79501W        W46284  18.028  12.728  10.585
79502W        W46285  35.980  31.625   0.715
79503W        W46286  37.117  16.116   0.741
79504W        W46287  13.277  44.523   1.361
79505W        W46288  17.159  44.376  12.327
79506W        W46289  15.315  20.794   4.127
79507W        W46290  40.433  25.500   3.869
79508W        W46291  27.600  38.689   1.862
79509W        W46292  38.824   7.612   3.275
79510W        W46293  13.714   8.480  14.529
79511W        W46294   8.951  24.878   2.700
79512W        W46295  34.909   3.716  11.974
79513W        W46296  38.064  12.400  13.373
79514W        W46297  15.604  31.970  13.558
79515W        W46298  20.498  34.174   0.678
79516W        W46299   3.172   2.302  13.331
79517W        W46300  34.266  43.862   0.407
79518W        W46301   2.265  37.848  12.142
79519W        W46302  28.649  11.707  12.844
79520W        W46303  27.630   3.766  14.984
79521W        W46304  28.534  43.548   0.733
79522W        W46305   2.272  39.086   2.747
79523W        W46306   8.267  16.746   4.469
79524W        W46307  11.671   3.812  14.585
79525W        W46308   6.982   0.259   4.599
79526W        W46309  19.863  13.296  13.845
79527W        W46310  38.251  37.094   1.439
79528W        W46311  25.640   8.670  10.615
79529W        W46312  18.844  15.595   1.963
79530W        W46313  28.066  30.143  14.417
79531W        W46314  26.844  35.418   1.413
79532W        W46315  35.845  17.950   2.747
79533W        W46316  35.861  22.579   2.128
79534W        W46317  42.373   8.942  12.449
79535W        W46318  20.260  11.732   3.834
79536W        W46319  42.596   1.525  12.510
79537W        W46320  34.016  36.480  14.225
79538W        W46321   4.285  26.950  11.151
79539W        W46322  39.944  39.309  10.937
79540W        W46323  44.442  31.566   1.347
79541W        W46324  13.205  13.765  14.311
79542W        W46325  22.098   0.087   5.066
79543W        W46326  31.102  32.794  12.530
79544W        W46327   5.377  21.887   3.379
79545W        W46328  22.155   1.822   3.637
79546W        W46329  36.026  37.104  13.893
79547W        W46330  11.975   2.659  10.781
79548W        W46331  34.788  10.197   1.816
79549W        W46332  36.475   1.940  11.066
79550W        W46333  33.260  39.495  11.027
79551W        W46334   7.043   7.907   2.283
79552W        W46335   3.667  17.770  12.653
79553W        W46336   2.117  41.841   3.865
79554W        W46337  18.377  37.422   2.161
79555W        W46338   8.100  25.951   2.278
79556W        W46339  31.944  33.832   4.753
79557W        W46340   5.862   8.502  12.061
79558W        W46341  31.586   9.908  11.545
79559W        W46342  37.082  28.669   3.831
79560W        W46343  16.128  42.030  13.552
79561W        W46344  20.004  40.034   3.712
79562W        W46345  30.482  43.746  12.123
79563W        W46346  18.566  30.499   0.904
79564W        W46347  29.935  44.330   4.682
79565W        W46348   1.244  16.742   0.421
79566W        W46349   3.056  20.771   0.403
79567W        W46350  13.906  29.561  11.135
79568W        W46351  35.295  43.180  13.418
79569W        W46352   5.187   6.953  14.269
79570W        W46353  44.701  30.855  11.856
79571W        W46354   9.287  39.443  14.584
79572W        W46355  34.967  39.317  13.961
79573W        W46356  11.399  36.889  13.246
79574W        W46357  40.470  22.195   4.596
79575W        W46358  43.697  23.926   2.282
79576W        W46359   7.471  42.958  11.129
79577W        W46360  25.614  27.097  14.702
79578W        W46361  13.912  19.126  14.981
79579W        W46362  36.522   3.424   2.415
79580W        W46363  14.808  34.369  13.929
79581W        W46364  21.598  25.056  12.044
79582W        W46365  41.819  35.688   4.826
79583W        W46366  34.033  40.111   0.690
79584W        W46367  13.288  42.980   4.551
79585W        W46368  16.040   6.688   4.716
79586W        W46369  41.212  41.955  11.942
79587W        W46370  42.983   5.885   1.945
79588W        W46371  13.247  26.981   0.206
79589W        W46372  44.429  17.331  10.318
79590W        W46373  32.002  14.494  11.567
79591W        W46374  15.148  12.369   1.423
79592W        W46375  18.446  26.613  10.677
79593W        W46376  35.930   1.462   1.796
79594W        W46377  36.076  43.326   4.491
79595W        W46378  19.710   2.786  12.907
79596W        W46379  21.023  40.077   0.822
79597W        W46380  33.454  23.164  13.462
79598W        W46381  19.906  31.705   3.342
79599W        W46382  20.112  41.516   0.907
79600W        W46383  32.468   5.959   1.654
79601W        W46384   5.136  27.892   2.892
79602W        W46385  13.346   0.995   1.135
79603W        W46386  24.608  17.561   2.372
79604W        W46387   1.968   0.087  13.468
79605W        W46388   7.750  28.103  14.008
79606W        W46389   9.370  11.328   2.103
79607W        W46390   1.180  14.544  11.148
79608W        W46391  12.383  30.058  10.626
79609W        W46392   8.314  12.352  13.967
79610W        W46393  35.863  23.491   3.787
79611W        W46394  32.924   0.795   4.884
79612W        W46395  20.236   8.486  14.683
79613W        W46396   7.085   3.016  10.818
79614W        W46397  21.249   4.785   1.917
79615W        W46398  13.710  39.571  12.961
79616W        W46399   8.716  44.562   4.474
79617W        W46400  12.803   7.068   4.080
79618W        W46401  31.383   4.443   4.296
79619W        W46402   3.021   8.424  12.469
79620W        W46403  43.244  29.919  14.512
79621W        W46404  25.224  26.577   1.799
79622W        W46405   5.300  37.970  11.770
79623W        W46406   3.089  25.767   0.351
79624W        W46407  15.023  16.502  13.440
79625W        W46408  39.293  41.632  13.966
79626W        W46409  19.848  18.728  11.318
79627W        W46410  25.145  13.599   1.386
79628W        W46411  38.873  29.188   1.896
79629W        W46412  17.595  30.748   2.265
79630W        W46413  35.251  12.817   2.697
79631W        W46414  35.960  14.176   0.572
79632W        W46415  14.010  19.670   1.335
79633W        W46416   2.476   6.630  11.467
79634W        W46417  32.355  24.710   3.749
79635W        W46418  25.719  37.017  10.756
79636W        W46419  16.714  29.645   2.827
79637W        W46420  34.588   0.753  14.257
79638W        W46421  28.556  33.448  13.479
79639W        W46422  13.168  13.802  12.796
79640W        W46423  37.095   3.434  12.554
79641W        W46424  12.839  13.730  11.045
79642W        W46425  12.336   5.461  14.293
79643W        W46426  15.066   7.839  12.609
79644W        W46427  12.502   3.819  13.946
79645W        W46428  37.358  39.338   0.482
79646W        W46429   1.836  39.168  10.510
79647W        W46430  15.298  17.490  12.522
79648W        W46431  32.307  17.256  14.273
79649W        W46432  32.541  19.174  10.263
79650W        W46433  12.776  44.821  10.705
79651W        W46434  33.064  37.338   0.343
79652W        W46435  13.274  12.774  13.061
79653W        W46436  40.284  10.656   0.438
79654W        W46437  42.713   6.245   5.063
79655W        W46438  28.669  28.585   1.784
79656W        W46439  15.078  15.206   3.227
79657W        W46440  30.640  18.672   0.041
79658W        W46441  38.753  43.824   0.265
79659W        W46442  29.015   3.973   2.695
79660W        W46443  21.996  34.580   0.736
79661W        W46444  42.987  36.414   1.458
79662W        W46445  44.735  11.546   2.325
79663W        W46446  26.664  22.965   3.671
79664W        W46447   5.109  37.104  12.042
79665W        W46448   8.304  11.863  13.277
79666W        W46449  12.792  12.120   2.732
79667W        W46450  16.311   8.703   0.804
79668W        W46451  11.163  36.293   2.664
79669W        W46452  31.404  43.666   4.225
79670W        W46453  41.493  12.830   1.228
79671W        W46454  14.050  30.877  14.133
79672W        W46455  25.492  29.323  13.053
79673W        W46456  25.566  35.806  11.124
79674W        W46457  38.005   6.566   1.833
79675W        W46458   5.848  25.058   4.282
79676W        W46459  37.387  24.651   0.739
79677W        W46460  42.289  16.592  12.587
79678W        W46461  25.554  37.017   3.192
79679W        W46462  25.138   8.182   4.222
79680W        W46463  42.906  20.568   3.100
79681W        W46464  28.659  22.887   2.229
79682W        W46465  37.624  39.284  11.903
79683W        W46466  44.702   3.719   1.294
79684W        W46467  38.111  36.969  12.812
79685W        W46468  26.548  18.394  10.245
79686W        W46469  40.260  20.201   0.754
79687W        W46470   8.875   4.588  13.021
79688W        W46471  24.760   9.683  11.193
79689W        W46472  38.010  29.097  13.333
79690W        W46473  24.209  24.574  12.956
79691W        W46474  19.534  32.102  14.506
79692W        W46475   3.614   7.019  12.897
79693W        W46476  15.302  22.169  11.984
79694W        W46477  39.115  18.116   0.343
79695W        W46478  15.442  28.962  10.476
79696W        W46479   9.853  43.490   2.264
79697W        W46480   4.974   7.625   4.609
79698W        W46481   5.428  20.206   1.805
79699W        W46482   9.289  13.331  12.120
79700W        W46483  17.243  12.050  14.804
79701W        W46484   6.749   4.713   2.854
79702W        W46485  40.419   9.228   3.554
79703W        W46486   0.559  18.735   4.154
79704W        W46487  17.350  18.159   5.064
79705W        W46488  39.956  18.809  14.064
79706W        W46489  24.097  14.220  12.476
79707W        W46490   9.153  34.643  10.484
79708W        W46491  32.998  13.474   1.674
79709W        W46492  17.828  11.377  12.027
79710W        W46493  28.998   6.998   0.784
79711W        W46494   7.252  10.173  14.330
79712W        W46495  27.408  37.033  12.150
79713W        W46496   7.863  30.722  11.589
79714W        W46497  18.292  39.245  14.425
79715W        W46498  33.630  44.430  11.317
79716W        W46499   6.703  19.005  13.606
79717W        W46500  31.410  14.079   3.220
79718W        W46501   0.829  27.613   2.381
79719W        W46502  43.306  25.611   2.595
79720W        W46503   6.824  20.968   1.838
79721W        W46504   0.968   8.325   3.650
79722W        W46505  34.775  30.466  14.028
79723W        W46506  20.562  33.819  13.091
79724W        W46507  40.944  39.344   4.312
79725W        W46508  10.687  42.953   3.239
79726W        W46509  39.083  28.517   4.728
79727W        W46510  24.698  20.509   1.841
79728W        W46511   1.266   6.410   0.328
79729W        W46512  10.901  30.074  13.002
79730W        W46513   7.084  20.696  14.463
79731W        W46514  44.800  31.111  10.762
79732W        W46515  18.951  23.666  13.011
79733W        W46516  29.509  12.359  12.910
79734W        W46517  12.769  17.065  14.972
79735W        W46518  19.635  34.708   4.580
79736W        W46519  12.236  11.898  10.372
79737W        W46520  37.644  23.251   4.516
79738W        W46521  16.647   0.795  12.197
79739W        W46522   5.766  18.876  12.701
79740W        W46523  38.880   6.983  14.006
79741W        W46524   7.462  22.626  14.484
79742W        W46525  19.238  39.149  14.456
79743W        W46526   7.671  30.936  10.706
79744W        W46527  36.535  12.510   3.662
79745W        W46528  25.448  25.268  13.448
79746W        W46529  34.272  19.277  12.982
79747W        W46530  23.069   7.817  12.491
79748W        W46531   2.226   4.638  11.702
79749W        W46532  14.329   4.056   3.797
79750W        W46533  33.650  17.972  14.600
79751W        W46534  36.347  40.881  11.650
79752W        W46535  30.258  41.593   5.191
79753W        W46536  40.079  37.987   2.269
79754W        W46537  12.242  29.282  12.896
79755W        W46538  44.275  40.324   4.106
79756W        W46539  15.769  40.436  12.362
79757W        W46540  22.696  39.439   1.192
79758W        W46541   6.251   8.305  14.333
79759W        W46542  35.652  37.099  11.289
79760W        W46543  24.931  25.099  10.765
79761W        W46544  15.423   5.892   1.188
79762W        W46545  35.951  40.732  13.390
79763W        W46546  22.696  20.230  14.306
79764W        W46547  21.789   0.606  12.662
79765W        W46548  18.193  31.881   4.584
79766W        W46549  15.373  29.164   0.885
79767W        W46550  39.298  20.534  14.340
79768W        W46551  13.771  11.154   3.211
79769W        W46552  16.858   9.820  11.304
79770W        W46553  30.128   4.256  13.092
79771W        W46554  43.735   4.983   9.755
79772W        W46555   8.395  11.131  14.436
79773W        W46556  13.163   5.976  13.197
79774W        W46557  29.050  41.568   4.289
79775W        W46558  27.018  17.174  10.747
79776W        W46559  35.943  32.644  14.558
79777W        W46560   0.362  24.467  12.981
79778W        W46561  22.760  42.300  10.614
79779W        W46562  17.204  26.600   4.173
79780W        W46563  38.637  32.272  10.700
79781W        W46564  13.647  15.145  12.629
79782W        W46565  27.662  12.644   1.796
79783W        W46566   4.583  41.254   3.563
79784W        W46567  21.621  31.009   3.671
79785W        W46568  36.330  31.484   1.336
79786W        W46569   9.173  42.403  10.904
79787W        W46570   3.819  38.544   3.707
79788W        W46571  21.550  22.145  10.890
79789W        W46572  32.163  27.590   0.046
79790W        W46573  30.293  35.320   2.486
79791W        W46574   2.928  24.392   0.358
79792W        W46575  17.017   4.848  10.927
79793W        W46576  39.574  16.717  11.533
79794W        W46577  11.876  11.190  12.589
79795W        W46578  22.599  16.059  11.839
79796W        W46579  34.651  37.924  14.394
79797W        W46580  24.992  43.262  12.182
79798W        W46581  19.653  23.163  13.533
79799W        W46582  44.424  12.722  11.862
79800W        W46583   9.456  30.028   3.267
79801W        W46584  31.746  42.916  14.308
79802W        W46585  30.359  20.059   4.006
79803W        W46586  35.652  21.488  13.854
79804W        W46587   6.094  40.278  13.998
79805W        W46588  15.740  29.595   4.379
79806W        W46589   8.326   8.698  10.970
79807W        W46590   1.657   5.230   1.002
79808W        W46591  19.705   5.583  10.938
79809W        W46592  12.811  13.140   2.853
79810W        W46593  15.058  23.695  11.636
79811W        W46594  22.805  31.048   2.255
79812W        W46595  24.461   2.751   0.274
79813W        W46596  11.744   5.787   1.864
79814W        W46597  21.721  18.182   0.531
79815W        W46598   1.475  13.337   3.566
79816W        W46599  16.343  15.905   4.583
79817W        W46600  38.262  38.376   2.943
79818W        W46601  32.392  26.591  12.403
79819W        W46602  12.761  17.788   3.694
79820W        W46603  29.947   8.984  13.396
79821W        W46604  28.955  17.246   1.826
79822W        W46605   3.373  24.481  11.988
79823W        W46606  23.399  21.371  14.398
79824W        W46607   1.008  26.537   1.763
79825W        W46608  25.956  32.217  11.539
79826W        W46609  34.459  41.519  14.143
79827W        W46610  21.519  19.632   0.317
79828W        W46611  17.038  22.720   2.692
79829W        W46612  13.898   9.516   1.952
79830W        W46613  32.612   4.062  13.950
79831W        W46614  33.975  16.324   1.301
79832W        W46615  24.234  34.631   2.114
79833W        W46616  25.086  14.620   1.979
79834W        W46617   9.259   5.190  13.766
79835W        W46618  27.017  35.761   2.836
79836W        W46619   6.141   0.898  13.817
79837W        W46620  21.174   2.938   2.830
79838W        W46621  28.211  13.855   0.603
79839W        W46622  13.538  17.250   1.745
79840W        W46623  17.571  18.112   0.919
79841W        W46624  42.000  17.295  14.873
79842W        W46625  21.280  32.443   2.760
79843W        W46626  30.646  20.129  11.306
79844W        W46627  30.419   7.359  11.087
79845W        W46628  32.956  43.290  12.519
79846W        W46629   2.763  24.792   2.411
79847W        W46630   6.444  40.909   4.092
79848W        W46631  21.733  16.368   2.321
79849W        W46632  38.040  34.859  14.063
79850W        W46633  14.271  35.794   3.721
79851W        W46634   9.750  30.406  14.916
79852W        W46635  24.018  44.277  11.041
79853W        W46636  33.118  21.024   3.700
79854W        W46637  34.162  17.620  13.294
79855W        W46638  30.924   8.171   3.116
79856W        W46639  28.413   9.943   4.836
79857W        W46640  15.545   7.630  11.651
79858W        W46641  44.469  35.940   2.744
79859W        W46642  36.815   5.228   0.945
79860W        W46643   4.755  30.742   0.396
79861W        W46644  10.456  32.068   4.459
79862W        W46645  15.351  34.507   4.629
79863W        W46646  33.679  42.611  13.915
79864W        W46647  36.716  30.503   5.196
79865W        W46648  39.755   9.268  13.302
79866W        W46649  24.622  32.910   0.314
79867W        W46650  27.927  34.885   2.317
79868W        W46651  29.198   3.385   4.571
79869W        W46652  38.233  19.510   1.600
79870W        W46653   8.418  14.293  10.605
79871W        W46654  35.904  11.733   3.579
79872W        W46655   9.669  29.150   3.599
79873W        W46656   5.667   4.075  11.090
79874W        W46657  14.309   9.289   1.273
79875W        W46658  34.901  43.443  13.688
79876W        W46659  34.062  40.912  11.428
79877W        W46660  31.376  22.601   0.369
79878W        W46661  22.597  21.809   2.393
79879W        W46662  17.974   7.603   3.148
79880W        W46663  26.900   0.422  11.052
79881W        W46664  44.312  38.072   1.645
79882W        W46665  25.438  20.665   3.285
79883W        W46666  40.399  41.678  10.274
79884W        W46667  27.527  36.306  12.392
79885W        W46668  23.235  22.317  12.581
79886W        W46669  23.502   0.869  14.465
79887W        W46670  22.058  43.414   0.665
79888W        W46671  22.996   3.386  14.255
79889W        W46672  16.565  44.750   3.085
79890W        W46673  26.793  19.639   4.363
79891W        W46674  26.703  29.023  11.113
79892W        W46675  24.812  20.485   2.830
79893W        W46676  18.175  16.071   1.537
79894W        W46677  32.183  33.157  10.067
79895W        W46678  23.481  41.008   1.869
79896W        W46679   0.384  17.066  14.324
79897W        W46680  39.824  35.348   1.805
79898W        W46681  13.554   3.358   4.151
79899W        W46682  21.679  28.087  14.958
79900W        W46683  15.121  34.450   3.674
79901W        W46684   9.699   8.059  13.612
79902W        W46685  32.344  21.033  14.808
79903W        W46686  28.250  28.716  12.985
79904W        W46687  24.945  24.214   4.746
79905W        W46688  15.286   1.219  13.873
79906W        W46689  26.764  20.557   2.879
79907W        W46690  12.832  28.652   0.843
79908W        W46691   3.938  37.783  13.361
79909W        W46692   4.281   9.476   2.233
79910W        W46693  24.104  34.994   1.724
79911W        W46694  32.968  44.457  13.512
79912W        W46695  33.051  18.975   2.232
79913W        W46696  39.793  29.850   4.572
79914W        W46697  12.897  41.390  10.641
79915W        W46698  12.283  19.065   1.882
79916W        W46699  24.203  28.703  13.039
79917W        W46700  43.825  14.948  11.684
79918W        W46701  22.062  23.293   4.547
79919W        W46702  38.526  38.726   2.646
79920W        W46703  13.301   4.425   3.268
79921W        W46704  26.555  13.365   1.525
79922W        W46705  22.694  36.898  12.599
79923W        W46706  34.269  43.482  14.967
79924W        W46707  35.292  14.323  11.946
79925W        W46708   9.182  13.932   5.008
79926W        W46709  36.585  43.911  10.725
79927W        W46710  13.924  12.223   4.520
79928W        W46711  18.924  38.493  14.377
79929W        W46712   5.172  10.714  13.546
79930W        W46713  10.907  22.167   3.264
79931W        W46714  15.671  16.221  13.719
79932W        W46715  17.315  38.213   3.249
79933W        W46716  34.167   4.385   1.641
79934W        W46717  11.308  39.087   4.950
79935W        W46718   8.806  19.078   1.068
79936W        W46719  29.453   0.768  14.470
79937W        W46720  22.139  19.201  13.652
79938W        W46721  25.336   9.625  13.929
79939W        W46722  16.659   5.537  12.138
79940W        W46723  27.093  13.197  13.956
79941W        W46724   4.256  15.136   4.137
79942W        W46725  13.335  16.805  10.626
79943W        W46726  10.955  39.848  10.512
79944W        W46727   0.412  42.414  10.660
79945W        W46728  42.783  15.155  11.845
79946W        W46729  37.349  42.130   4.666
79947W        W46730  18.602   6.147  10.982
79948W        W46731  24.151   9.628  14.501
79949W        W46732  12.192  34.830   1.735
79950W        W46733   0.980   4.417  12.404
79951W        W46734  27.364   8.630  10.994
79952W        W46735  17.242  28.132  11.474
79953W        W46736  43.786  43.064  12.102
79954W        W46737  42.339  32.213   1.138
79955W        W46738  11.052   5.718   9.792
79956W        W46739  15.005   0.854   4.961
79957W        W46740  36.329  14.164  14.803
79958W        W46741  37.161  12.821   0.015
79959W        W46742  33.257  44.842  13.058
79960W        W46743   0.547  10.723  13.677
79961W        W46744  21.891  42.296   2.282
79962W        W46745  35.456   7.897   2.727
79963W        W46746  33.330   8.036  10.291
79964W        W46747  35.946  23.608  13.415
79965W        W46748   5.903   6.415  12.058
79966W        W46749  14.067  35.683  13.405
79967W        W46750  35.588  25.961  13.931
79968W        W46751  15.828  13.376   1.078
79969W        W46752  37.927  39.160  12.596
79970W        W46753  31.414  29.144   3.127
79971W        W46754  41.064  19.300   3.092
79972W        W46755   1.186  35.354   2.410
79973W        W46756  33.114  10.192  12.649
79974W        W46757   7.811  23.232  11.158
79975W        W46758  20.500  38.289   1.296
79976W        W46759   7.146  41.820   1.824
79977W        W46760  26.632  39.711  13.608
79978W        W46761  25.219   4.419   1.404
79979W        W46762   5.660  25.894  10.761
79980W        W46763  22.578  11.361   3.804
79981W        W46764  17.387  35.065   0.112
79982W        W46765  44.690  40.819  14.464
79983W        W46766  10.091  26.772   3.214
79984W        W46767  18.547  33.563   2.611
79985W        W46768  27.858  42.667   0.759
79986W        W46769   5.955   0.461   3.681
79987W        W46770  32.118   3.167  13.467
79988W        W46771   7.812  34.518   1.058
79989W        W46772  29.903  25.360   4.334
79990W        W46773  29.146  39.699   5.021
79991W        W46774   3.719   4.753  14.257
79992W        W46775  40.291  15.894  13.697
79993W        W46776   8.694  17.686  12.402
79994W        W46777  32.425  14.383  13.851
79995W        W46778  37.560  35.562  11.476
79996W        W46779  19.676  37.394  12.571
79997W        W46780  40.621  24.557   4.644
79998W        W46781  31.348  37.056  12.534
79999W        W46782   3.409  25.221   4.970
80000W        W46783  13.142  15.013  12.014
80001W        W46784  20.531  26.624  13.113
80002W        W46785  26.071  20.123   0.673
80003W        W46786   1.514  26.447   3.160
80004W        W46787  15.659  28.553  12.526
80005W        W46788  12.367  42.296   1.685
80006W        W46789  20.828  14.953   5.452
80007W        W46790  25.647   3.196   1.587
80008W        W46791  43.934  32.206  12.205
80009W        W46792   2.690  43.061  13.012
80010W        W46793  35.460  44.765  11.682
80011W        W46794  19.359  26.575   1.210
80012W        W46795  27.556  14.630   1.390
80013W        W46796   1.350  37.363   1.685
80014W        W46797  40.754  18.802  11.595
80015W        W46798  32.360  40.872  11.054
80016W        W46799   8.851  39.127  14.683
80017W        W46800   5.729  20.278   2.717
80018W        W46801  20.728  15.510   1.369
80019W        W46802  10.713  22.267  10.594
80020W        W46803   5.318  33.214  11.442
80021W        W46804   6.543  21.045  13.534
80022W        W46805   1.697   7.736   2.293
80023W        W46806   1.801  27.026  12.146
80024W        W46807  36.172  21.175   1.764
80025W        W46808  25.937  36.424  12.975
80026W        W46809  11.200  35.614  12.590
80027W        W46810   7.937  42.088  11.099
80028W        W46811  42.527  41.400   0.790
80029W        W46812   4.489  32.005  12.024
80030W        W46813  26.284  15.171  13.002
80031W        W46814  23.632  38.889  14.767
80032W        W46815   5.239   2.716   3.639
80033W        W46816  15.869  32.568   2.630
80034W        W46817  44.321  44.906   0.219
80035W        W46818  35.886  40.302   2.348
80036W        W46819  17.271  12.194   2.313
80037W        W46820   1.868  44.314  10.485
80038W        W46821   6.428   0.991   5.049
80039W        W46822  42.493  41.525   1.745
80040W        W46823   1.441  11.151   4.817
80041W        W46824  21.568  16.123   4.387
80042W        W46825  44.958  26.101   2.530
80043W        W46826  12.332  29.523  14.240
80044W        W46827  31.736  33.420  11.558
80045W        W46828  25.237  18.160   0.314
80046W        W46829  35.383  37.306  13.860
80047W        W46830  30.452  35.795   2.315
80048W        W46831  14.622  14.546   2.262
80049W        W46832  36.480   9.309  14.411
80050W        W46833  30.485  29.406   0.340
80051W        W46834  14.659  21.304   1.802
80052W        W46835  36.554  23.236   1.690
80053W        W46836  39.882  12.715  10.942
80054W        W46837  31.975  12.849  11.163
80055W        W46838  35.401   0.774   3.865
80056W        W46839  14.827  40.145  11.319
80057W        W46840   4.474  25.573  13.314
80058W        W46841   5.218  35.094   0.720
80059W        W46842  25.487  35.090   2.427
80060W        W46843   5.629  35.135   0.380
80061W        W46844  26.526   5.688  12.996
80062W        W46845   6.722   8.658  12.026
80063W        W46846   6.642   9.251  13.543
80064W        W46847  26.996  17.658  10.558
80065W        W46848  34.159   7.175  12.925
80066W        W46849  37.512  22.013  13.486
80067W        W46850  35.298   8.716  10.757
80068W        W46851  43.488  33.463  14.899
80069W        W46852  20.187  44.993   0.454
80070W        W46853  25.768   8.284   3.020
80071W        W46854  26.170  22.122   3.916
80072W        W46855  37.550  10.689   0.083
80073W        W46856  13.235  21.137   0.024
80074W        W46857  25.746  33.620   1.879
80075W        W46858  21.359  26.744   1.300
80076W        W46859  37.806  12.331   0.335
80077W        W46860  17.545  38.844  13.389
80078W        W46861  14.863  34.893   3.798
80079W        W46862  18.096  40.437  14.986
80080W        W46863  19.689  43.180  14.352
80081W        W46864  37.493  41.787   1.457
80082W        W46865   2.288  15.837  11.146
80083W        W46866  37.778  23.603  13.005
80084W        W46867  41.383  39.645  12.100
80085W        W46868  42.455  36.859  10.678
80086W        W46869  35.416  26.838   0.306
80087W        W46870  28.911  10.149   4.718
80088W        W46871  35.982  34.864   4.773
80089W        W46872  24.328  11.791  12.966
80090W        W46873  42.384  40.931   0.506
80091W        W46874  13.710   9.697   0.931
80092W        W46875   0.282  24.595  12.018
80093W        W46876  31.089  22.173   3.706
80094W        W46877  29.657  39.268   0.722
80095W        W46878  19.628  27.567   4.379
80096W        W46879  10.686  35.460   2.652
80097W        W46880  24.572  30.413  14.260
80098W        W46881   6.954  36.278   0.048
80099W        W46882   8.849  20.141   1.214
80100W        W46883   9.880  42.916   2.764
80101W        W46884  28.499   9.118   3.634
80102W        W46885  43.724   2.196   2.673
80103W        W46886   0.447  23.211   1.066
80104W        W46887  30.431  31.520  10.857
80105W        W46888  28.125   1.985  11.100
80106W        W46889  10.890  44.991  11.570
80107W        W46890  27.895   3.417   0.740
80108W        W46891  43.366  33.377   3.427
80109W        W46892   4.929   3.730   0.874
80110W        W46893  15.850   5.616  14.549
80111W        W46894  13.184  24.222   3.674
80112W        W46895  20.758  32.651  14.812
80113W        W46896  22.680   9.172   2.174
80114W        W46897  15.011  14.585  10.787
80115W        W46898  44.933  22.494  11.277
80116W        W46899  22.712   2.484  13.855
80117W        W46900  14.149  15.262  14.869
80118W        W46901   3.239   2.210   1.786
80119W        W46902  38.958  12.864   1.160
80120W        W46903  37.381  25.795   0.789
80121W        W46904   9.732  28.628  13.413
80122W        W46905   9.405  12.653   4.626
80123W        W46906   9.070  37.533  10.814
80124W        W46907   2.171  18.717   0.250
80125W        W46908  28.455  22.613   0.562
80126W        W46909  13.491  12.253  14.295
80127W        W46910  31.901  40.534   4.376
80128W        W46911  27.864  21.322   2.626
80129W        W46912  15.591   9.723  14.605
80130W        W46913  16.055  16.326   1.518
80131W        W46914   7.331  43.098  10.660
80132W        W46915  13.333  38.972  13.565
80133W        W46916  21.271  10.722  14.441
80134W        W46917  15.359  24.692  12.413
80135W        W46918  22.147   6.842  11.458
80136W        W46919  15.142   6.297   2.720
80137W        W46920  27.108  15.937   4.378
80138W        W46921   4.231  25.140  14.508
80139W        W46922   5.917  15.227   0.360
80140W        W46923  22.647  14.242   3.094
80141W        W46924  35.395  25.762  11.486
80142W        W46925  16.754  15.832   3.638
80143W        W46926  18.827  39.305   0.408
80144W        W46927  44.654  38.135  11.063
80145W        W46928  21.194  20.496   2.773
80146W        W46929  40.067  12.204  12.067
80147W        W46930  28.256  30.596  11.598
80148W        W46931  24.007  33.068   3.202
80149W        W46932  21.806  34.395   2.688
80150W        W46933  20.148  27.557   4.747
80151W        W46934  44.295  43.526   2.639
80152W        W46935   8.801   6.367  10.731
80153W        W46936   3.251  20.387  14.579
80154W        W46937  12.859   8.288   0.981
80155W        W46938   8.740  42.865  11.787
80156W        W46939  31.414  12.562  14.750
80157W        W46940   1.355  39.555  12.921
80158W        W46941  39.575  27.889   1.318
80159W        W46942  43.968  12.290   3.214
80160W        W46943  14.188   0.739   0.331
80161W        W46944  27.553  41.884  13.358
80162W        W46945  20.495  27.280   2.543
80163W        W46946  43.055  18.212  11.835
80164W        W46947  38.384  30.950  12.056
80165W        W46948  33.914  35.982   1.640
80166W        W46949   0.942  40.868  10.539
80167W        W46950  29.219   0.414  13.832
80168W        W46951  24.041   5.340  13.536
80169W        W46952  33.562  24.912   4.143
80170W        W46953  30.357   9.169  14.944
80171W        W46954   3.031  31.481  14.114
80172W        W46955  29.270  33.235  11.674
80173W        W46956  38.439  11.197   1.770
80174W        W46957  23.958  23.096   2.883
80175W        W46958  25.469   2.546  12.183
80176W        W46959  13.932  26.515  12.940
80177W        W46960  20.935   9.373   4.613
80178W        W46961  28.921  32.405  12.502
80179W        W46962   1.497   3.751  14.772
80180W        W46963  30.066  23.444  13.776
80181W        W46964  14.839  43.363  12.879
80182W        W46965   0.076   5.580  13.127
80183W        W46966  39.163  35.944   3.324
80184W        W46967   5.714  22.763   3.541
80185W        W46968   3.358  23.988   4.876
80186W        W46969  37.584  18.644  13.427
80187W        W46970  19.570  11.232   2.612
80188W        W46971   2.678  17.729   2.950
80189W        W46972  13.181  31.097   3.371
80190W        W46973  22.333  17.698   4.174
80191W        W46974   5.685   8.370   3.334
80192W        W46975  24.476  30.213   4.166
80193W        W46976  25.578  32.454   4.399
80194W        W46977  14.069   4.302   0.791
80195W        W46978  38.216  43.320   3.788
80196W        W46979  23.968  39.613  13.014
80197W        W46980   4.391  14.807   4.533
80198W        W46981  41.939   4.885   1.317
80199W        W46982  13.158   5.295   4.337
80200W        W46983  40.128  24.933  14.296
80201W        W46984  27.191  32.194   1.804
80202W        W46985  39.818  17.748   4.888
80203W        W46986  17.823  35.591  13.700
80204W        W46987   4.173  27.000   1.751
80205W        W46988   0.239   7.237   1.496
80206W        W46989  18.448  38.847  10.691
80207W        W46990  23.074   0.618  10.623
80208W        W46991  29.791  14.667  13.648
80209W        W46992  36.810  18.128  13.078
80210W        W46993  11.766  16.099   0.852
80211W        W46994  17.261  20.167   1.619
80212W        W46995   1.717   3.419   3.737
80213W        W46996  17.638  14.389   1.177
80214W        W46997   5.217  39.950   0.017
80215W        W46998  17.761  18.500   3.315
80216W        W46999  10.465   3.295   4.690
80217W        W47000   0.031  22.936  13.438
80218W        W47001  16.687  38.824   0.791
80219W        W47002   0.884   8.660  12.006
80220W        W47003   7.142   7.489  12.457
80221W        W47004  41.041   2.108   3.891
80222W        W47005  22.714   4.811  14.411
80223W        W47006  20.635  30.512   3.250
80224W        W47007   5.211   2.252  12.115
80225W        W47008  22.086  15.109   4.317
80226W        W47009  28.106  12.961   3.622
80227W        W47010  20.634  19.340   3.970
80228W        W47011  43.228  13.300   0.032
80229W        W47012  23.018   5.864  11.116
80230W        W47013  19.841  33.410   0.252
80231W        W47014  25.719  15.534  11.089
80232W        W47015  13.050  15.255   1.665
80233W        W47016  39.390  36.341   1.402
80234W        W47017  22.175  20.642   1.109
80235W        W47018  25.618   0.171   1.420
80236W        W47019  16.661  40.786  11.452
80237W        W47020  14.609  32.958   0.696
80238W        W47021   7.083  36.696  11.145
80239W        W47022  42.913  31.620  14.106
80240W        W47023  33.704  23.335   1.553
80241W        W47024  42.796   8.686   0.861
80242W        W47025   8.138   3.104   3.814
80243W        W47026   0.677   2.720  11.483
80244W        W47027  34.559  43.434  12.356
80245W        W47028  34.012  43.977   1.092
80246W        W47029  11.215  10.806  10.258
80247W        W47030  21.156  39.936   1.660
80248W        W47031  43.204  36.017   4.592
80249W        W47032  42.717  37.214   1.453
80250W        W47033  11.711  28.044  14.759
80251W        W47034  39.484  34.589  13.406
80252W        W47035  12.880  34.566   0.387
80253W        W47036  12.798  19.391  14.399
80254W        W47037   3.866  17.370  13.559
80255W        W47038  27.284  22.875  14.744
80256W        W47039   3.971  14.211  11.403
80257W        W47040  11.390  14.197   0.006
80258W        W47041  14.336  38.073   4.553
80259W        W47042   4.002  39.107  12.589
80260W        W47043  12.012  33.024  11.460
80261W        W47044  12.555  18.302  10.724
80262W        W47045   5.499  26.133  12.128
80263W        W47046  41.029  25.305   0.442
80264W        W47047  21.598  27.044  11.950
80265W        W47048  33.000  32.151   0.802
80266W        W47049  26.965   2.984  11.177
80267W        W47050  10.775  11.603  14.291
80268W        W47051  31.442   5.195  12.851
80269W        W47052  25.519  32.330  14.763
80270W        W47053   4.364  29.222   4.100
80271W        W47054   5.681   4.348  13.348
80272W        W47055  44.096   9.306  11.587
80273W        W47056  42.993  28.661  12.416
80274W        W47057  41.516  17.834   0.379
80275W        W47058   4.697  12.145   2.793
80276W        W47059  16.640  20.424   1.949
80277W        W47060  20.571  23.645   1.926
80278W        W47061  16.323  10.807   0.052
80279W        W47062   3.196  27.851  14.788
80280W        W47063  42.561  11.331   1.653
80281W        W47064  20.109  38.521   1.053
80282W        W47065  14.279  18.020  13.630
80283W        W47066  34.003  14.630  11.731
80284W        W47067  44.674  14.075   5.387
80285W        W47068   9.778  44.549   1.228
80286W        W47069  41.156   4.353   3.601
80287W        W47070  44.948  33.697   4.136
80288W        W47071   3.697  34.194   4.878
80289W        W47072  15.527  33.035   0.041
80290W        W47073   9.080   6.066   0.487
80291W        W47074  21.097  42.097  10.544
80292W        W47075  31.145  29.554   3.257
80293W        W47076  30.320  18.881   2.097
80294W        W47077  37.378  38.826  12.088
80295W        W47078  38.860   3.986  11.843
80296W        W47079  22.080  11.140   3.184
80297W        W47080  38.968  39.841   3.730
80298W        W47081  40.003   4.966  11.961
80299W        W47082  32.139  43.917  14.250
80300W        W47083  42.892  16.670  12.083
80301W        W47084  22.502  37.385   0.308
80302W        W47085  19.353  37.070   2.233
80303W        W47086  30.087  31.473  12.130
80304W        W47087   1.281  35.098   1.969
80305W        W47088  43.079   2.222   2.216
80306W        W47089  38.898  32.679  13.481
80307W        W47090  27.194  40.570  13.423
80308W        W47091  12.120  42.938   2.358
80309W        W47092   7.630   7.740   0.590
80310W        W47093   1.351  42.003   4.420
80311W        W47094   1.383  37.013  10.262
80312W        W47095  44.326  13.871   1.360
80313W        W47096  38.515  39.355   4.561
80314W        W47097  40.136   0.268  13.921
80315W        W47098  41.211  36.474   3.154
80316W        W47099  24.456  44.804  13.115
80317W        W47100  20.124  32.940   3.743
80318W        W47101  42.111  33.496  13.357
80319W        W47102   3.175   6.078   0.733
80320W        W47103   0.810   7.470   0.771
80321W        W47104   9.133  14.306  11.834
80322W        W47105   3.468   2.310   1.330
80323W        W47106  40.747  28.622   0.023
80324W        W47107  21.381  12.184  14.886
80325W        W47108   2.156  21.724   0.407
80326W        W47109  33.918  41.423   1.731
80327W        W47110  16.442  20.508   3.284
80328W        W47111  12.628  11.809   4.235
80329W        W47112  36.365   9.873   0.305
80330W        W47113   8.352  15.821   1.271
80331W        W47114  28.685  16.348   0.929
80332W        W47115  25.153  16.315   0.419
80333W        W47116   4.472   1.139   0.406
80334W        W47117  29.172   3.650   1.644
80335W        W47118   1.395  13.163  14.347
80336W        W47119   2.361   8.327   3.636
80337W        W47120  17.733  10.954   4.426
80338W        W47121  14.205  37.142  12.521
80339W        W47122  31.354  35.594   1.345
80340W        W47123  30.644   5.355   2.838
80341W        W47124  42.961  34.398   4.865
80342W        W47125  20.199   1.476  11.939
80343W        W47126  32.411  34.521  12.433
80344W        W47127   2.226  15.608  14.869
80345W        W47128  12.854  42.733   0.475
80346W        W47129  15.411  11.364  12.376
80347W        W47130  11.514  28.661   3.738
80348W        W47131  25.538  18.584   2.366
80349W        W47132  28.920   8.739   1.198
80350W        W47133   4.704  39.267   4.200
80351W        W47134  34.064  32.509  11.508
80352W        W47135  14.390  35.982   2.212
80353W        W47136   9.111  16.593  13.861
80354W        W47137  19.312   8.216  13.329
80355W        W47138   8.139   0.769   2.884
80356W        W47139  20.234  27.059   3.815
80357W        W47140   0.889   5.773   1.419
80358W        W47141  44.819  31.428  12.970
80359W        W47142  41.592  32.625   2.045
80360W        W47143  37.012  11.362   1.420
80361W        W47144  20.229  44.374  12.777
80362W        W47145  10.543  12.087  11.155
80363W        W47146  42.765   4.335   0.448
80364W        W47147  24.826  15.062   1.872
80365W        W47148  19.201   8.943  11.541
80366W        W47149  14.738  25.590  11.128
80367W        W47150  20.637  36.127  14.687
80368W        W47151  44.948  37.312   2.875
80369W        W47152  25.205  13.109   1.216
80370W        W47153   4.969  20.549   0.013
80371W        W47154  33.466   1.271   1.388
80372W        W47155  44.809   0.380   2.775
80373W        W47156  18.230  17.001  11.393
80374W        W47157  34.869  21.702  14.235
80375W        W47158  12.784   1.710   3.700
80376W        W47159  18.164  18.649   1.698
80377W        W47160  29.618  29.924  14.333
80378W        W47161  27.610  39.518  10.747
80379W        W47162  14.122  27.735   4.207
80380W        W47163  32.421   8.132  11.525
80381W        W47164  23.773  28.040   4.558
80382W        W47165  36.634  10.129  14.098
80383W        W47166  28.516   6.184  14.354
80384W        W47167  23.103  37.263  13.464
80385W        W47168  44.412   5.829   4.819
80386W        W47169  12.199  10.710  10.657
80387W        W47170  39.603  29.238   3.359
80388W        W47171  40.198  36.194   5.004
80389W        W47172   1.579  21.445  14.356
80390W        W47173  31.434  25.986   3.281
80391W        W47174   1.520  12.667   1.420
80392W        W47175  33.303  14.056   4.574
80393W        W47176  26.778   2.260  10.637
80394W        W47177   7.600  43.823  13.381
80395W        W47178   2.447  28.239   4.241
80396W        W47179   4.958  36.829  12.560
80397W        W47180  24.516  16.673   3.553
80398W        W47181  24.241  29.050   3.162
80399W        W47182  31.564  18.743   0.025
80400W        W47183   5.156  24.705   2.377
80401W        W47184   6.314  19.816   3.435
80402W        W47185  31.561  39.937  11.464
80403W        W47186  16.323  33.617  14.861
80404W        W47187  39.201  26.986   3.436
80405W        W47188  31.703   1.372   4.308
80406W        W47189  33.019  32.426   0.358
80407W        W47190  32.832  24.188   4.955
80408W        W47191  15.533  15.723  11.126
80409W        W47192  43.776  11.293   2.201
80410W        W47193   8.323  39.533   5.084
80411W        W47194  30.087  37.359   0.194
80412W        W47195  26.097  16.223  11.639
80413W        W47196  10.254  23.748   4.656
80414W        W47197  34.102  28.427  11.186
80415W        W47198  23.512  34.915  14.512
80416W        W47199  43.772  35.354  10.853
80417W        W47200   6.360  26.408   2.725
80418W        W47201   2.161  30.173   1.363
80419W        W47202  14.262  22.013  13.871
80420W        W47203   7.181  18.525  12.750
80421W        W47204  38.329  43.875  11.351
80422W        W47205  18.552   0.321  11.973
80423W        W47206  34.537  15.279   4.905
80424W        W47207  25.998  19.084   2.877
80425W        W47208  36.324  30.416   3.079
80426W        W47209   9.336  25.197  13.870
80427W        W47210  20.740  24.446  12.930
80428W        W47211  43.218  31.069   0.112
80429W        W47212  19.548  44.262   1.045
80430W        W47213  17.099  28.503  11.825
80431W        W47214   1.385   4.361   1.228
80432W        W47215   5.328  21.613  12.530
80433W        W47216   6.250   6.910  10.697
80434W        W47217  14.055   7.278   3.175
80435W        W47218  19.236   9.584   0.280
80436W        W47219  25.522  41.787  12.459
80437W        W47220  17.036  20.179   4.105
80438W        W47221  23.610  32.199   3.896
80439W        W47222  12.698  22.967  12.273
80440W        W47223  28.219  18.599  14.081
80441W        W47224  30.131  42.413  14.789
80442W        W47225  43.974  12.120   1.685
80443W        W47226  31.816  31.015   2.713
80444W        W47227  20.009  27.175   2.286
80445W        W47228   7.788   5.912  14.986
80446W        W47229  11.246  41.501   1.745
80447W        W47230   1.068   2.209   3.208
80448W        W47231  32.513  39.513  11.990
80449W        W47232  32.620  17.341  10.359
80450W        W47233  32.608  42.904   0.162
80451W        W47234  44.259  29.532   4.730
80452W        W47235  40.534  18.590   2.345
80453W        W47236  14.735  13.696  12.981
80454W        W47237   6.346  43.271   4.267
80455W        W47238  14.156   4.668  13.442
80456W        W47239  31.363  12.760  11.824
80457W        W47240  13.368  30.605   1.718
80458W        W47241  36.415  43.111  14.789
80459W        W47242  19.818  35.575  14.376
80460W        W47243  31.097  44.431   4.532
80461W        W47244   2.448   4.750   3.756
80462W        W47245  16.352  28.310  12.063
80463W        W47246  11.351  11.203   3.177
80464W        W47247  38.912  23.525  14.361
80465W        W47248  19.969   2.185  10.637
80466W        W47249  26.513  32.785  10.222
80467W        W47250  21.205   7.614  10.747
80468W        W47251  32.692   1.454   3.134
80469W        W47252   5.406   8.320  12.736
80470W        W47253   6.694   7.891  11.563
80471W        W47254  33.886  35.842  11.242
80472W        W47255  35.846  38.735   4.489
80473W        W47256   0.365   9.589   4.187
80474W        W47257  28.937  28.244   4.813
80475W        W47258  10.220  13.323  11.035
80476W        W47259  36.835  42.420   4.162
80477W        W47260  39.826   6.579  10.909
80478W        W47261  27.651  31.332   3.811
80479W        W47262   9.566  22.530   3.306
80480W        W47263  34.526  20.520  13.556
80481W        W47264  26.534   0.315   1.974
80482W        W47265   4.349  38.207   2.436
80483W        W47266  28.983  40.440  11.665
80484W        W47267  20.777  20.558   4.347
80485W        W47268  42.711  16.452   4.233
80486W        W47269  25.324  31.199   1.807
80487W        W47270  35.872  34.765  12.450
80488W        W47271  31.116  18.882  10.233
80489W        W47272  40.054  30.868  11.993
80490W        W47273  10.928  44.339   2.421
80491W        W47274  19.959  41.689  12.894
80492W        W47275  29.736  37.868  12.592
80493W        W47276  19.504  42.895  12.572
80494W        W47277  36.834  21.181   2.454
80495W        W47278  20.130   4.994  12.115
80496W        W47279   0.329  24.430  11.540
80497W        W47280  30.423   2.227  12.421
80498W        W47281   8.236  12.897  14.004
80499W        W47282   4.175  44.216  12.398
80500W        W47283  33.968   9.246  10.852
80501W        W47284  42.081  37.651   1.850
80502W        W47285   6.339   5.488  11.827
80503W        W47286  38.061  15.147   0.065
80504W        W47287   6.327  17.210   0.189
80505W        W47288  28.553  25.333  11.385
80506W        W47289  34.666   8.717   1.002
80507W        W47290  44.726  16.766   0.050
80508W        W47291  29.869  11.894  11.205
80509W        W47292  35.170  22.680   1.695
80510W        W47293  44.248   6.645  14.032
80511W        W47294  37.647  23.624   0.778
80512W        W47295   8.572   0.072  13.824
80513W        W47296  16.059  20.562   1.370
80514W        W47297  11.751  42.429  11.457
80515W        W47298   2.958  43.838  11.642
80516W        W47299   0.924  35.851  11.605
80517W        W47300  28.648  27.166   1.379
80518W        W47301  31.210  26.040   3.756
80519W        W47302   3.883  40.760   1.257
80520W        W47303  40.757  42.863   1.928
80521W        W47304  23.990  37.942   1.783
80522W        W47305  20.493  26.250  12.331
80523W        W47306  27.441   4.720  13.488
80524W        W47307   2.315   5.426  13.095
80525W        W47308   5.462  15.223  11.561
80526W        W47309  42.196  30.242  13.962
80527W        W47310  41.328  15.654   3.927
80528W        W47311  40.481  37.859  11.619
80529W        W47312  12.132  35.559   4.753
80530W        W47313  35.137  35.451   3.371
80531W        W47314  40.501   6.635  11.393
80532W        W47315  38.619  35.065   3.250
80533W        W47316  34.132  11.258  11.528
80534W        W47317  31.567   6.422   4.627
80535W        W47318  39.478  16.806  12.468
80536W        W47319  35.566  24.981   0.491
80537W        W47320  38.899   4.346   2.448
80538W        W47321  15.668  28.486  14.537
80539W        W47322  39.753   4.723   2.795
80540W        W47323  13.805  34.383  11.992
80541W        W47324  36.597  37.891   0.249
80542W        W47325  33.867  14.675   2.840
80543W        W47326  40.611  24.251   1.899
80544W        W47327  26.106  41.378  14.918
80545W        W47328  13.048  26.566   3.923
80546W        W47329   3.463  14.206  11.460
80547W        W47330  31.487  36.532   4.737
80548W        W47331  29.260  20.142  11.390
80549W        W47332  36.308   6.412  12.071
80550W        W47333  19.322  13.188   2.301
80551W        W47334  25.043  36.578   0.233
80552W        W47335   8.729  37.758   4.608
80553W        W47336  34.457  41.234   1.850
80554W        W47337  35.690  22.073   4.614
80555W        W47338   9.086  19.571  13.304
80556W        W47339  25.234  38.150  11.195
80557W        W47340  12.707   7.825   0.758
80558W        W47341  39.017  10.292   3.602
80559W        W47342  15.238  38.313  11.775
80560W        W47343  40.568  37.620  13.899
80561W        W47344  23.681  24.148   2.743
80562W        W47345  16.674  44.353  12.506
80563W        W47346  26.744  23.644   1.096
80564W        W47347  41.865  39.958  11.061
80565W        W47348  13.126  29.134   3.607
80566W        W47349  22.009  20.435   3.646
80567W        W47350  18.829  13.700   2.823
80568W        W47351  22.947  31.810   2.728
80569W        W47352  25.438  39.492   2.189
80570W        W47353  35.768   3.924  12.643
80571W        W47354  26.989   3.671   4.739
80572W        W47355   0.933  34.461  13.569
80573W        W47356  14.295  17.349  11.131
80574W        W47357  24.729   2.523  14.884
80575W        W47358  12.864  22.763   0.375
80576W        W47359  29.703   2.258   1.407
80577W        W47360  28.203  19.079  14.887
80578W        W47361  24.261   1.960  12.893
80579W        W47362   9.693  17.297   0.708
80580W        W47363  33.494  20.009  12.200
80581W        W47364  33.420  20.161   2.468
80582W        W47365  28.008  23.104  11.217
80583W        W47366  26.544  36.117   0.666
80584W        W47367  22.677  19.222  11.613
80585W        W47368   0.839  14.070   0.894
80586W        W47369  17.263  30.513  13.078
80587W        W47370   6.123  42.744   3.350
80588W        W47371   4.341  33.079  14.354
80589W        W47372  25.921  19.577   3.955
80590W        W47373  31.588  18.395   1.386
80591W        W47374  43.058  20.006   1.854
80592W        W47375  23.413   8.953   4.601
80593W        W47376   2.228  11.576  11.069
80594W        W47377  23.146  40.415   2.471
80595W        W47378  21.590  35.105   2.269
80596W        W47379   5.721  40.100  12.003
80597W        W47380  12.700  10.303  12.449
80598W        W47381  26.919  36.558   0.711
80599W        W47382   4.345   0.574   1.278
80600W        W47383  31.245   3.727  11.173
80601W        W47384  34.813  22.141   0.956
80602W        W47385  25.507  20.057   0.343
80603W        W47386  16.532  40.357  13.779
80604W        W47387   0.049   3.338  14.545
80605W        W47388  25.577  28.401  10.537
80606W        W47389  38.850  12.614   0.688
80607W        W47390   3.920   6.712   3.897
80608W        W47391  42.858   2.438   3.599
80609W        W47392  12.095  20.547  11.884
80610W        W47393  41.959   1.258  13.482
80611W        W47394  29.252  25.169  11.155
80612W        W47395  28.037  26.562  12.829
80613W        W47396  44.154  13.138  12.059
80614W        W47397  37.979  21.382   0.169
80615W        W47398  39.374  16.359  11.209
80616W        W47399  23.560  24.444   3.658
80617W        W47400   6.684   9.929   2.174
80618W        W47401   7.335  33.562   4.462
80619W        W47402  21.541  27.564  10.783
80620W        W47403   8.381  36.534  14.339
80621W        W47404   3.234   8.849  14.022
80622W        W47405  12.174   0.370  14.396
80623W        W47406   3.564  16.711  11.665
80624W        W47407  24.665  29.114  11.391
80625W        W47408  29.182  33.742  11.563
80626W        W47409  16.474  35.811  14.091
80627W        W47410  31.401  44.186   1.429
80628W        W47411  42.411   0.041   2.893
80629W        W47412  21.667  20.264  13.507
80630W        W47413  29.454  25.033  11.604
80631W        W47414  42.927   6.851  12.017
80632W        W47415  43.244  43.470   0.944
80633W        W47416  23.689  40.103   3.525
80634W        W47417   4.755  31.937  11.535
80635W        W47418  39.011  27.682   4.292
80636W        W47419   1.295  23.655  10.924
80637W        W47420  43.377  44.629  12.847
80638W        W47421  20.694  43.456  14.106
80639W        W47422  24.621  11.764   2.699
80640W        W47423   2.206  28.536  11.409
80641W        W47424   2.238  42.507   1.135
80642W        W47425  31.123  44.859   4.238
80643W        W47426   6.942  35.723   1.733
80644W        W47427  42.408  39.799  14.707
80645W        W47428  23.627  30.309   1.964
80646W        W47429  41.842   5.153  13.591
80647W        W47430   1.837  23.091   4.755
80648W        W47431  25.499  25.011  12.974
80649W        W47432   9.254  42.946  11.635
80650W        W47433  12.185  10.376  12.466
80651W        W47434  24.636  15.937   1.760
80652W        W47435   1.712  35.364  14.453
80653W        W47436   1.519  37.531   3.743
80654W        W47437  30.025   1.999  10.724
80655W        W47438  36.819  15.710   2.028
80656W        W47439   3.189   4.823  13.350
80657W        W47440  25.978  36.923  11.183
80658W        W47441  10.091  27.532  13.685
80659W        W47442  24.888   8.717  12.111
80660W        W47443   8.576  18.229   4.057
80661W        W47444  20.070  27.636   1.716
80662W        W47445  25.749  37.530   0.362
80663W        W47446  44.141  38.675  10.428
80664W        W47447  31.049   0.253  13.996
80665W        W47448  28.409  40.338  14.838
80666W        W47449  17.731   4.060  14.391
80667W        W47450   2.996   2.536  12.902
80668W        W47451  37.006  23.757   1.953
80669W        W47452   6.231  15.702   4.480
80670W        W47453  37.424  22.001  14.905
80671W        W47454  30.616  23.835   3.444
80672W        W47455  14.809  43.803  13.370
80673W        W47456  39.607  19.736  11.179
80674W        W47457  25.094  40.471  12.345
80675W        W47458  34.941  10.860  14.873
80676W        W47459  40.855  24.550  11.677
80677W        W47460  39.547   5.816   3.136
80678W        W47461   7.787   7.507   4.294
80679W        W47462  17.211  36.309  10.689
80680W        W47463   6.888   4.321   3.626
80681W        W47464   4.924  27.583   0.934
80682W        W47465  10.764  31.054  10.696
80683W        W47466  37.502  36.102  10.785
80684W        W47467  34.290   8.166  11.608
80685W        W47468  10.326  37.319  11.529
80686W        W47469  35.186   2.197   0.882
80687W        W47470  14.836  41.787   0.775
80688W        W47471   1.815  37.757  13.112
80689W        W47472  40.860   1.066  11.019
80690W        W47473  10.656  17.342  14.957
80691W        W47474  22.552  40.271   3.087
80692W        W47475  34.784  13.170   1.641
80693W        W47476  19.623  40.407   3.589
80694W        W47477  43.378  38.470   2.342
80695W        W47478  17.989   2.234  14.887
80696W        W47479  17.105   5.974   0.172
80697W        W47480  44.753  13.939   3.133
80698W        W47481  19.742  44.703   0.377
80699W        W47482  25.545  34.151   1.434
80700W        W47483  15.724   3.197  14.505
80701W        W47484  16.084   4.182  11.591
80702W        W47485  26.530  41.748  12.436
80703W        W47486  20.907  19.548  12.056
80704W        W47487  30.155  28.597  14.465
80705W        W47488  42.003  36.153  13.379
80706W        W47489   9.094  22.234  12.911
80707W        W47490  31.691  28.980  13.471
80708W        W47491   2.875  24.597  11.161
80709W        W47492  36.641  15.157  13.959
80710W        W47493  21.935  28.873   1.859
80711W        W47494   7.385  20.662  13.144
80712W        W47495  35.975  22.228   2.475
80713W        W47496   0.861  31.622   2.863
80714W        W47497  34.997  25.482  11.606
80715W        W47498  22.320  18.210   1.023
80716W        W47499  24.891  14.213  11.049
80717W        W47500  25.952  17.845  12.534
80718W        W47501  18.304  44.211   5.001
80719W        W47502  28.461  10.354  13.081
80720W        W47503  35.503  12.776  11.787
80721W        W47504  12.250  26.183   4.584
80722W        W47505  43.829   5.928  10.642
80723W        W47506  39.190   8.860  10.798
80724W        W47507  20.724  30.892  13.070
80725W        W47508  19.040  43.869  12.476
80726W        W47509  30.679  10.317  11.798
80727W        W47510  38.616  27.270   0.771
80728W        W47511  21.583  10.708  13.358
80729W        W47512  21.009  13.576  14.593
80730W        W47513  18.572   0.519  12.434
80731W        W47514  19.050  14.268   3.802
80732W        W47515  29.395  40.820  14.825
80733W        W47516  31.168  10.501  11.944
80734W        W47517  29.061  28.109   1.202
80735W        W47518  16.984  38.161   1.826
80736W        W47519  34.799  33.011  12.877
80737W        W47520  24.584  29.918  10.601
80738W        W47521  25.563  27.487  11.612
80739W        W47522   2.769   1.018  11.082
80740W        W47523  43.978  33.167  12.113
80741W        W47524   3.289   8.349   4.215
80742W        W47525  24.964  43.023  13.098
80743W        W47526  11.658  16.303   2.244
80744W        W47527  43.190  30.629   3.213
80745W        W47528  35.686   1.864   1.206
80746W        W47529  34.461  32.850   4.501
80747W        W47530  18.151  22.228   0.205
80748W        W47531  32.050  37.542   0.361
80749W        W47532  14.179   5.850  12.935
80750W        W47533   2.083  42.845   1.524
80751W        W47534  38.464   1.862  12.105
80752W        W47535  11.825  13.185  11.184
80753W        W47536   8.196   9.326   4.413
80754W        W47537  18.076  30.566   2.346
80755W        W47538  25.462   7.528  10.280
80756W        W47539  23.731  14.620   4.081
80757W        W47540  18.744  24.646   2.886
80758W        W47541  16.403  43.802  14.256
80759W        W47542  36.376  15.309   3.454
80760W        W47543  14.089  30.344   2.861
80761W        W47544   2.854  21.858   4.960
80762W        W47545  15.027  40.472   0.552
80763W        W47546  37.846   2.262  10.779
80764W        W47547  35.736  18.288  10.052
80765W        W47548  40.087   4.979   2.249
80766W        W47549  30.446  11.246   3.638
80767W        W47550   9.359   3.837  10.903
80768W        W47551  11.792  10.198   3.583
80769W        W47552   0.911   3.428   4.150
80770W        W47553   6.319  44.435  12.368
80771W        W47554  11.374  21.128  12.164
80772W        W47555  40.291  11.751  12.107
80773W        W47556  29.247   5.788  11.659
80774W        W47557  35.901  31.220  14.684
80775W        W47558  35.089   8.791   3.652
80776W        W47559  23.129  13.382   4.245
80777W        W47560  11.131  31.549   2.882
80778W        W47561  23.495   9.979   3.764
80779W        W47562  30.419   9.956  14.549
80780W        W47563  32.686   1.095   1.781
80781W        W47564  21.583  18.641   1.295
80782W        W47565  22.531  29.075  11.945
80783W        W47566  19.362  10.287   1.933
80784W        W47567   8.817   7.242   1.535
80785W        W47568  20.330  17.572   3.277
80786W        W47569  35.849  18.620  11.003
80787W        W47570   9.085  16.969  11.470
80788W        W47571  14.907   5.393   2.303
80789W        W47572  34.898  20.770   2.898
80790W        W47573  20.545  16.256   0.310
80791W        W47574  11.192  12.173  11.741
80792W        W47575   0.688  17.518  13.231
80793W        W47576  31.608  29.090   2.661
80794W        W47577   6.381  21.316  13.972
80795W        W47578  42.558   6.253   3.171
80796W        W47579   8.028  15.307   4.824
80797W        W47580  12.851  24.106  13.042
80798W        W47581  11.744  35.923   3.384
80799W        W47582  33.697   1.842   1.366
80800W        W47583  43.336  22.408  11.639
80801W        W47584  43.412   5.903  11.927
80802W        W47585  12.081  17.075  10.690
80803W        W47586  40.861   2.370  14.883
80804W        W47587  40.898  44.379  12.569
80805W        W47588  30.073  20.856  14.477
80806W        W47589  12.756   1.471  14.038
80807W        W47590  29.808   1.025   1.641
80808W        W47591   8.630   2.210   0.482
80809W        W47592  24.588   0.071   3.151
80810W        W47593  36.728  14.841   1.272
80811W        W47594  37.892  37.802  10.452
80812W        W47595  17.751   7.680  11.037
80813W        W47596   2.218  23.497  14.983
80814W        W47597  10.519  22.654  11.639
80815W        W47598  27.735  22.041   0.806
80816W        W47599  19.678  32.659  12.404
80817W        W47600  40.587  25.259   0.719
80818W        W47601  35.132   8.327   1.744
80819W        W47602  23.909  20.197  13.771
80820W        W47603  21.406  19.163  10.700
80821W        W47604  39.676  34.890  12.442
80822W        W47605  20.129  19.135  12.973
80823W        W47606  18.012  40.276  12.576
80824W        W47607  11.837  22.757   4.943
80825W        W47608  19.119  23.589   0.308
80826W        W47609  14.581   9.121  10.232
80827W        W47610  13.928  35.184   0.583
80828W        W47611   8.727   5.299  11.659
80829W        W47612   6.622  38.282   1.536
80830W        W47613  40.879  12.695   2.785
80831W        W47614  26.347  12.368  12.176
80832W        W47615   9.818  16.298  11.840
80833W        W47616  25.428  10.841   1.499
80834W        W47617  42.426  38.107   1.356
80835W        W47618   8.624  15.089  11.070
80836W        W47619   7.875  16.590  13.426
80837W        W47620  40.634   8.703   9.600
80838W        W47621  43.305  12.923  13.710
80839W        W47622  36.074   1.440   1.292
80840W        W47623   5.360  39.728   1.758
80841W        W47624  33.132  31.827  12.056
80842W        W47625  24.182  34.170   4.487
80843W        W47626  13.028  40.007  12.302
80844W        W47627   9.810  25.147  14.085
80845W        W47628   8.393  34.609  12.922
80846W        W47629  44.531  24.087   4.206
80847W        W47630  12.391  25.501   1.473
80848W        W47631   0.873   5.853   1.947
80849W        W47632  22.529  14.353   4.722
80850W        W47633  16.003  25.615  14.983
80851W        W47634  21.091  42.472   4.811
80852W        W47635   1.673  22.065  13.004
80853W        W47636  19.729   9.019  11.596
80854W        W47637   1.983  24.162  14.588
80855W        W47638   4.666  21.739  11.558
80856W        W47639  13.727  31.097  10.729
80857W        W47640  42.774   0.305  14.686
80858W        W47641  16.706  34.341   3.247
80859W        W47642  21.617   4.168   1.052
80860W        W47643   7.413  29.286   4.491
80861W        W47644  14.629  32.944  14.844
80862W        W47645  16.180  36.761   3.155
80863W        W47646  10.668  32.445   1.304
80864W        W47647  40.744  32.803   1.761
80865W        W47648  20.306  29.447   4.611
80866W        W47649  16.524  16.858   3.549
80867W        W47650  32.918  21.509   1.939
80868W        W47651  24.696   7.405  14.965
80869W        W47652  10.298  17.965   3.727
80870W        W47653  22.025   1.327   0.812
80871W        W47654  36.864  39.989   0.481
80872W        W47655   4.653   2.289   2.238
80873W        W47656  22.963  13.132   2.629
80874W        W47657  26.649  12.097  12.496
80875W        W47658  41.489  16.533  12.884
80876W        W47659  14.796  20.436   0.479
80877W        W47660  25.979  34.246   3.077
80878W        W47661  16.776  22.073  13.088
80879W        W47662  32.546  17.491   2.688
80880W        W47663  32.597  24.201   4.490
80881W        W47664  25.838  27.584  14.785
80882W        W47665   0.001  14.143   0.314
80883W        W47666  17.663   1.176   0.332
80884W        W47667   3.853   1.260  14.507
80885W        W47668  11.092  37.407   0.009
80886W        W47669  28.077  21.021  11.998
80887W        W47670   5.136  44.428   2.664
80888W        W47671  36.648  25.169  14.782
80889W        W47672   3.704  10.211  14.665
80890W        W47673   5.365  36.035   4.484
80891W        W47674  20.682   9.883   4.599
80892W        W47675   0.927   3.264   1.996
80893W        W47676  36.916   4.472  14.429
80894W        W47677  18.491  14.545   4.525
80895W        W47678  11.318  11.295   0.682
80896W        W47679   9.436  28.058   1.360
80897W        W47680  28.914   5.646  12.004
80898W        W47681  15.744  20.488  11.929
80899W        W47682  14.693  40.745   3.284
80900W        W47683  32.371  33.414   2.269
80901W        W47684  28.745  36.968  13.073
80902W        W47685  24.603  34.594  12.545
80903W        W47686  26.190  34.522  13.438
80904W        W47687   1.251  19.596   1.930
80905W        W47688  20.788  40.091  10.134
80906W        W47689  38.284  26.239   4.768
80907W        W47690  35.877  11.878   4.062
80908W        W47691  12.654   5.465  14.875
80909W        W47692   9.409  41.315  13.789
80910W        W47693  27.673  15.230   2.269
80911W        W47694  13.342  19.230  13.335
80912W        W47695   4.792  20.532   0.931
80913W        W47696   7.135  39.814  14.841
80914W        W47697  28.278   2.474  13.444
80915W        W47698  39.511  29.939  12.571
80916W        W47699  23.968  21.809  14.953
80917W        W47700  16.730  15.092  11.131
80918W        W47701  39.026  41.776   2.729
80919W        W47702  16.108  24.158   4.655
80920W        W47703  44.323  44.986   3.692
80921W        W47704   9.220  12.184   3.875
80922W        W47705   9.027  33.011   0.178
80923W        W47706   5.284   0.432  12.792
80924W        W47707  35.859  27.493   0.702
80925W        W47708  33.636  18.965   9.780
80926W        W47709  32.842  37.603  11.018
80927W        W47710  25.713   2.814   0.751
80928W        W47711  16.542  29.535   4.829
80929W        W47712  15.789   3.771  10.889
80930W        W47713  34.124  43.417   3.547
80931W        W47714  43.256  25.049  13.782
80932W        W47715  40.023  42.016  11.168
80933W        W47716  36.597  16.760  11.486
80934W        W47717  36.803   3.854  12.430
80935W        W47718  35.806  34.100   3.322
80936W        W47719   8.182  34.009  14.518
80937W        W47720  28.061   7.877  11.096
80938W        W47721   9.618   8.925  10.619
80939W        W47722  18.667  19.264  12.912
80940W        W47723   7.333  38.307   3.287
80941W        W47724  38.072  22.108  10.968
80942W        W47725  24.234  34.370  11.543
80943W        W47726  25.793   2.111   0.494
80944W        W47727  30.659  12.331   3.239
80945W        W47728   4.738  21.131  12.863
80946W        W47729   9.366  11.088  10.662
80947W        W47730  22.139  33.098   4.606
80948W        W47731   1.379  16.014   3.740
80949W        W47732  21.842   7.868  11.995
80950W        W47733   3.929  42.332  10.879
80951W        W47734  37.449  30.326  13.424
80952W        W47735  27.224  39.044  11.544
80953W        W47736  15.603  19.235   4.708
80954W        W47737  24.799   6.406   3.769
80955W        W47738   0.891  40.253  12.789
80956W        W47739  29.720  39.977   0.046
80957W        W47740   7.306   8.422   2.816
80958W        W47741  44.759  27.097  13.135
80959W        W47742  15.954  27.301  13.894
80960W        W47743  22.594  19.566   2.348
80961W        W47744   2.255  43.362  11.046
80962W        W47745  29.535  11.590   0.214
80963W        W47746  19.701  30.018   4.579
80964W        W47747  30.491  17.338  14.845
80965W        W47748  26.061  35.131   0.943
80966W        W47749  26.951  24.034   2.447
80967W        W47750  32.983  28.856  12.569
80968W        W47751   3.022  12.963   4.263
80969W        W47752  17.294  18.604   3.130
80970W        W47753  30.028   8.439   4.624
80971W        W47754  18.380  20.585   1.064
80972W        W47755  40.733  37.789   4.617
80973W        W47756  30.516  37.830  12.077
80974W        W47757  30.543  38.460   2.676
80975W        W47758  44.330   9.378   4.502
80976W        W47759   2.298  17.579   1.677
80977W        W47760  14.971  17.363   2.239
80978W        W47761  40.254  18.201  12.892
80979W        W47762  39.264  41.564   1.504
80980W        W47763  33.908  14.542   0.910
80981W        W47764  32.651  28.917   1.739
80982W        W47765   2.302  32.585  11.508
80983W        W47766  37.811  25.974   4.246
80984W        W47767  44.245  10.751   1.900
80985W        W47768   8.278  21.060   3.726
80986W        W47769  22.986  40.129   0.521
80987W        W47770   6.425  18.311  10.382
80988W        W47771   9.316  13.828   1.288
80989W        W47772  29.047  10.735  12.544
80990W        W47773   1.288  38.592   0.376
80991W        W47774  25.994  35.231   1.704
80992W        W47775  28.187  28.992   0.177
80993W        W47776  32.426  41.546  14.342
80994W        W47777  15.760  28.261   2.380
80995W        W47778  22.950   8.815  11.488
80996W        W47779  37.035  12.418  14.037
80997W        W47780  30.578  29.348  13.455
80998W        W47781  23.238  12.945   2.225
80999W        W47782  27.579   4.175  11.088
81000W        W47783   5.025  16.469   3.431
81001W        W47784  35.850  40.103  14.344
81002W        W47785  30.436  42.955   3.313
81003W        W47786  24.222  16.231   1.021
81004W        W47787  13.571   6.254   0.262
81005W        W47788  42.086  18.730   2.247
81006W        W47789  25.014   5.382  14.877
81007W        W47790  34.186   7.837   0.650
81008W        W47791   3.047  36.884  13.915
81009W        W47792  17.751   4.272   0.313
81010W        W47793  15.766  41.427   4.663
81011W        W47794   0.770  27.953   1.387
81012W        W47795  38.416   1.479   1.769
81013W        W47796  15.470   5.447   2.774
81014W        W47797  43.435   6.774  12.053
81015W        W47798  42.193  27.983   2.227
81016W        W47799  33.007  37.213   1.268
81017W        W47800  28.996   6.941  11.638
81018W        W47801  11.658  16.697  14.237
81019W        W47802  27.158   4.411  13.830
81020W        W47803  39.049  33.435   9.944
81021W        W47804  27.530  10.714   4.457
81022W        W47805   7.229  33.453   0.399
81023W        W47806  34.286  14.777  11.308
81024W        W47807  11.242   5.826   3.247
81025W        W47808  42.308   6.197   4.761
81026W        W47809  11.285  31.444  14.349
81027W        W47810  40.308   9.794  13.843
81028W        W47811   8.749  30.502   1.905
81029W        W47812  13.664   3.259  12.946
81030W        W47813  37.176  33.037  10.683
81031W        W47814  27.155   1.673  11.462
81032W        W47815  13.074  13.485  12.019
81033W        W47816  16.863  35.941   0.870
81034W        W47817  44.247  42.852   4.655
81035W        W47818  14.759  22.502  12.956
81036W        W47819  41.561  37.434  14.748
81037W        W47820   6.430  18.717  14.335
81038W        W47821  42.082  41.067   2.350
81039W        W47822   6.347   4.898   4.642
81040W        W47823  20.280  40.846   4.084
81041W        W47824  39.882  15.344   2.201
81042W        W47825  42.300  25.240  13.354
81043W        W47826  41.730  30.211  13.770
81044W        W47827  27.716  34.573  10.452
81045W        W47828  32.632   3.264  13.551
81046W        W47829  26.034  17.740  10.758
81047W        W47830   5.042  34.745  14.737
81048W        W47831  23.412   7.225  11.137
81049W        W47832  38.021  37.199   0.447
81050W        W47833  18.315  17.987  10.613
81051W        W47834   0.480   7.202  12.397
81052W        W47835  20.986   5.440   3.224
81053W        W47836  41.249  10.780   0.916
81054W        W47837  10.155  34.428   3.302
81055W        W47838  34.201  41.562  12.493
81056W        W47839  14.728  40.317  10.858
81057W        W47840  36.867  36.525   2.776
81058W        W47841  17.393   2.279  11.069
81059W        W47842  39.358  38.774  14.217
81060W        W47843  13.482  26.341   3.097
81061W        W47844  25.851  33.102  12.621
81062W        W47845  24.964  19.169   0.751
81063W        W47846  37.835  12.184   1.870
81064W        W47847  30.067   8.247   2.731
81065W        W47848  15.501  12.384  12.077
81066W        W47849  27.622   2.428   4.088
81067W        W47850   1.426  42.214   2.816
81068W        W47851  31.068  23.603   4.212
81069W        W47852  13.406  20.434   3.197
81070W        W47853  40.289   7.320  14.993
81071W        W47854  40.722  41.547   3.892
81072W        W47855  13.575  26.332   5.119
81073W        W47856  30.532  35.898   3.305
81074W        W47857   3.927  18.702   0.198
81075W        W47858  39.504  10.755   3.262
81076W        W47859  35.117  43.855  13.982
81077W        W47860  19.284  21.150  10.702
81078W        W47861  21.678  26.063   0.332
81079W        W47862  14.987  33.151   4.121
81080W        W47863   9.142  36.627   3.630
81081W        W47864  39.839  25.749   0.209
81082W        W47865  37.117   9.432   3.717
81083W        W47866   8.885  31.419   1.708
81084W        W47867  11.721  28.488   0.257
81085W        W47868  26.456   3.307   0.558
81086W        W47869   1.498  44.171  11.125
81087W        W47870  44.105  11.759   4.561
81088W        W47871  11.603  37.516  10.627
81089W        W47872   2.448  26.114   4.938
81090W        W47873  29.629  16.622  13.424
81091W        W47874  20.288   4.634  14.360
81092W        W47875  30.226  19.358   9.762
81093W        W47876   8.743   8.728  14.131
81094W        W47877  16.946   0.423  14.435
81095W        W47878   6.231  28.208   4.207
81096W        W47879  11.638  43.462  13.451
81097W        W47880  10.551  16.307   1.293
81098W        W47881  25.972  31.568   0.849
81099W        W47882  43.885  16.143  12.992
81100W        W47883   1.487  11.361  14.429
81101W        W47884  18.697   1.412  12.424
81102W        W47885  30.184   8.612   4.137
81103W        W47886   6.163  33.494   1.176
81104W        W47887  32.558  29.788   1.966
81105W        W47888   1.745  26.256  12.557
81106W        W47889   8.864  35.085  12.528
81107W        W47890  42.086  43.975  13.305
81108W        W47891  22.215  32.842  14.876
81109W        W47892  10.804   0.091   3.362
81110W        W47893   7.733   3.673  11.769
81111W        W47894  22.789  15.141  13.640
81112W        W47895  18.162  43.055  13.412
81113W        W47896  12.784  24.703   2.736
81114W        W47897  34.606  44.995   3.279
81115W        W47898  23.485  14.159  11.039
81116W        W47899  20.494  10.287  13.965
81117W        W47900  17.606   0.514   3.891
81118W        W47901  19.759  22.451  10.792
81119W        W47902  17.876  20.993   4.041
81120W        W47903   3.867  35.354   1.046
81121W        W47904  13.674   0.229   1.369
81122W        W47905  23.611  11.402  14.003
81123W        W47906   8.449   0.989  11.637
81124W        W47907   9.933   4.512  12.794
81125W        W47908   0.550   0.703   0.744
81126W        W47909  20.193  32.918   4.652
81127W        W47910  27.301  33.127  13.351
81128W        W47911  27.237   9.951   1.643
81129W        W47912   0.764  30.607  12.463
81130W        W47913  22.622  24.815   4.921
81131W        W47914  38.269   3.183  11.150
81132W        W47915  22.130  17.872   1.765
81133W        W47916  24.913  10.382   0.554
81134W        W47917  38.781   0.499  14.597
81135W        W47918  31.981   7.425  14.928
81136W        W47919  40.986  43.464   2.705
81137W        W47920  24.507  33.813   4.253
81138W        W47921  29.413   7.239  12.962
81139W        W47922  17.866   7.192  11.142
81140W        W47923  11.605  32.765  10.162
81141W        W47924  12.178  30.004   4.755
81142W        W47925  40.283  27.491   0.547
81143W        W47926   4.892  18.579  13.765
81144W        W47927  21.234  36.430  13.886
81145W        W47928  12.864  12.199  14.067
81146W        W47929  44.654  43.882  12.319
81147W        W47930  43.220   8.068  13.989
81148W        W47931  10.895  36.300  10.433
81149W        W47932  20.635  16.256  11.063
81150W        W47933  12.188   5.391   1.218
81151W        W47934  27.004   9.405   3.962
81152W        W47935   2.280  42.506   3.676
81153W        W47936  42.572   8.438  14.957
81154W        W47937  38.969  29.239  10.177
81155W        W47938  40.516  31.105  11.715
81156W        W47939   8.841  40.540  12.529
81157W        W47940  27.227  22.614  12.551
81158W        W47941  29.205  19.365   3.183
81159W        W47942  30.229  28.788  12.665
81160W        W47943  24.245  42.317  13.511
81161W        W47944  17.178   9.739  11.708
81162W        W47945   5.560   2.277  11.249
81163W        W47946  22.469   3.259   3.045
81164W        W47947   3.254  32.502   2.618
81165W        W47948  36.846   1.441   4.559
81166W        W47949  28.706   7.918  10.531
81167W        W47950  30.955   3.968   4.797
81168W        W47951   9.732  34.490   1.709
81169W        W47952  36.470  26.475   1.366
81170W        W47953  27.619  35.030   1.240
81171W        W47954  43.580  36.448   3.903
81172W        W47955  10.541  34.035   3.263
81173W        W47956  43.709   5.781  12.339
81174W        W47957  21.742  29.884  11.093
81175W        W47958  20.774  19.067   1.185
81176W        W47959   4.345  33.435   2.894
81177W        W47960   1.919   1.225   4.455
81178W        W47961  16.114  29.679  14.908
81179W        W47962  20.890  38.516   2.112
81180W        W47963   1.854  44.934  14.378
81181W        W47964   2.502  28.498  14.695
81182W        W47965   3.413  11.126   4.152
81183W        W47966  40.472   5.949   0.728
81184W        W47967  22.301  17.406   0.512
81185W        W47968   7.331  12.967   3.685
81186W        W47969  38.302   4.665  13.910
81187W        W47970  22.550   6.900  11.124
81188W        W47971  33.136  41.878   4.407
81189W        W47972  21.534   5.936   1.239
81190W        W47973   4.323   0.064   2.704
81191W        W47974  34.447  31.873   0.290
81192W        W47975  27.523  37.298  12.567
81193W        W47976  24.000  14.294   2.641
81194W        W47977  10.048  43.455   2.760
81195W        W47978  40.988  29.894   2.773
81196W        W47979  17.593   1.813   2.410
81197W        W47980   3.662  41.016  12.285
81198W        W47981   2.860  14.145  13.730
81199W        W47982  39.785  39.277   2.666
81200W        W47983  28.057  29.216   3.705
81201W        W47984  37.359  16.579   2.330
81202W        W47985  28.739  40.466  12.262
81203W        W47986   7.173   5.978  13.340
81204W        W47987  23.990   2.192  12.077
81205W        W47988  37.096   2.069  13.600
81206W        W47989  32.411   5.901  12.916
81207W        W47990  28.111  40.887  11.916
81208W        W47991  20.362  21.083   1.338
81209W        W47992  16.347  38.760   1.184
81210W        W47993  34.876  23.938   0.330
81211W        W47994  23.563  41.601   4.486
81212W        W47995  34.487  21.821   0.540
81213W        W47996  22.507  17.189  11.576
81214W        W47997  36.124  36.894  14.361
81215W        W47998  26.600   4.818  12.555
81216W        W47999   3.395  12.593   0.941
81217W        W48000  41.946  10.898   4.578
81218W        W48001  10.961   9.242   2.357
81219W        W48002  25.204   4.356  13.532
81220W        W48003  26.084  19.411   5.023
81221W        W48004   6.918  27.398   2.873
81222W        W48005  19.790  27.285  14.301
81223W        W48006  28.995  10.638   4.868
81224W        W48007  29.300  29.109   3.125
81225W        W48008  22.628  41.115  14.416
81226W        W48009  31.959  29.883   1.287
81227W        W48010  17.855   4.270  13.943
81228W        W48011  17.272  10.412  10.067
81229W        W48012   0.726  19.258  13.043
81230W        W48013  14.067   2.208  14.066
81231W        W48014  23.265  16.356   1.445
81232W        W48015  40.541  42.381  12.368
81233W        W48016  37.830  19.605  11.985
81234W        W48017   0.646  30.642   4.924
81235W        W48018  32.519  12.815   1.297
81236W        W48019  18.332  16.253   2.025
81237W        W48020  31.925  42.542  13.087
81238W        W48021  41.735   6.652  14.779
81239W        W48022  41.910   7.369   2.060
81240W        W48023  21.347  38.931  11.575
81241W        W48024  21.011  38.787  12.555
81242W        W48025  41.549  21.447  10.657
81243W        W48026   0.325  35.957   2.620
81244W        W48027  25.889  27.513  13.043
81245W        W48028  39.742  33.729  13.442
81246W        W48029  20.721  32.833  11.439
81247W        W48030  13.167  13.386  12.500
81248W        W48031  40.548   3.468  10.941
81249W        W48032  41.231  13.301   1.257
81250W        W48033  36.517   8.867   1.242
81251W        W48034  31.524  28.002  12.994
81252W        W48035  40.396  40.058   2.273
81253W        W48036   4.272  15.802   2.857
81254W        W48037  12.213  24.245   0.799
81255W        W48038  43.916   5.772   4.654
81256W        W48039  39.495  21.476   3.837
81257W        W48040  30.622  42.261  13.432
81258W        W48041  28.564   9.628  12.349
81259W        W48042   8.287  32.848  12.711
81260W        W48043  13.633  30.192  12.160
81261W        W48044  19.294  24.056  14.549
81262W        W48045  30.871  14.164   3.260
81263W        W48046  42.018  19.468  12.009
81264W        W48047   7.873  39.279   4.220
81265W        W48048  20.606  30.120   0.916
81266W        W48049  17.621  38.592  14.309
81267W        W48050  25.581  34.467  14.587
81268W        W48051  24.463  44.042   4.288
81269W        W48052  14.163  22.467  11.555
81270W        W48053  33.911  15.726   4.999
81271W        W48054   0.887  10.098   3.384
81272W        W48055  13.629  23.234   3.294
81273W        W48056  40.971  18.033  13.433
81274W        W48057  21.968   2.996  12.638
81275W        W48058  43.572  22.307  14.906
81276W        W48059   1.726  40.402  13.235
81277W        W48060   0.850  39.805   1.773
81278W        W48061   3.399  28.803  14.347
81279W        W48062  41.297  36.020  11.804
81280W        W48063  11.768  40.176   3.294
81281W        W48064  19.057  32.592  14.561
81282W        W48065  42.628   8.762   2.598
81283W        W48066  19.190  38.111  12.029
81284W        W48067   3.575  15.181   2.693
81285W        W48068  25.411  40.350  13.567
81286W        W48069  10.329  32.657   2.787
81287W        W48070  43.625  25.830  14.871
81288W        W48071  26.918  33.867   3.221
81289W        W48072   0.827  15.059  10.501
81290W        W48073  41.336  41.943   0.400
81291W        W48074  24.449  39.339  14.884
81292W        W48075  26.035  38.738  10.244
81293W        W48076  25.039  12.384   3.594
81294W        W48077   6.983  28.489  10.707
81295W        W48078  41.591  39.552   3.529
81296W        W48079  39.030   5.875  14.966
81297W        W48080  23.176  23.925   1.770
81298W        W48081   8.616   0.412   0.052
81299W        W48082  12.946  42.470   3.244
81300W        W48083  22.503  23.009   4.628
81301W        W48084   0.712  42.896   1.159
81302W        W48085   3.009   5.404   2.400
81303W        W48086   6.850  39.892  10.405
81304W        W48087  16.603  44.871  12.614
81305W        W48088  22.288  21.006  13.917
81306W        W48089   8.884  15.084  10.591
81307W        W48090  34.040   2.766  12.596
81308W        W48091  31.531  32.455   0.742
81309W        W48092  39.941  17.379   3.120
81310W        W48093   6.910  28.313  13.435
81311W        W48094  22.706  32.365  10.907
81312W        W48095  20.196  11.636  14.402
81313W        W48096  29.535  36.624  14.341
81314W        W48097   5.933  31.362  10.655
81315W        W48098  10.023  35.503  11.585
81316W        W48099   8.158  39.551  14.452
81317W        W48100  24.805  15.102  14.983
81318W        W48101   9.909  11.120   4.109
81319W        W48102   2.776  10.737   0.699
81320W        W48103  20.307  19.569  12.734
81321W        W48104  17.350  32.068   1.329
81322W        W48105  20.506   1.460  13.799
81323W        W48106  23.197  19.412   1.898
81324W        W48107  35.874  30.216  12.555
81325W        W48108  41.169  28.991  10.801
81326W        W48109  11.243  41.494   4.952
81327W        W48110   9.670   2.327   3.572
81328W        W48111  39.807  30.982  14.419
81329W        W48112  14.726   1.972   0.755
81330W        W48113  25.807  44.849   2.728
81331W        W48114   3.916  40.278   1.093
81332W        W48115  16.518   8.316   4.177
81333W        W48116  15.242  34.874   1.310
81334W        W48117  31.505  29.567   1.335
81335W        W48118  26.189   8.726  11.433
81336W        W48119  38.444  17.961  12.667
81337W        W48120  19.666  10.101  10.650
81338W        W48121   4.693  35.112   2.544
81339W        W48122   2.355  28.080  10.796
81340W        W48123  43.535   9.232  13.963
81341W        W48124  32.640  43.502   4.605
81342W        W48125   2.232   0.782  14.277
81343W        W48126  28.041  10.715   2.833
81344W        W48127  22.792  31.120  12.090
81345W        W48128  30.535  40.273   3.245
81346W        W48129  34.834  12.452  13.164
81347W        W48130  10.546   8.343   1.920
81348W        W48131  42.492  37.286  14.392
81349W        W48132  24.988  25.155  13.669
81350W        W48133  36.412   8.223   0.772
81351W        W48134  24.196   5.706   5.199
81352W        W48135  11.341  24.916   4.750
81353W        W48136  17.474  20.198   4.457
81354W        W48137  41.665   2.345  11.450
81355W        W48138  44.513  40.374  14.980
81356W        W48139  34.158   4.507   3.120
81357W        W48140  28.378  22.573   1.796
81358W        W48141  12.288  31.928  10.394
81359W        W48142   9.299  24.458  14.410
81360W        W48143  41.329  40.116  13.198
81361W        W48144  32.854   6.491   4.565
81362W        W48145  14.858  26.596   4.207
81363W        W48146  42.690  20.997   3.841
81364W        W48147  17.188   5.994  14.634
81365W        W48148  44.249  39.103  11.164
81366W        W48149  27.166   3.263  14.900
81367W        W48150  13.081  35.246  13.425
81368W        W48151   0.333   7.658   4.589
81369W        W48152  33.719  42.100  13.671
81370W        W48153   3.092  15.033  11.959
81371W        W48154  32.906  32.627   3.736
81372W        W48155  10.656  43.245  14.428
81373W        W48156  40.585  28.694   1.395
81374W        W48157   3.270  29.881  12.049
81375W        W48158  21.710  44.178  10.526
81376W        W48159  29.099   1.836  12.001
81377W        W48160  26.528  44.516  10.965
81378W        W48161   9.210  10.820   1.484
81379W        W48162  38.049  44.940   2.117
81380W        W48163  33.007  14.391   2.789
81381W        W48164  18.313  33.144   1.681
81382W        W48165  40.991  34.596   3.897
81383W        W48166  16.507  20.118  11.819
81384W        W48167  40.459  22.696   2.241
81385W        W48168  22.925   0.393  11.932
81386W        W48169  34.595  13.866   1.933
81387W        W48170  38.940  25.959   4.118
81388W        W48171   0.878  10.811   2.766
81389W        W48172  41.032  33.083   1.340
81390W        W48173  39.378   8.519  14.240
81391W        W48174  20.192  34.567   0.474
81392W        W48175   3.389   7.125   1.706
81393W        W48176  31.717  25.088  12.548
81394W        W48177   4.759  37.024  11.154
81395W        W48178   2.180  31.481  14.812
81396W        W48179  19.033  18.362  13.245
81397W        W48180  31.370  24.165  12.030
81398W        W48181  17.177  44.010   4.902
81399W        W48182   8.166  22.774   0.627
81400W        W48183  16.287   1.259  12.884
81401W        W48184  20.620  40.099   4.452
81402W        W48185   5.323   4.171   0.078
81403W        W48186  37.669  39.369   1.414
81404W        W48187  41.238  18.587   4.019
81405W        W48188  44.593  39.062   3.242
81406W        W48189  24.004  17.187   1.333
81407W        W48190  12.281  12.373  14.971
81408W        W48191  24.210   5.344  11.137
81409W        W48192  42.598  27.123  14.598
81410W        W48193  22.189  14.571   4.282
81411W        W48194   3.769  11.931  11.138
81412W        W48195  26.964  37.631  11.712
81413W        W48196  27.582  19.565   0.455
81414W        W48197  26.733  40.028   2.291
81415W        W48198  36.463   7.985   2.641
81416W        W48199  26.210   7.781  11.603
81417W        W48200  30.907  17.767   0.462
81418W        W48201  38.317  25.719   4.702
81419W        W48202  20.060  43.517  13.351
81420W        W48203   7.471  25.521   4.113
81421W        W48204  38.335  37.109  10.333
81422W        W48205  15.313  19.414   0.950
81423W        W48206  42.021  34.539   1.484
81424W        W48207  39.857  35.045   4.656
81425W        W48208  41.865   4.812   3.762
81426W        W48209   6.357  10.195  14.822
81427W        W48210  20.803  12.137  14.027
81428W        W48211  37.835  28.688   3.365
81429W        W48212  15.330  19.725  11.459
81430W        W48213  22.498  12.118   4.948
81431W        W48214  12.736   6.277   4.581
81432W        W48215  18.030  44.403   3.191
81433W        W48216  20.614  34.244   4.719
81434W        W48217  40.361  12.845  11.072
81435W        W48218  38.900  31.097  11.179
81436W        W48219  26.135  28.075  13.308
81437W        W48220  26.510   9.783   0.835
81438W        W48221  18.347   9.579  11.499
81439W        W48222   9.924   6.262  12.971
81440W        W48223  36.272  29.624  10.712
81441W        W48224  27.198  37.846   4.143
81442W        W48225  19.532  40.597  11.621
81443W        W48226  24.524   7.703  13.600
81444W        W48227  22.520  10.778  12.444
81445W        W48228  12.621  12.804  14.999
81446W        W48229  42.174  32.967  14.825
81447W        W48230  41.550  10.087   3.705
81448W        W48231  33.166  42.473  10.983
81449W        W48232  34.977  18.342  13.561
81450W        W48233  19.495  11.177  12.288
81451W        W48234  23.589   4.920  12.969
81452W        W48235  31.663   2.683   2.066
81453W        W48236  20.085   6.482  12.088
81454W        W48237  28.476  29.948   0.932
81455W        W48238  12.199  18.831   4.366
81456W        W48239   7.795  43.888  13.846
81457W        W48240  18.114  38.908   1.931
81458W        W48241  40.733  26.161  14.520
81459W        W48242  40.975  18.853  14.156
81460W        W48243  10.595  12.602  11.061
81461W        W48244  37.395  42.797  10.668
81462W        W48245  41.544   4.421  12.798
81463W        W48246  42.269  14.556   0.483
81464W        W48247  30.124  42.043   4.209
81465W        W48248  10.121  25.090   0.530
81466W        W48249  25.603  24.065  14.544
81467W        W48250  13.008  20.834   2.750
81468W        W48251  39.414  15.744   3.924
81469W        W48252  34.607  11.131  12.383
81470W        W48253  14.011  12.616  11.477
81471W        W48254   5.376  13.545  10.741
81472W        W48255  25.465  40.964   1.876
81473W        W48256  18.246  28.139  12.381
81474W        W48257  38.281   6.081   5.365
81475W        W48258  13.652  27.895   4.394
81476W        W48259  34.951  23.139   2.752
81477W        W48260   0.552  41.555  13.309
81478W        W48261  15.806  31.123  14.128
81479W        W48262  34.838  29.226  12.918
81480W        W48263  43.540  37.548   2.606
81481W        W48264  37.529   0.414  14.056
81482W        W48265  39.980  11.065  11.091
81483W        W48266   9.655  25.679   1.905
81484W        W48267   8.080  23.973  13.393
81485W        W48268  44.324  41.472   4.867
81486W        W48269   3.111   0.937   2.624
81487W        W48270  32.465  14.309   2.336
81488W        W48271   1.267   0.703   4.623
81489W        W48272  10.383  32.011   3.174
81490W        W48273  28.980  24.277  14.403
81491W        W48274  26.928  16.621   0.975
81492W        W48275  23.408   5.213  13.948
81493W        W48276   0.905  32.836  11.930
81494W        W48277  36.090  25.841  14.029
81495W        W48278  22.802  18.641   2.217
81496W        W48279  17.125  20.582   4.477
81497W        W48280  34.412  17.263   2.755
81498W        W48281   0.179  30.151  11.661
81499W        W48282   7.248   7.909  13.170
81500W        W48283  28.592  42.353   2.699
81501W        W48284  41.950  25.468  12.847
81502W        W48285   9.935   6.495   2.454
81503W        W48286  13.569   6.135   1.305
81504W        W48287  30.602  31.896   2.193
81505W        W48288  25.206  26.884   5.409
81506W        W48289  39.813  21.446  12.620
81507W        W48290  24.088   3.241  12.026
81508W        W48291  15.606  12.754   2.285
81509W        W48292   9.447  42.307   1.916
81510W        W48293  40.090  14.854  11.561
81511W        W48294   9.137  25.267  11.514
81512W        W48295  44.928  21.069   0.757
81513W        W48296  15.913  24.568   2.564
81514W        W48297  16.416   1.915   2.741
81515W        W48298  16.869  15.834  11.578
81516W        W48299  30.152  27.452  14.427
81517W        W48300  20.698   0.045   4.657
81518W        W48301  36.018  17.127  14.352
81519W        W48302  25.632  34.534  10.615
81520W        W48303  26.953  35.336  11.913
81521W        W48304  14.167   5.374   3.806
81522W        W48305  37.260   2.828   1.249
81523W        W48306  39.499  31.635   1.334
81524W        W48307  40.684  20.441  13.846
81525W        W48308  28.922  23.043  11.713
81526W        W48309   2.370  34.522   1.428
81527W        W48310  17.021   8.180   0.791
81528W        W48311  23.682  33.661   2.405
81529W        W48312   0.934  23.283   4.176
81530W        W48313  38.515   1.321   1.292
81531W        W48314  14.507  25.532   1.158
81532W        W48315   9.388  12.295  13.266
81533W        W48316  33.027   9.336  12.111
81534W        W48317  29.205  24.108  12.598
81535W        W48318  43.355  28.665  13.997
81536W        W48319  30.433  21.687  11.123
81537W        W48320  33.891  15.663  11.622
81538W        W48321   8.260   3.095  12.214
81539W        W48322   9.370   1.307   2.273
81540W        W48323  10.500  23.799  10.753
81541W        W48324  18.117  12.811  11.546
81542W        W48325   4.727  15.141   2.272
81543W        W48326   9.984  31.399   0.771
81544W        W48327  23.126  32.644   0.246
81545W        W48328  11.863  32.590   3.324
81546W        W48329   5.225  19.250  14.995
81547W        W48330  37.455  44.025   0.463
81548W        W48331  17.634   1.949  12.501
81549W        W48332  23.193  13.927   4.245
81550W        W48333   9.758  17.391  13.738
81551W        W48334  36.487  35.101   1.016
81552W        W48335  13.267   9.385   2.724
81553W        W48336   2.335   6.419   3.370
81554W        W48337  44.471  25.519  10.416
81555W        W48338  13.701  18.481   4.786
81556W        W48339  38.852  29.686   1.744
81557W        W48340  18.771   5.094  10.999
81558W        W48341  21.556  33.947   2.792
81559W        W48342  23.031  20.761  12.410
81560W        W48343  15.533  32.896  11.230
81561W        W48344  32.663  25.097   3.574
81562W        W48345  23.199  38.531  13.822
81563W        W48346   9.805  13.801  13.087
81564W        W48347  24.667  22.514   1.944
81565W        W48348  25.961  18.413   0.772
81566W        W48349   4.160  16.030  14.438
81567W        W48350   5.938  13.808   3.255
81568W        W48351   7.882  18.066  11.538
81569W        W48352   3.137  15.783  10.863
81570W        W48353   1.976   8.836  10.315
81571W        W48354  15.110  12.938   4.569
81572W        W48355  37.102  40.095   1.263
81573W        W48356  32.870  22.749   4.546
81574W        W48357  25.868  13.701  14.244
81575W        W48358  13.571  24.274  14.277
81576W        W48359  18.666  25.434  13.845
81577W        W48360  25.973   6.830   0.913
81578W        W48361  18.534   7.340  13.880
81579W        W48362   3.362   1.286  14.739
81580W        W48363  40.819  16.653  14.262
81581W        W48364  24.203   5.897  14.854
81582W        W48365  32.285  32.069   4.109
81583W        W48366  28.777  33.389  11.576
81584W        W48367  41.846  24.140  14.763
81585W        W48368  32.348  37.493  11.243
81586W        W48369  44.873   0.520   3.699
81587W        W48370   6.403  34.349   2.875
81588W        W48371   8.005   2.051  10.738
81589W        W48372  15.267   4.643   2.183
81590W        W48373  26.157  23.261  11.448
81591W        W48374  28.674  42.852   2.560
81592W        W48375  44.568   2.256  10.257
81593W        W48376  22.191  23.742   2.902
81594W        W48377  21.761   1.683  14.415
81595W        W48378  30.974  20.517   0.201
81596W        W48379  15.732  34.957   2.582
81597W        W48380   8.833   3.216  12.468
81598W        W48381  38.134  34.135   2.401
81599W        W48382   0.182  19.395  14.364
81600W        W48383  11.797  37.247   3.551
81601W        W48384  32.927   5.420   0.314
81602W        W48385  30.028  23.726   2.466
81603W        W48386   1.790   0.457   3.343
81604W        W48387  42.212  42.436   1.696
81605W        W48388  39.423  17.271   4.399
81606W        W48389  32.836  18.063  11.038
81607W        W48390  18.265   3.473   1.402
81608W        W48391  39.997  41.859   1.291
81609W        W48392  31.014  36.281   2.874
81610W        W48393  32.179  24.767  12.971
81611W        W48394   8.611  25.644  12.804
81612W        W48395  44.529  14.973   4.933
81613W        W48396  31.123   4.715  13.916
81614W        W48397  21.495   2.375  14.776
81615W        W48398  21.109  23.496  14.482
81616W        W48399  11.091  10.288   2.675
81617W        W48400   7.142  35.093   1.162
81618W        W48401  15.545   2.777   2.912
81619W        W48402  24.565  30.525  14.764
81620W        W48403  17.181  10.525   2.779
81621W        W48404  28.707  29.896  13.930
81622W        W48405  30.947  20.753  13.630
81623W        W48406  43.207  21.937  13.507
81624W        W48407  13.511  35.430   3.618
81625W        W48408  26.096  41.738   1.741
81626W        W48409  34.921   0.553  11.647
81627W        W48410   5.244   4.277  10.648
81628W        W48411  19.055  30.326   4.162
81629W        W48412   0.222  33.595  14.352
81630W        W48413  29.302   6.750   0.433
81631W        W48414  30.488  26.252   0.956
81632W        W48415  22.633  43.830  11.246
81633W        W48416  41.542  35.296   4.095
81634W        W48417   2.296  28.462   3.802
81635W        W48418  25.643  31.399  13.050
81636W        W48419  22.226  30.121   3.703
81637W        W48420  27.753  13.346   2.847
81638W        W48421  32.424  14.012  13.223
81639W        W48422  21.511   8.664   1.012
81640W        W48423   3.233   9.681  12.013
81641W        W48424  22.495  44.323   3.617
81642W        W48425  19.254  24.791   3.333
81643W        W48426   7.187  16.074  10.848
81644W        W48427  28.696  37.876   4.503
81645W        W48428  33.396   6.613   2.353
81646W        W48429  39.788  13.780   3.249
81647W        W48430  35.362  14.202  13.807
81648W        W48431  14.066   1.425   0.936
81649W        W48432  15.114  34.598   4.180
81650W        W48433  12.906  18.166  12.025
81651W        W48434   4.607   1.810   3.626
81652W        W48435  34.025  16.579  12.986
81653W        W48436  42.141  34.465  10.712
81654W        W48437  32.339   5.645  14.736
81655W        W48438  14.176  35.345  12.976
81656W        W48439   1.797  10.597  11.542
81657W        W48440  34.607  43.936  12.432
81658W        W48441  38.414  44.448   2.901
81659W        W48442  17.615  34.118  13.680
81660W        W48443  17.481  16.107   3.159
81661W        W48444   2.487  18.258   0.251
81662W        W48445   6.266  39.449   2.158
81663W        W48446  13.612  27.096   1.492
81664W        W48447  43.691  37.654  14.863
81665W        W48448  42.321   6.276  11.656
81666W        W48449   4.698  44.247  11.395
81667W        W48450   0.771  24.251   3.295
81668W        W48451  23.897   8.703   0.414
81669W        W48452  34.120  18.439  13.444
81670W        W48453  11.753  28.834   4.191
81671W        W48454  42.543  29.425   0.821
81672W        W48455  27.206  36.131  14.423
81673W        W48456  37.530  22.786   2.269
81674W        W48457  38.468  13.272   2.867
81675W        W48458   7.360  26.211  10.795
81676W        W48459   9.822  30.208   4.626
81677W        W48460   0.322  39.316   3.345
81678W        W48461  30.740  34.325  11.127
81679W        W48462  25.557   5.052   1.968
81680W        W48463  26.034  37.352  10.100
81681W        W48464  23.679  12.185  12.874
81682W        W48465  31.397  25.461  11.589
81683W        W48466   6.871   9.922   4.619
81684W        W48467  26.952  18.797   3.645
81685W        W48468  26.247  38.869  14.923
81686W        W48469  23.660   9.220  14.889
81687W        W48470  15.642  23.315  11.956
81688W        W48471  35.132  40.480  10.787
81689W        W48472  23.224  33.433  11.167
81690W        W48473  14.816  34.041   4.280
81691W        W48474  21.257  41.708   3.661
81692W        W48475  36.885  15.227  12.919
81693W        W48476   9.598   1.403  12.975
81694W        W48477   7.607  37.296  14.496
81695W        W48478  23.493  20.726   1.361
81696W        W48479  38.027   4.406  12.353
81697W        W48480  26.962  15.004   1.075
81698W        W48481  41.945  38.108  14.377
81699W        W48482  23.729  19.745  13.429
81700W        W48483  15.110  31.235  10.709
81701W        W48484  30.370  18.830   2.619
81702W        W48485  17.135   8.269   3.152
81703W        W48486  34.091   4.013  10.887
81704W        W48487  30.461  22.654   0.085
81705W        W48488  22.146  42.294  10.481
81706W        W48489  25.711  20.438   2.449
81707W        W48490  38.555  28.921  14.791
81708W        W48491   4.361   5.219   3.451
81709W        W48492  23.734  17.111   0.772
81710W        W48493  25.098  18.308   2.308
81711W        W48494   8.238   9.389  10.230
81712W        W48495  27.137  15.229  14.800
81713W        W48496  12.957   7.302   2.137
81714W        W48497  42.543  14.607  13.933
81715W        W48498  22.597  27.484   4.600
81716W        W48499  33.526  12.441  12.386
81717W        W48500  19.454  28.938   1.797
81718W        W48501  43.497   0.762   0.753
81719W        W48502  36.763   2.890   1.332
81720W        W48503   8.881  13.782   2.341
81721W        W48504  30.602  19.220  12.125
81722W        W48505  43.303  17.499   4.972
81723W        W48506  19.665  31.387   3.707
81724W        W48507  20.001  40.040   2.839
81725W        W48508  10.322  23.757   0.174
81726W        W48509   9.316  32.520  13.301
81727W        W48510  36.616   2.395  14.867
81728W        W48511  36.621  22.351  14.416
81729W        W48512  25.411   9.743  12.442
81730W        W48513   6.772  19.783   1.132
81731W        W48514  25.213  37.041   0.429
81732W        W48515  17.953   0.380   3.533
81733W        W48516  41.199  43.875  12.432
81734W        W48517  36.509  35.362  11.223
81735W        W48518  14.167  24.804   2.872
81736W        W48519  10.775   7.237   0.487
81737W        W48520  32.586   4.147  14.896
81738W        W48521  26.689  11.632   4.629
81739W        W48522  17.663   7.134  12.384
81740W        W48523  19.639  25.363  13.997
81741W        W48524  27.949  28.600   1.539
81742W        W48525  29.966  36.477   1.744
81743W        W48526  21.840  21.621   3.270
81744W        W48527   5.714   1.106   4.040
81745W        W48528   3.336   1.533   0.909
81746W        W48529  16.776  25.187   1.325
81747W        W48530  12.345  24.703   2.395
81748W        W48531  12.596  37.870  12.876
81749W        W48532  29.230  39.619   0.721
81750W        W48533   9.178  26.449   4.156
81751W        W48534  30.051  28.283   0.865
81752W        W48535   2.336  37.266  13.310
81753W        W48536  39.160  12.239   4.081
81754W        W48537  41.262  21.802  11.788
81755W        W48538  27.585  13.805  12.994
81756W        W48539  31.319  33.988   3.872
81757W        W48540   8.889  42.642   5.227
81758W        W48541  30.439  11.799   4.489
81759W        W48542   8.506  35.910   1.934
81760W        W48543  38.324  21.110  14.265
81761W        W48544   3.490   7.415  11.649
81762W        W48545  33.856  25.737  11.201
81763W        W48546  32.455  33.576   3.884
81764W        W48547  24.805  23.473  11.119
81765W        W48548   3.319  11.772  12.029
81766W        W48549  11.784  39.838  11.285
81767W        W48550  16.536  28.034  11.297
81768W        W48551  24.720  35.530   2.225
81769W        W48552  35.557  33.514   4.221
81770W        W48553   8.325  32.897   3.829
81771W        W48554  14.159  19.522  11.063
81772W        W48555  10.620  19.309   3.049
81773W        W48556   3.180   8.704   4.564
81774W        W48557  25.211  42.291   2.202
81775W        W48558  17.037  14.191   1.928
81776W        W48559  32.635  37.075  11.174
81777W        W48560  38.413  22.967  11.168
81778W        W48561  44.276   1.370   5.302
81779W        W48562  36.735   3.377  13.768
81780W        W48563  13.861  27.533  10.673
81781W        W48564  32.543  26.502   3.854
81782W        W48565  25.282  39.110  12.883
81783W        W48566  15.860  44.325   2.281
81784W        W48567  33.090  25.052   1.684
81785W        W48568  38.834   6.881  12.546
81786W        W48569  14.757   7.932  13.597
81787W        W48570  31.164   8.344  10.712
81788W        W48571  30.399  40.900   3.254
81789W        W48572  10.689  20.326  12.209
81790W        W48573  33.522  19.861  13.921
81791W        W48574   6.359  41.329  10.840
81792W        W48575   8.329   3.470   0.411
81793W        W48576  23.695   7.091  10.722
81794W        W48577  40.009  44.259  12.067
81795W        W48578  22.140  29.962  13.998
81796W        W48579   7.178   7.349   2.796
81797W        W48580  38.351  26.587   2.499
81798W        W48581  23.934  28.939   4.013
81799W        W48582  18.685  26.141   0.785
81800W        W48583  22.709  15.228  13.140
81801W        W48584  18.203  34.489   4.562
81802W        W48585  37.302  17.567   3.250
81803W        W48586  28.873  35.879   2.612
81804W        W48587  16.801  18.018  10.640
81805W        W48588  28.539  34.817  12.421
81806W        W48589  25.663  10.333  10.669
81807W        W48590  14.122  19.134   1.904
81808W        W48591  16.729  43.100  11.976
81809W        W48592  25.992  33.988  12.226
81810W        W48593  32.515  40.938   1.955
81811W        W48594  29.441  43.853  12.430
81812W        W48595  33.339  25.981   4.247
81813W        W48596  38.928   6.091   1.839
81814W        W48597  32.605  15.433  10.222
81815W        W48598  37.590   7.256   3.694
81816W        W48599   4.030  26.436  12.871
81817W        W48600  15.248  29.653   3.519
81818W        W48601  37.181  44.838   3.822
81819W        W48602  24.665  24.165   0.764
81820W        W48603  26.713   7.898  11.642
81821W        W48604  15.803  36.162   1.756
81822W        W48605  43.281  39.116   2.822
81823W        W48606   8.696   9.252   1.795
81824W        W48607  42.393  30.937  12.598
81825W        W48608  23.650  31.174   3.788
81826W        W48609  28.985  10.832   3.285
81827W        W48610  20.012  15.744   1.761
81828W        W48611  20.676  35.429   1.241
81829W        W48612  43.351  37.785   4.138
81830W        W48613  35.438  37.805  12.147
81831W        W48614  12.341  17.147  14.678
81832W        W48615  18.368  38.322   1.682
81833W        W48616  39.026  26.495  13.992
81834W        W48617  14.938  38.050   2.022
81835W        W48618  15.063  37.516   1.172
81836W        W48619  24.508   5.543  13.470
81837W        W48620  27.732  20.288  11.544
81838W        W48621  13.042  21.154   2.360
81839W        W48622  17.551   6.850   4.687
81840W        W48623  21.061  36.344   4.108
81841W        W48624  39.890  36.344   4.609
81842W        W48625  39.001  31.944  14.874
81843W        W48626   0.031  32.635  13.922
81844W        W48627  11.649  21.971   0.413
81845W        W48628  38.517   9.810  11.148
81846W        W48629  29.231  16.210   0.858
81847W        W48630  11.913  31.123   0.414
81848W        W48631   0.203  39.439   2.818
81849W        W48632   3.573  41.365   4.615
81850W        W48633  43.271  29.858  11.146
81851W        W48634  21.219  40.827  11.086
81852W        W48635  18.618  37.349  12.421
81853W        W48636  44.841  20.655   4.146
81854W        W48637  32.897  30.244   3.575
81855W        W48638   9.379   9.638   2.535
81856W        W48639   3.878  19.641  13.991
81857W        W48640  11.156  41.557   2.291
81858W        W48641  36.493  28.126   0.072
81859W        W48642   0.979  25.747  13.428
81860W        W48643   9.173  20.299   2.984
81861W        W48644   7.844  15.260  14.490
81862W        W48645  20.148  30.087  11.937
81863W        W48646  12.708  27.827   1.945
81864W        W48647  20.987  23.668  11.656
81865W        W48648  27.877   8.404  11.976
81866W        W48649   6.704  28.675   0.700
81867W        W48650  34.964  29.435  12.472
81868W        W48651  15.796  35.087   3.894
81869W        W48652  14.729  29.723  14.085
81870W        W48653  38.096  15.385   2.859
81871W        W48654  39.313  12.748   1.954
81872W        W48655  42.368   2.224   1.690
81873W        W48656  24.554  15.761   3.730
81874W        W48657  19.213  29.603   4.609
81875W        W48658  28.418  25.577   1.185
81876W        W48659  43.406  10.329   0.840
81877W        W48660  10.228  42.431  11.606
81878W        W48661  44.337   2.930   2.727
81879W        W48662  16.596  12.334   1.157
81880W        W48663  30.606  28.744   1.838
81881W        W48664  13.277  29.520  14.264
81882W        W48665  33.572  31.073   0.431
81883W        W48666   3.557  11.695  11.570
81884W        W48667  26.508  13.663   3.280
81885W        W48668   9.499  41.941  11.983
81886W        W48669  43.813  20.589  14.711
81887W        W48670  44.117  36.398  14.855
81888W        W48671  40.435  44.260   2.845
81889W        W48672  40.016  10.609   1.249
81890W        W48673  27.038   8.899   1.935
81891W        W48674  28.937  22.601   3.365
81892W        W48675   6.756  22.552   4.285
81893W        W48676  21.266  39.309   3.684
81894W        W48677  33.049   5.457  10.435
81895W        W48678  19.998  21.995   0.354
81896W        W48679   7.365   7.386   9.853
81897W        W48680  19.051  11.337   4.338
81898W        W48681  22.489   7.102  12.448
81899W        W48682  18.167  25.631   3.200
81900W        W48683  20.172  35.100   0.417
81901W        W48684  40.635  34.363   2.450
81902W        W48685  12.821  30.391   4.328
81903W        W48686  12.227  30.611  12.817
81904W        W48687   9.173  13.117   3.530
81905W        W48688   5.922  21.493  11.146
81906W        W48689  18.819  27.254  13.596
81907W        W48690  40.498  37.509   1.421
81908W        W48691   3.857  26.995   3.922
81909W        W48692  16.138  16.222  12.746
81910W        W48693  10.087   4.462  13.370
81911W        W48694  15.260  25.949  13.515
81912W        W48695   5.991  36.755  13.604
81913W        W48696  13.713  12.587   0.339
81914W        W48697  24.529   4.776   3.129
81915W        W48698   5.709  17.691   1.260
81916W        W48699  36.465  34.054  12.526
81917W        W48700  32.515  33.013  13.143
81918W        W48701  30.477   7.683   4.689
81919W        W48702   5.428   3.164   0.890
81920W        W48703  20.735  37.441   2.689
81921W        W48704  39.090  24.465   2.419
81922W        W48705  26.276  34.015  12.662
81923W        W48706  35.566  14.864  11.587
81924W        W48707  33.068  15.036  12.026
81925W        W48708  40.558  37.930   0.237
81926W        W48709  22.399   6.714   1.618
81927W        W48710  34.409  38.000   0.355
81928W        W48711  10.455  19.524  14.837
81929W        W48712  43.350  16.896  11.943
81930W        W48713  34.813  37.061   0.344
81931W        W48714  20.989   8.712   3.546
81932W        W48715  23.571  24.389  11.345
81933W        W48716  39.086  20.986  11.091
81934W        W48717  37.099   9.059   0.345
81935W        W48718  14.748  21.209   4.073
81936W        W48719  36.000  24.011   0.785
81937W        W48720  22.268  38.665   1.635
81938W        W48721  14.985  43.954   2.812
81939W        W48722  26.162  39.532  11.938
81940W        W48723  25.080  15.535  14.945
81941W        W48724  41.252  11.855   2.895
81942W        W48725  13.630  30.131   3.691
81943W        W48726  38.372   1.667  11.167
81944W        W48727  28.645  34.490  11.477
81945W        W48728   8.904  35.830   2.786
81946W        W48729  33.528  19.074   4.322
81947W        W48730  25.185  42.776   3.934
81948W        W48731  40.400  21.172  10.624
81949W        W48732  21.076  44.777  12.103
81950W        W48733  38.484   8.277  10.322
81951W        W48734  20.620   7.595   1.180
81952W        W48735  37.397  33.642  13.027
81953W        W48736  23.806  20.100   1.819
81954W        W48737  44.006  19.808   2.280
81955W        W48738  43.836   3.321  12.437
81956W        W48739  32.489   5.272   3.547
81957W        W48740  40.613  23.503  11.106
81958W        W48741  38.807   6.905  11.990
81959W        W48742  39.342  30.119  10.995
81960W        W48743  18.336  22.766   2.319
81961W        W48744  44.436  26.957  10.917
81962W        W48745  23.632  27.538  11.723
81963W        W48746  17.621  16.630  12.207
81964W        W48747  30.244   2.821   4.921
81965W        W48748  19.672  25.502   4.605
81966W        W48749  40.932  44.271   2.265
81967W        W48750  42.789   7.806  12.143
81968W        W48751  28.652   4.938   4.183
81969W        W48752   6.896   3.915   3.953
81970W        W48753  38.757  10.914  11.085
81971W        W48754   9.591  40.870  13.960
81972W        W48755  15.322  21.047  13.576
81973W        W48756  34.159  27.603  13.127
81974W        W48757   6.017   8.424  13.445
81975W        W48758  27.449  22.055  14.144
81976W        W48759  30.725   2.938   2.724
81977W        W48760  43.070  30.603  11.220
81978W        W48761  36.038   5.347  10.692
81979W        W48762  43.820  32.060  11.720
81980W        W48763  25.716   0.811  13.893
81981W        W48764  17.166  16.678  13.406
81982W        W48765  20.007  29.537  11.126
81983W        W48766  39.063  27.889  12.501
81984W        W48767  40.915  30.199   4.123
81985W        W48768  40.142  10.516   4.248
81986W        W48769  40.845  24.130  11.951
81987W        W48770  28.635  43.370  11.643
81988W        W48771  23.182  41.680  14.530
81989W        W48772  40.873  42.748   4.140
81990W        W48773  31.895  20.501  13.460
81991W        W48774  26.760  39.282  11.137
81992W        W48775  12.751  21.141  12.379
81993W        W48776  24.121  33.373   1.702
81994W        W48777   1.791  35.115   1.762
81995W        W48778  43.342  27.945  11.790
81996W        W48779  10.884   4.341   1.992
81997W        W48780  20.574   1.818   0.050
81998W        W48781  12.874  17.600   1.720
81999W        W48782  38.683  28.066   1.306
82000W        W48783   8.018  16.264  11.234
82001W        W48784  38.812   9.393   2.550
82002W        W48785  38.562  11.669   2.928
82003W        W48786  26.606  35.772   1.088
82004W        W48787  40.061  29.222  11.537
82005W        W48788  16.256  19.290   2.106
82006W        W48789  25.099  29.173  10.504
82007W        W48790   9.638  39.918   4.174
82008W        W48791  18.788  21.799   4.119
82009W        W48792  22.113   5.573  14.518
82010W        W48793  20.344  27.387  12.033
82011W        W48794  39.292  42.893  12.428
82012W        W48795  43.892  36.353  10.754
82013W        W48796   6.686  38.860  13.722
82014W        W48797  11.138   6.751  13.865
82015W        W48798  10.539  20.368   2.413
82016W        W48799  12.648   8.410  14.055
82017W        W48800  33.934  38.272   0.393
82018W        W48801  19.645   0.676  13.521
82019W        W48802  37.407  26.128  14.382
82020W        W48803  20.904  19.181   2.697
82021W        W48804  14.057  32.491  14.094
82022W        W48805  20.709  26.817   2.615
82023W        W48806  11.362   8.321  13.456
82024W        W48807   4.263  13.611  10.685
82025W        W48808  39.005  35.471  11.655
82026W        W48809   4.970  41.226  13.942
82027W        W48810  44.469  38.897  10.763
82028W        W48811  23.041  44.276   1.085
82029W        W48812  37.299  11.423   2.676
82030W        W48813  14.140  34.615  13.380
82031W        W48814  12.806  22.124  12.449
82032W        W48815  19.106  13.146  12.991
82033W        W48816  38.795  12.183  11.455
82034W        W48817  37.922  15.770   0.643
82035W        W48818  15.353  37.546   0.757
82036W        W48819  31.083  12.562   5.178
82037W        W48820  44.149   2.766   0.103
82038W        W48821  36.622  22.245  11.493
82039W        W48822  43.241  32.844  12.647
82040W        W48823  11.230   8.708   2.373
82041W        W48824  25.034  17.130   1.335
82042W        W48825   0.896  20.034   3.706
82043W        W48826   3.146   6.594   0.771
82044W        W48827  22.638  11.100   4.791
82045W        W48828  38.367  21.507  13.891
82046W        W48829   2.475  35.738   0.841
82047W        W48830  39.234  43.094   3.613
82048W        W48831  36.889   0.930  11.766
82049W        W48832  15.741  38.489  14.518
82050W        W48833  29.217  38.589  13.576
82051W        W48834  25.134  23.998  11.144
82052W        W48835  27.094   4.540   3.226
82053W        W48836  18.442  37.756  12.090
82054W        W48837   2.427  25.187   3.757
82055W        W48838  40.753  34.390   2.951
82056W        W48839  36.067  38.456   1.291
82057W        W48840   5.793  22.503   1.749
82058W        W48841  39.373  25.888   0.690
82059W        W48842  22.001  13.820  13.381
82060W        W48843  34.935  41.423   1.275
82061W        W48844  12.785  11.308  10.040
82062W        W48845  43.938  24.103   1.696
82063W        W48846  18.229  13.304  11.373
82064W        W48847  31.492  14.595  11.651
82065W        W48848  40.813  43.148  13.419
82066W        W48849   0.851   8.172   1.448
82067W        W48850  20.676  24.213  12.465
82068W        W48851   4.423  30.206  14.395
82069W        W48852  13.142  32.942  11.577
82070W        W48853  31.487  15.826   2.153
82071W        W48854  18.913   0.590   2.408
82072W        W48855  32.970  22.547   1.932
82073W        W48856  18.520  37.180  13.798
82074W        W48857  25.799  42.018   4.721
82075W        W48858  40.884  32.004  10.917
82076W        W48859  22.987   1.741   4.090
82077W        W48860   4.637   7.157   1.201
82078W        W48861  18.182  42.630   4.624
82079W        W48862  27.642  39.362   4.626
82080W        W48863  37.579   9.971   4.108
82081W        W48864   3.048  13.662  12.567
82082W        W48865   3.382  36.380   4.791
82083W        W48866  34.522  37.467   1.501
82084W        W48867  24.058   5.916  13.911
82085W        W48868  40.569   0.358  14.214
82086W        W48869  28.234   4.720   0.430
82087W        W48870   4.734  29.743  14.357
82088W        W48871  24.739   0.896  14.822
82089W        W48872   1.257  15.604  10.999
82090W        W48873  42.034  24.424   2.826
82091W        W48874  22.237   8.271  12.835
82092W        W48875   3.262  11.777  11.120
82093W        W48876  16.800  27.536  13.845
82094W        W48877  32.866  24.718  12.047
82095W        W48878  14.874  33.871  13.770
82096W        W48879   4.743  15.612  13.519
82097W        W48880  19.592  13.173   4.577
82098W        W48881  19.147   1.338   3.167
82099W        W48882  19.489  37.850  12.362
82100W        W48883  36.514  21.603  13.906
82101W        W48884   9.301  21.407   0.068
82102W        W48885  26.565   6.526  12.504
82103W        W48886  23.430  29.977   3.226
82104W        W48887  24.895  23.992   3.269
82105W        W48888  25.252  29.594  12.365
82106W        W48889  22.663  20.957   2.679
82107W        W48890  31.637  27.039  13.502
82108W        W48891   3.310  37.257  10.961
82109W        W48892  32.018  37.455   1.330
82110W        W48893  35.420  12.356  12.093
82111W        W48894  38.561  43.275  12.547
82112W        W48895   3.430  34.686   3.928
82113W        W48896  39.261  20.706   1.931
82114W        W48897  17.146  18.375   4.555
82115W        W48898   2.160   4.410  14.960
82116W        W48899  24.569  16.022   2.953
82117W        W48900   3.348  34.852   4.406
82118W        W48901   4.355  34.310  13.918
82119W        W48902  38.426  37.558   2.743
82120W        W48903  16.419  44.247  13.035
82121W        W48904   2.454  20.707   0.842
82122W        W48905  32.951  20.173  11.347
82123W        W48906  31.010  16.610  11.920
82124W        W48907   6.628  23.680   1.452
82125W        W48908  42.248  30.927   1.731
82126W        W48909   8.262   6.815   3.188
82127W        W48910  22.448   5.371   1.940
82128W        W48911  43.465  28.978   0.464
82129W        W48912   3.945  12.757   3.281
82130W        W48913   6.269  24.498   3.828
82131W        W48914  42.318   2.481  10.664
82132W        W48915   9.898  35.007   1.387
82133W        W48916  10.884  23.258   2.418
82134W        W48917  42.901  24.982   3.309
82135W        W48918   1.035  32.550  11.129
82136W        W48919  14.202   5.352  14.883
82137W        W48920   1.616  27.117   4.079
82138W        W48921  26.899  29.154   2.142
82139W        W48922   4.308  17.008  14.399
82140W        W48923  39.826   1.160  11.465
82141W        W48924  30.171   0.959   4.576
82142W        W48925  28.442  15.378  10.966
82143W        W48926  22.035   6.175   1.280
82144W        W48927   6.938   6.199   0.823
82145W        W48928  22.524  41.429   3.602
82146W        W48929   9.853   9.473  14.958
82147W        W48930  25.627  43.827  12.419
82148W        W48931   7.689  30.929   0.923
82149W        W48932  34.004  22.175  14.037
82150W        W48933   0.352   8.244  13.589
82151W        W48934  25.906  24.901  12.255
82152W        W48935  34.087  41.982  14.500
82153W        W48936   7.293  12.437  14.928
82154W        W48937  40.710  23.805  12.539
82155W        W48938  18.582  12.751   2.339
82156W        W48939  11.537  13.134   1.826
82157W        W48940  35.502  28.907   1.866
82158W        W48941  17.351  23.355  11.283
82159W        W48942  15.929  26.580  11.523
82160W        W48943  34.985  18.812   2.749
82161W        W48944  24.746   5.897   2.220
82162W        W48945  25.943  40.495  13.360
82163W        W48946  25.021  15.207   4.755
82164W        W48947  23.509  41.478  10.514
82165W        W48948  19.128  39.455   2.973
82166W        W48949  31.053  27.489  13.663
82167W        W48950  31.192   3.610   2.366
82168W        W48951  12.874   7.134  14.064
82169W        W48952  26.030  26.831   3.701
82170W        W48953  18.699  44.845  12.100
82171W        W48954  21.704  28.051  13.950
82172W        W48955  39.393   0.544  13.325
82173W        W48956  23.444  42.322   1.738
82174W        W48957  19.879  18.647   0.341
82175W        W48958  12.612  44.833  12.899
82176W        W48959   0.165  39.418   0.941
82177W        W48960  15.591  37.862  12.712
82178W        W48961  17.572  43.885  10.540
82179W        W48962   8.187  43.421  10.667
82180W        W48963  38.882  13.602   2.217
82181W        W48964  10.966  23.654  14.628
82182W        W48965  39.390  34.420   1.299
82183W        W48966  39.064   9.859   1.803
82184W        W48967  32.567  30.772  11.479
82185W        W48968  14.662   2.299   4.424
82186W        W48969  12.120   2.338   1.039
82187W        W48970  10.113  43.486  11.221
82188W        W48971  40.586   3.672  12.757
82189W        W48972   8.148   3.227  13.312
82190W        W48973  43.146  20.634   3.838
82191W        W48974  28.205  35.426   1.386
82192W        W48975  43.719  26.289   4.124
82193W        W48976  29.184  25.274  11.991
82194W        W48977  19.509  34.980   3.127
82195W        W48978  34.429  15.788   5.073
82196W        W48979  26.021  15.615  12.954
82197W        W48980  22.162  42.360  11.830
82198W        W48981  42.071   1.004   4.001
82199W        W48982  25.123   7.874  12.511
82200W        W48983  39.062  37.048   0.329
82201W        W48984  30.089  41.556   1.357
82202W        W48985   9.275  37.879   4.151
82203W        W48986  38.892  16.579   4.716
82204W        W48987   8.481  26.743   1.871
82205W        W48988  27.743  29.148  11.012
82206W        W48989  27.150  24.642   2.147
82207W        W48990  25.665   1.343   4.413
82208W        W48991  28.570  27.281  11.634
82209W        W48992  32.936  38.851   0.574
82210W        W48993  15.046  36.386  14.301
82211W        W48994   2.899  16.752   4.722
82212W        W48995  22.346  40.074  10.609
82213W        W48996   0.338  37.058   2.654
82214W        W48997  20.038  20.086  14.823
82215W        W48998   4.227   0.808  14.999
82216W        W48999   1.804  17.091  11.228
82217W        W49000  19.835   0.030   4.110
82218W        W49001   2.303  16.144  10.394
82219W        W49002  34.647  23.234   2.351
82220W        W49003  27.006  11.434   1.617
82221W        W49004  42.883  37.683  10.238
82222W        W49005  17.723  16.674   0.512
82223W        W49006  14.168  27.544   0.911
82224W        W49007  38.000   3.001  13.414
82225W        W49008   5.626  30.534   3.306
82226W        W49009  43.981  11.303  14.348
82227W        W49010   6.353  38.130  14.463
82228W        W49011  30.509  32.236   0.761
82229W        W49012   4.770  14.023  12.503
82230W        W49013  15.732   3.223   0.868
82231W        W49014   2.786  33.066   3.792
82232W        W49015  26.086   0.302   2.814
82233W        W49016   5.427  23.758   2.257
82234W        W49017  38.306  34.517  12.886
82235W        W49018  31.608  42.806   3.891
82236W        W49019  44.926  42.209  14.341
82237W        W49020  15.045  22.070   2.212
82238W        W49021  31.343  28.886  13.902
82239W        W49022  44.850  29.456   1.194
82240W        W49023  21.963  30.719  11.075
82241W        W49024  32.613   5.155   2.720
82242W        W49025  19.008  10.170  13.513
82243W        W49026  27.975  13.270   1.269
82244W        W49027  27.173  43.364  13.920
82245W        W49028  40.144  32.154  13.115
82246W        W49029  10.860   4.550  11.632
82247W        W49030  10.747  19.145  12.965
82248W        W49031   1.389  24.260   1.390
82249W        W49032  13.317  32.052   0.247
82250W        W49033  20.144  25.011   1.338
82251W        W49034  23.733  37.567  14.879
82252W        W49035  31.143  30.627   0.901
82253W        W49036  22.182  24.236  13.874
82254W        W49037  36.032  25.894  12.571
82255W        W49038  33.924  25.416   0.248
82256W        W49039  32.818  14.722  12.441
82257W        W49040  30.131  32.859   4.336
82258W        W49041  35.339  21.616   3.323
82259W        W49042  27.689  33.047   2.219
82260W        W49043  30.707  17.777   3.879
82261W        W49044  21.041  23.148  12.393
82262W        W49045  36.528   7.330   1.837
82263W        W49046  12.120  43.203   1.909
82264W        W49047  26.629  38.283  12.027
82265W        W49048  16.461   0.252  12.973
82266W        W49049  36.922  24.057  12.342
82267W        W49050   4.879  36.360   0.055
82268W        W49051   3.962  14.872  11.942
82269W        W49052  42.906   9.956  12.118
82270W        W49053  31.976  10.558   0.585
82271W        W49054  37.291  34.939  12.476
82272W        W49055  26.857  26.646  13.571
82273W        W49056  39.747  15.494  12.361
82274W        W49057  12.177   4.314   0.716
82275W        W49058  13.698   6.751   4.077
82276W        W49059  24.894  28.959   2.367
82277W        W49060  17.224  28.549  12.990
82278W        W49061  21.021  24.857   3.411
82279W        W49062  25.339   7.910   2.260
82280W        W49063   9.947  35.994   3.671
82281W        W49064  12.761  33.129  10.673
82282W        W49065  25.698   4.300   4.850
82283W        W49066  31.713  18.200  10.569
82284W        W49067  18.326  32.202   2.826
82285W        W49068  44.924  32.419  14.770
82286W        W49069   4.010  34.980  11.953
82287W        W49070   9.141  22.606   1.742
82288W        W49071  12.203   7.159   2.762
82289W        W49072  39.358   5.325   3.186
82290W        W49073  41.277  39.439   3.131
82291W        W49074  37.535   1.089  14.399
82292W        W49075  35.900  24.731   3.126
82293W        W49076  19.779   9.679   2.856
82294W        W49077  24.457   7.313   0.422
82295W        W49078  22.994  28.038   4.408
82296W        W49079  37.153  23.906   2.774
82297W        W49080   6.969  14.905  12.948
82298W        W49081  33.835   0.332   0.421
82299W        W49082   6.907  30.074   0.387
82300W        W49083  38.462  25.028  14.766
82301W        W49084   3.439  29.165   3.898
82302W        W49085   8.998   7.250   3.728
82303W        W49086   0.736  41.373  10.449
82304W        W49087  36.875  36.855   0.375
82305W        W49088  36.308   6.253  12.579
82306W        W49089   4.440  30.249   4.199
82307W        W49090   0.826  39.725  14.809
82308W        W49091  30.198  42.023   1.609
82309W        W49092  30.062  29.408   2.237
82310W        W49093  10.529   8.463  11.182
82311W        W49094  23.455  10.390  12.539
82312W        W49095  20.904   5.632  14.004
82313W        W49096  27.592  16.446  14.420
82314W        W49097   4.347  37.616   3.074
82315W        W49098  17.596  26.768   3.210
82316W        W49099   0.959  16.267   4.903
82317W        W49100  19.055  43.526  11.195
82318W        W49101  34.425  38.505  11.600
82319W        W49102   1.251  41.242   0.283
82320W        W49103  40.994   1.031   0.515
82321W        W49104  13.361  33.540   0.429
82322W        W49105  10.103   6.787  12.549
82323W        W49106  23.068  13.350   1.407
82324W        W49107  17.310  17.630  14.811
82325W        W49108  36.570  24.929  14.328
82326W        W49109  29.817  16.172   0.061
82327W        W49110  25.660  24.269  13.487
82328W        W49111  14.305  35.600  10.233
82329W        W49112  39.919  14.118   2.843
82330W        W49113  41.902  44.945  13.185
82331W        W49114  15.755  34.030  11.513
82332W        W49115  21.723  44.393  13.948
82333W        W49116  39.243  42.382   1.195
82334W        W49117   9.225  38.999   1.033
82335W        W49118  35.904  19.999  14.485
82336W        W49119  36.364   8.620  14.770
82337W        W49120  28.396   6.022  14.821
82338W        W49121  17.766   6.833   3.708
82339W        W49122  37.316  20.966   0.943
82340W        W49123  38.439  25.675   1.912
82341W        W49124   7.773   9.788   1.858
82342W        W49125  33.907  42.930   0.938
82343W        W49126   5.659  44.320   1.785
82344W        W49127  41.790  13.875   2.681
82345W        W49128  35.038  12.313  13.612
82346W        W49129  40.386  44.283  10.772
82347W        W49130  29.078  33.467   4.473
82348W        W49131  43.024  41.217   3.569
82349W        W49132  41.888  24.953   1.953
82350W        W49133  11.780  39.309   4.844
82351W        W49134  43.441  29.030  14.448
82352W        W49135  21.271  11.163   0.455
82353W        W49136   5.585  41.400   1.827
82354W        W49137  26.407  21.197  12.438
82355W        W49138  36.391  15.299  14.398
82356W        W49139  27.650  26.945  13.895
82357W        W49140  44.903  40.908  12.487
82358W        W49141  42.293   2.857  11.100
82359W        W49142  27.700  36.591  13.886
82360W        W49143  25.042  11.289   0.354
82361W        W49144  42.467   0.995   3.239
82362W        W49145   8.105  24.078  10.716
82363W        W49146  39.442  43.950   2.239
82364W        W49147  10.387  14.331  14.792
82365W        W49148  19.709   1.746  10.671
82366W        W49149  41.837  34.034  10.751
82367W        W49150  43.870  30.869   1.313
82368W        W49151  11.370   3.370  12.185
82369W        W49152  17.597  11.923   4.105
82370W        W49153  33.460   5.645   5.081
82371W        W49154  24.109  35.317  11.532
82372W        W49155   9.294  18.979  10.685
82373W        W49156  26.149  20.076   1.169
82374W        W49157   6.337   4.055  14.352
82375W        W49158  41.076  26.523   2.408
82376W        W49159  25.250  27.098   4.520
82377W        W49160  12.795  18.326  12.973
82378W        W49161  38.862  13.664  14.796
82379W        W49162  11.320  38.547   3.197
82380W        W49163  34.087  16.016  12.074
82381W        W49164  24.151  34.512   3.130
82382W        W49165  36.995   6.868   3.305
82383W        W49166  13.119   7.856   1.104
82384W        W49167   8.428  12.948   1.541
82385W        W49168   0.952   0.399   2.408
82386W        W49169  37.342  37.905  12.994
82387W        W49170  31.041  23.482  14.259
82388W        W49171  39.017  34.986  13.153
82389W        W49172  39.805  28.071  12.052
82390W        W49173  42.002  12.207  13.869
82391W        W49174  34.385  34.072   4.446
82392W        W49175   2.174  36.028   3.037
82393W        W49176  39.021  35.984  13.334
82394W        W49177   9.681  22.189   0.165
82395W        W49178   8.198  17.841  12.508
82396W        W49179  18.206  18.920  14.773
82397W        W49180  35.896  35.174  11.625
82398W        W49181  31.988   5.390  14.433
82399W        W49182  30.114  11.709  11.648
82400W        W49183  12.854   2.862  11.813
82401W        W49184  35.900  39.788   0.736
82402W        W49185  31.750  15.254   0.288
82403W        W49186  16.656  41.987  14.294
82404W        W49187  16.241  25.089   2.089
82405W        W49188   0.238  11.359   1.328
82406W        W49189   9.653  35.315   2.244
82407W        W49190  26.747  38.066  13.110
82408W        W49191  43.493   7.657  13.869
82409W        W49192  13.997  40.256  11.581
82410W        W49193  29.877  38.308   3.644
82411W        W49194  32.369  18.751   5.011
82412W        W49195  36.979  43.091   3.220
82413W        W49196  44.414  15.112   0.971
82414W        W49197   6.355  10.393   2.270
82415W        W49198  32.039  16.833   1.828
82416W        W49199  34.959  20.692   2.204
82417W        W49200  43.275  32.870   3.493
82418W        W49201  28.980  44.504  14.431
82419W        W49202  38.433  10.440  12.539
82420W        W49203  33.305  20.606   2.827
82421W        W49204   3.810   0.398  13.224
82422W        W49205  40.739   5.648   2.758
82423W        W49206  15.613  32.419  10.978
82424W        W49207  36.173  12.584   2.370
82425W        W49208  22.443  30.456   1.325
82426W        W49209   5.885  38.649  14.335
82427W        W49210  39.123  10.714  13.106
82428W        W49211  19.877  22.594   0.417
82429W        W49212  33.619  23.537  11.624
82430W        W49213   9.854  44.761  14.356
82431W        W49214   4.380  26.547  14.796
82432W        W49215  11.261  43.248  10.502
82433W        W49216   2.674  38.873  10.678
82434W        W49217   3.169  12.644   4.615
82435W        W49218  22.806  10.680  14.742
82436W        W49219  24.239  14.630  10.866
82437W        W49220  14.942  39.813   2.135
82438W        W49221  21.266  16.115   5.188
82439W        W49222  38.862  37.476  10.756
82440W        W49223  18.758  16.802   2.730
82441W        W49224  31.722  26.985   1.311
82442W        W49225  33.728  24.137   3.698
82443W        W49226   0.591  42.780  14.729
82444W        W49227  11.589  28.426  13.836
82445W        W49228  34.882  36.289   3.850
82446W        W49229   8.680  29.545   3.159
82447W        W49230  12.646   5.296  12.953
82448W        W49231  10.751   1.941  11.233
82449W        W49232  43.854  28.055  12.526
82450W        W49233  33.861  29.630   1.603
82451W        W49234  17.922  42.064  12.540
82452W        W49235   8.870   2.255  14.515
82453W        W49236  10.828  25.944  13.895
82454W        W49237   0.991  37.906   1.657
82455W        W49238  26.871  34.045  13.507
82456W        W49239  41.996  12.262   2.394
82457W        W49240  30.182  25.161   3.584
82458W        W49241  22.146   2.638  13.007
82459W        W49242   4.231  12.740   0.714
82460W        W49243  15.744  14.434  12.404
82461W        W49244   5.174  27.561   4.066
82462W        W49245  34.507  24.576   3.792
82463W        W49246  29.167   9.176   3.211
82464W        W49247   2.582  17.127   3.452
82465W        W49248  12.152  44.274  10.376
82466W        W49249   0.775  32.045   4.616
82467W        W49250  32.551  24.351  14.366
82468W        W49251   2.953  15.012   4.616
82469W        W49252  28.490  20.122  13.280
82470W        W49253  11.147   0.471  13.534
82471W        W49254  26.949  37.263   4.672
82472W        W49255  36.825  19.709  13.458
82473W        W49256  16.604  43.931  10.662
82474W        W49257  41.140  39.268  13.479
82475W        W49258   7.336  25.498  12.078
82476W        W49259  44.777   9.734  11.634
82477W        W49260  41.454   4.872  13.075
82478W        W49261   3.602   6.371   0.574
82479W        W49262  39.624  35.891   4.616
82480W        W49263  37.625  25.529   4.034
82481W        W49264  30.113  37.045   2.225
82482W        W49265  36.521  13.261   2.917
82483W        W49266  40.687  32.119   2.071
82484W        W49267  11.718  27.665  11.019
82485W        W49268   5.078   4.772   4.109
82486W        W49269  41.880  27.988   3.245
82487W        W49270   0.834  37.911   0.305
82488W        W49271  36.319   2.698  13.329
82489W        W49272   6.747   1.324   4.114
82490W        W49273   5.597  40.526   4.280
82491W        W49274  34.406  31.165  10.628
82492W        W49275  35.090  38.219  14.257
82493W        W49276  28.153   5.745  12.948
82494W        W49277  40.530   6.425   4.764
82495W        W49278  31.055  12.246   2.835
82496W        W49279  22.339  36.892   2.991
82497W        W49280  27.212  22.547   3.171
82498W        W49281   1.596  30.387  12.977
82499W        W49282   6.672  10.217   2.662
82500W        W49283  24.591   4.308  10.522
82501W        W49284   2.800  10.618  13.087
82502W        W49285  33.868  17.673   4.262
82503W        W49286  33.285  30.688  12.918
82504W        W49287  43.446  43.366   2.655
82505W        W49288  34.815  16.827  14.727
82506W        W49289  14.576  23.664   0.287
82507W        W49290   6.259  30.511   4.720
82508W        W49291  32.169  40.507   4.840
82509W        W49292  38.547  38.113  13.050
82510W        W49293  21.791   9.790   2.864
82511W        W49294  28.976  34.451  14.009
82512W        W49295   6.480  18.974  14.810
82513W        W49296   6.455  10.344   3.107
82514W        W49297   1.337  26.926   4.483
82515W        W49298  10.308  44.514   3.644
82516W        W49299  13.383   9.962  11.937
82517W        W49300  34.117   1.229   0.896
82518W        W49301   6.573  31.552  11.944
82519W        W49302  41.370  14.234   1.686
82520W        W49303  13.675  30.239  10.988
82521W        W49304  17.293  19.494  12.907
82522W        W49305  40.074  38.413  11.961
82523W        W49306  31.936  27.474  13.524
82524W        W49307  38.541  27.067  12.837
82525W        W49308  15.293  42.401   0.241
82526W        W49309   5.324  28.920  14.329
82527W        W49310  35.153  28.526  13.328
82528W        W49311  33.649  25.061   2.038
82529W        W49312   9.594   3.985   1.584
82530W        W49313  11.183   6.122   3.660
82531W        W49314   3.575   2.273  11.188
82532W        W49315  32.028  19.979  12.604
82533W        W49316  15.105  24.557  11.114
82534W        W49317  23.842  35.877  12.413
82535W        W49318  21.549  36.491  12.153
82536W        W49319  37.330  27.076  13.784
82537W        W49320  18.348  30.112  13.317
82538W        W49321  13.265  17.834  11.018
82539W        W49322  25.183  24.254  13.230
82540W        W49323  25.985  12.988  12.389
82541W        W49324  36.765  14.332  14.528
82542W        W49325  29.170  43.369   1.153
82543W        W49326  37.645  33.144  11.435
82544W        W49327   3.426  40.411   0.175
82545W        W49328  25.052  28.220  14.090
82546W        W49329  26.058  22.556   4.751
82547W        W49330  25.257  28.132   2.911
82548W        W49331   0.751  44.381   1.059
82549W        W49332  12.317  43.353   3.732
82550W        W49333  28.359  37.072   3.594
82551W        W49334  44.327  44.743  10.490
82552W        W49335  36.047  34.723  14.587
82553W        W49336  19.172  24.284  12.074
82554W        W49337  34.043  42.259   4.190
82555W        W49338  11.012  29.939   2.645
82556W        W49339  14.589  43.690   0.280
82557W        W49340  26.481  22.517   3.836
82558W        W49341  22.661  10.867   3.958
82559W        W49342  30.406  14.298   0.961
82560W        W49343  27.907  37.774   2.276
82561W        W49344  39.367  43.072  13.196
82562W        W49345  42.530  27.842   4.638
82563W        W49346  20.613  23.279   0.199
82564W        W49347  13.751  24.439   0.031
82565W        W49348  29.135  13.855   1.593
82566W        W49349  10.630  33.542   0.902
82567W        W49350   5.660   3.416  13.355
82568W        W49351  21.719   1.929  10.954
82569W        W49352   7.400   8.342   1.765
82570W        W49353  10.426   4.705  14.457
82571W        W49354  28.481  21.972  11.302
82572W        W49355  27.159  44.507  14.889
82573W        W49356  18.513  36.011   4.552
82574W        W49357  11.784  43.824  13.108
82575W        W49358  10.832   1.295  14.244
82576W        W49359  43.567   5.461   0.074
82577W        W49360  40.546   0.369   4.884
82578W        W49361   2.271  31.469   2.910
82579W        W49362  38.925   5.366   4.724
82580W        W49363  17.516   8.806   0.535
82581W        W49364  44.451  21.216  13.946
82582W        W49365  42.736  20.695   2.627
82583W        W49366  27.799  22.818   4.984
82584W        W49367  34.300  44.925  11.634
82585W        W49368  18.861  37.855   4.425
82586W        W49369  38.013  40.268   4.238
82587W        W49370   1.935  19.604  14.092
82588W        W49371   8.267  20.697  10.756
82589W        W49372  29.523  23.371   0.237
82590W        W49373   3.180  37.869  13.704
82591W        W49374   1.661  17.757   0.722
82592W        W49375  18.163  37.670  10.306
82593W        W49376  32.967  15.254  10.562
82594W        W49377  36.495  12.883  12.998
82595W        W49378  42.960  29.165  12.354
82596W        W49379  32.612  32.478  13.467
82597W        W49380  21.978  23.217  11.185
82598W        W49381   4.118  41.301  12.539
82599W        W49382  17.541  13.071   4.545
82600W        W49383  26.559  36.842   1.370
82601W        W49384  21.672  24.526  11.150
82602W        W49385  12.644  20.253  14.353
82603W        W49386  22.954  32.761  11.121
82604W        W49387  29.077  29.936  12.219
82605W        W49388  33.875  33.616  13.446
82606W        W49389  41.360  43.496   4.193
82607W        W49390  28.004  19.307   0.326
82608W        W49391   1.003  22.738  10.524
82609W        W49392  28.845   8.241  11.207
82610W        W49393  30.641  29.066   3.653
82611W        W49394  27.086  14.859  13.423
82612W        W49395   8.601  43.369  14.530
82613W        W49396  23.859   2.290  14.445
82614W        W49397   4.914   7.144   0.280
82615W        W49398  18.829  34.466  10.663
82616W        W49399  44.534  38.938  11.580
82617W        W49400  21.683  22.022  10.410
82618W        W49401  24.280   6.319   3.713
82619W        W49402  36.358  31.945   2.554
82620W        W49403  21.146  16.011  13.448
82621W        W49404  19.067  16.804  14.361
82622W        W49405  19.787  12.383   2.043
82623W        W49406   5.620  28.049  12.457
82624W        W49407  19.301   4.065   3.775
82625W        W49408   9.257  27.039   1.006
82626W        W49409  21.639  41.582   0.234
82627W        W49410  39.903  21.317  10.713
82628W        W49411  14.375   6.723   2.021
82629W        W49412  16.943   4.394   5.056
82630W        W49413  28.521   7.691   2.027
82631W        W49414   6.722   0.997   3.682
82632W        W49415  37.375   2.958  12.816
82633W        W49416  39.880   5.178  12.410
82634W        W49417  23.662   4.859   0.708
82635W        W49418   2.616  17.912  14.395
82636W        W49419  38.929  19.924   4.291
82637W        W49420  40.848  10.606   1.656
82638W        W49421  16.010   5.713  11.580
82639W        W49422  35.036   7.819   0.021
82640W        W49423  29.393  20.328  10.942
82641W        W49424  31.138  38.033   1.346
82642W        W49425  23.468  35.547  11.089
82643W        W49426  27.209  19.055   1.037
82644W        W49427  13.952   2.343  11.112
82645W        W49428  34.452   6.953   0.871
82646W        W49429  23.771  16.648   2.618
82647W        W49430  27.187  23.459   4.120
82648W        W49431  37.646   5.887   4.054
82649W        W49432   8.621  35.454   4.263
82650W        W49433   8.056  35.713   4.964
82651W        W49434   4.722   2.691   3.642
82652W        W49435  24.469   3.310  12.960
82653W        W49436   6.414  28.087  12.994
82654W        W49437  36.842  34.087  14.653
82655W        W49438   7.372  41.828  12.912
82656W        W49439   6.805  15.790  12.473
82657W        W49440  16.888   0.443  12.677
82658W        W49441   8.765  12.318   0.494
82659W        W49442  37.790   7.845   0.927
82660W        W49443  24.258  41.564   3.167
82661W        W49444  37.642   2.387  14.796
82662W        W49445   2.047   6.108  14.973
82663W        W49446  41.237  16.507  14.572
82664W        W49447  34.810  21.977  13.805
82665W        W49448  22.492   4.384   0.286
82666W        W49449  15.096  26.109   3.676
82667W        W49450  15.990   7.194  13.441
82668W        W49451  42.382  22.293  13.031
82669W        W49452   3.436  15.648  14.310
82670W        W49453  23.090   3.021   2.290
82671W        W49454  17.416  19.110   1.755
82672W        W49455  21.810  33.737   3.223
82673W        W49456   6.281  26.558   5.263
82674W        W49457  13.009  20.634  12.865
82675W        W49458  30.946  34.865   2.692
82676W        W49459  20.667  32.076   3.748
82677W        W49460  29.989  22.040  10.663
82678W        W49461  20.790   1.026  11.233
82679W        W49462  44.072  26.664  14.629
82680W        W49463  31.259  43.785   1.784
82681W        W49464  40.095  40.763   4.194
82682W        W49465  37.560  34.841   4.126
82683W        W49466  15.529  15.330   0.896
82684W        W49467  44.614   9.903  12.090
82685W        W49468  22.246   4.489   3.696
82686W        W49469  32.886  38.121   2.813
82687W        W49470  28.175  32.166  14.451
82688W        W49471  40.471  38.028  14.298
82689W        W49472   9.135   3.718  13.855
82690W        W49473  27.426  37.417  13.043
82691W        W49474  23.633  33.158  13.808
82692W        W49475  43.442  32.498  13.022
82693W        W49476  26.166  30.543   4.682
82694W        W49477  44.198  10.580  13.651
82695W        W49478  14.429  43.388  12.063
82696W        W49479  15.849   9.152  14.687
82697W        W49480  29.463  42.404  14.185
82698W        W49481  33.932  33.092  12.734
82699W        W49482  10.735   2.659  13.276
82700W        W49483  28.480  17.575   4.612
82701W        W49484  44.575  15.409   1.475
82702W        W49485  35.930  19.832   0.863
82703W        W49486  40.449  17.123   0.445
82704W        W49487  30.992   0.308   3.467
82705W        W49488  21.262  12.401  11.115
82706W        W49489   5.959  22.180  10.535
82707W        W49490  20.694  31.930  11.034
82708W        W49491  27.589   1.776  14.447
82709W        W49492  32.215   4.220   2.793
82710W        W49493   4.491   1.266  12.457
82711W        W49494   7.204  23.285  11.567
82712W        W49495  30.917   3.985   3.409
82713W        W49496  11.923   0.531   0.717
82714W        W49497  35.065  21.321  11.545
82715W        W49498  38.582   2.857   4.030
82716W        W49499   3.840  42.684   2.690
82717W        W49500  17.803  17.362   4.028
82718W        W49501  19.846  12.170  10.670
82719W        W49502  18.270  40.904  14.852
82720W        W49503   8.382  35.376  14.871
82721W        W49504  13.094  14.299  13.389
82722W        W49505  41.943  44.500   0.389
82723W        W49506  17.226  35.908  10.380
82724W        W49507   0.898  32.889  14.476
82725W        W49508  21.700   5.906  10.662
82726W        W49509  35.872   5.816   0.849
82727W        W49510  40.570  35.858  12.443
82728W        W49511  39.384  27.212   3.005
82729W        W49512   6.535   2.653   4.108
82730W        W49513   9.685   1.297  13.825
82731W        W49514  42.176  20.176  11.582
82732W        W49515  16.080   0.296   3.737
82733W        W49516  12.201  35.991   0.227
82734W        W49517  20.120  37.811  14.826
82735W        W49518  16.641  17.492   1.705
82736W        W49519   3.222  12.209   3.229
82737W        W49520  11.871  41.619  10.539
82738W        W49521  41.756  38.749   2.742
82739W        W49522  12.706  25.091   4.161
82740W        W49523  23.265  32.016   1.460
82741W        W49524  44.897  14.684  10.757
82742W        W49525  41.507  11.184   3.130
82743W        W49526  38.975  26.032  10.354
82744W        W49527   6.265  35.042  14.465
82745W        W49528   4.510  39.585  13.097
82746W        W49529  24.691  19.069  10.595
82747W        W49530   4.984  21.213   2.675
82748W        W49531  24.173  44.293   2.359
82749W        W49532   1.297  29.093   3.657
82750W        W49533  36.332  37.393   4.099
82751W        W49534   5.480  33.105  11.914
82752W        W49535  19.113  42.331   2.202
82753W        W49536  39.575   6.226   4.263
82754W        W49537   9.677  26.196   3.277
82755W        W49538  30.608  27.660   1.221
82756W        W49539  28.922  28.638   1.177
82757W        W49540  40.651  37.624   5.139
82758W        W49541  42.011  19.767   5.057
82759W        W49542  16.128  44.673   4.679
82760W        W49543  33.669  42.970  14.291
82761W        W49544  21.810  23.519   0.061
82762W        W49545  17.503  38.340   2.683
82763W        W49546  43.661  22.491  14.421
82764W        W49547  13.095  14.053   3.633
82765W        W49548  13.164  10.654  13.039
82766W        W49549  10.189  13.637   2.588
82767W        W49550   7.656  31.138   2.785
82768W        W49551   6.703  14.834  10.735
82769W        W49552  12.363   8.666   2.765
82770W        W49553  31.598  12.980   1.856
82771W        W49554  21.143   9.561   4.124
82772W        W49555  35.384  24.679  11.465
82773W        W49556  30.027  30.734  10.806
82774W        W49557  15.566   4.418   4.588
82775W        W49558  24.527  16.330   3.965
82776W        W49559  27.023  11.274  11.572
82777W        W49560  29.436  20.096   4.333
82778W        W49561  23.688  33.915  12.883
82779W        W49562   6.274   4.494  10.882
82780W        W49563  25.414  21.206  12.139
82781W        W49564  19.402  22.653   0.201
82782W        W49565  26.296  35.187  14.686
82783W        W49566  43.394  37.245  12.447
82784W        W49567  35.605  23.059   3.494
82785W        W49568   3.774   8.176   2.863
82786W        W49569  34.347  28.240   4.127
82787W        W49570  36.137  32.399   2.171
82788W        W49571  27.128  40.402   2.275
82789W        W49572  14.392  23.569   2.371
82790W        W49573  16.136  28.549  14.259
82791W        W49574  32.453  14.908  13.847
82792W        W49575  13.768  21.315   0.777
82793W        W49576  14.097  35.865   5.040
82794W        W49577  30.621   6.257   4.402
82795W        W49578   3.949  21.617   0.074
82796W        W49579   9.399  28.303   3.193
82797W        W49580  14.750  17.908   4.173
82798W        W49581  37.402   6.747  10.846
82799W        W49582   2.929  32.476  11.373
82800W        W49583   4.936   1.603  12.409
82801W        W49584  25.652  18.298  10.267
82802W        W49585  44.415  43.733  14.283
82803W        W49586   7.206  10.762   3.231
82804W        W49587   7.455  42.892   3.718
82805W        W49588   9.262  35.956   2.404
82806W        W49589  16.647  26.147   1.383
82807W        W49590  29.693  26.399   4.621
82808W        W49591  34.041  42.372  13.331
82809W        W49592  37.882  40.598   1.737
82810W        W49593   3.349   8.226   3.725
82811W        W49594  36.094  38.911   3.575
82812W        W49595  36.517  39.952   1.796
82813W        W49596  31.580  42.444  10.580
82814W        W49597  27.485  19.288  14.474
82815W        W49598  11.021  38.538  10.174
82816W        W49599  29.489  29.015   1.929
82817W        W49600  38.332  30.537  11.601
82818W        W49601  40.473   5.437   1.393
82819W        W49602  18.379  19.351   1.776
82820W        W49603  34.076  29.184   1.822
82821W        W49604  34.364   8.912  10.749
82822W        W49605  17.243  19.626   3.769
82823W        W49606   6.249   2.654  14.346
82824W        W49607   1.620  31.352  14.947
82825W        W49608   4.146  15.589  11.628
82826W        W49609  40.619  27.072  11.291
82827W        W49610  19.297  38.326  14.063
82828W        W49611   1.676  31.181  14.460
82829W        W49612  30.026  30.187   3.354
82830W        W49613   9.797  17.590  12.411
82831W        W49614  24.702  11.675  13.312
82832W        W49615  33.848  28.936   0.820
82833W        W49616  14.608  13.596  14.500
82834W        W49617  34.692  26.605  10.353
82835W        W49618  35.250  11.685   0.922
82836W        W49619  33.466  42.534   3.692
82837W        W49620  28.967  10.176  10.799
82838W        W49621  33.569   3.177  14.861
82839W        W49622  20.185  44.394  14.251
82840W        W49623  41.255   8.323  11.398
82841W        W49624  38.385  36.065   2.175
82842W        W49625  40.117  14.698  12.463
82843W        W49626   4.157  29.095   3.142
82844W        W49627   4.277  27.765  12.387
82845W        W49628  17.786   0.225   1.339
82846W        W49629  13.313  15.304   0.296
82847W        W49630   6.993  15.862  12.000
82848W        W49631  19.632  32.936  10.710
82849W        W49632   8.046  18.665  11.052
82850W        W49633  36.401  26.194   0.090
82851W        W49634   4.085  21.090   1.463
82852W        W49635   7.338  41.055  10.694
82853W        W49636   2.160  25.336   5.174
82854W        W49637  26.574  26.225   0.896
82855W        W49638  29.335  21.581  14.413
82856W        W49639  23.454  30.194   0.718
82857W        W49640   4.544   9.564  12.680
82858W        W49641  18.738  14.074   0.060
82859W        W49642  29.145  27.205  13.505
82860W        W49643  32.373  34.481  12.946
82861W        W49644  16.593  16.068  10.266
82862W        W49645   0.092  21.145  10.466
82863W        W49646   8.707  34.938   0.908
82864W        W49647  23.469  24.737   2.297
82865W        W49648  28.990  12.654  14.862
82866W        W49649   0.725  12.307   9.810
82867W        W49650  15.123  23.848   0.037
82868W        W49651  20.725   2.340  13.840
82869W        W49652  21.609   0.145  12.512
82870W        W49653   3.088  26.956   1.247
82871W        W49654  13.934  24.479   3.881
82872W        W49655  30.622  24.555  14.445
82873W        W49656   9.663  17.260  14.258
82874W        W49657  33.715  38.993   2.573
82875W        W49658  32.838   6.211   0.763
82876W        W49659  10.145  35.562  12.625
82877W        W49660   7.750  34.522  12.502
82878W        W49661   9.238  43.954  13.150
82879W        W49662  34.880  42.182   4.040
82880W        W49663   7.115  41.345  11.340
82881W        W49664  11.770  35.323  14.073
82882W        W49665  14.769   0.403   0.689
82883W        W49666  29.016  37.149  14.822
82884W        W49667   5.262  39.068   4.567
82885W        W49668  31.942  43.507  11.973
82886W        W49669  15.464  27.231  12.582
82887W        W49670  28.487   8.261   4.667
82888W        W49671  27.653  38.913  13.252
82889W        W49672  17.314  32.989   4.203
82890W        W49673  38.601  24.738   4.547
82891W        W49674  14.676  15.531   3.755
82892W        W49675  21.708  37.714   3.343
82893W        W49676  43.595   8.157  10.462
82894W        W49677   8.484  35.902   3.782
82895W        W49678  20.541  40.402  14.541
82896W        W49679   8.939  28.638   1.935
82897W        W49680   3.572  32.505   3.970
82898W        W49681  28.091   4.744  11.609
82899W        W49682   5.125  13.614   1.019
82900W        W49683  29.219  34.150   0.859
82901W        W49684   7.740  36.093  12.541
82902W        W49685  16.395  10.313  12.050
82903W        W49686  25.655   2.233  11.477
82904W        W49687  34.090  10.178  12.719
82905W        W49688  17.878   8.978   4.107
82906W        W49689  15.719  35.771   2.075
82907W        W49690  29.567  41.798  10.285
82908W        W49691  43.980  35.382  10.384
82909W        W49692  14.371   9.559  11.998
82910W        W49693  11.501  44.805   4.110
82911W        W49694  41.306  15.791  13.649
82912W        W49695  27.825  29.018   9.945
82913W        W49696  34.227   9.601   2.628
82914W        W49697  20.301   9.817   2.958
82915W        W49698  43.774  18.279   3.254
82916W        W49699  26.584  10.535   4.584
82917W        W49700   4.726  32.994  13.762
82918W        W49701  24.978  13.628  14.564
82919W        W49702   3.412   7.147  14.380
82920W        W49703  24.241  13.343   2.716
82921W        W49704  11.126   3.979  12.761
82922W        W49705  25.707  29.843  11.981
82923W        W49706  32.031  43.959   0.816
82924W        W49707  38.917  31.904  13.888
82925W        W49708  29.559  30.422  14.330
82926W        W49709  18.051  31.924   0.022
82927W        W49710  41.285  24.023   3.213
82928W        W49711  21.735  36.121   0.709
82929W        W49712  26.920  28.316   3.282
82930W        W49713  25.218  32.887   0.899
82931W        W49714   0.840  39.132   4.553
82932W        W49715  33.491   4.195  13.362
82933W        W49716  37.065  27.992   1.281
82934W        W49717  19.239  41.451  14.300
82935W        W49718  16.941  39.937   1.390
82936W        W49719  43.957  35.850  12.179
82937W        W49720  15.860  42.023  13.065
82938W        W49721  35.333   6.835   0.940
82939W        W49722  34.591   4.392  10.277
82940W        W49723  21.657   1.880  14.916
82941W        W49724  31.160  43.994  11.594
82942W        W49725  38.372  26.008   4.271
82943W        W49726  41.959  43.550   4.901
82944W        W49727  26.687  22.093   3.106
82945W        W49728  29.115  21.556   2.304
82946W        W49729   9.349  17.578  10.713
82947W        W49730  27.989   1.525   0.825
82948W        W49731  10.482  38.280  14.074
82949W        W49732  33.939  39.504  13.570
82950W        W49733  27.437  30.088   0.867
82951W        W49734  29.302  21.966  14.772
82952W        W49735  40.618  28.910  10.748
82953W        W49736  34.086   0.045   3.189
82954W        W49737  30.042  34.631   2.625
82955W        W49738  26.221  35.656  10.794
82956W        W49739  36.486  10.352  13.147
82957W        W49740  41.629  21.245  14.941
82958W        W49741  13.803  11.905  12.081
82959W        W49742  39.981  10.649  10.780
82960W        W49743  43.597  23.087   2.226
82961W        W49744   9.972  37.596  11.004
82962W        W49745  10.860   7.191  10.901
82963W        W49746  38.389   8.296   3.302
82964W        W49747  10.515  24.499  13.951
82965W        W49748   7.292  40.091  13.496
82966W        W49749  36.853  25.975   0.261
82967W        W49750   8.929  18.277  11.098
82968W        W49751  11.355   9.051  14.491
82969W        W49752  20.202   2.985  12.971
82970W        W49753  34.305  37.317  11.093
82971W        W49754  42.459  16.196   2.573
82972W        W49755  18.753   2.366  13.129
82973W        W49756   0.330  35.909  12.444
82974W        W49757  23.137  43.241   0.901
82975W        W49758  23.546  42.951  13.996
82976W        W49759   1.570  39.248   1.801
82977W        W49760   1.941  39.906   4.889
82978W        W49761   6.898  11.187  11.590
82979W        W49762  14.159  27.197  11.536
82980W        W49763  20.038  25.181   5.010
82981W        W49764  41.360  10.698  14.074
82982W        W49765  14.640   6.828  12.676
82983W        W49766  40.798  26.409  12.728
82984W        W49767  20.008  44.684   4.954
82985W        W49768  32.851  13.676  13.841
82986W        W49769  35.281  30.929  11.623
82987W        W49770   5.367  44.835  11.432
82988W        W49771  25.647  33.359   1.433
82989W        W49772   0.353  28.495  10.788
82990W        W49773  19.846  10.273   1.783
82991W        W49774  35.085  17.260  14.750
82992W        W49775  42.424   3.810   4.564
82993W        W49776  28.675  38.785   3.880
82994W        W49777   4.016  17.656  11.121
82995W        W49778  41.243   2.607  13.626
82996W        W49779  44.327  37.694   5.010
82997W        W49780  13.203   0.085   0.530
82998W        W49781  19.125   9.938   1.655
82999W        W49782  15.718  43.399  12.271
83000W        W49783  10.317  43.960  11.179
83001W        W49784   2.710  36.073  10.940
83002W        W49785  14.593   4.940   4.051
83003W        W49786  42.542  19.039  11.442
83004W        W49787  32.103  25.975   5.023
83005W        W49788  12.217   4.892   1.410
83006W        W49789  39.451   6.360  10.602
83007W        W49790   6.271  30.937  14.007
83008W        W49791  21.956   5.464   4.082
83009W        W49792  26.682   2.019  13.006
83010W        W49793  21.757  37.922   0.442
83011W        W49794  28.171   8.768   2.777
83012W        W49795  25.943  19.166   2.353
83013W        W49796  24.215  18.321   3.318
83014W        W49797  15.546  21.149  12.620
83015W        W49798  44.344  43.744   4.523
83016W        W49799   5.506  14.200   1.813
83017W        W49800  14.584  37.007  12.204
83018W        W49801  14.625  19.729  11.051
83019W        W49802  36.752  22.725   0.415
83020W        W49803   2.907  13.732   1.943
83021W        W49804  42.905  37.793   3.871
83022W        W49805  12.072  19.534  14.723
83023W        W49806  22.559  43.136  13.475
83024W        W49807   0.520  31.565   4.552
83025W        W49808   6.853  25.942   1.436
83026W        W49809  24.098  44.261  12.050
83027W        W49810  29.395   5.200   2.339
83028W        W49811  31.069  12.252  13.306
83029W        W49812  29.553  23.366   4.949
83030W        W49813  12.046  13.147  13.522
83031W        W49814  32.545  25.219  11.137
83032W        W49815  36.962   7.717  14.271
83033W        W49816  24.661  17.159   3.684
83034W        W49817  15.766   4.309   0.882
83035W        W49818  38.769  41.587  13.997
83036W        W49819   4.842  24.129  14.907
83037W        W49820  33.477   4.305   4.988
83038W        W49821  21.079  36.502  12.933
83039W        W49822  22.019  31.072  10.694
83040W        W49823  23.042   1.477   2.210
83041W        W49824   8.119  33.288   1.669
83042W        W49825  35.267  29.672  12.840
83043W        W49826  36.886  13.315  13.879
83044W        W49827  24.286  10.380  13.523
83045W        W49828  21.154  16.032  11.877
83046W        W49829  34.616  30.490  14.985
83047W        W49830  20.713  21.168   2.306
83048W        W49831  24.551  22.133  14.404
83049W        W49832  33.913   3.813   0.075
83050W        W49833  12.439  44.441   2.631
83051W        W49834  27.044   9.115  12.944
83052W        W49835  18.134  24.470   1.393
83053W        W49836  29.938   2.780  11.410
83054W        W49837  14.865  34.992   5.729
83055W        W49838  10.628  22.697  13.442
83056W        W49839   0.543  20.670   1.213
83057W        W49840  23.273   8.270  12.994
83058W        W49841  12.259  27.660  13.603
83059W        W49842  10.184  37.812  11.452
83060W        W49843  11.655  38.237   3.900
83061W        W49844  15.449  26.248  11.146
83062W        W49845  19.702  25.466  10.549
83063W        W49846  35.990  29.022  10.782
83064W        W49847  39.286  44.648   0.618
83065W        W49848  26.287  19.248   3.740
83066W        W49849  22.757  38.325  14.029
83067W        W49850  32.849   4.768  13.188
83068W        W49851  40.832  20.515  11.120
83069W        W49852   6.377  19.950  11.664
83070W        W49853  18.837  10.860   4.358
83071W        W49854  13.143  21.447  10.827
83072W        W49855  31.878  39.552   4.105
83073W        W49856  13.760  28.080  10.677
83074W        W49857  15.000  17.944   9.966
83075W        W49858  17.541   8.388  12.134
83076W        W49859  26.040  19.082  14.226
83077W        W49860  24.198  17.455   3.608
83078W        W49861  21.108  12.700   0.480
83079W        W49862  24.365  29.883   0.927
83080W        W49863  23.781  28.434   1.873
83081W        W49864  30.218   9.681  14.054
83082W        W49865  19.175  43.779  11.624
83083W        W49866  39.997  21.673  14.172
83084W        W49867  36.601  22.705   1.771
83085W        W49868  15.157   6.876  12.632
83086W        W49869   5.430  12.877   3.521
83087W        W49870  14.063  40.294   2.866
83088W        W49871  21.571  24.517   1.204
83089W        W49872   4.200  15.054  11.155
83090W        W49873   8.645  33.425  11.607
83091W        W49874  36.543  40.485   4.604
83092W        W49875  25.167  41.267   2.185
83093W        W49876  38.458  36.832  12.444
83094W        W49877   8.807  32.671   4.113
83095W        W49878  14.140  18.177   2.324
83096W        W49879  10.199  33.367   1.964
83097W        W49880  27.121  29.233  12.649
83098W        W49881  21.580  23.267  14.416
83099W        W49882  18.559  39.198   1.842
83100W        W49883  11.020  13.548   3.497
83101W        W49884  16.359  38.891   4.594
83102W        W49885  35.679   8.240   3.706
83103W        W49886  14.161  14.754  12.067
83104W        W49887  31.498  39.501  10.721
83105W        W49888   7.104  16.665  12.517
83106W        W49889   4.236  30.561   3.287
83107W        W49890  22.065  31.551  11.602
83108W        W49891  26.010   3.193   1.960
83109W        W49892  31.657  11.416  13.474
83110W        W49893   3.177  10.948   2.178
83111W        W49894   1.419   0.951   4.192
83112W        W49895  35.579  40.326  12.797
83113W        W49896  36.485  15.589  10.417
83114W        W49897   9.930   6.468  13.492
83115W        W49898  40.258  32.986  13.400
83116W        W49899  22.783   2.821  14.956
83117W        W49900  28.580   3.902   2.350
83118W        W49901  37.752  43.572   3.705
83119W        W49902   5.846   6.666  11.600
83120W        W49903  32.887  18.589  14.934
83121W        W49904   5.637   1.739  13.092
83122W        W49905  28.426  30.040   1.852
83123W        W49906  29.174  35.739  14.407
83124W        W49907   1.044  12.671  10.035
83125W        W49908  35.992  32.340   1.356
83126W        W49909  43.391   3.378   3.097
83127W        W49910  18.573  13.031   4.504
83128W        W49911   2.729  18.607   2.882
83129W        W49912  14.620   7.387  11.519
83130W        W49913  19.300  24.110   4.657
83131W        W49914   1.378  10.470   4.116
83132W        W49915  37.774  16.608  11.962
83133W        W49916  10.272  19.551  11.998
83134W        W49917  29.663  18.175  13.720
83135W        W49918  15.092  32.876  13.473
83136W        W49919   1.519  31.658  11.425
83137W        W49920   4.240  21.651   2.904
83138W        W49921  26.734  37.320  13.636
83139W        W49922  10.048  27.196  12.448
83140W        W49923  24.085  21.256  12.170
83141W        W49924  31.215   4.240   0.362
83142W        W49925  10.303  18.327   1.462
83143W        W49926  17.065  43.490   4.781
83144W        W49927  29.415   7.877   1.811
83145W        W49928   3.337  27.512   3.740
83146W        W49929  20.924  30.692   3.632
83147W        W49930  34.892   2.748  12.366
83148W        W49931  24.682   0.107   1.768
83149W        W49932  20.947  15.085  10.252
83150W        W49933  40.843   5.710   1.007
83151W        W49934   4.852  44.331  14.518
83152W        W49935  24.134  16.645   3.887
83153W        W49936   2.715   9.811   4.663
83154W        W49937   9.806  18.320   4.680
83155W        W49938  14.038   6.628  14.531
83156W        W49939  36.694   6.358  11.745
83157W        W49940   3.684  35.024   3.620
83158W        W49941  15.454  22.875  11.121
83159W        W49942  22.735  15.154   0.009
83160W        W49943  14.934  18.777   1.647
83161W        W49944  36.384  24.079  12.405
83162W        W49945   9.422  27.510   0.799
83163W        W49946  44.306   1.948  11.005
83164W        W49947  10.423   9.841   2.730
83165W        W49948  32.809  36.547  10.510
83166W        W49949  19.299  44.928   0.458
83167W        W49950   5.941  10.923   0.886
83168W        W49951  26.620  36.349  13.437
83169W        W49952  37.043   4.814  12.925
83170W        W49953  22.968  16.959  10.326
83171W        W49954  40.608  13.769  13.973
83172W        W49955  31.266   2.963  12.500
83173W        W49956  39.257  26.014  11.682
83174W        W49957  14.227  36.397   1.104
83175W        W49958  19.800  10.112   4.560
83176W        W49959  36.789   2.983   0.479
83177W        W49960  33.689  23.617  13.439
83178W        W49961   0.345  33.911  11.314
83179W        W49962  13.124   5.853  11.616
83180W        W49963  43.539  44.302  12.472
83181W        W49964  20.414  31.654  14.859
83182W        W49965  10.228   3.267   3.157
83183W        W49966  14.235   9.526  14.782
83184W        W49967  23.448  14.667   3.233
83185W        W49968   4.462  32.503   0.476
83186W        W49969  20.541  33.550  13.564
83187W        W49970   3.800  12.843  13.490
83188W        W49971  43.714   5.489  14.330
83189W        W49972  43.575   2.508   2.275
83190W        W49973  29.461  17.815   1.606
83191W        W49974  18.441  16.235  14.365
83192W        W49975  43.100  18.752   4.652
83193W        W49976  14.115  33.768   3.322
83194W        W49977  44.519  35.928   0.904
83195W        W49978  13.248   1.995   4.528
83196W        W49979  13.409   4.849  11.066
83197W        W49980  16.110  33.315  14.505
83198W        W49981  44.205  21.560   1.287
83199W        W49982  33.603  33.919   9.904
83200W        W49983  22.185   3.507   2.204
83201W        W49984  19.902  34.521  12.634
83202W        W49985   0.557  29.167  11.589
83203W        W49986  41.085  26.418   4.122
83204W        W49987  17.294   7.747   3.997
83205W        W49988  17.240  30.899  12.170
83206W        W49989  13.431  35.427   0.487
83207W        W49990  37.603   7.486  12.025
83208W        W49991   3.485  13.119   4.053
83209W        W49992   4.780  23.743  13.299
83210W        W49993   9.814  24.704   1.474
83211W        W49994  18.619  14.861   3.265
83212W        W49995  11.425  26.875   4.132
83213W        W49996  35.629  16.203   2.088
83214W        W49997  18.669  44.462   4.593
83215W        W49998  44.372  26.964   3.372
83216W        W49999  35.061  23.609  14.977
83217W        W50000  18.624  41.952  12.061
83218W        W50001   2.309  22.659   0.959
83219W        W50002  35.326   9.157   2.232
83220W        W50003  31.124   9.800  13.853
83221W        W50004  16.416  16.972   0.818
83222W        W50005  31.878  39.316  13.975
83223W        W50006  29.194  28.381   3.319
83224W        W50007  13.791  42.689   3.404
83225W        W50008  41.735  19.371  13.413
83226W        W50009   0.404  40.357   3.406
83227W        W50010   3.862  40.787   3.413
83228W        W50011  22.071   7.613  13.556
83229W        W50012  34.007   7.135  11.824
83230W        W50013  44.515  39.288  12.401
83231W        W50014  34.477   1.475  14.265
83232W        W50015  38.748  24.798  12.583
83233W        W50016   4.904   0.245   4.325
83234W        W50017  40.806  15.419   2.237
83235W        W50018  42.474  19.106  13.912
83236W        W50019  16.295  32.523  12.745
83237W        W50020   1.530  29.688  12.583
83238W        W50021  28.230  39.958  10.384
83239W        W50022  20.435  18.844   1.957
83240W        W50023  29.517  26.089   1.998
83241W        W50024   4.302   5.774   2.603
83242W        W50025   6.954  33.685  13.007
83243W        W50026   8.698  38.171  12.878
83244W        W50027  15.007  27.194  13.986
83245W        W50028  15.083  16.056   4.413
83246W        W50029  32.791  34.017  10.630
83247W        W50030  16.150  16.748  10.789
83248W        W50031  42.420  39.640  14.144
83249W        W50032   2.690  16.533   2.783
83250W        W50033  15.650  41.254   3.154
83251W        W50034   9.927   0.621  13.241
83252W        W50035  34.610   5.289  12.900
83253W        W50036  31.492  12.311  12.018
83254W        W50037   3.440  39.147   0.898
83255W        W50038  25.483   2.097  10.608
83256W        W50039   9.987  44.739   3.259
83257W        W50040  34.417   5.977   1.030
83258W        W50041  21.963  32.498  14.048
83259W        W50042  32.069  13.318   3.086
83260W        W50043  27.566   6.490   1.486
83261W        W50044  30.016  30.139   0.342
83262W        W50045  41.869   3.846   2.343
83263W        W50046  10.539   9.280  12.837
83264W        W50047  41.317  16.825  10.699
83265W        W50048  32.516  22.953   5.467
83266W        W50049  29.392  18.729   1.768
83267W        W50050  22.686  21.082   2.193
83268W        W50051  20.037   0.943  10.673
83269W        W50052  32.503  23.714  13.569
83270W        W50053  19.734  21.289  10.452
83271W        W50054  12.317  39.990   2.747
83272W        W50055  26.652   8.768  10.134
83273W        W50056  41.895  10.449  13.434
83274W        W50057  19.856  31.255  14.143
83275W        W50058  40.409  44.802   2.816
83276W        W50059   0.459  38.901  12.610
83277W        W50060  30.621  23.140   0.762
83278W        W50061  39.070   8.414  11.027
83279W        W50062  26.615  13.168   0.844
83280W        W50063  16.789  43.307   3.779
83281W        W50064  14.592   2.602  12.093
83282W        W50065  13.257   1.816  13.438
83283W        W50066  16.052  10.728  13.093
83284W        W50067  42.996  23.581  13.000
83285W        W50068  25.736   2.411   4.585
83286W        W50069  39.980  35.561   2.276
83287W        W50070  19.151  23.962  13.553
83288W        W50071  37.338  32.833  14.915
83289W        W50072  24.425   6.188   1.940
83290W        W50073  17.315  20.094   0.264
83291W        W50074   0.875  20.160  14.707
83292W        W50075  29.948  31.957  13.894
83293W        W50076  12.336   1.895   0.915
83294W        W50077   1.252   9.681  13.817
83295W        W50078  22.516  34.721  13.770
83296W        W50079  35.485  36.804  12.431
83297W        W50080  12.787  15.798  13.378
83298W        W50081  29.599  32.189  12.930
83299W        W50082  22.826  38.919  12.942
83300W        W50083  24.997  15.750   1.378
83301W        W50084  15.253  32.412  14.555
83302W        W50085  41.738  28.484  14.899
83303W        W50086  23.199  25.996  13.615
83304W        W50087  20.712  41.431  13.065
83305W        W50088   7.421   5.360  13.280
83306W        W50089  33.112  35.987   1.574
83307W        W50090  13.252  13.224  11.479
83308W        W50091  21.954  27.975  11.421
83309W        W50092  40.728  13.249   2.200
83310W        W50093  14.199  28.953   2.204
83311W        W50094  22.605  14.667  14.949
83312W        W50095  27.658  42.368  11.162
83313W        W50096  23.832  35.746   1.203
83314W        W50097  43.023  25.202  14.934
83315W        W50098  14.629  16.106   4.625
83316W        W50099   0.020  38.382  13.146
83317W        W50100  26.361  29.726  10.684
83318W        W50101  32.798   5.552   1.701
83319W        W50102  43.221   4.479  11.950
83320W        W50103  18.815  20.337   4.225
83321W        W50104  11.959  33.957  12.485
83322W        W50105  34.426  32.844  12.023
83323W        W50106   8.200   2.271   1.947
83324W        W50107  22.171  42.020   0.978
83325W        W50108  11.320  39.554  14.989
83326W        W50109  43.064  15.719   5.251
83327W        W50110  33.963  43.993  12.100
83328W        W50111  18.664  40.479   3.580
83329W        W50112  27.775  29.150   2.674
83330W        W50113  26.494  42.994  12.936
83331W        W50114  16.475  12.115   4.634
83332W        W50115  18.286  41.592  13.502
83333W        W50116  13.290  16.317  14.869
83334W        W50117   3.868  39.783  11.645
83335W        W50118  29.970  31.433  13.042
83336W        W50119  41.410  10.789   1.430
83337W        W50120  19.343  19.291   3.575
83338W        W50121  11.767  17.576   3.268
83339W        W50122  43.973  41.533   2.170
83340W        W50123  22.974   5.471   0.384
83341W        W50124   8.936  10.856  14.951
83342W        W50125   0.515   7.810   0.227
83343W        W50126  14.275   0.771  12.883
83344W        W50127   9.148  24.310  13.925
83345W        W50128   7.709  39.806  10.913
83346W        W50129  37.797  22.967  11.139
83347W        W50130  28.064  22.706   0.248
83348W        W50131  24.550  44.855   2.238
83349W        W50132  28.906  23.181   1.339
83350W        W50133  44.899  28.468   1.299
83351W        W50134  15.151  37.294  11.658
83352W        W50135  34.019  13.752  13.732
83353W        W50136  27.115  17.815   0.285
83354W        W50137  16.837  41.237  12.602
83355W        W50138  30.089  16.398  14.675
83356W        W50139  20.715  36.665   1.072
83357W        W50140   1.921   3.910  14.247
83358W        W50141  41.026  40.518  13.065
83359W        W50142  17.626  38.973   0.255
83360W        W50143  36.937   2.866   4.747
83361W        W50144   0.256  12.798   2.603
83362W        W50145  28.621  29.108   1.899
83363W        W50146  21.293   2.903  14.724
83364W        W50147  26.696  16.627   4.173
83365W        W50148   8.436  37.469  11.649
83366W        W50149   1.372   3.773  12.478
83367W        W50150  15.267  41.434  14.464
83368W        W50151  13.573  25.890   4.771
83369W        W50152   2.808  44.371   3.616
83370W        W50153   3.910  38.796  11.636
83371W        W50154  19.312  20.560   3.601
83372W        W50155  14.177   2.246   4.221
83373W        W50156  32.635  37.525   4.534
83374W        W50157  26.672  25.279  11.552
83375W        W50158   2.784  35.175  11.562
83376W        W50159  28.409  28.427  14.421
83377W        W50160  13.718  11.775  14.272
83378W        W50161   6.848  40.026   1.670
83379W        W50162   9.314  44.260   4.515
83380W        W50163  34.634   6.714   2.687
83381W        W50164  32.168   0.730   3.712
83382W        W50165  21.967  38.981  11.995
83383W        W50166   1.072   9.567   2.846
83384W        W50167  28.082  43.844   4.476
83385W        W50168  13.410   4.019  11.553
83386W        W50169  18.387  32.003   5.071
83387W        W50170  17.511  11.242   2.341
83388W        W50171   8.277  16.080  14.369
83389W        W50172  21.738  40.787  14.839
83390W        W50173  34.596  23.519  12.603
83391W        W50174  20.308   6.271  10.522
83392W        W50175  28.731  44.580  11.706
83393W        W50176  14.205  38.004  10.607
83394W        W50177  14.301   7.882  14.903
83395W        W50178  23.312  40.073   0.958
83396W        W50179   8.356  39.967  13.043
83397W        W50180  21.007  10.699   0.404
83398W        W50181  27.134  15.269   4.299
83399W        W50182  26.651   2.711  13.525
83400W        W50183  41.495  17.797   2.370
83401W        W50184  35.075  19.166   1.530
83402W        W50185  21.364  25.041   3.800
83403W        W50186  19.286  29.673  14.708
83404W        W50187  17.153  38.608   0.849
83405W        W50188  16.199  26.095  12.474
83406W        W50189  15.393   5.725   2.353
83407W        W50190  42.218   6.355   1.124
83408W        W50191  32.076  40.205  13.807
83409W        W50192  37.181  30.644   2.244
83410W        W50193  20.631   0.809   5.080
83411W        W50194  32.074  24.282   3.618
83412W        W50195  21.530  39.463  12.864
83413W        W50196  34.565  30.853  13.243
83414W        W50197  12.750  30.453   2.870
83415W        W50198  33.341   5.880   3.259
83416W        W50199  27.041  23.088   4.583
83417W        W50200   6.916  32.975  12.419
83418W        W50201  34.817  42.716   0.297
83419W        W50202  23.255  11.581  11.091
83420W        W50203   3.822   1.896  13.884
83421W        W50204  17.264  37.898   2.834
83422W        W50205  14.848  19.267  11.214
83423W        W50206  18.531  14.769  13.325
83424W        W50207  37.870   6.615   0.646
83425W        W50208   8.618  28.540   2.895
83426W        W50209  13.848  16.947  14.840
83427W        W50210  34.835   7.424   1.408
83428W        W50211  20.004  15.239   2.325
83429W        W50212   5.586  26.956  12.501
83430W        W50213  18.966  34.459   2.307
83431W        W50214  23.190  34.194   4.011
83432W        W50215  30.406   0.403   0.352
83433W        W50216  25.546  44.304  13.251
83434W        W50217  37.517  23.438  11.698
83435W        W50218   4.508  35.615  13.077
83436W        W50219  17.655  28.516  12.516
83437W        W50220  39.285  28.472   2.294
83438W        W50221  34.308  33.038  13.078
83439W        W50222  42.376  11.482   2.966
83440W        W50223  12.712  23.894  11.859
83441W        W50224  29.088  12.629   1.284
83442W        W50225  24.004   8.401  12.033
83443W        W50226  25.517  21.541   1.881
83444W        W50227  43.617   4.965   2.281
83445W        W50228  11.215  14.368   0.949
83446W        W50229   3.715  14.128  13.389
83447W        W50230  17.734  39.915   1.987
83448W        W50231   4.468  44.795   2.222
83449W        W50232  24.219  32.545   4.423
83450W        W50233   7.320  40.272   2.172
83451W        W50234  35.452   2.230   0.389
83452W        W50235  33.788  30.575  12.874
83453W        W50236   1.967  42.556  13.532
83454W        W50237  27.979   5.385  13.519
83455W        W50238   2.591  37.514   5.007
83456W        W50239  20.695  42.205   0.866
83457W        W50240  11.819   6.744   1.441
83458W        W50241  12.522  25.956  14.452
83459W        W50242   8.730   3.359   1.471
83460W        W50243   0.848  22.310  13.587
83461W        W50244  14.515  14.128  10.154
83462W        W50245   6.242  17.505   4.353
83463W        W50246   9.711  23.148  11.405
83464W        W50247   0.869  33.379  13.056
83465W        W50248  20.529  10.837   0.154
83466W        W50249  38.012  10.326   1.718
83467W        W50250  27.946   6.894  13.315
83468W        W50251  23.223  39.994   3.313
83469W        W50252  11.580  42.880  11.692
83470W        W50253  21.807  28.809  12.990
83471W        W50254  20.652  11.277  10.650
83472W        W50255   6.882   7.288   3.341
83473W        W50256  21.110  33.162  14.008
83474W        W50257  27.586  31.370  13.823
83475W        W50258  30.436  39.949   2.371
83476W        W50259   8.741  20.953   1.084
83477W        W50260  40.953   3.284  10.678
83478W        W50261  27.991  21.690   1.762
83479W        W50262   4.764  32.414   0.871
83480W        W50263   8.509  16.675  11.685
83481W        W50264  13.103  11.995   4.139
83482W        W50265  18.569  29.113  13.980
83483W        W50266   4.438  23.260   3.182
83484W        W50267  18.714  31.702  12.001
83485W        W50268  40.958   1.587   0.674
83486W        W50269  34.097  39.869   2.113
83487W        W50270  37.382  20.971  11.225
83488W        W50271  30.531  29.465  10.600
83489W        W50272   3.281  11.325  10.749
83490W        W50273  12.288  36.096  14.729
83491W        W50274   7.802  14.072  11.579
83492W        W50275  19.075  43.536  12.076
83493W        W50276  10.763  30.607   0.164
83494W        W50277  18.634  15.638   2.782
83495W        W50278  37.574   0.020   2.392
83496W        W50279  20.502  12.808  11.022
83497W        W50280  36.064  38.912  12.408
83498W        W50281  36.863  15.623  12.537
83499W        W50282  20.048  40.227   1.566
83500W        W50283  42.741  21.140  11.012
83501W        W50284   5.086  11.624  13.376
83502W        W50285  31.073  34.168   3.224
83503W        W50286  16.028  11.253   4.521
83504W        W50287  11.139  34.596   2.702
83505W        W50288  15.638  35.845   3.103
83506W        W50289  39.537   8.650  11.115
83507W        W50290  44.957   8.020   1.887
83508W        W50291  30.167  20.282   1.262
83509W        W50292  23.828  38.351   0.822
83510W        W50293   9.968   4.765   1.284
83511W        W50294  17.061  42.343  10.649
83512W        W50295   4.845  20.020   0.861
83513W        W50296  41.806   2.976   0.671
83514W        W50297  10.148  27.101  11.458
83515W        W50298  33.069  37.420  11.446
83516W        W50299   3.970  32.845  13.428
83517W        W50300  36.973  24.062   1.007
83518W        W50301  17.620   5.883   2.556
83519W        W50302  32.712   7.298  14.279
83520W        W50303  26.249  21.266   2.690
83521W        W50304  31.522  26.031   4.217
83522W        W50305  18.140  36.615   2.816
83523W        W50306  29.609  11.890  13.799
83524W        W50307  16.645  21.612  13.324
83525W        W50308   9.125  20.520  13.933
83526W        W50309  14.654  38.035  13.796
83527W        W50310   7.400  33.901  12.785
83528W        W50311  24.240  35.500   3.201
83529W        W50312   4.557  44.447  13.842
83530W        W50313  36.673  19.030  12.188
83531W        W50314  37.575  44.262  12.136
83532W        W50315  31.040  41.384  14.748
83533W        W50316  43.779  42.907   3.696
83534W        W50317  27.419   1.509  12.055
83535W        W50318  22.193   8.369   4.437
83536W        W50319  31.575  22.635  13.455
83537W        W50320  38.583   8.462   1.851
83538W        W50321   2.397  36.755   2.342
83539W        W50322  22.335  25.069   4.435
83540W        W50323   1.878  32.592  12.312
83541W        W50324  12.810  24.068  10.654
83542W        W50325   9.151  29.167   3.544
83543W        W50326  34.565  42.989   2.182
83544W        W50327  35.385  29.625   2.008
83545W        W50328  33.028  38.960   4.625
83546W        W50329   1.887   1.132   3.946
83547W        W50330  19.251  21.088   3.764
83548W        W50331   6.271  12.290   0.796
83549W        W50332  35.691  19.571   2.267
83550W        W50333  16.039  31.935  12.623
83551W        W50334  37.857  42.341  13.821
83552W        W50335   4.438  32.671  11.562
83553W        W50336  30.877  16.920  13.075
83554W        W50337  38.114   9.475   1.307
83555W        W50338  10.758  38.349  12.527
83556W        W50339   6.767  25.395   3.645
83557W        W50340   0.546  13.444  11.559
83558W        W50341  20.784  35.982  11.600
83559W        W50342  19.142  23.490   3.694
83560W        W50343  29.155   9.000   1.965
83561W        W50344  10.276   0.845   1.352
83562W        W50345  32.305   0.295   1.882
83563W        W50346   6.007  32.029  12.431
83564W        W50347  25.072  44.946  13.405
83565W        W50348  32.720   8.473   3.229
83566W        W50349  16.854  22.874  11.917
83567W        W50350   2.436   2.712  11.702
83568W        W50351  17.332  35.688   0.885
83569W        W50352  36.968  20.964   0.547
83570W        W50353   4.773  16.130   0.239
83571W        W50354  37.939  18.594   0.727
83572W        W50355  12.209  40.645  14.507
83573W        W50356  28.640  10.398  14.552
83574W        W50357  16.153  27.971   2.623
83575W        W50358  20.479  31.896  14.392
83576W        W50359  44.017  44.942  11.963
83577W        W50360  38.358  14.785   2.644
83578W        W50361  34.913   7.016  11.292
83579W        W50362  16.958   2.655   3.564
83580W        W50363   6.905  25.174   0.791
83581W        W50364  33.499  15.817  12.921
83582W        W50365  15.769  14.715   3.087
83583W        W50366   8.659   9.185   4.590
83584W        W50367  43.031  43.969  14.479
83585W        W50368   3.141   0.863  12.528
83586W        W50369  15.757  16.505  10.516
83587W        W50370   6.294  11.130  12.222
83588W        W50371   0.799  15.736  13.534
83589W        W50372   2.916  39.103   3.640
83590W        W50373  43.112  31.652  11.227
83591W        W50374  32.374  11.747  12.996
83592W        W50375   5.685   7.181  12.535
83593W        W50376  12.556   4.810  14.550
83594W        W50377  16.565  32.515   4.283
83595W        W50378  12.231  38.943  14.299
83596W        W50379  41.790  17.164   3.130
83597W        W50380  29.300  43.976  11.070
83598W        W50381  10.363  30.402  14.332
83599W        W50382  23.456  25.473  11.697
83600W        W50383  17.051  22.955  10.328
83601W        W50384   3.271  32.196  11.079
83602W        W50385   6.850  43.511  11.501
83603W        W50386  13.422  44.972   2.694
83604W        W50387  16.985   6.745   0.887
83605W        W50388  27.409  39.482  12.920
83606W        W50389  35.864  41.860  13.819
83607W        W50390  32.539  27.574   0.449
83608W        W50391  40.322  10.700  11.162
83609W        W50392  13.637  33.517   4.585
83610W        W50393  34.022  30.933   2.846
83611W        W50394  16.778  23.997   0.392
83612W        W50395  32.049   2.426   3.452
83613W        W50396  37.141  32.648   3.716
83614W        W50397  21.649  25.056   1.380
83615W        W50398  35.774  12.774   2.701
83616W        W50399  27.956   7.372  10.969
83617W        W50400  21.913  36.214  12.402
83618W        W50401  11.737   1.734  10.262
83619W        W50402   9.407  39.343   3.815
83620W        W50403  31.482   6.118   0.775
83621W        W50404  25.744  37.515   3.007
83622W        W50405  26.365  42.072  14.362
83623W        W50406  39.341   6.739  13.105
83624W        W50407   3.442  29.256  14.592
83625W        W50408  21.062  36.328   2.299
83626W        W50409  44.357  33.825  12.398
83627W        W50410  37.289  41.569   1.024
83628W        W50411   0.374   6.413  13.358
83629W        W50412  12.729  32.759  14.423
83630W        W50413   3.988  34.551  14.465
83631W        W50414  25.208  17.285  10.466
83632W        W50415  31.021  37.951  12.159
83633W        W50416   4.375  34.952   3.354
83634W        W50417  39.403  18.000   3.215
83635W        W50418  17.031  32.583   4.059
83636W        W50419  26.710  13.731   3.783
83637W        W50420  34.673  39.743   0.848
83638W        W50421   2.010  30.981   2.942
83639W        W50422  14.292  44.773  12.046
83640W        W50423  12.269  40.440   1.924
83641W        W50424  10.763   2.279  14.284
83642W        W50425  20.134  12.728   2.329
83643W        W50426  35.337  17.135   0.695
83644W        W50427  40.053  21.324   3.114
83645W        W50428   4.869   2.629  12.502
83646W        W50429  34.818   5.839   5.530
83647W        W50430  21.501  41.304   4.926
83648W        W50431  28.626  14.762  13.164
83649W        W50432  10.214   3.370  14.783
83650W        W50433  12.687  40.244   0.678
83651W        W50434  19.059  30.918  10.642
83652W        W50435  14.452  32.298  11.525
83653W        W50436  33.363   3.273   5.092
83654W        W50437  28.742  38.955  11.411
83655W        W50438  34.496  17.106  12.412
83656W        W50439  39.563  19.499  14.337
83657W        W50440  38.467  31.608   3.551
83658W        W50441  25.289  40.462   0.874
83659W        W50442  16.695   0.341  11.037
83660W        W50443   9.663   3.743   0.356
83661W        W50444  32.599  33.486   2.812
83662W        W50445  26.914   3.884  13.185
83663W        W50446  44.914   2.776   1.522
83664W        W50447  12.713  27.627   0.743
83665W        W50448  34.804   9.045  13.601
83666W        W50449  33.158  18.447  11.046
83667W        W50450  25.523  16.459  12.859
83668W        W50451  11.254  36.120  11.647
83669W        W50452  26.183  17.250   3.518
83670W        W50453  41.735  17.799  14.903
83671W        W50454  44.120  12.557   1.922
83672W        W50455  15.816  38.988  14.754
83673W        W50456  36.630   4.817   3.194
83674W        W50457  23.534  13.777   0.762
83675W        W50458  21.158  44.733   1.201
83676W        W50459  29.339  18.262   0.101
83677W        W50460  25.822  36.832  13.819
83678W        W50461  33.692  24.439  10.650
83679W        W50462  28.601  41.097   0.483
83680W        W50463  24.641  13.064  11.455
83681W        W50464   5.929  22.520  10.919
83682W        W50465  30.705   5.172   0.343
83683W        W50466   5.531  21.838  11.902
83684W        W50467  19.505  30.467   2.721
83685W        W50468  18.919  19.740  13.044
83686W        W50469   5.431   3.719   3.684
83687W        W50470  33.290   4.465  11.588
83688W        W50471  15.254   2.793   2.464
83689W        W50472  26.435   7.720   0.953
83690W        W50473   5.650  11.506   3.258
83691W        W50474  39.933  33.744  14.763
83692W        W50475   1.304  40.021   3.111
83693W        W50476  37.369   3.424  13.006
83694W        W50477   1.822  29.017  10.712
83695W        W50478  40.633  14.680  12.510
83696W        W50479   3.161   0.235   3.334
83697W        W50480  32.077   5.024   4.736
83698W        W50481  14.652  24.455   4.514
83699W        W50482   5.321  39.868   2.250
83700W        W50483  34.890   4.934   3.700
83701W        W50484  20.681  34.143  14.829
83702W        W50485   3.376  12.225  10.870
83703W        W50486  25.102  16.766   2.480
83704W        W50487  10.955   1.286   4.327
83705W        W50488  44.779  21.262  11.585
83706W        W50489   7.279  20.703  13.641
83707W        W50490   4.984  38.825   4.197
83708W        W50491  18.222   6.324   4.645
83709W        W50492  36.613   5.020  12.014
83710W        W50493   0.425  43.724   4.522
83711W        W50494  14.142  15.066  12.492
83712W        W50495  39.453  41.834   2.424
83713W        W50496  41.097  23.954   4.184
83714W        W50497   1.966  40.962  14.438
83715W        W50498  23.433  38.120   0.443
83716W        W50499   4.319   5.423   4.325
83717W        W50500  36.089  26.056   0.533
83718W        W50501  34.472   0.694  12.983
83719W        W50502  18.338  26.161  11.643
83720W        W50503  26.966  19.577  14.248
83721W        W50504   1.020  22.711   3.287
83722W        W50505  39.963  25.171  13.460
83723W        W50506  28.636  35.005  11.502
83724W        W50507  14.189  13.685  13.815
83725W        W50508  25.882  40.179  13.770
83726W        W50509   6.855  11.278   2.915
83727W        W50510  19.172   4.689  12.049
83728W        W50511  25.700  16.481  11.003
83729W        W50512   8.777  25.692   3.138
83730W        W50513  16.254  11.396  10.944
83731W        W50514  27.212  10.089   1.115
83732W        W50515  36.427   2.413   1.253
83733W        W50516   3.406  32.114  14.552
83734W        W50517  25.233   3.989   3.763
83735W        W50518  20.426   4.070  10.782
83736W        W50519   6.897   0.965   1.409
83737W        W50520  19.922  17.656  11.435
83738W        W50521  38.059  37.007   4.634
83739W        W50522   8.916  21.130   1.529
83740W        W50523  14.298  23.009  10.416
83741W        W50524  13.857  24.490   2.375
83742W        W50525  36.570  37.585  10.719
83743W        W50526  15.701  39.297   4.158
83744W        W50527  34.501  18.533   4.625
83745W        W50528  18.799  13.693  14.660
83746W        W50529   2.336  16.286  10.922
83747W        W50530  32.165  44.004   3.957
83748W        W50531  34.182  14.092   0.054
83749W        W50532  30.881  33.468  13.031
83750W        W50533  26.472  27.105   2.779
83751W        W50534  14.359  26.714   4.103
83752W        W50535  14.867  36.311   3.764
83753W        W50536   3.268  42.777  12.143
83754W        W50537   1.925   1.287   0.838
83755W        W50538  24.576  17.925   0.808
83756W        W50539  12.967  35.047  13.899
83757W        W50540  12.799  30.723  13.454
83758W        W50541  34.434  18.195   2.360
83759W        W50542  26.541  37.592  13.088
83760W        W50543  41.715  10.225  12.009
83761W        W50544  30.498  11.413  12.563
83762W        W50545  20.959  26.600   0.411
83763W        W50546  37.861  10.354  13.416
83764W        W50547  24.992   9.474   0.442
83765W        W50548  28.348  29.497   4.075
83766W        W50549  28.272  41.821   1.760
83767W        W50550  23.610  35.142  11.356
83768W        W50551  35.518   1.244  11.917
83769W        W50552   4.687  36.090  12.974
83770W        W50553   0.726  42.730  11.072
83771W        W50554  26.605  11.372   3.307
83772W        W50555  31.444   0.645  11.540
83773W        W50556  27.658  37.871   1.663
83774W        W50557  15.032  13.303   1.623
83775W        W50558  42.053  21.465   2.744
83776W        W50559  43.316  11.339  12.055
83777W        W50560  33.157  25.063  12.357
83778W        W50561  21.765  44.037  14.313
83779W        W50562  20.817  42.341   3.008
83780W        W50563  24.995  28.082   0.441
83781W        W50564  14.398   2.218  12.489
83782W        W50565  11.341  31.195  12.498
83783W        W50566  32.585  39.958  10.607
83784W        W50567  22.653  36.044   4.848
83785W        W50568  32.897  27.827   4.101
83786W        W50569   8.608  36.087   1.437
83787W        W50570   5.240  42.279   4.874
83788W        W50571  11.457  32.895   1.260
83789W        W50572  40.959   3.339   0.800
83790W        W50573  16.060   1.499  13.312
83791W        W50574  22.994  19.845   3.797
83792W        W50575  33.799  35.453  12.846
83793W        W50576  10.896  17.635   1.470
83794W        W50577  15.531  42.089   2.449
83795W        W50578  32.584  23.477   1.854
83796W        W50579  21.612  43.543   1.452
83797W        W50580  26.661  13.223  13.183
83798W        W50581   2.619  25.170   5.077
83799W        W50582  19.023  27.154  11.078
83800W        W50583  30.218   9.772   1.125
83801W        W50584  34.159  35.247   3.501
83802W        W50585   5.150  41.145  12.993
83803W        W50586  31.849   2.861   3.663
83804W        W50587  10.734  17.171  12.092
83805W        W50588   6.547  14.900  12.513
83806W        W50589   0.783  37.278   2.836
83807W        W50590  36.453  37.591  14.612
83808W        W50591  18.659   9.206  12.427
83809W        W50592  27.477   8.899   5.026
83810W        W50593  42.928   6.618   3.256
83811W        W50594   8.277  39.080   1.249
83812W        W50595  11.728  15.407   4.532
83813W        W50596   0.831  13.080  11.304
83814W        W50597  35.458   4.480  13.555
83815W        W50598   6.316  32.565  11.190
83816W        W50599  32.096  20.221  13.053
83817W        W50600   9.316  34.977   3.258
83818W        W50601  31.129  29.306   1.049
83819W        W50602   0.011  40.880  14.046
83820W        W50603  41.882   0.002   0.401
83821W        W50604  42.491   8.353  13.588
83822W        W50605  39.441  15.205   1.014
83823W        W50606  15.681  34.316   4.295
83824W        W50607  25.033   6.985  11.500
83825W        W50608  13.298  19.650  11.542
83826W        W50609  12.486   5.870  14.601
83827W        W50610  12.520   0.345  13.971
83828W        W50611  14.993  37.415   9.620
83829W        W50612  43.860  27.630  13.406
83830W        W50613  35.392   5.328  13.867
83831W        W50614  24.018  43.986  13.889
83832W        W50615  33.690  12.659  11.957
83833W        W50616  13.076  42.113   3.769
83834W        W50617  17.607   0.796  13.071
83835W        W50618  19.278  22.026   2.625
83836W        W50619  37.184  36.348   0.414
83837W        W50620  39.870  35.916   0.817
83838W        W50621  23.298  24.715   1.504
83839W        W50622  44.488  19.031   0.895
83840W        W50623  24.011  39.342  13.473
83841W        W50624  39.328  41.947  14.391
83842W        W50625  29.650  11.947  10.750
83843W        W50626  15.644  41.739  13.460
83844W        W50627  30.586  43.220  10.490
83845W        W50628  41.978  13.288   3.502
83846W        W50629  15.435  21.522  10.636
83847W        W50630  36.887  39.556  11.592
83848W        W50631  13.731  20.925   1.760
83849W        W50632   4.934  26.297  14.432
83850W        W50633  25.109  30.600   3.354
83851W        W50634  13.599   5.920   3.728
83852W        W50635  43.893  30.896   4.723
83853W        W50636  19.798  34.655   2.862
83854W        W50637  14.844   9.222   3.563
83855W        W50638   4.726  41.810  10.884
83856W        W50639  40.057  20.566  14.736
83857W        W50640  10.682   8.764  13.911
83858W        W50641  21.296   4.487  14.376
83859W        W50642  11.339  36.349   1.778
83860W        W50643  14.130  19.187   0.438
83861W        W50644  21.759  19.174   0.562
83862W        W50645  29.508  21.085   2.905
83863W        W50646  25.681  12.591  10.264
83864W        W50647  42.499  25.993   2.116
83865W        W50648  43.430  36.003   4.144
83866W        W50649   4.390  32.926   2.736
83867W        W50650  14.045   4.831  14.527
83868W        W50651  36.798  34.996   0.216
83869W        W50652  27.723   6.668  12.013
83870W        W50653  12.792  24.141   1.869
83871W        W50654   1.691  28.701  12.495
83872W        W50655  31.501  18.190  13.334
83873W        W50656   5.122   6.146  14.050
83874W        W50657  31.859  17.191   2.173
83875W        W50658  32.559  30.495   4.859
83876W        W50659  30.438  39.054   0.451
83877W        W50660   3.948   8.780   3.416
83878W        W50661  35.016  44.902  13.094
83879W        W50662  14.126  34.578   2.766
83880W        W50663  36.624  33.205   3.600
83881W        W50664  13.779  21.516   4.761
83882W        W50665   5.926  33.111  14.837
83883W        W50666  43.880   6.750   2.777
83884W        W50667  19.340  25.546   2.800
83885W        W50668   3.685   0.449  11.157
83886W        W50669  27.338  32.950  14.316
83887W        W50670   9.791  20.625   1.361
83888W        W50671  17.544  36.277  10.170
83889W        W50672  23.669  32.012  14.038
83890W        W50673  36.430  30.734  12.090
83891W        W50674  10.632   5.426  11.042
83892W        W50675  27.428   1.427   3.216
83893W        W50676  41.759  43.821  12.937
83894W        W50677  40.144  18.439   0.396
83895W        W50678   8.361  25.870  11.557
83896W        W50679  16.627  21.090   0.921
83897W        W50680  18.594   0.273   4.105
83898W        W50681  33.553   9.607  12.115
83899W        W50682  13.821  37.072   3.985
83900W        W50683  31.405  18.087  13.861
83901W        W50684   3.967  30.494  13.885
83902W        W50685  32.052   3.713   1.922
83903W        W50686  44.496  26.554  11.735
83904W        W50687  27.508  30.137   2.732
83905W        W50688  35.326   6.309   3.708
83906W        W50689  38.857  42.019   0.465
83907W        W50690  42.585  32.306  10.789
83908W        W50691  39.807  41.220   0.000
83909W        W50692  42.583  40.227  14.939
83910W        W50693   0.002  32.536   2.399
83911W        W50694   4.284  22.204   1.642
83912W        W50695  40.393  12.808   5.140
83913W        W50696  24.046  42.775  11.112
83914W        W50697  39.851  28.993   4.279
83915W        W50698  41.534  13.170   0.820
83916W        W50699  11.119  23.805  13.779
83917W        W50700  38.997  37.311  12.082
83918W        W50701  29.366  38.455  14.192
83919W        W50702  18.587   3.458   3.618
83920W        W50703  40.038  17.512  12.521
83921W        W50704  26.576  21.081  13.516
83922W        W50705  24.644  22.993  12.683
83923W        W50706  43.811   4.529   0.323
83924W        W50707  16.530  26.195  12.878
83925W        W50708   6.023  41.438   3.280
83926W        W50709  35.348   7.439  10.700
83927W        W50710   1.374  23.633  13.459
83928W        W50711  34.949  15.284   2.169
83929W        W50712  20.065   2.921   5.064
83930W        W50713   8.431  17.979   0.367
83931W        W50714  10.938  15.103  14.874
83932W        W50715  35.231  20.031   3.979
83933W        W50716  34.598   3.263   3.843
83934W        W50717  28.876   0.696   0.504
83935W        W50718   8.404  24.646  11.913
83936W        W50719  41.310   8.907  13.512
83937W        W50720   7.387  34.311   2.537
83938W        W50721  27.720  40.828  11.603
83939W        W50722  17.303  43.810  14.458
83940W        W50723  12.099  29.086  12.449
83941W        W50724  27.741  26.624   0.017
83942W        W50725  11.229  38.695   5.887
83943W        W50726   5.402  39.208   1.713
83944W        W50727  30.128   7.418  11.549
83945W        W50728  15.594  19.358  11.701
83946W        W50729  21.778  25.323   3.752
83947W        W50730  17.609  22.927   1.852
83948W        W50731  36.240  41.195  13.407
83949W        W50732  19.728  31.717   4.817
83950W        W50733  12.759  37.556   1.690
83951W        W50734   6.696  20.515   2.713
83952W        W50735  12.758  25.186   1.802
83953W        W50736  25.943   8.448   0.425
83954W        W50737  41.533  14.143   0.770
83955W        W50738  20.951  29.344   4.175
83956W        W50739  26.399  18.563  14.960
83957W        W50740  37.454  34.139  12.118
83958W        W50741   7.824   9.076   0.001
83959W        W50742  20.986  42.389  14.980
83960W        W50743  34.414  40.972  11.884
83961W        W50744  35.600  24.706   0.941
83962W        W50745  29.074  17.349  12.573
83963W        W50746  16.496  33.055   0.441
83964W        W50747   6.987   9.197  12.840
83965W        W50748  44.381  44.534   3.466
83966W        W50749  17.163  39.939   0.323
83967W        W50750  23.355  41.844   2.287
83968W        W50751  17.822  12.144  14.100
83969W        W50752  32.659  25.162  14.945
83970W        W50753  34.125  34.603  14.389
83971W        W50754  35.797  34.895   2.333
83972W        W50755   9.868  14.445   4.750
83973W        W50756  24.707   7.858  12.236
83974W        W50757  17.135  42.459  14.978
83975W        W50758  13.688  41.739   0.395
83976W        W50759  32.128  29.553   4.932
83977W        W50760  20.537  15.854   3.610
83978W        W50761  24.722  37.053   4.232
83979W        W50762   5.015  31.966   0.788
83980W        W50763  35.315  25.984   4.216
83981W        W50764  30.660  43.045   3.751
83982W        W50765  30.501   9.166  11.166
83983W        W50766  10.922  22.726   2.386
83984W        W50767  44.513  40.474  12.996
83985W        W50768   5.521   2.451   0.010
83986W        W50769  12.053  18.661   0.057
83987W        W50770  36.117  39.609  12.003
83988W        W50771  38.994  30.788  10.096
83989W        W50772  39.099  22.984   4.878
83990W        W50773  40.215   5.920  14.324
83991W        W50774  39.788  36.895   2.286
83992W        W50775   5.234  38.285  12.167
83993W        W50776  15.326  13.893  12.878
83994W        W50777  38.933  22.671   3.835
83995W        W50778  17.135  20.567   2.818
83996W        W50779  31.017   6.200   2.759
83997W        W50780  14.203  30.951  13.630
83998W        W50781  16.695  24.527   0.319
83999W        W50782  41.564  29.765  12.079
84000W        W50783  22.613   3.750   2.378
84001W        W50784  12.213  28.095   3.026
84002W        W50785  35.847  11.300  11.045
84003W        W50786  10.930  39.337  11.081
84004W        W50787  44.270  11.697  12.510
84005W        W50788   4.503  41.244  10.243
84006W        W50789   5.378  38.362   2.446
84007W        W50790   8.291  42.947  10.858
84008W        W50791  11.757  27.702   0.685
84009W        W50792  13.381  29.470   2.540
84010W        W50793  10.968  27.560  14.346
84011W        W50794  35.968   0.513   2.868
84012W        W50795  14.765   7.672  12.135
84013W        W50796   2.639  19.785  14.232
84014W        W50797  33.694  19.377  14.007
84015W        W50798  20.245  16.260  12.112
84016W        W50799  21.077  43.751   3.671
84017W        W50800  31.376  36.575  11.182
84018W        W50801  39.116  25.751   2.402
84019W        W50802  32.347  34.812   1.679
84020W        W50803   7.745  17.675  13.819
84021W        W50804  20.436  16.295   2.720
84022W        W50805  13.231  21.049   1.896
84023W        W50806  25.737   0.800  12.499
84024W        W50807  21.894  39.323   4.284
84025W        W50808  22.211  10.187  12.004
84026W        W50809  23.013   6.407   0.488
84027W        W50810  31.340  33.866   2.887
84028W        W50811  34.592  29.261   0.487
84029W        W50812   5.658  43.442  13.865
84030W        W50813  27.358  26.564  11.441
84031W        W50814  30.683  38.823   1.412
84032W        W50815  16.221  17.601  13.109
84033W        W50816  43.417  27.656  14.766
84034W        W50817  13.421   2.721   2.630
84035W        W50818   1.875  17.524  14.330
84036W        W50819  39.344  33.692   2.733
84037W        W50820   7.803  22.520   0.918
84038W        W50821  32.563  37.722  14.304
84039W        W50822  16.351  32.927   4.559
84040W        W50823  32.667  43.909  14.328
84041W        W50824  12.675  35.992  10.787
84042W        W50825  15.289  41.045   1.850
84043W        W50826  17.100  19.956  10.707
84044W        W50827  32.227  13.036  11.818
84045W        W50828   7.179  21.090  14.800
84046W        W50829  12.595  41.892  13.875
84047W        W50830   3.796  18.039  11.403
84048W        W50831  14.185  33.502  14.993
84049W        W50832   7.356  42.537   3.371
84050W        W50833  39.979  20.467  12.630
84051W        W50834  17.554  32.800  12.997
84052W        W50835   6.931  25.396  10.740
84053W        W50836  31.563  23.081   2.691
84054W        W50837  22.133  42.430   2.714
84055W        W50838   8.590  19.548  13.434
84056W        W50839  10.740  16.708  11.531
84057W        W50840  32.051   1.439   1.916
84058W        W50841   6.307   1.727  12.682
84059W        W50842  41.741   3.462   1.542
84060W        W50843  42.337  10.181  14.542
84061W        W50844   8.185  30.486  13.860
84062W        W50845  36.792  10.887   0.673
84063W        W50846  42.783  26.988   4.531
84064W        W50847  40.236  33.102   5.022
84065W        W50848   5.669  12.309   4.665
84066W        W50849  21.987   7.915   2.946
84067W        W50850  29.250  19.740  12.127
84068W        W50851  24.128   8.613   5.007
84069W        W50852   3.713  31.118   4.627
84070W        W50853  23.699  16.539   3.640
84071W        W50854  41.737   7.648   1.244
84072W        W50855  39.842  15.777   3.631
84073W        W50856   2.386  12.817   3.317
84074W        W50857  18.119   2.353   4.675
84075W        W50858  10.619  21.241   2.461
84076W        W50859  25.606  16.396  14.249
84077W        W50860  38.570   3.342  14.328
84078W        W50861  32.799  14.128  13.586
84079W        W50862  27.978  30.051   0.784
84080W        W50863  20.025  37.763  12.927
84081W        W50864  27.505  24.558  14.314
84082W        W50865   7.418  37.050  13.634
84083W        W50866  33.920  36.458  12.920
84084W        W50867  29.845  22.413   1.766
84085W        W50868   9.084  24.212   3.744
84086W        W50869   4.250  35.612   0.783
84087W        W50870  15.339  24.314  12.791
84088W        W50871  13.355  43.049  10.376
84089W        W50872  38.091  18.286   0.300
84090W        W50873  13.062  40.043  11.333
84091W        W50874  30.704  20.912  11.171
84092W        W50875  43.137   2.172   4.991
84093W        W50876  34.670  36.041   2.245
84094W        W50877  11.640  39.716   3.112
84095W        W50878  34.884  26.955   4.243
84096W        W50879   0.919  40.067  12.316
84097W        W50880   6.650  44.799  13.017
84098W        W50881  33.549  33.418   3.647
84099W        W50882  41.867   0.756  11.484
84100W        W50883  10.407  13.110  12.889
84101W        W50884  44.811  28.335  12.068
84102W        W50885   8.911  15.289  14.498
84103W        W50886  10.263  20.552  11.981
84104W        W50887  31.641  36.900   1.208
84105W        W50888   8.327  11.400  12.466
84106W        W50889   3.521  38.559  10.436
84107W        W50890  29.652   3.812   1.453
84108W        W50891  28.324  17.796  14.755
84109W        W50892   7.424  22.053  12.552
84110W        W50893  13.036  25.574  13.079
84111W        W50894   5.547  36.454   3.779
84112W        W50895  40.856  37.604   0.502
84113W        W50896   1.297  38.775  14.508
84114W        W50897   3.683   3.849  11.979
84115W        W50898  15.031  38.532   0.328
84116W        W50899  33.689  35.840  12.003
84117W        W50900  40.811  30.401   2.877
84118W        W50901  10.804   2.523  11.884
84119W        W50902  19.297  32.275   1.769
84120W        W50903  30.409  27.054  13.961
84121W        W50904  36.856  10.666  11.624
84122W        W50905  40.518   1.370   1.390
84123W        W50906   1.051  12.590   0.007
84124W        W50907  35.499  28.623   3.655
84125W        W50908  25.211  22.777  12.809
84126W        W50909   9.605  17.634  13.301
84127W        W50910  25.574  40.376  12.533
84128W        W50911  10.685   0.401  14.397
84129W        W50912  31.940  32.534   2.015
84130W        W50913  34.341  24.727   0.473
84131W        W50914  19.089  41.764   0.453
84132W        W50915  29.522  32.889   2.270
84133W        W50916   4.393  17.245   2.740
84134W        W50917  33.419  13.860  12.951
84135W        W50918  17.072  11.306   0.434
84136W        W50919  13.859  34.237   1.743
84137W        W50920  30.095  27.273   4.537
84138W        W50921  32.051  18.634   0.268
84139W        W50922  13.695  32.689   3.721
84140W        W50923  43.354   1.337  10.657
84141W        W50924   0.815   2.254  13.461
84142W        W50925  37.895  23.884   4.411
84143W        W50926  24.026  22.167   2.866
84144W        W50927  38.212  11.677  10.287
84145W        W50928  36.439  29.830   1.191
84146W        W50929  37.837   2.339  11.303
84147W        W50930   5.146  13.604   4.590
84148W        W50931   8.933  10.624  12.074
84149W        W50932   7.132  30.910  10.685
84150W        W50933   4.881  43.576   0.926
84151W        W50934  44.767  31.051   2.843
84152W        W50935  17.536  28.563  11.476
84153W        W50936  43.104  41.346  10.718
84154W        W50937  27.441  14.218   0.359
84155W        W50938  27.696   0.769  13.414
84156W        W50939   8.663  37.505  11.144
84157W        W50940  14.826  33.118   3.240
84158W        W50941  40.576  32.997   2.905
84159W        W50942  26.983  28.576   1.464
84160W        W50943   4.480  43.198  10.528
84161W        W50944  21.659   5.819  14.500
84162W        W50945  43.398   5.135   2.764
84163W        W50946  41.890   0.401   3.335
84164W        W50947  36.575   6.221   5.441
84165W        W50948  37.382  32.654  12.904
84166W        W50949  22.002   6.385   1.765
84167W        W50950  19.481  19.190   1.939
84168W        W50951  40.426   4.683  14.044
84169W        W50952  11.503  38.462   1.814
84170W        W50953   6.379  43.717  11.444
84171W        W50954   8.174  18.766  12.492
84172W        W50955  33.875  42.830   1.987
84173W        W50956  34.292  20.080  13.311
84174W        W50957  42.395  38.478   0.341
84175W        W50958  38.436  31.113   3.689
84176W        W50959   4.057  21.177   2.271
84177W        W50960  22.507   1.433   0.525
84178W        W50961   9.004  29.603   1.704
84179W        W50962  10.575  39.629  13.584
84180W        W50963  38.490  25.071  11.445
84181W        W50964  39.138  36.890  12.920
84182W        W50965  14.367  35.024   2.629
84183W        W50966  36.471  23.214   2.684
84184W        W50967  22.127   7.010   4.643
84185W        W50968  29.927  43.748  12.566
84186W        W50969  37.388  13.388   2.331
84187W        W50970  34.782  28.756   1.357
84188W        W50971  13.485  26.183   4.083
84189W        W50972  16.397  22.807  10.004
84190W        W50973  26.586  31.403  13.491
84191W        W50974  34.394   6.050   4.488
84192W        W50975  26.743  27.372   2.406
84193W        W50976   2.850  14.031  12.060
84194W        W50977  34.145  29.505   0.273
84195W        W50978  18.304  38.796   0.942
84196W        W50979  42.333  11.579  12.889
84197W        W50980  10.643  16.661  12.053
84198W        W50981  10.739  27.722  12.368
84199W        W50982  37.214  36.308   4.590
84200W        W50983  36.614   3.699  13.375
84201W        W50984  12.152  26.882   4.032
84202W        W50985  15.012   7.949  13.144
84203W        W50986  27.136  15.357  12.504
84204W        W50987   7.138   9.274  13.330
84205W        W50988  33.579  34.919  12.130
84206W        W50989  42.785  33.037   3.401
84207W        W50990   9.406  21.254  10.999
84208W        W50991  30.657  37.901   3.393
84209W        W50992  39.981  16.347   4.138
84210W        W50993  36.996  30.695  12.797
84211W        W50994   3.887  32.369  11.023
84212W        W50995  20.150  18.726   4.325
84213W        W50996  24.627  32.476   1.662
84214W        W50997  29.352  11.824   0.684
84215W        W50998   8.626   7.456  12.464
84216W        W50999  38.931  30.596   4.571
84217W        W51000   6.512  44.275  14.422
84218W        W51001  43.055   0.483   0.711
84219W        W51002   6.498  43.816   0.513
84220W        W51003   8.466  28.631  10.828
84221W        W51004  19.673  18.544   5.076
84222W        W51005  29.338  29.904   1.818
84223W        W51006  12.346  40.743  12.528
84224W        W51007  14.674  17.665   0.870
84225W        W51008  25.987  21.620   4.092
84226W        W51009  29.443  34.386  12.444
84227W        W51010  19.211  27.046   2.673
84228W        W51011  32.973   9.386  14.954
84229W        W51012   9.512  24.681  13.965
84230W        W51013   5.229   2.896  13.745
84231W        W51014   5.559  11.847   2.812
84232W        W51015  31.809  31.917   4.036
84233W        W51016  22.497  20.012  13.886
84234W        W51017  10.248  38.742  11.665
84235W        W51018  42.265  32.025   4.675
84236W        W51019  43.970   9.402  12.074
84237W        W51020  14.919  23.180   1.691
84238W        W51021  30.219   0.652   0.804
84239W        W51022   2.428  23.412   3.437
84240W        W51023  28.977   7.232   2.760
84241W        W51024  25.727  32.276  13.055
84242W        W51025   1.215   4.678  10.652
84243W        W51026  22.479   6.880  13.883
84244W        W51027  24.617  31.596  11.878
84245W        W51028  13.869  24.493   1.481
84246W        W51029  39.826  28.110  12.928
84247W        W51030  39.051  17.133  13.493
84248W        W51031   5.621  11.434   4.217
84249W        W51032   2.514  29.450  12.940
84250W        W51033  13.287  21.070  12.664
84251W        W51034   3.683   8.589  13.992
84252W        W51035  13.079  28.224   3.646
84253W        W51036  36.793  27.097  12.501
84254W        W51037  15.361  18.889   0.867
84255W        W51038   7.848  36.849  13.327
84256W        W51039   5.750  19.238   4.117
84257W        W51040  17.725   5.388   0.472
84258W        W51041   3.449  14.800  14.799
84259W        W51042  24.527   9.322   2.657
84260W        W51043   2.000  19.214   0.162
84261W        W51044   0.290  22.743   2.414
84262W        W51045  27.034  21.913  13.889
84263W        W51046  30.129  18.591   1.684
84264W        W51047  15.224  36.552   2.523
84265W        W51048  44.951  19.586  13.932
84266W        W51049  28.015  13.541  13.860
84267W        W51050   0.994   8.866  13.019
84268W        W51051   0.824   6.361  11.003
84269W        W51052   0.801   2.347  14.371
84270W        W51053  14.148   5.957  10.830
84271W        W51054  26.189  38.784  13.085
84272W        W51055   6.377  42.818   4.660
84273W        W51056  18.510  40.521  10.532
84274W        W51057  38.488  40.365   2.812
84275W        W51058  34.233  15.190   0.366
84276W        W51059  31.560  28.752   1.715
84277W        W51060  19.723  28.600   3.230
84278W        W51061   5.008  21.427   0.660
84279W        W51062   5.944   0.819  14.285
84280W        W51063  17.468   7.404  13.394
84281W        W51064  35.040  19.183  14.832
84282W        W51065  17.680   2.901  10.672
84283W        W51066  11.357  21.255   0.692
84284W        W51067  23.194  15.459   4.101
84285W        W51068  15.127  23.373  14.797
84286W        W51069   0.810  34.859  10.711
84287W        W51070  44.800  29.492   4.124
84288W        W51071  36.022  24.788   1.234
84289W        W51072  21.296  15.712  11.471
84290W        W51073  43.459  15.436  13.827
84291W        W51074  17.564   7.957  11.421
84292W        W51075  13.759  26.713   2.824
84293W        W51076  33.064  22.862  12.016
84294W        W51077  38.500  21.502  12.467
84295W        W51078  12.211  40.944  12.076
84296W        W51079   1.941  40.435  11.936
84297W        W51080  37.513  24.666  12.397
84298W        W51081  40.820  12.308   4.821
84299W        W51082   5.978  31.379  11.568
84300W        W51083  40.417   0.352   1.141
84301W        W51084   8.774  42.406   4.745
84302W        W51085  24.437   0.739  14.407
84303W        W51086  11.543  27.557   1.462
84304W        W51087  41.128  13.732  14.042
84305W        W51088  15.606   8.439  14.465
84306W        W51089  25.026  17.075  12.845
84307W        W51090  21.643  44.871  11.093
84308W        W51091  40.051  38.426  11.056
84309W        W51092  40.902  33.722   1.317
84310W        W51093  16.826  40.114   3.220
84311W        W51094  23.426  24.299  10.630
84312W        W51095  14.391  37.989  13.366
84313W        W51096  35.415  35.050   3.191
84314W        W51097  38.530  38.905   4.329
84315W        W51098  32.367  36.319  13.179
84316W        W51099  17.000  44.572  11.897
84317W        W51100   8.516  17.768  14.893
84318W        W51101  43.475  27.181  11.273
84319W        W51102  25.421  15.816  10.295
84320W        W51103   6.177  35.925  13.323
84321W        W51104  30.515  14.697  11.567
84322W        W51105  23.239  30.942  13.836
84323W        W51106  16.173  40.308   4.003
84324W        W51107  22.072   1.388  12.462
84325W        W51108  28.163  41.049   1.113
84326W        W51109  10.191  31.655   3.535
84327W        W51110  19.472  41.079   2.720
84328W        W51111  25.973  22.281   2.658
84329W        W51112  10.105  33.310   0.935
84330W        W51113   5.803   5.358  11.168
84331W        W51114  23.901  21.303  14.522
84332W        W51115  25.173  24.446  14.363
84333W        W51116  36.558  41.605  13.377
84334W        W51117  36.324  31.542  11.980
84335W        W51118  11.674  14.340  11.885
84336W        W51119  24.657  31.265   1.271
84337W        W51120  39.261  23.132  14.304
84338W        W51121  30.450   0.688  12.345
84339W        W51122  30.502  32.606  11.699
84340W        W51123  29.516  41.564  13.472
84341W        W51124   2.954  29.709  13.499
84342W        W51125  11.972  15.343  13.427
84343W        W51126   4.048  38.626  14.676
84344W        W51127   4.360  30.767  14.865
84345W        W51128   0.297  33.354   0.542
84346W        W51129   1.501   2.930   3.727
84347W        W51130  10.099  12.705  10.401
84348W        W51131  14.528  41.356   0.779
84349W        W51132  12.310  37.206  12.344
84350W        W51133  31.661  11.270  12.902
84351W        W51134  42.743  37.029  13.269
84352W        W51135  20.010  44.889   1.449
84353W        W51136  23.521  13.736   2.096
84354W        W51137  29.510   2.736  13.824
84355W        W51138  41.844  35.796   2.674
84356W        W51139  18.737  24.681  11.625
84357W        W51140  35.334   3.157   0.834
84358W        W51141  27.148  36.323  12.043
84359W        W51142  36.817  25.056   1.431
84360W        W51143  42.565  39.077  14.958
84361W        W51144  25.994   1.974  14.533
84362W        W51145   2.443  44.937  10.957
84363W        W51146  44.908  23.237  11.702
84364W        W51147  17.810   1.946   0.784
84365W        W51148  11.412   2.748   1.266
84366W        W51149   7.055  42.022   4.641
84367W        W51150  24.163  43.382   4.693
84368W        W51151  19.175  36.788  13.100
84369W        W51152   5.639  37.918  14.893
84370W        W51153  40.544  14.894   1.703
84371W        W51154  36.073  21.652  13.600
84372W        W51155  11.650  26.502  10.746
84373W        W51156  32.467   9.853  10.706
84374W        W51157  41.296  43.392  11.173
84375W        W51158  33.016  27.724   3.586
84376W        W51159  27.552  37.325   3.056
84377W        W51160   0.857  26.926   3.289
84378W        W51161  31.145  27.581   1.350
84379W        W51162  31.866  13.766   2.900
84380W        W51163   0.890  40.226   0.832
84381W        W51164  35.986   4.437   0.820
84382W        W51165  21.218  41.920   1.877
84383W        W51166  23.409  43.137   9.853
84384W        W51167  31.858  25.678  11.516
84385W        W51168   9.874   9.236   0.497
84386W        W51169  40.912  43.893   1.879
84387W        W51170   8.357  16.282   4.193
84388W        W51171  39.186  10.694  13.634
84389W        W51172  28.310  13.969  13.879
84390W        W51173  12.259  10.904  14.707
84391W        W51174  18.268  36.449  11.370
84392W        W51175  21.402  31.931   4.050
84393W        W51176  43.419  15.626  10.583
84394W        W51177   4.494  16.302   4.674
84395W        W51178   9.913  12.531  14.318
84396W        W51179  32.019   4.876  14.571
84397W        W51180  18.567  40.278  11.871
84398W        W51181  36.401  19.283   1.742
84399W        W51182  36.085  40.756   4.508
84400W        W51183  43.969   7.435  13.932
84401W        W51184  31.823  24.999  10.228
84402W        W51185  40.494   6.913   5.011
84403W        W51186  19.102  44.816  14.377
84404W        W51187  35.474  31.506  14.846
84405W        W51188  14.898  25.089  11.159
84406W        W51189  23.997  43.302   4.170
84407W        W51190  35.435  10.732  14.733
84408W        W51191  40.938   9.181  12.564
84409W        W51192  28.025  26.626   0.501
84410W        W51193  31.647  14.742   0.363
84411W        W51194   4.173  29.072   2.266
84412W        W51195  35.565   6.250  13.981
84413W        W51196  22.215  37.610   4.107
84414W        W51197  11.325  13.118  12.976
84415W        W51198   0.294  14.233   0.911
84416W        W51199  40.553  44.333   0.352
84417W        W51200  12.990  19.205  11.428
84418W        W51201  21.042  25.604   1.947
84419W        W51202  28.084  14.011   4.649
84420W        W51203   5.754  29.593  14.227
84421W        W51204  20.267  40.981  12.472
84422W        W51205  24.080  42.800   4.243
84423W        W51206  32.872   1.940   3.856
84424W        W51207  13.775  29.971   3.180
84425W        W51208  32.779  14.027   4.561
84426W        W51209   8.275  24.550   1.336
84427W        W51210  28.631  13.840   2.853
84428W        W51211  40.925   1.053   1.336
84429W        W51212   6.734   3.715  14.362
84430W        W51213  20.229  26.116   2.272
84431W        W51214   5.419  15.081  13.040
84432W        W51215  16.733  41.031   3.179
84433W        W51216  18.071  36.020  11.599
84434W        W51217  26.639  25.961  13.539
84435W        W51218  39.578  17.215  13.560
84436W        W51219  44.527  25.937  11.173
84437W        W51220  22.080  32.889  10.702
84438W        W51221  11.049  39.887  13.675
84439W        W51222  15.912   5.220  10.720
84440W        W51223  12.186  25.984   2.779
84441W        W51224   0.483  14.671   3.185
84442W        W51225  12.685  26.245   3.641
84443W        W51226  34.843   2.297   1.228
84444W        W51227  25.909  36.046  10.770
84445W        W51228  32.361  35.551   1.272
84446W        W51229  29.527  24.779   1.032
84447W        W51230  36.956  23.055  10.615
84448W        W51231  14.994   7.551   3.337
84449W        W51232  22.532  23.566   0.909
84450W        W51233  15.771  44.850   3.551
84451W        W51234   0.867  19.578   4.708
84452W        W51235  15.890  18.444   0.243
84453W        W51236  13.349  30.383  13.394
84454W        W51237  13.113  34.391   0.826
84455W        W51238  11.096   8.406   2.788
84456W        W51239  13.684  16.985   0.769
84457W        W51240  37.566  39.922   3.583
84458W        W51241  17.563  44.346   0.111
84459W        W51242   8.677  29.518  12.171
84460W        W51243  24.591  43.964  12.928
84461W        W51244  17.261  18.978  12.964
84462W        W51245  44.822  43.543   3.305
84463W        W51246  10.151  33.847   4.152
84464W        W51247  13.666  23.262   0.885
84465W        W51248  10.113   5.569  10.564
84466W        W51249  38.795  34.934   1.930
84467W        W51250  19.800  38.363  14.032
84468W        W51251  38.868  21.766   4.082
84469W        W51252  28.914  38.613  14.467
84470W        W51253  16.282  28.064  14.066
84471W        W51254   0.572  15.356   9.803
84472W        W51255  19.280  28.234  10.587
84473W        W51256  18.576  15.070   0.113
84474W        W51257  10.707  25.360   3.529
84475W        W51258  18.288   1.703   0.747
84476W        W51259  33.894  12.601  13.819
84477W        W51260  27.471  36.346  11.457
84478W        W51261  11.894   4.203   4.141
84479W        W51262   7.340   5.315   3.182
84480W        W51263   5.794  36.492  10.576
84481W        W51264  13.891   5.276  14.288
84482W        W51265  24.154  30.000  12.016
84483W        W51266   1.334  20.107  11.669
84484W        W51267  33.122  11.845  12.475
84485W        W51268  19.179  40.737  13.028
84486W        W51269  10.920  44.533  14.561
84487W        W51270  18.761  20.103  11.174
84488W        W51271  12.609  39.094  10.414
84489W        W51272  35.175  20.222   1.793
84490W        W51273   8.907  35.719   1.234
84491W        W51274   6.356  32.722   0.375
84492W        W51275  44.082  28.539  13.383
84493W        W51276  37.782  41.449   1.131
84494W        W51277  35.865  10.695  10.559
84495W        W51278  19.250  42.863  14.432
84496W        W51279  17.722  27.963  11.630
84497W        W51280  15.316  14.239   2.974
84498W        W51281  14.087  14.692  13.811
84499W        W51282   3.997  41.327   2.857
84500W        W51283  30.065  35.633   0.216
84501W        W51284  20.070  37.268   2.320
84502W        W51285  13.217  23.188   1.175
84503W        W51286   8.982  23.441  13.982
84504W        W51287  15.356  14.073  12.401
84505W        W51288  12.245  16.652   3.388
84506W        W51289   3.513  17.638   1.277
84507W        W51290  44.736  43.878  11.447
84508W        W51291   3.869  39.301  10.759
84509W        W51292  28.117  24.630   1.630
84510W        W51293  34.308  36.570  13.814
84511W        W51294   4.850  35.745   3.170
84512W        W51295  43.288  10.061   2.270
84513W        W51296  15.544   7.719   0.776
84514W        W51297  13.716  32.112  14.491
84515W        W51298   3.932  29.540  13.873
84516W        W51299  20.305  23.915   2.418
84517W        W51300  44.660   7.702   2.180
84518W        W51301   3.378   1.052   3.387
84519W        W51302  33.302  39.454   4.200
84520W        W51303  16.295  22.795  12.555
84521W        W51304  42.067  35.892  14.759
84522W        W51305  40.793  10.915  11.108
84523W        W51306  39.148  30.469  13.966
84524W        W51307  32.264  18.924  10.923
84525W        W51308  22.130  35.107  14.511
84526W        W51309  14.811  23.762  12.427
84527W        W51310  35.473   5.989   3.300
84528W        W51311  35.874  23.366   2.193
84529W        W51312  24.974  12.674   0.651
84530W        W51313  35.099  27.991   2.427
84531W        W51314  41.736  33.420   4.277
84532W        W51315  18.186  35.924  13.461
84533W        W51316  34.414  14.571   2.302
84534W        W51317  21.840  13.367   1.946
84535W        W51318  29.433  39.939   5.908
84536W        W51319   0.757  20.225   3.187
84537W        W51320  15.659  26.216   2.254
84538W        W51321   3.706   6.843  12.431
84539W        W51322  14.991   2.759  13.953
84540W        W51323  26.500   9.541   2.167
84541W        W51324  26.526  17.154   0.558
84542W        W51325  31.617   8.838  12.885
84543W        W51326   9.307  21.693   1.790
84544W        W51327  23.714  12.251  11.940
84545W        W51328  11.295  15.212  14.018
84546W        W51329   0.334  19.971  14.012
84547W        W51330   6.737  23.468  13.591
84548W        W51331  23.423  14.265  12.107
84549W        W51332  35.926   2.726  10.715
84550W        W51333  43.000  20.284   1.244
84551W        W51334  25.784  13.738   2.788
84552W        W51335  21.673  22.745   0.267
84553W        W51336  32.504  16.985   2.683
84554W        W51337  41.258   0.242   1.221
84555W        W51338  26.288  41.893   0.979
84556W        W51339  36.106  23.745   5.089
84557W        W51340  34.964  13.707   0.458
84558W        W51341  40.821  15.260   3.293
84559W        W51342  14.501  37.528  13.183
84560W        W51343  11.518  13.355  14.449
84561W        W51344  41.038  35.626  14.782
84562W        W51345  42.403  12.365  11.948
84563W        W51346  38.453  40.550  12.178
84564W        W51347  40.923  30.097   2.284
84565W        W51348   7.694   3.854   2.500
84566W        W51349  26.765  10.372   4.115
84567W        W51350   1.468  43.423   3.985
84568W        W51351   3.573  34.803  12.824
84569W        W51352   4.904   7.650   2.504
84570W        W51353  36.137  44.523  14.979
84571W        W51354  17.482  34.578  12.866
84572W        W51355  33.123  16.873   0.395
84573W        W51356  40.813   8.113  11.530
84574W        W51357   3.903  12.640  14.984
84575W        W51358  19.743  26.441  10.369
84576W        W51359  19.300  37.240  14.825
84577W        W51360  31.595  31.421  11.546
84578W        W51361  21.228   5.739   2.859
84579W        W51362   6.122  37.552   3.696
84580W        W51363   0.522  25.952  12.322
84581W        W51364  33.943   9.594   2.044
84582W        W51365  24.651  13.112   2.929
84583W        W51366  37.102  41.821   2.644
84584W        W51367  16.576  11.871  13.995
84585W        W51368   1.904  27.271  11.187
84586W        W51369  27.000   1.437   3.516
84587W        W51370  42.503  13.880  12.897
84588W        W51371   9.788  42.472  13.999
84589W        W51372  25.730  35.523  10.691
84590W        W51373  10.389  18.761   0.977
84591W        W51374  25.896  28.477   0.818
84592W        W51375   8.712  32.890  13.159
84593W        W51376  30.982  25.095  13.454
84594W        W51377  19.696  32.187  14.027
84595W        W51378  12.392  11.085   5.090
84596W        W51379  17.722  10.830   0.713
84597W        W51380  19.201  35.290  13.064
84598W        W51381  38.772  43.828  14.316
84599W        W51382  41.724  36.523   3.226
84600W        W51383  32.575  32.807   2.228
84601W        W51384   3.904   8.621   0.408
84602W        W51385   3.253  23.635  14.294
84603W        W51386   4.412   8.836  10.448
84604W        W51387  42.201   1.992   2.598
84605W        W51388  43.897  16.024   3.245
84606W        W51389  15.695  39.961  13.676
84607W        W51390  35.659  24.807   4.896
84608W        W51391  26.945   7.478  11.455
84609W        W51392   3.196   5.457  14.539
84610W        W51393  20.618  35.398   0.436
84611W        W51394  44.508  18.099  12.124
84612W        W51395  30.380   1.136  13.200
84613W        W51396  24.045  16.580   4.904
84614W        W51397  30.872   5.115   3.916
84615W        W51398  19.831   5.436  10.080
84616W        W51399  33.853   0.332   1.331
84617W        W51400  15.961   0.560   1.692
84618W        W51401  42.939  27.482   4.601
84619W        W51402   0.727   6.762   0.881
84620W        W51403  10.167  17.273  10.587
84621W        W51404   6.720   4.422  10.616
84622W        W51405  19.035  12.809   4.259
84623W        W51406   9.856  30.174  12.861
84624W        W51407  29.412  27.100   1.800
84625W        W51408  38.343  43.449   4.564
84626W        W51409  39.018  14.347   4.956
84627W        W51410  14.060  41.200   2.745
84628W        W51411  15.852   8.109  14.870
84629W        W51412  20.003  12.808   2.829
84630W        W51413  22.071  39.421  11.750
84631W        W51414  40.866   9.557  10.368
84632W        W51415   8.671   4.892   3.654
84633W        W51416  27.887  22.774   1.784
84634W        W51417  23.687   2.425  13.558
84635W        W51418   4.338  40.025   3.153
84636W        W51419   6.202  13.682  11.049
84637W        W51420   6.535  37.946   0.736
84638W        W51421  40.612  39.825  14.901
84639W        W51422  15.734  21.756  14.977
84640W        W51423  24.087  17.346   3.107
84641W        W51424   4.416  24.750   2.792
84642W        W51425  27.666  36.078  13.914
84643W        W51426  27.229  29.059  13.902
84644W        W51427   4.643  18.912   4.140
84645W        W51428  14.080  26.994  12.985
84646W        W51429   4.141  42.888  11.745
84647W        W51430  36.792  25.719  11.171
84648W        W51431  24.413   7.902  14.909
84649W        W51432  18.496   6.159   5.038
84650W        W51433   8.048   0.703   5.047
84651W        W51434  15.337  28.426  12.115
84652W        W51435  36.073  22.709  11.438
84653W        W51436  13.082  40.055  12.818
84654W        W51437   1.449  34.530   1.299
84655W        W51438  31.922  26.091  13.033
84656W        W51439  24.772  35.574   0.287
84657W        W51440  29.424  37.285   0.703
84658W        W51441  11.290  25.904  12.359
84659W        W51442  33.547  15.225  14.816
84660W        W51443   6.186  22.464  14.533
84661W        W51444  24.583  38.952  12.184
84662W        W51445   8.037  32.480   1.763
84663W        W51446  38.965  23.766  14.862
84664W        W51447  36.409   2.305  10.698
84665W        W51448  37.855   3.440   2.241
84666W        W51449   6.567  32.417  14.001
84667W        W51450  27.634  40.336   3.147
84668W        W51451  29.633  29.430   2.860
84669W        W51452  29.417  16.779   0.693
84670W        W51453  20.611   1.703   0.550
84671W        W51454  39.545  19.068   3.213
84672W        W51455  10.013  24.599  13.884
84673W        W51456  24.684  33.814  13.113
84674W        W51457   7.364  30.579  14.405
84675W        W51458  19.782   7.620  12.454
84676W        W51459  13.743   7.521   2.803
84677W        W51460  39.340   6.211  11.990
84678W        W51461  17.725  11.188  10.561
84679W        W51462  36.325  40.556  13.720
84680W        W51463  32.175  16.135  13.082
84681W        W51464  38.535   2.328   4.268
84682W        W51465  21.996  41.576   1.774
84683W        W51466  31.032  18.612   4.952
84684W        W51467  25.375  32.814  12.491
84685W        W51468   6.784  22.242  11.147
84686W        W51469   0.521  10.393   4.623
84687W        W51470  23.686  32.556  11.609
84688W        W51471  10.932  28.198   1.670
84689W        W51472  15.687  31.746   0.285
84690W        W51473   6.293   0.007  13.585
84691W        W51474  23.835  28.536   4.814
84692W        W51475  26.877  24.689   4.555
84693W        W51476  42.320  29.463  12.663
84694W        W51477  28.347  43.053   4.337
84695W        W51478  41.750  28.389   1.057
84696W        W51479   2.396   9.634   2.595
84697W        W51480  38.762   3.282  13.835
84698W        W51481   5.681  44.978   2.809
84699W        W51482  42.241   7.702  12.918
84700W        W51483  31.882  34.794  10.728
84701W        W51484  26.919  16.868  12.592
84702W        W51485  23.184  29.130   1.170
84703W        W51486  37.642   3.459   4.553
84704W        W51487  36.804  31.404   0.192
84705W        W51488  42.558  29.548   2.805
84706W        W51489  34.903  29.668   1.763
84707W        W51490  15.970  40.899  12.525
84708W        W51491  30.205  41.899   2.120
84709W        W51492   5.028  35.384  12.555
84710W        W51493  36.136  41.061   4.080
84711W        W51494  24.697   0.574  11.173
84712W        W51495  11.573  21.591   3.518
84713W        W51496  41.959  32.944   0.444
84714W        W51497   3.774   9.278  13.498
84715W        W51498   1.026  40.105  14.011
84716W        W51499  11.358  17.587   1.265
84717W        W51500   0.346  43.181  11.818
84718W        W51501  31.607  42.908   1.326
84719W        W51502  23.912  41.477  10.861
84720W        W51503  17.257  12.605   4.674
84721W        W51504  20.506  38.814   3.827
84722W        W51505  11.733  32.118  14.950
84723W        W51506  44.914  14.608   2.714
84724W        W51507  15.497  16.380  13.257
84725W        W51508   8.318   5.868  11.451
84726W        W51509  22.095  20.125   1.919
84727W        W51510   6.799  13.453   4.914
84728W        W51511  20.115  43.767   3.576
84729W        W51512  38.433  24.329  10.959
84730W        W51513   9.363  14.347  10.896
84731W        W51514  12.957   0.270  14.826
84732W        W51515  17.713  35.611   4.930
84733W        W51516  11.702   8.209  12.125
84734W        W51517   6.410  10.664  12.065
84735W        W51518  44.467  24.167  11.977
84736W        W51519   0.317   7.401   0.582
84737W        W51520  12.777  14.613  12.637
84738W        W51521  13.261  27.313   3.215
84739W        W51522  42.912  29.517  10.396
84740W        W51523  25.682  10.193  13.482
84741W        W51524  13.750  10.870   4.126
84742W        W51525  31.669  29.897   0.357
84743W        W51526  41.288   4.457  14.241
84744W        W51527  43.611  13.043   4.748
84745W        W51528   7.787  41.858  12.047
84746W        W51529  17.735  16.369  12.639
84747W        W51530  28.919  38.585   5.042
84748W        W51531  14.662  16.532   2.314
84749W        W51532  42.116  23.154  14.449
84750W        W51533   3.397  34.596   4.864
84751W        W51534  21.023  41.571  10.593
84752W        W51535  29.611  38.457  14.688
84753W        W51536  44.307   3.471   3.630
84754W        W51537  34.550  34.499  11.110
84755W        W51538   9.328  28.679   0.008
84756W        W51539   4.706  38.409   1.773
84757W        W51540  14.352  11.202  12.536
84758W        W51541  13.847  26.045  12.258
84759W        W51542  27.207  22.114  11.958
84760W        W51543  37.877   4.283   2.710
84761W        W51544  41.798   8.445   2.335
84762W        W51545   0.442  27.194   2.113
84763W        W51546  23.531   8.384  13.440
84764W        W51547  19.100  26.004   2.762
84765W        W51548  26.021  14.852  11.607
84766W        W51549  18.801  10.839   2.776
84767W        W51550  35.521  18.122  14.405
84768W        W51551  13.839  23.606   3.678
84769W        W51552  12.269  13.448   1.341
84770W        W51553   8.304   8.392   3.148
84771W        W51554  18.356  20.410  11.925
84772W        W51555   2.057  34.567  10.423
84773W        W51556  14.531  16.327   3.149
84774W        W51557  22.135  32.527   2.405
84775W        W51558  29.670  35.533  12.012
84776W        W51559   8.845  19.375  11.510
84777W        W51560  28.458   6.705   4.892
84778W        W51561  17.730  39.344  11.624
84779W        W51562  15.219  30.859  12.492
84780W        W51563  20.951  32.382   5.004
84781W        W51564  22.722  36.683  12.135
84782W        W51565  26.267  17.933  12.928
84783W        W51566  37.108  24.200  13.365
84784W        W51567  26.857   0.207  13.281
84785W        W51568   8.110   6.163   1.929
84786W        W51569   1.712  29.168   2.805
84787W        W51570   9.326  44.261  11.470
84788W        W51571   2.522   5.562   2.410
84789W        W51572   4.775  15.603  14.050
84790W        W51573  31.229  27.986   1.695
84791W        W51574  16.265  15.092   3.945
84792W        W51575   7.718  39.802  11.441
84793W        W51576  16.241  26.561   0.780
84794W        W51577   1.136   9.284  12.576
84795W        W51578  21.216  22.609  13.106
84796W        W51579  32.124  14.775   3.137
84797W        W51580  12.285   4.166  11.162
84798W        W51581   6.834  31.869  12.293
84799W        W51582  34.846   4.812  11.538
84800W        W51583   3.103  16.140   1.939
84801W        W51584  41.338   5.704  10.261
84802W        W51585  14.034  20.453  12.255
84803W        W51586  29.892  24.602   2.847
84804W        W51587  12.308  13.188  13.086
84805W        W51588   5.244  28.957   0.758
84806W        W51589  11.332  37.385   1.818
84807W        W51590  34.391  29.181   3.716
84808W        W51591  14.748  43.261   3.295
84809W        W51592   8.062  14.406  10.248
84810W        W51593  30.895  14.036   0.892
84811W        W51594   3.122  39.971   2.388
84812W        W51595  33.518  22.509  12.672
84813W        W51596  29.736  38.391  10.661
84814W        W51597  43.038  23.249   1.337
84815W        W51598  37.714   0.456  12.311
84816W        W51599  10.685   0.543   4.262
84817W        W51600   7.162  44.886  12.063
84818W        W51601  28.006  15.861  12.362
84819W        W51602  42.044  24.842  12.063
84820W        W51603   8.415   8.018   0.415
84821W        W51604  38.429  33.448   3.566
84822W        W51605  22.703   5.465   1.275
84823W        W51606  22.120  42.366   4.382
84824W        W51607  14.722  13.809   2.917
84825W        W51608  16.397  27.077  11.671
84826W        W51609  12.654  43.711   0.322
84827W        W51610   9.822  17.209   3.217
84828W        W51611   1.361  17.706  13.481
84829W        W51612  38.857   3.799  14.817
84830W        W51613  23.166  18.856   3.851
84831W        W51614  17.159  10.099   0.915
84832W        W51615  33.941  28.049  13.490
84833W        W51616  30.002   7.923   4.598
84834W        W51617  12.297  25.723  10.808
84835W        W51618  44.761  34.588   2.406
84836W        W51619  27.522  17.536  14.323
84837W        W51620  36.555  14.971   4.431
84838W        W51621  18.817  22.649   2.156
84839W        W51622  18.682  37.604  12.852
84840W        W51623  23.191   3.893   0.256
84841W        W51624  25.719   4.464  13.372
84842W        W51625  40.673   9.683   1.760
84843W        W51626  21.440  14.206  14.556
84844W        W51627   9.585  33.410  13.782
84845W        W51628   1.772   4.291   3.900
84846W        W51629  39.565  38.475  13.833
84847W        W51630  43.306  33.140   2.515
84848W        W51631   5.297   1.965  10.500
84849W        W51632  11.346  10.730   0.432
84850W        W51633  34.871  39.334  11.497
84851W        W51634  25.951  40.297   3.557
84852W        W51635  28.177  26.939  11.588
84853W        W51636  29.611  27.429  14.077
84854W        W51637  29.982  36.499  12.939
84855W        W51638  15.582  10.199  14.403
84856W        W51639   5.900  41.608   2.248
84857W        W51640  11.464  12.600   2.641
84858W        W51641   5.474   0.989  14.121
84859W        W51642  11.214  20.233   0.299
84860W        W51643   9.822  27.068  11.850
84861W        W51644  18.266   5.851   2.390
84862W        W51645   9.682  33.598  11.613
84863W        W51646  19.624   3.087  11.118
84864W        W51647  30.687   6.677   4.682
84865W        W51648  44.205  20.780  12.030
84866W        W51649  24.147  29.928   2.798
84867W        W51650  21.494  34.236  11.766
84868W        W51651   6.247  39.285   1.651
84869W        W51652  43.574  15.119   1.332
84870W        W51653  24.481  29.530   2.713
84871W        W51654  18.990  31.319   0.059
84872W        W51655  22.886  44.366   4.565
84873W        W51656  28.513  18.211  11.041
84874W        W51657   2.549   3.466  10.214
84875W        W51658  25.607   8.966   5.416
84876W        W51659  26.164  18.172  11.045
84877W        W51660  35.770   3.427  14.946
84878W        W51661  31.830  41.425   1.207
84879W        W51662  20.636   0.727  11.668
84880W        W51663   1.317   5.502  12.437
84881W        W51664   7.862  23.783   0.238
84882W        W51665  25.685  27.795  13.450
84883W        W51666  21.650   0.165   4.227
84884W        W51667  41.007  26.231   0.400
84885W        W51668  43.762  31.876  13.448
84886W        W51669  12.006  23.098   1.116
84887W        W51670   5.031  38.906  13.336
84888W        W51671   2.159  42.413  11.203
84889W        W51672  20.750  22.577  13.279
84890W        W51673   7.851  26.832  11.174
84891W        W51674  30.011  33.960   1.438
84892W        W51675  42.061  43.544  14.050
84893W        W51676  16.919  11.843  11.260
84894W        W51677  21.142  39.918   3.170
84895W        W51678  19.705  32.016  14.987
84896W        W51679  14.876   1.460   0.719
84897W        W51680  22.661  24.465  13.868
84898W        W51681   9.707  14.013  10.695
84899W        W51682   0.342  26.936   4.013
84900W        W51683  27.144   9.249  14.925
84901W        W51684  15.887  20.054  13.811
84902W        W51685  33.815  23.188  13.093
84903W        W51686  35.529  26.380  13.601
84904W        W51687  24.243   1.854  12.386
84905W        W51688   8.255  42.581  11.904
84906W        W51689  20.465  44.521   2.186
84907W        W51690  31.394   5.668   0.516
84908W        W51691  10.636  44.374  11.150
84909W        W51692  23.072  21.657   2.237
84910W        W51693  33.428  13.837  11.921
84911W        W51694  13.293   3.138  12.591
84912W        W51695  18.650  33.837   0.016
84913W        W51696   6.732  26.357   3.680
84914W        W51697   3.427  24.563  13.912
84915W        W51698  29.620   0.383  11.059
84916W        W51699   2.463  25.612   1.209
84917W        W51700  11.762  38.809   0.105
84918W        W51701  20.111  29.389   3.276
84919W        W51702  29.343  22.057  13.840
84920W        W51703  25.100   3.636  10.411
84921W        W51704  16.272  21.596  14.094
84922W        W51705  25.766  26.059  11.429
84923W        W51706  28.977   8.030   4.624
84924W        W51707  18.278  23.631   0.269
84925W        W51708  36.859  11.616   0.228
84926W        W51709  35.485  24.708  10.579
84927W        W51710   6.801  38.362  14.423
84928W        W51711  13.974  34.850  11.924
84929W        W51712  17.517   6.486  11.576
84930W        W51713  17.684   3.254   4.553
84931W        W51714  31.451  44.058  14.940
84932W        W51715  23.541   3.926  14.395
84933W        W51716  12.834   4.095   1.469
84934W        W51717  27.610   2.249   0.721
84935W        W51718  39.920  32.832   1.768
84936W        W51719  29.091  31.461   1.938
84937W        W51720  40.006  31.186  11.569
84938W        W51721  32.402  31.970  13.413
84939W        W51722  25.570   3.831   1.445
84940W        W51723  21.155   6.887   4.184
84941W        W51724  26.968  25.775   0.412
84942W        W51725  30.680  21.821   0.136
84943W        W51726   9.592  34.071  14.467
84944W        W51727  38.475  10.167   4.110
84945W        W51728  21.642  24.466   3.294
84946W        W51729  32.997  40.954   1.738
84947W        W51730  38.340  39.982   0.924
84948W        W51731  29.503  14.028   4.725
84949W        W51732  30.895  37.196   0.911
84950W        W51733  24.835  33.055   4.830
84951W        W51734   7.997   6.569   4.640
84952W        W51735  11.580  26.942   2.433
84953W        W51736  11.578  13.679   0.450
84954W        W51737  37.339  42.725  10.149
84955W        W51738  28.970  21.234  14.296
84956W        W51739  37.399   1.338  14.858
84957W        W51740  27.554   4.748  13.998
84958W        W51741   8.447  31.123  14.010
84959W        W51742   3.769  16.539  13.017
84960W        W51743   1.146  24.582  12.611
84961W        W51744  18.873  22.101   3.594
84962W        W51745  39.331  31.100   4.527
84963W        W51746  37.486  11.741  11.999
84964W        W51747   5.835  11.145  12.769
84965W        W51748  28.708  37.968  14.590
84966W        W51749  44.146   3.959   3.731
84967W        W51750  30.496   8.415   3.229
84968W        W51751  36.838   2.752   4.238
84969W        W51752  28.411  17.154   2.487
84970W        W51753  21.360  38.541   3.028
84971W        W51754  29.340   8.821   4.586
84972W        W51755  40.474   1.285   2.417
84973W        W51756  34.787  38.487   0.583
84974W        W51757  29.682  21.448   1.522
84975W        W51758  41.617   6.393  13.654
84976W        W51759   4.136   1.805   1.702
84977W        W51760  14.684  27.729   0.314
84978W        W51761  14.798  25.243  12.635
84979W        W51762  34.188  23.913   0.040
84980W        W51763  33.964  26.849   4.157
84981W        W51764  33.087  34.463  10.674
84982W        W51765  16.293  32.300   0.840
84983W        W51766  33.148  21.243  12.987
84984W        W51767   7.177  11.327   1.879
84985W        W51768  28.269  42.825   3.411
84986W        W51769   9.614  24.214   1.371
84987W        W51770  40.198  37.594   3.290
84988W        W51771  42.150  13.548   1.877
84989W        W51772  17.794  19.246  14.794
84990W        W51773  25.817  34.541  11.520
84991W        W51774  28.106   6.261   0.245
84992W        W51775  27.145  16.159   2.544
84993W        W51776   7.885  31.952   0.045
84994W        W51777   7.429  21.423  11.637
84995W        W51778  30.521  34.220  11.593
84996W        W51779   3.392  33.971   2.728
84997W        W51780   3.084  28.572   2.682
84998W        W51781  42.520  33.919   4.861
84999W        W51782   8.249  39.158   2.671
85000W        W51783  17.651  38.473  10.524
85001W        W51784   7.821  33.694   0.454
85002W        W51785   9.751  31.947   3.594
85003W        W51786   1.672  42.118  11.151
85004W        W51787  20.733  32.880  11.966
85005W        W51788  30.097  26.521  12.834
85006W        W51789  20.666  26.427   0.806
85007W        W51790  12.660  41.302   2.441
85008W        W51791  24.211  21.239   0.854
85009W        W51792  36.735   3.184  10.693
85010W        W51793  32.821  11.816  11.590
85011W        W51794  37.460   5.864  11.676
85012W        W51795   1.076  41.803   2.716
85013W        W51796  37.643  25.585  11.598
85014W        W51797  36.999  15.845  14.409
85015W        W51798   4.468  42.510   1.242
85016W        W51799  37.649   8.789  12.545
85017W        W51800  19.189   0.388  10.679
85018W        W51801  41.113  18.133   0.322
85019W        W51802  37.053  13.598   3.288
85020W        W51803  34.415  26.486  13.072
85021W        W51804  10.074  26.271  12.054
85022W        W51805  22.316   9.829  10.690
85023W        W51806   2.926  21.684  13.764
85024W        W51807  14.078  23.460   0.355
85025W        W51808   6.919  33.636   2.937
85026W        W51809  25.162  22.156   0.771
85027W        W51810  29.987  33.008   0.005
85028W        W51811  31.621   0.801   1.039
85029W        W51812  36.151  11.624  11.271
85030W        W51813  20.558  32.371   1.173
85031W        W51814  23.462  14.981   3.829
85032W        W51815  33.600  22.135   0.353
85033W        W51816  12.599  17.823  14.876
85034W        W51817  15.990  30.540   0.860
85035W        W51818  38.772  17.577  13.441
85036W        W51819  18.899   7.338   4.542
85037W        W51820   7.437  22.064  10.637
85038W        W51821  25.966  15.173  14.387
85039W        W51822   0.448  15.653  14.994
85040W        W51823  44.951  37.105   0.231
85041W        W51824  12.111  10.217  12.979
85042W        W51825   5.484  19.498   3.670
85043W        W51826   3.766  21.018  10.977
85044W        W51827  34.419  15.261  14.803
85045W        W51828  33.086  39.896  11.424
85046W        W51829  34.553  42.518   3.775
85047W        W51830   0.262  32.966   2.272
85048W        W51831  32.941  38.157  11.019
85049W        W51832  16.668  30.513  14.920
85050W        W51833   2.371  12.178  11.062
85051W        W51834   9.143  19.039  12.348
85052W        W51835  32.424   7.542   0.389
85053W        W51836   4.010   4.676  14.713
85054W        W51837  31.103  14.751  10.948
85055W        W51838   0.464  14.370   3.632
85056W        W51839  25.494  30.424   1.843
85057W        W51840  21.000  40.252   0.064
85058W        W51841  19.097  44.862   3.339
85059W        W51842  33.785  15.813  12.481
85060W        W51843  10.664  16.795   1.437
85061W        W51844  34.876  11.335   3.180
85062W        W51845  23.996  30.956   1.529
85063W        W51846  26.580  42.736   2.111
85064W        W51847  10.458  25.709   3.212
85065W        W51848  33.365   1.932  12.217
85066W        W51849   0.428  20.955   4.149
85067W        W51850   3.211  25.665  12.005
85068W        W51851  32.910   9.819  10.438
85069W        W51852   0.702   9.301   0.793
85070W        W51853   0.180  38.464   0.566
85071W        W51854  44.726  16.709  10.939
85072W        W51855   1.014  16.055   3.323
85073W        W51856   6.748  13.230   2.911
85074W        W51857  13.032  12.185  12.353
85075W        W51858  31.997  29.572  13.982
85076W        W51859  40.396  38.090  13.776
85077W        W51860  15.587  34.356   2.454
85078W        W51861  28.191  20.338  10.667
85079W        W51862  43.568  11.142  11.638
85080W        W51863  16.171  38.566  11.254
85081W        W51864  13.005   0.554  13.981
85082W        W51865  25.983   6.173   4.452
85083W        W51866  25.190  13.135  10.642
85084W        W51867  27.666   0.012   4.343
85085W        W51868  36.784  43.550   0.939
85086W        W51869  23.536  20.747   4.629
85087W        W51870  41.303  18.829  11.555
85088W        W51871  17.802  18.990   4.085
85089W        W51872  19.527  42.825  10.875
85090W        W51873  38.611  43.454  11.180
85091W        W51874   3.520  33.466   2.809
85092W        W51875   7.317  16.049  13.155
85093W        W51876  15.553  15.958   0.342
85094W        W51877  20.096  32.094   4.786
85095W        W51878   6.863  35.950  13.878
85096W        W51879  38.739   4.707  10.182
85097W        W51880   5.345   5.939  12.800
85098W        W51881  35.068  44.179  12.423
85099W        W51882  19.059  37.547  11.044
85100W        W51883   5.763  18.828   4.829
85101W        W51884   5.456  21.259   1.857
85102W        W51885   7.676  44.103  12.540
85103W        W51886   4.736  21.652  10.725
85104W        W51887  43.606  34.545   4.054
85105W        W51888  20.103   6.380   3.643
85106W        W51889  14.448  37.625   4.257
85107W        W51890  41.258  24.498   0.807
85108W        W51891  13.258  21.088  11.190
85109W        W51892  27.154  30.883   0.731
85110W        W51893  14.730   3.868   0.181
85111W        W51894  30.169   2.768   0.916
85112W        W51895  29.388   8.876   0.993
85113W        W51896  43.545   5.387  10.150
85114W        W51897   4.083  30.890   2.908
85115W        W51898   4.702  30.913  11.532
85116W        W51899  16.112  28.728  12.270
85117W        W51900   1.389  38.552  13.129
85118W        W51901  41.409   5.386   4.011
85119W        W51902  31.069  24.667   1.634
85120W        W51903   8.061  38.389   3.984
85121W        W51904  30.532  37.858  14.043
85122W        W51905  23.913  28.865   3.509
85123W        W51906   0.861  28.039  12.604
85124W        W51907  22.121  12.948  14.403
85125W        W51908  15.603  30.049  12.440
85126W        W51909  18.688  31.740  12.931
85127W        W51910  22.915  23.049  13.592
85128W        W51911  30.471  16.967  13.901
85129W        W51912  40.130  35.592   3.656
85130W        W51913  36.617  28.069  12.698
85131W        W51914  37.182   7.707   4.274
85132W        W51915   1.917  26.590  10.662
85133W        W51916  36.108  21.284   3.197
85134W        W51917  12.962  15.289   4.336
85135W        W51918  42.106  25.587  11.457
85136W        W51919   7.551  16.449  12.549
85137W        W51920  44.345  11.297  12.054
85138W        W51921  19.175  20.131  12.833
85139W        W51922  10.193   1.648   0.506
85140W        W51923  38.840  33.868  11.308
85141W        W51924  44.335  35.800  13.431
85142W        W51925  27.526  39.133   4.110
85143W        W51926  41.043   7.977   3.304
85144W        W51927  10.709  31.663  13.987
85145W        W51928  38.507  29.641   1.350
85146W        W51929  23.057  31.026   2.734
85147W        W51930  12.715  36.825  14.961
85148W        W51931  21.464  40.611   3.662
85149W        W51932  21.676  13.414   3.550
85150W        W51933  29.890  34.940  13.895
85151W        W51934  10.902  19.519  12.570
85152W        W51935  39.554  41.796  13.060
85153W        W51936  31.126  29.177  12.650
85154W        W51937  39.565   6.132   4.805
85155W        W51938  25.463  15.411  10.658
85156W        W51939  28.390  13.352  12.815
85157W        W51940  42.325  19.384   0.402
85158W        W51941  42.965   2.537  13.387
85159W        W51942  29.860  26.278  11.936
85160W        W51943  34.426  25.988   4.762
85161W        W51944  42.240  10.171  13.167
85162W        W51945  13.853  32.496   4.592
85163W        W51946  33.491  32.810  12.769
85164W        W51947   2.972   6.974   4.222
85165W        W51948   7.859  31.842   3.286
85166W        W51949  38.461   1.416  11.605
85167W        W51950  19.966  38.104   0.751
85168W        W51951  16.381  34.850  12.418
85169W        W51952  17.781   0.518   2.285
85170W        W51953   3.859  19.565   0.872
85171W        W51954  43.012  11.277   3.073
85172W        W51955   9.822  33.874  13.802
85173W        W51956  22.159  21.953   4.040
85174W        W51957   0.802  44.927   2.225
85175W        W51958  43.422  42.974  10.785
85176W        W51959  10.432  15.064  14.606
85177W        W51960  44.511  12.317   2.854
85178W        W51961  44.162   4.501  11.980
85179W        W51962  22.260  36.832   4.787
85180W        W51963  40.487  21.742  14.293
85181W        W51964  38.170  11.917   3.185
85182W        W51965  35.844  33.199   1.812
85183W        W51966   7.862   8.405   3.437
85184W        W51967   2.216  44.264  12.652
85185W        W51968  29.500  28.405  11.162
85186W        W51969  37.833  25.927   4.781
85187W        W51970  15.010  21.454  13.554
85188W        W51971  41.340  29.147   3.227
85189W        W51972  18.553  19.600   2.227
85190W        W51973  26.160  35.112   4.689
85191W        W51974  11.908  39.434   1.740
85192W        W51975  11.035  42.490   1.375
85193W        W51976  27.332  25.115   1.342
85194W        W51977  30.972   1.489   3.056
85195W        W51978   0.238  10.175   2.252
85196W        W51979  22.655  37.302   4.210
85197W        W51980  30.582   8.293   0.487
85198W        W51981  43.328  25.585   1.619
85199W        W51982  29.717  25.997   3.760
85200W        W51983  38.617  35.867   1.760
85201W        W51984   9.648  10.190  12.834
85202W        W51985  18.965  31.123   4.739
85203W        W51986  34.695  20.985   1.861
85204W        W51987   2.950  40.874   2.253
85205W        W51988  24.663  13.653  13.544
85206W        W51989  43.982  35.026  11.641
85207W        W51990   3.305  39.247  14.338
85208W        W51991  34.082  27.607   0.280
85209W        W51992  43.061   7.167   4.039
85210W        W51993   7.770  39.963   3.600
85211W        W51994  19.804  13.854  14.968
85212W        W51995  37.584   3.241   1.387
85213W        W51996  36.919   7.898   2.878
85214W        W51997  26.669  41.366   2.184
85215W        W51998  14.763   7.467  14.863
85216W        W51999  38.056  36.945  14.566
85217W        W52000  36.111  40.849   2.668
85218W        W52001  43.938   0.277  11.547
85219W        W52002   9.472  11.804   2.802
85220W        W52003  39.347   3.824  11.651
85221W        W52004  17.813   9.847  10.805
85222W        W52005  20.582   5.526   0.313
85223W        W52006  18.085   6.749  13.580
85224W        W52007  43.506   4.075   4.609
85225W        W52008  43.777   4.003   0.313
85226W        W52009  25.697   0.282  12.525
85227W        W52010  33.960  43.878  11.092
85228W        W52011  24.182  35.011  13.270
85229W        W52012  37.031  35.156   4.183
85230W        W52013  32.017   6.652   2.916
85231W        W52014  43.402  37.066  11.593
85232W        W52015  13.616  41.721   2.306
85233W        W52016  30.605   0.455   3.149
85234W        W52017  29.952   5.341   0.417
85235W        W52018  31.713  42.085  13.822
85236W        W52019  27.366  11.597  10.517
85237W        W52020  24.014  13.815   2.825
85238W        W52021  34.582   8.759   0.028
85239W        W52022  11.258  25.062  14.285
85240W        W52023  26.692  24.968   0.751
85241W        W52024   9.500  19.497  12.316
85242W        W52025  34.415  24.634  12.463
85243W        W52026  35.441   4.807  11.559
85244W        W52027   7.753  40.193  13.282
85245W        W52028  24.127  23.016  12.925
85246W        W52029  36.829  40.664  13.780
85247W        W52030  17.110  36.109  12.480
85248W        W52031  44.719  26.149  12.033
85249W        W52032  25.104  14.639  14.748
85250W        W52033   6.207  35.473  13.583
85251W        W52034  29.874  26.639   3.780
85252W        W52035  23.223  19.279  12.500
85253W        W52036  23.649  26.911  14.760
85254W        W52037  10.125  32.183  11.120
85255W        W52038  19.821  10.360  14.993
85256W        W52039  23.230  30.214  14.460
85257W        W52040  25.312  31.047   3.227
85258W        W52041  44.418   3.156  11.642
85259W        W52042  32.488   6.665  12.566
85260W        W52043  26.622  28.398  12.116
85261W        W52044  44.445   0.858   4.660
85262W        W52045  25.550   3.437   0.132
85263W        W52046  32.433   0.187  13.542
85264W        W52047  35.237   4.988  10.716
85265W        W52048   2.875  29.429  14.963
85266W        W52049  43.892  29.863   1.429
85267W        W52050  38.143  44.032   1.943
85268W        W52051  36.367  11.600   3.821
85269W        W52052  15.859  33.945  12.310
85270W        W52053  35.400  31.341  14.364
85271W        W52054   2.214  11.187  12.981
85272W        W52055  43.092   9.297  11.657
85273W        W52056   5.300  27.897   0.780
85274W        W52057  40.528   2.832   3.762
85275W        W52058  30.244   4.589  12.725
85276W        W52059  36.847  29.123  13.828
85277W        W52060  42.374  11.415  14.244
85278W        W52061  10.619   9.354  10.685
85279W        W52062  30.631  28.761  14.609
85280W        W52063  27.859   9.223   2.906
85281W        W52064  14.309   0.722   4.179
85282W        W52065  32.198   3.457  13.026
85283W        W52066  20.012   8.955   2.626
85284W        W52067  37.553  19.297  10.454
85285W        W52068  16.263   4.918   4.266
85286W        W52069  27.976   4.368  10.283
85287W        W52070  24.407  37.636   4.072
85288W        W52071   0.195  30.964   3.154
85289W        W52072  11.289  36.427  13.000
85290W        W52073  33.492   7.505  12.116
85291W        W52074  36.269  21.176  12.514
85292W        W52075  29.113  34.596  12.114
85293W        W52076   9.442  22.490  13.869
85294W        W52077  15.572   6.695   4.329
85295W        W52078  42.434  37.969   0.428
85296W        W52079  22.021  33.919   2.574
85297W        W52080  30.125   1.051   2.872
85298W        W52081  44.388  14.667   1.853
85299W        W52082  42.978  19.102  14.085
85300W        W52083  27.623  32.844   1.732
85301W        W52084   8.649   5.245  14.068
85302W        W52085   7.426   1.240  11.529
85303W        W52086  30.742  33.130   3.632
85304W        W52087  31.581  21.264  11.588
85305W        W52088  34.312  31.943   1.148
85306W        W52089  43.150   6.727  13.016
85307W        W52090  36.215  35.133  12.472
85308W        W52091  11.400  27.244   2.825
85309W        W52092  20.155   0.756  12.839
85310W        W52093  20.970  27.111   1.331
85311W        W52094   0.982   3.423  12.592
85312W        W52095  12.902   8.180  10.020
85313W        W52096  40.425  11.155  11.365
85314W        W52097  29.512   5.603   0.370
85315W        W52098  40.447  12.101   3.497
85316W        W52099   8.724  14.855  11.881
85317W        W52100  43.686  33.800   3.740
85318W        W52101  10.256  41.879   2.090
85319W        W52102  23.775  21.703  13.056
85320W        W52103  39.870  15.548   2.648
85321W        W52104  12.030   9.149  12.099
85322W        W52105   7.937  26.303  14.421
85323W        W52106  30.085   3.283   0.858
85324W        W52107  38.892  12.690  13.414
85325W        W52108  14.872  16.328   3.543
85326W        W52109  40.440   6.396   4.255
85327W        W52110  24.739   3.735   5.041
85328W        W52111  24.565  14.605  12.625
85329W        W52112   0.968   3.750  10.788
85330W        W52113  11.102   9.779   5.042
85331W        W52114  41.460  12.541   9.938
85332W        W52115  14.257  25.405  14.248
85333W        W52116  29.400  32.670  12.959
85334W        W52117   4.419  37.813  14.370
85335W        W52118   5.827  12.800  10.549
85336W        W52119  12.888  43.239   4.361
85337W        W52120   0.533  33.727  10.379
85338W        W52121  10.437   5.020   2.444
85339W        W52122  34.403   1.958   4.179
85340W        W52123   2.689  10.411  11.160
85341W        W52124  20.663   3.236  12.889
85342W        W52125  21.522  10.207  14.778
85343W        W52126  16.151  35.996   1.389
85344W        W52127  10.092  27.118   4.599
85345W        W52128  17.634   7.303   2.888
85346W        W52129   2.851  38.085   3.800
85347W        W52130  28.945  37.101  10.710
85348W        W52131  10.367  23.998   4.096
85349W        W52132  13.801  16.681  11.241
85350W        W52133  18.752  16.604  14.867
85351W        W52134  44.642  21.430  13.460
85352W        W52135   0.390   6.415   0.200
85353W        W52136   4.785  36.499   4.987
85354W        W52137  42.281  32.865   3.398
85355W        W52138  14.728   9.145  12.569
85356W        W52139  27.092  27.739  12.416
85357W        W52140   2.933  27.434   4.101
85358W        W52141  41.543  37.339  12.849
85359W        W52142  42.083  35.516  14.077
85360W        W52143  23.706  44.982  11.568
85361W        W52144  21.569  35.913   0.237
85362W        W52145  34.665  22.304   2.350
85363W        W52146  24.267  16.012  12.878
85364W        W52147  32.513  17.336  13.385
85365W        W52148  19.588  18.760  13.933
85366W        W52149  31.508  36.044   5.005
85367W        W52150  38.417  29.762   3.029
85368W        W52151   9.666   8.446  13.974
85369W        W52152  13.909   4.960   3.606
85370W        W52153  42.158  11.653   4.174
85371W        W52154  40.871  34.443  14.743
85372W        W52155  22.249  26.563  12.454
85373W        W52156   5.929  34.372  14.243
85374W        W52157   5.444  10.823   0.757
85375W        W52158   0.275  18.624  13.770
85376W        W52159   9.813  28.859  14.987
85377W        W52160  41.034   1.334   4.070
85378W        W52161  34.046   8.436  10.638
85379W        W52162  27.612  38.122   0.684
85380W        W52163  35.332  30.561  13.037
85381W        W52164  12.676  33.951   2.374
85382W        W52165   9.572  43.635  12.963
85383W        W52166  15.681  27.328   0.948
85384W        W52167  21.048  41.880   1.385
85385W        W52168  23.638  17.669   2.842
85386W        W52169  22.274  40.618   2.026
85387W        W52170  13.060  14.530  10.768
85388W        W52171  14.750  35.076  11.639
85389W        W52172   8.396  37.615  10.253
85390W        W52173  36.271   6.231  14.691
85391W        W52174  16.743  40.259  12.321
85392W        W52175  33.088  27.676   0.338
85393W        W52176  33.696  26.678  14.972
85394W        W52177   6.352  14.401   2.419
85395W        W52178  10.620   5.967   3.737
85396W        W52179  30.884   6.736   1.760
85397W        W52180  18.189  31.512   4.957
85398W        W52181  19.274  38.177   2.125
85399W        W52182  29.539  22.785   1.002
85400W        W52183  40.368  39.591   0.388
85401W        W52184  19.426  12.139  14.409
85402W        W52185  31.696  43.023  13.812
85403W        W52186  10.113  31.939  14.410
85404W        W52187  41.039   6.543   3.199
85405W        W52188  32.929   9.450  13.811
85406W        W52189   6.143  23.542   3.350
85407W        W52190   7.829   8.871  10.955
85408W        W52191  14.386  31.667   0.897
85409W        W52192  41.282  36.312   0.302
85410W        W52193  36.577  24.115  13.999
85411W        W52194  15.103  39.942   0.610
85412W        W52195  26.650   9.746  10.722
85413W        W52196  30.750  27.274   0.930
85414W        W52197   5.636  38.118  11.418
85415W        W52198  26.466  12.800  12.402
85416W        W52199  28.408  27.436  12.493
85417W        W52200  44.276   5.254   3.566
85418W        W52201  22.557  40.397  14.474
85419W        W52202  28.370  26.658  13.495
85420W        W52203  16.103  37.916  12.825
85421W        W52204  13.001  41.104   1.655
85422W        W52205  18.690  38.233   2.463
85423W        W52206  42.506   3.930  13.877
85424W        W52207  41.401  35.654  11.123
85425W        W52208  28.349  28.043  14.035
85426W        W52209   1.889  44.378  14.379
85427W        W52210   5.629   6.423  14.839
85428W        W52211  37.037  20.142  11.245
85429W        W52212  14.338  23.532   4.633
85430W        W52213  24.666   8.173  10.891
85431W        W52214   3.204  41.465   1.080
85432W        W52215  18.703  42.857   0.001
85433W        W52216   5.363   7.903   1.236
85434W        W52217   8.658  40.267  10.789
85435W        W52218  19.170  30.810   2.950
85436W        W52219  44.428   0.375   1.466
85437W        W52220  20.235  40.011  14.378
85438W        W52221  16.192  30.840   3.307
85439W        W52222   0.809   9.557  13.522
85440W        W52223  37.309   2.971   1.739
85441W        W52224  36.170   7.943   4.987
85442W        W52225  43.557  14.093   3.566
85443W        W52226  26.122  10.631   0.838
85444W        W52227  44.466  23.669  13.873
85445W        W52228  10.848  35.107  14.863
85446W        W52229  23.524  13.451  14.867
85447W        W52230  26.123  28.561  12.775
85448W        W52231  22.409  22.445  13.794
85449W        W52232  11.936  23.506  14.805
85450W        W52233  21.174  29.905  14.820
85451W        W52234  30.350   4.673   0.955
85452W        W52235  22.254  44.433  14.867
85453W        W52236  13.949  43.975   4.185
85454W        W52237  26.055  10.585   4.620
85455W        W52238  24.935  42.024   0.290
85456W        W52239  23.906  18.608  10.844
85457W        W52240   8.877  33.818  12.826
85458W        W52241  24.683  21.994   0.804
85459W        W52242  31.035  18.826  14.247
85460W        W52243   2.376  38.499   3.234
85461W        W52244   5.612   3.250   0.268
85462W        W52245  34.532  37.030   0.844
85463W        W52246  17.162  25.987  10.546
85464W        W52247  16.983  42.443  11.558
85465W        W52248  16.247   5.939  13.966
85466W        W52249   2.389  12.094   0.208
85467W        W52250  34.528  35.669  13.948
85468W        W52251   8.427  37.361  12.541
85469W        W52252  21.031  43.315  13.392
85470W        W52253  44.583  33.049  11.169
85471W        W52254  17.225   4.282  13.990
85472W        W52255  11.623   3.291  14.782
85473W        W52256   7.393  43.299  12.777
85474W        W52257  43.453  38.091   2.727
85475W        W52258  18.443  44.781  11.620
85476W        W52259  44.408   0.191  13.214
85477W        W52260   1.333  43.901   4.188
85478W        W52261  13.686   9.704   4.851
85479W        W52262  24.739  31.418  13.274
85480W        W52263  44.011  42.006   3.726
85481W        W52264   9.683   6.062   2.600
85482W        W52265  34.743  42.051  12.531
85483W        W52266  33.987  16.564   2.644
85484W        W52267  30.411  26.072   4.151
85485W        W52268   8.766  24.151   2.254
85486W        W52269   4.718  11.782   4.750
85487W        W52270  19.074  11.989   0.050
85488W        W52271   5.722  13.864   2.784
85489W        W52272  30.147  37.901  13.396
85490W        W52273  37.482  27.950   0.883
85491W        W52274   1.991   2.453   1.215
85492W        W52275  17.191  35.358  11.466
85493W        W52276  25.591  25.505   3.195
85494W        W52277  39.426   7.187   2.690
85495W        W52278  44.751  44.893   3.092
85496W        W52279  15.276   1.395   4.576
85497W        W52280  44.333  43.977   2.133
85498W        W52281  13.398   3.958   4.616
85499W        W52282  35.602  14.219  12.394
85500W        W52283  36.636  11.110  14.313
85501W        W52284  39.903  16.852  14.339
85502W        W52285  40.433  27.465  11.926
85503W        W52286  13.367  13.834   3.155
85504W        W52287   4.629  38.875  11.007
85505W        W52288  22.675   5.329   4.408
85506W        W52289  18.005  41.850   2.365
85507W        W52290  40.033   3.223   1.065
85508W        W52291   2.416  29.710   2.301
85509W        W52292  40.995  35.619   4.741
85510W        W52293  38.259  27.600   0.962
85511W        W52294  15.651  39.934  11.766
85512W        W52295  10.045  38.876  13.839
85513W        W52296  29.624  18.320   1.513
85514W        W52297  24.312   4.081   5.162
85515W        W52298  42.294  20.801  12.034
85516W        W52299  24.725  13.860   1.245
85517W        W52300   9.228  30.297   4.138
85518W        W52301  37.275   2.455  10.705
85519W        W52302   3.739  31.239   2.557
85520W        W52303  11.206  10.999   4.364
85521W        W52304  30.419  17.385  11.887
85522W        W52305  32.625  23.579  11.747
85523W        W52306  31.539  23.992  13.897
85524W        W52307   5.554  41.716  11.194
85525W        W52308  16.186  24.250  11.042
85526W        W52309  30.888   2.033  12.501
85527W        W52310  20.732   2.900  12.093
85528W        W52311  38.032   4.111   4.511
85529W        W52312  33.063  38.231  11.962
85530W        W52313   6.887   6.855   1.715
85531W        W52314   4.307  17.246  13.279
85532W        W52315  22.793  17.648   3.333
85533W        W52316  44.963  41.530   4.074
85534W        W52317  39.575  29.959  10.542
85535W        W52318  37.637  29.141  11.502
85536W        W52319  13.863  17.604  11.865
85537W        W52320  19.598  41.999   0.400
85538W        W52321  20.223  20.245  14.366
85539W        W52322  25.598  44.779  12.564
85540W        W52323   1.950  26.150  13.918
85541W        W52324  36.064  35.097  10.755
85542W        W52325  44.188   2.446   2.788
85543W        W52326  23.894  38.654  10.282
85544W        W52327  41.806  26.571  14.421
85545W        W52328  19.089  31.091   1.389
85546W        W52329  41.955  20.117  14.460
85547W        W52330   8.352  39.080  14.379
85548W        W52331  19.323  13.851   3.699
85549W        W52332  32.590  21.665  12.503
85550W        W52333  22.763  34.310  13.960
85551W        W52334  35.756  20.099   3.889
85552W        W52335   1.076   2.932   2.962
85553W        W52336  31.583  28.860   0.333
85554W        W52337  38.928  35.145  12.680
85555W        W52338  15.102   2.820  14.584
85556W        W52339  31.934  35.863   4.726
85557W        W52340  30.387  30.879   3.902
85558W        W52341   3.935  27.433  13.111
85559W        W52342  21.634  30.491   2.918
85560W        W52343  30.947  11.813   4.563
85561W        W52344  38.493  20.107  12.437
85562W        W52345  30.576   7.248  14.513
85563W        W52346  20.651  19.145  14.380
85564W        W52347  29.864  16.947   0.434
85565W        W52348  13.267  15.237  14.784
85566W        W52349  32.879  17.351   0.534
85567W        W52350  40.669  35.538   2.886
85568W        W52351  19.266  15.812   3.236
85569W        W52352  34.733   8.984   3.303
85570W        W52353  14.887  35.386   1.776
85571W        W52354   8.376  38.584   1.359
85572W        W52355   2.799  20.779   2.902
85573W        W52356  24.673  17.407  14.545
85574W        W52357  30.770  21.717  10.720
85575W        W52358  15.064  34.974  11.227
85576W        W52359  29.023  12.317  10.887
85577W        W52360  28.084  28.142   1.323
85578W        W52361  10.963  10.107   0.472
85579W        W52362  44.841   9.287   4.509
85580W        W52363  40.017  20.425  11.718
85581W        W52364  26.401  43.014  10.093
85582W        W52365  39.985  34.465  12.394
85583W        W52366   9.719   2.199  10.712
85584W        W52367  39.063  29.246   3.342
85585W        W52368  37.862  39.802  14.258
85586W        W52369  12.259  10.102   3.396
85587W        W52370  25.242  27.434   3.097
85588W        W52371   4.821  34.527  14.056
85589W        W52372  11.727  22.201  10.446
85590W        W52373  44.290  19.712  12.072
85591W        W52374  31.427  43.436  12.062
85592W        W52375  39.459  44.423   2.763
85593W        W52376   6.659   3.658  10.365
85594W        W52377  20.943   6.675   0.215
85595W        W52378  25.402   5.399  13.083
85596W        W52379  30.676  24.900   3.231
85597W        W52380  38.261  10.350   2.880
85598W        W52381  12.835  39.018  13.486
85599W        W52382  23.098   8.615  13.607
85600W        W52383  18.069  18.303  12.729
85601W        W52384  36.135   1.471   0.348
85602W        W52385  18.326  42.392  13.996
85603W        W52386  19.424  29.064   4.653
85604W        W52387   7.675  43.706   4.149
85605W        W52388   1.501  43.958  10.400
85606W        W52389  12.334  37.966   3.604
85607W        W52390  14.228  28.631   4.496
85608W        W52391  34.442  13.922  12.922
85609W        W52392  42.695  14.060  13.945
85610W        W52393   2.291   5.899   3.326
85611W        W52394  10.396  24.539   4.793
85612W        W52395  38.621  31.284  13.259
85613W        W52396  13.844  10.233   3.060
85614W        W52397  13.740   0.325   2.374
85615W        W52398  10.806   7.939  12.798
85616W        W52399   1.576  26.275   0.555
85617W        W52400  41.440  34.747   4.162
85618W        W52401  33.523  31.336   4.928
85619W        W52402  19.506  25.882  14.646
85620W        W52403   2.523   9.412  13.728
85621W        W52404  12.291  13.669  14.765
85622W        W52405  18.717  19.340   4.211
85623W        W52406  32.059  30.590   5.044
85624W        W52407  28.054  23.062  12.162
85625W        W52408   6.695  28.112  11.932
85626W        W52409   4.502  25.172  14.077
85627W        W52410   1.502  23.533   3.255
85628W        W52411  33.956   2.355  10.973
85629W        W52412   2.182   8.640   4.497
85630W        W52413  27.939  29.855   1.810
85631W        W52414  31.894   0.322  14.766
85632W        W52415  36.299  16.814  11.994
85633W        W52416  43.797   4.670  12.830
85634W        W52417   5.273   6.879   0.829
85635W        W52418  15.059  26.911   4.599
85636W        W52419   4.237  13.442   2.834
85637W        W52420   1.145   2.986  11.429
85638W        W52421  16.382  43.472   2.883
85639W        W52422   4.158  43.560   2.623
85640W        W52423  16.049  34.966   1.988
85641W        W52424  10.243  44.814   0.018
85642W        W52425  13.008  12.939  12.667
85643W        W52426  27.986  40.326  12.945
85644W        W52427   4.902   4.413   3.148
85645W        W52428  15.299   0.931   2.750
85646W        W52429  30.471  22.072  10.464
85647W        W52430  17.394  16.246   4.576
85648W        W52431   7.434   2.854  12.125
85649W        W52432  16.473  34.830   4.485
85650W        W52433  15.173  28.092  10.958
85651W        W52434   4.387  36.876   4.993
85652W        W52435  42.052  19.362  13.009
85653W        W52436  31.638   4.426  10.498
85654W        W52437  16.702  26.484   5.004
85655W        W52438  23.809   8.957   1.774
85656W        W52439  13.905  39.366  13.909
85657W        W52440  14.822   9.805   2.185
85658W        W52441  35.410  35.102   0.224
85659W        W52442  12.121  30.902  11.000
85660W        W52443  43.054  23.214   2.234
85661W        W52444   3.083   7.161  11.895
85662W        W52445  14.876  40.455   1.040
85663W        W52446  32.655  20.491   1.891
85664W        W52447  40.893  10.210   2.610
85665W        W52448  19.242   6.424   1.570
85666W        W52449   9.397  36.898   2.698
85667W        W52450  20.319  16.362  13.480
85668W        W52451  22.964  23.918   4.094
85669W        W52452  22.531  19.749   1.360
85670W        W52453  33.099  24.171   0.190
85671W        W52454   9.310  18.336  13.862
85672W        W52455  30.445  26.691  13.554
85673W        W52456  41.994  25.644  13.522
85674W        W52457  31.474   7.437  14.726
85675W        W52458  11.448  24.967   0.748
85676W        W52459   6.148   9.528  14.050
85677W        W52460  30.325  24.975  14.518
85678W        W52461   1.161   0.158  11.133
85679W        W52462  41.936  25.673   3.670
85680W        W52463  42.227  20.635  10.813
85681W        W52464   0.514  38.084   1.733
85682W        W52465   5.304  20.391  11.951
85683W        W52466   2.727  19.282   1.408
85684W        W52467  12.616  33.156   4.299
85685W        W52468  21.939  21.452   3.780
85686W        W52469  22.865   1.590  13.040
85687W        W52470  19.654  38.065  14.922
85688W        W52471   7.628  35.840  14.331
85689W        W52472  20.767  34.552   4.196
85690W        W52473  29.022   5.354  13.844
85691W        W52474  17.859   1.231  12.184
85692W        W52475  13.312  24.114   0.102
85693W        W52476  28.380  26.748   4.871
85694W        W52477  15.738  17.306   1.507
85695W        W52478  23.730   3.769   1.370
85696W        W52479   0.700  29.680   4.614
85697W        W52480  33.976  24.671  14.712
85698W        W52481  13.054  18.133   1.255
85699W        W52482  11.594  32.345   4.341
85700W        W52483   0.447  18.129   1.877
85701W        W52484   3.312  22.285  13.443
85702W        W52485  24.080  28.907  14.477
85703W        W52486  38.596  21.139  11.122
85704W        W52487  15.700   8.135  11.581
85705W        W52488  35.676  12.673   0.876
85706W        W52489   8.262   4.187  13.750
85707W        W52490  42.951  28.345  14.064
85708W        W52491  33.619  12.125   4.065
85709W        W52492   0.700  18.129   4.733
85710W        W52493  22.118   8.280  11.376
85711W        W52494  32.947  39.098  12.542
85712W        W52495   4.820  31.684  13.593
85713W        W52496  11.937  16.338  10.927
85714W        W52497  44.136  23.157  14.739
85715W        W52498  13.540  12.860  14.930
85716W        W52499  27.647  19.299  11.623
85717W        W52500   9.457   3.849  14.876
85718W        W52501  11.587  31.928   4.670
85719W        W52502  32.306  26.415   0.896
85720W        W52503  29.225   7.925  11.530
85721W        W52504  18.386  35.478  14.448
85722W        W52505  44.726   2.926  13.911
85723W        W52506  23.544  42.968  11.014
85724W        W52507  32.619   9.671  14.631
85725W        W52508  29.890  20.803   2.302
85726W        W52509  41.769  37.922   4.878
85727W        W52510  39.751  23.242  14.451
85728W        W52511  43.713  28.079  11.067
85729W        W52512  35.474  34.977   0.745
85730W        W52513  29.913   5.107   1.351
85731W        W52514   3.288  18.642  11.020
85732W        W52515  34.402  40.034  10.826
85733W        W52516   6.748   6.793  14.325
85734W        W52517  13.351  26.549  14.915
85735W        W52518  16.806  40.001  12.971
85736W        W52519  42.626  26.006  12.003
85737W        W52520  43.312  41.606   1.315
85738W        W52521  31.987  31.409   3.625
85739W        W52522  20.562  16.824   1.835
85740W        W52523   7.916  28.411   3.205
85741W        W52524   7.135  40.140   4.152
85742W        W52525  43.878  17.859  12.519
85743W        W52526  42.909   1.004   3.728
85744W        W52527  40.542   4.905  11.096
85745W        W52528   0.275  40.990  11.091
85746W        W52529   3.400  19.285   0.832
85747W        W52530  10.586  11.141  10.110
85748W        W52531   6.288  18.467  14.824
85749W        W52532  14.887  19.114   0.929
85750W        W52533  42.472  25.084   0.768
85751W        W52534  15.153   2.590   0.120
85752W        W52535  24.613  38.629   4.227
85753W        W52536  10.173  40.350   3.769
85754W        W52537  19.289   8.942  13.970
85755W        W52538   6.223  40.419  14.764
85756W        W52539  28.141   8.771   3.324
85757W        W52540  13.937  18.476   3.809
85758W        W52541  13.646  30.475   3.109
85759W        W52542  27.774  40.003  10.627
85760W        W52543  10.664  36.494  14.918
85761W        W52544  19.426  34.533  12.778
85762W        W52545   9.479   7.608  12.271
85763W        W52546   1.239  12.027  13.330
85764W        W52547   8.212  15.343   2.043
85765W        W52548  18.529  27.691  13.618
85766W        W52549  30.445  39.053   2.713
85767W        W52550  25.114  13.881  13.783
85768W        W52551  16.619  44.711   2.154
85769W        W52552  25.671  27.352   1.788
85770W        W52553  29.900  19.676  14.459
85771W        W52554  37.076  30.462  14.329
85772W        W52555   3.226  43.429  13.865
85773W        W52556  42.597   6.869   4.142
85774W        W52557  19.489  10.488  14.111
85775W        W52558  43.192   3.513   1.469
85776W        W52559  20.280  40.032  12.448
85777W        W52560  30.939  29.205  13.815
85778W        W52561  23.209  38.910  10.659
85779W        W52562  35.924  44.683   1.759
85780W        W52563   3.179  26.752  13.450
85781W        W52564  11.084   9.208  11.569
85782W        W52565   3.120  41.105   1.811
85783W        W52566  10.859  29.234   1.856
85784W        W52567  33.394  27.641  14.062
85785W        W52568  27.097  42.480  11.153
85786W        W52569  44.990  15.817  10.661
85787W        W52570  31.096  34.343  13.474
85788W        W52571  18.264  42.276  13.019
85789W        W52572  29.243  16.212  13.993
85790W        W52573  40.383  18.713  13.775
85791W        W52574  13.853  11.205  14.021
85792W        W52575  18.293  23.339   2.208
85793W        W52576   9.900   6.734   4.578
85794W        W52577   2.267  31.035   4.506
85795W        W52578  34.911  41.168   3.253
85796W        W52579  38.174  33.701   0.286
85797W        W52580  31.227   2.799  12.007
85798W        W52581  27.443  40.138   0.896
85799W        W52582  42.986  13.923   2.221
85800W        W52583  44.378   0.312   0.938
85801W        W52584  37.452  12.094   0.626
85802W        W52585  28.756  39.836  13.052
85803W        W52586  13.198  11.708  12.476
85804W        W52587  34.137  23.596   2.794
85805W        W52588  17.571  31.190  10.757
85806W        W52589  16.096  32.483   2.168
85807W        W52590  28.744  40.969   2.966
85808W        W52591  11.227  19.166  10.470
85809W        W52592  12.627  32.438  11.862
85810W        W52593   5.669  27.431   2.341
85811W        W52594  44.397  24.463   3.422
85812W        W52595  38.813  20.088  13.965
85813W        W52596   6.827  21.811  14.320
85814W        W52597  30.748  20.281  12.886
85815W        W52598  42.397  17.986   0.845
85816W        W52599  21.596  15.279  11.581
85817W        W52600  19.803  35.444   4.385
85818W        W52601  32.145   6.310   1.949
85819W        W52602  37.675  29.402   5.309
85820W        W52603  23.000  35.907   3.407
85821W        W52604  12.079   4.577   3.191
85822W        W52605  10.364  15.245  11.741
85823W        W52606   3.629   4.296  10.709
85824W        W52607   3.958  13.681  14.871
85825W        W52608  14.287  17.776  12.136
85826W        W52609   8.877  17.244  12.642
85827W        W52610  37.440   0.308  14.959
85828W        W52611   5.037  42.977  12.639
85829W        W52612  11.310  21.817  11.050
85830W        W52613   5.452   2.309   3.144
85831W        W52614  19.460  14.076  11.004
85832W        W52615   1.751   6.488   0.193
85833W        W52616  14.318   6.459   5.119
85834W        W52617  21.748  12.623   2.219
85835W        W52618  30.845  25.125  14.559
85836W        W52619   3.699   8.612   4.502
85837W        W52620  15.319  22.534   2.246
85838W        W52621  22.664  33.927   0.272
85839W        W52622  39.859   8.368   0.987
85840W        W52623  16.194   5.152   3.481
85841W        W52624  16.357  42.851   0.496
85842W        W52625  40.245  10.083   3.967
85843W        W52626  24.477   7.631   0.864
85844W        W52627  13.813  10.265  10.417
85845W        W52628  35.819   5.238  11.172
85846W        W52629  41.585  13.694  12.582
85847W        W52630  38.701  10.731   4.732
85848W        W52631  41.091  32.427  11.126
85849W        W52632  15.632  31.417   3.970
85850W        W52633   6.922  27.664   3.803
85851W        W52634  22.663  14.016  10.679
85852W        W52635  30.599  28.388  11.695
85853W        W52636  13.834  39.606  10.224
85854W        W52637  14.177   2.699   3.170
85855W        W52638  33.569  12.641   4.164
85856W        W52639  26.666  41.057  10.770
85857W        W52640  42.034  42.715   4.155
85858W        W52641  37.729  10.376   1.204
85859W        W52642  40.541  24.550  12.099
85860W        W52643   2.381  34.335  13.195
85861W        W52644  30.175  34.566   3.617
85862W        W52645  16.796   6.230   4.125
85863W        W52646   3.742  11.648   3.591
85864W        W52647  43.749  12.182  14.169
85865W        W52648  12.856  39.879  13.400
85866W        W52649  43.301  26.142   2.676
85867W        W52650  13.788   0.882  12.691
85868W        W52651  11.242  23.515   2.876
85869W        W52652  38.396  26.082  11.589
85870W        W52653  14.837  30.085   2.393
85871W        W52654  37.256  38.817  13.804
85872W        W52655  11.530  38.920   4.519
85873W        W52656  11.316  15.619  12.389
85874W        W52657   0.863  17.099   0.450
85875W        W52658  21.319  14.321   5.400
85876W        W52659  10.947  43.039  12.486
85877W        W52660  21.760  14.249  11.612
85878W        W52661  10.147  35.628   2.395
85879W        W52662   0.773   6.866   3.310
85880W        W52663  18.361   2.258   3.731
85881W        W52664  32.575  34.215   4.236
85882W        W52665  21.716  21.904  11.314
85883W        W52666  29.672   3.289   0.521
85884W        W52667   0.435  43.669  11.916
85885W        W52668  16.574  37.403  13.543
85886W        W52669  13.601  18.898  13.772
85887W        W52670  29.635   3.207  11.676
85888W        W52671  28.010  19.862  10.695
85889W        W52672  43.760   7.464   1.434
85890W        W52673  32.339  12.817  12.315
85891W        W52674  11.848  15.878   3.801
85892W        W52675  22.978  13.811   0.740
85893W        W52676  41.628  21.779  13.827
85894W        W52677  43.728  31.909   4.318
85895W        W52678  35.050  12.782  11.547
85896W        W52679  23.054   0.243   1.531
85897W        W52680  12.836   5.636   2.397
85898W        W52681  25.688  26.303   1.821
85899W        W52682  12.202  29.673  13.237
85900W        W52683  35.531   8.012   3.248
85901W        W52684   2.419  21.471   3.105
85902W        W52685  39.775   7.852  13.800
85903W        W52686   5.707  30.715  13.305
85904W        W52687  30.426  44.314  12.851
85905W        W52688  37.145  36.684  11.163
85906W        W52689  38.374   5.927   4.891
85907W        W52690  33.564  22.663   3.693
85908W        W52691   1.081  17.808  11.441
85909W        W52692  22.261  33.476   9.911
85910W        W52693  35.829  31.946  12.629
85911W        W52694  14.133  43.785  11.206
85912W        W52695  18.907  37.632   3.332
85913W        W52696  22.491  16.595  12.106
85914W        W52697  39.485  11.785  11.694
85915W        W52698  22.679  33.909  14.758
85916W        W52699  17.979  38.884  11.647
85917W        W52700  34.485  35.582  11.332
85918W        W52701  29.443   9.419   1.782
85919W        W52702   2.497  32.137   4.130
85920W        W52703   5.417   3.562  14.334
85921W        W52704  36.337  38.312   0.403
85922W        W52705  44.704   7.144   5.430
85923W        W52706   6.283  15.532   0.787
85924W        W52707  17.109  26.885   4.675
85925W        W52708  41.514  37.914   2.181
85926W        W52709  28.455  19.659   0.478
85927W        W52710  38.641  19.896   3.638
85928W        W52711  32.325  38.169   1.682
85929W        W52712  38.850  39.992   0.282
85930W        W52713  41.098  18.629   0.139
85931W        W52714  20.198  11.416  12.887
85932W        W52715  21.473  40.904   1.762
85933W        W52716  21.646  41.519   3.938
85934W        W52717  18.592  40.269   1.925
85935W        W52718  27.651  24.361   3.686
85936W        W52719  43.842  13.744  14.591
85937W        W52720  41.231  42.945   4.459
85938W        W52721  17.320  11.046   1.910
85939W        W52722  43.754  22.201   4.056
85940W        W52723  11.456   4.326   2.956
85941W        W52724   1.415  30.104   1.823
85942W        W52725   7.451  33.612  11.203
85943W        W52726  44.984  13.479  12.306
85944W        W52727  38.843  19.249  10.021
85945W        W52728  35.264  14.347  10.060
85946W        W52729  28.791  19.243  11.466
85947W        W52730   9.680  16.630  12.611
85948W        W52731  25.950  25.409  12.131
85949W        W52732  35.624   3.449  11.402
85950W        W52733  14.119  37.938  11.564
85951W        W52734  28.480   3.692  13.533
85952W        W52735  43.990  40.114  14.829
85953W        W52736  14.696  26.090   1.846
85954W        W52737  21.072  32.559   1.713
85955W        W52738  30.987  30.841   1.391
85956W        W52739  42.516   5.569   1.252
85957W        W52740  32.713   6.960  12.065
85958W        W52741  11.142  30.186  12.372
85959W        W52742   4.445  25.149  14.970
85960W        W52743  33.934  10.881   2.317
85961W        W52744  38.764  39.549  11.623
85962W        W52745  15.523  41.608   1.356
85963W        W52746  31.667  25.688  11.984
85964W        W52747  34.236  41.322  11.128
85965W        W52748  27.429  39.108   3.586
85966W        W52749  32.511  13.482  13.058
85967W        W52750  21.674   1.664  10.519
85968W        W52751   3.462   9.637   2.636
85969W        W52752  35.058  43.406   4.653
85970W        W52753  36.152  25.605   0.795
85971W        W52754  23.529  44.378  10.882
85972W        W52755  10.073  19.765   3.545
85973W        W52756  44.751  14.698   2.216
85974W        W52757  26.155  17.429  13.800
85975W        W52758   2.498  25.225  12.611
85976W        W52759  20.755  26.251   2.934
85977W        W52760  12.621  19.095   4.710
85978W        W52761   8.688  40.001  13.423
85979W        W52762  27.567  27.910   0.400
85980W        W52763  18.154  44.546  12.373
85981W        W52764   2.727  35.559   4.334
85982W        W52765   8.452   4.920  12.135
85983W        W52766   9.135   1.403  11.158
85984W        W52767  10.617  33.634   2.872
85985W        W52768  43.569  25.040   1.838
85986W        W52769  25.991   2.435   2.511
85987W        W52770  11.073  30.955  14.380
85988W        W52771  36.593  44.746  14.912
85989W        W52772  26.236  36.867   4.235
85990W        W52773  38.821  37.990  11.844
85991W        W52774  22.297   9.965  11.561
85992W        W52775  42.530  41.457  12.133
85993W        W52776  38.468   0.606  11.450
85994W        W52777  35.596  35.179  11.014
85995W        W52778  22.755   8.239  10.702
85996W        W52779  40.847  25.498   1.364
85997W        W52780  24.775  38.016   4.565
85998W        W52781  15.660   1.475   1.377
85999W        W52782   8.436   9.462  10.694
86000W        W52783   8.637  28.107   0.794
86001W        W52784  24.532  16.921  11.946
86002W        W52785  23.279  16.751   4.071
86003W        W52786  43.857   1.558  12.122
86004W        W52787  32.846   3.687  14.757
86005W        W52788  25.226   0.314  11.897
86006W        W52789   4.167  18.244  11.759
86007W        W52790   1.039  34.126   3.697
86008W        W52791   5.114   4.286   4.287
86009W        W52792  23.431  36.848   4.008
86010W        W52793   3.967   3.340  14.742
86011W        W52794  22.631  41.367  10.562
86012W        W52795  38.526  37.997   2.095
86013W        W52796  29.245  13.905   0.229
86014W        W52797   9.340  37.388  14.415
86015W        W52798  39.431  36.366  12.528
86016W        W52799  20.403   3.399  13.867
86017W        W52800  37.668  10.077   0.773
86018W        W52801  28.559  24.444  13.382
86019W        W52802  12.690   2.382   1.685
86020W        W52803  26.241  19.694  13.251
86021W        W52804  39.051  20.512  10.712
86022W        W52805  16.445  26.552  11.523
86023W        W52806  38.099  42.296  11.602
86024W        W52807  41.449  38.836  10.646
86025W        W52808   6.932  34.339  12.043
86026W        W52809  17.294  17.523   4.200
86027W        W52810  27.460  29.367   0.451
86028W        W52811  25.124   6.239  12.608
86029W        W52812  37.768  29.601   0.770
86030W        W52813  16.764  38.852   0.005
86031W        W52814  39.247  20.720  13.370
86032W        W52815  35.558   2.791  13.924
86033W        W52816  25.114   7.914  10.787
86034W        W52817  36.589   8.596   1.773
86035W        W52818   2.332  31.038  10.686
86036W        W52819   2.328  44.059  10.453
86037W        W52820  28.682  20.057   0.853
86038W        W52821  18.348  38.118  11.723
86039W        W52822  19.752  27.627   1.294
86040W        W52823  33.529   0.823   0.380
86041W        W52824  23.096  12.747   0.941
86042W        W52825  39.102  15.842  11.958
86043W        W52826  38.374  32.470  13.645
86044W        W52827  12.350  24.814  14.048
86045W        W52828   0.774  23.515   3.698
86046W        W52829   6.270  37.110   2.801
86047W        W52830  43.873  16.612  12.647
86048W        W52831  40.140  21.352  14.606
86049W        W52832  29.904  14.416   1.487
86050W        W52833  26.004  43.249   2.758
86051W        W52834   6.149   3.185   1.297
86052W        W52835  28.048   8.834  13.782
86053W        W52836   5.656  26.153  14.798
86054W        W52837  36.381   2.777   0.204
86055W        W52838  15.719   9.465  11.962
86056W        W52839  17.352   6.796   1.251
86057W        W52840   7.052   6.347  12.530
86058W        W52841  12.085   1.036   0.584
86059W        W52842   8.697  30.379   4.773
86060W        W52843  17.566  41.087   0.351
86061W        W52844  17.197  40.364  14.990
86062W        W52845  27.039  28.252  12.395
86063W        W52846  14.729  44.943  12.943
86064W        W52847  15.616  33.442  13.034
86065W        W52848   1.382  19.984   0.289
86066W        W52849   5.030   4.668  11.690
86067W        W52850  31.730   9.375  14.448
86068W        W52851  18.701  21.381   2.394
86069W        W52852  19.896  42.777   2.262
86070W        W52853  17.805  22.997  12.933
86071W        W52854  20.503   0.288   2.719
86072W        W52855  39.387  31.332  14.530
86073W        W52856   1.480   7.194  13.046
86074W        W52857  32.115   8.783  12.134
86075W        W52858  40.902  23.459  13.472
86076W        W52859  30.586  10.555   2.395
86077W        W52860  17.231  25.994   2.330
86078W        W52861   6.030  11.735   3.571
86079W        W52862  23.038   0.070  10.591
86080W        W52863  33.829  37.995  10.799
86081W        W52864  15.197  42.639   4.879
86082W        W52865  25.002   8.277  13.398
86083W        W52866  41.630  18.594  12.845
86084W        W52867  25.050  30.540  14.432
86085W        W52868  38.325  43.111  13.895
86086W        W52869   1.833  22.250  13.452
86087W        W52870  18.191  33.660   1.903
86088W        W52871  15.031  21.035  12.901
86089W        W52872  37.472  28.091   2.622
86090W        W52873   7.356  35.190   2.066
86091W        W52874   7.301  21.773  13.516
86092W        W52875  28.665   8.388  10.737
86093W        W52876  29.554  37.503  11.418
86094W        W52877  12.681  22.042   0.453
86095W        W52878  32.245  18.073  14.410
86096W        W52879  11.192  15.916  14.537
86097W        W52880  28.759  32.952  13.548
86098W        W52881  32.085  30.502  11.531
86099W        W52882   2.096  13.333   0.920
86100W        W52883  28.671  38.419   3.142
86101W        W52884  16.765  42.008  12.867
86102W        W52885  37.522  27.881   2.147
86103W        W52886   0.909  35.119   2.766
86104W        W52887  35.135  14.044  12.353
86105W        W52888   4.211   2.813  10.876
86106W        W52889  14.816  26.588  13.123
86107W        W52890  44.756   8.965   1.647
86108W        W52891  39.745  15.439   1.336
86109W        W52892   9.168   3.856   0.341
86110W        W52893  23.349   3.645  10.741
86111W        W52894  14.052  34.949   5.279
86112W        W52895  10.601  37.264  10.699
86113W        W52896   3.324  16.214  11.104
86114W        W52897  20.516  13.123   2.432
86115W        W52898   2.266  22.383   3.841
86116W        W52899   3.899  32.552   4.417
86117W        W52900  23.619  29.088  14.897
86118W        W52901  42.458  32.180  12.016
86119W        W52902  14.408  37.156   1.556
86120W        W52903   7.766  16.839   0.403
86121W        W52904  41.871  37.172   1.936
86122W        W52905  18.098  18.124  14.278
86123W        W52906  32.648  16.995   0.228
86124W        W52907  42.506  25.284  12.860
86125W        W52908  21.528   1.766   3.328
86126W        W52909  40.342  24.153   2.349
86127W        W52910  42.333  40.542   1.359
86128W        W52911   1.634  41.878   1.272
86129W        W52912  33.023   7.433  11.807
86130W        W52913  34.115  29.372   0.777
86131W        W52914  30.730   1.262   1.396
86132W        W52915   9.184  28.143   4.945
86133W        W52916  26.141   8.375   2.682
86134W        W52917  25.200  31.667   0.480
86135W        W52918  31.984  10.851   3.718
86136W        W52919  35.181  42.560  11.169
86137W        W52920  19.801  15.801  12.876
86138W        W52921  10.174  10.375   0.922
86139W        W52922  21.002  21.522  13.004
86140W        W52923  27.603   8.925  11.357
86141W        W52924  22.591  44.456   9.967
86142W        W52925  36.608  43.949   1.867
86143W        W52926  11.689  11.411  13.515
86144W        W52927  38.349   8.897   4.618
86145W        W52928   7.506   2.146  10.901
86146W        W52929  34.402   1.920   2.430
86147W        W52930   8.124  33.827   4.110
86148W        W52931  37.860  38.063   0.007
86149W        W52932  30.446  12.657  12.897
86150W        W52933  10.563   3.945   1.905
86151W        W52934  22.189  17.224  14.507
86152W        W52935   1.036  28.450   1.287
86153W        W52936  23.062  16.220   4.831
86154W        W52937   3.205  38.259   2.842
86155W        W52938  31.150   8.622   3.258
86156W        W52939  10.422  28.904   3.243
86157W        W52940  33.525  25.463  14.799
86158W        W52941  27.945  19.429   1.268
86159W        W52942  36.465  38.401  13.945
86160W        W52943  26.841  11.275   0.720
86161W        W52944  28.898  24.666  13.042
86162W        W52945  41.529  26.439   2.730
86163W        W52946  37.924  14.715   2.321
86164W        W52947  24.078   3.880   1.880
86165W        W52948  30.153  22.966   3.583
86166W        W52949  24.453   7.253   4.147
86167W        W52950  24.040  22.462  10.605
86168W        W52951  39.390  35.984   2.385
86169W        W52952   5.358   7.684  12.480
86170W        W52953   0.714  34.253  12.050
86171W        W52954  37.744  27.493   0.884
86172W        W52955  29.077   9.258  13.804
86173W        W52956   4.930  36.015   4.782
86174W        W52957  25.582  32.706  14.407
86175W        W52958  13.328  34.639   2.241
86176W        W52959  21.105  26.945  12.088
86177W        W52960  37.085  26.687   4.180
86178W        W52961  13.565  34.562   3.730
86179W        W52962  40.897  31.685  14.841
86180W        W52963   5.362  10.213  10.537
86181W        W52964  10.738  34.489   4.059
86182W        W52965  34.539  32.160  10.256
86183W        W52966  38.707   5.517   3.744
86184W        W52967  43.996   4.289  12.449
86185W        W52968   7.928  44.439  11.959
86186W        W52969  23.594  20.640  10.704
86187W        W52970  14.559  16.675   3.770
86188W        W52971  25.919   9.397   3.765
86189W        W52972  42.432  32.493   3.750
86190W        W52973  31.955  43.345   1.262
86191W        W52974  14.182   7.564  11.879
86192W        W52975   2.964  28.120   2.440
86193W        W52976  33.491  28.979  10.839
86194W        W52977  14.883  13.529   0.954
86195W        W52978  41.688   4.676  13.534
86196W        W52979  12.361  23.690  14.250
86197W        W52980  22.103   7.840  11.068
86198W        W52981  42.477  39.148  12.111
86199W        W52982  27.656  21.121   0.682
86200W        W52983  18.712  41.213  11.173
86201W        W52984  34.428   2.060   2.923
86202W        W52985  11.153  16.785  11.999
86203W        W52986  30.364  39.543   3.707
86204W        W52987   6.916   3.237   1.771
86205W        W52988  39.333  37.751   3.507
86206W        W52989  28.936  42.326   4.552
86207W        W52990  30.906  26.705   4.139
86208W        W52991   5.460  43.540  10.408
86209W        W52992   3.734   5.687   1.334
86210W        W52993  27.308  25.059  10.533
86211W        W52994  22.537   7.011   4.259
86212W        W52995  34.901  13.719  13.091
86213W        W52996  10.943  43.449  11.511
86214W        W52997  17.076  30.640  13.552
86215W        W52998  13.141  44.429   1.844
86216W        W52999  22.560  33.020   2.572
86217W        W53000  36.615  22.202  10.607
86218W        W53001  38.526   6.117   1.289
86219W        W53002   6.150   2.759  11.254
86220W        W53003  36.492   4.489   1.910
86221W        W53004  33.923  20.986   1.286
86222W        W53005  36.323  44.882   2.445
86223W        W53006  21.426  30.170  14.438
86224W        W53007  36.375   8.670  12.883
86225W        W53008   9.251  34.689   1.671
86226W        W53009  29.895   2.291  12.387
86227W        W53010   2.479   5.746  10.619
86228W        W53011  31.525  39.149  11.101
86229W        W53012  35.058  12.746  12.067
86230W        W53013  12.139  30.600   0.203
86231W        W53014  20.114  23.612   3.213
86232W        W53015   3.976  36.510   2.921
86233W        W53016  28.020  10.175   1.315
86234W        W53017  29.523  17.132   4.346
86235W        W53018  31.675  31.574   0.743
86236W        W53019  27.199  26.036   4.854
86237W        W53020  30.597  28.758  11.336
86238W        W53021  26.002  31.657   4.656
86239W        W53022  37.109  14.566  13.372
86240W        W53023   9.587   6.859  13.401
86241W        W53024   1.513  43.702  14.462
86242W        W53025  34.157  20.286  13.812
86243W        W53026  27.048  12.111   4.608
86244W        W53027   4.232  13.367  12.081
86245W        W53028   4.117  21.223  13.444
86246W        W53029  40.526   6.446   3.302
86247W        W53030  37.314  42.751   2.294
86248W        W53031   9.137  39.940  11.022
86249W        W53032  31.431   1.912   3.808
86250W        W53033  18.519  34.140   1.828
86251W        W53034  32.198   4.288  13.490
86252W        W53035  38.230  40.304   0.535
86253W        W53036  11.046  31.579  11.999
86254W        W53037  13.842  32.635  12.481
86255W        W53038   9.121  33.071   4.045
86256W        W53039  32.394  44.866   4.691
86257W        W53040  37.511   5.132  10.096
86258W        W53041  38.190  21.413   0.665
86259W        W53042  39.302  30.631   3.419
86260W        W53043  28.831  22.089  13.816
86261W        W53044   4.420  28.483  10.983
86262W        W53045  28.574   0.995   4.579
86263W        W53046  28.729  28.416  14.875
86264W        W53047  21.262  23.986   3.692
86265W        W53048   8.479  19.628  12.493
86266W        W53049  38.952  27.200  13.103
86267W        W53050  37.127   5.402   2.400
86268W        W53051   3.896  36.111  11.365
86269W        W53052  27.199  23.151  10.307
86270W        W53053  36.987  39.370  14.265
86271W        W53054  44.337   4.477   4.510
86272W        W53055  40.392  24.948  13.272
86273W        W53056  23.393  23.854   5.001
86274W        W53057  28.610   7.003   2.424
86275W        W53058   9.769  42.185  11.606
86276W        W53059  22.626  32.508  13.425
86277W        W53060  22.077  13.877   0.943
86278W        W53061   0.873  16.015  10.319
86279W        W53062  24.549  36.836  12.415
86280W        W53063  35.888  38.631   3.149
86281W        W53064  19.603  12.257   3.517
86282W        W53065   6.697  29.949   1.975
86283W        W53066   9.765  33.328  10.705
86284W        W53067   4.926  40.478  13.397
86285W        W53068  15.509  38.003   3.327
86286W        W53069  23.050  38.148   0.039
86287W        W53070  44.575   1.941  12.888
86288W        W53071   5.861  42.945  14.872
86289W        W53072  22.673   2.705   2.204
86290W        W53073   9.627   2.288   1.036
86291W        W53074  43.169  23.501   3.896
86292W        W53075   1.934  14.199   0.448
86293W        W53076   1.191  29.637  13.598
86294W        W53077  26.213  26.846   1.856
86295W        W53078  26.418   0.405  11.210
86296W        W53079  30.323  27.098   0.722
86297W        W53080  11.654  41.559   2.930
86298W        W53081  24.092  11.130   3.888
86299W        W53082   3.087  41.955   4.964
86300W        W53083  43.931  35.240   2.365
86301W        W53084  27.973   6.463   4.662
86302W        W53085  28.130  40.931   1.637
86303W        W53086  14.508   3.001  13.886
86304W        W53087  32.009  28.553   0.225
86305W        W53088  16.251   4.684   2.164
86306W        W53089  22.877  44.432   0.638
86307W        W53090   1.710  12.348   1.032
86308W        W53091  35.118  34.841   3.573
86309W        W53092  35.933  43.665  12.358
86310W        W53093  39.087  44.289  13.563
86311W        W53094  15.086  26.996  12.815
86312W        W53095  17.320  42.740  14.360
86313W        W53096   0.876  34.607   2.722
86314W        W53097  12.119  15.047   4.596
86315W        W53098   2.415  15.093  14.969
86316W        W53099  10.293  34.653  12.045
86317W        W53100   6.030  30.400  14.911
86318W        W53101   5.028  33.311  11.020
86319W        W53102  37.280  17.778  11.919
86320W        W53103   7.889  40.861   1.276
86321W        W53104   6.907   1.409  10.617
86322W        W53105   0.429  24.284   4.692
86323W        W53106  39.516  27.009   1.455
86324W        W53107  15.724   7.653   2.268
86325W        W53108   9.398  17.555   3.316
86326W        W53109  29.707  23.598   4.110
86327W        W53110  31.401  19.661   9.953
86328W        W53111  19.588  44.898  12.678
86329W        W53112  18.331  14.146   9.903
86330W        W53113   5.234  38.825   3.337
86331W        W53114  20.102   2.411  11.062
86332W        W53115  28.350   5.871  12.476
86333W        W53116  21.963  37.460   0.282
86334W        W53117   7.669  15.317   0.850
86335W        W53118  22.905   7.277  11.013
86336W        W53119  30.658  25.625   4.137
86337W        W53120  19.209  18.183   3.800
86338W        W53121  30.742  33.612   0.345
86339W        W53122  37.678  38.601   2.317
86340W        W53123  15.571   0.337   3.596
86341W        W53124  15.019  39.226   9.863
86342W        W53125   1.631  40.170   1.950
86343W        W53126  38.638  31.587  11.120
86344W        W53127  42.389  38.066   3.820
86345W        W53128  26.129  25.515   3.241
86346W        W53129  40.730  11.076   4.083
86347W        W53130  37.270  35.095  14.353
86348W        W53131  17.726  10.879  12.324
86349W        W53132  11.801   3.287   0.288
86350W        W53133  12.157  21.990   0.481
86351W        W53134  27.775   2.919   3.302
86352W        W53135  17.804   6.376   2.719
86353W        W53136  23.004  43.468   1.355
86354W        W53137   8.878  36.065  13.834
86355W        W53138  12.115  17.145   2.186
86356W        W53139  33.838  10.883  13.396
86357W        W53140  20.175  36.802   2.538
86358W        W53141  33.384  22.426  11.997
86359W        W53142  43.769  10.633   4.165
86360W        W53143  36.649  20.547   0.646
86361W        W53144  44.359  41.442   1.780
86362W        W53145  35.758  12.602   4.079
86363W        W53146  43.917  25.440  11.776
86364W        W53147  22.614   8.722   2.835
86365W        W53148  31.933  39.139   0.359
86366W        W53149  15.834   8.665  11.059
86367W        W53150   5.331   8.420   2.299
86368W        W53151   8.290   2.747   1.006
86369W        W53152  32.550  22.795  12.129
86370W        W53153  24.521  26.798   4.667
86371W        W53154  30.962  22.367  12.099
86372W        W53155   7.453  12.187   1.808
86373W        W53156  34.549  33.741   4.824
86374W        W53157   5.926   4.777   2.271
86375W        W53158  33.982  15.523  12.098
86376W        W53159  20.569   6.138  12.842
86377W        W53160  34.189  44.206  12.589
86378W        W53161  38.426  11.625   0.422
86379W        W53162  15.921   0.472  12.336
86380W        W53163   0.747  20.879   3.730
86381W        W53164   6.887  27.028   4.202
86382W        W53165  43.936  41.593   4.064
86383W        W53166  12.684  41.761   1.463
86384W        W53167  41.902   0.587  10.995
86385W        W53168  24.698  26.023  11.647
86386W        W53169  26.157  37.154   0.464
86387W        W53170  44.172  38.822   0.676
86388W        W53171  30.235  18.117  12.584
86389W        W53172  36.910   9.132  11.103
86390W        W53173  19.329   8.424   0.758
86391W        W53174  15.560  37.597  14.387
86392W        W53175   5.915  29.402   4.874
86393W        W53176  29.683  19.165  10.489
86394W        W53177  15.620  33.558   4.663
86395W        W53178  32.927  31.664   4.616
86396W        W53179   0.077  10.925   1.576
86397W        W53180  44.353  14.379   1.433
86398W        W53181   2.327  33.512  11.482
86399W        W53182  21.493  27.687  13.071
86400W        W53183  25.926   9.133  14.276
86401W        W53184  37.535  41.543   3.966
86402W        W53185   1.960  30.893  11.509
86403W        W53186   6.354   9.692   4.418
86404W        W53187  25.645  24.207   2.756
86405W        W53188   4.409  17.720   3.581
86406W        W53189  14.671   5.893  11.678
86407W        W53190  17.097  33.397   4.468
86408W        W53191  34.092  38.810   2.256
86409W        W53192  30.612   9.639  14.917
86410W        W53193  18.616  40.100   4.853
86411W        W53194  17.779  34.965  13.093
86412W        W53195   8.768  30.641   2.396
86413W        W53196  12.260  23.044  13.994
86414W        W53197   3.703  19.956  12.322
86415W        W53198  44.782   3.203   2.679
86416W        W53199  10.377  18.862   1.485
86417W        W53200   2.423   7.311   4.135
86418W        W53201  23.911  18.001  13.516
86419W        W53202  38.190   4.731   0.981
86420W        W53203   2.629   0.300   2.158
86421W        W53204  22.453  23.947  13.014
86422W        W53205  11.972  29.906  13.892
86423W        W53206  34.017  30.238   5.010
86424W        W53207  14.242  24.525   4.794
86425W        W53208   1.646  22.051   1.077
86426W        W53209  24.543  14.259  10.669
86427W        W53210  33.854  31.060   0.859
86428W        W53211  32.923  32.667  13.062
86429W        W53212  32.864  19.255  13.386
86430W        W53213  10.427  21.025  11.879
86431W        W53214  14.903  33.564   2.106
86432W        W53215   9.662  28.715   1.383
86433W        W53216   6.906  11.826   0.022
86434W        W53217   5.917  41.155   4.835
86435W        W53218   7.368  42.374  13.489
86436W        W53219   5.669  43.979  13.072
86437W        W53220  33.507  41.513  12.973
86438W        W53221  20.979  10.376  13.752
86439W        W53222  31.146   4.219   3.841
86440W        W53223  37.923  41.917   0.857
86441W        W53224  24.550   4.061  13.529
86442W        W53225  15.862  19.314   2.450
86443W        W53226  29.543  30.607   0.708
86444W        W53227  41.980  16.057   2.222
86445W        W53228  25.022   7.899   3.093
86446W        W53229  15.791  40.951   0.032
86447W        W53230   4.457   9.679   0.924
86448W        W53231  35.200  40.356  11.280
86449W        W53232   7.296   2.564  10.705
86450W        W53233  27.644  23.734   1.323
86451W        W53234  26.797   8.575   2.339
86452W        W53235  38.127   8.830  12.300
86453W        W53236  15.658   0.451  10.512
86454W        W53237  13.853  16.336  14.207
86455W        W53238  25.106  17.554   3.587
86456W        W53239  41.280  18.014  12.967
86457W        W53240  23.478  13.290  10.599
86458W        W53241  19.816   6.324   4.862
86459W        W53242   4.664   7.173   3.745
86460W        W53243  13.381   5.407  14.325
86461W        W53244   0.320  26.396   2.266
86462W        W53245  17.924  37.156  11.522
86463W        W53246  37.482  33.130  13.080
86464W        W53247   9.415  15.691  13.989
86465W        W53248  44.083  20.753  10.229
86466W        W53249  20.222  10.308   4.821
86467W        W53250   2.092  14.656  13.806
86468W        W53251   0.668  37.272   0.905
86469W        W53252  43.891  21.932   0.092
86470W        W53253  27.939  26.170  13.163
86471W        W53254  34.884  14.766   2.205
86472W        W53255  34.157  29.874   0.653
86473W        W53256  10.618   1.440   0.829
86474W        W53257  22.347  18.239  10.269
86475W        W53258  40.800  44.014  14.541
86476W        W53259  43.406  26.646   0.021
86477W        W53260  40.284  44.781   0.420
86478W        W53261  35.908  27.980  12.123
86479W        W53262  27.708  18.112   2.716
86480W        W53263  36.638   5.356  11.608
86481W        W53264  12.415  39.414  10.769
86482W        W53265  40.905   4.078  11.047
86483W        W53266  20.325  24.531  12.650
86484W        W53267  22.185  28.163  10.541
86485W        W53268  43.924  31.843   0.213
86486W        W53269  41.086  10.071   0.321
86487W        W53270  23.733   0.995   0.791
86488W        W53271  37.376   3.668  14.253
86489W        W53272  31.845   2.342   4.618
86490W        W53273  44.912  32.134  13.922
86491W        W53274  14.150   9.920   2.733
86492W        W53275  23.729  14.215  11.646
86493W        W53276  13.667  27.175  12.114
86494W        W53277  27.216  41.536  13.987
86495W        W53278  25.470   3.092   3.650
86496W        W53279  12.149  10.198   4.277
86497W        W53280  20.014  15.277   3.230
86498W        W53281   2.349   2.287   1.982
86499W        W53282  30.029  37.637  12.126
86500W        W53283  41.201   5.522  13.534
86501W        W53284  10.572  21.234   4.154
86502W        W53285   6.146  19.834  13.512
86503W        W53286  42.337  30.655   2.357
86504W        W53287  15.351  11.912   1.940
86505W        W53288   0.973  16.618  12.791
86506W        W53289   2.917  28.658  14.229
86507W        W53290  44.169  20.219  10.699
86508W        W53291  22.799  10.435  10.283
86509W        W53292   3.040   6.188  12.922
86510W        W53293  17.773   9.873   3.969
86511W        W53294  20.498   5.305  14.119
86512W        W53295  30.409   9.243   1.425
86513W        W53296  35.482  29.566  12.395
86514W        W53297   1.806   7.044   3.807
86515W        W53298   7.204   0.799  11.694
86516W        W53299   2.485  26.132   3.946
86517W        W53300   7.229  23.007  10.730
86518W        W53301  40.421  24.042  11.110
86519W        W53302  22.693  11.579   0.792
86520W        W53303   0.942  44.780  14.396
86521W        W53304   2.834  13.426   4.412
86522W        W53305   1.824   2.827   0.876
86523W        W53306   3.799  34.287   3.044
86524W        W53307  31.171  27.946  13.896
86525W        W53308   2.464  16.719  10.665
86526W        W53309  42.900   1.798   1.923
86527W        W53310   7.053  16.186  12.720
86528W        W53311  29.904   4.675  11.580
86529W        W53312  12.098  16.630   1.954
86530W        W53313   2.079   7.371   1.848
86531W        W53314  21.877  19.060  10.886
86532W        W53315  10.257  12.682   0.257
86533W        W53316  39.770  36.044  12.842
86534W        W53317  25.042   4.957  14.412
86535W        W53318  35.322   4.007   0.396
86536W        W53319  17.779  36.159  13.223
86537W        W53320   9.090  34.037  14.466
86538W        W53321   6.891   7.277   0.640
86539W        W53322  12.723  13.889  14.098
86540W        W53323  11.769   1.476  13.923
86541W        W53324  31.428  17.656  12.999
86542W        W53325  11.386  30.141  12.840
86543W        W53326  41.053  36.048   4.452
86544W        W53327  26.963   1.249  12.979
86545W        W53328   1.570  17.769  11.704
86546W        W53329  25.924   0.360  11.140
86547W        W53330  28.569  23.586  11.435
86548W        W53331  27.641  16.362   3.837
86549W        W53332  20.189  27.665  14.996
86550W        W53333  30.508  18.086   1.872
86551W        W53334  27.277   9.316  12.520
86552W        W53335  16.638   8.877   2.701
86553W        W53336  13.253  15.134  12.954
86554W        W53337  37.703   9.183   1.477
86555W        W53338  15.572   1.926   3.671
86556W        W53339  23.502  43.549   3.559
86557W        W53340  18.587   3.668   4.121
86558W        W53341  34.776  12.397   5.324
86559W        W53342  30.733  12.749   4.283
86560W        W53343   1.072  25.650  11.955
86561W        W53344  10.173   4.463   3.313
86562W        W53345   2.942  24.458  14.322
86563W        W53346  26.713  34.025   0.813
86564W        W53347  41.787  30.123  14.302
86565W        W53348  14.139  33.654  12.274
86566W        W53349  44.456  33.176   1.886
86567W        W53350  36.715   4.454  11.680
86568W        W53351  10.664  34.114  13.846
86569W        W53352  18.161  16.688  12.366
86570W        W53353  18.304  31.565  11.672
86571W        W53354  25.306  33.934  14.943
86572W        W53355  27.899  10.507  14.522
86573W        W53356  15.253  12.002   4.850
86574W        W53357  18.203  19.418  11.995
86575W        W53358  40.956   7.381   2.325
86576W        W53359  35.604  27.367  13.702
86577W        W53360  41.307  17.273   4.791
86578W        W53361  21.625   3.162   2.745
86579W        W53362   9.130  42.821   4.030
86580W        W53363  23.570  21.474  14.894
86581W        W53364   7.371  40.377  12.032
86582W        W53365   9.146  36.468   2.272
86583W        W53366  19.743  43.934  13.450
86584W        W53367  22.261   2.061  10.341
86585W        W53368  23.170  39.267   1.383
86586W        W53369  22.172   3.410  11.878
86587W        W53370   3.823  25.516   0.375
86588W        W53371   3.163  30.579  12.343
86589W        W53372   5.481  24.286  13.403
86590W        W53373  24.922  13.553   0.890
86591W        W53374   0.869  21.185   0.260
86592W        W53375   3.864   3.447  13.711
86593W        W53376  43.530  20.646  14.262
86594W        W53377   6.274  29.244   0.030
86595W        W53378  21.300   2.298   0.366
86596W        W53379  22.207   6.925   2.612
86597W        W53380  21.502   3.814  11.508
86598W        W53381   9.657   9.957  10.680
86599W        W53382  17.245   1.420  14.428
86600W        W53383  26.968  33.455   3.953
86601W        W53384  41.317  32.533   2.917
86602W        W53385  15.842  35.436   2.776
86603W        W53386  32.647  43.766  12.995
86604W        W53387  39.059  29.498   4.598
86605W        W53388  36.251  30.611   2.600
86606W        W53389   5.882  16.613  13.152
86607W        W53390   3.421  21.901   1.847
86608W        W53391  20.749  13.749   1.213
86609W        W53392   2.491  12.230   0.689
86610W        W53393  31.499  37.365   2.010
86611W        W53394  39.518  15.171   2.609
86612W        W53395  38.999  12.857  12.382
86613W        W53396  36.308  12.902  11.390
86614W        W53397  17.688  15.092  12.990
86615W        W53398  42.996   8.382  12.925
86616W        W53399  32.087   5.921  12.489
86617W        W53400  37.402   7.578  13.495
86618W        W53401  37.641  40.384  12.908
86619W        W53402  14.577   3.747   0.653
86620W        W53403  44.124   5.363   5.396
86621W        W53404  44.240  26.213   1.369
86622W        W53405  14.890  28.841   3.179
86623W        W53406  23.587   4.713  10.820
86624W        W53407  43.545  34.620   1.634
86625W        W53408  31.550   5.209  10.924
86626W        W53409  41.452  37.916  12.100
86627W        W53410  35.854  10.454   3.380
86628W        W53411  19.262   1.581  13.259
86629W        W53412  29.875  18.728   0.246
86630W        W53413  24.533  23.195   0.203
86631W        W53414  33.531  44.889  13.494
86632W        W53415  42.460  17.659  11.072
86633W        W53416  19.160   7.464   2.862
86634W        W53417  33.115  30.235  14.045
86635W        W53418  41.964  42.291   3.859
86636W        W53419  15.385  25.186  12.956
86637W        W53420  38.545   6.445   4.119
86638W        W53421  10.892  36.828  12.210
86639W        W53422  26.655   4.458   2.453
86640W        W53423  20.485  33.657  14.082
86641W        W53424  12.787  36.335  10.416
86642W        W53425  18.060  18.289   0.912
86643W        W53426  27.829  44.674   0.830
86644W        W53427  24.839  22.078  13.823
86645W        W53428  24.626  20.184   1.364
86646W        W53429   4.888  38.361   0.803
86647W        W53430   5.407  30.345   2.814
86648W        W53431   5.240  19.312   4.277
86649W        W53432   4.192  12.538   3.716
86650W        W53433  12.903  39.071   3.667
86651W        W53434  41.757  13.282   1.275
86652W        W53435  40.731  36.004   0.790
86653W        W53436  24.342  11.321  11.694
86654W        W53437  18.065  42.136  14.371
86655W        W53438   4.958  11.200   0.292
86656W        W53439   9.826  43.825  12.564
86657W        W53440  25.838  16.263   1.391
86658W        W53441   5.839  10.661   2.662
86659W        W53442  27.469  41.754   2.210
86660W        W53443   5.819  36.086   3.225
86661W        W53444  44.375  38.404  14.771
86662W        W53445   7.831   3.922  13.577
86663W        W53446  20.193  11.784  12.476
86664W        W53447   2.507  25.985   2.632
86665W        W53448  43.490   3.474   4.612
86666W        W53449  28.441  17.128  14.352
86667W        W53450   6.745  14.143   4.099
86668W        W53451  17.858  26.439  11.453
86669W        W53452   6.115  35.532   3.694
86670W        W53453  44.910  41.752  10.770
86671W        W53454   7.616  33.408  11.689
86672W        W53455  24.539  43.601   1.828
86673W        W53456   9.297  11.583   0.304
86674W        W53457   1.344  29.123   4.553
86675W        W53458  25.478  12.691  13.334
86676W        W53459  13.651   0.003   0.271
86677W        W53460   5.805   9.909  10.594
86678W        W53461   6.838   7.147  12.990
86679W        W53462  12.142  20.823  12.349
86680W        W53463  44.273  37.511  10.360
86681W        W53464   0.152  32.576  10.696
86682W        W53465  44.859  10.367  11.103
86683W        W53466   2.362  25.051  14.957
86684W        W53467  43.309   3.056   2.715
86685W        W53468   5.653  26.933  11.646
86686W        W53469  17.665  27.084   4.709
86687W        W53470  23.586  35.810  12.860
86688W        W53471  15.027  36.362  13.374
86689W        W53472  10.520   4.097  12.647
86690W        W53473  12.301  40.264   1.437
86691W        W53474  10.860  38.927   2.345
86692W        W53475  28.848  23.072   3.690
86693W        W53476  18.837  42.786  10.287
86694W        W53477  32.231  25.200   1.345
86695W        W53478  39.290  26.572   1.271
86696W        W53479   0.418  12.210  11.119
86697W        W53480   5.481   7.864   4.573
86698W        W53481  18.307   2.798  14.896
86699W        W53482  31.111  31.348   1.454
86700W        W53483   7.344   1.687   4.232
86701W        W53484  40.513  40.336   4.522
86702W        W53485  43.291   2.862  10.815
86703W        W53486  16.419  38.042   4.157
86704W        W53487  16.683  22.753   3.666
86705W        W53488   3.957  39.324   2.877
86706W        W53489  36.836  24.531   3.205
86707W        W53490  16.721   6.732  14.563
86708W        W53491  16.255  10.774  11.631
86709W        W53492  18.287   2.757   3.679
86710W        W53493   8.331  17.336  12.480
86711W        W53494  26.970  35.931   1.467
86712W        W53495   7.761  28.533   0.820
86713W        W53496  43.973  11.430  13.717
86714W        W53497  29.905   3.887  14.474
86715W        W53498   4.868  25.176  12.491
86716W        W53499  11.232  39.818   2.444
86717W        W53500  42.437  36.835  11.625
86718W        W53501  35.387   8.802  12.089
86719W        W53502  44.319  25.122   4.632
86720W        W53503  38.557  22.136   4.245
86721W        W53504  43.686  25.545   3.617
86722W        W53505  38.474  12.540  12.923
86723W        W53506  32.391   3.738   2.788
86724W        W53507   5.304  41.386   2.387
86725W        W53508  18.581  24.150   3.113
86726W        W53509  42.395  37.063  14.884
86727W        W53510   3.163  23.715  12.537
86728W        W53511  11.833  42.866  12.139
86729W        W53512   2.462   0.530   9.655
86730W        W53513   5.266   8.122  10.962
86731W        W53514  18.297  11.968  14.354
86732W        W53515   2.371  15.684   0.399
86733W        W53516  29.113  41.958   0.309
86734W        W53517  37.006  26.954  13.391
86735W        W53518  21.003  42.851   4.366
86736W        W53519  30.115  20.987  12.432
86737W        W53520  41.258   2.732   4.934
86738W        W53521  16.294  14.831  10.248
86739W        W53522  27.614  31.427   3.302
86740W        W53523  23.208  24.030   4.542
86741W        W53524  21.421  43.111   1.693
86742W        W53525  31.894  15.831  14.279
86743W        W53526  10.120  23.117   0.887
86744W        W53527  39.761  31.278  12.259
86745W        W53528  12.339   2.865  13.497
86746W        W53529  27.914  35.933   9.850
86747W        W53530  22.099   2.161  11.896
86748W        W53531  42.621  10.735   5.048
86749W        W53532  10.386  29.460  12.443
86750W        W53533  37.872  31.192   2.636
86751W        W53534   8.651   6.177  14.124
86752W        W53535  12.001  11.458   5.359
86753W        W53536   5.741  18.213   4.126
86754W        W53537  14.816  34.567  12.996
86755W        W53538   5.464  25.754  13.543
86756W        W53539  38.293  18.585  12.284
86757W        W53540  11.395  12.172  13.940
86758W        W53541  31.610  15.096   3.446
86759W        W53542  10.258  39.973   3.427
86760W        W53543   8.099  11.699  12.844
86761W        W53544  26.706  26.079   3.592
86762W        W53545  39.437  10.250  12.158
86763W        W53546  34.669  44.983   1.479
86764W        W53547  18.133   1.966   1.180
86765W        W53548   3.324  25.977   3.008
86766W        W53549  37.799  37.001   4.173
86767W        W53550  25.683   1.321  11.606
86768W        W53551  43.332  12.429  13.974
86769W        W53552  27.847  36.767  11.517
86770W        W53553  13.595  23.094   4.587
86771W        W53554  28.359  37.637   4.176
86772W        W53555  11.395  10.299  10.298
86773W        W53556  29.911  44.991  14.495
86774W        W53557  17.239   9.060  11.076
86775W        W53558  29.065  40.279   2.330
86776W        W53559  38.473   1.351  12.131
86777W        W53560  39.839  13.687  12.930
86778W        W53561  10.111  28.713  13.780
86779W        W53562  37.138  34.402   1.946
86780W        W53563  38.890   4.414   4.730
86781W        W53564   5.840   1.553   4.250
86782W        W53565   6.123  30.916  14.931
86783W        W53566  16.248   6.472  14.077
86784W        W53567  32.434  18.044   2.290
86785W        W53568  37.924  39.486  14.897
86786W        W53569  29.692  19.600   4.396
86787W        W53570   9.940  15.337  11.433
86788W        W53571  24.146  22.957  10.579
86789W        W53572  14.814   1.517  13.898
86790W        W53573  35.494  43.960   3.958
86791W        W53574  13.010  18.302  13.456
86792W        W53575  30.662  37.809   1.230
86793W        W53576  34.437  24.227   0.363
86794W        W53577  19.002  27.779  12.962
86795W        W53578  13.907   1.497   0.427
86796W        W53579  31.184  30.435   3.132
86797W        W53580  43.888  22.435   4.753
86798W        W53581  25.416   1.075  10.707
86799W        W53582  33.894  36.541   3.184
86800W        W53583  15.204  14.573  11.580
86801W        W53584  44.861  34.089   0.216
86802W        W53585  31.244   4.347  12.451
86803W        W53586  28.254  20.209  11.535
86804W        W53587  35.336  43.484   3.781
86805W        W53588  30.129   5.888   3.831
86806W        W53589  13.119   7.747  12.420
86807W        W53590  22.122  15.144   1.237
86808W        W53591  16.490  43.284  11.149
86809W        W53592  25.829  16.093  13.014
86810W        W53593  12.607  22.017   2.495
86811W        W53594  14.073  27.443  11.982
86812W        W53595  32.660  43.445  13.522
86813W        W53596  23.987  17.470  12.434
86814W        W53597   0.296  17.355   0.213
86815W        W53598  36.109   5.318   4.521
86816W        W53599  31.351   5.411   4.855
86817W        W53600   4.314  23.686   4.391
86818W        W53601  25.049  31.114   2.766
86819W        W53602  28.619  31.109   4.690
86820W        W53603   8.257   5.300   1.807
86821W        W53604   6.465  13.169   4.329
86822W        W53605  14.389  20.090   3.718
86823W        W53606  36.072  29.455  12.078
86824W        W53607  35.459  41.433   2.185
86825W        W53608  14.377   5.231   3.077
86826W        W53609  40.050  30.641   0.335
86827W        W53610   0.531   9.610  10.618
86828W        W53611   2.207   8.141  11.263
86829W        W53612   2.862  28.901  11.092
86830W        W53613  20.758  43.775  14.511
86831W        W53614   8.249  17.206   4.178
86832W        W53615   0.230  38.086  14.414
86833W        W53616   2.717  38.902  12.896
86834W        W53617  19.768  42.415  10.637
86835W        W53618   8.470  24.907   3.424
86836W        W53619  17.609   6.631   1.824
86837W        W53620  25.028  37.850   1.938
86838W        W53621  35.455  22.717  14.003
86839W        W53622  12.734  43.760  14.723
86840W        W53623   0.944  37.889  11.622
86841W        W53624  42.816  34.330  11.160
86842W        W53625  20.623  12.889   1.787
86843W        W53626  12.807  42.860  12.456
86844W        W53627  44.260  30.986   2.958
86845W        W53628  24.747   6.816   4.105
86846W        W53629  17.962  31.190  11.567
86847W        W53630   6.424   7.814  12.023
86848W        W53631  29.998  20.612  11.758
86849W        W53632  39.932  13.396   1.877
86850W        W53633   9.276  25.315  12.473
86851W        W53634  18.296  28.747  11.277
86852W        W53635  33.914  14.182  10.514
86853W        W53636  38.304  12.232   0.380
86854W        W53637  38.107  24.763   4.702
86855W        W53638  42.300   7.394  13.759
86856W        W53639  17.336   5.368  12.022
86857W        W53640  24.937  14.305  12.905
86858W        W53641  23.525  16.371  12.008
86859W        W53642  43.090  41.465  11.568
86860W        W53643  28.658  44.778   0.432
86861W        W53644  24.449  33.180  12.381
86862W        W53645  10.190  18.719   3.347
86863W        W53646  12.834  38.098   2.782
86864W        W53647  18.167  43.480  12.451
86865W        W53648   6.832  25.761  14.836
86866W        W53649  33.256  28.532   2.193
86867W        W53650  10.460  33.648  12.740
86868W        W53651   9.605   2.999  12.009
86869W        W53652   1.132  32.421  10.645
86870W        W53653   2.150  43.817  11.939
86871W        W53654  18.458  39.647   4.008
86872W        W53655   8.377   6.822   4.368
86873W        W53656  23.507   5.700   2.331
86874W        W53657  31.017  11.827   1.440
86875W        W53658  19.255  29.950   1.513
86876W        W53659  13.767  17.715  14.385
86877W        W53660  25.538  34.671  11.957
86878W        W53661   9.811  37.873   2.323
86879W        W53662  10.297  42.475   4.267
86880W        W53663  20.158  34.994   3.704
86881W        W53664   6.409  43.859   1.540
86882W        W53665  38.812  14.165  12.447
86883W        W53666  11.098   9.393   0.853
86884W        W53667  34.154  19.761  14.769
86885W        W53668  14.779  12.546  11.128
86886W        W53669  25.529  43.109   4.139
86887W        W53670  41.357   2.691   2.398
86888W        W53671  15.333  13.860  11.134
86889W        W53672  31.908  37.934   1.512
86890W        W53673   5.630  23.935   1.258
86891W        W53674  11.283   9.846  11.180
86892W        W53675   5.910  16.175  11.782
86893W        W53676  21.615  11.861  11.760
86894W        W53677   7.783  22.784   2.420
86895W        W53678  26.300  44.885   0.832
86896W        W53679  17.393  26.699  11.576
86897W        W53680  28.096  25.736  12.917
86898W        W53681  20.820  36.944  12.441
86899W        W53682  36.360   7.304   3.152
86900W        W53683  13.530  12.620  11.655
86901W        W53684  19.295   8.065   0.389
86902W        W53685  31.380  35.967  11.644
86903W        W53686  39.029  34.476  10.580
86904W        W53687  25.017  42.217   3.105
86905W        W53688  13.788   3.696   2.283
86906W        W53689   4.902  19.740   1.311
86907W        W53690  15.700  42.817  13.655
86908W        W53691  31.021   7.193  14.791
86909W        W53692  27.782   8.689   2.052
86910W        W53693  26.543  44.119   3.523
86911W        W53694  26.694  20.653   4.706
86912W        W53695  40.491   9.302  11.656
86913W        W53696  10.282  11.221   2.295
86914W        W53697   3.880  16.137   2.929
86915W        W53698   5.969  26.069   1.415
86916W        W53699   7.271  19.715   4.167
86917W        W53700   8.447  34.018  13.526
86918W        W53701  32.955  43.248   0.349
86919W        W53702  32.343  27.106   2.140
86920W        W53703  32.574  12.066  14.427
86921W        W53704   8.381  35.679  14.448
86922W        W53705   1.349   9.789   1.453
86923W        W53706  44.496  41.606   2.268
86924W        W53707   5.222  17.723   1.097
86925W        W53708  12.369   5.322   1.710
86926W        W53709  30.455  34.159   4.646
86927W        W53710  42.061  41.946  11.522
86928W        W53711  11.176  33.899  10.722
86929W        W53712  17.037  21.480   2.404
86930W        W53713  40.396  34.820   2.315
86931W        W53714  13.803  34.881   4.835
86932W        W53715   1.616  20.772   4.779
86933W        W53716  31.449  43.468   3.752
86934W        W53717  16.856   2.859   3.108
86935W        W53718  40.368   7.673  14.288
86936W        W53719  10.598   7.636   2.671
86937W        W53720  29.891  18.472  13.362
86938W        W53721  37.781  14.617  10.976
86939W        W53722   6.868  26.980  14.448
86940W        W53723  20.256   4.409  12.594
86941W        W53724  14.011   0.447   3.063
86942W        W53725   0.853  35.280   4.175
86943W        W53726  29.564  43.497  12.030
86944W        W53727   4.708  40.348   1.643
86945W        W53728  35.679  17.205   0.315
86946W        W53729  20.493   1.260  10.712
86947W        W53730   0.341  14.810   9.882
86948W        W53731  41.533   5.931  10.674
86949W        W53732  25.065  18.915  13.742
86950W        W53733  11.374  34.055  14.982
86951W        W53734  27.712  12.216  12.591
86952W        W53735  19.517  31.677   4.335
86953W        W53736  30.470   6.732  14.522
86954W        W53737  27.554  32.053   0.463
86955W        W53738  42.718   0.694  14.316
86956W        W53739  12.049  38.413  14.964
86957W        W53740   0.407  14.170   4.648
86958W        W53741  19.129  35.605  12.175
86959W        W53742  25.033  28.624  10.872
86960W        W53743  37.566  32.636   4.074
86961W        W53744  14.767  27.822  10.746
86962W        W53745  14.303  32.708  11.892
86963W        W53746  13.238  27.633   4.239
86964W        W53747  44.580  29.127   3.435
86965W        W53748  24.679   3.656  12.561
86966W        W53749   4.723  34.354  14.943
86967W        W53750  12.339  37.376  11.846
86968W        W53751  38.945   6.431  11.221
86969W        W53752  44.075  15.833   0.289
86970W        W53753  17.291  21.680  14.976
86971W        W53754  37.549   5.537  13.958
86972W        W53755  44.591  12.794  13.091
86973W        W53756  14.578  27.977   3.670
86974W        W53757  41.294  20.650   2.441
86975W        W53758   9.878  11.744   4.548
86976W        W53759  28.434  14.174  10.623
86977W        W53760  21.766  14.684  10.550
86978W        W53761  37.583   8.273   0.665
86979W        W53762  11.602  10.963   4.700
86980W        W53763   8.873  24.279   5.077
86981W        W53764  23.418  16.625   1.039
86982W        W53765  26.176   2.897  13.487
86983W        W53766  14.256   0.255  12.969
86984W        W53767  17.390   8.573  11.125
86985W        W53768  39.045   9.014   1.465
86986W        W53769  44.730  27.085  12.605
86987W        W53770  35.399   3.230   2.907
86988W        W53771   4.559   7.825   0.970
86989W        W53772  34.976  31.148   3.127
86990W        W53773   9.065  38.787   2.987
86991W        W53774  10.646  35.794  10.462
86992W        W53775  10.194  10.601  14.496
86993W        W53776  27.897   7.617  13.791
86994W        W53777  11.283  37.080  10.537
86995W        W53778  15.623  26.183  11.629
86996W        W53779  35.431  18.558   3.666
86997W        W53780   1.408   7.477  14.077
86998W        W53781  30.539  32.563   4.190
86999W        W53782  17.267  30.410  13.987
87000W        W53783  10.250  17.845   2.915
87001W        W53784  20.251  37.974  10.590
87002W        W53785  39.110  35.391   1.261
87003W        W53786   5.759  32.523   2.342
87004W        W53787  25.536  12.241   3.541
87005W        W53788   5.454  18.879  14.693
87006W        W53789  14.150  15.273   0.797
87007W        W53790  33.124  37.533  10.570
87008W        W53791  25.389  17.552   4.838
87009W        W53792  35.166  19.286   3.238
87010W        W53793  26.037  27.690   3.853
87011W        W53794   8.412  15.308  11.552
87012W        W53795  31.138  26.956  13.479
87013W        W53796  33.354  31.109  12.622
87014W        W53797  41.775  15.757   4.192
87015W        W53798  12.994   9.328  12.465
87016W        W53799  44.375  28.646  11.410
87017W        W53800  39.299  15.896  11.489
87018W        W53801  20.389   2.797  10.694
87019W        W53802  24.862  43.747   4.162
87020W        W53803  44.269  12.752  14.600
87021W        W53804  37.077  13.728   4.750
87022W        W53805  18.285  16.199   3.821
87023W        W53806  39.556  14.695   1.870
87024W        W53807  42.277   9.846   0.860
87025W        W53808  33.183  24.646   3.334
87026W        W53809  28.508  28.915  14.236
87027W        W53810  40.290  15.163   0.399
87028W        W53811  38.378  24.682   3.110
87029W        W53812  36.376  24.583   2.923
87030W        W53813   2.198   4.240   4.891
87031W        W53814  34.207  36.275   2.423
87032W        W53815  42.231  26.966  11.383
87033W        W53816  35.987  13.147  14.056
87034W        W53817  13.106  18.831  13.616
87035W        W53818  14.187  30.160  12.975
87036W        W53819   7.737  23.789  12.956
87037W        W53820  36.923  12.080  14.430
87038W        W53821  34.517  44.286   0.625
87039W        W53822  29.132  35.322   4.111
87040W        W53823  24.549  40.878  13.497
87041W        W53824  23.077  11.355   0.194
87042W        W53825  18.140  36.386  13.719
87043W        W53826  35.000  12.043  14.639
87044W        W53827  33.454  13.788   3.224
87045W        W53828   7.412  31.201   2.197
87046W        W53829  33.489   9.034   2.323
87047W        W53830  42.209  15.833  11.212
87048W        W53831  12.292  25.013   1.690
87049W        W53832  32.583  20.756   2.310
87050W        W53833   4.304  17.527  10.702
87051W        W53834   9.670  11.065  12.285
87052W        W53835  39.539  36.517  13.627
87053W        W53836  35.027  12.272   4.600
87054W        W53837  43.085  12.618   4.068
87055W        W53838  33.030  39.558   2.674
87056W        W53839  16.743   9.075  13.338
87057W        W53840  31.138  11.276  13.453
87058W        W53841  10.019  30.721  12.174
87059W        W53842  28.222  16.356  10.015
87060W        W53843  19.211  44.827  12.332
87061W        W53844  35.492  41.343  11.707
87062W        W53845  16.155  17.341   1.826
87063W        W53846  44.546  30.050  13.820
87064W        W53847  12.435  40.871   2.263
87065W        W53848  25.691  43.462   0.796
87066W        W53849  23.944  19.380  13.112
87067W        W53850  43.201  30.162   2.151
87068W        W53851  22.540  43.096   3.320
87069W        W53852  43.956   9.615   4.248
87070W        W53853   2.871  14.505   1.304
87071W        W53854  40.265  44.817  12.436
87072W        W53855  20.216  38.428  12.310
87073W        W53856  18.737   5.944   3.712
87074W        W53857  43.584   7.705   2.743
87075W        W53858  31.449  39.429   1.808
87076W        W53859  40.728  25.107  13.735
87077W        W53860   1.433  12.616  12.081
87078W        W53861  23.073   1.978   2.337
87079W        W53862  25.557  23.090  12.558
87080W        W53863   4.335   8.260   2.718
87081W        W53864  13.233   0.444  14.435
87082W        W53865   9.739  30.157   0.428
87083W        W53866  12.564  19.121   0.314
87084W        W53867   9.643   5.993  14.743
87085W        W53868  40.407  31.491  13.446
87086W        W53869  10.491   2.688  10.170
87087W        W53870  17.238  13.887  11.614
87088W        W53871  27.399  40.126   3.565
87089W        W53872   2.074   6.979  14.557
87090W        W53873   6.986  30.080   3.227
87091W        W53874  17.820   5.200  11.091
87092W        W53875  38.848   6.783  10.879
87093W        W53876  14.327  25.008   4.912
87094W        W53877  44.353   5.747  11.574
87095W        W53878   4.788  25.633   4.231
87096W        W53879  36.877  37.649   4.598
87097W        W53880  24.146  17.155  14.833
87098W        W53881  30.288  41.280  13.808
87099W        W53882  24.763   4.271   5.005
87100W        W53883  24.672  30.195  11.961
87101W        W53884  19.667  26.550  12.897
87102W        W53885  20.988  34.337   3.223
87103W        W53886  34.092  33.102  14.355
87104W        W53887   5.785   7.909   2.145
87105W        W53888  35.544  18.956  14.797
87106W        W53889   9.263  31.461   0.321
87107W        W53890  11.802   6.152   2.669
87108W        W53891  17.733  25.250   2.274
87109W        W53892  26.988  27.579   0.816
87110W        W53893  15.548   7.365  12.926
87111W        W53894  42.072  18.976   1.786
87112W        W53895  40.409  23.443  12.901
87113W        W53896   0.687  28.406  11.819
87114W        W53897  43.349  35.567   0.390
87115W        W53898   2.052   6.835   4.793
87116W        W53899  19.104  10.375   2.889
87117W        W53900   7.847  11.332  12.173
87118W        W53901   7.890  14.225   3.173
87119W        W53902  23.313  44.387   1.498
87120W        W53903  28.495  17.175  11.112
87121W        W53904   3.913  23.768  12.875
87122W        W53905  18.109  20.671  11.557
87123W        W53906  18.709  22.390   0.805
87124W        W53907  11.186   0.234   0.291
87125W        W53908  33.186   9.289   3.974
87126W        W53909  42.503  20.144  10.622
87127W        W53910  10.808  40.798  11.446
87128W        W53911   0.786  35.762   5.144
87129W        W53912  31.211   5.915   1.242
87130W        W53913   1.754  27.393   3.288
87131W        W53914  44.011   6.185  12.460
87132W        W53915  34.245   5.258   0.363
87133W        W53916  40.782  43.229   0.783
87134W        W53917  22.832  29.374   0.279
87135W        W53918  26.944  31.603   0.923
87136W        W53919   7.759  36.598  12.549
87137W        W53920   3.353   4.223   1.249
87138W        W53921  41.447  36.081   2.907
87139W        W53922   7.288   7.964   3.768
87140W        W53923  30.453  25.786  12.478
87141W        W53924  15.186  12.808  14.309
87142W        W53925   4.207  36.904  12.987
87143W        W53926  28.709  18.045  13.994
87144W        W53927  16.881  38.346  12.627
87145W        W53928   2.059  27.515  13.414
87146W        W53929  32.241  15.408   0.242
87147W        W53930  16.242   1.507  14.203
87148W        W53931  16.651  13.622  13.734
87149W        W53932  15.401  30.101  11.910
87150W        W53933   6.554  18.262   2.620
87151W        W53934  37.080  33.606  10.289
87152W        W53935  26.173  19.115  12.456
87153W        W53936  28.241  38.691   1.272
87154W        W53937   4.975  20.255  13.355
87155W        W53938   4.234  17.753  13.925
87156W        W53939  42.060  22.431   3.635
87157W        W53940  28.453   4.404  10.577
87158W        W53941  43.336  42.478  10.532
87159W        W53942   2.214  34.026  14.011
87160W        W53943  30.903  29.098   3.208
87161W        W53944   8.271  10.705   0.695
87162W        W53945   9.751  42.032  14.803
87163W        W53946  32.987   9.589   3.623
87164W        W53947   8.745  16.779  11.133
87165W        W53948  26.097   5.937  12.269
87166W        W53949  14.615  23.087   4.720
87167W        W53950  10.136  15.295  10.783
87168W        W53951  32.895  19.503  10.078
87169W        W53952  12.099   1.220   2.809
87170W        W53953   1.896  40.314   4.333
87171W        W53954  42.180  15.063  12.944
87172W        W53955  28.375  26.529  12.008
87173W        W53956  13.181  26.350   0.708
87174W        W53957  22.195  20.402  14.295
87175W        W53958  20.623  12.113  12.605
87176W        W53959  44.858  11.682  10.598
87177W        W53960  40.908   0.965  13.731
87178W        W53961  43.714   3.888   2.153
87179W        W53962  34.688  23.069   3.705
87180W        W53963  33.556   4.281   2.388
87181W        W53964  23.210   7.176  13.107
87182W        W53965  27.745  23.207  13.643
87183W        W53966  28.592  36.098   4.023
87184W        W53967   1.085  20.020  11.136
87185W        W53968  13.796  38.480   2.775
87186W        W53969  28.591   7.434  12.663
87187W        W53970  26.790  24.029  14.637
87188W        W53971   2.489   2.882   2.650
87189W        W53972  32.351   9.614   4.829
87190W        W53973  35.392   9.975   0.285
87191W        W53974   9.278   9.535  12.750
87192W        W53975  33.329  14.305   3.203
87193W        W53976  11.546  43.410   0.560
87194W        W53977  38.175  35.999  12.091
87195W        W53978  41.231   7.409  14.812
87196W        W53979  33.901  21.043   0.339
87197W        W53980  36.418  19.687   0.803
87198W        W53981   4.331  13.510   1.418
87199W        W53982   9.749  21.661   1.505
87200W        W53983  24.948  17.827  14.372
87201W        W53984  43.487  37.058   0.336
87202W        W53985  24.552  33.380   4.554
87203W        W53986  21.168   0.482  10.636
87204W        W53987  10.777  28.910   4.176
87205W        W53988   1.814  20.985  14.204
87206W        W53989  22.947   5.259   3.983
87207W        W53990  39.517   7.594  14.506
87208W        W53991  27.278  28.049  11.201
87209W        W53992  12.431   1.642  10.731
87210W        W53993  33.676  22.194  11.578
87211W        W53994   6.413   4.834   4.119
87212W        W53995  36.488   3.215   3.212
87213W        W53996   5.917  28.331   1.376
87214W        W53997  30.146  34.496   1.104
87215W        W53998  20.302  42.818  12.053
87216W        W53999  33.992  28.665   1.775
87217W        W54000  17.557   4.805   1.726
87218W        W54001  17.536  43.875   2.770
87219W        W54002  15.035  15.870  11.083
87220W        W54003  14.796  16.506  13.911
87221W        W54004  36.851  38.173   3.148
87222W        W54005  12.870  24.635   0.428
87223W        W54006  20.145  43.463  12.482
87224W        W54007  15.468  30.543   0.818
87225W        W54008  13.320   0.669   3.254
87226W        W54009  44.122  32.891   0.985
87227W        W54010  26.074   2.177  14.041
87228W        W54011  16.742  28.943  13.431
87229W        W54012  10.464  35.334  11.375
87230W        W54013  28.707  14.034  11.084
87231W        W54014  14.091  18.211   0.426
87232W        W54015   7.851  23.043   3.287
87233W        W54016  18.662  25.512   4.592
87234W        W54017  16.194  10.938   1.346
87235W        W54018  44.500   3.046   2.256
87236W        W54019  20.275   2.247  10.204
87237W        W54020  31.596  22.514  11.157
87238W        W54021  10.809  16.171   4.645
87239W        W54022  41.831  26.957  10.739
87240W        W54023   4.924  20.781   4.777
87241W        W54024   6.443  19.816   4.641
87242W        W54025  19.235  30.894  12.013
87243W        W54026  16.053  28.378  13.755
87244W        W54027  41.749   7.948   2.103
87245W        W54028   0.814   9.048  13.463
87246W        W54029  14.687  40.549   1.548
87247W        W54030  16.367  33.840   4.691
87248W        W54031  35.977  32.141  14.401
87249W        W54032  23.491  26.190   3.116
87250W        W54033  36.037   1.599  13.091
87251W        W54034  22.676  32.826  10.681
87252W        W54035  35.055  18.504  12.028
87253W        W54036  19.322  18.304   1.091
87254W        W54037  44.449  43.261   4.196
87255W        W54038  40.882  25.283   3.234
87256W        W54039  29.855   5.386   4.636
87257W        W54040  15.270  19.520  13.384
87258W        W54041  19.152  37.491  12.562
87259W        W54042  22.072  38.324   0.347
87260W        W54043  26.069  26.418  11.991
87261W        W54044  19.759   8.148  12.909
87262W        W54045  34.117  18.114   2.785
87263W        W54046  31.349  42.704  12.430
87264W        W54047   6.884  16.672  10.883
87265W        W54048   0.768  27.879   4.656
87266W        W54049  25.689   5.381   9.781
87267W        W54050  31.368  31.153  11.172
87268W        W54051  40.432  29.884  13.791
87269W        W54052  42.042  22.715   4.112
87270W        W54053  43.562   3.470   9.945
87271W        W54054  10.093  29.700  12.849
87272W        W54055  29.242   4.921  12.898
87273W        W54056  24.521   1.496  13.008
87274W        W54057  40.641  16.732   1.756
87275W        W54058   3.775  13.312  13.792
87276W        W54059  41.905  17.353   4.070
87277W        W54060  25.427  30.056  13.367
87278W        W54061   0.256  15.383   0.769
87279W        W54062   4.880  14.614   2.701
87280W        W54063  23.739  33.987  14.866
87281W        W54064  27.750   3.864   1.828
87282W        W54065   9.832  29.066  12.947
87283W        W54066  26.639  20.830   0.909
87284W        W54067  20.286  43.246   0.572
87285W        W54068  39.812   0.067  12.503
87286W        W54069  35.913  37.667  11.896
87287W        W54070  14.197   7.713  13.547
87288W        W54071  20.077  42.537   4.553
87289W        W54072   3.335   2.796  11.065
87290W        W54073   0.728  22.500  14.456
87291W        W54074   8.508  39.041   5.069
87292W        W54075  17.645   8.653   3.735
87293W        W54076  10.812  21.334  13.575
87294W        W54077   6.236  36.739  13.047
87295W        W54078   2.964  39.291  10.727
87296W        W54079   7.688  11.369  14.841
87297W        W54080  39.070  23.668   2.848
87298W        W54081  35.531  43.400   2.728
87299W        W54082  41.349  15.720  13.154
87300W        W54083  39.050   7.979   2.392
87301W        W54084  20.091  21.310  10.046
87302W        W54085  28.194   5.367   0.945
87303W        W54086  17.192  14.615  12.637
87304W        W54087  31.144  11.324   2.308
87305W        W54088  14.845   4.825   1.852
87306W        W54089   2.373  43.678   2.403
87307W        W54090  30.751   5.433  13.601
87308W        W54091  27.470  12.276   3.688
87309W        W54092  35.211  34.947  10.707
87310W        W54093  22.537  21.333  13.574
87311W        W54094  21.524   3.977  12.038
87312W        W54095  42.346  14.916  11.974
87313W        W54096  14.085  10.323  11.462
87314W        W54097  21.237  28.195   3.663
87315W        W54098   6.884  28.634   4.572
87316W        W54099  10.706  24.925   1.301
87317W        W54100  18.314  21.197   0.395
87318W        W54101  32.775  31.942   4.199
87319W        W54102   8.839   0.606  11.527
87320W        W54103  25.251  27.074   1.658
87321W        W54104  13.546   0.927  11.108
87322W        W54105  35.698  34.035  11.452
87323W        W54106  43.353  21.965  11.386
87324W        W54107   2.781  11.898   5.029
87325W        W54108  13.384  41.305  12.111
87326W        W54109  43.357   2.559   2.778
87327W        W54110  20.181  23.504   2.708
87328W        W54111   4.636   8.479  14.785
87329W        W54112   2.408  30.726  14.511
87330W        W54113  29.404  35.033  12.082
87331W        W54114  32.430  32.178  14.954
87332W        W54115  13.713  25.909  11.558
87333W        W54116   7.437  29.415  11.287
87334W        W54117  35.395  44.890   2.757
87335W        W54118  11.119  20.304  11.048
87336W        W54119  38.937   7.108   1.891
87337W        W54120  44.968  16.959  14.629
87338W        W54121   0.965  21.512   4.486
87339W        W54122  38.510  15.198   1.436
87340W        W54123   9.786  23.030   4.827
87341W        W54124   7.554   8.390  14.348
87342W        W54125   4.184  33.598   1.522
87343W        W54126  40.460  23.193   4.422
87344W        W54127  32.199  17.575   2.299
87345W        W54128  26.561  37.944  10.538
87346W        W54129  22.817  17.087   3.589
87347W        W54130  15.119   6.848   4.622
87348W        W54131  15.179  11.618  13.871
87349W        W54132   0.609  26.015   0.322
87350W        W54133  28.696  26.484  14.874
87351W        W54134  36.900  11.751   0.813
87352W        W54135   9.688  36.379  12.544
87353W        W54136  32.806  39.365   0.573
87354W        W54137   1.725   6.576   9.740
87355W        W54138  39.058  38.121   3.242
87356W        W54139   1.911  40.795   4.073
87357W        W54140  31.569  19.028   1.478
87358W        W54141  22.747   5.175  10.602
87359W        W54142  26.391  21.328   0.350
87360W        W54143  23.337  13.769  11.975
87361W        W54144  23.287   9.631   0.866
87362W        W54145  42.336   3.820  14.381
87363W        W54146  41.908  14.420  14.554
87364W        W54147  17.017  22.061   0.330
87365W        W54148  12.923  41.443  14.018
87366W        W54149  18.282  29.256  13.531
87367W        W54150  15.858  33.894   3.361
87368W        W54151  29.400   4.623  11.107
87369W        W54152   4.062  20.919   4.544
87370W        W54153  38.356  38.532   0.564
87371W        W54154  12.862   8.126   1.493
87372W        W54155  13.243  29.670  12.874
87373W        W54156  30.123  37.527  10.741
87374W        W54157  16.808   5.942  13.594
87375W        W54158   3.501  19.943  13.079
87376W        W54159  32.411  37.491  12.671
87377W        W54160  21.926  26.454  14.518
87378W        W54161  16.690   7.450  12.143
87379W        W54162  26.590  44.703  11.547
87380W        W54163  19.051   9.277  12.738
87381W        W54164   9.617  11.548  13.654
87382W        W54165  34.226  20.704   0.933
87383W        W54166  24.819  33.939   3.849
87384W        W54167  37.611   1.976  14.478
87385W        W54168  21.614  28.450  10.696
87386W        W54169  35.849  16.678   1.216
87387W        W54170  19.591  43.023   4.008
87388W        W54171  10.266  34.365   1.632
87389W        W54172  41.598   4.472   2.813
87390W        W54173  37.558  42.958   0.881
87391W        W54174  41.630   8.075   2.674
87392W        W54175  10.765  10.482  11.599
87393W        W54176  14.678   3.422   1.995
87394W        W54177  24.496  41.194   4.513
87395W        W54178  28.915   1.363   2.173
87396W        W54179  10.359  12.294  13.067
87397W        W54180  36.099  35.966  12.933
87398W        W54181  13.275  27.457   0.017
87399W        W54182  17.555   7.362  11.949
87400W        W54183   8.631  32.073   2.983
87401W        W54184  28.196   4.831   4.374
87402W        W54185  10.326   9.276   3.213
87403W        W54186  27.091  30.973  13.361
87404W        W54187   8.003  39.502   4.674
87405W        W54188   5.942   7.980  12.075
87406W        W54189  12.077  31.026   2.338
87407W        W54190  30.862  16.103   1.878
87408W        W54191  42.464   6.036  10.714
87409W        W54192  24.428  22.241  11.118
87410W        W54193  31.409  29.641   2.800
87411W        W54194  25.357  19.130   2.163
87412W        W54195  14.072   1.777   3.348
87413W        W54196  23.627  17.204   3.340
87414W        W54197  12.314   8.804  14.071
87415W        W54198  42.580  17.816   4.998
87416W        W54199  27.266  36.082   3.840
87417W        W54200  33.714  33.979   0.680
87418W        W54201  15.119  29.052  12.953
87419W        W54202  39.931  22.743   3.436
87420W        W54203  20.677  14.947   4.648
87421W        W54204   2.912  14.109  12.811
87422W        W54205  29.752  34.413   3.287
87423W        W54206  30.346   5.286   4.769
87424W        W54207  13.314  36.926   3.774
87425W        W54208   9.316  22.660   0.833
87426W        W54209  15.451   9.323   0.404
87427W        W54210  36.380  36.017  12.474
87428W        W54211  30.846   1.905  13.349
87429W        W54212   2.512  21.468  11.191
87430W        W54213  28.088  43.043   3.854
87431W        W54214   8.798  26.932  11.949
87432W        W54215  33.518  32.142   5.037
87433W        W54216  40.872  37.739   1.686
87434W        W54217  34.607  35.364   1.247
87435W        W54218  41.310  12.863   5.089
87436W        W54219  17.731   7.603   2.188
87437W        W54220  16.624  23.728   3.526
87438W        W54221   9.804   8.406   3.382
87439W        W54222  38.517  38.370   1.025
87440W        W54223  17.977  37.489  13.353
87441W        W54224  14.995   0.449   4.611
87442W        W54225  17.798  27.837   4.099
87443W        W54226  29.848   7.426   4.592
87444W        W54227  28.130  19.647  13.922
87445W        W54228   9.862   0.199   4.014
87446W        W54229  12.535   2.473   4.080
87447W        W54230  40.644  36.846   4.613
87448W        W54231  11.868  41.431  14.034
87449W        W54232  22.279  33.695  14.465
87450W        W54233  36.421  21.069  14.785
87451W        W54234  29.884   2.011   2.658
87452W        W54235  28.561   9.419  12.856
87453W        W54236  34.946  33.381  11.587
87454W        W54237  13.941  17.502  14.857
87455W        W54238  17.594  24.506  12.878
87456W        W54239  16.505  31.051  10.668
87457W        W54240  20.066  15.506  13.803
87458W        W54241  17.455  43.437   1.093
87459W        W54242  17.086   8.944  14.433
87460W        W54243  26.075   3.748  10.240
87461W        W54244   6.347   7.959   3.927
87462W        W54245  42.438  15.236  10.713
87463W        W54246  42.525  11.707  11.149
87464W        W54247   7.972  42.884   3.759
87465W        W54248  33.922  28.866   3.867
87466W        W54249  13.518  22.538   4.083
87467W        W54250  42.302  42.161  13.381
87468W        W54251  36.624  23.930  11.571
87469W        W54252   3.770  41.051   5.011
87470W        W54253  38.438  20.636  12.046
87471W        W54254  17.770  38.622  12.910
87472W        W54255  28.508   3.297   0.104
87473W        W54256   5.866   4.887  10.417
87474W        W54257  25.149   0.694  10.920
87475W        W54258   9.837  29.661  11.602
87476W        W54259  22.606  41.578  12.012
87477W        W54260  30.019  31.988  14.851
87478W        W54261  10.624  16.287   2.573
87479W        W54262  42.313  17.083  12.757
87480W        W54263  41.336  23.509   4.071
87481W        W54264  25.028   4.827  12.039
87482W        W54265  26.738  25.553   2.605
87483W        W54266  29.043  38.598   0.893
87484W        W54267  40.575  31.559  10.808
87485W        W54268  33.379  24.653  12.112
87486W        W54269  17.640   5.151   3.191
87487W        W54270  44.989  10.752  14.402
87488W        W54271   1.996   4.418   0.462
87489W        W54272  22.631   3.221   2.153
87490W        W54273   2.263  12.752  14.412
87491W        W54274  31.602  27.493  12.897
87492W        W54275  16.121  19.122   3.445
87493W        W54276  36.833  19.093   3.674
87494W        W54277  23.523  42.232  12.231
87495W        W54278   6.181  30.880  13.108
87496W        W54279  24.294  11.716   1.739
87497W        W54280   1.017  20.029   1.729
87498W        W54281  28.899  27.953  12.095
87499W        W54282  14.609   0.197  13.398
87500W        W54283  32.461  32.329  14.445
87501W        W54284  39.502  22.070  10.960
87502W        W54285  23.657  36.023   4.595
87503W        W54286   1.732  21.830   3.359
87504W        W54287  42.305  25.177   1.683
87505W        W54288  31.861   9.416   3.601
87506W        W54289  34.165  25.034   2.202
87507W        W54290  10.295   7.168   1.418
87508W        W54291  43.892  20.770  11.596
87509W        W54292  39.867  24.875   4.251
87510W        W54293  44.802  18.541  14.394
87511W        W54294  18.519   6.231  14.271
87512W        W54295   9.634   9.251   2.769
87513W        W54296  31.141  11.665   0.949
87514W        W54297  31.532  13.337  13.641
87515W        W54298  11.343  35.000  14.952
87516W        W54299  13.090  16.642  14.490
87517W        W54300  32.536  38.000   4.727
87518W        W54301  20.481  21.296  14.013
87519W        W54302   8.344  21.085  14.915
87520W        W54303  29.440   1.340  12.928
87521W        W54304  14.196  15.621   3.602
87522W        W54305   8.542  39.897  14.411
87523W        W54306  40.232   8.543  13.791
87524W        W54307  40.895  19.635   2.730
87525W        W54308  24.408  18.639   4.167
87526W        W54309  23.629  34.006   3.838
87527W        W54310  10.761   1.055  10.447
87528W        W54311  12.127  37.922  14.295
87529W        W54312  42.020  43.154   3.385
87530W        W54313  37.974  14.085   4.302
87531W        W54314  13.668  31.904   2.473
87532W        W54315  12.083  34.883  14.218
87533W        W54316   0.193  44.540   2.883
87534W        W54317  35.955  26.121  13.559
87535W        W54318   6.191  19.507   3.032
87536W        W54319  13.948  20.575   0.355
87537W        W54320   3.960  14.614  11.087
87538W        W54321   7.254  39.878   3.269
87539W        W54322  42.980   2.421  12.864
87540W        W54323   1.198   7.426   4.611
87541W        W54324   2.820   1.408   0.787
87542W        W54325   0.935  40.823   0.160
87543W        W54326   9.716  31.617  13.000
87544W        W54327  37.155  13.258   4.155
87545W        W54328  11.315   9.172   3.298
87546W        W54329   5.883  27.115  12.088
87547W        W54330   0.058  36.829  14.773
87548W        W54331  37.100   8.241  12.140
87549W        W54332   1.749  20.844   2.947
87550W        W54333   7.225  10.708  12.525
87551W        W54334  17.855  11.677   3.202
87552W        W54335  23.020  16.560  12.067
87553W        W54336  10.168  13.224  10.543
87554W        W54337   4.829  17.159  13.375
87555W        W54338   2.739  17.647  10.712
87556W        W54339   0.591  15.627   1.557
87557W        W54340  41.371  12.898   2.742
87558W        W54341  34.642  38.955   1.358
87559W        W54342   1.869   6.536  10.233
87560W        W54343  29.961  28.607   4.703
87561W        W54344  35.590  28.613  14.012
87562W        W54345   6.905  41.512  14.499
87563W        W54346   4.430   3.510  10.523
87564W        W54347  27.553  22.186  12.623
87565W        W54348  19.363  36.572   0.925
87566W        W54349  16.034  25.584  12.468
87567W        W54350  19.014  17.061   1.381
87568W        W54351  37.265  38.009  10.876
87569W        W54352   7.156   9.364  13.836
87570W        W54353  41.946  40.031   3.223
87571W        W54354  42.931   5.966   0.887
87572W        W54355  17.122   8.380  13.497
87573W        W54356   9.295  25.109   0.238
87574W        W54357  36.591  33.537   3.206
87575W        W54358  19.253  21.659  12.980
87576W        W54359  31.791  19.364  10.192
87577W        W54360  15.637  19.028   2.101
87578W        W54361  11.279  33.976  12.927
87579W        W54362  18.167   5.260   0.765
87580W        W54363  33.150  43.843  14.513
87581W        W54364   8.715  31.733   1.176
87582W        W54365  13.752  26.418  11.519
87583W        W54366  27.899   8.416   2.484
87584W        W54367  25.739  42.345   3.710
87585W        W54368  36.353  10.586  12.703
87586W        W54369  27.218   6.728  12.082
87587W        W54370  20.966  17.147   4.322
87588W        W54371  36.810  15.379   4.633
87589W        W54372  43.011  21.115  10.555
87590W        W54373  43.302  33.179  14.485
87591W        W54374  15.196  44.241   3.241
87592W        W54375  41.770  20.818   0.200
87593W        W54376   9.379  10.603  12.947
87594W        W54377  28.261  27.242   3.216
87595W        W54378  34.031  16.240  13.378
87596W        W54379  23.970  32.375  13.782
87597W        W54380   8.780  31.428  12.579
87598W        W54381  44.468  42.704   4.170
87599W        W54382  23.493  21.487  12.669
87600W        W54383  19.512  36.935  12.143
87601W        W54384  18.605   5.215   2.496
87602W        W54385   4.286  17.102  10.989
87603W        W54386  28.463  38.408  14.727
87604W        W54387   0.614   5.187  11.801
87605W        W54388   9.576  18.970  11.112
87606W        W54389   1.306  27.599  12.928
87607W        W54390  39.146  30.999   1.949
87608W        W54391  14.166   7.082   0.275
87609W        W54392  25.691   7.265   0.865
87610W        W54393  18.527   0.768  11.644
87611W        W54394  14.197  29.357   2.580
87612W        W54395  35.157  16.733   3.725
87613W        W54396   9.149  22.948  14.117
87614W        W54397  28.020  36.031   4.540
87615W        W54398  40.309  21.005  12.002
87616W        W54399  27.623  20.965   3.743
87617W        W54400   1.694  37.753   4.180
87618W        W54401  38.806  22.187  13.932
87619W        W54402  19.136  26.104   1.348
87620W        W54403   6.328  31.268   1.345
87621W        W54404   2.501  35.965  11.645
87622W        W54405   3.722   0.253  12.426
87623W        W54406  33.666   8.097  12.074
87624W        W54407  10.378  36.813  11.450
87625W        W54408   1.082  29.517  14.519
87626W        W54409  21.467  19.498   4.566
87627W        W54410  22.049  22.289  10.699
87628W        W54411  41.783  31.878   0.937
87629W        W54412  28.447   1.070   1.968
87630W        W54413  36.038  21.510   2.735
87631W        W54414  28.951   5.260  10.649
87632W        W54415  27.219  31.939  12.083
87633W        W54416  12.250  28.128   2.533
87634W        W54417  31.211  20.643   9.943
87635W        W54418   4.855  29.418   4.118
87636W        W54419  35.463   5.938   0.394
87637W        W54420   1.709  21.723   0.105
87638W        W54421  10.258  34.352   4.228
87639W        W54422  25.156  23.768  12.518
87640W        W54423   1.194  43.012   3.761
87641W        W54424   9.261  28.819  12.177
87642W        W54425  43.849   6.659  10.988
87643W        W54426   7.890  11.318  10.692
87644W        W54427  29.179   5.864   0.063
87645W        W54428  29.033  21.663  14.024
87646W        W54429   9.287  22.514  10.176
87647W        W54430   5.907  24.640   2.834
87648W        W54431   1.527  35.347   0.721
87649W        W54432  11.442  19.490   2.425
87650W        W54433  11.922  25.750  14.251
87651W        W54434   2.924  17.079  10.721
87652W        W54435  44.742  29.678   1.660
87653W        W54436  33.606  17.894   1.839
87654W        W54437  25.256  23.033   3.643
87655W        W54438   0.446  32.349  13.875
87656W        W54439  33.171  44.403   4.583
87657W        W54440   1.242  12.124   2.347
87658W        W54441  38.345  30.985   1.886
87659W        W54442   7.930  44.923  13.175
87660W        W54443  28.430  36.621   2.797
87661W        W54444  33.641  16.168   3.190
87662W        W54445  41.270  18.009  14.813
87663W        W54446  14.167  21.270  14.594
87664W        W54447  36.256  16.670  14.323
87665W        W54448  23.969  27.168   0.362
87666W        W54449  12.057  10.722  12.860
87667W        W54450   6.751  40.503  13.968
87668W        W54451   2.089  12.872  13.932
87669W        W54452  30.589  29.257   1.786
87670W        W54453  17.260  41.423  10.917
87671W        W54454  41.108  27.726  11.183
87672W        W54455  41.730  31.306   3.687
87673W        W54456  16.094  42.967   4.180
87674W        W54457  31.031   1.481   1.785
87675W        W54458  36.922   6.652  14.308
87676W        W54459  12.502  12.357   1.694
87677W        W54460  34.917  18.016  13.187
87678W        W54461   8.838   0.821   3.978
87679W        W54462  37.042  31.688   5.087
87680W        W54463  26.037  17.198  11.416
87681W        W54464  19.521  40.734  13.457
87682W        W54465  19.659  26.310   4.988
87683W        W54466  10.628  23.615  12.474
87684W        W54467   0.625  40.395  11.946
87685W        W54468  36.400  14.274  12.962
87686W        W54469  13.202  17.139   0.351
87687W        W54470  43.199  31.817  12.457
87688W        W54471  25.491  34.249  14.116
87689W        W54472   6.792  10.592  11.102
87690W        W54473  36.536   3.998   1.721
87691W        W54474   1.673  13.985  12.446
87692W        W54475  36.186  39.763   2.249
87693W        W54476  42.035  15.183   2.814
87694W        W54477  25.657  20.142   4.162
87695W        W54478  44.856   5.286  11.077
87696W        W54479   5.944  18.181   1.316
87697W        W54480  34.420  16.817   2.439
87698W        W54481   8.973   1.721  13.544
87699W        W54482  21.631  29.181   0.934
87700W        W54483  28.080  16.779   2.658
87701W        W54484   8.863   3.400   1.961
87702W        W54485  37.811  16.210   4.526
87703W        W54486  14.858  43.004  11.419
87704W        W54487  19.405  31.291  14.746
87705W        W54488   2.224  37.443  10.527
87706W        W54489  21.539   7.725   1.863
87707W        W54490  16.804  31.188   1.741
87708W        W54491  14.700  11.321   2.446
87709W        W54492   7.317  14.832   4.278
87710W        W54493  18.040  30.995  12.889
87711W        W54494   4.673  38.988   0.911
87712W        W54495  14.811  38.227   0.699
87713W        W54496  37.728  11.030   2.623
87714W        W54497  34.028   2.440   4.069
87715W        W54498  41.455   1.983  14.308
87716W        W54499  25.556  23.552  12.774
87717W        W54500  10.623  41.916   4.223
87718W        W54501  31.452  34.035  12.050
87719W        W54502   4.420  24.174  13.332
87720W        W54503  13.364   3.014  11.202
87721W        W54504  35.935  20.249   1.213
87722W        W54505   3.189  10.690  13.906
87723W        W54506   4.222  21.498  11.580
87724W        W54507  31.933   7.044   5.114
87725W        W54508  42.491   7.114   1.385
87726W        W54509   3.923  42.083   0.476
87727W        W54510  41.730  10.761  12.554
87728W        W54511  30.907  31.147   0.429
87729W        W54512   2.486  27.666  12.482
87730W        W54513  23.728  30.375  12.986
87731W        W54514  38.365   0.274   1.310
87732W        W54515  37.001  14.243   4.896
87733W        W54516  10.375  14.396  11.807
87734W        W54517  33.489   9.107  12.142
87735W        W54518  27.063  26.298  11.105
87736W        W54519  21.797   3.808  14.881
87737W        W54520   9.828  34.167   0.894
87738W        W54521  34.946  15.340  10.643
87739W        W54522  40.811   3.482   1.283
87740W        W54523   1.793  32.258  11.343
87741W        W54524  28.030   3.910  11.221
87742W        W54525  26.927   3.660   1.364
87743W        W54526  17.385  19.450  10.870
87744W        W54527   4.949  29.563  14.787
87745W        W54528  17.380  13.030  11.846
87746W        W54529  20.133  15.690  11.560
87747W        W54530  10.784  31.066   1.005
87748W        W54531  13.697  26.995  14.356
87749W        W54532   7.525  20.136  13.283
87750W        W54533  35.713  14.088   1.966
87751W        W54534  34.821  41.420   5.230
87752W        W54535  39.380  33.472  12.619
87753W        W54536  16.258   0.683   1.270
87754W        W54537  22.923  21.606   4.085
87755W        W54538  35.940  26.026  10.641
87756W        W54539  43.769  22.231  12.027
87757W        W54540  23.731  22.481  13.741
87758W        W54541   3.821  19.948  11.032
87759W        W54542  25.895  33.665   0.820
87760W        W54543  22.250  36.486  14.890
87761W        W54544  25.231  22.648  14.781
87762W        W54545  32.649  43.925   1.212
87763W        W54546  13.105  20.043   1.640
87764W        W54547  13.190  40.530   2.385
87765W        W54548  44.714  26.350   1.157
87766W        W54549   0.555  31.331   3.146
87767W        W54550  14.276  35.133  13.912
87768W        W54551  41.585  34.844  12.001
87769W        W54552  32.279  39.971  14.254
87770W        W54553   0.842  32.052  13.960
87771W        W54554  33.311  19.557  10.551
87772W        W54555  35.506  14.014   0.285
87773W        W54556  39.274  17.605  13.460
87774W        W54557  38.140  10.143  11.080
87775W        W54558   9.365  31.953   2.763
87776W        W54559  24.967  32.926  12.173
87777W        W54560  22.959  17.010  11.786
87778W        W54561  10.477  40.679  10.915
87779W        W54562  19.762  32.111  11.083
87780W        W54563  36.589  16.706  12.846
87781W        W54564  32.503  20.420   0.371
87782W        W54565  35.573  19.815  11.160
87783W        W54566  10.042  41.498   3.841
87784W        W54567   3.525  41.450  12.501
87785W        W54568  32.546   9.136  13.960
87786W        W54569  42.316  14.232  14.260
87787W        W54570   0.957  26.501  13.903
87788W        W54571  30.587  21.504   1.195
87789W        W54572  15.358   3.039  12.352
87790W        W54573  22.248   8.358  14.715
87791W        W54574   7.227  34.669   3.284
87792W        W54575  30.079  35.556  13.040
87793W        W54576  32.162  37.487  12.221
87794W        W54577  13.535  35.591  11.396
87795W        W54578   6.258  25.437   3.684
87796W        W54579   3.952  30.448   4.187
87797W        W54580  10.114   8.113   1.676
87798W        W54581  19.025   6.146   1.962
87799W        W54582  14.756  40.759  11.173
87800W        W54583  32.508  12.378  14.897
87801W        W54584   6.915  27.212  12.703
87802W        W54585  26.733  38.910  13.977
87803W        W54586  26.271  35.078   3.644
87804W        W54587  19.554  18.583   0.722
87805W        W54588  35.683  20.081   5.168
87806W        W54589   5.292  24.213   2.430
87807W        W54590  38.091  29.761  11.201
87808W        W54591  42.366   0.525  14.889
87809W        W54592  11.562  34.318   3.686
87810W        W54593  35.357  17.760   2.771
87811W        W54594   5.244  31.617   3.672
87812W        W54595   3.891  22.783  12.127
87813W        W54596  30.473   2.807  11.565
87814W        W54597  27.511   5.645   0.211
87815W        W54598  40.040  22.585   3.926
87816W        W54599  44.781  26.061  14.547
87817W        W54600  14.590  18.246   0.438
87818W        W54601  26.311  12.677  11.062
87819W        W54602   2.452  17.494   1.197
87820W        W54603   8.684  19.897   2.101
87821W        W54604   5.047  27.779   0.321
87822W        W54605  16.885   0.456   4.962
87823W        W54606  36.994  17.630   4.189
87824W        W54607  43.007  34.539  11.584
87825W        W54608  44.394  24.700  12.088
87826W        W54609  15.024  18.557   1.173
87827W        W54610  25.149  33.661  13.277
87828W        W54611  14.539  21.680   3.899
87829W        W54612  40.062  18.173   3.972
87830W        W54613  30.472  13.092  10.703
87831W        W54614   4.650  16.008  14.354
87832W        W54615   7.280   1.391   1.952
87833W        W54616  37.495  13.834   3.267
87834W        W54617  16.146  39.803  11.849
87835W        W54618  31.620   5.159   0.788
87836W        W54619   9.224  30.089   1.282
87837W        W54620  34.327  38.038   2.714
87838W        W54621  40.033  29.964   4.136
87839W        W54622  34.236  24.129   3.821
87840W        W54623   2.904  39.803  10.728
87841W        W54624  25.189  15.756   0.408
87842W        W54625   2.508  17.642   3.594
87843W        W54626  31.682  14.273   2.813
87844W        W54627  10.915  28.728   1.768
87845W        W54628   6.768   4.126   4.461
87846W        W54629  15.868  41.928   4.574
87847W        W54630  19.011  27.622  14.537
87848W        W54631  13.356   6.333   3.930
87849W        W54632   4.274  12.365  14.748
87850W        W54633  19.824  43.724   3.120
87851W        W54634  36.026  17.804  12.986
87852W        W54635  10.187  26.425  14.189
87853W        W54636  38.606   5.862  10.026
87854W        W54637  21.499  24.612  10.257
87855W        W54638  21.469  17.077  14.288
87856W        W54639  16.281  40.074  14.843
87857W        W54640  41.849  31.394  14.655
87858W        W54641  44.995   2.656  12.840
87859W        W54642  34.574  13.883  10.335
87860W        W54643   7.308  35.349  12.464
87861W        W54644  29.445  35.995  11.672
87862W        W54645  42.760  18.132   4.620
87863W        W54646  26.213  11.265  11.086
87864W        W54647  12.601  25.222   3.684
87865W        W54648  35.692  29.375   4.143
87866W        W54649  41.763  18.577   1.884
87867W        W54650  25.982  21.791  14.466
87868W        W54651  25.896   3.563  11.141
87869W        W54652   5.404  12.248   1.800
87870W        W54653  41.996  29.514   0.901
87871W        W54654  32.652   6.494  13.952
87872W        W54655  25.712  16.525   1.860
87873W        W54656  36.334  27.563   0.912
87874W        W54657  21.798  38.368   0.823
87875W        W54658  29.609  22.194  12.481
87876W        W54659  10.825  24.975  14.881
87877W        W54660  37.338   9.798  12.353
87878W        W54661  26.386  14.022  10.189
87879W        W54662  42.932  40.144   4.784
87880W        W54663   1.330  23.251   4.576
87881W        W54664  18.537   7.271  12.939
87882W        W54665   6.647  10.656   0.446
87883W        W54666  12.398   8.473  11.693
87884W        W54667  25.210   8.607   4.543
87885W        W54668  19.243  37.104  13.500
87886W        W54669  41.014  14.187   2.293
87887W        W54670   7.344  39.288   0.994
87888W        W54671   6.461  40.853   1.781
87889W        W54672   0.951  40.044   2.683
87890W        W54673  28.002   1.509  11.141
87891W        W54674  34.700   1.454  10.790
87892W        W54675   6.309  11.395  13.351
87893W        W54676  20.215   9.221  13.900
87894W        W54677  17.300   0.253   0.205
87895W        W54678  27.905  42.539  12.517
87896W        W54679   8.895  20.957   2.918
87897W        W54680  32.454  28.913  14.954
87898W        W54681  41.741  25.071  11.696
87899W        W54682  10.440  31.609   4.684
87900W        W54683  23.472  12.052  11.100
87901W        W54684   6.849  27.517   4.370
87902W        W54685  31.877  14.118  10.570
87903W        W54686  12.319  11.366  10.318
87904W        W54687  18.280   0.248   3.154
87905W        W54688  37.072   7.140  14.317
87906W        W54689  32.151  28.873   4.474
87907W        W54690   6.146  17.631  12.546
87908W        W54691   9.230  14.261   3.585
87909W        W54692  32.308  43.362  13.152
87910W        W54693  10.697  39.371  10.618
87911W        W54694   7.165  22.314   1.824
87912W        W54695  12.817   1.551  13.036
87913W        W54696  35.202  14.553  12.476
87914W        W54697  18.501  23.764  12.686
87915W        W54698  44.620  18.539   1.903
87916W        W54699  16.868   9.340  10.860
87917W        W54700  18.333   7.716   1.404
87918W        W54701  43.218  22.456  13.461
87919W        W54702  30.019  10.147  14.874
87920W        W54703   8.654  40.578   0.071
87921W        W54704  19.673   5.821  10.413
87922W        W54705   5.125   0.846   1.787
87923W        W54706   0.523   0.823  11.648
87924W        W54707  17.598  24.429  13.779
87925W        W54708   4.468  38.806   4.220
87926W        W54709  40.886  23.016   0.774
87927W        W54710  16.086  25.193  13.453
87928W        W54711  11.338  23.582   3.816
87929W        W54712  42.023  44.471  13.458
87930W        W54713   1.357  22.695  13.997
87931W        W54714   4.439  27.226  13.117
87932W        W54715  32.621  16.277  11.755
87933W        W54716  12.607  39.869  13.898
87934W        W54717   7.825  10.749  10.575
87935W        W54718  24.200  41.898  11.647
87936W        W54719   4.279  21.592   1.405
87937W        W54720  14.793  39.418  10.611
87938W        W54721  31.593  16.550  10.685
87939W        W54722   3.055  19.570   0.442
87940W        W54723  38.942  23.661  10.652
87941W        W54724  25.020  26.141  13.675
87942W        W54725   4.217   3.376  12.507
87943W        W54726  16.213  22.232   1.517
87944W        W54727  15.787  40.587  10.595
87945W        W54728  11.886  43.081   2.778
87946W        W54729  31.373  42.879   1.885
87947W        W54730   8.729  33.063   0.800
87948W        W54731  26.119   8.184   4.879
87949W        W54732   7.440  20.623   4.657
87950W        W54733   6.317   4.250  12.374
87951W        W54734   2.201  40.730   1.929
87952W        W54735  32.066  43.382  11.483
87953W        W54736  43.464  35.018   2.312
87954W        W54737  29.651  10.315  14.458
87955W        W54738  36.626   7.742  12.965
87956W        W54739  12.728  44.995  11.183
87957W        W54740  11.035  38.052  11.628
87958W        W54741  12.298  15.597  10.871
87959W        W54742  19.106  26.901   4.130
87960W        W54743  21.667   1.014   4.434
87961W        W54744  35.198  14.048   1.919
87962W        W54745  14.824  20.722   4.313
87963W        W54746  21.401  28.946  11.298
87964W        W54747   3.775  33.920   4.451
87965W        W54748   5.198   3.782  13.071
87966W        W54749  13.667  37.450  13.820
87967W        W54750   6.710  35.922  13.372
87968W        W54751  30.409  19.553  14.474
87969W        W54752  37.361   8.102   2.685
87970W        W54753   8.474  22.227  13.925
87971W        W54754   9.268  16.166  11.839
87972W        W54755  32.694  43.814   2.240
87973W        W54756   6.736  29.363  13.462
87974W        W54757  34.291  26.286   0.423
87975W        W54758  40.898  40.703   1.870
87976W        W54759  25.729   8.809  12.685
87977W        W54760  35.127  19.770   3.085
87978W        W54761  42.833  16.662   3.748
87979W        W54762  37.391  31.142   2.312
87980W        W54763  42.516   9.729  10.955
87981W        W54764  13.536   5.721   1.003
87982W        W54765  44.724  29.966  10.674
87983W        W54766  42.440   5.697   4.632
87984W        W54767  41.576  43.308   4.634
87985W        W54768   5.918  17.278   0.978
87986W        W54769  15.770  41.153  10.071
87987W        W54770  32.925  19.807   0.456
87988W        W54771  42.421  39.043   1.360
87989W        W54772  27.145  34.509  12.340
87990W        W54773   2.964  39.525  11.178
87991W        W54774  14.136   7.630   3.518
87992W        W54775  21.410  16.145  12.570
87993W        W54776  14.694  33.685   1.228
87994W        W54777  34.695  41.989  11.685
87995W        W54778  41.135   0.904   1.774
87996W        W54779  10.634  11.653   0.819
87997W        W54780   2.979   6.427  14.824
87998W        W54781  37.101  21.522  13.378
87999W        W54782  19.087  30.028  10.963
88000W        W54783   6.830   2.294   4.344
88001W        W54784  22.610  42.591   2.594
88002W        W54785  41.047  18.017  10.773
88003W        W54786   0.992  12.853  14.544
88004W        W54787  20.724  37.965  10.818
88005W        W54788  22.670  28.211  13.581
88006W        W54789  14.137  14.242   0.873
88007W        W54790  12.607   5.677   2.905
88008W        W54791  15.856   5.353   3.100
88009W        W54792   6.356  36.582  14.509
88010W        W54793  22.985  29.229   4.346
88011W        W54794  28.100   7.719   1.687
88012W        W54795  29.742   6.685   3.605
88013W        W54796  42.737   9.293   0.229
88014W        W54797  34.010  37.400   5.060
88015W        W54798  15.858  13.702   1.858
88016W        W54799  39.952   2.844  13.628
88017W        W54800  24.594  38.569   1.511
88018W        W54801  30.082  10.407   0.329
88019W        W54802  12.305  42.905  14.270
88020W        W54803  21.980   1.873  12.300
88021W        W54804  27.067   8.716  14.966
88022W        W54805   3.336  44.337  13.402
88023W        W54806  12.914  23.212  11.301
88024W        W54807  22.494  43.376  11.508
88025W        W54808   1.101  37.974   2.297
88026W        W54809   5.886   2.082   4.254
88027W        W54810  29.602  13.309  12.530
88028W        W54811  35.423  11.841   0.450
88029W        W54812   8.341  13.415  14.632
88030W        W54813  24.017  44.293  13.403
88031W        W54814  18.501  22.273   2.342
88032W        W54815   0.978   4.953  10.278
88033W        W54816  28.114  31.962  13.159
88034W        W54817  21.856  39.349  12.389
88035W        W54818  30.952  20.043   3.150
88036W        W54819  12.174  15.911   0.542
88037W        W54820  34.007  11.713  13.796
88038W        W54821  24.441   7.939   3.897
88039W        W54822  29.115   4.152   0.707
88040W        W54823  19.972   8.035  14.617
88041W        W54824  17.060  22.431  10.229
88042W        W54825  32.407  36.820   0.473
88043W        W54826   7.671  14.234  13.826
88044W        W54827  18.782  30.955   1.819
88045W        W54828  43.148  42.000   3.193
88046W        W54829   6.181  23.515   3.857
88047W        W54830  40.875  17.327   0.836
88048W        W54831  19.224   9.818  10.534
88049W        W54832  24.230   5.865   2.343
88050W        W54833  18.445  20.082  14.993
88051W        W54834  39.293  30.546   3.923
88052W        W54835  13.055  28.012   2.837
88053W        W54836   1.832  37.262   0.542
88054W        W54837  10.316  29.561  13.290
88055W        W54838   9.449  42.006   3.092
88056W        W54839   6.323  29.681  13.462
88057W        W54840  15.245  25.452  11.094
88058W        W54841  29.135  10.319  12.272
88059W        W54842  21.832  17.252   4.399
88060W        W54843  23.595  36.950   3.523
88061W        W54844   4.220  42.786  14.956
88062W        W54845   1.029  19.643   2.400
88063W        W54846  43.504  19.993  11.455
88064W        W54847  40.535  31.745   1.757
88065W        W54848  40.638  19.588  11.043
88066W        W54849  36.052   1.341  11.175
88067W        W54850  16.769   2.771  11.170
88068W        W54851  27.538  26.458  10.967
88069W        W54852  43.786  23.725   2.810
88070W        W54853  16.882  29.950  13.311
88071W        W54854  28.007  37.008   2.586
88072W        W54855  18.585   1.159   1.152
88073W        W54856  42.308  13.646   2.350
88074W        W54857  37.895  37.459   3.917
88075W        W54858   4.758  14.400   3.731
88076W        W54859  20.046   6.892   2.801
88077W        W54860  11.021   0.344  14.823
88078W        W54861   8.661  20.754   4.409
88079W        W54862   2.715  37.010  13.536
88080W        W54863  16.707   1.781   4.718
88081W        W54864   4.992  13.049  14.248
88082W        W54865   1.178   4.419   2.590
88083W        W54866  32.207  34.399   0.686
88084W        W54867  24.270  13.407   0.436
88085W        W54868  28.874   0.522   4.443
88086W        W54869  18.083  44.383  11.509
88087W        W54870  11.384   1.020  14.376
88088W        W54871  36.090  18.978   0.320
88089W        W54872  26.080  12.075   1.733
88090W        W54873  27.062   9.093   1.416
88091W        W54874   0.824  25.237   3.078
88092W        W54875  43.471  40.512  12.387
88093W        W54876  42.306  40.075  11.968
88094W        W54877  36.718  29.564   2.793
88095W        W54878  38.785  41.303  14.871
88096W        W54879  22.087  33.087  13.111
88097W        W54880   7.633  37.498   2.165
88098W        W54881  17.880  34.584  13.438
88099W        W54882  18.233  25.651  13.109
88100W        W54883   7.102  44.911  13.940
88101W        W54884  18.708  25.012   1.823
88102W        W54885  13.938  24.131  12.924
88103W        W54886  26.126  40.697  12.896
88104W        W54887  20.064  35.643  10.677
88105W        W54888  11.091  27.170   3.706
88106W        W54889  29.855  34.433  13.817
88107W        W54890  20.591   6.681   3.342
88108W        W54891  10.936  24.287  12.203
88109W        W54892  38.560   2.765  11.075
88110W        W54893  30.884  21.945   3.251
88111W        W54894  14.712  42.844   4.783
88112W        W54895   8.183  27.146   1.761
88113W        W54896  15.677  42.019  12.553
88114W        W54897  17.259  37.342   1.484
88115W        W54898  15.217  39.959  10.326
88116W        W54899  39.328   6.135  11.053
88117W        W54900  38.360   2.990   0.572
88118W        W54901  39.941  26.574   0.892
88119W        W54902  33.864  44.435   2.261
88120W        W54903  10.331  22.249  12.513
88121W        W54904  25.534  43.291   3.643
88122W        W54905  22.382   8.546   5.064
88123W        W54906  27.762  20.966  10.104
88124W        W54907  15.866  40.060   2.180
88125W        W54908   1.150  37.022  13.012
88126W        W54909  22.433  31.616   0.983
88127W        W54910   8.921   4.314   2.830
88128W        W54911  34.979   4.467  13.857
88129W        W54912   5.832  21.602  14.866
88130W        W54913  21.285  15.764   2.174
88131W        W54914  25.984  41.102  11.128
88132W        W54915  26.926  24.639   3.224
88133W        W54916  21.600   3.738  14.421
88134W        W54917   8.121  43.926  13.435
88135W        W54918  11.274  22.957  12.097
88136W        W54919  41.916   0.436  12.906
88137W        W54920  15.783  21.708  11.456
88138W        W54921   0.302  43.797  10.635
88139W        W54922   8.938  37.488   1.699
88140W        W54923   5.748  35.069   1.422
88141W        W54924   2.852  33.106  10.728
88142W        W54925   3.432   8.673   0.701
88143W        W54926  15.706   1.452   4.874
88144W        W54927  43.281   9.850  12.492
88145W        W54928  31.126  23.732  10.715
88146W        W54929  25.547  28.925   4.712
88147W        W54930  44.733  13.105   1.457
88148W        W54931  20.946   2.786   3.283
88149W        W54932   9.651   3.163   2.211
88150W        W54933  32.599  42.277   3.888
88151W        W54934  28.081  41.975   4.778
88152W        W54935   8.130  14.969  11.084
88153W        W54936   0.665  16.549  11.813
88154W        W54937  42.268  36.525   2.387
88155W        W54938  32.313  33.107   4.125
88156W        W54939  40.246  26.990   0.733
88157W        W54940   1.804  28.997   4.325
88158W        W54941  12.369  28.533   3.236
88159W        W54942  13.650  20.052  12.857
88160W        W54943  11.135  14.378  13.545
88161W        W54944  44.007  12.380  11.723
88162W        W54945  15.818  12.150  11.601
88163W        W54946   5.474   3.358  12.877
88164W        W54947  33.926  22.056   4.090
88165W        W54948  26.652  12.305   3.276
88166W        W54949  39.502  13.637  14.914
88167W        W54950  44.281  22.322   0.116
88168W        W54951  30.526   8.376  14.100
88169W        W54952   8.166  32.891   0.446
88170W        W54953  37.578  25.673   1.422
88171W        W54954  34.567  25.233  11.456
88172W        W54955  31.581  24.480  11.664
88173W        W54956  34.862  13.226  13.242
88174W        W54957  40.950  16.847   2.176
88175W        W54958  20.232  11.290  14.003
88176W        W54959   4.301  15.897  13.531
88177W        W54960   1.898  38.680   3.172
88178W        W54961  31.488  15.856  11.526
88179W        W54962  30.594  12.450  12.449
88180W        W54963  20.538   1.148   2.150
88181W        W54964  11.226  42.505  11.605
88182W        W54965   7.847  24.149   2.180
88183W        W54966  21.083  37.854   4.507
88184W        W54967  15.844  34.374  10.234
88185W        W54968  20.657   4.660  12.924
88186W        W54969  24.061  24.951   3.070
88187W        W54970  34.472  29.653   3.914
88188W        W54971  25.018  12.546  12.066
88189W        W54972  28.088  36.500   1.454
88190W        W54973  18.888  16.104  13.287
88191W        W54974  13.111  25.147  10.696
88192W        W54975   0.527  35.429  14.118
88193W        W54976  26.953  23.004   3.248
88194W        W54977  32.829   5.141   3.183
88195W        W54978  10.667  13.107   4.694
88196W        W54979  37.901  22.804  13.829
88197W        W54980  21.776  14.781   1.357
88198W        W54981  42.193  34.071  10.372
88199W        W54982  25.578  37.421   2.528
88200W        W54983  41.573  14.257  12.074
88201W        W54984  35.289  15.213   1.256
88202W        W54985  34.010   4.951  11.246
88203W        W54986  26.444  30.592  12.850
88204W        W54987  22.191  28.871  11.082
88205W        W54988  34.532   3.417  10.533
88206W        W54989  16.244  41.350  14.240
88207W        W54990  30.836   8.059   0.958
88208W        W54991  14.614  44.681  11.212
88209W        W54992  41.451  40.687   4.141
88210W        W54993  10.130  36.510  13.385
88211W        W54994  40.437  18.541   3.221
88212W        W54995  44.728  43.793   2.871
88213W        W54996   4.797  35.603   2.656
88214W        W54997  16.574   4.643  10.755
88215W        W54998  32.012  43.397  14.161
88216W        W54999  15.136  29.462  12.599
88217W        W55000   9.704  25.927   1.406
88218W        W55001  10.776  33.791   1.335
88219W        W55002  15.602  31.688   3.105
88220W        W55003   6.358  24.220  11.122
88221W        W55004  35.649   9.700  10.492
88222W        W55005  19.976   3.068   0.393
88223W        W55006  11.193  22.653   1.209
88224W        W55007  41.349  28.447  12.470
88225W        W55008  33.617  32.913  14.210
88226W        W55009   0.464  33.661   0.937
88227W        W55010   6.383  21.260   1.687
88228W        W55011   5.481  31.714  14.069
88229W        W55012  15.273   7.628  14.026
88230W        W55013  44.449  30.263  11.145
88231W        W55014  24.257   4.462  11.367
88232W        W55015   3.368  19.935  11.443
88233W        W55016  32.170  18.114   0.229
88234W        W55017   4.364  25.562   0.218
88235W        W55018  23.605  25.570   0.283
88236W        W55019  26.385  33.941   1.232
88237W        W55020  11.918  33.944   3.699
88238W        W55021  30.014   7.391   3.801
88239W        W55022  13.346   0.714  10.677
88240W        W55023  37.358  11.964   2.750
88241W        W55024  12.198  32.926   3.561
88242W        W55025   9.323  41.050   3.233
88243W        W55026  28.176  30.449  14.811
88244W        W55027   3.929   0.889   1.328
88245W        W55028  27.028   9.026  11.002
88246W        W55029  10.419   3.936  13.631
88247W        W55030  32.842  15.733   0.944
88248W        W55031  30.623   1.533  14.101
88249W        W55032  37.486  22.503  14.971
88250W        W55033  44.477  36.501   2.894
88251W        W55034  20.307  19.142   1.471
88252W        W55035   3.788  42.010  13.615
88253W        W55036  44.909   1.805  13.255
88254W        W55037  14.607   3.894   3.363
88255W        W55038  14.384   8.936   3.560
88256W        W55039  40.392  10.674   1.888
88257W        W55040   6.416  10.194   4.212
88258W        W55041  39.518  42.702   0.887
88259W        W55042  12.565   7.581   3.322
88260W        W55043  41.979  15.695   2.796
88261W        W55044  28.578  42.843  11.887
88262W        W55045  31.364  33.945   0.889
88263W        W55046  38.124  37.406  13.082
88264W        W55047   4.543  38.074   3.279
88265W        W55048  31.001  18.764   4.075
88266W        W55049  17.823  30.005   1.089
88267W        W55050  23.693  43.272   4.949
88268W        W55051   2.402   9.354  14.269
88269W        W55052  34.981  24.820  13.953
88270W        W55053  34.654   5.388   0.640
88271W        W55054  12.144  20.526   3.452
88272W        W55055  25.213  37.583  13.430
88273W        W55056  14.144  27.885  14.133
88274W        W55057  30.203   1.372  12.316
88275W        W55058  44.384  22.465  12.794
88276W        W55059  36.605  27.965  11.246
88277W        W55060  16.228  29.629  14.400
88278W        W55061  30.633  21.157  13.459
88279W        W55062  30.585   2.945   4.115
88280W        W55063  31.900   1.983  10.524
88281W        W55064  13.849  11.679   3.702
88282W        W55065   4.553  22.092   4.560
88283W        W55066   3.995  21.628   0.943
88284W        W55067  43.565  35.378   0.817
88285W        W55068  40.412  28.402   4.126
88286W        W55069  28.703  17.759   0.726
88287W        W55070  31.881  15.075   2.779
88288W        W55071  37.926  27.312   4.137
88289W        W55072  29.761  14.591   0.050
88290W        W55073  16.244  21.770  11.191
88291W        W55074  11.138  20.723  11.464
88292W        W55075  32.987  19.317   3.178
88293W        W55076  10.897  27.442  11.378
88294W        W55077  13.706  23.065   1.364
88295W        W55078  24.019  36.389   4.662
88296W        W55079  43.089  32.467   4.872
88297W        W55080  10.866   2.775  11.445
88298W        W55081  11.781  19.187  14.302
88299W        W55082  11.200  30.561  11.878
88300W        W55083  38.111   3.992   1.483
88301W        W55084  28.151  11.734  13.773
88302W        W55085   4.879  43.485   3.196
88303W        W55086   2.366  35.132  14.764
88304W        W55087  28.159  26.928   0.092
88305W        W55088   5.144  26.479  11.360
88306W        W55089  19.123   7.790  14.754
88307W        W55090  41.918   5.187  11.839
88308W        W55091  34.926  34.839   1.856
88309W        W55092  30.890  44.959  11.632
88310W        W55093  31.038   2.872   2.299
88311W        W55094  25.441  42.500   3.105
88312W        W55095  43.364  37.624  11.590
88313W        W55096   0.413  15.002   4.863
88314W        W55097  29.064  16.414   2.353
88315W        W55098  25.267   3.092  14.866
88316W        W55099   7.369  23.425  12.048
88317W        W55100  33.997   9.837  14.566
88318W        W55101  21.365  27.801   3.152
88319W        W55102   6.896  31.371   1.852
88320W        W55103  12.090  44.907  11.984
88321W        W55104  16.881   2.088   2.768
88322W        W55105  22.790  35.611  11.531
88323W        W55106  28.516  21.134  14.006
88324W        W55107  29.905  23.794   2.977
88325W        W55108  44.911  28.917   3.092
88326W        W55109  41.920   0.515   3.880
88327W        W55110  19.732  11.550  12.585
88328W        W55111  15.273  43.764   4.150
88329W        W55112  15.056  33.548  10.568
88330W        W55113  35.164  42.346  14.903
88331W        W55114  25.359  17.233  11.963
88332W        W55115   6.394   9.425   2.055
88333W        W55116   5.795  18.104  13.607
88334W        W55117  33.068   2.267  14.943
88335W        W55118  15.070  27.092   1.307
88336W        W55119  42.822   9.432  12.115
88337W        W55120  10.614   1.914   3.379
88338W        W55121  17.653   7.368  14.019
88339W        W55122  25.719   0.598   4.518
88340W        W55123  39.869  32.598  12.447
88341W        W55124  43.416   0.524   3.331
88342W        W55125  13.406  34.300  11.047
88343W        W55126  15.623  40.252  10.969
88344W        W55127  40.517  34.540  10.676
88345W        W55128  18.255   5.858  11.235
88346W        W55129  43.446   3.952  14.884
88347W        W55130  38.335  15.451  11.691
88348W        W55131  41.001   0.384  14.476
88349W        W55132  31.422  32.217   3.855
88350W        W55133  16.125  42.915  11.227
88351W        W55134  22.228  19.130   1.452
88352W        W55135  19.517  35.040   2.629
88353W        W55136  31.898  11.461  13.942
88354W        W55137   7.254  27.731   4.601
88355W        W55138  14.157  31.867  11.574
88356W        W55139  10.717  43.887   0.148
88357W        W55140  16.632  17.877   1.197
88358W        W55141  22.930  14.820   3.265
88359W        W55142  36.752  33.589  14.441
88360W        W55143  30.982  44.337  14.213
88361W        W55144  37.437  27.202   2.843
88362W        W55145  36.883  35.707  13.360
88363W        W55146  18.407   7.132  13.434
88364W        W55147  34.988  13.611  14.820
88365W        W55148  17.876  13.721   1.199
88366W        W55149   7.252  15.179  11.933
88367W        W55150   8.460  29.797   2.293
88368W        W55151  36.408  44.311  12.005
88369W        W55152  30.159  10.866   4.490
88370W        W55153   8.800   8.270  13.843
88371W        W55154  19.196   7.142  13.532
88372W        W55155  25.231   4.218  14.907
88373W        W55156  38.448  30.248   2.832
88374W        W55157  43.257   4.947  12.158
88375W        W55158  38.385  31.988   0.411
88376W        W55159  39.511  42.391  11.489
88377W        W55160  20.896  38.943   2.909
88378W        W55161  38.669   1.758   3.152
88379W        W55162  19.203  19.771  14.482
88380W        W55163  26.108  17.097   1.307
88381W        W55164   8.654  15.545  12.394
88382W        W55165  20.943   1.701  13.990
88383W        W55166  19.599  13.187  14.421
88384W        W55167  10.786   1.267   4.815
88385W        W55168   0.348  21.472  10.766
88386W        W55169  10.211  26.085   1.383
88387W        W55170  14.387  43.905   0.697
88388W        W55171  21.768  40.729   1.302
88389W        W55172  20.103  37.282  14.768
88390W        W55173  35.137  27.020   1.451
88391W        W55174  22.196  36.034  14.274
88392W        W55175  12.636  39.768  11.426
88393W        W55176  43.854  20.794  13.438
88394W        W55177  18.024  16.998  13.161
88395W        W55178   3.331  40.988   0.929
88396W        W55179  10.887  25.439   1.339
88397W        W55180  31.912   0.600  13.412
88398W        W55181  21.618  24.851  10.709
88399W        W55182  38.513   0.526  13.718
88400W        W55183  30.441   6.481  14.969
88401W        W55184  25.693  12.366   3.065
88402W        W55185  29.602  16.425  11.111
88403W        W55186   4.636  23.223   2.486
88404W        W55187  40.859  28.087  12.893
88405W        W55188  42.274  28.212  10.912
88406W        W55189  28.442  28.649   3.176
88407W        W55190  17.197  15.161   4.092
88408W        W55191   5.225  40.834  14.483
88409W        W55192   4.679  29.227  11.038
88410W        W55193   8.685  22.675   3.198
88411W        W55194  40.286  20.415  10.981
88412W        W55195  40.928  12.754  10.709
88413W        W55196  43.211  16.691  13.375
88414W        W55197  11.709  32.022   2.452
88415W        W55198   1.907  13.183   1.385
88416W        W55199   3.496   3.603   1.843
88417W        W55200  18.019   4.204  12.459
88418W        W55201  25.870  18.707  14.967
88419W        W55202  18.270   2.443  14.505
88420W        W55203  43.188  12.334  11.252
88421W        W55204  43.892   2.648   1.385
88422W        W55205   3.796   9.825  12.864
88423W        W55206  14.651  26.482   2.841
88424W        W55207  25.987  14.526   3.114
88425W        W55208  27.253  43.899   5.090
88426W        W55209  38.824  35.409   0.830
88427W        W55210  14.721  41.642  10.716
88428W        W55211  20.129  32.164  12.046
88429W        W55212   8.012  28.442  12.402
88430W        W55213  21.558  36.844  11.131
88431W        W55214  11.310  12.062  13.031
88432W        W55215  44.460   0.418  12.766
88433W        W55216  23.230  41.901  12.808
88434W        W55217  37.305  39.057  10.720
88435W        W55218  13.241  32.055   1.306
88436W        W55219  33.745  44.375  12.759
88437W        W55220  39.054  21.568   9.973
88438W        W55221  18.579  40.789   2.254
88439W        W55222   6.122   5.355  10.336
88440W        W55223   9.821  44.739   1.884
88441W        W55224   5.581  34.806  14.996
88442W        W55225  36.506  38.863  12.185
88443W        W55226  34.599  37.998  11.604
88444W        W55227  36.477  42.558  13.390
88445W        W55228  33.934  41.209   4.098
88446W        W55229  39.114  40.746   1.609
88447W        W55230  43.498  24.172   2.790
88448W        W55231  16.907  23.329  12.914
88449W        W55232  10.288  35.790   4.608
88450W        W55233  39.843  21.174  12.187
88451W        W55234   4.436  41.856  14.922
88452W        W55235   5.801   8.997   4.098
88453W        W55236  19.940  33.960  14.890
88454W        W55237  23.138   1.227   2.653
88455W        W55238  17.614   3.756   4.430
88456W        W55239  24.578  13.301  13.003
88457W        W55240   3.704  22.755   2.884
88458W        W55241  39.578  13.728   2.785
88459W        W55242  11.752  31.767  13.060
88460W        W55243   0.158  42.586   3.157
88461W        W55244  38.800   1.214   0.102
88462W        W55245  13.862   9.350  13.634
88463W        W55246  19.763  36.106  11.647
88464W        W55247  26.816  16.501   4.654
88465W        W55248  28.190  27.121  11.108
88466W        W55249  44.934  42.272  10.906
88467W        W55250  25.582  35.035  13.418
88468W        W55251  33.624  33.075  10.977
88469W        W55252  38.442   8.127  13.967
88470W        W55253  21.836  34.169   1.319
88471W        W55254   1.849   0.516  10.754
88472W        W55255   9.079  43.239  14.363
88473W        W55256  43.664   5.009   4.524
88474W        W55257   7.226  21.047  10.918
88475W        W55258  29.529   0.212  14.823
88476W        W55259   8.783   1.428   3.048
88477W        W55260  16.160   2.025  14.158
88478W        W55261  36.339  42.450  10.437
88479W        W55262  10.332  39.585  14.171
88480W        W55263  37.844   9.780   2.242
88481W        W55264   8.881  23.599   1.735
88482W        W55265   3.482  36.065   2.659
88483W        W55266  40.809  10.094   1.203
88484W        W55267  12.105  28.456   4.113
88485W        W55268  33.341  38.473  12.937
88486W        W55269   4.881   1.379   1.925
88487W        W55270  20.102  37.953   1.212
88488W        W55271  28.568  39.592   4.135
88489W        W55272  11.320  40.632  12.045
88490W        W55273  39.943   9.428   3.711
88491W        W55274  18.833  18.072  11.964
88492W        W55275  11.872   2.461   2.908
88493W        W55276   3.813  22.486  13.455
88494W        W55277  19.569  38.363   1.723
88495W        W55278   3.910  33.159   1.486
88496W        W55279  11.928  23.283  14.336
88497W        W55280  36.378  39.395   3.066
88498W        W55281  44.820   9.263  13.117
88499W        W55282  11.169   0.711  13.060
88500W        W55283   2.514  42.837   2.363
88501W        W55284  24.552  22.300   0.397
88502W        W55285  30.714  14.368  13.369
88503W        W55286  44.878  34.807  12.963
88504W        W55287  24.723  36.006   1.311
88505W        W55288  37.006  16.014  11.634
88506W        W55289  24.934   7.589   2.167
88507W        W55290  38.289  23.572   3.232
88508W        W55291  29.475   2.734  11.645
88509W        W55292  25.360  32.378   1.405
88510W        W55293  41.029  40.079   0.834
88511W        W55294  40.363  12.028   4.763
88512W        W55295  22.311  17.373   1.811
88513W        W55296  18.548   0.717   3.214
88514W        W55297  29.978  44.505   2.564
88515W        W55298  35.858  28.413   4.171
88516W        W55299   0.397   4.602  12.292
88517W        W55300   7.288  12.221   0.844
88518W        W55301  19.277   3.969   4.675
88519W        W55302  39.958   1.410   2.404
88520W        W55303  33.620  18.096  10.751
88521W        W55304   5.421  24.718  11.186
88522W        W55305  33.525  33.652   5.002
88523W        W55306  30.345  15.080  12.874
88524W        W55307  30.546  35.427  14.934
88525W        W55308  27.951   2.463   3.621
88526W        W55309  19.243   5.315  11.083
88527W        W55310  33.183  24.532   4.143
88528W        W55311   8.949  29.634   2.255
88529W        W55312  15.207   0.199  10.659
88530W        W55313  42.561   5.845   5.363
88531W        W55314  25.047  12.625   3.050
88532W        W55315   2.352  26.341  11.219
88533W        W55316  21.147  10.864  13.946
88534W        W55317  16.606   2.167   2.295
88535W        W55318  39.770  23.816  14.412
88536W        W55319  43.946  42.544  10.615
88537W        W55320  36.328  20.347  10.741
88538W        W55321  18.322  11.822   3.437
88539W        W55322   8.092  37.536   4.084
88540W        W55323  26.623  15.522  13.428
88541W        W55324  30.885  13.187   1.262
88542W        W55325  16.314  30.925   0.904
88543W        W55326  39.428  33.528  10.598
88544W        W55327  32.810  19.558  12.542
88545W        W55328  38.491   3.022   1.859
88546W        W55329   0.421  15.538  11.541
88547W        W55330   5.587  12.312  12.104
88548W        W55331   2.359   8.252   4.177
88549W        W55332  26.754  14.174   3.236
88550W        W55333   4.551  42.793   5.102
88551W        W55334  24.961   0.860   0.366
88552W        W55335  30.776   0.754  10.712
88553W        W55336  41.972   6.724   3.284
88554W        W55337  12.446  32.574   2.360
88555W        W55338  17.313  30.371  12.191
88556W        W55339   9.198  39.248   1.493
88557W        W55340   2.983  38.886   0.919
88558W        W55341  42.943  21.320   1.992
88559W        W55342  35.214  27.154  11.408
88560W        W55343  18.628   4.982   0.888
88561W        W55344  31.461   9.211   4.464
88562W        W55345  20.989   5.847  11.713
88563W        W55346  23.603  22.700   2.811
88564W        W55347   3.755   4.735   0.445
88565W        W55348   1.223  17.871   4.113
88566W        W55349  24.443   0.207  13.507
88567W        W55350  21.719  14.775   4.533
88568W        W55351  20.058  34.950   3.181
88569W        W55352   4.623  20.262   1.421
88570W        W55353  18.283  29.076   4.581
88571W        W55354   8.309  44.252   1.343
88572W        W55355  25.046  44.342   0.258
88573W        W55356  32.621   9.312   1.881
88574W        W55357  22.221  35.895   2.177
88575W        W55358  10.651  16.629   4.885
88576W        W55359  43.815  30.473  14.936
88577W        W55360  19.694  39.164  11.519
88578W        W55361   2.551   6.970   4.904
88579W        W55362   4.247  37.686   2.576
88580W        W55363  12.865   1.906   1.452
88581W        W55364  43.436   4.614   2.690
88582W        W55365  31.648  11.174   2.109
88583W        W55366  32.969  30.430   0.474
88584W        W55367  29.353  44.888  12.583
88585W        W55368  42.419  37.062   3.719
88586W        W55369  11.743  20.788   2.222
88587W        W55370  40.919  39.775  11.928
88588W        W55371   6.352  37.622  14.460
88589W        W55372  44.534   9.968  13.074
88590W        W55373  16.171  42.174  11.384
88591W        W55374  10.086   9.210  12.574
88592W        W55375  18.665   3.144   1.623
88593W        W55376  25.143  32.169   2.706
88594W        W55377  43.892  10.322   0.026
88595W        W55378  15.191  33.855   1.270
88596W        W55379  34.110  11.327  13.334
88597W        W55380  38.471  35.402  14.846
88598W        W55381  21.173  30.024  11.959
88599W        W55382  36.219  39.491   4.105
88600W        W55383  39.486  22.401   2.196
88601W        W55384  16.881  18.962   1.805
88602W        W55385   3.864  29.431   4.148
88603W        W55386  19.561   8.167  13.952
88604W        W55387   0.895  38.560  13.888
88605W        W55388  32.708   5.874  14.412
88606W        W55389   3.783   1.564  14.918
88607W        W55390   7.139  18.187   0.801
88608W        W55391  16.476  19.241   1.236
88609W        W55392  39.914  20.247  13.103
88610W        W55393  30.729  35.502  14.040
88611W        W55394  38.897  30.842  14.916
88612W        W55395  28.945  22.664   0.380
88613W        W55396  28.098   6.948  14.293
88614W        W55397   1.497  23.164   0.603
88615W        W55398   7.141  37.449   3.555
88616W        W55399  38.560  33.345   0.268
88617W        W55400  16.744  44.115   3.650
88618W        W55401  37.569  15.972   0.952
88619W        W55402  34.538  40.091   0.454
88620W        W55403  21.276   8.689   4.035
88621W        W55404  34.494  42.196  10.715
88622W        W55405  15.155  25.751  12.416
88623W        W55406  37.542  15.574   2.730
88624W        W55407  32.527  10.170   2.221
88625W        W55408  44.948  23.290   0.182
88626W        W55409   2.821   0.028  13.527
88627W        W55410   2.940  13.655  14.885
88628W        W55411  26.154  22.119  10.652
88629W        W55412  39.579  11.124  13.598
88630W        W55413  33.004  35.215   2.718
88631W        W55414  20.749  26.441  10.700
88632W        W55415  41.850   9.822  10.560
88633W        W55416  20.002  26.426  12.451
88634W        W55417  13.809   2.991   0.446
88635W        W55418   0.368  33.828  13.548
88636W        W55419  35.221   2.773   2.777
88637W        W55420  17.483  40.769  11.064
88638W        W55421  16.165  19.609   1.507
88639W        W55422  12.161  31.188  11.528
88640W        W55423  15.526   8.236  11.112
88641W        W55424   6.389  21.496   1.191
88642W        W55425   4.127  24.508   2.411
88643W        W55426  30.020   5.380  12.027
88644W        W55427  43.571  43.718  13.303
88645W        W55428  18.189   5.531   1.749
88646W        W55429  43.444   7.664   0.448
88647W        W55430  16.148  41.458  11.917
88648W        W55431  42.045  20.383  14.006
88649W        W55432  34.575   0.400  13.884
88650W        W55433  32.737   9.819   2.849
88651W        W55434  19.063  11.208   2.426
88652W        W55435   9.813  39.153   3.202
88653W        W55436  42.205  25.286   9.903
88654W        W55437  17.217  33.450   2.583
88655W        W55438  14.166  10.094   4.783
88656W        W55439  17.682  42.899   2.725
88657W        W55440  37.011  14.762   2.856
88658W        W55441  23.716  44.913   0.292
88659W        W55442   1.041  41.221  11.721
88660W        W55443  12.090  26.352   3.131
88661W        W55444  35.645  18.266   4.103
88662W        W55445  32.933  20.719   3.179
88663W        W55446  11.996   9.749   0.656
88664W        W55447  26.041   2.368  11.842
88665W        W55448  18.531  36.591  14.772
88666W        W55449  39.432  11.497   4.678
88667W        W55450  40.342   4.743   3.671
88668W        W55451   9.165  39.104   0.529
88669W        W55452  27.997  32.970  13.951
88670W        W55453  27.881  38.395   1.505
88671W        W55454  13.583  34.555   2.697
88672W        W55455   5.300  22.956   1.934
88673W        W55456   7.386  11.324  13.947
88674W        W55457   7.039  34.253   0.430
88675W        W55458  22.685  11.147   0.495
88676W        W55459  23.505  33.054  13.298
88677W        W55460  23.163  43.356  14.969
88678W        W55461  25.711  21.279  13.627
88679W        W55462  20.736  13.266  11.154
88680W        W55463  38.024  31.575  12.433
88681W        W55464  43.319  35.602  13.631
88682W        W55465  37.429  10.197   2.550
88683W        W55466  25.524  23.571   1.656
88684W        W55467  19.788  16.739  13.968
88685W        W55468  30.949  13.642   3.951
88686W        W55469  41.809   3.398  14.854
88687W        W55470  35.524  14.087   0.801
88688W        W55471  20.788  42.402  10.863
88689W        W55472   5.347  16.060  11.206
88690W        W55473   4.550  20.090   2.401
88691W        W55474  17.601  40.910   2.293
88692W        W55475  35.020  31.435   0.231
88693W        W55476  36.381  18.812  13.641
88694W        W55477  14.827  36.624   0.450
88695W        W55478  28.052   0.480   0.895
88696W        W55479  44.530  10.204   4.382
88697W        W55480  35.334  27.524   0.750
88698W        W55481  43.378  28.676   3.243
88699W        W55482  29.859   1.449   4.618
88700W        W55483  32.838  34.507  12.732
88701W        W55484  43.085  35.415  14.073
88702W        W55485  40.883  29.617  12.966
88703W        W55486  11.344  37.530   3.610
88704W        W55487  13.618  38.025  12.436
88705W        W55488  31.982   3.627   4.294
88706W        W55489  40.910  12.298   3.645
88707W        W55490  16.722  23.191  13.406
88708W        W55491  34.696  38.437   1.094
88709W        W55492   2.247  16.096   0.109
88710W        W55493  30.028   1.944   4.617
88711W        W55494  15.314  33.153   4.535
88712W        W55495  41.488  37.473   3.187
88713W        W55496  41.433   8.669  13.084
88714W        W55497  13.641  41.563  11.152
88715W        W55498  17.909  12.322   4.008
88716W        W55499   4.250   3.124   0.531
88717W        W55500  13.012  27.903   1.465
88718W        W55501  21.446  40.900  11.531
88719W        W55502   4.679   0.035   0.903
88720W        W55503  18.226  42.310   2.368
88721W        W55504  37.512   0.378   1.990
88722W        W55505  24.696  42.672  11.480
88723W        W55506  38.501  21.691   3.483
88724W        W55507  42.194   1.727  14.899
88725W        W55508   8.255  42.654   0.581
88726W        W55509  10.372  13.326  11.515
88727W        W55510  26.451  36.503  12.971
88728W        W55511   4.882   3.896   0.269
88729W        W55512  41.310  31.051  13.544
88730W        W55513  41.823  28.751  14.415
88731W        W55514  36.358  16.184  12.336
88732W        W55515  42.327  20.270  12.088
88733W        W55516  27.953   5.820   0.981
88734W        W55517  20.919  35.705  12.018
88735W        W55518   4.348  10.513  12.868
88736W        W55519  16.828   6.799   1.369
88737W        W55520  35.406   6.824  13.067
88738W        W55521  13.362   9.138  10.887
88739W        W55522  44.831   2.285  10.712
88740W        W55523  16.899   4.901  13.413
88741W        W55524   5.618   1.813   3.876
88742W        W55525   0.933  24.528   1.453
88743W        W55526   7.665  13.681  10.653
88744W        W55527   4.681  22.026  11.069
88745W        W55528  22.584  13.721  12.140
88746W        W55529  11.689   2.977  12.909
88747W        W55530  34.872  29.820   2.349
88748W        W55531  20.212  21.113   4.557
88749W        W55532   8.927  26.741   0.741
88750W        W55533  21.160  20.718   4.703
88751W        W55534  19.753  25.011  14.386
88752W        W55535  37.907  39.553  13.016
88753W        W55536  11.482  26.275   1.845
88754W        W55537   0.105  41.436  12.462
88755W        W55538  30.671  43.448   1.653
88756W        W55539  12.615  31.153   3.676
88757W        W55540  31.472  26.666   4.634
88758W        W55541  37.972   7.653  10.535
88759W        W55542  21.941  29.532   1.237
88760W        W55543  24.138   1.541   5.250
88761W        W55544  29.378  38.880  14.484
88762W        W55545  23.445  11.183  14.453
88763W        W55546   9.683  11.151  11.105
88764W        W55547  26.663  31.199  12.001
88765W        W55548  30.855  24.181  10.672
88766W        W55549  41.889  33.978   3.639
88767W        W55550   9.598  18.719   2.108
88768W        W55551  23.828  38.352   3.637
88769W        W55552  44.874  24.589  11.277
88770W        W55553  38.434  33.297  13.906
88771W        W55554   5.978  27.522   3.726
88772W        W55555  16.787  43.138   2.892
88773W        W55556  22.003  16.873   0.676
88774W        W55557   9.850  34.663   4.173
88775W        W55558   1.261   2.712  12.244
88776W        W55559  33.044  30.627   4.658
88777W        W55560   7.183  22.318   3.676
88778W        W55561  38.238  21.290   2.739
88779W        W55562  38.889  26.712   3.720
88780W        W55563   1.061  28.629  13.371
88781W        W55564  25.573  14.605   2.203
88782W        W55565  20.990  21.726  12.473
88783W        W55566  26.709  27.960  13.367
88784W        W55567  23.875  24.213   0.813
88785W        W55568  26.443  30.903   5.009
88786W        W55569   7.116  41.905  13.405
88787W        W55570   2.365  22.335  11.991
88788W        W55571   0.304   9.766   1.954
88789W        W55572  25.526  20.590  14.678
88790W        W55573  24.207  33.177  14.380
88791W        W55574  28.834   0.239   1.337
88792W        W55575  12.271  21.495   4.598
88793W        W55576   5.952  38.864  14.841
88794W        W55577   0.464  22.093   2.290
88795W        W55578  22.505   5.056  13.987
88796W        W55579  41.292  15.582   2.006
88797W        W55580  37.032  15.107   3.263
88798W        W55581  35.050  27.454  12.600
88799W        W55582  27.205  27.496  14.552
88800W        W55583  26.601  13.694  11.020
88801W        W55584  18.777  34.596   1.847
88802W        W55585  22.279  33.930  11.200
88803W        W55586  40.071  32.049  14.494
88804W        W55587  35.900   6.230   3.031
88805W        W55588  24.247   6.815   0.420
88806W        W55589  15.893  33.932  14.900
88807W        W55590  33.472  13.019  11.677
88808W        W55591   6.264  35.944  10.009
88809W        W55592  34.125   8.682  12.800
88810W        W55593  20.087  22.959  12.619
88811W        W55594  38.497  44.016  13.035
88812W        W55595  25.958  29.219  11.496
88813W        W55596  18.339  17.731  14.851
88814W        W55597  28.983  35.663   2.122
88815W        W55598   1.887  37.488   4.593
88816W        W55599  12.143  34.119   4.169
88817W        W55600   3.745   7.170   1.293
88818W        W55601  24.533  22.991  14.252
88819W        W55602  33.123   8.232   1.343
88820W        W55603   5.754  39.683  12.338
88821W        W55604  18.710   4.940  13.157
88822W        W55605   6.433  21.151  11.729
88823W        W55606  35.534  32.417   0.891
88824W        W55607  14.315  11.181   4.178
88825W        W55608  26.661  28.945   1.117
88826W        W55609   6.734  24.061  10.779
88827W        W55610  23.487  20.729  12.622
88828W        W55611   4.882  16.354   2.074
88829W        W55612   1.980  13.809   2.591
88830W        W55613   9.083  23.650  13.416
88831W        W55614  11.677  19.805   0.681
88832W        W55615  22.796   9.381   1.698
88833W        W55616  36.180   6.928   3.601
88834W        W55617  28.137  14.274   0.891
88835W        W55618  28.168   2.775   4.582
88836W        W55619   0.818  40.375  13.283
88837W        W55620   7.194  28.493  12.665
88838W        W55621  36.345  42.373   4.112
88839W        W55622   7.390  19.738  12.935
88840W        W55623  35.020  25.241  12.075
88841W        W55624  12.635  33.232  13.517
88842W        W55625  22.024  14.214   1.380
88843W        W55626  33.144  20.869   4.188
88844W        W55627  35.880  18.102   3.613
88845W        W55628  18.208  32.899   4.271
88846W        W55629  36.993  44.774  12.421
88847W        W55630  33.464  43.212  12.440
88848W        W55631  34.603  26.463   4.661
88849W        W55632  24.540   4.189   0.218
88850W        W55633   1.427  22.217   4.961
88851W        W55634  30.160  17.013   3.262
88852W        W55635  34.153  19.471  11.839
88853W        W55636  38.938  27.136  11.177
88854W        W55637   1.995   8.111   0.409
88855W        W55638  37.417  11.780  13.412
88856W        W55639   5.842  41.845  11.584
88857W        W55640  16.346  14.053   2.860
88858W        W55641   9.920  42.913  10.774
88859W        W55642  39.513   2.682   4.331
88860W        W55643  14.117   8.114   3.394
88861W        W55644   5.807  20.658   4.536
88862W        W55645   1.021  10.891  13.577
88863W        W55646  20.462  32.179   0.713
88864W        W55647  41.918  22.348  13.261
88865W        W55648  24.011  16.076   5.044
88866W        W55649  31.999  40.414  14.297
88867W        W55650  30.267  13.124   1.885
88868W        W55651  43.008  43.355   3.359
88869W        W55652   8.912   8.680  12.154
88870W        W55653  43.352  44.994  12.474
88871W        W55654  20.191   4.864   1.792
88872W        W55655   4.129   2.018   3.660
88873W        W55656  24.594   9.437   1.687
88874W        W55657  38.212   1.068  11.276
88875W        W55658  35.638  20.857  11.983
88876W        W55659  16.018  19.245  14.325
88877W        W55660  22.807  13.111   1.785
88878W        W55661  20.602  24.705   0.412
88879W        W55662   4.435   2.350  12.549
88880W        W55663  20.706  14.221   0.528
88881W        W55664  17.076   7.196  11.944
88882W        W55665  43.739  24.038   3.235
88883W        W55666  11.002  28.143   4.346
88884W        W55667  10.760  44.351   1.944
88885W        W55668  15.686  36.548   3.873
88886W        W55669  43.835  27.279  12.071
88887W        W55670   9.459   4.952   4.072
88888W        W55671  44.853  21.136   1.988
88889W        W55672  10.015  23.737   3.280
88890W        W55673  44.611  25.555  13.894
88891W        W55674  15.031  11.099  12.104
88892W        W55675  19.760   2.065   3.331
88893W        W55676  35.315   4.486  10.593
88894W        W55677   1.368  26.942  11.809
88895W        W55678  21.338  23.769  10.095
88896W        W55679  28.994   7.557   1.735
88897W        W55680  15.780   7.505   1.706
88898W        W55681  41.524  43.141  11.549
88899W        W55682  40.282  17.840   3.624
88900W        W55683  43.367   7.221  14.724
88901W        W55684   9.685  40.398  10.660
88902W        W55685  44.921  43.753   0.025
88903W        W55686   0.979  43.795   4.586
88904W        W55687  27.469   5.801   0.769
88905W        W55688  12.763   4.656  13.707
88906W        W55689  31.184   2.013   4.512
88907W        W55690  20.839  36.090  13.784
88908W        W55691  19.140  18.765   1.946
88909W        W55692  15.747   6.708   2.277
88910W        W55693  14.587   7.349   0.923
88911W        W55694  36.698   3.773   0.920
88912W        W55695  42.279   4.531  13.076
88913W        W55696  14.789   0.923  10.148
88914W        W55697  42.040  23.042  12.063
88915W        W55698  25.132  33.342  10.984
88916W        W55699  32.525   7.848   4.076
88917W        W55700  35.306  30.381   2.825
88918W        W55701  11.976  11.284   4.880
88919W        W55702   9.486  18.302   2.409
88920W        W55703  43.918   1.058  12.087
88921W        W55704   1.890  11.270  10.819
88922W        W55705  44.270  42.422  13.084
88923W        W55706  18.267  10.402   4.880
88924W        W55707  28.873  13.468  14.393
88925W        W55708   6.140  30.622   5.224
88926W        W55709   1.463  14.683  12.037
88927W        W55710  21.588  41.222  13.104
88928W        W55711  22.091  42.463   3.875
88929W        W55712  18.630  25.731   2.230
88930W        W55713  37.092   7.918  13.791
88931W        W55714  32.758  20.831  13.901
88932W        W55715  33.776  40.835  13.894
88933W        W55716  41.987  30.532   0.499
88934W        W55717  11.398   6.911  12.092
88935W        W55718  19.841  41.483   2.744
88936W        W55719  15.335  37.462   1.624
88937W        W55720   4.827  13.893   3.662
88938W        W55721  32.557  39.956  13.795
88939W        W55722   5.661  33.566  12.615
88940W        W55723  11.391  18.682  10.311
88941W        W55724  12.351  41.979   0.393
88942W        W55725  17.599   6.350  13.990
88943W        W55726  22.686  15.461  14.364
88944W        W55727  11.779  21.599  13.133
88945W        W55728  23.573  28.080  12.570
88946W        W55729  43.036  37.882   1.967
88947W        W55730  34.187  27.482  11.993
88948W        W55731   3.469  18.315   0.160
88949W        W55732   8.338  31.619  12.372
88950W        W55733  15.521  14.272  11.965
88951W        W55734  42.386  26.978  11.867
88952W        W55735  31.979  16.014   2.325
88953W        W55736  18.741  11.077   3.263
88954W        W55737   7.706  30.026   1.878
88955W        W55738   4.728   8.961  14.571
88956W        W55739  18.161  24.915   2.280
88957W        W55740  15.805  28.599  10.803
88958W        W55741  35.902  39.050  12.865
88959W        W55742   6.845  13.170   2.357
88960W        W55743  28.005   1.014  11.062
88961W        W55744   5.808  10.991  10.605
88962W        W55745   3.347  22.192  10.623
88963W        W55746  33.719   2.887  11.825
88964W        W55747  15.335  24.085  11.863
88965W        W55748  28.466   6.023  12.006
88966W        W55749  24.692   9.043  13.090
88967W        W55750  30.553  36.287  10.737
88968W        W55751  40.593  15.788  12.292
88969W        W55752  35.541   6.864  12.148
88970W        W55753  37.263  10.762   0.954
88971W        W55754  42.327   0.244   0.334
88972W        W55755  38.474  17.996  10.695
88973W        W55756  33.367  12.171  11.147
88974W        W55757   8.124   1.631  14.017
88975W        W55758   8.637  37.388  13.038
88976W        W55759  14.610  44.365   0.914
88977W        W55760  34.905  31.801  12.462
88978W        W55761  19.182  26.283   0.818
88979W        W55762  36.084  11.155  11.532
88980W        W55763  23.826  20.426   2.225
88981W        W55764  34.644  19.048  14.068
88982W        W55765  35.013  13.358  13.721
88983W        W55766  44.249   5.303  14.274
88984W        W55767  39.565  28.066   0.816
88985W        W55768  39.195  31.395   0.384
88986W        W55769  33.947   5.354   0.807
88987W        W55770  12.290  35.826   3.537
88988W        W55771  23.930  15.577   2.349
88989W        W55772  11.312   5.459   0.267
88990W        W55773  32.652  24.240  12.152
88991W        W55774  36.441   2.871   4.592
88992W        W55775   4.254   1.940  11.970
88993W        W55776  20.052   1.545  14.048
88994W        W55777  41.698  44.921  10.457
88995W        W55778  17.460  20.129  14.756
88996W        W55779  24.150  17.033  12.981
88997W        W55780  39.180  33.095   1.292
88998W        W55781  38.147  10.188  14.924
88999W        W55782  38.908  24.198  10.774
89000W        W55783  37.080  22.578  11.451
89001W        W55784  43.989   1.936  14.063
89002W        W55785   4.334   5.365   0.996
89003W        W55786  10.266  44.247  13.814
89004W        W55787   2.313   3.135  14.464
89005W        W55788  34.458  15.832  11.071
89006W        W55789   9.864  12.576   4.333
89007W        W55790  33.000  12.492   0.529
89008W        W55791  13.591  32.673  14.156
89009W        W55792  19.832  40.772   3.238
89010W        W55793  10.443   0.963   4.521
89011W        W55794  36.446  27.379  13.588
89012W        W55795   5.419   1.153  11.218
89013W        W55796  19.754   7.319  13.580
89014W        W55797  21.568  22.598   4.700
89015W        W55798  38.790  22.102   3.688
89016W        W55799  31.868  28.461  11.995
89017W        W55800   8.800  38.863  14.247
89018W        W55801  44.763   8.930  14.701
89019W        W55802   5.830  18.248  14.504
89020W        W55803   8.625  22.673  11.482
89021W        W55804  32.815  22.279  11.322
89022W        W55805  11.697  28.529  10.667
89023W        W55806   4.908  33.015   1.979
89024W        W55807   5.302  16.892  13.361
89025W        W55808  14.567   2.478   1.749
89026W        W55809  29.040  13.440   0.279
89027W        W55810  12.862  34.047   1.889
89028W        W55811  27.892  39.608  11.202
89029W        W55812  16.280  38.565  13.418
89030W        W55813  21.928   8.767   0.386
89031W        W55814  43.770  42.538   0.739
89032W        W55815  20.246   0.411   3.162
89033W        W55816  44.880   0.053  13.397
89034W        W55817  41.448  37.830   1.205
89035W        W55818   7.297  42.857   2.778
89036W        W55819  29.238  37.607  10.059
89037W        W55820   0.792  35.499   3.697
89038W        W55821  40.956  44.266   3.142
89039W        W55822  41.361  22.014  14.505
89040W        W55823   1.731  16.141  12.009
89041W        W55824  13.116  31.690  12.941
89042W        W55825  39.412  21.009  11.971
89043W        W55826  27.939  18.648   0.038
89044W        W55827  39.372  13.792  13.106
89045W        W55828  32.169   3.977  13.090
89046W        W55829  31.831  16.745  14.774
89047W        W55830  36.584  26.330  12.771
89048W        W55831   7.003  18.312   4.951
89049W        W55832  26.705  19.685   2.303
89050W        W55833  41.869  16.483   2.503
89051W        W55834  19.107  20.028  14.928
89052W        W55835  15.763   7.586  14.830
89053W        W55836  31.372  40.265  11.805
89054W        W55837   7.828  44.363  13.422
89055W        W55838  31.998  13.280   4.558
89056W        W55839  20.367  20.599   4.632
89057W        W55840  12.366  14.626  12.313
89058W        W55841   1.999   2.337  11.009
89059W        W55842  21.035  32.924   2.848
89060W        W55843   1.910  35.963  14.974
89061W        W55844   2.627  40.069   2.249
89062W        W55845  30.449  30.653  14.781
89063W        W55846  13.578  10.272  11.373
89064W        W55847  20.553  13.800  14.181
89065W        W55848  34.517  29.697   3.404
89066W        W55849  25.159  19.169   0.267
89067W        W55850   2.816  23.739  14.762
89068W        W55851  10.350  38.770   5.037
89069W        W55852  21.183   9.673  12.949
89070W        W55853   7.173  25.287  13.916
89071W        W55854  19.781  13.526  10.972
89072W        W55855   3.176   9.183   2.738
89073W        W55856  26.306   2.932   3.830
89074W        W55857  37.802  43.489  14.690
89075W        W55858  39.285  14.806  12.038
89076W        W55859  17.684   7.247  14.963
89077W        W55860  40.472  41.492   0.920
89078W        W55861  40.428  12.342  10.940
89079W        W55862   8.220  31.766  11.103
89080W        W55863  42.749  15.918   4.916
89081W        W55864  21.825  27.170  10.624
89082W        W55865  12.716   2.320   2.714
89083W        W55866   0.144  10.873   0.671
89084W        W55867  40.135  33.045  12.423
89085W        W55868  17.771  15.246  13.554
89086W        W55869   4.614  36.896   2.785
89087W        W55870  41.993  27.503   2.158
89088W        W55871  12.930  31.283   2.361
89089W        W55872  35.941   9.464   1.672
89090W        W55873  28.139   8.210   1.506
89091W        W55874  27.856  44.447  13.105
89092W        W55875  36.977  27.837  14.320
89093W        W55876   8.177   8.977  14.450
89094W        W55877  12.370  21.890   3.218
89095W        W55878  27.681  12.251   3.223
89096W        W55879  38.912   5.353  14.894
89097W        W55880  32.368   1.782   3.688
89098W        W55881  40.439  37.333   3.659
89099W        W55882  27.364  15.761  14.993
89100W        W55883  27.234   3.826   2.717
89101W        W55884  19.311  27.084  13.464
89102W        W55885  24.227  26.848   1.744
89103W        W55886  42.340   5.631   3.724
89104W        W55887  15.206  12.385  12.513
89105W        W55888  16.200   8.229  13.571
89106W        W55889  39.772  42.475  11.068
89107W        W55890  34.495  33.371  12.029
89108W        W55891  35.095  21.910   4.942
89109W        W55892  38.816  24.707  13.844
89110W        W55893  34.967  18.652  13.958
89111W        W55894  18.052  14.817   2.646
89112W        W55895  38.099  41.038   0.012
89113W        W55896  32.436  25.000   1.788
89114W        W55897  18.067  38.799   3.421
89115W        W55898  26.575   4.285   4.387
89116W        W55899  39.004  35.531   4.318
89117W        W55900   8.032  37.243  14.814
89118W        W55901  27.207   1.830   5.153
89119W        W55902  18.010  23.746  14.827
89120W        W55903  37.013  23.157   3.345
89121W        W55904  11.189  18.542   4.214
89122W        W55905   5.842  29.504   4.319
89123W        W55906  41.800   5.255  12.334
89124W        W55907  36.533  21.572  14.852
89125W        W55908  25.536  12.134   2.190
89126W        W55909   8.070  14.245   4.684
89127W        W55910  15.845  43.240  13.927
89128W        W55911   5.249  43.507  14.525
89129W        W55912  29.873   3.483  13.488
89130W        W55913  30.892  26.740  11.266
89131W        W55914  33.149  19.650  13.550
89132W        W55915  26.700  19.604   0.403
89133W        W55916   4.781   1.348  13.574
89134W        W55917  21.277  33.114   0.220
89135W        W55918   8.438  12.875   2.176
89136W        W55919   9.378  37.036  11.482
89137W        W55920  20.514  20.306  14.802
89138W        W55921  36.746  40.622   3.687
89139W        W55922  23.741  30.134   1.481
89140W        W55923  42.280  27.098   0.781
89141W        W55924  30.449   3.493  11.978
89142W        W55925  13.176  24.468   1.972
89143W        W55926  17.627  22.410   1.902
89144W        W55927   6.931  16.301  11.236
89145W        W55928  22.656  16.393   4.560
89146W        W55929  36.409  38.749  13.536
89147W        W55930  27.318  33.084  12.495
89148W        W55931  16.230  17.309   4.468
89149W        W55932  37.147  11.260  14.245
89150W        W55933  23.816  43.823  13.443
89151W        W55934  25.178  37.890  10.765
89152W        W55935  27.188  44.605   0.405
89153W        W55936  20.669  33.841  10.771
89154W        W55937  13.231  20.278  14.705
89155W        W55938   3.841  10.119  11.621
89156W        W55939  43.373  23.981   3.817
89157W        W55940   1.068  21.608  14.269
89158W        W55941   5.700  15.987   1.712
89159W        W55942  23.232  31.249  11.183
89160W        W55943  26.104   3.705  12.908
89161W        W55944   1.847  23.560   0.686
89162W        W55945  13.201  16.863  12.470
89163W        W55946  20.534  13.902  13.302
89164W        W55947  36.308  34.790   0.037
89165W        W55948  33.860  19.374   0.791
89166W        W55949  28.391  13.041  14.101
89167W        W55950  26.913  37.110  11.663
89168W        W55951  15.840  41.586  12.785
89169W        W55952  15.198  42.303   3.824
89170W        W55953  11.829  36.262  10.188
89171W        W55954  16.702   7.760  12.543
89172W        W55955   4.203  23.067   2.235
89173W        W55956  14.992  14.325  13.014
89174W        W55957   2.995  33.561  10.932
89175W        W55958  23.779  31.079   4.662
89176W        W55959  44.621  34.962  13.411
89177W        W55960  44.584  27.677  14.331
89178W        W55961  16.173   4.692  11.505
89179W        W55962  34.527   1.423   4.533
89180W        W55963  37.709  35.587   2.241
89181W        W55964   8.455   9.227   3.480
89182W        W55965  12.582  33.412   2.012
89183W        W55966   4.915  25.445   1.766
89184W        W55967  14.322  42.335  13.292
89185W        W55968  18.989  22.455  11.170
89186W        W55969  32.585   6.406  12.999
89187W        W55970  19.283  27.023  10.643
89188W        W55971  10.938  11.198  14.607
89189W        W55972  26.495   9.956   3.229
89190W        W55973  30.903  40.258   0.901
89191W        W55974  19.558   1.922  11.546
89192W        W55975  14.294  34.914   4.038
89193W        W55976   3.072  13.108  12.357
89194W        W55977   2.347   2.866  10.819
89195W        W55978  11.205  18.373   1.023
89196W        W55979   0.059  42.847  13.608
89197W        W55980  18.204  10.798   3.156
89198W        W55981   8.430  42.811   3.427
89199W        W55982  18.212  29.642  13.176
89200W        W55983   1.578  14.672   4.886
89201W        W55984  14.740  26.753  11.828
89202W        W55985  44.942  20.047   2.811
89203W        W55986  31.224  28.818   1.151
89204W        W55987   7.874   2.856  11.509
89205W        W55988  26.186  31.304   0.414
89206W        W55989  14.198  41.511   3.144
89207W        W55990  21.003  12.752  12.940
89208W        W55991  40.569   0.541   4.375
89209W        W55992  11.370  21.970  14.958
89210W        W55993  44.935  15.115  12.220
89211W        W55994   5.383  10.907   0.057
89212W        W55995   1.717  34.065  11.140
89213W        W55996  12.574  20.651   0.217
89214W        W55997  10.347  26.647  11.330
89215W        W55998  39.300  10.192   2.605
89216W        W55999  12.425  16.497   2.869
89217W        W56000  41.498  44.850   4.335
89218W        W56001  27.419   9.614   2.233
89219W        W56002  27.536  20.507   0.007
89220W        W56003  43.026  22.036   4.855
89221W        W56004  23.589  34.121   3.345
89222W        W56005  24.983  12.263   1.452
89223W        W56006  38.743  21.256   4.118
89224W        W56007  43.376  28.891  12.103
89225W        W56008  15.753   9.692   1.419
89226W        W56009  36.311  14.582  12.007
89227W        W56010  25.729  37.579  13.448
89228W        W56011  38.097  39.972  11.543
89229W        W56012  21.265  19.783  12.378
89230W        W56013  37.793  19.285  12.918
89231W        W56014  40.599   0.540  11.079
89232W        W56015   2.855  14.312   0.832
89233W        W56016  43.998   0.194  12.411
89234W        W56017   6.290  40.262  12.120
89235W        W56018  21.962   7.257  12.510
89236W        W56019  10.675  32.547  11.924
89237W        W56020  10.976   2.680  12.327
89238W        W56021  29.395  17.209   2.130
89239W        W56022   4.333  18.946   4.563
89240W        W56023  34.402  15.219   3.891
89241W        W56024  17.862  14.617   1.673
89242W        W56025  19.759  26.096   2.033
89243W        W56026  14.346  28.359  11.062
89244W        W56027   1.562  13.260   0.850
89245W        W56028  24.160   5.760  11.979
89246W        W56029  29.422  12.898   2.168
89247W        W56030   9.287  32.674   3.721
89248W        W56031   1.565  26.050  11.422
89249W        W56032  25.073  11.460   2.302
89250W        W56033  31.106   1.901   2.107
89251W        W56034  39.790   8.318  13.998
89252W        W56035  15.838  16.609   2.790
89253W        W56036  19.230  44.399   0.215
89254W        W56037  14.091  15.748  10.867
89255W        W56038  14.628  12.199  13.403
89256W        W56039   6.925  38.792  14.156
89257W        W56040   0.342  39.666  13.565
89258W        W56041  20.007  37.935  13.776
89259W        W56042   5.108  17.169   3.740
89260W        W56043  27.102  26.448  14.388
89261W        W56044  16.876  19.492  10.746
89262W        W56045  26.733  18.187  13.402
89263W        W56046   8.364   3.243   3.364
89264W        W56047   0.681  11.752  11.099
89265W        W56048  23.959  34.806  11.489
89266W        W56049  26.104  20.589   0.950
89267W        W56050   5.313  22.077   2.872
89268W        W56051  37.965   6.685  10.646
89269W        W56052   6.487  30.081  12.444
89270W        W56053   1.921  20.237  14.765
89271W        W56054  17.330   6.343   0.911
89272W        W56055   3.280  10.796   1.682
89273W        W56056   1.303  21.542   3.116
89274W        W56057  35.364   1.384  10.786
89275W        W56058  17.229  11.525  11.483
89276W        W56059   3.067  39.897  14.973
89277W        W56060  31.688   8.306  10.768
89278W        W56061   3.492  43.836   1.470
89279W        W56062   6.723   3.799   4.860
89280W        W56063  20.970  22.958  13.846
89281W        W56064  15.831  22.500   1.299
89282W        W56065   9.888  42.282  13.526
89283W        W56066  18.768  33.914   2.282
89284W        W56067  19.433   4.297   1.715
89285W        W56068  12.699  41.776  11.567
89286W        W56069  27.137   3.449  11.019
89287W        W56070  17.081  26.528   3.171
89288W        W56071  21.250  36.919   0.372
89289W        W56072  23.578   8.672   0.948
89290W        W56073   1.669   0.790   2.748
89291W        W56074   7.305  40.012   0.340
89292W        W56075  19.298  34.452  14.486
89293W        W56076  40.633  16.246  13.946
89294W        W56077  19.244  32.107  10.391
89295W        W56078  40.380  38.928  13.235
89296W        W56079  44.854  43.049  12.153
89297W        W56080  15.812   2.864  11.431
89298W        W56081  25.201  26.605   0.899
89299W        W56082  15.266  17.125   1.374
89300W        W56083  21.114  12.724  13.982
89301W        W56084  13.989  30.873   2.903
89302W        W56085  26.187   5.438   3.831
89303W        W56086   3.007   4.786   3.733
89304W        W56087   8.102  35.970   1.439
89305W        W56088  27.400  37.565  14.376
89306W        W56089  25.938  41.016  12.459
89307W        W56090  27.655  27.020  12.858
89308W        W56091   7.022  21.633  14.774
89309W        W56092  18.355  31.443   2.300
89310W        W56093  20.178  27.944   1.311
89311W        W56094  44.015  18.085   2.806
89312W        W56095   0.911  22.884  13.554
89313W        W56096   6.978  42.366  11.722
89314W        W56097  13.553  36.136   4.171
89315W        W56098  41.270  30.292   2.626
89316W        W56099   5.211  12.775   2.627
89317W        W56100  36.820  32.554  14.542
89318W        W56101   0.938  23.904  14.767
89319W        W56102   4.835   2.360  12.930
89320W        W56103  32.681  34.825   0.418
89321W        W56104   2.241  26.718  12.460
89322W        W56105   7.108  16.222   2.306
89323W        W56106  15.732  31.991  11.254
89324W        W56107   8.117  26.696   4.649
89325W        W56108  41.223   9.144   0.240
89326W        W56109  27.964  13.843  13.452
89327W        W56110  42.259  41.896   2.880
89328W        W56111  41.374  15.377   0.947
89329W        W56112  11.848  29.616   0.959
89330W        W56113   3.264  17.867  14.956
89331W        W56114   7.317  12.281  10.707
89332W        W56115   4.097  22.077   1.184
89333W        W56116  27.570  15.560  13.728
89334W        W56117  15.595   1.206  12.545
89335W        W56118  35.880  12.617  11.492
89336W        W56119  19.661  11.729   2.674
89337W        W56120  10.509  12.248   1.622
89338W        W56121  10.601  13.838  12.119
89339W        W56122  42.104   8.080  14.814
89340W        W56123  15.124  13.397  13.396
89341W        W56124  17.821  10.288   1.923
89342W        W56125   9.154   9.395  13.801
89343W        W56126   1.269   9.300   3.571
89344W        W56127  16.309   6.793   1.453
89345W        W56128  14.177   1.450  14.607
89346W        W56129  42.919  25.343   0.723
89347W        W56130  33.233  10.254  13.646
89348W        W56131  33.486  39.447  13.987
89349W        W56132   5.532  38.380   3.395
89350W        W56133  16.198  23.979  13.006
89351W        W56134  41.905  40.558   3.228
89352W        W56135  11.315  33.124  11.913
89353W        W56136  21.211  13.536   3.690
89354W        W56137  26.621  24.765   4.997
89355W        W56138   0.684  37.742   4.092
89356W        W56139  19.645  38.188   1.216
89357W        W56140  34.899  37.388  14.012
89358W        W56141  14.738  16.646   1.786
89359W        W56142  10.213  32.197   3.625
89360W        W56143  18.229   0.233  10.528
89361W        W56144  16.817  37.782   0.888
89362W        W56145  40.837  16.516   1.322
89363W        W56146  37.284  39.835   2.685
89364W        W56147  36.710  22.395   0.825
89365W        W56148  16.088  26.534  10.568
89366W        W56149  36.420  23.962  14.491
89367W        W56150  27.174  28.124  13.540
89368W        W56151  28.541  14.314   2.677
89369W        W56152  37.391   9.370   5.016
89370W        W56153  16.865  29.952  11.648
89371W        W56154   8.745  30.522  11.986
89372W        W56155  36.870   8.044   0.612
89373W        W56156  19.451  17.844   2.249
89374W        W56157  14.652   4.831  13.499
89375W        W56158   5.474  22.194   2.373
89376W        W56159  41.460  39.536  13.805
89377W        W56160  28.647  32.769   2.588
89378W        W56161  38.954  29.058  12.006
89379W        W56162   5.965  42.490  13.945
89380W        W56163  23.942  38.101   4.269
89381W        W56164  40.992  23.226   0.300
89382W        W56165  36.531  21.724  11.507
89383W        W56166  36.535  10.268   4.815
89384W        W56167  22.778   9.138   0.839
89385W        W56168  16.740  36.919  14.715
89386W        W56169  36.003  27.551  13.389
89387W        W56170  41.953  22.187  13.945
89388W        W56171  21.407  37.076   0.855
89389W        W56172  35.058   8.229  13.909
89390W        W56173  15.057  26.493   0.898
89391W        W56174  28.433   5.992   3.241
89392W        W56175  36.517  10.754  11.245
89393W        W56176  37.316  32.006  14.070
89394W        W56177  10.126   5.981   2.329
89395W        W56178  25.302   6.201  13.485
89396W        W56179  20.657  21.501   0.784
89397W        W56180  14.766   0.487   4.105
89398W        W56181  24.677   0.575   2.231
89399W        W56182  21.608  38.816   1.242
89400W        W56183  25.067  10.174  12.213
89401W        W56184  25.925   8.881   1.237
89402W        W56185  15.585  21.208   3.722
89403W        W56186   4.794   4.569  10.349
89404W        W56187  23.340  40.544  11.674
89405W        W56188  15.311   1.989  14.320
89406W        W56189   3.898  37.046   2.229
89407W        W56190  10.033   6.253  14.504
89408W        W56191  28.912  16.664   3.860
89409W        W56192  44.486   6.174  12.848
89410W        W56193  30.006   2.748  13.930
89411W        W56194  13.686  28.065   0.412
89412W        W56195  43.942   0.255   0.225
89413W        W56196   9.259  37.152   3.666
89414W        W56197  27.904  37.285  11.640
89415W        W56198  35.136   9.215   2.787
89416W        W56199  26.525  34.487   0.665
89417W        W56200  25.238   5.506   0.324
89418W        W56201  12.664  26.429  11.830
89419W        W56202  16.171  24.245  13.943
89420W        W56203   1.257  42.119  13.995
89421W        W56204  21.069  22.583   4.843
89422W        W56205  11.688   8.421  10.256
89423W        W56206  17.206  29.048  14.765
89424W        W56207  14.693  37.493  14.649
89425W        W56208  13.245  33.239  13.134
89426W        W56209  33.933   7.216   0.961
89427W        W56210  17.554  21.746  10.449
89428W        W56211   0.350  12.327   3.446
89429W        W56212   8.037  36.504  12.978
89430W        W56213   5.305  15.698   3.692
89431W        W56214  29.011  21.211  14.818
89432W        W56215  13.117  31.135   4.845
89433W        W56216  21.000  17.614  10.426
89434W        W56217  35.760  26.550   0.793
89435W        W56218  36.055   6.279   5.414
89436W        W56219  14.634  42.422   2.706
89437W        W56220  36.297  29.940   3.604
89438W        W56221  37.528  42.826   4.820
89439W        W56222  42.098   0.693   1.559
89440W        W56223  30.214  35.630  13.530
89441W        W56224  39.949  16.341  13.442
89442W        W56225  27.732   6.896   1.201
89443W        W56226  43.404  14.608  13.406
89444W        W56227   3.006   8.484   5.000
89445W        W56228  17.820  38.107   2.318
89446W        W56229   5.817  38.534   0.661
89447W        W56230   0.363  40.560  11.354
89448W        W56231  21.769  22.603   1.763
89449W        W56232  27.451  36.106   1.244
89450W        W56233   8.202  22.440   0.191
89451W        W56234  42.547  30.203  12.060
89452W        W56235  30.112  33.480  13.875
89453W        W56236  11.598  41.138   1.882
89454W        W56237  10.307  11.782   1.727
89455W        W56238  23.464  23.127   1.662
89456W        W56239  23.687   7.773   0.450
89457W        W56240  18.356   0.715   0.862
89458W        W56241  20.691  13.528   3.690
89459W        W56242  21.135  26.903   2.892
89460W        W56243  22.267  40.140   0.443
89461W        W56244  27.909  26.540   4.704
89462W        W56245  30.702   0.760   3.645
89463W        W56246  20.958  41.994   2.314
89464W        W56247   7.427   7.772  14.967
89465W        W56248  39.845  37.056  11.850
89466W        W56249   5.314  28.685   1.948
89467W        W56250  12.150  13.641   2.771
89468W        W56251  43.334   1.519   1.295
89469W        W56252  29.703  27.714  14.478
89470W        W56253  34.124  39.289   0.389
89471W        W56254  39.559  36.960   0.394
89472W        W56255  37.347  21.991   2.787
89473W        W56256  19.191  12.745   0.643
89474W        W56257  40.400   2.983  11.962
89475W        W56258  41.774  18.585  13.547
89476W        W56259  29.604   6.290  12.487
89477W        W56260  20.203  26.163   1.742
89478W        W56261  23.128   7.873  10.592
89479W        W56262  33.561  38.809  10.774
89480W        W56263  17.701  38.110   1.378
89481W        W56264  17.611  28.010   0.920
89482W        W56265  20.798  27.669  12.117
89483W        W56266  36.085   5.740  14.793
89484W        W56267  22.507   1.900  11.733
89485W        W56268  19.830   9.300   1.775
89486W        W56269  23.026  23.987   2.869
89487W        W56270  40.207  30.423  10.043
89488W        W56271   8.363   1.972  12.899
89489W        W56272  38.997  31.948  12.443
89490W        W56273   0.499  33.990   3.071
89491W        W56274  22.233   6.309   9.981
89492W        W56275  17.112   5.757  12.283
89493W        W56276  30.452   5.432   3.834
89494W        W56277  42.977  15.307  13.613
89495W        W56278  16.262  26.077  10.827
89496W        W56279  30.894  21.956  11.155
89497W        W56280  24.114  41.501   1.355
89498W        W56281  39.643   0.550   4.587
89499W        W56282   9.786  36.902   4.520
89500W        W56283  13.786   6.205  14.301
89501W        W56284  37.230  21.493   1.843
89502W        W56285   4.119  20.401  11.744
89503W        W56286   4.340  44.618   4.122
89504W        W56287   2.806  44.495  12.083
89505W        W56288  36.856  43.272  14.612
89506W        W56289  11.939  33.108   3.136
89507W        W56290  26.587  37.072   3.331
89508W        W56291  16.204  24.208   2.306
89509W        W56292   9.282  23.409  10.909
89510W        W56293  10.858  16.382   1.719
89511W        W56294   1.879   6.412  10.729
89512W        W56295  28.585  24.526  10.769
89513W        W56296  39.295  36.597   2.853
89514W        W56297  42.304  15.574  12.496
89515W        W56298  21.579   7.137   4.023
89516W        W56299  25.128  14.603  10.632
89517W        W56300  13.020  36.352   0.488
89518W        W56301   0.521  29.452   1.881
89519W        W56302  36.924   1.206   1.790
89520W        W56303  43.698  15.818  13.521
89521W        W56304  24.583  23.957   4.479
89522W        W56305  17.001  11.720  13.074
89523W        W56306  22.685  35.024   4.740
89524W        W56307   7.800  43.095  14.835
89525W        W56308   0.253  33.410  11.889
89526W        W56309  19.181   2.882   3.872
89527W        W56310  19.495  27.621  12.904
89528W        W56311  27.954  21.811   1.243
89529W        W56312  22.098  19.995   3.939
89530W        W56313   9.734  30.020  10.643
89531W        W56314   1.574  26.774  11.027
89532W        W56315  22.129   4.786   4.121
89533W        W56316  29.072  22.584   4.940
89534W        W56317   5.784   3.232  11.583
89535W        W56318   4.856   6.805  12.474
89536W        W56319  12.316  27.356  14.922
89537W        W56320  10.793  36.241  11.398
89538W        W56321  17.574   2.969  13.569
89539W        W56322  16.728   0.240   2.164
89540W        W56323  24.460  41.421   1.893
89541W        W56324  25.129  31.201   3.709
89542W        W56325  33.074  18.638   3.802
89543W        W56326  36.439  39.744   1.333
89544W        W56327  41.516  36.485  11.621
89545W        W56328  34.986   4.398   0.279
89546W        W56329   6.420  17.550  11.074
89547W        W56330  31.940  18.060  11.979
89548W        W56331  28.680   3.471  11.493
89549W        W56332  34.349   3.447   2.958
89550W        W56333  23.008  10.061  11.220
89551W        W56334  27.625   1.429  11.581
89552W        W56335  19.056  26.111  14.923
89553W        W56336   7.111  35.071  14.256
89554W        W56337  25.987  25.092  13.153
89555W        W56338  26.601  38.087   2.170
89556W        W56339  11.764  18.632   2.645
89557W        W56340  16.689  18.101  11.155
89558W        W56341  21.023  23.720   3.313
89559W        W56342  23.246   7.862  11.554
89560W        W56343  21.689   4.120  11.115
89561W        W56344  30.463   3.667   0.897
89562W        W56345   6.816   9.964   0.756
89563W        W56346   0.425  22.482   0.291
89564W        W56347  38.924  28.821  11.105
89565W        W56348  16.541  38.380  11.666
89566W        W56349  43.875   0.747   1.659
89567W        W56350  41.887  26.559   3.627
89568W        W56351  43.263  10.427  13.474
89569W        W56352  27.044  32.351  10.864
89570W        W56353  13.535  42.083  11.123
89571W        W56354  16.338  27.148  14.304
89572W        W56355  28.595  33.356   4.708
89573W        W56356  32.570  33.104   4.579
89574W        W56357  13.513  13.231  13.464
89575W        W56358  25.480  19.935   5.061
89576W        W56359  23.373   8.552   0.495
89577W        W56360  34.633  37.377  10.644
89578W        W56361  41.442  41.751  14.351
89579W        W56362  10.761   9.233  13.738
89580W        W56363  37.110  13.788   0.235
89581W        W56364  35.113  19.522  10.775
89582W        W56365  40.292  10.080   4.494
89583W        W56366  35.784   9.441  14.360
89584W        W56367   8.649  23.585  11.498
89585W        W56368  14.029  11.671   1.408
89586W        W56369  43.021  17.636  11.167
89587W        W56370  42.074  12.300   1.465
89588W        W56371  29.440  19.763  10.918
89589W        W56372   1.513  41.227  11.531
89590W        W56373  36.687  32.338  11.137
89591W        W56374  14.517  25.643  12.849
89592W        W56375  12.894  39.595  12.607
89593W        W56376  14.939   5.428  11.533
89594W        W56377  26.640   9.624  11.229
89595W        W56378  15.150   8.807  12.296
89596W        W56379  36.805  27.893  11.929
89597W        W56380  20.736  37.610   1.795
89598W        W56381  38.172  13.812  12.017
89599W        W56382  33.963  27.162  12.933
89600W        W56383  21.640  28.039   4.037
89601W        W56384  11.637  42.015  10.783
89602W        W56385  37.968  15.807  11.633
89603W        W56386  42.366  10.136   2.244
89604W        W56387  23.888  14.643   4.606
89605W        W56388  42.415  28.706  10.742
89606W        W56389  42.909   1.188   1.208
89607W        W56390   5.046  31.522   4.717
89608W        W56391  12.363   5.433  11.642
89609W        W56392  41.361  40.070   1.228
89610W        W56393  37.613  19.814  10.647
89611W        W56394  40.011  21.292  13.085
89612W        W56395  19.748  23.121   1.036
89613W        W56396  33.070   8.411  11.032
89614W        W56397  16.548   7.351  11.261
89615W        W56398  12.161  12.651   2.349
89616W        W56399  36.582  28.664  13.971
89617W        W56400  30.668   8.391   4.113
89618W        W56401  18.016  37.865   4.979
89619W        W56402  28.054  32.239  11.635
89620W        W56403  35.168  24.001  11.691
89621W        W56404  33.595   5.629   4.587
89622W        W56405  24.251  40.034  13.047
89623W        W56406  23.200  18.440  11.489
89624W        W56407  22.676  25.917   1.229
89625W        W56408  28.898  35.396  14.126
89626W        W56409  32.770   7.948   0.299
89627W        W56410  37.028  35.882   3.285
89628W        W56411  25.433  37.794   3.320
89629W        W56412  29.000  23.962   4.559
89630W        W56413  26.049  24.015  11.990
89631W        W56414  16.672   3.267  13.813
89632W        W56415  35.248  42.973   3.736
89633W        W56416  30.022  12.757   3.606
89634W        W56417  14.270  39.875  10.310
89635W        W56418  15.031  40.362   3.254
89636W        W56419  43.734   0.281   4.284
89637W        W56420  37.845  29.097  13.824
89638W        W56421   7.917  19.924   4.876
89639W        W56422  20.335  33.574   0.197
89640W        W56423  15.109   6.087   3.202
89641W        W56424  38.837  24.007   2.343
89642W        W56425  35.061  19.609  11.279
89643W        W56426   9.939  10.650  14.023
89644W        W56427  22.552  34.663  13.244
89645W        W56428  44.907  30.172   4.208
89646W        W56429   7.872  16.696  14.874
89647W        W56430  11.919  15.136   4.114
89648W        W56431  43.755  33.583   0.319
89649W        W56432  31.456  36.808   0.314
89650W        W56433   4.721  14.594  11.647
89651W        W56434  44.439  16.250  12.168
89652W        W56435  19.758  21.520   4.139
89653W        W56436  35.108  42.450   3.663
89654W        W56437   2.650  32.033  12.156
89655W        W56438  39.162  19.730   3.584
89656W        W56439  24.856   0.989   1.957
89657W        W56440  16.207  27.595   0.302
89658W        W56441   0.550  11.203   3.351
89659W        W56442  28.021  30.037  10.732
89660W        W56443  25.174  30.050   2.656
89661W        W56444  14.684   3.002  12.972
89662W        W56445  28.660  31.153  14.781
89663W        W56446  17.297  17.174  13.554
89664W        W56447  36.134  42.438  10.903
89665W        W56448   7.733   6.426  10.944
89666W        W56449  43.742   1.915   0.114
89667W        W56450  12.881   4.797   4.931
89668W        W56451   2.600   4.326  10.730
89669W        W56452  16.893   2.310  10.978
89670W        W56453  42.255  36.364  10.735
89671W        W56454  40.746  20.260   0.954
89672W        W56455  44.600  20.289   0.341
89673W        W56456  44.336  13.189  14.898
89674W        W56457   2.166   2.290  13.461
89675W        W56458   4.766  38.053  12.072
89676W        W56459  34.926  12.274  12.233
89677W        W56460  13.670  42.102  14.950
89678W        W56461  33.202   5.926  14.607
89679W        W56462  10.103   7.101  11.619
89680W        W56463   6.657  19.616   5.063
89681W        W56464  43.865  38.852  12.566
89682W        W56465   8.407  26.841  11.490
89683W        W56466  24.570  30.435   2.326
89684W        W56467  36.106   9.696  10.773
89685W        W56468  18.771   3.026   5.039
89686W        W56469  37.835  15.774  12.559
89687W        W56470  33.103  38.066   1.010
89688W        W56471  44.448  37.804  10.745
89689W        W56472  18.107  18.066  13.189
89690W        W56473  21.068  23.750   4.165
89691W        W56474  43.694  17.560   9.905
89692W        W56475   2.762  10.471  14.927
89693W        W56476  19.775  20.624   3.839
89694W        W56477   8.278  29.328  13.837
89695W        W56478  17.405  11.943  14.334
89696W        W56479   0.567   7.379   1.920
89697W        W56480  20.153  38.490   3.613
89698W        W56481   2.901  41.528  13.517
89699W        W56482  29.489  30.184  12.052
89700W        W56483  36.973  29.557  13.472
89701W        W56484  31.407  22.447  12.998
89702W        W56485  37.883  23.482   2.297
89703W        W56486  36.342  21.512  12.916
89704W        W56487  36.766  33.935   3.492
89705W        W56488  26.484   1.541   1.945
89706W        W56489  31.071  28.609  12.452
89707W        W56490   0.229  37.576  11.424
89708W        W56491  14.505  36.478   0.050
89709W        W56492  31.091  40.761  13.899
89710W        W56493   4.190  41.063   2.076
89711W        W56494  42.737  38.736  13.471
89712W        W56495  34.791   8.651  10.714
89713W        W56496  21.934  12.854  12.871
89714W        W56497   5.122  26.597   0.972
89715W        W56498   7.920   7.870  14.204
89716W        W56499   3.425   2.953   3.673
89717W        W56500  39.860   0.935   0.793
89718W        W56501   2.481  41.065   2.199
89719W        W56502  42.791  24.127   2.309
89720W        W56503  15.218   7.919   3.862
89721W        W56504  12.636   2.435  11.580
89722W        W56505   7.810  18.507  10.632
89723W        W56506  24.223  37.643   0.044
89724W        W56507  31.492  42.400  14.359
89725W        W56508  38.813  16.264  12.693
89726W        W56509  18.322  24.211   1.814
89727W        W56510  36.616  16.645   3.720
89728W        W56511  23.885  10.736   3.595
89729W        W56512  15.296  18.572   4.131
89730W        W56513  35.740  27.015   1.805
89731W        W56514  40.818  42.342   4.583
89732W        W56515  26.200   7.429  13.443
89733W        W56516  16.307  22.985  11.452
89734W        W56517  38.330  34.297  13.838
89735W        W56518   4.410   6.770   0.326
89736W        W56519   2.427  23.302  12.199
89737W        W56520  29.117  12.048   2.386
89738W        W56521  34.371   3.314   4.284
89739W        W56522  25.228  11.323  13.827
89740W        W56523  17.286   4.243  13.076
89741W        W56524  13.914  35.459   5.418
89742W        W56525   3.379  11.668  14.462
89743W        W56526  26.874   0.900   2.643
89744W        W56527   4.320  12.935   2.846
89745W        W56528   1.530   6.761   4.587
89746W        W56529  31.647  41.470   2.980
89747W        W56530  43.116  22.093  10.963
89748W        W56531  35.923  11.265   3.352
89749W        W56532   2.384   3.395   1.408
89750W        W56533  44.837  10.648  11.555
89751W        W56534  14.766   2.222   4.912
89752W        W56535  32.919  22.702  12.910
89753W        W56536  12.971  41.067  14.411
89754W        W56537  25.845   5.401   4.215
89755W        W56538  28.784  40.391   3.632
89756W        W56539   8.294  25.815  10.595
89757W        W56540   6.484  18.017  12.495
89758W        W56541   7.722  31.916  12.199
89759W        W56542  12.800  28.729  13.588
89760W        W56543  21.166  19.254  12.445
89761W        W56544  15.245   1.242  14.749
89762W        W56545  43.822  31.550  13.891
89763W        W56546   6.259  10.176  10.488
89764W        W56547  12.307  27.137  12.807
89765W        W56548  22.911  16.429   1.820
89766W        W56549   5.346   9.759  12.288
89767W        W56550  44.698   0.941   0.342
89768W        W56551  13.905  16.000   3.857
89769W        W56552  19.170   1.189  12.437
89770W        W56553  20.990   8.881   4.957
89771W        W56554  18.315  27.129  12.595
89772W        W56555  32.109   8.870  13.941
89773W        W56556   5.417  39.312  12.131
89774W        W56557  23.153  19.558  11.815
89775W        W56558   0.809   9.187  12.183
89776W        W56559  31.571   9.679   2.226
89777W        W56560   1.608  29.378  11.654
89778W        W56561  25.473  32.327  12.600
89779W        W56562  30.446  39.868  14.094
89780W        W56563   4.642  10.235  11.132
89781W        W56564   7.566  44.961   1.518
89782W        W56565  23.999   0.760   0.374
89783W        W56566  24.052  28.629   1.461
89784W        W56567  19.659   6.256  11.548
89785W        W56568   8.838  13.225  10.940
89786W        W56569  29.172  43.224  11.165
89787W        W56570  32.615  28.208  13.718
89788W        W56571   1.034  25.878   1.760
89789W        W56572  29.978   6.235  14.957
89790W        W56573  21.339  15.316   2.793
89791W        W56574   3.018  25.589   1.915
89792W        W56575   0.562  22.731   1.651
89793W        W56576   8.518  36.876  11.530
89794W        W56577   9.668  17.314   0.196
89795W        W56578  42.119   5.708   2.012
89796W        W56579   2.842  33.949   2.792
89797W        W56580  36.503  14.748   2.779
89798W        W56581  43.382  28.881  10.246
89799W        W56582  34.482  34.622   1.017
89800W        W56583  40.017  12.865  12.387
89801W        W56584  33.694  17.189  13.984
89802W        W56585  20.166  30.357  12.419
89803W        W56586  19.597  25.572   2.091
89804W        W56587   1.061   8.585   3.176
89805W        W56588  28.488  35.874  10.770
89806W        W56589   4.970  15.121  11.712
89807W        W56590   2.710   6.894   0.878
89808W        W56591  15.620   8.644  12.437
89809W        W56592   9.400  20.434   3.591
89810W        W56593  27.950  24.481  12.155
89811W        W56594  15.602   1.742  13.434
89812W        W56595  23.077  15.882   2.673
89813W        W56596   8.237  31.551   1.252
89814W        W56597  33.114  33.847  13.930
89815W        W56598  12.136   5.140  12.024
89816W        W56599  21.013  19.371  11.065
89817W        W56600  43.471   9.048   0.626
89818W        W56601  21.449  26.571   2.245
89819W        W56602  26.526  14.492   4.465
89820W        W56603  25.922  35.425  11.147
89821W        W56604  18.460  17.324  13.072
89822W        W56605   8.188   3.956   0.449
89823W        W56606  42.436  37.854  10.435
89824W        W56607   7.311  42.903  13.487
89825W        W56608   2.075  35.473  13.776
89826W        W56609  17.622  44.864  14.963
89827W        W56610   3.388  39.908   1.527
89828W        W56611  30.546   7.847  11.129
89829W        W56612  25.162  37.315   4.193
89830W        W56613  14.162  24.933   3.758
89831W        W56614  12.394  31.158   1.288
89832W        W56615  33.515  42.511   1.353
89833W        W56616  26.258   2.278  13.170
89834W        W56617  40.059  12.314  13.956
89835W        W56618   3.647  33.610   1.644
89836W        W56619  41.315  17.496   0.019
89837W        W56620   6.672  10.831   3.161
89838W        W56621  28.531  23.976  14.234
89839W        W56622  34.119  10.393   3.677
89840W        W56623  23.087  13.170   0.016
89841W        W56624  11.113  29.406  10.672
89842W        W56625   2.561  39.729  14.934
89843W        W56626  38.981  37.810  14.323
89844W        W56627  16.369  30.392   4.249
89845W        W56628   8.706  17.758  13.836
89846W        W56629   5.240   3.811  11.205
89847W        W56630   6.023  40.958  13.196
89848W        W56631  43.283  17.590   3.685
89849W        W56632  36.054  10.103   4.713
89850W        W56633   5.428  31.169   4.847
89851W        W56634  19.932  43.017   4.393
89852W        W56635  39.510  27.472  14.557
89853W        W56636   1.316  13.638  12.030
89854W        W56637   6.854  37.146  12.527
89855W        W56638  33.779  13.263  13.510
89856W        W56639   9.086  25.685  14.974
89857W        W56640  25.220  29.010   1.941
89858W        W56641   2.913   8.475   0.797
89859W        W56642  34.370   7.618  13.886
89860W        W56643   9.595  41.591  12.402
89861W        W56644  39.304  12.235  11.531
89862W        W56645  24.392  13.321   4.426
89863W        W56646   7.416  25.965   4.637
89864W        W56647  19.485   3.649  10.527
89865W        W56648  27.434   8.259  12.204
89866W        W56649  34.366  10.378   5.425
89867W        W56650   3.960  24.259  13.591
89868W        W56651  42.729  10.820   4.210
89869W        W56652  18.424  24.608  14.503
89870W        W56653  40.755  32.854  13.317
89871W        W56654  44.446  25.920   3.701
89872W        W56655  17.857   6.425  10.694
89873W        W56656  40.894   2.498  12.818
89874W        W56657   5.285   0.060   0.189
89875W        W56658  41.803  24.824  12.562
89876W        W56659   0.000   6.680   4.784
89877W        W56660  25.519  15.270   4.997
89878W        W56661  23.539   9.166   2.485
89879W        W56662  22.657  12.340   2.874
89880W        W56663  44.021  16.533   3.259
89881W        W56664  16.349  24.801   3.394
89882W        W56665  26.444  41.303  13.635
89883W        W56666  34.544   1.428   1.681
89884W        W56667  22.148  23.353  10.715
89885W        W56668  20.058  39.502  14.446
89886W        W56669  43.408  32.618  10.689
89887W        W56670  37.226  24.178   3.201
89888W        W56671  35.630  32.747   0.506
89889W        W56672  28.532  40.663   9.758
89890W        W56673  23.586  38.414   3.172
89891W        W56674  11.068  24.641   4.182
89892W        W56675  27.908   4.119  12.183
89893W        W56676  44.893  10.121  12.506
89894W        W56677   7.711  42.414   3.721
89895W        W56678  36.660  32.562   3.912
89896W        W56679  38.411  27.668   1.460
89897W        W56680  28.323   2.408  10.305
89898W        W56681  15.340  17.314   1.858
89899W        W56682  22.613  30.233  13.308
89900W        W56683  37.104  12.783   2.813
89901W        W56684  30.705  26.067   1.435
89902W        W56685   6.769   2.323   0.359
89903W        W56686  28.492  15.743   2.618
89904W        W56687   6.346  24.548  10.751
89905W        W56688   8.292   9.729   4.118
89906W        W56689  13.844   0.942  10.695
89907W        W56690  21.504  10.050   1.854
89908W        W56691  26.673  12.705   3.604
89909W        W56692  26.551  17.180   3.035
89910W        W56693  10.203   2.353   2.691
89911W        W56694   5.397  22.390  14.951
89912W        W56695  26.520   1.501  12.888
89913W        W56696  40.835   3.803  14.212
89914W        W56697  25.665  30.373   4.603
89915W        W56698  19.061  13.741   3.280
89916W        W56699  39.788  24.018   4.623
89917W        W56700  27.852  34.416   3.338
89918W        W56701  22.741  22.672  11.282
89919W        W56702  36.319  26.707  14.860
89920W        W56703  12.163   7.406  14.780
89921W        W56704  42.398  12.016   3.134
89922W        W56705  30.637  33.217   1.039
89923W        W56706  20.118  39.289   4.153
89924W        W56707  21.878  41.127   3.034
89925W        W56708  15.895  41.403  13.806
89926W        W56709  29.951  44.735  13.402
89927W        W56710  34.240  28.170  10.742
89928W        W56711  23.174  18.236  10.743
89929W        W56712   3.292  11.703   3.332
89930W        W56713   8.733   8.786  13.109
89931W        W56714  34.494   9.619   0.306
89932W        W56715  18.403  14.620   0.801
89933W        W56716  16.986  18.972   1.288
89934W        W56717  17.051  12.265   0.223
89935W        W56718  36.761  18.057  13.803
89936W        W56719  42.855   8.330   2.215
89937W        W56720  16.422  20.712   2.330
89938W        W56721  21.774  23.329   1.902
89939W        W56722  11.381  42.913   0.665
89940W        W56723  33.072   5.866  13.557
89941W        W56724  29.544  16.443   1.183
89942W        W56725  27.571   4.685  14.532
89943W        W56726  15.688  40.485   4.927
89944W        W56727  14.588  21.691  13.401
89945W        W56728  16.210   1.134  10.162
89946W        W56729  14.709  32.673  13.096
89947W        W56730   2.737   2.173   2.824
89948W        W56731  29.374  23.251  11.585
89949W        W56732  24.524   3.519  12.082
89950W        W56733   9.818  35.950  11.349
89951W        W56734  30.709   1.877   0.723
89952W        W56735  23.054   8.333  12.519
89953W        W56736   0.401  41.228   4.100
89954W        W56737  38.958  37.856   2.362
89955W        W56738  18.740  26.901  12.923
89956W        W56739  23.290  34.012  10.541
89957W        W56740   8.140   2.182   1.417
89958W        W56741  12.783   9.151   0.405
89959W        W56742  20.678  16.563  11.483
89960W        W56743   1.404  15.531   1.216
89961W        W56744  21.872  30.275   5.219
89962W        W56745  12.445  43.951   2.806
89963W        W56746   5.835  44.355   0.362
89964W        W56747  14.611   9.756   4.729
89965W        W56748  16.283  38.486   0.733
89966W        W56749  10.407  41.758   3.590
89967W        W56750   1.748   9.783  13.983
89968W        W56751  33.205  20.752  10.776
89969W        W56752   8.675   9.869  14.791
89970W        W56753  14.589  11.159  11.268
89971W        W56754   0.889  30.029   2.232
89972W        W56755  26.427  41.287  12.616
89973W        W56756  23.728   8.616  13.911
89974W        W56757  32.565  21.972   3.636
89975W        W56758  21.175   5.949   2.089
89976W        W56759   8.266  41.800  12.557
89977W        W56760  32.049  42.200  12.423
89978W        W56761  23.674   7.093   3.222
89979W        W56762   0.042  18.752  14.820
89980W        W56763  20.114   2.274  12.457
89981W        W56764  34.089  15.709   0.459
89982W        W56765   5.716  40.313  11.536
89983W        W56766  37.926  25.974  11.428
89984W        W56767   7.419  17.814   1.916
89985W        W56768  12.540   6.806   2.652
89986W        W56769  30.958  13.773  13.456
89987W        W56770  19.296  26.302   3.309
89988W        W56771  31.630  35.471  14.924
89989W        W56772   4.730  27.920  12.623
89990W        W56773  25.405  28.464  11.630
89991W        W56774   9.992  42.450   1.375
89992W        W56775  24.506  21.265   0.349
89993W        W56776  11.643  28.192   3.588
89994W        W56777  22.543  15.651  13.452
89995W        W56778  11.069  31.722  14.722
89996W        W56779  33.577  37.436  10.151
89997W        W56780   2.896  16.647   1.953
89998W        W56781  39.798   5.642  14.530
89999W        W56782   1.955  21.637  12.880
90000W        W56783  33.489  13.855   4.070
90001W        W56784  40.351  17.174  13.974
90002W        W56785  38.436  34.576  13.409
90003W        W56786  34.051  21.275  13.837
90004W        W56787  17.040  30.147  14.969
90005W        W56788  13.335   6.225  10.508
90006W        W56789   8.234  19.106  10.903
90007W        W56790  12.718  21.201   1.948
90008W        W56791  20.314  30.606   0.023
90009W        W56792   9.075  10.900   1.972
90010W        W56793  39.960  15.148  12.699
90011W        W56794  24.089  43.450  10.453
90012W        W56795  24.627  33.488   0.966
90013W        W56796  24.187   0.106   0.943
90014W        W56797  35.497  27.671  10.865
90015W        W56798   5.146  37.349   0.859
90016W        W56799  39.439  29.616  13.018
90017W        W56800  35.087  21.659  14.721
90018W        W56801  28.774  37.214   3.287
90019W        W56802   9.281   3.198  13.947
90020W        W56803  44.781  24.196   3.240
90021W        W56804  31.040   5.239  12.049
90022W        W56805  32.313  10.549  11.502
90023W        W56806   5.429  27.055  13.346
90024W        W56807   4.291  17.281  11.469
90025W        W56808  42.087  16.803  14.948
90026W        W56809  27.090  13.366  12.929
90027W        W56810  23.281  16.832   3.557
90028W        W56811   8.853  11.041  11.771
90029W        W56812  31.568  26.616  12.085
90030W        W56813  42.959  18.701   3.176
90031W        W56814  17.707  32.191   4.571
90032W        W56815  29.389  14.433   3.348
90033W        W56816  26.606   2.410  11.650
90034W        W56817  14.679   8.712  10.617
90035W        W56818  41.505  34.402   3.738
90036W        W56819  24.223  15.711  14.410
90037W        W56820  16.961  38.114   4.153
90038W        W56821  35.016  36.869  13.981
90039W        W56822   1.447  34.553  13.558
90040W        W56823   0.274  17.740  10.327
90041W        W56824  41.630  16.421   2.022
90042W        W56825   2.235  20.638  13.366
90043W        W56826  39.954   9.880   0.589
90044W        W56827   7.091  19.266   4.874
90045W        W56828  42.885   6.807  12.530
90046W        W56829   2.268  20.623   2.790
90047W        W56830  17.840  29.039   0.813
90048W        W56831   7.827   5.266  12.454
90049W        W56832  43.765  14.172   3.116
90050W        W56833  42.607   1.851  13.312
90051W        W56834   8.837  20.045  14.840
90052W        W56835   9.713   3.197   3.234
90053W        W56836   1.676  29.144  13.904
90054W        W56837  13.998   8.345   5.440
90055W        W56838   6.352  44.026  11.883
90056W        W56839  19.492  35.399   3.420
90057W        W56840  31.798  19.130  10.944
90058W        W56841  41.745  37.479   2.309
90059W        W56842  22.141  44.248  10.199
90060W        W56843   3.413   9.743   4.335
90061W        W56844   6.351  21.584   2.101
90062W        W56845  26.687  34.931   3.179
90063W        W56846  37.820   9.662  12.456
90064W        W56847  20.644  40.954  12.851
90065W        W56848  22.665  29.030   2.301
90066W        W56849  39.825  24.645  11.630
90067W        W56850  22.592  38.458  11.734
90068W        W56851  24.250  36.879  13.865
90069W        W56852   1.797  24.338  11.203
90070W        W56853   3.728  39.117  13.957
90071W        W56854   8.078  21.739  12.008
90072W        W56855  25.158   9.579   1.729
90073W        W56856  15.853  31.888   5.198
90074W        W56857  23.028  24.663   3.667
90075W        W56858  30.939  14.586  12.908
90076W        W56859  34.320   7.646   0.182
90077W        W56860   3.551  12.915   2.339
90078W        W56861  38.601  25.703   3.319
90079W        W56862  38.849  19.752   0.282
90080W        W56863  28.801  43.775  13.310
90081W        W56864  36.356  26.551  11.304
90082W        W56865  33.359  29.599   1.708
90083W        W56866   7.240  44.749   2.762
90084W        W56867  44.868  17.569   1.310
90085W        W56868  13.317  43.488  12.849
90086W        W56869   4.466  31.237  12.401
90087W        W56870  14.330  25.391   4.555
90088W        W56871   2.766   2.936   2.200
90089W        W56872   3.488  23.667  13.835
90090W        W56873  36.426  38.969   2.496
90091W        W56874  10.648  33.512   1.753
90092W        W56875  11.843  44.445  10.740
90093W        W56876   1.503  32.406   0.307
90094W        W56877  20.708  18.036   3.715
90095W        W56878  26.995  32.560  14.516
90096W        W56879  14.254  17.956   0.843
90097W        W56880  18.478   8.560  13.096
90098W        W56881  10.899  14.794  12.896
90099W        W56882  32.029  29.355   4.461
90100W        W56883  28.197  31.737  11.744
90101W        W56884  19.308  33.428   4.873
90102W        W56885  11.220  38.283  12.038
90103W        W56886  29.404   8.999  14.540
90104W        W56887  16.188  10.388  11.189
90105W        W56888  21.486  24.569  13.462
90106W        W56889  18.062  35.758   3.321
90107W        W56890  29.749  16.497  14.288
90108W        W56891   0.454  34.647  14.902
90109W        W56892  19.065  18.167  11.299
90110W        W56893  23.968  12.578   0.831
90111W        W56894  40.145  43.582   3.301
90112W        W56895  39.325  41.996  12.239
90113W        W56896  29.164  42.446   4.074
90114W        W56897  18.188  32.717   0.830
90115W        W56898  12.900  29.900   4.200
90116W        W56899  30.559   9.930   1.705
90117W        W56900  39.464  43.263   1.779
90118W        W56901   2.296  31.252   4.044
90119W        W56902  20.723  28.687   0.681
90120W        W56903  11.676   1.663  12.453
90121W        W56904  21.127  42.737   0.339
90122W        W56905  28.011  37.401   1.893
90123W        W56906   5.167  28.173  10.439
90124W        W56907  10.586  34.212  11.576
90125W        W56908  12.647  26.968  14.403
90126W        W56909  37.087  22.014  10.505
90127W        W56910  16.692   8.382   2.919
90128W        W56911  33.234   5.926  10.643
90129W        W56912  34.356  35.231  11.696
90130W        W56913  22.729  29.551   4.762
90131W        W56914  37.236   6.771   4.329
90132W        W56915  34.087  10.889   3.808
90133W        W56916  33.613  40.644  11.532
90134W        W56917  31.575  27.170  11.880
90135W        W56918  19.892  22.038  11.953
90136W        W56919   4.755   3.151  12.515
90137W        W56920  17.681  37.893   4.566
90138W        W56921  37.573  37.090   0.702
90139W        W56922   4.837   6.460   1.942
90140W        W56923   5.184  21.235  14.266
90141W        W56924  11.313  38.761  11.935
90142W        W56925   9.582  26.990   2.374
90143W        W56926  40.026  37.412   0.021
90144W        W56927  12.631  19.514  13.908
90145W        W56928  26.988  23.985  13.825
90146W        W56929   7.319  12.341   4.781
90147W        W56930  27.597  16.171   3.354
90148W        W56931  28.212  21.791  12.439
90149W        W56932  19.645   2.755   2.196
90150W        W56933  21.629   3.137   3.617
90151W        W56934  37.962   1.830  12.003
90152W        W56935   2.741  23.720  11.085
90153W        W56936  26.518  14.242   3.722
90154W        W56937   3.318  28.126   2.803
90155W        W56938  22.025  30.317   4.700
90156W        W56939  16.617  33.344   4.027
90157W        W56940  42.464  43.375  10.607
90158W        W56941  20.808   6.222  10.434
90159W        W56942  35.238   4.758  12.429
90160W        W56943  27.998  28.627   0.489
90161W        W56944  28.020  37.832   0.816
90162W        W56945  27.535   9.011   0.629
90163W        W56946  41.497   3.955   3.683
90164W        W56947  42.087  39.883  11.508
90165W        W56948  25.028   8.859   1.205
90166W        W56949  18.808  14.394  13.530
90167W        W56950  37.933  42.839  13.662
90168W        W56951  38.698  23.121   0.357
90169W        W56952  18.644  38.277   3.693
90170W        W56953  39.512  16.192   4.212
90171W        W56954   5.735   9.912   4.614
90172W        W56955  26.615  12.725  11.917
90173W        W56956   6.067  14.055  11.574
90174W        W56957  13.369  37.947  13.327
90175W        W56958  28.106   8.451   3.764
90176W        W56959   8.378  40.284  12.628
90177W        W56960  39.893  39.956  14.425
90178W        W56961  15.306   9.163  11.975
90179W        W56962  29.278  20.607  13.078
90180W        W56963  23.938  23.148   3.414
90181W        W56964  11.915  37.015   4.523
90182W        W56965  20.166  34.822  12.957
90183W        W56966  17.120  10.417   1.389
90184W        W56967   9.205  24.261  10.779
90185W        W56968  24.072   8.031   1.727
90186W        W56969  28.683   1.818  12.948
90187W        W56970  35.336   1.225  12.880
90188W        W56971  29.468  29.644   4.607
90189W        W56972  42.830  31.355   4.168
90190W        W56973  15.826  26.603  13.394
90191W        W56974   1.185  29.014  13.863
90192W        W56975   6.379   6.894  12.914
90193W        W56976  27.729  22.713  12.414
90194W        W56977  39.979  37.482  13.174
90195W        W56978  40.923   7.861   0.561
90196W        W56979  21.809  18.242   1.052
90197W        W56980  13.664  10.108   9.929
90198W        W56981  12.824  21.163  12.885
90199W        W56982  13.811   0.978   0.852
90200W        W56983  40.482  35.309  13.043
90201W        W56984  40.836  13.126   5.161
90202W        W56985  24.738  18.248   1.224
90203W        W56986  33.070  15.417   1.885
90204W        W56987  29.092   9.579   1.370
90205W        W56988  19.484  12.174   1.666
90206W        W56989  43.998  29.167   1.673
90207W        W56990  39.013  43.392  14.488
90208W        W56991  34.583   1.569   2.774
90209W        W56992  21.266  37.379   5.182
90210W        W56993  29.171   3.008  14.484
90211W        W56994   9.122  18.735  11.907
90212W        W56995   1.116  36.137  12.005
90213W        W56996   4.700  39.574  12.212
90214W        W56997   8.439  26.061   0.413
90215W        W56998  12.336  11.613   2.372
90216W        W56999  36.821  37.497   0.963
90217W        W57000   8.715  35.399   1.805
90218W        W57001  17.820   4.184  13.061
90219W        W57002   2.976  36.848   3.207
90220W        W57003  39.937  40.338   3.122
90221W        W57004  10.256  17.608   3.362
90222W        W57005  43.313  11.147   1.201
90223W        W57006  18.264  14.065  14.016
90224W        W57007  18.293  43.783  12.870
90225W        W57008  19.306  34.858   0.762
90226W        W57009  29.635  12.552  11.563
90227W        W57010  40.749  21.838  11.613
90228W        W57011  15.767  10.565  10.453
90229W        W57012   1.992   7.686  11.205
90230W        W57013  12.355  23.212  13.523
90231W        W57014  41.223  23.230  11.125
90232W        W57015   6.267  36.325   3.108
90233W        W57016  16.084  20.186  12.688
90234W        W57017   4.105   1.076   2.684
90235W        W57018  29.474   6.217   4.919
90236W        W57019  30.548  35.990  13.356
90237W        W57020  29.705  44.198   1.308
90238W        W57021   4.732  26.918   3.736
90239W        W57022  15.753  43.501   2.471
90240W        W57023  44.808  16.323   0.817
90241W        W57024  33.757   5.612   1.671
90242W        W57025  29.636  39.940   0.548
90243W        W57026  31.058  24.145   0.498
90244W        W57027  27.448  28.575   2.222
90245W        W57028  20.458  18.754  12.689
90246W        W57029  26.556  28.053  12.493
90247W        W57030  13.893  37.557  12.470
90248W        W57031  27.610   1.054   4.611
90249W        W57032   2.271  29.665   4.489
90250W        W57033  10.115  38.910  11.035
90251W        W57034  30.654   0.963   5.079
90252W        W57035  30.904   8.917  14.297
90253W        W57036   5.356  30.681   0.453
90254W        W57037  43.380  39.922   3.507
90255W        W57038  30.950   6.276  10.268
90256W        W57039  40.019  40.160   1.823
90257W        W57040  14.748  21.746   0.887
90258W        W57041  33.158  10.155   2.759
90259W        W57042  19.955   2.688   3.122
90260W        W57043  16.633  11.091  13.312
90261W        W57044  13.623   0.915   3.645
90262W        W57045  22.814  39.943   0.978
90263W        W57046   8.170  38.186   3.537
90264W        W57047  38.841  43.023  10.262
90265W        W57048  30.059   8.321   0.712
90266W        W57049  19.801   9.570   3.370
90267W        W57050   5.829   9.179  14.797
90268W        W57051  36.067   1.699  10.292
90269W        W57052  16.824  37.034  12.524
90270W        W57053  37.552  26.808  11.880
90271W        W57054  23.674  17.898  12.244
90272W        W57055   2.787  13.129   3.371
90273W        W57056  18.586  13.224  13.055
90274W        W57057  11.229  43.856  11.659
90275W        W57058   9.155  38.691  13.886
90276W        W57059  37.777   0.100  11.918
90277W        W57060  34.095  31.433   4.087
90278W        W57061  39.354  14.280   1.639
90279W        W57062  25.159  19.835  14.080
90280W        W57063  12.546  41.180   2.919
90281W        W57064   3.966  13.131  10.515
90282W        W57065  28.727  11.984   1.943
90283W        W57066  21.294  37.974  12.061
90284W        W57067   4.369  26.709   3.201
90285W        W57068   5.642  19.784   2.378
90286W        W57069  35.507  31.149   0.562
90287W        W57070  10.375  35.072  12.385
90288W        W57071   5.020  35.065   2.034
90289W        W57072  12.378  27.402   1.876
90290W        W57073  13.692  30.182   0.259
90291W        W57074   7.527  18.590   2.245
90292W        W57075  14.428   6.426  13.856
90293W        W57076  18.769   9.674  14.390
90294W        W57077  44.166  19.648   1.391
90295W        W57078   9.426  41.462   1.764
90296W        W57079   8.154   6.825   1.007
90297W        W57080   5.438  23.734   0.751
90298W        W57081  42.902  13.265  13.694
90299W        W57082  20.076  38.794  13.896
90300W        W57083   2.012   3.390   0.347
90301W        W57084  10.092  35.378   3.243
90302W        W57085  33.523  44.003   4.575
90303W        W57086   2.966  35.126   4.178
90304W        W57087  33.418  38.926   0.753
90305W        W57088   7.741   3.814   3.044
90306W        W57089   5.471   1.912   0.317
90307W        W57090  43.261  25.466  11.136
90308W        W57091   8.830   9.321  14.225
90309W        W57092  19.351  37.951   3.715
90310W        W57093  19.041  35.019   4.668
90311W        W57094  33.984  31.937  13.581
90312W        W57095  18.680  19.646  11.420
90313W        W57096   8.775  31.413   3.519
90314W        W57097   1.705  26.550  14.822
90315W        W57098  10.253  41.386  13.994
90316W        W57099  38.935  37.965   0.810
90317W        W57100  39.419  32.433  11.244
90318W        W57101   6.442  32.041   3.573
90319W        W57102  32.751  15.512   0.288
90320W        W57103  26.012  13.082   1.642
90321W        W57104  11.096   2.685   1.672
90322W        W57105  44.893  30.444   2.269
90323W        W57106  30.879  12.244   4.231
90324W        W57107   0.693   7.290   4.643
90325W        W57108  17.595   3.419  12.443
90326W        W57109  16.613  20.013   3.228
90327W        W57110  11.726  18.281   1.689
90328W        W57111  32.319  11.773  14.066
90329W        W57112  19.576  41.157   4.114
90330W        W57113  42.803  30.923   2.421
90331W        W57114  29.188  10.228   2.317
90332W        W57115  38.814  25.753  13.351
90333W        W57116  30.929  11.136  12.535
90334W        W57117  18.391  44.308  10.660
90335W        W57118  40.498  29.536   0.931
90336W        W57119  21.754  30.613   0.473
90337W        W57120   1.287  16.048   1.926
90338W        W57121  29.460  20.996   0.458
90339W        W57122  14.240  27.669   3.270
90340W        W57123   9.395  42.806   2.564
90341W        W57124   6.899   7.831   4.088
90342W        W57125  37.767  29.971  11.559
90343W        W57126  15.572   7.368  14.363
90344W        W57127  12.707   5.172   3.095
90345W        W57128  21.772  34.326  10.677
90346W        W57129  21.673  18.726   4.187
90347W        W57130   7.365  33.680   3.190
90348W        W57131  23.557  34.628  10.587
90349W        W57132  20.197   7.043  14.451
90350W        W57133   0.124  32.506   3.334
90351W        W57134  33.159   8.218   2.809
90352W        W57135  15.806  10.967  14.914
90353W        W57136  16.844  38.987   1.247
90354W        W57137   1.660  32.634   4.271
90355W        W57138  13.540  14.152   0.867
90356W        W57139  30.236   5.999   2.341
90357W        W57140  34.621  27.149  14.825
90358W        W57141  38.286   7.996  13.445
90359W        W57142  34.793  32.567   0.838
90360W        W57143  34.610  11.226  13.198
90361W        W57144  15.293   8.848   3.951
90362W        W57145  11.881   5.727   2.378
90363W        W57146  24.111  34.062  11.936
90364W        W57147  30.496  25.904  14.898
90365W        W57148   7.668  34.884   4.221
90366W        W57149   5.930  37.870  10.549
90367W        W57150  21.462  23.763   1.935
90368W        W57151  14.909  29.733  11.270
90369W        W57152  22.471  37.315  13.839
90370W        W57153  41.423  34.899   0.283
90371W        W57154  37.327   6.342  12.568
90372W        W57155  43.180  31.510  12.854
90373W        W57156  37.491  17.311   0.192
90374W        W57157   1.030  22.239   4.202
90375W        W57158  21.556  21.587   0.943
90376W        W57159  41.816  31.368   1.747
90377W        W57160   2.988  17.153  12.060
90378W        W57161  22.763  24.709   0.216
90379W        W57162  25.231  44.268  12.812
90380W        W57163  44.984   1.326   0.541
90381W        W57164  19.546  11.883  13.963
90382W        W57165   9.195  42.208   0.937
90383W        W57166  21.551  38.962  14.221
90384W        W57167  10.993  16.553   2.857
90385W        W57168   6.487  42.025  12.349
90386W        W57169  41.036   1.768  11.675
90387W        W57170  27.440  33.635  13.037
90388W        W57171  16.539  43.928   0.831
90389W        W57172   6.355  19.740   1.563
90390W        W57173   8.193   7.912  12.954
90391W        W57174  20.477  11.824   1.758
90392W        W57175   8.603  43.370   2.697
90393W        W57176  14.548   3.422  14.991
90394W        W57177  42.840  19.776   4.789
90395W        W57178  32.987  20.091  13.885
90396W        W57179  44.931  14.080  10.594
90397W        W57180  29.711  33.020   4.089
90398W        W57181  32.182   7.790  12.879
90399W        W57182  39.000  14.787   2.130
90400W        W57183  13.715  12.415  13.428
90401W        W57184  36.844  37.051   1.268
90402W        W57185  19.081  28.101  14.764
90403W        W57186  22.749  43.959   1.394
90404W        W57187   1.871  12.990   3.476
90405W        W57188  17.386  41.108  11.722
90406W        W57189  16.802  33.869  12.398
90407W        W57190  44.398  42.352  12.200
90408W        W57191  42.290  39.429  13.179
90409W        W57192   4.450  14.902   2.678
90410W        W57193  21.291  32.695  14.857
90411W        W57194   7.451  37.010   4.611
90412W        W57195  20.664  34.282   1.905
90413W        W57196  33.022  13.307  12.467
90414W        W57197  23.536  24.949   3.777
90415W        W57198  29.466  33.963   3.376
90416W        W57199  35.456   1.532   1.592
90417W        W57200   9.376  43.900   1.830
90418W        W57201  29.807  42.017  14.889
90419W        W57202  19.110  19.729  10.629
90420W        W57203  28.220  35.015   1.862
90421W        W57204  18.763  33.643  12.882
90422W        W57205  12.302   0.564   1.916
90423W        W57206  43.719  12.550   4.588
90424W        W57207   1.868  20.118   0.321
90425W        W57208   6.316  10.752   4.500
90426W        W57209  34.594  12.915  10.502
90427W        W57210   7.083  12.687   0.908
90428W        W57211   7.270  26.621   4.535
90429W        W57212   1.457  16.703  13.371
90430W        W57213  15.538  15.091  13.075
90431W        W57214  21.526  27.905  12.551
90432W        W57215  40.704  36.375   1.499
90433W        W57216  43.938  33.405   0.817
90434W        W57217  35.124  23.910  10.781
90435W        W57218  33.641  22.976  13.919
90436W        W57219  33.851  22.927   5.555
90437W        W57220  23.099   5.885  12.653
90438W        W57221  19.519  16.224  12.729
90439W        W57222  24.214  15.745  13.761
90440W        W57223  41.845  13.114  12.084
90441W        W57224  33.500  16.738   0.926
90442W        W57225   6.322  43.787   3.323
90443W        W57226  43.840  32.917  14.357
90444W        W57227  24.665  16.083  13.717
90445W        W57228  18.500  21.667   2.784
90446W        W57229  29.140  13.242  11.245
90447W        W57230  11.067  24.072   3.600
90448W        W57231  33.855  15.201   3.241
90449W        W57232  14.157  40.924   4.148
90450W        W57233  33.754  42.288   3.311
90451W        W57234  19.833  14.416   2.195
90452W        W57235  13.785  33.549  10.935
90453W        W57236  20.249   8.199   0.789
90454W        W57237   3.795  16.654  12.128
90455W        W57238  33.803  22.778  10.661
90456W        W57239   0.302   8.239  14.580
90457W        W57240  25.391   1.514   2.481
90458W        W57241   9.793  41.128  12.456
90459W        W57242  32.863  32.076  14.691
90460W        W57243  32.941  24.120   0.684
90461W        W57244  12.056  20.094   1.822
90462W        W57245  27.897  36.951  12.039
90463W        W57246  37.112   1.289  12.057
90464W        W57247  26.667  14.816  12.158
90465W        W57248  15.094  13.339  14.471
90466W        W57249  24.479  44.065  11.121
90467W        W57250  25.734  38.065   9.617
90468W        W57251  26.278   9.232  12.510
90469W        W57252  23.105  11.320  14.005
90470W        W57253  24.546  21.543   4.236
90471W        W57254  20.238  34.933  11.119
90472W        W57255  11.313   5.705  13.927
90473W        W57256  17.243  44.930  12.412
90474W        W57257  44.922  44.862   2.045
90475W        W57258   9.706  44.866   2.849
90476W        W57259   8.669  12.503  14.889
90477W        W57260  21.184  18.435  13.097
90478W        W57261  38.871  19.736  12.346
90479W        W57262  42.094   2.288  13.488
90480W        W57263   3.837  40.300   2.579
90481W        W57264  41.873  24.391  11.868
90482W        W57265  23.073  12.423   3.171
90483W        W57266   3.293  39.000   1.833
90484W        W57267  25.306  15.645   4.714
90485W        W57268  42.501   9.388  13.895
90486W        W57269  14.318  32.657  13.677
90487W        W57270  29.891  15.061   1.458
90488W        W57271  10.741  31.380  14.448
90489W        W57272  39.917  31.010  11.066
90490W        W57273  25.657   5.109  12.695
90491W        W57274   7.902  13.870   2.784
90492W        W57275  12.108  25.132   1.227
90493W        W57276  19.436  37.431  12.044
90494W        W57277  30.401  14.488  12.946
90495W        W57278  30.452   5.791   4.642
90496W        W57279  40.898  13.275  12.361
90497W        W57280   1.444  33.495   1.579
90498W        W57281  20.865  14.672   2.142
90499W        W57282  14.736   6.890  11.662
90500W        W57283  15.195  19.580  11.975
90501W        W57284  34.792  34.574  14.749
90502W        W57285  10.835  19.323  12.064
90503W        W57286  24.409  14.556   3.359
90504W        W57287  17.702  37.378  11.081
90505W        W57288  43.816  25.244   0.300
90506W        W57289   9.191  12.077   0.339
90507W        W57290  13.940   7.178   4.272
90508W        W57291  32.677  35.978   3.258
90509W        W57292  31.944  32.103   0.842
90510W        W57293  38.654  19.189  13.856
90511W        W57294   7.193  29.659   0.082
90512W        W57295   8.609  13.797  14.879
90513W        W57296  41.371  20.158   1.791
90514W        W57297  33.474  19.063  11.733
90515W        W57298  29.668  29.744   2.411
90516W        W57299  17.343  20.779   3.227
90517W        W57300  20.852  26.608   1.250
90518W        W57301  41.450   2.726  10.468
90519W        W57302  15.813  36.368   2.359
90520W        W57303  44.547  22.678   4.211
90521W        W57304  16.758  22.237   3.675
90522W        W57305  17.245  31.864   0.839
90523W        W57306  15.501  21.172   2.297
90524W        W57307  18.716  22.764   1.186
90525W        W57308  19.731   1.696   2.365
90526W        W57309  26.659  41.969  12.930
90527W        W57310  14.844  39.352  11.991
90528W        W57311  13.877  32.597  14.583
90529W        W57312  19.782  19.173   1.418
90530W        W57313  42.423  18.266   4.223
90531W        W57314  30.535  17.212  12.785
90532W        W57315  21.822   8.461   1.384
90533W        W57316  35.823   0.265   4.524
90534W        W57317  25.425  18.081   2.638
90535W        W57318   1.463  33.879  14.957
90536W        W57319   8.298   4.701  13.897
90537W        W57320  39.673  31.841   4.139
90538W        W57321   8.199   3.994  11.622
90539W        W57322  20.523  11.412   4.179
90540W        W57323  22.547  42.592  12.067
90541W        W57324  34.468  23.091  13.288
90542W        W57325   4.921  40.654   3.299
90543W        W57326  35.474  18.651  14.360
90544W        W57327  29.682  33.382  12.504
90545W        W57328  39.722  26.063   1.796
90546W        W57329   8.603  22.186  10.718
90547W        W57330  28.034   2.926   1.786
90548W        W57331  36.668  27.530   3.941
90549W        W57332   8.846  13.544  12.846
90550W        W57333  26.288  31.508  11.850
90551W        W57334   8.369  11.137  10.648
90552W        W57335  26.569  42.512   1.650
90553W        W57336  43.643  33.962  14.883
90554W        W57337  21.979   7.330  13.092
90555W        W57338   2.920   6.222  11.647
90556W        W57339  15.529  41.672   2.774
90557W        W57340  36.460   5.448   1.649
90558W        W57341  19.690  25.060   3.390
90559W        W57342  43.997  14.218  14.323
90560W        W57343  44.915  36.472   4.775
90561W        W57344  21.751  15.693  14.365
90562W        W57345  25.719  18.182   4.146
90563W        W57346  35.355  30.457  11.155
90564W        W57347  36.605  20.311   1.630
90565W        W57348  16.311  42.946   2.744
90566W        W57349  16.414  34.837  11.541
90567W        W57350  27.919  36.163   2.839
90568W        W57351   5.281  35.523   0.984
90569W        W57352  31.638  41.563  13.934
90570W        W57353  12.809  17.977  12.517
90571W        W57354  39.503  27.578   0.098
90572W        W57355  25.850  12.314   1.349
90573W        W57356  38.057  30.976  11.512
90574W        W57357  16.767  30.609   3.293
90575W        W57358   5.207  15.804   0.004
90576W        W57359  17.733  13.035   1.856
90577W        W57360  17.810   3.707   3.422
90578W        W57361   8.768  20.929   2.376
90579W        W57362  37.146   8.837  10.679
90580W        W57363  35.533   8.301  14.606
90581W        W57364  34.401  15.191  13.283
90582W        W57365  16.295  41.171   4.936
90583W        W57366  11.923   9.304   1.250
90584W        W57367  31.019  21.977  14.314
90585W        W57368   0.759  36.786  14.436
90586W        W57369   6.050  43.918  10.585
90587W        W57370  25.962  29.492  11.003
90588W        W57371  15.854  27.472   2.746
90589W        W57372  24.590  37.432  10.127
90590W        W57373  38.854  33.988   0.988
90591W        W57374  18.661  32.576   1.010
90592W        W57375  16.546  12.142   0.277
90593W        W57376  44.475  21.663  11.048
90594W        W57377   4.213  11.008  14.290
90595W        W57378   3.926  29.510  12.800
90596W        W57379  10.417  37.434  12.339
90597W        W57380  26.014  33.119   4.056
90598W        W57381  41.459   4.468  10.625
90599W        W57382  39.806  27.703  11.273
90600W        W57383  18.360   6.203  11.595
90601W        W57384  36.538  41.416  12.917
90602W        W57385   3.745  32.233   0.414
90603W        W57386   1.900   3.729   4.600
90604W        W57387  32.794  20.002  13.405
90605W        W57388  10.315  23.693   0.744
90606W        W57389  11.125  10.463  12.046
90607W        W57390  16.595  15.797   0.379
90608W        W57391   6.892  41.424   1.008
90609W        W57392   8.898  27.075   2.946
90610W        W57393   7.915  19.270  11.976
90611W        W57394  29.948   1.431  13.027
90612W        W57395  27.734  30.596   2.761
90613W        W57396  37.090  10.776  14.863
90614W        W57397  22.148  31.550   4.825
90615W        W57398  10.056  44.337   0.844
90616W        W57399   1.960  18.320  14.937
90617W        W57400  26.441  42.750  12.417
90618W        W57401  27.038  43.266   4.632
90619W        W57402  10.490   2.388   0.708
90620W        W57403  31.822  35.955  13.783
90621W        W57404   5.948   1.360   3.625
90622W        W57405  13.023  22.209   4.609
90623W        W57406  20.388  39.288  10.838
90624W        W57407   1.843   5.926  13.359
90625W        W57408  34.497  42.522  12.554
90626W        W57409  25.737  37.908  13.054
90627W        W57410  28.117  10.683  10.263
90628W        W57411  44.441  22.366  13.297
90629W        W57412  41.768  43.999   3.043
90630W        W57413  11.196  23.003  12.974
90631W        W57414   6.054  22.689  11.919
90632W        W57415  44.306   2.426   0.462
90633W        W57416  26.006  10.409   0.302
90634W        W57417  25.553  19.717  12.021
90635W        W57418  13.396   9.662   3.616
90636W        W57419  36.459  23.860  12.877
90637W        W57420  25.961   4.922  14.989
90638W        W57421  38.545  25.285   0.218
90639W        W57422  20.543  30.657   0.827
90640W        W57423  43.371   6.800  11.155
90641W        W57424  21.397   4.510   4.080
90642W        W57425  17.436   4.403  14.954
90643W        W57426  13.873  16.741  11.742
90644W        W57427  29.582  32.513  14.290
90645W        W57428   0.303  18.364   3.201
90646W        W57429  33.422   0.225  12.743
90647W        W57430  19.203   2.406  10.194
90648W        W57431   7.936  27.596   1.791
90649W        W57432  26.060  39.855   2.777
90650W        W57433  23.945   4.176  12.958
90651W        W57434  23.068   2.209  12.401
90652W        W57435  33.555  28.610   2.635
90653W        W57436  10.858   5.352  10.576
90654W        W57437   6.955  40.844   4.046
90655W        W57438  43.628  16.056   0.451
90656W        W57439  34.034  40.980  12.432
90657W        W57440   6.136  44.353   2.823
90658W        W57441   6.788  21.527   3.882
90659W        W57442  19.529  18.028   5.063
90660W        W57443  16.814  27.563   1.435
90661W        W57444  20.875  10.867   1.813
90662W        W57445  29.670  37.420   3.703
90663W        W57446  19.892  28.969   0.864
90664W        W57447  20.291   1.781  10.670
90665W        W57448  32.324  11.623   0.348
90666W        W57449  40.969  20.661   0.676
90667W        W57450  10.785  38.514   2.700
90668W        W57451  41.924  32.796  10.970
90669W        W57452   3.268  10.390  14.882
90670W        W57453  41.415  22.479   0.237
90671W        W57454  20.819   8.416  11.232
90672W        W57455  41.401  24.671   1.760
90673W        W57456   6.205  29.912  12.015
90674W        W57457  43.316  43.587  11.490
90675W        W57458  14.693  38.594  11.049
90676W        W57459  14.214  22.761  11.969
90677W        W57460   7.151  16.207   0.434
90678W        W57461  33.539  32.597   3.138
90679W        W57462  39.331  15.615   0.305
90680W        W57463  24.958   3.357   3.296
90681W        W57464   2.969  11.457   4.047
90682W        W57465   6.681   5.848  13.445
90683W        W57466  30.017   7.111   4.226
90684W        W57467  22.038  11.278   2.263
90685W        W57468  42.170   5.765   4.196
90686W        W57469  28.639  36.666  13.481
90687W        W57470  18.497  26.529   1.532
90688W        W57471  35.470  44.763   0.894
90689W        W57472   6.881  38.810  14.660
90690W        W57473   0.293  29.843  11.261
90691W        W57474  26.708   0.917   0.745
90692W        W57475  14.704  24.136  13.588
90693W        W57476  13.657  11.814   3.238
90694W        W57477   2.853  26.066   1.671
90695W        W57478   1.026  38.271   0.760
90696W        W57479  28.960  22.616   4.395
90697W        W57480  39.351  30.619   0.864
90698W        W57481   9.285   3.414  12.612
90699W        W57482  25.712  36.358   4.704
90700W        W57483  27.113  16.872   1.776
90701W        W57484  42.334  33.233   0.231
90702W        W57485   7.176   5.230  11.734
90703W        W57486   7.185  19.640  10.656
90704W        W57487  27.886  23.748  11.477
90705W        W57488   2.338  14.376   0.929
90706W        W57489  36.488  25.497   2.219
90707W        W57490  23.460  42.741  13.529
90708W        W57491  20.363  20.684   0.994
90709W        W57492  34.484  38.422   2.106
90710W        W57493  15.908  43.939  14.430
90711W        W57494  19.269  21.936   4.001
90712W        W57495  31.918   0.021   2.073
90713W        W57496  33.565  33.113  12.371
90714W        W57497  18.684  17.254  11.356
90715W        W57498  44.253  20.042   3.399
90716W        W57499  34.065  43.666  13.116
90717W        W57500  21.004  12.543  14.959
90718W        W57501  41.443   2.943  10.929
90719W        W57502   7.402  15.957   2.747
90720W        W57503   8.891  24.036   0.747
90721W        W57504  18.974  17.749  14.064
90722W        W57505   6.481  35.387  14.901
90723W        W57506  20.805   2.392   4.288
90724W        W57507  25.062  44.427   2.652
90725W        W57508  31.910  32.409   4.234
90726W        W57509  26.426  12.921  14.555
90727W        W57510  27.025  14.664  14.807
90728W        W57511  31.851   8.331   0.893
90729W        W57512  38.606  34.050  12.932
90730W        W57513  34.986  21.097   3.724
90731W        W57514  44.304  31.123   1.574
90732W        W57515   4.326  11.423   4.888
90733W        W57516  21.589  21.031  12.180
90734W        W57517  19.693  24.586  11.987
90735W        W57518   8.427  17.188  11.216
90736W        W57519  13.675   6.903   0.350
90737W        W57520  29.637  23.715  14.790
90738W        W57521  36.074   8.837   3.266
90739W        W57522  18.604  14.159   0.588
90740W        W57523  41.516  40.448   4.604
90741W        W57524  34.936  17.664  10.488
90742W        W57525  28.974   8.272   2.754
90743W        W57526  18.096   7.079  14.006
90744W        W57527   5.811  39.482   1.886
90745W        W57528  18.665  33.072   2.775
90746W        W57529  12.803   6.405  13.437
90747W        W57530  12.799  37.268  12.049
90748W        W57531  32.444   2.820  11.567
90749W        W57532  29.577  35.768   0.414
90750W        W57533  18.098   0.454   4.020
90751W        W57534  17.711  35.994   1.290
90752W        W57535  16.328   7.441   4.544
90753W        W57536   0.215  41.525   0.466
90754W        W57537   7.875  22.300   2.198
90755W        W57538  24.280  23.303   1.945
90756W        W57539  12.578  43.203  10.775
90757W        W57540  20.227  15.291   1.814
90758W        W57541  12.895  41.632  12.423
90759W        W57542   0.350   2.699   0.799
90760W        W57543  26.835  14.711  11.057
90761W        W57544  39.499  29.203   3.869
90762W        W57545   0.559  23.771   3.264
90763W        W57546  30.583   6.117   1.282
90764W        W57547   9.176  28.465  13.805
90765W        W57548  36.148  24.217  10.711
90766W        W57549  31.862  10.438  12.615
90767W        W57550  17.504   3.846  13.966
90768W        W57551  21.223  43.327  11.083
90769W        W57552  44.262  24.661  13.421
90770W        W57553  25.465  38.493  11.515
90771W        W57554  36.624  37.944  11.496
90772W        W57555  30.285  44.824  12.234
90773W        W57556  37.000  33.928  11.945
90774W        W57557  27.554   8.193   2.173
90775W        W57558  30.524   9.421   0.918
90776W        W57559   7.193   2.201  12.375
90777W        W57560   6.028  18.884  14.032
90778W        W57561   8.410   4.863  10.713
90779W        W57562  24.208  30.158  14.577
90780W        W57563   0.258  42.059  14.742
90781W        W57564  16.586  28.134   3.604
90782W        W57565  12.337  29.784  12.713
90783W        W57566  15.699  31.071  12.623
90784W        W57567  42.304  41.852   3.779
90785W        W57568  14.038   0.594  11.100
90786W        W57569  29.553  42.294   1.612
90787W        W57570  23.065  30.449  14.885
90788W        W57571  37.359  23.839  13.635
90789W        W57572  24.819  40.291   3.756
90790W        W57573   7.089  29.699   4.395
90791W        W57574  30.063  22.174  13.386
90792W        W57575  23.005  24.823   5.265
90793W        W57576  43.533  17.776   2.428
90794W        W57577  38.904  40.755   4.053
90795W        W57578  20.514   3.699   1.396
90796W        W57579  17.349   3.677  14.439
90797W        W57580  42.026   5.868  11.600
90798W        W57581  38.777   8.227   0.399
90799W        W57582  40.384  11.157   2.302
90800W        W57583  17.251  36.843   1.513
90801W        W57584  32.921   4.658   0.592
90802W        W57585  11.142  20.787   1.370
90803W        W57586  13.114   4.876   4.062
90804W        W57587  39.943  23.230  10.732
90805W        W57588  32.929  18.702  11.492
90806W        W57589  15.032  17.101  14.495
90807W        W57590   4.770  16.701  12.149
90808W        W57591  24.329   5.881   3.218
90809W        W57592   3.928  17.065  11.773
90810W        W57593  31.151  39.358   3.238
90811W        W57594  31.152   7.374  10.593
90812W        W57595  21.218  25.952  14.350
90813W        W57596  25.031  29.941   0.434
90814W        W57597  19.133  18.717   3.778
90815W        W57598  25.821  15.197  14.932
90816W        W57599  22.558  11.737  10.524
90817W        W57600  19.339  11.418  11.186
90818W        W57601  13.662  42.040  12.036
90819W        W57602   7.161   6.686   0.342
90820W        W57603  16.556   4.914  13.021
90821W        W57604  19.584   9.189   4.632
90822W        W57605  37.587   4.779  11.561
90823W        W57606  33.471  43.653  13.719
90824W        W57607  20.550  16.815  13.302
90825W        W57608  15.889  36.742  13.430
90826W        W57609  35.068  30.099  14.841
90827W        W57610  28.573  21.472   0.038
90828W        W57611  18.247  41.496   4.558
90829W        W57612  36.932  44.810  12.943
90830W        W57613   3.201  20.126   1.836
90831W        W57614  42.607  31.386  11.196
90832W        W57615  44.755   7.123  14.371
90833W        W57616  30.524   0.933   4.117
90834W        W57617  28.654  10.193   2.994
90835W        W57618  30.624   0.305  11.985
90836W        W57619   2.232  10.041  12.085
90837W        W57620  42.273  24.155  13.992
90838W        W57621  14.933  42.178  14.940
90839W        W57622  32.308  23.735   0.519
90840W        W57623  44.430  35.484  10.026
90841W        W57624  37.448  42.860   3.246
90842W        W57625  14.816  25.318   0.032
90843W        W57626  13.005  26.104  11.995
90844W        W57627   0.321  12.472  11.607
90845W        W57628  10.275  32.874  11.546
90846W        W57629   3.024  16.861   1.468
90847W        W57630  26.257   1.920   0.333
90848W        W57631  38.019  17.699  10.592
90849W        W57632  12.268  33.428  10.554
90850W        W57633  13.675  26.198   3.593
90851W        W57634  29.911   3.258  14.997
90852W        W57635  34.450  42.220   1.777
90853W        W57636  34.567  12.811   0.729
90854W        W57637  30.254  41.160  10.314
90855W        W57638  28.949  30.314   3.789
90856W        W57639  13.923  40.035  14.390
90857W        W57640  43.888  37.822   2.870
90858W        W57641  21.018   3.933  10.188
90859W        W57642  40.605   9.078   4.626
90860W        W57643  41.321  17.018  12.957
90861W        W57644   8.140  24.778   0.886
90862W        W57645  19.772   2.276  13.304
90863W        W57646  44.113  37.014   0.932
90864W        W57647   4.202   2.945   0.050
90865W        W57648   3.333  22.286  12.490
90866W        W57649  28.701  26.886   2.347
90867W        W57650  41.292  24.922   3.590
90868W        W57651  30.129  26.602   0.769
90869W        W57652  19.076  34.067   0.235
90870W        W57653  35.293  18.673   1.481
90871W        W57654  30.920   1.581   4.616
90872W        W57655  40.105   9.177   4.534
90873W        W57656  44.467  28.221  13.675
90874W        W57657  36.687  16.030  12.816
90875W        W57658  44.643  38.513   3.333
90876W        W57659  26.692  16.994   4.768
90877W        W57660   1.677   8.220  12.080
90878W        W57661  31.086  34.261  14.373
90879W        W57662   9.190  41.057   4.693
90880W        W57663  29.478  14.578   0.680
90881W        W57664  37.089  26.248  12.882
90882W        W57665  15.187   5.119  14.965
90883W        W57666  42.221  43.477  13.529
90884W        W57667   9.057   1.164   2.702
90885W        W57668  26.280  15.287  11.703
90886W        W57669  34.066   3.916  12.625
90887W        W57670  17.365   4.525  11.226
90888W        W57671  11.206   2.546  14.431
90889W        W57672   1.795  39.976   2.903
90890W        W57673  16.704   5.215   3.343
90891W        W57674  36.104  33.996  11.764
90892W        W57675  27.368  41.870  11.996
90893W        W57676  34.769  15.771  12.542
90894W        W57677   0.986  12.326  14.557
90895W        W57678  15.233  39.536  12.358
90896W        W57679  21.744  26.566  12.463
90897W        W57680   6.898   1.693   4.549
90898W        W57681   1.690  42.432  13.954
90899W        W57682  43.234  25.106   1.451
90900W        W57683  39.758  44.355   2.307
90901W        W57684  44.671  29.291  10.244
90902W        W57685  33.414  38.294  10.824
90903W        W57686   8.271   8.952  12.880
90904W        W57687  14.227   8.665   2.496
90905W        W57688  13.338  21.123  14.136
90906W        W57689  37.868   3.709   1.815
90907W        W57690  39.998  22.346  14.792
90908W        W57691  16.968  11.406  13.537
90909W        W57692  38.269   9.935   4.769
90910W        W57693  37.860  43.761  13.386
90911W        W57694  27.119   0.729  10.661
90912W        W57695  38.677   6.414   0.746
90913W        W57696  41.272  35.548  14.338
90914W        W57697  15.282  42.911   0.390
90915W        W57698  21.480  35.147  10.934
90916W        W57699   5.128  21.041   0.093
90917W        W57700  22.682  26.061  12.994
90918W        W57701  32.558  25.136  11.966
90919W        W57702  33.522  37.582   4.053
90920W        W57703   0.484  16.545  12.605
90921W        W57704  27.464  12.366   1.391
90922W        W57705  32.552  28.519  12.579
90923W        W57706   8.396  18.516   3.252
90924W        W57707  14.112   7.961   9.796
90925W        W57708  32.380  42.519   3.404
90926W        W57709  41.556  44.401  13.614
90927W        W57710  14.600   4.352   1.785
90928W        W57711  10.114  24.996   2.934
90929W        W57712  27.136  41.842   1.794
90930W        W57713  15.070   8.601  13.989
90931W        W57714  29.280  42.012   4.329
90932W        W57715   6.067   3.876   2.455
90933W        W57716  27.077  28.988   3.284
90934W        W57717   9.306  37.452   2.049
90935W        W57718  11.167  18.466  12.118
90936W        W57719  10.719   8.949  14.697
90937W        W57720  44.533  44.061   3.274
90938W        W57721  25.859  40.337   2.660
90939W        W57722  43.448  13.876  11.913
90940W        W57723  19.524  12.577   2.876
90941W        W57724  12.181   9.971  10.502
90942W        W57725   2.228   9.852   4.351
90943W        W57726  25.254   3.259   1.937
90944W        W57727  25.182  37.932  13.803
90945W        W57728  34.025  43.616   2.563
90946W        W57729  44.513  11.154  11.518
90947W        W57730  16.639   0.997   0.401
90948W        W57731  10.865  43.398   2.340
90949W        W57732  10.591  32.550  13.763
90950W        W57733  24.050  20.823   4.858
90951W        W57734  17.471  29.623   4.749
90952W        W57735  23.989  23.540  13.035
90953W        W57736  23.348  39.933  10.825
90954W        W57737  22.691   1.247  10.605
90955W        W57738   0.762  26.056   0.864
90956W        W57739   5.669  25.043   2.592
90957W        W57740  17.091  44.727  11.421
90958W        W57741  15.074  13.039   0.892
90959W        W57742  35.064  43.811  10.490
90960W        W57743  44.203  32.849  12.458
90961W        W57744  38.094  37.779  10.959
90962W        W57745  36.326  44.084   1.170
90963W        W57746  42.807  30.670  12.413
90964W        W57747  20.496  28.085  12.451
90965W        W57748   5.741   6.002   0.763
90966W        W57749   3.783  16.109  13.465
90967W        W57750  44.393  27.432   4.081
90968W        W57751  36.458  12.006   3.507
90969W        W57752  24.329   6.324  13.736
90970W        W57753   0.312  13.225   4.969
90971W        W57754   6.850  34.090   0.886
90972W        W57755  39.290  32.808   4.160
90973W        W57756  34.935  32.123   1.962
90974W        W57757   6.734  43.557   3.127
90975W        W57758  24.532   0.972  12.040
90976W        W57759  11.810  43.168   4.489
90977W        W57760  13.187  43.927  13.104
90978W        W57761  40.060  41.698   1.814
90979W        W57762  43.626  23.226   3.122
90980W        W57763  33.275  32.608   0.786
90981W        W57764  14.664  39.430  14.951
90982W        W57765  43.809  37.461   2.130
90983W        W57766  38.831  12.115  12.831
90984W        W57767  24.313  24.341  13.516
90985W        W57768  36.017  39.274  11.078
90986W        W57769  43.035  41.607  13.990
90987W        W57770  37.448  12.462   2.606
90988W        W57771  21.549  31.261   0.148
90989W        W57772  29.612  14.598  11.700
90990W        W57773  37.580   0.818   1.066
90991W        W57774  21.117  10.403   1.897
90992W        W57775  19.828  17.593   1.946
90993W        W57776   7.815  43.514  13.034
90994W        W57777   1.449  32.078  11.703
90995W        W57778  13.781  10.581  12.385
90996W        W57779  40.726  21.664   1.059
90997W        W57780   2.527   0.711  11.417
90998W        W57781  27.987  35.966  13.509
90999W        W57782  13.934  29.935   4.227
91000W        W57783   4.405  33.347  12.411
91001W        W57784  16.831  25.045  11.126
91002W        W57785  34.308  11.357   1.630
91003W        W57786  43.261  20.998  14.517
91004W        W57787   1.546  19.616   4.589
91005W        W57788  18.256   6.019   1.855
91006W        W57789  12.742   7.169   5.465
91007W        W57790  12.949  41.497  11.925
91008W        W57791   5.929  26.403   2.428
91009W        W57792  27.695   5.946   3.912
91010W        W57793  18.972   1.409   1.407
91011W        W57794  43.772  30.897   0.693
91012W        W57795  15.804  44.977  12.203
91013W        W57796   1.923  32.106   0.804
91014W        W57797   3.840   5.741   0.446
91015W        W57798  15.817  29.020  14.040
91016W        W57799  20.277   5.262   2.599
91017W        W57800  11.513  35.947   2.584
91018W        W57801  28.389  38.364   1.681
91019W        W57802  19.675  12.518  11.018
91020W        W57803  26.247  17.011  13.483
91021W        W57804   4.740  22.788   4.053
91022W        W57805  34.130  26.020  11.565
91023W        W57806  24.181  30.462   4.531
91024W        W57807  12.139  11.877   4.114
91025W        W57808   2.747  31.314   0.847
91026W        W57809  35.134  37.370  10.780
91027W        W57810   5.846  34.707  12.561
91028W        W57811  10.466  11.822   2.924
91029W        W57812  10.706  44.747   1.615
91030W        W57813  41.801  22.138   0.431
91031W        W57814   0.255  36.055   0.402
91032W        W57815  19.584  19.743   2.242
91033W        W57816   8.697  17.172   3.901
91034W        W57817  21.958  21.444  13.023
91035W        W57818  34.029   5.420   3.792
91036W        W57819  13.252  11.478  10.898
91037W        W57820  22.119  39.360   3.777
91038W        W57821   5.453  30.733   5.111
91039W        W57822  28.585   1.887  14.159
91040W        W57823  18.260  44.291  12.807
91041W        W57824   2.358  10.348  12.498
91042W        W57825  10.625  29.046   4.674
91043W        W57826  30.234  43.388  13.956
91044W        W57827  11.929   7.534   2.957
91045W        W57828  28.630  24.782  12.592
91046W        W57829  44.883  11.290  10.992
91047W        W57830   2.272  14.926  10.685
91048W        W57831  21.045  14.728  12.944
91049W        W57832  28.850  42.777   4.323
91050W        W57833  37.952  21.264   1.934
91051W        W57834   7.860   6.958  10.818
91052W        W57835   6.591   7.652  13.760
91053W        W57836   1.998  32.891   3.076
91054W        W57837  27.924  24.870   2.489
91055W        W57838   6.223  13.128  13.425
91056W        W57839  16.274  18.171   3.716
91057W        W57840   3.648   4.220   2.836
91058W        W57841  31.057  36.491   1.760
91059W        W57842   5.718  25.602   3.207
91060W        W57843  11.684  14.168   0.993
91061W        W57844  42.774  12.523   4.465
91062W        W57845  15.133  15.372  11.156
91063W        W57846   6.665   3.632   4.297
91064W        W57847   4.550  17.285   1.788
91065W        W57848   2.974  29.202   1.542
91066W        W57849  29.904  17.188  11.261
91067W        W57850  30.391  43.864   1.897
91068W        W57851   2.264  14.868   0.808
91069W        W57852   6.202  27.582  12.909
91070W        W57853  42.753  16.814  13.891
91071W        W57854  42.716  36.767   1.195
91072W        W57855   1.788  37.238   4.149
91073W        W57856  29.513  13.435   1.470
91074W        W57857  42.261  35.407  10.801
91075W        W57858   3.824  40.797   2.323
91076W        W57859   0.530  30.637  13.335
91077W        W57860  34.838  32.069   2.811
91078W        W57861   1.821  31.030   4.224
91079W        W57862  10.694  16.172   3.094
91080W        W57863  16.324  24.554   0.676
91081W        W57864  11.956  15.313   2.179
91082W        W57865  21.198  44.956   2.322
91083W        W57866  10.205  11.849  12.810
91084W        W57867  26.189   5.518   0.236
91085W        W57868  31.721   5.455  13.242
91086W        W57869  25.029  38.296   1.385
91087W        W57870  44.750   5.049   2.294
91088W        W57871  26.233  22.090   2.201
91089W        W57872  35.844   7.666   1.344
91090W        W57873   8.230  35.170  10.660
91091W        W57874  35.403  24.130   2.971
91092W        W57875  32.591   4.909   4.516
91093W        W57876  44.424  38.117  14.329
91094W        W57877  10.828   0.351   3.808
91095W        W57878   1.282  13.063   0.259
91096W        W57879  13.625   4.383  12.814
91097W        W57880  44.916  19.315  13.484
91098W        W57881   7.252  36.821   0.840
91099W        W57882  11.589  11.922   3.216
91100W        W57883   5.440  44.196   4.428
91101W        W57884  30.075  42.584   4.157
91102W        W57885  41.180  26.962  11.543
91103W        W57886  43.403  39.046   4.590
91104W        W57887  22.229   0.825   5.450
91105W        W57888  35.963  21.107   2.236
91106W        W57889  42.222  18.130   2.359
91107W        W57890  32.916   6.087   1.825
91108W        W57891  26.351   5.017   0.911
91109W        W57892  18.255  29.551  10.690
91110W        W57893  23.358  43.464   3.058
91111W        W57894  42.498  20.994  11.597
91112W        W57895  26.972  10.153  11.822
91113W        W57896  22.599  28.247  12.576
91114W        W57897  40.974  22.840  11.790
91115W        W57898  11.350  27.205  14.955
91116W        W57899  20.651  39.294  13.760
91117W        W57900  28.577   1.858  11.910
91118W        W57901   4.828   1.681   4.113
91119W        W57902  16.547  17.778   0.204
91120W        W57903  11.659  31.914   1.955
91121W        W57904  18.326  21.475  12.332
91122W        W57905  18.109   4.929   3.189
91123W        W57906  11.659  37.317   2.196
91124W        W57907   3.246   1.128  13.919
91125W        W57908  38.606   3.988   1.609
91126W        W57909  37.873   5.472   2.678
91127W        W57910  15.888  36.988   3.602
91128W        W57911  38.428   9.204   2.240
91129W        W57912  33.085   9.399  10.710
91130W        W57913  14.696  32.967   2.017
91131W        W57914  38.202  28.490   4.877
91132W        W57915  11.937  30.307   2.820
91133W        W57916  41.067  32.451  12.028
91134W        W57917  13.117   2.028   2.377
91135W        W57918  28.548  28.056   2.590
91136W        W57919   5.778  29.199  13.318
91137W        W57920   1.987  25.627   1.986
91138W        W57921  33.519  41.870   3.090
91139W        W57922  13.971  31.578   3.676
91140W        W57923   5.956   3.824  13.458
91141W        W57924  44.380  13.928   9.928
91142W        W57925  28.463   4.932   0.850
91143W        W57926  40.808  36.045  11.590
91144W        W57927  23.509   7.571   3.294
91145W        W57928  38.462  26.160   1.675
91146W        W57929  33.780  38.380  12.478
91147W        W57930   6.845  12.333   3.771
91148W        W57931  40.126  30.692  14.107
91149W        W57932  26.096  31.010   0.836
91150W        W57933  15.326  33.947   5.094
91151W        W57934   9.956  42.466   0.476
91152W        W57935  28.202  30.585   2.561
91153W        W57936  18.588  25.514   1.762
91154W        W57937   1.391  21.429   2.261
91155W        W57938  16.321  13.747   1.670
91156W        W57939  17.386  28.051   1.392
91157W        W57940  21.077   5.850  11.206
91158W        W57941   1.330   5.850  13.402
91159W        W57942  32.287  28.432  10.738
91160W        W57943  34.875  15.078   4.089
91161W        W57944  41.884  40.345   1.552
91162W        W57945  27.155  31.518   4.628
91163W        W57946  35.548  39.963   4.570
91164W        W57947  10.177  23.457   2.221
91165W        W57948  29.457   4.894   3.597
91166W        W57949   5.674  35.499   2.406
91167W        W57950   9.076  19.417   0.255
91168W        W57951  38.037  38.826   2.808
91169W        W57952   8.423  36.043   2.766
91170W        W57953  44.687  13.126  12.039
91171W        W57954  14.217   1.217   0.086
91172W        W57955  25.360  25.527  11.157
91173W        W57956   5.474  42.200   3.312
91174W        W57957  24.207  18.155   2.412
91175W        W57958  32.080  17.186  14.766
91176W        W57959  28.885  19.735  14.522
91177W        W57960  34.841  42.910   4.540
91178W        W57961  22.000  38.249  14.327
91179W        W57962  40.904  31.060   2.128
91180W        W57963  27.171   7.808   0.492
91181W        W57964  23.603   9.230  13.873
91182W        W57965  16.096  15.908   5.054
91183W        W57966  19.515  28.842  11.646
91184W        W57967  22.413  24.669  14.824
91185W        W57968  38.717  36.628   0.418
91186W        W57969  26.608  29.437   3.238
91187W        W57970  17.540  19.657   0.044
91188W        W57971   5.741   9.514  12.060
91189W        W57972   7.655  30.611   3.613
91190W        W57973  19.127   8.446   1.235
91191W        W57974  16.590  29.580   4.316
91192W        W57975  39.200  38.753   2.200
91193W        W57976  39.745   7.011  13.851
91194W        W57977   2.164  32.067   0.311
91195W        W57978  35.451   1.287  14.026
91196W        W57979  27.224  30.034   4.513
91197W        W57980   0.381  42.433   4.618
91198W        W57981  14.826  35.814   2.882
91199W        W57982  44.346  15.236  10.606
91200W        W57983  38.997  23.402   4.584
91201W        W57984  14.349  36.190  13.910
91202W        W57985  35.033   5.519  11.023
91203W        W57986   9.270   8.179   2.359
91204W        W57987   2.337   2.385  10.581
91205W        W57988   2.448   8.881   1.163
91206W        W57989   7.326   7.724   4.388
91207W        W57990   6.116  32.038   2.684
91208W        W57991   3.923  37.289  13.166
91209W        W57992  17.858  20.636   3.194
91210W        W57993   2.282  40.941  11.164
91211W        W57994  34.816   7.711  13.185
91212W        W57995  12.866  20.427   1.896
91213W        W57996  26.109  31.663   4.157
91214W        W57997   0.526  38.342   3.644
91215W        W57998  33.373   6.045  12.824
91216W        W57999  24.804  43.531  13.176
91217W        W58000  10.902   4.442  14.443
91218W        W58001   5.121   2.336  14.472
91219W        W58002   4.176  39.324  13.493
91220W        W58003  43.969  25.604  10.548
91221W        W58004  21.264  28.386  11.965
91222W        W58005  44.311  19.854   1.851
91223W        W58006  24.633  35.664  14.336
91224W        W58007  25.189   8.021  11.635
91225W        W58008  21.077  15.267  11.566
91226W        W58009   7.464  39.356  13.881
91227W        W58010  13.239  39.478   0.965
91228W        W58011  20.733  37.100   1.891
91229W        W58012  39.753   3.517  13.811
91230W        W58013  41.878  35.966  10.246
91231W        W58014   6.713   7.754   0.789
91232W        W58015   0.840   9.695   1.323
91233W        W58016  44.204  17.180  14.272
91234W        W58017  26.720   6.222  13.451
91235W        W58018  32.521  23.090   1.327
91236W        W58019  22.852  44.514  11.923
91237W        W58020  43.509   4.100   2.620
91238W        W58021   0.018  29.528   2.150
91239W        W58022  33.574  18.580   4.528
91240W        W58023  17.281  31.926  12.200
91241W        W58024  42.962  25.956  14.424
91242W        W58025  42.259  24.266   3.408
91243W        W58026  22.044  27.916   1.795
91244W        W58027  16.179  28.133   1.617
91245W        W58028  21.261  43.839   1.235
91246W        W58029  13.268   4.653   2.786
91247W        W58030  11.393  18.786   4.616
91248W        W58031  41.493  12.283  14.024
91249W        W58032  34.039  21.139  12.929
91250W        W58033  25.571  25.731   2.122
91251W        W58034  35.187  39.800  13.852
91252W        W58035  18.502   3.233  13.438
91253W        W58036  20.508  17.031  11.510
91254W        W58037   0.800  38.767  14.348
91255W        W58038  24.215   9.049  11.533
91256W        W58039  33.131  34.093   2.459
91257W        W58040  10.344  40.965  11.625
91258W        W58041  44.374  20.524   3.250
91259W        W58042  28.106  26.564   3.612
91260W        W58043   3.293  14.380   4.011
91261W        W58044   1.803  17.427   3.114
91262W        W58045  25.838  33.102   0.111
91263W        W58046  32.378  19.959   0.621
91264W        W58047  17.453  13.856  11.117
91265W        W58048  33.988   2.838  14.850
91266W        W58049  35.346  21.732  11.690
91267W        W58050  19.857  42.486  12.477
91268W        W58051  12.573   0.582  13.010
91269W        W58052   8.915  42.876   2.760
91270W        W58053  22.215   5.544  11.717
91271W        W58054  30.447  44.272   2.667
91272W        W58055   2.011  31.550   0.281
91273W        W58056  21.296   9.340  12.521
91274W        W58057  14.296  16.211  14.987
91275W        W58058  44.793  16.486   5.560
91276W        W58059   6.340  14.348  14.018
91277W        W58060  27.155  26.741  12.298
91278W        W58061  32.913   3.474   1.017
91279W        W58062  21.176   0.963   4.601
91280W        W58063  16.588  15.799   4.140
91281W        W58064   3.314  27.618   2.827
91282W        W58065   1.746  44.943   2.152
91283W        W58066  20.072  14.619  13.278
91284W        W58067  44.780  24.114   0.415
91285W        W58068  36.083  34.618   4.255
91286W        W58069   3.416  15.357  10.757
91287W        W58070  10.275  18.018   0.438
91288W        W58071   3.909  26.645  10.572
91289W        W58072  36.850  37.888  14.764
91290W        W58073  19.464  10.814   3.627
91291W        W58074  30.500  27.390  14.876
91292W        W58075   6.734  10.912  10.660
91293W        W58076  27.903   5.595   4.348
91294W        W58077   8.282   5.157  13.401
91295W        W58078  41.459  23.553  13.926
91296W        W58079  26.713  22.595  13.007
91297W        W58080  41.661  44.795   2.379
91298W        W58081   4.177  32.536   3.145
91299W        W58082  33.563  30.488   4.277
91300W        W58083  15.090  27.010  14.917
91301W        W58084  42.971  41.763  14.487
91302W        W58085   0.836  13.840   0.439
91303W        W58086  19.582  23.243  12.552
91304W        W58087  42.810  40.774   1.297
91305W        W58088   9.786  31.072  10.663
91306W        W58089  20.588  18.248  14.410
91307W        W58090  37.479  24.227  12.880
91308W        W58091   1.852  12.200  11.134
91309W        W58092  28.440  35.980   2.154
91310W        W58093   5.629  33.407  10.258
91311W        W58094  37.080  22.792  13.755
91312W        W58095   5.020  37.606  12.016
91313W        W58096   3.462  24.912  11.084
91314W        W58097  25.050  11.666  14.436
91315W        W58098  32.250  38.391   3.436
91316W        W58099   6.713  23.118  10.699
91317W        W58100   3.235  24.985  13.139
91318W        W58101  36.065  22.431  14.888
91319W        W58102  11.348  34.163  12.058
91320W        W58103   5.717  31.147   1.974
91321W        W58104   4.015   5.925   4.439
91322W        W58105  14.592  11.464  12.926
91323W        W58106   1.937  21.984  13.976
91324W        W58107  42.027  25.417   0.914
91325W        W58108  23.730   7.425  11.619
91326W        W58109  39.036  33.520  10.984
91327W        W58110  16.252   3.140   4.751
91328W        W58111  18.083  42.056  13.437
91329W        W58112  30.438   3.294  12.504
91330W        W58113   6.407  21.590  13.530
91331W        W58114  43.861  23.358  10.723
91332W        W58115  39.952   2.727   2.897
91333W        W58116  19.498  22.152  12.963
91334W        W58117  43.694  35.868   2.346
91335W        W58118  38.898  33.536   1.269
91336W        W58119  11.655  28.019  11.970
91337W        W58120  20.114  10.470   4.336
91338W        W58121  30.457   3.930   3.682
91339W        W58122  34.376  29.511  12.615
91340W        W58123  26.736  44.916  13.945
91341W        W58124   7.765  34.983   1.292
91342W        W58125  23.371  23.976   3.272
91343W        W58126  31.173  27.723  12.752
91344W        W58127   7.119  23.024  14.432
91345W        W58128   9.059  25.045   4.109
91346W        W58129   5.777  21.988   1.645
91347W        W58130  13.689  35.102  10.695
91348W        W58131  16.833  44.230   2.091
91349W        W58132  15.099  21.244   0.236
91350W        W58133  29.643   8.726  11.187
91351W        W58134  10.866  26.178  12.439
91352W        W58135  39.185  12.525  11.957
91353W        W58136  23.122  34.404  10.840
91354W        W58137  37.957  10.590  13.889
91355W        W58138  30.019   3.992  13.556
91356W        W58139   8.878  10.758  12.993
91357W        W58140   0.591  12.540   4.587
91358W        W58141   6.448  20.782  11.350
91359W        W58142  35.938  40.911  13.899
91360W        W58143  19.734  43.813   0.302
91361W        W58144  38.436  42.842   1.249
91362W        W58145  11.124  20.686   2.904
91363W        W58146   9.039  24.428   1.858
91364W        W58147  39.115  18.232  14.468
91365W        W58148  18.773  28.166   3.179
91366W        W58149  36.547  41.642  14.746
91367W        W58150  21.423  41.077  14.523
91368W        W58151  10.726  42.191   0.864
91369W        W58152  43.964  11.681  12.931
91370W        W58153  43.666   5.681   2.683
91371W        W58154  18.571  11.631  11.652
91372W        W58155   1.256  11.876  14.519
91373W        W58156  13.679  34.696  11.447
91374W        W58157  14.180  26.048   0.036
91375W        W58158   6.345  41.213  12.518
91376W        W58159   3.958  43.790  12.640
91377W        W58160  33.486  27.673   1.848
91378W        W58161  18.246   1.282  13.412
91379W        W58162  44.670  42.455   0.372
91380W        W58163  30.954  14.341  11.670
91381W        W58164  14.613  41.911   2.735
91382W        W58165  11.248   8.756  11.710
91383W        W58166  12.107  27.229  10.634
91384W        W58167   6.625  23.210   0.717
91385W        W58168   8.839  25.593   1.614
91386W        W58169   3.843  38.790  10.759
91387W        W58170  39.583   4.907   2.264
91388W        W58171   7.188  13.606   1.677
91389W        W58172  20.112  18.987  10.674
91390W        W58173  28.493  40.229  11.853
91391W        W58174  21.108  43.063  11.537
91392W        W58175  17.862  39.755  12.428
91393W        W58176  29.892   3.967   0.323
91394W        W58177  28.101  41.111   3.588
91395W        W58178   5.234  22.179  13.888
91396W        W58179  35.303  31.050   4.083
91397W        W58180  34.432  26.181   4.270
91398W        W58181   3.031  29.403  12.543
91399W        W58182  39.470  12.539  10.678
91400W        W58183  26.534  15.689   2.634
91401W        W58184  25.132   1.255  11.646
91402W        W58185   1.235  35.655   3.444
91403W        W58186  24.191  26.758  10.848
91404W        W58187  28.532  28.817  10.587
91405W        W58188  14.789   1.497   3.817
91406W        W58189  27.448   2.923   1.474
91407W        W58190   6.212   0.381  12.657
91408W        W58191  18.136  35.915  13.985
91409W        W58192  10.945   7.846   1.727
91410W        W58193  30.554  14.405   2.262
91411W        W58194  25.209  14.544  11.968
91412W        W58195  27.577   2.894   2.466
91413W        W58196  35.827  32.887  12.946
91414W        W58197   2.444  23.008   0.046
91415W        W58198  42.341   6.425  13.168
91416W        W58199   0.468  25.740  13.341
91417W        W58200  15.135  40.272   1.431
91418W        W58201  16.991   7.768   3.039
91419W        W58202   2.176  41.990   1.265
91420W        W58203  12.328   7.222  12.828
91421W        W58204  14.614  33.159  11.624
91422W        W58205  22.730   4.396   4.645
91423W        W58206  11.744  10.707   3.674
91424W        W58207   2.108  30.578   4.208
91425W        W58208  26.411  10.739   3.686
91426W        W58209   5.340  44.568   4.069
91427W        W58210   7.657  35.864   4.152
91428W        W58211  43.726  11.756   2.456
91429W        W58212  43.367  37.728  12.672
91430W        W58213  21.225  19.250   2.268
91431W        W58214   3.323  22.157   4.526
91432W        W58215  24.235  11.932  11.109
91433W        W58216  16.234  24.756  13.919
91434W        W58217  31.903  28.210  11.061
91435W        W58218   2.501  39.435  11.487
91436W        W58219  27.886  42.299  13.857
91437W        W58220  20.055  18.651   2.769
91438W        W58221   6.832  24.733   1.891
91439W        W58222  25.055  41.049  14.353
91440W        W58223   8.245  20.779  11.587
91441W        W58224   6.005  24.287  11.489
91442W        W58225  12.721  11.597   4.705
91443W        W58226   7.725  23.318  13.132
91444W        W58227  30.987  43.388  10.819
91445W        W58228  34.838   9.908  13.711
91446W        W58229  11.491  32.904  12.331
91447W        W58230  12.599   5.917  11.553
91448W        W58231   3.814   5.309   3.608
91449W        W58232  40.375  24.899   0.298
91450W        W58233   5.161  39.927  14.163
91451W        W58234  36.489  18.918  13.119
91452W        W58235  10.465   3.794   0.014
91453W        W58236  41.989   3.365   0.364
91454W        W58237  29.790   4.716   0.976
91455W        W58238  19.448  14.129  14.299
91456W        W58239  11.556  33.909  14.491
91457W        W58240  44.745  22.592   2.881
91458W        W58241  39.082  17.048   2.186
91459W        W58242  37.564  38.839  10.320
91460W        W58243  23.066  41.970  12.311
91461W        W58244  15.378  21.987   4.030
91462W        W58245  25.651   5.244   3.771
91463W        W58246  40.952  36.435   4.755
91464W        W58247  12.783  19.325   1.156
91465W        W58248  17.738  28.219  14.961
91466W        W58249  19.694   2.046   9.808
91467W        W58250  10.349  38.470  10.700
91468W        W58251   5.484  21.301   4.355
91469W        W58252  32.580  39.507   1.879
91470W        W58253  38.966  17.946   1.714
91471W        W58254  30.382   5.988  14.087
91472W        W58255  39.912  34.442   1.328
91473W        W58256  39.551  37.457   2.589
91474W        W58257  16.030  32.971  14.139
91475W        W58258  44.603  32.341   2.150
91476W        W58259  41.436  10.329   0.654
91477W        W58260  33.918  12.756   4.540
91478W        W58261   8.275   8.108   2.241
91479W        W58262  25.558   2.631   3.398
91480W        W58263  30.483  37.442  11.102
91481W        W58264   3.929  31.463  14.252
91482W        W58265  20.752  19.536   0.929
91483W        W58266  18.973  41.894   1.486
91484W        W58267   5.271  30.461   3.682
91485W        W58268  41.340  22.526   1.220
91486W        W58269  32.184  20.539   3.604
91487W        W58270   9.633  20.686   0.363
91488W        W58271  12.001   3.973  12.125
91489W        W58272  30.564  30.606  12.968
91490W        W58273  30.131  12.400  13.269
91491W        W58274   8.834  41.063  12.468
91492W        W58275   5.330  26.705   1.716
91493W        W58276  34.994  38.581   3.166
91494W        W58277   2.343   1.421  12.494
91495W        W58278  22.449  44.069  13.495
91496W        W58279  33.868   1.778  10.795
91497W        W58280  27.189  26.786  14.011
91498W        W58281  17.012  35.043   4.642
91499W        W58282  11.207  28.169   3.858
91500W        W58283  31.072  21.244   1.308
91501W        W58284  44.375  37.735  11.624
91502W        W58285  25.178  22.653   3.295
91503W        W58286  30.505  19.090  13.400
91504W        W58287  42.262  14.040   1.786
91505W        W58288   4.619  41.345  11.093
91506W        W58289  23.273  17.774   2.421
91507W        W58290   5.465  23.646  14.497
91508W        W58291  19.074  20.549  14.899
91509W        W58292  20.795  41.437  14.961
91510W        W58293  23.119  32.461   4.071
91511W        W58294  24.725  13.989  11.511
91512W        W58295  30.152   2.973   2.808
91513W        W58296  40.981   1.573   1.202
91514W        W58297  34.630  34.627  14.255
91515W        W58298  34.275  15.741  12.494
91516W        W58299  15.220  26.242  12.533
91517W        W58300  44.433  31.527   4.516
91518W        W58301   0.506  30.030  14.946
91519W        W58302  26.057   2.863   4.301
91520W        W58303  25.226  40.421   3.467
91521W        W58304   0.865  22.314  12.000
91522W        W58305  14.358  23.946   1.818
91523W        W58306   1.299  34.113   0.393
91524W        W58307  21.724   4.442  10.719
91525W        W58308   9.910  18.724   2.574
91526W        W58309  25.180  22.528  11.415
91527W        W58310  31.106  23.644  11.638
91528W        W58311  36.529  28.556  11.938
91529W        W58312  14.288   9.552  13.948
91530W        W58313  43.537   7.604   1.898
91531W        W58314  34.911  32.504  12.917
91532W        W58315  13.947  34.276   9.692
91533W        W58316  17.896  36.179   1.809
91534W        W58317  13.790  19.179  11.098
91535W        W58318  42.388   6.865  10.232
91536W        W58319   9.857  30.206  14.404
91537W        W58320  17.360  17.343   2.132
91538W        W58321  22.646  35.369   2.836
91539W        W58322   4.165  42.246  13.875
91540W        W58323  34.885  11.397  12.733
91541W        W58324  27.578   3.469  12.311
91542W        W58325   1.059  42.282   3.683
91543W        W58326  27.571  44.995  13.584
91544W        W58327  36.090  26.038   4.725
91545W        W58328   8.263  41.247  12.471
91546W        W58329  30.183  33.256   3.727
91547W        W58330  23.703  12.659  13.132
91548W        W58331  10.683  13.288   0.953
91549W        W58332  12.027  44.965   4.077
91550W        W58333   9.169  13.086  14.469
91551W        W58334  22.987   5.914   0.095
91552W        W58335  36.423  26.203  13.929
91553W        W58336  20.663   7.253   3.596
91554W        W58337  24.079   8.220  11.205
91555W        W58338  20.988  33.134  14.788
91556W        W58339  27.589  13.300  12.923
91557W        W58340  16.351  24.139   1.344
91558W        W58341   9.874  21.263   4.524
91559W        W58342  18.973  18.527  11.696
91560W        W58343  23.772  26.086   0.303
91561W        W58344  24.954  23.414   2.837
91562W        W58345   0.767  16.820  13.876
91563W        W58346  23.106   0.020   2.251
91564W        W58347   1.512  30.243  11.855
91565W        W58348  39.971  26.264   0.188
91566W        W58349   7.863  40.431   2.227
91567W        W58350   2.688  32.919  11.176
91568W        W58351   1.409  16.621  14.232
91569W        W58352  21.644  12.467   4.597
91570W        W58353  39.124   4.251  14.907
91571W        W58354  33.419  16.794   4.340
91572W        W58355  16.800  41.128   0.028
91573W        W58356  24.546  44.179   4.783
91574W        W58357  36.030  26.562   1.877
91575W        W58358  42.486  29.466  10.969
91576W        W58359  18.520  29.451   1.965
91577W        W58360  24.683  43.522   2.585
91578W        W58361  20.543  43.239   4.611
91579W        W58362  12.051  30.919   2.853
91580W        W58363  42.575  39.153  13.969
91581W        W58364   0.504  10.829  12.422
91582W        W58365  17.314   2.472   4.458
91583W        W58366  43.274  23.566  13.434
91584W        W58367  31.716  16.264  11.115
91585W        W58368  18.708  36.858  13.449
91586W        W58369  20.992  39.597  14.012
91587W        W58370  21.918  14.357  14.436
91588W        W58371  41.733  16.655   0.349
91589W        W58372  18.332  36.783  12.806
91590W        W58373  23.643   0.942  13.982
91591W        W58374  15.372   4.182  13.056
91592W        W58375  29.406  13.321   4.103
91593W        W58376  27.917   7.661  11.537
91594W        W58377  20.553  15.179  12.690
91595W        W58378  35.546   5.143  14.369
91596W        W58379  15.611  21.252  14.935
91597W        W58380  16.244  21.657  12.040
91598W        W58381   7.298  14.428   0.986
91599W        W58382  10.125   1.612  14.974
91600W        W58383  39.118  26.728   4.188
91601W        W58384  32.748   2.226   1.156
91602W        W58385  13.800  12.587   1.342
91603W        W58386  43.545  23.262   1.258
91604W        W58387  36.679  32.076  12.903
91605W        W58388   2.756   3.248   0.988
91606W        W58389   8.469  29.978  10.968
91607W        W58390  40.766   2.734  14.334
91608W        W58391  43.202   8.996  13.472
91609W        W58392  30.082  43.879  11.560
91610W        W58393  23.093  33.071   2.409
91611W        W58394  34.899  40.261  13.856
91612W        W58395   7.729   5.969   0.498
91613W        W58396  22.992  29.432  13.187
91614W        W58397  41.986  26.385  11.584
91615W        W58398  28.602  43.762  11.997
91616W        W58399  36.580  23.767   1.676
91617W        W58400  19.759  19.599   3.678
91618W        W58401  19.230  41.255   0.948
91619W        W58402  27.437  40.516   2.701
91620W        W58403  42.549  35.457   0.023
91621W        W58404   1.522  36.448  12.599
91622W        W58405  35.364  24.971   3.585
91623W        W58406  23.363  12.460   2.199
91624W        W58407  43.551  42.874  13.364
91625W        W58408  12.863  19.770  12.565
91626W        W58409  11.216  27.947  12.218
91627W        W58410  31.112   9.811  10.821
91628W        W58411   3.728  26.244   1.116
91629W        W58412  40.357  17.105  11.640
91630W        W58413  44.955  13.283  12.900
91631W        W58414  22.947  12.325  13.350
91632W        W58415  37.434  22.686   1.304
91633W        W58416   0.666   5.785  11.279
91634W        W58417   0.094  22.628   4.129
91635W        W58418  12.801  11.044   1.867
91636W        W58419   6.265  41.246  13.539
91637W        W58420   6.252  11.681   4.900
91638W        W58421   3.950  26.432   2.457
91639W        W58422  26.253   6.700  12.944
91640W        W58423  12.212  40.908   0.831
91641W        W58424  44.821  34.857  10.661
91642W        W58425   1.495  24.017   3.467
91643W        W58426  36.914  18.630  10.474
91644W        W58427  26.236  21.916  14.012
91645W        W58428  38.480  17.786   4.394
91646W        W58429  36.552  43.941   2.375
91647W        W58430  23.983  40.395  13.330
91648W        W58431  11.970  12.598   4.691
91649W        W58432  21.689   1.837   5.084
91650W        W58433  35.358   0.295   1.527
91651W        W58434  19.025  29.079  14.956
91652W        W58435  41.700   9.835  12.397
91653W        W58436  38.465  11.630  11.617
91654W        W58437  18.159  31.042  14.773
91655W        W58438  12.680  14.484  14.984
91656W        W58439  18.022  10.013  14.711
91657W        W58440  42.347  16.690   3.998
91658W        W58441  36.296  43.576   2.058
91659W        W58442  29.263  37.009   1.946
91660W        W58443  27.199  40.042   2.655
91661W        W58444  41.499   4.879  14.011
91662W        W58445  22.705  21.274  14.071
91663W        W58446   1.543  36.818  14.867
91664W        W58447  33.471  17.704   5.085
91665W        W58448   9.755  24.457  13.471
91666W        W58449  39.579   0.318   3.688
91667W        W58450  12.523  24.194  11.497
91668W        W58451  42.729  44.229   2.846
91669W        W58452  19.164  34.880  12.173
91670W        W58453  35.496  34.346   2.982
91671W        W58454  25.493  15.730   2.741
91672W        W58455   7.219  44.805  14.953
91673W        W58456  30.992   7.951  10.411
91674W        W58457  35.959  35.434   3.683
91675W        W58458  22.570  25.421   2.648
91676W        W58459   5.671   3.962   2.075
91677W        W58460  26.002   9.174  11.171
91678W        W58461  21.951  20.527  14.737
91679W        W58462   6.745   8.415  12.473
91680W        W58463  22.076  33.513   4.281
91681W        W58464  43.530  11.269   3.158
91682W        W58465  31.061  35.150   3.122
91683W        W58466   0.542  41.289   3.176
91684W        W58467   8.459  11.037   9.498
91685W        W58468   0.955  35.141  12.039
91686W        W58469  44.318  25.635  11.535
91687W        W58470  38.244  12.423   3.034
91688W        W58471  41.304  16.807   1.354
91689W        W58472   1.878   9.158  11.304
91690W        W58473  36.870   3.150   3.707
91691W        W58474  33.061  38.965   3.211
91692W        W58475  35.752  18.260  13.033
91693W        W58476  22.900  26.566   0.226
91694W        W58477  20.722  38.345   3.677
91695W        W58478  39.122  35.897   1.958
91696W        W58479  31.673  26.007  12.571
91697W        W58480  19.550  26.999  11.073
91698W        W58481  22.148  32.122  12.888
91699W        W58482  33.051  35.961   1.081
91700W        W58483  37.964  23.580   4.816
91701W        W58484  28.126  21.724  14.938
91702W        W58485  26.229   7.311  14.830
91703W        W58486   8.162  12.504  14.952
91704W        W58487  38.874  14.843   2.626
91705W        W58488  28.111  22.912  10.349
91706W        W58489   2.751  15.100   0.381
91707W        W58490  36.421  18.319  11.522
91708W        W58491   9.144  15.748   3.141
91709W        W58492  24.350  43.223   0.420
91710W        W58493  43.375  30.661   1.373
91711W        W58494  15.846  23.154  14.040
91712W        W58495  28.883   7.737  12.388
91713W        W58496  36.852  37.471  11.560
91714W        W58497  25.993   0.287   0.674
91715W        W58498  27.278  35.596   4.018
91716W        W58499  14.245  29.972   3.801
91717W        W58500  36.180   5.303   3.229
91718W        W58501  13.469  40.605   4.613
91719W        W58502  43.257  42.005   0.315
91720W        W58503   0.399   0.961   2.035
91721W        W58504  23.749  11.871  14.134
91722W        W58505  42.013   8.858   3.183
91723W        W58506   9.220  41.703  10.820
91724W        W58507  24.220  17.649  14.688
91725W        W58508  11.129  12.016  14.396
91726W        W58509   9.235  28.238  10.691
91727W        W58510   4.200   4.831  12.909
91728W        W58511  30.633  30.649   4.607
91729W        W58512   5.670  24.622  11.630
91730W        W58513   1.434  25.353  14.912
91731W        W58514   0.897  38.519   2.973
91732W        W58515  41.452  27.327   2.975
91733W        W58516  36.623  44.938   3.461
91734W        W58517  39.611  42.426  12.494
91735W        W58518   5.707  17.239  10.961
91736W        W58519  28.789  40.004  11.468
91737W        W58520  20.069  16.140   3.281
91738W        W58521   9.559  37.004   0.999
91739W        W58522  34.263   4.325  12.893
91740W        W58523  10.923  35.440  13.029
91741W        W58524   0.336  13.316   0.394
91742W        W58525  20.285   3.612  14.339
91743W        W58526  26.705  38.523   1.809
91744W        W58527  38.801   5.601   1.965
91745W        W58528   2.780  42.491   0.459
91746W        W58529  10.714  38.938   4.126
91747W        W58530  17.436   8.106  10.947
91748W        W58531  42.450  13.722  14.288
91749W        W58532  37.422  35.855   4.744
91750W        W58533   1.435  35.961  12.371
91751W        W58534  11.938  42.158   4.518
91752W        W58535  21.216  22.539  13.621
91753W        W58536  18.141  17.309  11.812
91754W        W58537  22.287  20.921  11.124
91755W        W58538  32.456  14.734   1.723
91756W        W58539   0.646  34.491   2.271
91757W        W58540  21.337  17.225   0.293
91758W        W58541  19.213  23.015   2.291
91759W        W58542  19.102  17.320   3.126
91760W        W58543  14.312  18.372  14.994
91761W        W58544  17.568  14.294  11.534
91762W        W58545  18.988  41.926  11.222
91763W        W58546  18.173  32.425   4.626
91764W        W58547  36.745  30.666   2.800
91765W        W58548   5.649  19.137  14.269
91766W        W58549  38.238  24.212  13.284
91767W        W58550   3.964  27.241   2.631
91768W        W58551  12.386   4.434  12.425
91769W        W58552  17.603  43.234  11.085
91770W        W58553  32.052  34.904  13.007
91771W        W58554  27.241  26.068   9.725
91772W        W58555   2.483  34.980   1.676
91773W        W58556  19.587  10.516   3.096
91774W        W58557   9.399  41.832   2.129
91775W        W58558  42.498   3.334  14.529
91776W        W58559   1.308  41.975  12.643
91777W        W58560  18.103  28.836   4.159
91778W        W58561   6.416   5.786  10.337
91779W        W58562  23.678  17.130  13.413
91780W        W58563  37.645  37.920  13.996
91781W        W58564   6.084   8.787   2.608
91782W        W58565  21.153  12.090  11.636
91783W        W58566  40.011  11.427  13.756
91784W        W58567  40.050  14.586  13.368
91785W        W58568  30.711  32.153   3.252
91786W        W58569  43.868   5.499  11.519
91787W        W58570  41.791  34.859   5.209
91788W        W58571  26.039  44.461   0.963
91789W        W58572   2.437  21.219  14.050
91790W        W58573  38.149  31.998  13.826
91791W        W58574   6.231  28.993  12.022
91792W        W58575  28.893  10.845  14.416
91793W        W58576  16.789  33.165  11.607
91794W        W58577   5.713   4.733   2.800
91795W        W58578   6.806  37.080   3.392
91796W        W58579  22.891   0.928  13.453
91797W        W58580  44.310   2.949   3.621
91798W        W58581  35.511  25.239  10.604
91799W        W58582  21.899  43.563  12.936
91800W        W58583  44.385  36.093  12.991
91801W        W58584   3.917  34.031   1.464
91802W        W58585   9.852   8.947   0.049
91803W        W58586  23.245  25.473   0.905
91804W        W58587  22.552  39.895   1.452
91805W        W58588  39.662  30.905   3.179
91806W        W58589  10.234   9.145  11.629
91807W        W58590  18.682  43.828  13.317
91808W        W58591   8.414  32.927  10.394
91809W        W58592  34.076  17.788   2.326
91810W        W58593  16.483  40.469  11.099
91811W        W58594  24.464   8.719   0.512
91812W        W58595  14.335  32.184   0.949
91813W        W58596   0.037   3.791  13.086
91814W        W58597  37.211  14.226  14.281
91815W        W58598  37.997  39.640  12.445
91816W        W58599  18.048  25.737   1.802
91817W        W58600  21.545  44.672   4.365
91818W        W58601  29.910  40.165   4.502
91819W        W58602   2.767  20.375  13.440
91820W        W58603  36.285  19.180   2.698
91821W        W58604   5.229   9.258  13.598
91822W        W58605  40.985  19.285   0.380
91823W        W58606  32.766  26.710   2.382
91824W        W58607  26.439   9.382   3.893
91825W        W58608  24.915  13.544   2.807
91826W        W58609   9.882  34.070  14.891
91827W        W58610   5.760  14.883   2.865
91828W        W58611  36.028  30.632  13.506
91829W        W58612   2.694  38.718  12.398
91830W        W58613   9.916  38.010  12.177
91831W        W58614  30.286  27.475   2.859
91832W        W58615  26.312  12.776   4.553
91833W        W58616  30.423  19.670  13.120
91834W        W58617  43.691  40.432  12.877
91835W        W58618  37.786  27.869  14.299
91836W        W58619  29.254   6.499  13.479
91837W        W58620  38.316  22.690   3.782
91838W        W58621  20.670  33.538  12.682
91839W        W58622  14.406  27.975   2.616
91840W        W58623  38.191  22.021  10.224
91841W        W58624  19.326  11.259  12.779
91842W        W58625  27.583   9.991  10.343
91843W        W58626  14.581  30.091  10.935
91844W        W58627   4.207  29.748  14.462
91845W        W58628  12.717  40.062   4.514
91846W        W58629  12.293  16.833  13.946
91847W        W58630  31.669   6.347  10.658
91848W        W58631   8.706  10.667   5.221
91849W        W58632  36.517  31.070  11.655
91850W        W58633  38.486   2.564   2.844
91851W        W58634  27.541  21.832  14.606
91852W        W58635   4.191  37.307   3.610
91853W        W58636  24.221   7.970  12.182
91854W        W58637   7.806  40.480   3.445
91855W        W58638  32.857  35.024  14.526
91856W        W58639  30.160  41.599  12.994
91857W        W58640  34.530   3.431   1.806
91858W        W58641  26.652  36.655   2.340
91859W        W58642  26.592  22.104  13.133
91860W        W58643   4.485  17.314  13.768
91861W        W58644  33.603  29.063  13.514
91862W        W58645  32.717   5.977  13.912
91863W        W58646  30.402  12.635  12.009
91864W        W58647  27.805  23.104  14.993
91865W        W58648  36.104   8.757  13.327
91866W        W58649  14.316  34.556   1.475
91867W        W58650  44.740  24.512  13.425
91868W        W58651  28.400  11.772  13.309
91869W        W58652  23.501  33.271   0.399
91870W        W58653   8.697  11.691  14.533
91871W        W58654  40.466  42.838   2.371
91872W        W58655  41.530  38.305   0.515
91873W        W58656  10.247  31.680  11.111
91874W        W58657  12.154  12.035   1.389
91875W        W58658  36.930  19.154  11.176
91876W        W58659   8.250  10.231  11.709
91877W        W58660  29.095  42.170  12.434
91878W        W58661  10.814   2.770   3.677
91879W        W58662   7.418   4.742   0.323
91880W        W58663   8.604  10.388   0.365
91881W        W58664  29.682   0.067   3.536
91882W        W58665  24.826  14.088   4.210
91883W        W58666   5.168   6.524   1.435
91884W        W58667  42.531   2.300  13.083
91885W        W58668  12.405   0.818  14.683
91886W        W58669  30.650  40.449  14.857
91887W        W58670   9.804   0.954  12.820
91888W        W58671  28.162  26.168   1.823
91889W        W58672  32.083  39.549   3.614
91890W        W58673   2.532  26.803  11.999
91891W        W58674  21.385  26.986   5.719
91892W        W58675  12.700  12.143   4.633
91893W        W58676  13.074  20.106  12.901
91894W        W58677  30.831  33.990   0.807
91895W        W58678  36.356  43.431   0.689
91896W        W58679  44.536  21.728   2.601
91897W        W58680  20.683  30.612  11.286
91898W        W58681  29.995  11.902   4.264
91899W        W58682  20.089  37.412   3.637
91900W        W58683   2.495  27.594  10.667
91901W        W58684  15.821  23.298   4.065
91902W        W58685  25.009  15.123   3.391
91903W        W58686  14.764  29.264  13.891
91904W        W58687  29.842  12.408   4.195
91905W        W58688  20.069   2.904   3.620
91906W        W58689  36.459   2.213  14.402
91907W        W58690  16.057  23.495  14.417
91908W        W58691  32.071   3.186   0.484
91909W        W58692  21.739  11.229   1.850
91910W        W58693  14.720  36.599  11.615
91911W        W58694   6.894  10.875   4.510
91912W        W58695   3.620  13.571   4.301
91913W        W58696  40.554  35.998   4.271
91914W        W58697  42.583  13.685   0.504
91915W        W58698   3.677  23.108   4.508
91916W        W58699  18.870  21.116   2.818
91917W        W58700  11.067  35.850  10.173
91918W        W58701  10.620  15.427  13.476
91919W        W58702  41.993  12.122  14.386
91920W        W58703  17.380  44.780   0.420
91921W        W58704  40.423  20.145   0.267
91922W        W58705  11.960  22.000   4.871
91923W        W58706  23.459  43.092  13.152
91924W        W58707  44.928  17.040   0.436
91925W        W58708  31.799  30.940  11.598
91926W        W58709  33.512  21.648   0.187
91927W        W58710   2.551  17.393   4.114
91928W        W58711  22.739  10.822  10.729
91929W        W58712  28.736  11.189   4.221
91930W        W58713  27.378  42.233   2.375
91931W        W58714   2.023  18.217  10.694
91932W        W58715   4.972   3.345  12.947
91933W        W58716  34.304  21.190   1.619
91934W        W58717  16.954   2.417  13.415
91935W        W58718  36.332  37.039   2.182
91936W        W58719  31.182  18.108   0.187
91937W        W58720  22.922   7.471   1.334
91938W        W58721  15.233   1.732  12.997
91939W        W58722  42.365  11.680  12.386
91940W        W58723   7.382  39.575  11.876
91941W        W58724  10.250   4.372  13.845
91942W        W58725  33.861  16.379   3.611
91943W        W58726  27.648   6.704  14.294
91944W        W58727  21.068  26.147   1.202
91945W        W58728  41.409  37.938  12.968
91946W        W58729  15.357  11.642  11.087
91947W        W58730  35.468  13.631  12.446
91948W        W58731  12.346  21.183   0.972
91949W        W58732  27.705  34.918   3.193
91950W        W58733  19.599  36.079  13.045
91951W        W58734   2.409   8.880   4.105
91952W        W58735  16.229   0.875   2.913
91953W        W58736  27.902  28.993  14.737
91954W        W58737   8.107   2.905  12.907
91955W        W58738   1.044  31.944  12.599
91956W        W58739  26.962  28.669   2.918
91957W        W58740  21.349   6.904   2.286
91958W        W58741   9.172  14.618   0.211
91959W        W58742  38.120   8.648  10.459
91960W        W58743  33.827  21.152   1.788
91961W        W58744  36.095  33.447  12.046
91962W        W58745  25.569   2.808  13.707
91963W        W58746   3.270  34.363  10.836
91964W        W58747  21.765  35.224  12.347
91965W        W58748   2.774   3.396   3.662
91966W        W58749  14.098  37.659  14.040
91967W        W58750  19.396  31.707   3.396
91968W        W58751  33.026   1.041  11.465
91969W        W58752  43.123  21.812   4.374
91970W        W58753  31.424  26.687  14.293
91971W        W58754  40.858  17.778   0.024
91972W        W58755  19.458  18.298  13.595
91973W        W58756  23.134  29.206   4.849
91974W        W58757  30.915  23.566   4.715
91975W        W58758  39.584   7.855   1.195
91976W        W58759  16.070  42.361  12.166
91977W        W58760   6.305  34.141   3.793
91978W        W58761   5.801  30.970  14.528
91979W        W58762  19.271  36.432   1.834
91980W        W58763  31.346   3.323  12.063
91981W        W58764  26.884  25.732  11.796
91982W        W58765   4.788  40.771   1.303
91983W        W58766  24.715   8.373  13.903
91984W        W58767  37.597  32.874   3.630
91985W        W58768  18.791   9.152  10.610
91986W        W58769  21.814  24.929  12.530
91987W        W58770  28.412  17.145  10.599
91988W        W58771   0.252  31.497   4.113
91989W        W58772  29.585  22.058   3.798
91990W        W58773   0.699  20.403  13.413
91991W        W58774  20.018  20.590  14.033
91992W        W58775  17.349  13.398  11.499
91993W        W58776  22.522  24.509   4.519
91994W        W58777  10.038  21.150   0.455
91995W        W58778  10.446  22.255   1.502
91996W        W58779   1.018  21.531   2.663
91997W        W58780  14.097   5.789  14.258
91998W        W58781   7.327   2.413   1.712
91999W        W58782  44.469  15.970   0.687
92000W        W58783  30.434   6.687  13.579
92001W        W58784  24.308  32.887   1.693
92002W        W58785   8.648  33.964   0.845
92003W        W58786  17.406  21.508   2.031
92004W        W58787  35.052  34.641   2.924
92005W        W58788  23.445  40.518  13.203
92006W        W58789  40.987  29.768  11.166
92007W        W58790  16.100   5.007   9.939
92008W        W58791  39.937  28.078  14.942
92009W        W58792   9.866  32.701   1.708
92010W        W58793  34.638   8.237   5.018
92011W        W58794  26.280  24.054  14.784
92012W        W58795  43.346  25.557  10.611
92013W        W58796   6.742  18.526   1.637
92014W        W58797   1.807   7.918  12.647
92015W        W58798   7.201   9.223  14.337
92016W        W58799  10.903   6.438   2.865
92017W        W58800  19.264  44.215   3.662
92018W        W58801  27.991  27.409  12.834
92019W        W58802  11.922  14.854   3.653
92020W        W58803  25.053  28.722  12.551
92021W        W58804  33.682  37.435   2.828
92022W        W58805  12.285  22.836  10.530
92023W        W58806  12.607   9.511   3.993
92024W        W58807  40.627   7.668  13.351
92025W        W58808  33.567  30.205   3.530
92026W        W58809   6.933   3.949  10.711
92027W        W58810  18.639  24.538   4.435
92028W        W58811  39.538  23.924   4.122
92029W        W58812  26.367  15.562   1.691
92030W        W58813  34.360  33.367  13.467
92031W        W58814  39.101  10.788   4.312
92032W        W58815  43.346   0.573   2.313
92033W        W58816  11.072  12.765  10.952
92034W        W58817  26.581  16.730  14.403
92035W        W58818   1.917  21.130   2.105
92036W        W58819  12.977  32.457  12.234
92037W        W58820   8.122   9.171   0.898
92038W        W58821   1.504  23.949   0.972
92039W        W58822  39.883  31.548  14.449
92040W        W58823  17.584  26.699   0.508
92041W        W58824  39.513  29.297  13.927
92042W        W58825  25.494  16.020   3.241
92043W        W58826  28.165  44.461   4.087
92044W        W58827  16.840  35.099  12.748
92045W        W58828  26.692  18.161   0.745
92046W        W58829  44.594   1.840  10.574
92047W        W58830  43.832  11.235  12.084
92048W        W58831  19.570   3.269   2.257
92049W        W58832   5.974   6.282   1.135
92050W        W58833   1.269  20.654   2.880
92051W        W58834  44.398  42.378  14.143
92052W        W58835  37.325  34.336  13.943
92053W        W58836  35.952  20.247   4.349
92054W        W58837  15.222  14.701   3.195
92055W        W58838  14.784  41.329  12.099
92056W        W58839  14.643  14.132  14.440
92057W        W58840   5.528  13.504   4.162
92058W        W58841   1.382  26.422  10.696
92059W        W58842  29.901  20.722   0.004
92060W        W58843   8.777   9.868   4.076
92061W        W58844  35.438   2.881   1.246
92062W        W58845   7.702  42.400   0.255
92063W        W58846   5.685  33.386   0.993
92064W        W58847  36.000   6.129   1.477
92065W        W58848  26.107  43.994  13.639
92066W        W58849  31.343   7.331   4.544
92067W        W58850  33.855  39.024   1.783
92068W        W58851  38.294  31.059   0.191
92069W        W58852   0.401  22.123  12.128
92070W        W58853   5.917  34.383   0.822
92071W        W58854  31.062  44.550   1.108
92072W        W58855  28.568  20.557   2.590
92073W        W58856  24.662   6.880  13.399
92074W        W58857   4.929  10.829  14.025
92075W        W58858  32.325  32.161   2.796
92076W        W58859  14.140  38.994   3.878
92077W        W58860   0.377  16.171  13.774
92078W        W58861  29.974  41.554  11.175
92079W        W58862  37.146  35.868  12.926
92080W        W58863  34.501   2.254  13.863
92081W        W58864  14.761  16.103  13.175
92082W        W58865   3.980  24.231   3.531
92083W        W58866  24.410  39.832   9.885
92084W        W58867   9.532  27.119  12.472
92085W        W58868  27.986  17.104   2.175
92086W        W58869   5.192  12.795   0.745
92087W        W58870   0.878  19.120   4.358
92088W        W58871  43.528   0.533  13.118
92089W        W58872  11.097   4.279   3.312
92090W        W58873   6.882  44.318  13.067
92091W        W58874  21.633  29.408  12.489
92092W        W58875  30.408  40.489  13.080
92093W        W58876   7.533  38.326  11.620
92094W        W58877   7.838  42.418   4.586
92095W        W58878  24.615  10.389   2.659
92096W        W58879  40.319  20.732   3.475
92097W        W58880  28.800  17.574   4.207
92098W        W58881  28.627  42.518   1.331
92099W        W58882  13.307  29.713   5.166
92100W        W58883  17.163  29.424   2.672
92101W        W58884  41.569   5.697  12.531
92102W        W58885  11.838   5.027   1.040
92103W        W58886  28.633  37.808  11.280
92104W        W58887  16.857   2.373  14.349
92105W        W58888  23.575  32.301   9.727
92106W        W58889   7.196  21.812   1.731
92107W        W58890  20.618  41.721  13.531
92108W        W58891   2.379  11.691  13.809
92109W        W58892  43.351  36.467  13.025
92110W        W58893  24.628  22.057  12.868
92111W        W58894  40.883  39.376   1.650
92112W        W58895  29.674   5.803  14.923
92113W        W58896   5.016   9.646   2.712
92114W        W58897  44.232  39.839  10.589
92115W        W58898  23.548  29.677   0.802
92116W        W58899  35.613  22.611   4.517
92117W        W58900  25.299  23.145  14.543
92118W        W58901  14.252  32.126   2.843
92119W        W58902  12.243  26.996   0.374
92120W        W58903  20.762   9.749   3.220
92121W        W58904  23.063  22.267  11.207
92122W        W58905  21.036  20.994  12.947
92123W        W58906   4.402  37.564   9.849
92124W        W58907  33.983  20.168   2.689
92125W        W58908  29.216   1.508  13.768
92126W        W58909  37.136  43.794   1.244
92127W        W58910  24.256  42.435  11.609
92128W        W58911  43.014  19.274   4.764
92129W        W58912  21.662  19.971   2.244
92130W        W58913  23.029   1.085  14.449
92131W        W58914   2.295  15.782   4.192
92132W        W58915  11.805  12.616  10.078
92133W        W58916  17.120  26.009   3.373
92134W        W58917  30.843  17.310   4.011
92135W        W58918  39.220  43.470   2.194
92136W        W58919  11.549  33.847  11.524
92137W        W58920  14.675  19.029   3.796
92138W        W58921  11.574   8.557  11.326
92139W        W58922  35.039  42.194   2.409
92140W        W58923   7.368  26.848   0.345
92141W        W58924  40.593  18.424  11.992
92142W        W58925  38.285  15.311   3.577
92143W        W58926  16.594  39.518  11.901
92144W        W58927  13.594  14.783   2.449
92145W        W58928  15.852  38.508   3.621
92146W        W58929  44.006   6.520   4.104
92147W        W58930   6.783  27.667   4.881
92148W        W58931  17.097  41.079  11.289
92149W        W58932   9.143  15.284   2.210
92150W        W58933  26.995  42.327   1.893
92151W        W58934  22.974  36.533   4.057
92152W        W58935   8.489  26.785   1.039
92153W        W58936  26.198   3.806   0.634
92154W        W58937  38.581  28.364   1.725
92155W        W58938   6.791  40.112   2.187
92156W        W58939  12.306  33.108   2.326
92157W        W58940  11.906  13.362   2.400
92158W        W58941  37.336   9.135   1.836
92159W        W58942   4.089   2.809   1.817
92160W        W58943  12.181   6.369   3.806
92161W        W58944  43.682  20.984  12.015
92162W        W58945  30.794  18.722   2.321
92163W        W58946  32.072  44.804   3.300
92164W        W58947  11.777  21.856   1.278
92165W        W58948  20.994  27.958  12.535
92166W        W58949   4.220  21.677  10.648
92167W        W58950  12.736  33.639  10.699
92168W        W58951  43.960   7.691   3.109
92169W        W58952  34.413  31.068   2.094
92170W        W58953  30.512  38.477  11.259
92171W        W58954  22.642  31.926  14.113
92172W        W58955  40.639  37.435  10.335
92173W        W58956  16.370  36.793   1.136
92174W        W58957  12.373  41.490   3.395
92175W        W58958   8.621  23.649   2.202
92176W        W58959   4.395  19.571  10.694
92177W        W58960  20.700   4.671   0.161
92178W        W58961  42.500   6.604   1.473
92179W        W58962   3.542   4.769   3.629
92180W        W58963   8.925  12.930   2.044
92181W        W58964  20.686   7.222   3.107
92182W        W58965  21.574  24.126   4.571
92183W        W58966  21.335  11.341  13.947
92184W        W58967  27.823  27.907  14.031
92185W        W58968  20.063   5.887  10.725
92186W        W58969  14.905   9.356   0.413
92187W        W58970   1.881  18.786   1.772
92188W        W58971  36.324  20.830  11.938
92189W        W58972  13.399  30.671  11.063
92190W        W58973  25.575  29.060   3.300
92191W        W58974  36.097  21.936   3.787
92192W        W58975   7.690  14.841  14.220
92193W        W58976  31.551  18.142   1.868
92194W        W58977  34.517  36.671   2.353
92195W        W58978  27.490  29.620   4.340
92196W        W58979  29.508  10.873  13.793
92197W        W58980  18.832  32.243  12.945
92198W        W58981  32.783  42.336  12.886
92199W        W58982   4.463  40.697  10.251
92200W        W58983  12.597  32.161   3.717
92201W        W58984  38.394  12.722   2.261
92202W        W58985  39.519  43.348   0.407
92203W        W58986  19.099  32.418  14.056
92204W        W58987  41.245  32.495   2.406
92205W        W58988  22.828   4.180  14.898
92206W        W58989  37.009  17.611  11.506
92207W        W58990  18.318   4.017   0.301
92208W        W58991  12.174  30.635  11.426
92209W        W58992  11.866  41.900   2.329
92210W        W58993   7.662  21.846  12.942
92211W        W58994  19.188   5.048   1.291
92212W        W58995   0.319  35.072  10.695
92213W        W58996  17.862   2.319   3.683
92214W        W58997   1.454  44.735   1.694
92215W        W58998  40.371  26.450   3.728
92216W        W58999  23.280   2.810  14.841
92217W        W59000  40.328  34.115   0.680
92218W        W59001   2.983   5.620   3.804
92219W        W59002  34.047   5.503   2.880
92220W        W59003  11.475  29.643   2.664
92221W        W59004   7.136  29.180  14.823
92222W        W59005  43.003   8.272  13.582
92223W        W59006   1.886  17.592  13.458
92224W        W59007  34.099   8.714  13.322
92225W        W59008   0.370  32.429   3.859
92226W        W59009   3.508  20.979   4.994
92227W        W59010   3.966   1.765   4.195
92228W        W59011   2.452  27.884  13.430
92229W        W59012  18.845  25.245   2.278
92230W        W59013  28.907  33.145   1.367
92231W        W59014  12.087  11.801  11.564
92232W        W59015  31.533  34.019   0.404
92233W        W59016   5.167  11.636   3.399
92234W        W59017   5.218  11.907  12.926
92235W        W59018   4.750  19.044   0.834
92236W        W59019  43.585  34.878  10.959
92237W        W59020  42.809  19.319  12.673
92238W        W59021  11.903  40.401   4.556
92239W        W59022   5.011  33.582   3.859
92240W        W59023   8.218   2.971   0.412
92241W        W59024   2.783  31.355   2.687
92242W        W59025  33.304  37.798   2.787
92243W        W59026   2.678   1.496  12.086
92244W        W59027  18.725  33.153   4.164
92245W        W59028  36.338  11.460   0.200
92246W        W59029  36.827   5.492   4.091
92247W        W59030   9.575  34.221   4.226
92248W        W59031  38.182  22.736   4.539
92249W        W59032  19.736  40.111   2.003
92250W        W59033  18.270  11.717   2.909
92251W        W59034  26.938  12.662  14.959
92252W        W59035  25.159   7.202   2.458
92253W        W59036   2.891  42.984  14.620
92254W        W59037   4.359  33.858  12.479
92255W        W59038  12.845  35.333  14.778
92256W        W59039  18.357  18.208   0.490
92257W        W59040  15.590   1.219  14.329
92258W        W59041  34.960  29.331   2.152
92259W        W59042  10.585   1.674  13.089
92260W        W59043   6.528   2.898   3.178
92261W        W59044   1.466  34.819   0.010
92262W        W59045   2.642   1.625   0.308
92263W        W59046  27.406  16.748  14.835
92264W        W59047   2.956  27.973   1.404
92265W        W59048  36.449  12.039  13.515
92266W        W59049  43.373  32.137  11.062
92267W        W59050   3.717   0.511   2.142
92268W        W59051   5.741   3.348  10.728
92269W        W59052  44.638  25.128   4.082
92270W        W59053  23.841  33.980  12.376
92271W        W59054  37.029   0.494  13.354
92272W        W59055  37.525  29.658  14.404
92273W        W59056   0.500  40.780   1.118
92274W        W59057  35.623   6.925  14.480
92275W        W59058  37.169   9.960   0.833
92276W        W59059   9.556  36.352   3.740
92277W        W59060  22.055  20.475  11.005
92278W        W59061  24.587  30.921  14.439
92279W        W59062  13.315  33.500  12.661
92280W        W59063  43.106  41.710   2.666
92281W        W59064  14.206  17.046   0.608
92282W        W59065  33.081  33.686   2.825
92283W        W59066   2.253   7.792   3.927
92284W        W59067   2.188  30.188   0.164
92285W        W59068  21.260  26.447   3.090
92286W        W59069  13.281  32.256  10.336
92287W        W59070  38.804   4.447   1.496
92288W        W59071  43.518  14.475   1.880
92289W        W59072  29.120   4.119   1.823
92290W        W59073  44.930   4.056   1.633
92291W        W59074  12.895  28.559   2.415
92292W        W59075  23.225  12.586  12.935
92293W        W59076  13.544  42.326  11.576
92294W        W59077  25.064  21.311  12.519
92295W        W59078  44.931  27.365  14.116
92296W        W59079   0.533  28.933   1.828
92297W        W59080  44.794  18.275  12.544
92298W        W59081   1.355  36.572  12.143
92299W        W59082  43.761  24.370  10.887
92300W        W59083  10.325   4.222   2.830
92301W        W59084  29.830   7.748   0.969
92302W        W59085  14.767  30.089  12.606
92303W        W59086  26.637  24.437  13.911
92304W        W59087  20.264  44.555  11.078
92305W        W59088  14.169  20.455   1.099
92306W        W59089  31.378  39.521  13.861
92307W        W59090   4.051  36.373   3.934
92308W        W59091  37.869  43.734   0.520
92309W        W59092  13.609  29.345   1.659
92310W        W59093  16.961  32.385  10.987
92311W        W59094  31.563  19.780  14.439
92312W        W59095   8.633   2.073   1.766
92313W        W59096  30.766  18.662   9.918
92314W        W59097  21.773  36.044   3.678
92315W        W59098   6.100   8.673   0.281
92316W        W59099  37.440  11.195   1.198
92317W        W59100  18.824  13.310   4.136
92318W        W59101   8.815   1.890  12.538
92319W        W59102  37.851   2.957  11.416
92320W        W59103   0.173   4.203  12.046
92321W        W59104  38.623  24.013   4.164
92322W        W59105  15.746  25.424   3.161
92323W        W59106   1.831  39.237   2.258
92324W        W59107  31.915  18.068  14.791
92325W        W59108   6.084  34.970  14.938
92326W        W59109  25.596   0.003  12.097
92327W        W59110  13.844  24.711  14.046
92328W        W59111   2.182  16.078   1.037
92329W        W59112  35.655   7.493  12.862
92330W        W59113  39.422   8.119   2.052
92331W        W59114  27.822  14.640  11.008
92332W        W59115  21.301  18.523   0.412
92333W        W59116  37.073  28.203   3.630
92334W        W59117   0.809  25.683   2.181
92335W        W59118   0.385  37.620   0.324
92336W        W59119  30.976  23.493  11.153
92337W        W59120  26.207   3.177   5.194
92338W        W59121  34.117  10.326  14.034
92339W        W59122  34.313  19.234  10.651
92340W        W59123  37.973   1.527  13.387
92341W        W59124  13.146  35.889   1.717
92342W        W59125  28.270  16.759   1.660
92343W        W59126  39.002  35.642  12.628
92344W        W59127   5.414  24.488  12.054
92345W        W59128   6.434  41.693  12.742
92346W        W59129  10.930   6.273   4.064
92347W        W59130  38.859  39.042   1.810
92348W        W59131  21.153  22.328  10.584
92349W        W59132   8.125  30.108   3.673
92350W        W59133   1.892  11.174   3.163
92351W        W59134  38.382  35.137  11.635
92352W        W59135  29.388  27.927  13.978
92353W        W59136  20.335  40.852  13.815
92354W        W59137  12.205  11.948  12.479
92355W        W59138  25.684  27.446   0.512
92356W        W59139  40.935   4.435   2.357
92357W        W59140  27.157  12.167   2.357
92358W        W59141  36.188  30.930   1.149
92359W        W59142  10.237  19.560   0.311
92360W        W59143  23.589  42.424   0.241
92361W        W59144  33.825  29.576  13.391
92362W        W59145  23.174  21.646   3.644
92363W        W59146  40.532  18.141  12.453
92364W        W59147   4.209  36.321  14.290
92365W        W59148  35.051  26.468   0.271
92366W        W59149  13.282  25.689  14.345
92367W        W59150  23.053  34.878   2.359
92368W        W59151  11.681  29.625  12.001
92369W        W59152  43.506   6.638   1.476
92370W        W59153  10.680   4.842   3.829
92371W        W59154  22.694  18.251  11.607
92372W        W59155  10.795  21.724   4.128
92373W        W59156  37.051   8.364  13.497
92374W        W59157  10.321  19.677   0.802
92375W        W59158  15.674  42.918  12.096
92376W        W59159   5.936   1.703   0.357
92377W        W59160  38.049   8.893  13.546
92378W        W59161  29.091  29.271   1.741
92379W        W59162  40.271  17.955  10.227
92380W        W59163   1.409  10.970   4.107
92381W        W59164  41.214  29.088   4.095
92382W        W59165  13.309   8.832  14.304
92383W        W59166  36.506  43.838   4.977
92384W        W59167  14.747  31.924   1.643
92385W        W59168  14.331  17.859  13.119
92386W        W59169   5.844   7.428   4.140
92387W        W59170   4.234  18.624  11.117
92388W        W59171   1.747   9.363   4.958
92389W        W59172   2.016  33.064  12.523
92390W        W59173  36.571  12.455  14.356
92391W        W59174  14.852  25.742   3.365
92392W        W59175  10.228  13.449   5.010
92393W        W59176   7.473  17.284  11.962
92394W        W59177  25.708   9.661  14.332
92395W        W59178  36.877   6.412   4.116
92396W        W59179   3.443  30.088   4.407
92397W        W59180  11.759  41.398  11.499
92398W        W59181  10.158  28.035   0.839
92399W        W59182  12.866  35.533   2.605
92400W        W59183  29.018   9.141  10.696
92401W        W59184   8.384  15.679  11.909
92402W        W59185  32.608  12.768   2.356
92403W        W59186  30.286  37.254  14.727
92404W        W59187  43.945  20.557   1.257
92405W        W59188  20.616  32.922  10.914
92406W        W59189  28.775  17.582  14.800
92407W        W59190  33.174  38.308   3.325
92408W        W59191   8.710  35.343   2.659
92409W        W59192   3.772  10.051   2.745
92410W        W59193   3.933  14.715   4.247
92411W        W59194  43.351   1.289  12.104
92412W        W59195  40.364  36.257  11.467
92413W        W59196  23.978  15.320   0.941
92414W        W59197  39.260  38.867  12.079
92415W        W59198   2.524  41.330   2.902
92416W        W59199  12.393  23.735  14.845
92417W        W59200  11.428  35.556  10.689
92418W        W59201   7.615  38.369   3.716
92419W        W59202  37.942  37.595  13.539
92420W        W59203  22.128  27.742   0.520
92421W        W59204  18.983   8.621  13.214
92422W        W59205  42.963   9.441  14.782
92423W        W59206  13.783  14.221  14.419
92424W        W59207  20.085   1.220   3.557
92425W        W59208   6.261  10.727  10.638
92426W        W59209  20.980  17.990  10.013
92427W        W59210  13.124  22.410   1.616
92428W        W59211  11.164  18.487  14.482
92429W        W59212   0.718  42.994  12.998
92430W        W59213  34.425   4.354   3.951
92431W        W59214  11.893   9.485   5.309
92432W        W59215  18.688  20.187  14.062
92433W        W59216   1.452  15.782   3.282
92434W        W59217  18.884  17.309   0.460
92435W        W59218  17.150   4.884   3.187
92436W        W59219  36.357  33.558  11.624
92437W        W59220  13.468  16.583   2.128
92438W        W59221  34.357  40.505  13.446
92439W        W59222  29.952   9.347  11.983
92440W        W59223  15.819  17.704  10.251
92441W        W59224   1.640  27.194  13.434
92442W        W59225  42.930  15.244   3.527
92443W        W59226  12.887  34.277  14.580
92444W        W59227  44.632  16.167   4.597
92445W        W59228   3.936  42.468  14.283
92446W        W59229  38.459   0.702  10.943
92447W        W59230  23.306   9.107   0.853
92448W        W59231  38.421  34.138  11.976
92449W        W59232  27.347  22.726  10.635
92450W        W59233  29.834   8.873   4.434
92451W        W59234   3.153  18.171   2.140
92452W        W59235   3.436  36.292  12.027
92453W        W59236  15.052  35.560  12.419
92454W        W59237  11.055  43.558  14.222
92455W        W59238  25.566  22.066   5.077
92456W        W59239   1.409  10.619  13.323
92457W        W59240  43.268   1.990  11.000
92458W        W59241   2.867  13.708   3.356
92459W        W59242  23.109  38.906  14.947
92460W        W59243  33.545  44.779  14.242
92461W        W59244  35.384  36.926   3.544
92462W        W59245  22.197  22.156  12.531
92463W        W59246  32.650   2.441   4.151
92464W        W59247  25.098  36.508  10.932
92465W        W59248  29.949  31.833   2.831
92466W        W59249  35.129  28.442  11.109
92467W        W59250  15.900  15.405  12.344
92468W        W59251  43.478  39.522  12.454
92469W        W59252  23.154  12.661  14.902
92470W        W59253  18.596  38.606   2.791
92471W        W59254  12.038  39.761  12.561
92472W        W59255  30.426  29.030   2.254
92473W        W59256  43.995  24.132   4.078
92474W        W59257  25.227  15.075  13.224
92475W        W59258  39.577  17.704  11.485
92476W        W59259  15.058  16.767   3.742
92477W        W59260   8.298  43.308  13.006
92478W        W59261  30.164   6.762   3.291
92479W        W59262  21.291   9.847  12.452
92480W        W59263  30.472  29.468   1.310
92481W        W59264  14.262  41.832  13.450
92482W        W59265  20.140  18.976   2.367
92483W        W59266  12.352   7.322   3.785
92484W        W59267  31.609  23.695  12.495
92485W        W59268  35.574  25.897  12.858
92486W        W59269   7.338   8.208   0.253
92487W        W59270  20.993  42.869   1.509
92488W        W59271  40.847   4.789   3.675
92489W        W59272  19.261   7.394  14.396
92490W        W59273  30.410  16.791   2.109
92491W        W59274  16.724   3.784   4.311
92492W        W59275   4.223  31.180  11.625
92493W        W59276  27.858  43.886  10.366
92494W        W59277  38.321  23.986  14.193
92495W        W59278  37.012   7.914   4.694
92496W        W59279  15.247  38.506   0.801
92497W        W59280  39.715  42.982  10.609
92498W        W59281  10.279  33.404   3.340
92499W        W59282   1.907  30.655   1.324
92500W        W59283  41.629  16.209  14.385
92501W        W59284   4.448   6.141   1.805
92502W        W59285  26.752  28.221   0.226
92503W        W59286  31.612  39.746  14.845
92504W        W59287  31.483  33.016  13.430
92505W        W59288  34.339  13.174   3.846
92506W        W59289  28.494   8.806   4.546
92507W        W59290  12.159  43.002  11.747
92508W        W59291  18.861   0.995  13.925
92509W        W59292  16.614  27.775  10.839
92510W        W59293  22.047  27.961   0.968
92511W        W59294  40.936  32.949  13.787
92512W        W59295  35.122   5.187  11.723
92513W        W59296  32.927  15.144  13.889
92514W        W59297  39.746  18.777   0.593
92515W        W59298  33.680  15.712  10.608
92516W        W59299  42.329  40.075   2.389
92517W        W59300  21.145  36.937   4.604
92518W        W59301  32.201   6.866  12.951
92519W        W59302  11.511  21.247   2.232
92520W        W59303  28.771   8.019   0.263
92521W        W59304  34.563  29.437  14.531
92522W        W59305  44.295   7.489  11.654
92523W        W59306  12.851  25.190  11.128
92524W        W59307  31.380  24.113   1.402
92525W        W59308  33.917   9.129  11.369
92526W        W59309  44.513  15.759  11.979
92527W        W59310   8.328   7.401  13.086
92528W        W59311  25.132   2.070  12.517
92529W        W59312   2.036  37.350  12.882
92530W        W59313  34.617  38.539   3.551
92531W        W59314  41.521  23.976   4.487
92532W        W59315  33.501  18.621   3.525
92533W        W59316   3.865  18.190   5.040
92534W        W59317   4.657  19.556  12.471
92535W        W59318  13.179  10.059  12.898
92536W        W59319   8.888  28.443   0.150
92537W        W59320   2.664  24.728  12.551
92538W        W59321  17.840  30.109  13.412
92539W        W59322   5.711  37.447  14.692
92540W        W59323  24.693  10.667   2.216
92541W        W59324   2.476  17.839  12.032
92542W        W59325  17.226   6.143  10.196
92543W        W59326   5.233   1.353  13.828
92544W        W59327  36.016  33.368  12.974
92545W        W59328   9.190  33.596   2.739
92546W        W59329  12.621  12.834   2.479
92547W        W59330  12.800  29.577  13.997
92548W        W59331  42.848  38.340  14.539
92549W        W59332  27.224  25.378   2.590
92550W        W59333  33.912  26.227   1.879
92551W        W59334  24.679  36.690  13.369
92552W        W59335   3.848  19.032   0.909
92553W        W59336  35.356  36.442   1.840
92554W        W59337   7.756   2.476   4.210
92555W        W59338  41.376  19.210  12.306
92556W        W59339  33.374  29.076  14.823
92557W        W59340   1.598   6.952  14.350
92558W        W59341  26.191  43.507   2.336
92559W        W59342  41.409  14.422  13.847
92560W        W59343  18.535  33.405  10.283
92561W        W59344  30.279  18.150   2.730
92562W        W59345   5.291   5.335  10.943
92563W        W59346   5.737  39.840   0.024
92564W        W59347  10.434   5.532  13.869
92565W        W59348   4.556  32.609  10.400
92566W        W59349  27.420   1.490  12.993
92567W        W59350  10.745  23.177  10.643
92568W        W59351  25.490  23.561   4.892
92569W        W59352  35.148   6.649   2.700
92570W        W59353  26.780  14.105   4.173
92571W        W59354  38.311  28.991  12.919
92572W        W59355  18.848   2.298  10.569
92573W        W59356  20.464  29.141   1.971
92574W        W59357  44.703  30.971   1.211
92575W        W59358  33.064   2.655   2.892
92576W        W59359  26.783   9.357  12.427
92577W        W59360  35.001  39.264   3.589
92578W        W59361  21.022  29.421  13.843
92579W        W59362  41.008  42.463  14.522
92580W        W59363   0.286   9.697  11.496
92581W        W59364  40.293   7.979  12.044
92582W        W59365   4.825  19.554  10.393
92583W        W59366  31.571  37.743   1.187
92584W        W59367  18.203  23.820  11.656
92585W        W59368   3.839  35.672   2.492
92586W        W59369  15.079  43.715   3.296
92587W        W59370  37.985   0.598  11.241
92588W        W59371  26.088   5.750  10.608
92589W        W59372  33.610  19.838   0.775
92590W        W59373  38.996   2.457   2.366
92591W        W59374   2.319  37.406   9.989
92592W        W59375   7.860  25.015  11.586
92593W        W59376  44.903   4.789  14.694
92594W        W59377  40.243  16.178   0.501
92595W        W59378  19.097  44.463  10.620
92596W        W59379  39.452  28.108   1.800
92597W        W59380  28.381  19.155   4.144
92598W        W59381  29.016  43.505   4.607
92599W        W59382  32.968  36.881   2.068
92600W        W59383  17.704  38.812   2.646
92601W        W59384  43.387  15.805   3.318
92602W        W59385  38.371  16.184   3.796
92603W        W59386   3.781   1.915   3.279
92604W        W59387  32.459  10.120   1.187
92605W        W59388  35.904  20.767   4.247
92606W        W59389   3.420  26.997  11.734
92607W        W59390  19.510  32.151   4.638
92608W        W59391   7.318  28.989   3.582
92609W        W59392  24.649  44.732  13.601
92610W        W59393  22.436  12.408  13.469
92611W        W59394   3.307  21.221  11.228
92612W        W59395  44.948  34.564  13.427
92613W        W59396  14.115  31.589  11.152
92614W        W59397  30.049  23.033   0.031
92615W        W59398   4.214  41.074  13.046
92616W        W59399  44.072  38.892   1.710
92617W        W59400  29.414  24.259   4.681
92618W        W59401   5.832  10.390  12.285
92619W        W59402  35.062   7.408   9.824
92620W        W59403  36.501  41.415  14.248
92621W        W59404  35.081  44.414  11.630
92622W        W59405  43.471  38.223  11.947
92623W        W59406  20.828  39.843   1.260
92624W        W59407  35.996   2.496  14.310
92625W        W59408  16.246  21.557  12.545
92626W        W59409  21.376   9.000  11.213
92627W        W59410  43.415  38.520   1.232
92628W        W59411  23.632  33.455   4.659
92629W        W59412   1.588  25.703   2.748
92630W        W59413   7.885  44.850   4.325
92631W        W59414  30.344  13.817  11.151
92632W        W59415  39.299   6.667   2.595
92633W        W59416  25.071  10.571  14.447
92634W        W59417  13.652  33.255   0.779
92635W        W59418  23.978  15.544  10.473
92636W        W59419  30.045  22.166  10.166
92637W        W59420  30.357  44.248  10.944
92638W        W59421  39.503  40.326  11.410
92639W        W59422   0.315  41.116   4.837
92640W        W59423  38.422  28.970   4.411
92641W        W59424   3.188  22.969   1.353
92642W        W59425  31.625  43.369   2.044
92643W        W59426   3.930   2.700   3.681
92644W        W59427  37.760  41.287  12.047
92645W        W59428  10.362   4.443   4.211
92646W        W59429  23.440   7.160  11.994
92647W        W59430  27.222  12.726  14.532
92648W        W59431  24.840  21.881  11.906
92649W        W59432   4.912  21.639   3.431
92650W        W59433  16.514  12.805  12.770
92651W        W59434  16.159  13.330   2.431
92652W        W59435  19.876  19.562  12.391
92653W        W59436  39.617  17.372   0.230
92654W        W59437  41.838  40.233  11.756
92655W        W59438   9.746  21.938   1.936
92656W        W59439  33.091  40.796  11.542
92657W        W59440  20.560   8.580   1.000
92658W        W59441  27.941  24.139  13.521
92659W        W59442  36.434  21.161   2.794
92660W        W59443  42.324  34.896   2.727
92661W        W59444   4.868  16.173   1.143
92662W        W59445  27.055  27.070   0.727
92663W        W59446   4.739  43.779  11.192
92664W        W59447   6.302  14.601  14.555
92665W        W59448  32.935  33.016   0.862
92666W        W59449  28.443  24.228   2.332
92667W        W59450   6.392  43.970   1.010
92668W        W59451  25.793  21.976  12.204
92669W        W59452  43.223  42.076   4.150
92670W        W59453  40.563  11.866  11.228
92671W        W59454  33.598  21.163  13.223
92672W        W59455   4.939  18.044   1.516
92673W        W59456   7.320   0.797   0.929
92674W        W59457  41.791  13.082   3.051
92675W        W59458  19.093  28.548  11.554
92676W        W59459  13.128  28.639  14.026
92677W        W59460   3.328   0.010  11.510
92678W        W59461  11.393  35.369   0.384
92679W        W59462  34.537  12.819   0.228
92680W        W59463  28.630  21.015   0.953
92681W        W59464  23.808   2.900  11.769
92682W        W59465   2.688  21.676  11.737
92683W        W59466  13.617  35.210   1.614
92684W        W59467  10.644   2.284  12.343
92685W        W59468  40.090  38.784   0.499
92686W        W59469   0.923   7.824   3.452
92687W        W59470  22.764   5.687   2.778
92688W        W59471  13.766  31.950   1.414
92689W        W59472  27.568  35.767   4.625
92690W        W59473   0.720  30.451   2.495
92691W        W59474  12.760  37.636  13.315
92692W        W59475  36.122   8.785  11.575
92693W        W59476  42.913  42.412   4.393
92694W        W59477   9.766  16.077   0.945
92695W        W59478  40.701   5.423   4.531
92696W        W59479  34.880  11.923   2.664
92697W        W59480  10.483  35.362   4.058
92698W        W59481  14.293   5.081   5.040
92699W        W59482  32.543   5.658   2.620
92700W        W59483  26.651  21.318   0.787
92701W        W59484  12.235  34.003   0.197
92702W        W59485  32.399   4.993  10.275
92703W        W59486   0.065  31.029  12.186
92704W        W59487  27.051  29.368   4.210
92705W        W59488  26.014   3.209  12.872
92706W        W59489  10.970   7.975  13.392
92707W        W59490  33.823  44.951   2.202
92708W        W59491   9.461  30.919   3.414
92709W        W59492  30.860  38.845  13.047
92710W        W59493  43.477  32.049   1.835
92711W        W59494  22.175  26.089  11.193
92712W        W59495  31.637  40.303   3.901
92713W        W59496  26.032   3.974  12.457
92714W        W59497  36.425   0.551  11.545
92715W        W59498   0.382  15.157  10.259
92716W        W59499  14.244  38.337  10.997
92717W        W59500  43.581  29.541  14.456
92718W        W59501  22.140  26.729  13.972
92719W        W59502  38.480   1.410  10.725
92720W        W59503  14.566  13.358   0.273
92721W        W59504   1.786   9.746  12.119
92722W        W59505  36.503  26.708  13.958
92723W        W59506  28.422  29.602   3.153
92724W        W59507  40.833  30.779   0.760
92725W        W59508  43.828  21.325  13.356
92726W        W59509   2.563  13.702  13.928
92727W        W59510  11.725  17.380   3.757
92728W        W59511   9.808  17.710   3.091
92729W        W59512  16.593  34.674  14.077
92730W        W59513  34.420  14.742   0.850
92731W        W59514  31.988  28.184  12.875
92732W        W59515  12.539  13.373  13.507
92733W        W59516  19.658   2.516  12.346
92734W        W59517  44.214   6.795   0.057
92735W        W59518  26.145  20.789   1.860
92736W        W59519  29.050  14.846   0.771
92737W        W59520  41.897  42.207  13.748
92738W        W59521  18.131  31.562  14.123
92739W        W59522  38.962  23.496  12.164
92740W        W59523  37.459   0.280   0.954
92741W        W59524  25.556  34.060   4.990
92742W        W59525  28.558  14.878   1.947
92743W        W59526  11.639  44.309  13.161
92744W        W59527  40.551  19.670   2.194
92745W        W59528  20.932   7.661  13.841
92746W        W59529  35.726  13.197  12.643
92747W        W59530   3.491  43.833  14.895
92748W        W59531  13.610  44.093   0.486
92749W        W59532  14.117  25.889   0.521
92750W        W59533  43.353  24.476   4.040
92751W        W59534  38.349   1.662  13.837
92752W        W59535   2.905  30.149  14.301
92753W        W59536  25.831  31.133   3.208
92754W        W59537  38.950  42.821  13.396
92755W        W59538  15.217   9.294  12.494
92756W        W59539  23.417  15.387   4.604
92757W        W59540   9.753  42.571   2.252
92758W        W59541  24.891   4.814   2.763
92759W        W59542  15.206  22.312   3.082
92760W        W59543  43.169  24.485   1.855
92761W        W59544  14.689  26.563   4.703
92762W        W59545  24.673  44.297  11.541
92763W        W59546  10.762   1.992   2.857
92764W        W59547   8.153  35.623   4.100
92765W        W59548  31.851  41.100  10.950
92766W        W59549   1.819  33.926   4.643
92767W        W59550  10.756  42.428   3.212
92768W        W59551  27.200  20.760   4.638
92769W        W59552  30.559  10.353   0.490
92770W        W59553  27.234  16.660  11.017
92771W        W59554  35.315  43.112   5.049
92772W        W59555  20.716  37.942  14.393
92773W        W59556   5.929  38.810  11.933
92774W        W59557  35.903  18.616  12.431
92775W        W59558  22.979  35.841  10.529
92776W        W59559   7.206   8.241  14.737
92777W        W59560  26.593  21.008   1.747
92778W        W59561   7.351  15.639   3.698
92779W        W59562  16.353  16.625  11.727
92780W        W59563  11.877  20.299   2.263
92781W        W59564  42.982   5.797   5.057
92782W        W59565  11.918  39.495  10.701
92783W        W59566   8.657  24.626  12.420
92784W        W59567  38.331  43.961   4.692
92785W        W59568  13.587  11.547  13.733
92786W        W59569  23.680  24.527  12.794
92787W        W59570  37.755  37.455   4.406
92788W        W59571  27.259  26.983   3.238
92789W        W59572   5.857   3.429  14.803
92790W        W59573  32.384  15.155   2.882
92791W        W59574   0.316  41.731  12.038
92792W        W59575  13.979  36.001  10.277
92793W        W59576  28.928  18.557   1.651
92794W        W59577  10.840  41.905  13.286
92795W        W59578  29.730   1.074   0.299
92796W        W59579   9.200  17.656   2.304
92797W        W59580  30.697   1.327  11.525
92798W        W59581  38.828  27.435  13.960
92799W        W59582  10.323  37.404  13.795
92800W        W59583  22.809   0.824  10.254
92801W        W59584   9.832  16.418  14.492
92802W        W59585  41.956  34.537  10.231
92803W        W59586  22.744   8.971   4.162
92804W        W59587   9.744  44.920  14.865
92805W        W59588  32.083   4.193   0.218
92806W        W59589  28.297   5.744  11.573
92807W        W59590  26.622   2.927  11.561
92808W        W59591  29.530  42.899   4.962
92809W        W59592   4.328  43.287   3.033
92810W        W59593  24.504   0.092  11.159
92811W        W59594   8.698  40.857  13.697
92812W        W59595  17.153  44.764  14.427
92813W        W59596   5.651  34.367   4.509
92814W        W59597  31.186  31.516   0.941
92815W        W59598  35.023   6.270   0.347
92816W        W59599  13.982   0.359  14.890
92817W        W59600  34.345   5.907   3.990
92818W        W59601  14.141  10.363  14.397
92819W        W59602   1.412  32.550  12.014
92820W        W59603  31.681  21.839   4.466
92821W        W59604  10.843  35.945  12.389
92822W        W59605  39.383   9.720  14.791
92823W        W59606  18.717   0.456   1.103
92824W        W59607  41.844  10.105  14.753
92825W        W59608  40.372  11.708   3.818
92826W        W59609  37.092  26.161   2.088
92827W        W59610  18.164  22.354  14.697
92828W        W59611  16.809  14.665   1.759
92829W        W59612  13.738  20.053  11.653
92830W        W59613   9.465  41.620  11.507
92831W        W59614  25.647  41.597  14.025
92832W        W59615   6.524   2.426  11.070
92833W        W59616   1.623  36.906   2.562
92834W        W59617  33.706  44.291   3.292
92835W        W59618  44.607  33.667   0.054
92836W        W59619   6.462  33.010  12.108
92837W        W59620   4.502   9.280   1.802
92838W        W59621   1.039  18.083  10.600
92839W        W59622   7.862  30.463   2.202
92840W        W59623  37.384  39.421  14.973
92841W        W59624  40.679  19.938  13.365
92842W        W59625   3.464  16.571  14.341
92843W        W59626  31.251  29.599  11.144
92844W        W59627  13.472  22.738  13.396
92845W        W59628  11.184  42.443   0.867
92846W        W59629  14.824  16.891  12.102
92847W        W59630  26.662  32.145  14.590
92848W        W59631   2.988  40.410   2.085
92849W        W59632  44.369  20.697  10.696
92850W        W59633  12.448   2.793   1.343
92851W        W59634  18.648  41.904   2.848
92852W        W59635   6.990  34.699  12.953
92853W        W59636  15.856   4.991   0.763
92854W        W59637  31.415  33.332  11.168
92855W        W59638  41.888  44.477  11.659
92856W        W59639   1.891  27.685   3.705
92857W        W59640  34.134  12.649  14.293
92858W        W59641  28.492  19.716  10.595
92859W        W59642  27.530   7.218  10.705
92860W        W59643  25.227  38.099   3.693
92861W        W59644  15.031  36.178   0.616
92862W        W59645  31.081   5.658   3.407
92863W        W59646  33.872  27.885  13.995
92864W        W59647  27.908   7.211  12.470
92865W        W59648  15.721  44.894   2.139
92866W        W59649  32.050  30.879   3.652
92867W        W59650  26.082  35.916  11.238
92868W        W59651  10.760  25.777   2.211
92869W        W59652  24.752   5.360  11.079
92870W        W59653  26.188  18.334   3.384
92871W        W59654  16.685  21.707  10.390
92872W        W59655  33.883  24.668   9.777
92873W        W59656  33.621  27.074   4.512
92874W        W59657  34.673  17.571  13.311
92875W        W59658   8.622  44.358   2.662
92876W        W59659  27.397  32.607  11.123
92877W        W59660   6.283   7.924  10.697
92878W        W59661  44.243  44.903   1.261
92879W        W59662  36.019  36.544   2.297
92880W        W59663   3.402  29.192  11.353
92881W        W59664   3.797  31.005  12.415
92882W        W59665   7.448  27.679   3.661
92883W        W59666   5.624  27.373   1.486
92884W        W59667  21.074   9.354   3.071
92885W        W59668  20.638  18.561   0.964
92886W        W59669  14.597  14.364   1.780
92887W        W59670   7.978  28.496  11.883
92888W        W59671  40.037  14.183  14.135
92889W        W59672  34.685  21.654   0.079
92890W        W59673  42.863  10.230   3.585
92891W        W59674  18.543  17.295   4.577
92892W        W59675   0.226  25.926  11.528
92893W        W59676  41.267  29.716   2.362
92894W        W59677  38.342   9.569  12.573
92895W        W59678   3.895   5.794  10.925
92896W        W59679  41.566  29.353  10.837
92897W        W59680  44.322  30.466  11.624
92898W        W59681  38.756  40.053  10.435
92899W        W59682  24.650  28.518  13.956
92900W        W59683  13.317  28.605  11.751
92901W        W59684   5.246  33.158   3.235
92902W        W59685  21.703  43.518  12.086
92903W        W59686  35.390   1.930   2.383
92904W        W59687  31.676  26.810   1.798
92905W        W59688  14.791  37.490   1.608
92906W        W59689   5.450  23.950   2.857
92907W        W59690  29.034  41.665  13.295
92908W        W59691  35.519   0.931  10.559
92909W        W59692  20.786  22.531   3.129
92910W        W59693   5.134   0.556   4.009
92911W        W59694  21.169   2.170   2.623
92912W        W59695  22.604  29.249  12.888
92913W        W59696   2.424  12.804   4.150
92914W        W59697  31.319   0.131   1.356
92915W        W59698  31.892  31.630  12.874
92916W        W59699  32.487   0.289   3.762
92917W        W59700   6.719  33.395   4.343
92918W        W59701   3.180   1.402   2.383
92919W        W59702  17.466  21.055   1.779
92920W        W59703  21.411   9.195   4.817
92921W        W59704  20.832  44.818   1.938
92922W        W59705  26.026  42.548  12.662
92923W        W59706  28.576   7.872   1.555
92924W        W59707  40.441  23.651  13.378
92925W        W59708  43.007   6.779   1.446
92926W        W59709  29.714   6.853  12.025
92927W        W59710  17.075  42.842   3.880
92928W        W59711  42.906   5.238   4.179
92929W        W59712  38.548  24.841  10.994
92930W        W59713  30.828   1.290  10.736
92931W        W59714  40.582  22.472   2.718
92932W        W59715  38.029  40.253   2.096
92933W        W59716   0.465  33.118   0.023
92934W        W59717  25.653  17.476  13.963
92935W        W59718  23.550  44.763   4.982
92936W        W59719  30.842   5.774  13.973
92937W        W59720   8.394  24.040  11.548
92938W        W59721  32.356   1.864  10.732
92939W        W59722   6.351  36.729  10.673
92940W        W59723  15.756   5.291   2.351
92941W        W59724  14.129  12.094  10.633
92942W        W59725  11.561   5.011   0.536
92943W        W59726  39.745  27.946   3.189
92944W        W59727  16.671  22.916  13.820
92945W        W59728  25.373  44.689   3.670
92946W        W59729  34.797  44.952   0.983
92947W        W59730  25.352  21.707  11.965
92948W        W59731   9.394   5.365   4.389
92949W        W59732  34.145  25.504  11.558
92950W        W59733  22.150  43.889  10.574
92951W        W59734  11.900  16.466  13.865
92952W        W59735  41.441  43.370   2.393
92953W        W59736  38.385  26.062   1.173
92954W        W59737  41.831   7.326  13.988
92955W        W59738   3.972  43.680   1.489
92956W        W59739   2.992   2.512  13.930
92957W        W59740  26.538  37.752  12.005
92958W        W59741  24.282  38.137  12.834
92959W        W59742   5.137  22.540   0.427
92960W        W59743  27.255  41.027  11.611
92961W        W59744   2.760  41.252  11.583
92962W        W59745  19.689  22.209  12.452
92963W        W59746  44.336  17.059   4.535
92964W        W59747   0.501  11.130   4.275
92965W        W59748  36.371  20.931   4.081
92966W        W59749  38.036  32.697   0.480
92967W        W59750   5.647  25.521  14.550
92968W        W59751  26.537  38.864   4.498
92969W        W59752  19.350  14.453   2.624
92970W        W59753   0.581  30.846  11.092
92971W        W59754  28.694  36.087   1.722
92972W        W59755   8.088  10.287  13.086
92973W        W59756  42.114  25.918  14.813
92974W        W59757  44.737  41.500   3.612
92975W        W59758  41.616  44.548   1.768
92976W        W59759  20.982  14.048  14.379
92977W        W59760  28.898   4.320   1.367
92978W        W59761  30.895   2.316   2.714
92979W        W59762  39.388   8.615  12.044
92980W        W59763  19.485  41.539  13.775
92981W        W59764  29.001  44.003   3.723
92982W        W59765  30.937   7.953  13.315
92983W        W59766  42.404  14.208  12.506
92984W        W59767  44.364  21.419  13.025
92985W        W59768  22.384   3.718  11.507
92986W        W59769   7.267  44.009   2.159
92987W        W59770  33.473   2.440   2.661
92988W        W59771  23.493  33.845   4.320
92989W        W59772  43.345   4.051  10.602
92990W        W59773  43.046  32.942  11.927
92991W        W59774  11.371  12.309   4.345
92992W        W59775  44.460  33.009  12.031
92993W        W59776  39.048   9.609   1.271
92994W        W59777  44.275   9.155  13.005
92995W        W59778   3.507  42.941   0.434
92996W        W59779  10.476  23.037   1.275
92997W        W59780   3.701  29.679   4.582
92998W        W59781   0.030   0.181   4.092
92999W        W59782  19.055  40.113  12.032
93000W        W59783   9.760  21.250   3.621
93001W        W59784  23.581   9.323  11.739
93002W        W59785   3.088  13.730  13.974
93003W        W59786  39.795  35.599  13.291
93004W        W59787  14.347   9.422  11.128
93005W        W59788  16.592  35.169  13.190
93006W        W59789  44.794  12.188   4.559
93007W        W59790  15.354  43.363  10.785
93008W        W59791  43.041  38.574  12.563
93009W        W59792  29.822  31.325   2.836
93010W        W59793   8.799   3.517   0.257
93011W        W59794   7.742  11.380   2.758
93012W        W59795  14.278  36.882  11.485
93013W        W59796  43.218   9.893   3.288
93014W        W59797   7.811  30.145  13.983
93015W        W59798  40.320  18.799   2.789
93016W        W59799  34.067   3.535  12.966
93017W        W59800  15.832  27.205  14.406
93018W        W59801   6.312   3.919   4.069
93019W        W59802   0.512  19.083   3.680
93020W        W59803  19.772  35.109   2.190
93021W        W59804   6.093  39.197   3.293
93022W        W59805  14.306  11.351  14.266
93023W        W59806  21.212  44.975   4.028
93024W        W59807  19.320  21.218  11.659
93025W        W59808  13.581  41.402   2.708
93026W        W59809  15.567  13.184   4.555
93027W        W59810  30.031  11.097   3.909
93028W        W59811  30.821  40.450   3.650
93029W        W59812  40.714  21.993   1.932
93030W        W59813  42.779   2.719  13.920
93031W        W59814   6.200  17.833  13.426
93032W        W59815  13.745   4.440   3.579
93033W        W59816  22.292   8.284   0.652
93034W        W59817   7.748   7.849   4.718
93035W        W59818   7.362  42.788  11.590
93036W        W59819   0.867   3.789   3.653
93037W        W59820  10.864  20.175  13.082
93038W        W59821  29.963   6.599  14.448
93039W        W59822  40.262  39.715  12.616
93040W        W59823  24.875  30.054  13.517
93041W        W59824  16.140   1.503   0.172
93042W        W59825  30.469  20.293  14.990
93043W        W59826  26.304  24.700   4.582
93044W        W59827  18.475  42.828  12.473
93045W        W59828  43.838  37.031   2.423
93046W        W59829  36.492   5.699  13.339
93047W        W59830  11.711  37.061   2.737
93048W        W59831   0.182  19.517   3.678
93049W        W59832   1.365   2.818   2.190
93050W        W59833   6.277  43.260   3.372
93051W        W59834   0.537   9.400   1.671
93052W        W59835  24.230  40.135   5.049
93053W        W59836  10.313  21.724  12.498
93054W        W59837   5.322  17.605   2.158
93055W        W59838  27.541  31.550  12.761
93056W        W59839  19.566   7.895  10.776
93057W        W59840   7.132  41.876  11.555
93058W        W59841  24.971  27.314  11.123
93059W        W59842  36.912  10.209  13.556
93060W        W59843  38.827  36.640  10.983
93061W        W59844  13.676  33.503  13.044
93062W        W59845   9.999  18.104   4.143
93063W        W59846  28.204  38.105   4.453
93064W        W59847   1.477  39.335  12.470
93065W        W59848   2.707  18.175   3.945
93066W        W59849  29.892  28.787   3.665
93067W        W59850   9.580  22.677  11.158
93068W        W59851   1.306   2.810   4.741
93069W        W59852   3.752  21.768   4.275
93070W        W59853   5.841  31.576   2.833
93071W        W59854   8.757  44.594  12.925
93072W        W59855  32.503  13.663   3.620
93073W        W59856   0.976  16.039  10.865
93074W        W59857  35.622   9.864   1.674
93075W        W59858  11.728  27.680  13.487
93076W        W59859  27.947  18.528   1.919
93077W        W59860  31.499  43.369  14.395
93078W        W59861  28.915  30.171   2.698
93079W        W59862  14.393   4.610  14.092
93080W        W59863  19.159  20.938   4.365
93081W        W59864  42.149   9.762   1.667
93082W        W59865  24.164   2.373   1.812
93083W        W59866  31.668  43.780   1.251
93084W        W59867  38.377  29.167   3.719
93085W        W59868   1.681  40.366   4.862
93086W        W59869  16.263  23.727  13.995
93087W        W59870  27.505  41.526  11.556
93088W        W59871  16.278  32.145   1.387
93089W        W59872  20.527   6.316  12.299
93090W        W59873  34.318  21.843   2.365
93091W        W59874   3.621  40.522  12.425
93092W        W59875  26.600  22.979  14.481
93093W        W59876  35.992  10.674  12.105
93094W        W59877  28.561   8.250   1.914
93095W        W59878  41.847  16.315  12.595
93096W        W59879   1.329   4.374   3.578
93097W        W59880  38.053  43.147   2.989
93098W        W59881  38.308  12.542   3.984
93099W        W59882   6.694  24.764   3.224
93100W        W59883  18.797  32.048  10.659
93101W        W59884  24.449   7.432   2.829
93102W        W59885  29.510   3.890  13.622
93103W        W59886  19.065   7.244   2.388
93104W        W59887  35.255  16.301  11.554
93105W        W59888  35.485  25.462  11.897
93106W        W59889  27.662  24.634   2.139
93107W        W59890   3.391  19.800  10.755
93108W        W59891  17.493  40.707  13.879
93109W        W59892  32.248  34.109  14.825
93110W        W59893  29.983  14.547  14.461
93111W        W59894   0.314  14.803  12.047
93112W        W59895  30.548  42.079   3.828
93113W        W59896  12.201  35.520  14.985
93114W        W59897  21.779  21.079  13.961
93115W        W59898  13.218  31.898  10.718
93116W        W59899   7.077  28.727   2.773
93117W        W59900  38.331  25.048  12.322
93118W        W59901   5.343   5.831   3.711
93119W        W59902  23.693  20.026  14.934
93120W        W59903  18.716   2.971  13.926
93121W        W59904   5.963  38.783   4.127
93122W        W59905  10.118   4.159   3.818
93123W        W59906  34.041   3.345   0.367
93124W        W59907  33.873  32.134   2.804
93125W        W59908  17.071  10.297   2.327
93126W        W59909  10.679  11.867  13.010
93127W        W59910  28.886  41.303   4.727
93128W        W59911  42.549  38.510  12.336
93129W        W59912  20.280  40.340  13.945
93130W        W59913   6.254   4.298  11.355
93131W        W59914  36.029  39.307   2.642
93132W        W59915  42.798  44.358   3.774
93133W        W59916   9.172  12.222   4.920
93134W        W59917  23.132   3.556  10.235
93135W        W59918  20.763  43.744   1.344
93136W        W59919  18.745   6.386   4.604
93137W        W59920  27.350  19.005  11.264
93138W        W59921   1.877  22.189  12.529
93139W        W59922  13.747  16.977   2.303
93140W        W59923  22.181  34.350   2.331
93141W        W59924  23.326   4.851   0.286
93142W        W59925  29.027  32.108   1.406
93143W        W59926  11.640  24.477   0.833
93144W        W59927  18.905  25.584  12.429
93145W        W59928  14.111  19.093  10.723
93146W        W59929  18.085  44.576  13.448
93147W        W59930  40.767  11.911  12.041
93148W        W59931  19.689  20.831  10.719
93149W        W59932  36.070  41.997   3.212
93150W        W59933  42.576  35.410  14.094
93151W        W59934   5.719  32.350  10.616
93152W        W59935  32.546  40.878   4.860
93153W        W59936  32.317   4.084  11.038
93154W        W59937  44.578  43.585   1.077
93155W        W59938  44.988   0.368   4.916
93156W        W59939  28.663   5.694   2.036
93157W        W59940   6.651   7.989  14.159
93158W        W59941   4.960  30.546   1.853
93159W        W59942   8.303  37.988   4.247
93160W        W59943   3.213  30.572  13.401
93161W        W59944  34.105   6.246   1.348
93162W        W59945   3.774   9.195  14.823
93163W        W59946  33.414  17.708  10.061
93164W        W59947  27.919  23.836  10.720
93165W        W59948  27.907   6.928   2.147
93166W        W59949  14.275  25.492   5.054
93167W        W59950  11.380  30.947   1.274
93168W        W59951  33.989  19.720   2.927
93169W        W59952  20.995  30.071   4.712
93170W        W59953  18.712  11.894  10.200
93171W        W59954   6.274  18.332   1.690
93172W        W59955  33.992  35.013  12.998
93173W        W59956  29.954  37.234   4.955
93174W        W59957   8.378  14.257  14.932
93175W        W59958  33.429  42.723  10.413
93176W        W59959  19.020  21.443  11.050
93177W        W59960   6.730  44.523  11.596
93178W        W59961  29.879  25.502   3.844
93179W        W59962  43.618  17.374   4.564
93180W        W59963  32.698  25.106   3.057
93181W        W59964  15.801  41.634  10.594
93182W        W59965   5.356  33.806   1.904
93183W        W59966  28.245  20.148   2.606
93184W        W59967  40.063  18.062   1.422
93185W        W59968  18.156  34.269  11.581
93186W        W59969  43.408  31.579   1.647
93187W        W59970   3.948  23.397   1.541
93188W        W59971  41.381  20.967  10.725
93189W        W59972  30.291  44.355   1.730
93190W        W59973  27.406  14.764   2.251
93191W        W59974   2.710  30.280   0.186
93192W        W59975   6.803  27.077  10.700
93193W        W59976  16.843  20.447  12.030
93194W        W59977  27.094   6.480  14.839
93195W        W59978  32.786  26.374   5.082
93196W        W59979  27.657   1.273   0.495
93197W        W59980  23.039  21.028  14.387
93198W        W59981   8.695  39.964   3.782
93199W        W59982  18.093  38.472  13.831
93200W        W59983   5.340  14.280   2.711
93201W        W59984  24.322  40.111   4.541
93202W        W59985  13.099  19.216  13.972
93203W        W59986  41.551  21.918  13.225
93204W        W59987  20.058  27.995   3.606
93205W        W59988  20.595  44.661  11.915
93206W        W59989  27.470   6.910  11.649
93207W        W59990   2.840  20.078  12.006
93208W        W59991  28.376  13.525  13.479
93209W        W59992  30.506  25.027  13.615
93210W        W59993  11.392  42.925  14.784
93211W        W59994   4.291   7.316  12.399
93212W        W59995  42.535   3.733  14.884
93213W        W59996   7.424   2.667  14.846
93214W        W59997  14.214  17.655  10.654
93215W        W59998  26.156  41.562   3.528
93216W        W59999  17.750  33.441   3.277
93217W        W60000  11.637  15.116   0.662
93218W        W60001  17.153  37.131  12.099
93219W        W60002  30.189  24.701  11.210
93220W        W60003  18.660  25.596  14.940
93221W        W60004  32.948  39.459  13.974
93222W        W60005   5.973  42.008  11.103
93223W        W60006  25.338  28.098  14.983
93224W        W60007  26.391  23.390  11.966
93225W        W60008  22.017   3.135   3.250
93226W        W60009  10.909  44.332  12.179
93227W        W60010  15.211  35.909  13.557
93228W        W60011   8.838  39.449  14.255
93229W        W60012  13.564  21.438   1.690
93230W        W60013  23.214  31.483   1.398
93231W        W60014  22.300  24.251  14.437
93232W        W60015  10.920   0.841  14.552
93233W        W60016  22.770  25.621   0.779
93234W        W60017  30.980  42.246   0.810
93235W        W60018  40.318  32.160  13.992
93236W        W60019  32.341  18.223  11.119
93237W        W60020  20.525  40.525  11.130
93238W        W60021  34.313  22.660   0.391
93239W        W60022  40.477  17.523  14.757
93240W        W60023  14.215  35.915   9.827
93241W        W60024  42.527   5.196  10.219
93242W        W60025  39.222  40.984  12.013
93243W        W60026  21.645  40.690   2.226
93244W        W60027  44.141   4.806   3.757
93245W        W60028  15.622  24.855   9.898
93246W        W60029  10.387  33.258  13.800
93247W        W60030   2.653  20.247   2.808
93248W        W60031  12.248   2.115   2.743
93249W        W60032  11.059   3.129  10.513
93250W        W60033  10.935  12.505  14.528
93251W        W60034  41.946  42.588  13.397
93252W        W60035  21.872  15.351  12.041
93253W        W60036  33.021  33.923  11.412
93254W        W60037  32.408  13.609  13.554
93255W        W60038   2.982  18.675  14.809
93256W        W60039   0.442  21.131  14.947
93257W        W60040   9.678  21.206  13.017
93258W        W60041  15.234  34.358  14.328
93259W        W60042  35.048  38.943   0.456
93260W        W60043  10.082  29.870   0.713
93261W        W60044  34.371  23.675   2.317
93262W        W60045  40.455   1.650   0.866
93263W        W60046  34.715  19.314   1.887
93264W        W60047  10.533  42.407   1.381
93265W        W60048  13.890   8.527  11.471
93266W        W60049  44.731  19.556   1.790
93267W        W60050  33.111  29.144   4.280
93268W        W60051   3.452  41.614   3.758
93269W        W60052   3.767  42.924  12.107
93270W        W60053  15.690  22.189  11.590
93271W        W60054   7.174  10.357   4.545
93272W        W60055  12.090  18.152   0.222
93273W        W60056  44.697   8.204   2.320
93274W        W60057  36.325  44.454   0.807
93275W        W60058  10.979  24.748  13.869
93276W        W60059  43.584   7.776  11.199
93277W        W60060  41.304  27.974  10.764
93278W        W60061  44.900   0.817   1.936
93279W        W60062   6.360  13.583   0.300
93280W        W60063   9.948   0.873   4.597
93281W        W60064  22.902  16.135  13.606
93282W        W60065  33.582  16.254  14.687
93283W        W60066   4.166  34.139  14.749
93284W        W60067  33.843  24.067  13.672
93285W        W60068   6.104   4.843   5.104
93286W        W60069  26.770  44.919   1.753
93287W        W60070  10.690  17.084   4.080
93288W        W60071  19.059  21.720  13.465
93289W        W60072  16.628  20.533   2.795
93290W        W60073  28.111   9.689   2.765
93291W        W60074  23.102  24.441  12.091
93292W        W60075   0.678  18.595   0.388
93293W        W60076   1.791   1.378   2.937
93294W        W60077  29.566   1.472   1.524
93295W        W60078  13.716  18.491   2.375
93296W        W60079  31.131   9.112  12.960
93297W        W60080  35.909  15.404   4.922
93298W        W60081  24.088  20.296  12.879
93299W        W60082  26.056  20.294   2.835
93300W        W60083  43.181  26.640   4.607
93301W        W60084  40.909  44.754  13.502
93302W        W60085  12.734  39.114   2.720
93303W        W60086  28.572  44.733  11.229
93304W        W60087  28.806  24.117   4.106
93305W        W60088  44.171   2.768  12.660
93306W        W60089   9.787  21.060  14.575
93307W        W60090  30.859  26.228   1.903
93308W        W60091   2.723  44.242  12.521
93309W        W60092  43.017   6.832   2.384
93310W        W60093   0.898   1.842  13.106
93311W        W60094  41.535  42.937  10.213
93312W        W60095  24.094   0.328  11.501
93313W        W60096  18.182  44.337   4.454
93314W        W60097  15.784  14.655  11.115
93315W        W60098   7.795  10.616  11.066
93316W        W60099  26.604  34.928   0.942
93317W        W60100   6.354   6.804   4.418
93318W        W60101  12.149  33.199  10.990
93319W        W60102   3.769  23.220  13.937
93320W        W60103   8.638  35.007   4.526
93321W        W60104  14.732  30.553   1.731
93322W        W60105  12.356  24.971  13.347
93323W        W60106  12.241  43.847   0.726
93324W        W60107  18.674  19.105   2.299
93325W        W60108   1.883  36.789  14.435
93326W        W60109  32.497  24.633   0.001
93327W        W60110  21.753  14.446   3.598
93328W        W60111   4.740   3.165  13.395
93329W        W60112  40.381  20.678   2.429
93330W        W60113  15.916  13.316  12.087
93331W        W60114  37.948  28.890  14.316
93332W        W60115  13.368  24.508   0.410
93333W        W60116  29.013  17.201  11.166
93334W        W60117  40.414   3.186   4.638
93335W        W60118  18.754   5.421   3.637
93336W        W60119  33.453   4.004   0.370
93337W        W60120  13.295   7.380   1.197
93338W        W60121  28.225  28.403  10.681
93339W        W60122  21.313  18.332   0.880
93340W        W60123  17.046  32.404  10.471
93341W        W60124  24.745   4.484   4.521
93342W        W60125  14.104  16.480   3.889
93343W        W60126  20.648   9.729   1.703
93344W        W60127  36.820  24.248   1.874
93345W        W60128  15.636   4.948   5.137
93346W        W60129   5.691  41.352  11.573
93347W        W60130  17.641  39.857  11.892
93348W        W60131  34.100  43.988  14.888
93349W        W60132   5.951  43.947   1.340
93350W        W60133  28.713  35.430  10.562
93351W        W60134   7.453   7.605   2.428
93352W        W60135  11.067  13.403  14.226
93353W        W60136  34.223  31.429   2.829
93354W        W60137   7.698  37.931   2.421
93355W        W60138  42.880  26.628   3.565
93356W        W60139  19.228   5.122   0.373
93357W        W60140  11.291  16.844   3.165
93358W        W60141   3.294  30.097   1.273
93359W        W60142  20.242   2.260   3.095
93360W        W60143  38.609   3.417  12.448
93361W        W60144   1.206  31.882   2.351
93362W        W60145   8.685  35.071   5.019
93363W        W60146  15.351  34.038  12.408
93364W        W60147  17.214   4.848   0.787
93365W        W60148  34.971  15.054  13.390
93366W        W60149   5.795  10.246  12.772
93367W        W60150  35.511   5.803  13.752
93368W        W60151   3.977   3.443  12.064
93369W        W60152  39.571  36.056  11.138
93370W        W60153  38.892   7.995  14.913
93371W        W60154  26.069  22.850   2.713
93372W        W60155  42.167  17.381  10.114
93373W        W60156  20.929  20.715  11.009
93374W        W60157   9.931  10.673  11.160
93375W        W60158  39.283  13.294  11.051
93376W        W60159  33.646  11.310   4.720
93377W        W60160  33.228  34.609   0.880
93378W        W60161  26.687  13.096   4.367
93379W        W60162  30.084  33.707  12.733
93380W        W60163  34.516  10.564   4.091
93381W        W60164  29.520  23.413   3.164
93382W        W60165  10.419  37.331   1.936
93383W        W60166   4.238   6.150  12.131
93384W        W60167  13.698  26.151   2.670
93385W        W60168  28.664   5.459  12.440
93386W        W60169  44.481  26.474  14.390
93387W        W60170  25.972  44.427  12.342
93388W        W60171  11.272  21.581  13.490
93389W        W60172  13.153  41.044   0.736
93390W        W60173  36.443  23.511   3.124
93391W        W60174  43.413  18.191  12.193
93392W        W60175  23.468  20.122  10.661
93393W        W60176  39.034   1.598  11.414
93394W        W60177  19.593  21.813   2.279
93395W        W60178  13.686  26.578  13.999
93396W        W60179  32.942   0.021  11.383
93397W        W60180   5.690  35.560   0.662
93398W        W60181  24.500   7.713   4.384
93399W        W60182  15.203  13.746   3.752
93400W        W60183  16.500  17.132  11.594
93401W        W60184  31.893  17.971   1.511
93402W        W60185   9.153  11.325  14.866
93403W        W60186  28.334  36.235   0.733
93404W        W60187  26.613  35.832   4.506
93405W        W60188  21.721  13.402   2.677
93406W        W60189  22.058  16.523   0.275
93407W        W60190  28.946  21.220  13.731
93408W        W60191   9.828   9.097  11.978
93409W        W60192  15.097  24.576   3.171
93410W        W60193  13.746   6.901  11.672
93411W        W60194  15.789  30.612   4.783
93412W        W60195  26.283  13.267  10.754
93413W        W60196   0.466   1.770   3.945
93414W        W60197  19.910   0.167  10.710
93415W        W60198   5.386  19.446   2.707
93416W        W60199  17.256  42.089  12.943
93417W        W60200  41.018   0.329   3.307
93418W        W60201  29.168  41.349  11.991
93419W        W60202  10.284  41.437   1.249
93420W        W60203  24.553  24.574  12.141
93421W        W60204  13.278  22.550  11.608
93422W        W60205   7.415  15.971   0.024
93423W        W60206   1.943   8.500   2.711
93424W        W60207  10.693   9.795  11.018
93425W        W60208  41.267  33.466   4.530
93426W        W60209  34.513  20.587  14.102
93427W        W60210  25.016  44.259   0.773
93428W        W60211  43.379  40.332   5.004
93429W        W60212   6.963  21.171   4.847
93430W        W60213  33.293  43.380  11.231
93431W        W60214  29.076  12.703  10.533
93432W        W60215  27.986  24.032  11.908
93433W        W60216  32.006  13.738   2.403
93434W        W60217  30.185  36.684  10.754
93435W        W60218  37.610   5.892   1.216
93436W        W60219  41.757  27.548   0.500
93437W        W60220  31.852   5.467  12.715
93438W        W60221  43.093  40.165  13.573
93439W        W60222  37.754   8.403   4.154
93440W        W60223   0.488  21.254   3.176
93441W        W60224  27.698   3.790   3.516
93442W        W60225  30.944  23.399  10.308
93443W        W60226   3.153  27.105   1.772
93444W        W60227  43.536  30.108   1.761
93445W        W60228  31.548   3.402  12.537
93446W        W60229  19.561  15.240   2.077
93447W        W60230  39.540  35.034   4.236
93448W        W60231  42.882  18.806  14.504
93449W        W60232  19.168  21.567  12.043
93450W        W60233  44.003  10.831  11.836
93451W        W60234  15.086  44.957  14.295
93452W        W60235  42.503  14.127   2.303
93453W        W60236  27.642  43.281  10.980
93454W        W60237   2.846   5.765   0.441
93455W        W60238   6.371  21.771   0.747
93456W        W60239  19.223  24.438  14.922
93457W        W60240  28.680  28.122  13.588
93458W        W60241   9.131   1.576   4.176
93459W        W60242  17.535  32.601   3.939
93460W        W60243  18.718   0.032  12.593
93461W        W60244  44.585  20.818  11.157
93462W        W60245  14.512  23.244   3.275
93463W        W60246  40.620  26.725  13.988
93464W        W60247  39.966  18.254  11.946
93465W        W60248  30.379  34.931  12.041
93466W        W60249  24.312  33.688  14.750
93467W        W60250   4.226  31.528  12.035
93468W        W60251  28.012  25.624  13.439
93469W        W60252  12.071  44.612   0.918
93470W        W60253   7.925  16.356   1.802
93471W        W60254  11.266  40.748  12.565
93472W        W60255  40.745  31.681  11.293
93473W        W60256  35.384  18.274   2.827
93474W        W60257  39.027  16.608  12.374
93475W        W60258  25.500  19.317   3.704
93476W        W60259  43.536   2.322  13.555
93477W        W60260   1.913  29.388   0.839
93478W        W60261   1.157  25.391   1.931
93479W        W60262  44.798  38.061   1.400
93480W        W60263   3.409  19.035   3.757
93481W        W60264  10.320  32.912   4.252
93482W        W60265  32.945  39.497   1.145
93483W        W60266  21.958  16.169  12.550
93484W        W60267  26.577  30.672  10.385
93485W        W60268  42.171  32.373  11.044
93486W        W60269   3.102  41.929  12.597
93487W        W60270  12.484  16.750  13.428
93488W        W60271  41.183  15.803   4.378
93489W        W60272  24.217  41.672  12.958
93490W        W60273  12.616  33.501  12.046
93491W        W60274  31.535  31.101   4.448
93492W        W60275  30.743  20.675   2.057
93493W        W60276  40.254   0.852   2.717
93494W        W60277  11.350  23.416  13.432
93495W        W60278  39.485   4.784   0.424
93496W        W60279  39.798  22.487  13.898
93497W        W60280  44.596  10.711  13.980
93498W        W60281   8.849  12.053   0.970
93499W        W60282   9.737  33.048  11.125
93500W        W60283  19.720  38.183   2.464
93501W        W60284  41.510  27.591   1.954
93502W        W60285  33.732  40.759   2.844
93503W        W60286  38.347   9.284   1.722
93504W        W60287   2.957   7.010  13.485
93505W        W60288  41.117   3.450   0.311
93506W        W60289  10.104  29.000  12.518
93507W        W60290   4.444  13.005   1.539
93508W        W60291   4.285  19.654   3.846
93509W        W60292   1.888  42.951   5.037
93510W        W60293   4.994   0.872  14.539
93511W        W60294  29.411  15.753   2.576
93512W        W60295  25.250   5.284   1.160
93513W        W60296  34.350  17.729  14.822
93514W        W60297  28.280   7.617  10.670
93515W        W60298  27.565   0.503   4.225
93516W        W60299  10.711   8.210   1.433
93517W        W60300  14.594   6.670   3.849
93518W        W60301  24.070   5.806   0.930
93519W        W60302  25.329  44.494   3.152
93520W        W60303  11.410   2.408   3.251
93521W        W60304   5.415  20.542  11.177
93522W        W60305  44.476   1.444  10.882
93523W        W60306   3.933  21.791  12.229
93524W        W60307   8.802  24.574  14.364
93525W        W60308  21.454  13.661   5.146
93526W        W60309  20.260   3.143  11.938
93527W        W60310  39.603   7.346  12.461
93528W        W60311  11.096  32.032  11.220
93529W        W60312  23.629  40.567  13.703
93530W        W60313   3.736  13.434   0.287
93531W        W60314  20.615   4.863  11.102
93532W        W60315   5.989  14.308   0.283
93533W        W60316  37.325   0.216   2.866
93534W        W60317  11.742  29.072  12.042
93535W        W60318  31.119  23.130   4.016
93536W        W60319  30.681   0.835   0.660
93537W        W60320   2.602   4.819  10.931
93538W        W60321  15.135  15.589  13.798
93539W        W60322  40.539  29.813   4.185
93540W        W60323  41.022  15.046  13.484
93541W        W60324  22.600   3.035  12.538
93542W        W60325   4.835  44.805  13.560
93543W        W60326  14.876   8.731  12.924
93544W        W60327  21.612  15.148   0.844
93545W        W60328  32.388  22.279  12.112
93546W        W60329   6.020  15.300  13.963
93547W        W60330  25.897  29.124  13.374
93548W        W60331  23.628  30.521  11.471
93549W        W60332  33.732  22.649   4.893
93550W        W60333  12.219   1.530   2.284
93551W        W60334  39.804  33.926  11.643
93552W        W60335   9.449   6.034  12.930
93553W        W60336  34.162  14.121  14.521
93554W        W60337   6.287  26.239  12.675
93555W        W60338   1.798   0.369   4.931
93556W        W60339  25.023   4.422  14.449
93557W        W60340  19.416  39.842   3.712
93558W        W60341  18.218  13.195  14.866
93559W        W60342  39.113  22.251   1.227
93560W        W60343  21.275  28.126  12.955
93561W        W60344  31.949  30.484  10.769
93562W        W60345  12.665  10.924   4.083
93563W        W60346   5.392  38.948  14.980
93564W        W60347  26.982  23.657  11.923
93565W        W60348  43.978  35.931  14.655
93566W        W60349  12.707  12.322  13.532
93567W        W60350  10.831   1.544   3.135
93568W        W60351  20.764  31.054   4.067
93569W        W60352  42.150  34.097  14.711
93570W        W60353  44.274  16.551   4.537
93571W        W60354  29.927  19.619   4.854
93572W        W60355  34.084  14.124   1.910
93573W        W60356  25.964  12.108  11.956
93574W        W60357  36.759  27.010   3.242
93575W        W60358   3.809  38.521   2.370
93576W        W60359   4.283  41.133   4.147
93577W        W60360   5.504  15.829  13.364
93578W        W60361   2.701   7.009  12.556
93579W        W60362  19.716  33.894   2.243
93580W        W60363  23.787  42.295  10.349
93581W        W60364  15.679  32.033  12.279
93582W        W60365  22.878   4.204  13.111
93583W        W60366  44.461  31.990   1.679
93584W        W60367   9.219   5.774  11.063
93585W        W60368  36.381  27.927   4.154
93586W        W60369   0.658  42.436   3.322
93587W        W60370   2.665  35.317  12.050
93588W        W60371  42.437  31.524  10.683
93589W        W60372  41.657   7.894   3.940
93590W        W60373   9.822  37.879   1.340
93591W        W60374   4.367  37.499  13.464
93592W        W60375  42.697  28.858   1.668
93593W        W60376   4.561  33.283   1.344
93594W        W60377  36.069  39.859   3.764
93595W        W60378  25.024  41.044  13.552
93596W        W60379  22.857   3.503  10.674
93597W        W60380  38.078   8.319  14.306
93598W        W60381  14.407  13.322   1.664
93599W        W60382  20.291  32.780  14.576
93600W        W60383  22.996  29.051   3.288
93601W        W60384  24.322   8.774   4.149
93602W        W60385  30.432  32.081   2.787
93603W        W60386   4.175  24.172   0.461
93604W        W60387  10.300  43.704  10.735
93605W        W60388  40.826  24.218  12.907
93606W        W60389  19.184  28.363  13.773
93607W        W60390  40.299  37.523   0.453
93608W        W60391  10.420  44.024  14.292
93609W        W60392  19.532  41.980  13.000
93610W        W60393  12.137  33.491   1.691
93611W        W60394  41.547  32.418  10.820
93612W        W60395  12.357  29.894  11.103
93613W        W60396   5.213  32.859  12.890
93614W        W60397  27.603   1.281  13.460
93615W        W60398  18.229  12.895  14.442
93616W        W60399  19.474  40.945  12.026
93617W        W60400   6.878  38.382  13.826
93618W        W60401  21.881  34.018   2.062
93619W        W60402  11.805  13.604   4.058
93620W        W60403  25.557   2.348   0.952
93621W        W60404   9.727  42.417   2.746
93622W        W60405  15.906  29.273  12.153
93623W        W60406  25.138  13.615  13.357
93624W        W60407  25.174   3.316  14.414
93625W        W60408  19.697  37.896   2.009
93626W        W60409  15.202  23.589   1.554
93627W        W60410  33.031   8.754  14.357
93628W        W60411  10.325  34.139  12.016
93629W        W60412   9.149  33.522  11.637
93630W        W60413  29.548  40.080  10.331
93631W        W60414  29.649  11.534   1.586
93632W        W60415  15.811  18.633   4.097
93633W        W60416  33.208   0.719   0.770
93634W        W60417  23.941  39.991   5.446
93635W        W60418  14.487  42.441  14.928
93636W        W60419  24.103  11.536  13.927
93637W        W60420  14.675  40.286   0.250
93638W        W60421  44.857  13.556  11.809
93639W        W60422   7.793  38.977   2.408
93640W        W60423  14.036  30.529  14.842
93641W        W60424  41.491  18.780   0.440
93642W        W60425  35.378  14.936   2.235
93643W        W60426  29.475  34.759  10.872
93644W        W60427  44.037  34.061   0.872
93645W        W60428  37.017  16.707   4.445
93646W        W60429   9.220  25.432   0.983
93647W        W60430   7.795   8.367   1.176
93648W        W60431  21.551  30.215   0.763
93649W        W60432  31.551  25.079   2.617
93650W        W60433  14.520  37.914   1.749
93651W        W60434   5.287  32.544   3.628
93652W        W60435  43.882  34.445  10.335
93653W        W60436  42.356  16.232  11.555
93654W        W60437  13.825   9.337   1.477
93655W        W60438   8.526   5.266   4.094
93656W        W60439  27.101  11.409   3.488
93657W        W60440   2.890  10.456  10.691
93658W        W60441  27.243  44.690   2.666
93659W        W60442  24.501   9.936   1.826
93660W        W60443   9.589  43.325  11.668
93661W        W60444  20.514  26.383   0.260
93662W        W60445   8.206  42.161  12.209
93663W        W60446   4.328  42.981   1.428
93664W        W60447  21.668  27.698  11.744
93665W        W60448  20.052   0.980   2.251
93666W        W60449   0.950  10.397  12.105
93667W        W60450  29.877  43.892  11.075
93668W        W60451  33.232  29.443   0.254
93669W        W60452  10.281   3.360   1.677
93670W        W60453  20.186   5.376  11.035
93671W        W60454   4.305   6.767   1.088
93672W        W60455  37.602  42.363   5.037
93673W        W60456  34.378  16.239   2.658
93674W        W60457  29.586   9.878  14.879
93675W        W60458  22.140  29.008  13.638
93676W        W60459  11.472  25.499   3.177
93677W        W60460  28.196  12.569  13.129
93678W        W60461   8.219  24.032   2.954
93679W        W60462  13.244  11.284  11.613
93680W        W60463  43.254   4.275   0.809
93681W        W60464   4.450  40.572   0.389
93682W        W60465  13.702  10.072  12.473
93683W        W60466  21.659  42.825  13.972
93684W        W60467  12.933  30.935   0.320
93685W        W60468   8.600  43.518   0.394
93686W        W60469  42.435  26.212  13.032
93687W        W60470  31.859   2.308   3.003
93688W        W60471   6.880  29.422  10.617
93689W        W60472  35.759  16.177   0.306
93690W        W60473   7.093  23.781   3.162
93691W        W60474  38.594   4.384  14.214
93692W        W60475  32.525  11.562  14.518
93693W        W60476  22.824  22.143  13.859
93694W        W60477   4.789   4.020  11.179
93695W        W60478  28.382   8.513   2.338
93696W        W60479  29.491  11.879  14.774
93697W        W60480   2.192   6.327   0.441
93698W        W60481  38.925  36.479  11.470
93699W        W60482  25.735  30.984   4.567
93700W        W60483  18.179   3.649  10.727
93701W        W60484  38.890   0.063  12.519
93702W        W60485  31.654  42.841   0.292
93703W        W60486  18.185  19.348  14.467
93704W        W60487  35.129  12.220   1.774
93705W        W60488  24.530   6.743   4.570
93706W        W60489  22.786  18.542   3.084
93707W        W60490  12.578  43.199   0.401
93708W        W60491   4.713  41.461  13.532
93709W        W60492   4.856  19.493   3.199
93710W        W60493   2.620  34.899   3.677
93711W        W60494   3.162  25.151  11.817
93712W        W60495   6.212  22.733   1.944
93713W        W60496  14.765  32.440   1.872
93714W        W60497  23.919  23.093  11.030
93715W        W60498  17.868  26.213   2.034
93716W        W60499  28.138  19.118  13.988
93717W        W60500  27.056  30.071  13.247
93718W        W60501  38.443   6.740  13.831
93719W        W60502  39.066   2.201  13.550
93720W        W60503  42.454  10.909   3.771
93721W        W60504  40.068   6.128   3.327
93722W        W60505  30.437  42.959   4.194
93723W        W60506  18.089  33.384   1.273
93724W        W60507  38.904  39.427   0.447
93725W        W60508   2.345   3.109  13.079
93726W        W60509  20.134  24.110  12.413
93727W        W60510  31.153   5.956  11.571
93728W        W60511  42.054   7.126  14.418
93729W        W60512   2.981   6.485  13.426
93730W        W60513  28.479  18.553   1.957
93731W        W60514   2.135  40.846   3.607
93732W        W60515  17.717  36.092  13.735
93733W        W60516   0.152  11.694  11.991
93734W        W60517  12.636   1.201  12.199
93735W        W60518   3.281  10.672   0.831
93736W        W60519   7.610  38.949   4.650
93737W        W60520  43.405  32.992   4.874
93738W        W60521  42.423  31.517   4.519
93739W        W60522  13.582  30.722  13.923
93740W        W60523  27.197  10.313   0.219
93741W        W60524   6.317  31.787  13.442
93742W        W60525  43.433  12.215   3.289
93743W        W60526  27.671  14.878   2.677
93744W        W60527   8.650  39.773   3.293
93745W        W60528  41.782  43.624   1.726
93746W        W60529  36.340  28.019  11.711
93747W        W60530   0.743  44.293   3.742
93748W        W60531   8.933  35.355   0.532
93749W        W60532  25.115  28.186  10.645
93750W        W60533  13.681  23.086   0.386
93751W        W60534  40.408  23.062  13.879
93752W        W60535   4.810  35.559  11.191
93753W        W60536  30.299  24.096  10.759
93754W        W60537  37.939  38.609  11.027
93755W        W60538  42.677   3.340   3.912
93756W        W60539  18.796  37.372   0.052
93757W        W60540  38.600   7.793  11.628
93758W        W60541  24.372  22.108  14.927
93759W        W60542  37.539  37.868   2.725
93760W        W60543  39.850  26.701  11.540
93761W        W60544  11.203  30.500  10.475
93762W        W60545  36.041  11.270   2.840
93763W        W60546  36.952  42.369   2.388
93764W        W60547  36.468  14.950   3.798
93765W        W60548  11.704  32.674  13.624
93766W        W60549  41.004  37.332   0.933
93767W        W60550   6.241  12.340  13.378
93768W        W60551  34.690  44.957  12.637
93769W        W60552  16.509  16.473   1.754
93770W        W60553  15.200  15.117   1.229
93771W        W60554  13.329  23.445  11.123
93772W        W60555  11.583   9.710  10.764
93773W        W60556   3.431  28.186  11.243
93774W        W60557  19.554   7.346   2.573
93775W        W60558  21.063  34.471  11.529
93776W        W60559  18.296  27.196  13.588
93777W        W60560  15.964   3.639   0.302
93778W        W60561  32.922   6.169   3.112
93779W        W60562  10.912  41.458   4.309
93780W        W60563   3.521  31.036   0.880
93781W        W60564  11.767   1.105   3.229
93782W        W60565  15.218  13.700   2.706
93783W        W60566  22.744  38.533   9.938
93784W        W60567  28.475  15.303  11.489
93785W        W60568  25.647  20.759   2.026
93786W        W60569   1.247  18.627  10.586
93787W        W60570  19.546  17.331  11.598
93788W        W60571  28.532   3.452   4.256
93789W        W60572  24.202  30.290   3.584
93790W        W60573  26.623  30.149   2.631
93791W        W60574  20.114  25.135  10.451
93792W        W60575  26.664  26.091   2.785
93793W        W60576   4.389   9.473   4.473
93794W        W60577  31.156  28.887  10.157
93795W        W60578  34.389  44.770   2.874
93796W        W60579   3.435   9.855  14.942
93797W        W60580  10.831  26.990  13.098
93798W        W60581  18.228  33.609   3.439
93799W        W60582  44.047  34.452   1.693
93800W        W60583  23.485  28.732  11.873
93801W        W60584   7.868  14.064   1.480
93802W        W60585   5.589  32.583   4.423
93803W        W60586   6.979  17.249   3.773
93804W        W60587  39.954  23.698  12.046
93805W        W60588  31.971   9.451   2.504
93806W        W60589  24.988   1.750  14.938
93807W        W60590  15.326  44.223  14.075
93808W        W60591  43.405  21.788  14.915
93809W        W60592   8.991  42.278  13.149
93810W        W60593  27.514   6.656   1.968
93811W        W60594  17.760  39.880  13.914
93812W        W60595  31.405   2.537  11.591
93813W        W60596  11.227   6.872   5.060
93814W        W60597  23.476  27.693  12.198
93815W        W60598  12.270  17.129  12.766
93816W        W60599  12.862  34.354  12.446
93817W        W60600  24.382  35.405   4.143
93818W        W60601  28.313  26.143  12.396
93819W        W60602  34.977  17.786   4.645
93820W        W60603   4.883  29.576  11.837
93821W        W60604  18.517  10.031  13.467
93822W        W60605  37.087  31.291  14.777
93823W        W60606   8.741  15.404  13.389
93824W        W60607  23.794  31.410   4.252
93825W        W60608  15.310  41.351   2.396
93826W        W60609  15.207  26.607   3.810
93827W        W60610  35.660  13.498  14.364
93828W        W60611  44.914  23.030  12.664
93829W        W60612   1.156   6.466  11.964
93830W        W60613  14.424  19.535   3.732
93831W        W60614  20.754   6.353   2.957
93832W        W60615  21.025  16.986  11.488
93833W        W60616  30.728  22.258  14.807
93834W        W60617  43.241  12.420  11.930
93835W        W60618  41.227   4.131  12.502
93836W        W60619  23.667   0.169   3.298
93837W        W60620  17.752  40.398  13.008
93838W        W60621   5.672   1.518  14.941
93839W        W60622  16.277  30.615   1.299
93840W        W60623   5.526   9.194   3.435
93841W        W60624  24.967  24.681  13.928
93842W        W60625  35.072  38.098   1.282
93843W        W60626  21.508  39.566   4.056
93844W        W60627  37.528   9.752   3.247
93845W        W60628  18.831   3.929   0.691
93846W        W60629  17.691  15.903  12.430
93847W        W60630  12.845  22.838   1.464
93848W        W60631   2.737  12.111   1.177
93849W        W60632  30.566  27.682   3.287
93850W        W60633  10.480  28.080   1.374
93851W        W60634  37.438  23.475  10.133
93852W        W60635  31.912   7.743  13.321
93853W        W60636   6.566   8.737   4.493
93854W        W60637  37.993  13.811  14.354
93855W        W60638  44.320   1.925   0.253
93856W        W60639   3.043   3.895   3.862
93857W        W60640  18.422  37.563   3.191
93858W        W60641  36.174  10.409   0.021
93859W        W60642  17.228   6.863  13.393
93860W        W60643  32.296  14.230   1.835
93861W        W60644  42.192   1.541  11.233
93862W        W60645  32.622  28.428   2.857
93863W        W60646   1.311   9.328   1.208
93864W        W60647   5.252   0.182  12.327
93865W        W60648  44.000  33.473   4.094
93866W        W60649  22.846  33.596   4.485
93867W        W60650  11.067  30.557   2.757
93868W        W60651  44.704   0.858  12.936
93869W        W60652   3.857  29.920  13.469
93870W        W60653  34.416  18.228   1.459
93871W        W60654   5.594  20.725  11.627
93872W        W60655  36.365   3.294   4.267
93873W        W60656  36.428   2.904  11.941
93874W        W60657   1.606  29.474  13.352
93875W        W60658  34.195  17.107  11.570
93876W        W60659  37.893  26.002  14.555
93877W        W60660  23.079  42.690  11.537
93878W        W60661  41.307   1.466  12.995
93879W        W60662  24.479   7.850   2.506
93880W        W60663  30.077  19.773  11.484
93881W        W60664   8.913  17.776  11.936
93882W        W60665  28.697  11.126   0.656
93883W        W60666   5.872  41.606  10.775
93884W        W60667   2.175  23.244   0.444
93885W        W60668   8.763  36.011   0.225
93886W        W60669  44.114  32.551   4.960
93887W        W60670   5.717  12.823   0.746
93888W        W60671  36.682  27.451  14.478
93889W        W60672  30.122  39.106  14.045
93890W        W60673  43.810  30.448   4.406
93891W        W60674   3.185   2.835  12.133
93892W        W60675  22.965  14.595   4.542
93893W        W60676   2.699  43.994  12.979
93894W        W60677   8.705  11.169   4.146
93895W        W60678   6.958  43.719  14.901
93896W        W60679  42.805  35.464  14.563
93897W        W60680  22.140  43.323   4.506
93898W        W60681  26.096  18.634  14.502
93899W        W60682  29.453  19.273  12.730
93900W        W60683  43.434  33.129  10.451
93901W        W60684  29.260  33.515   0.265
93902W        W60685   7.855  41.425   2.165
93903W        W60686   0.003  32.194   4.227
93904W        W60687   0.942  16.804  13.364
93905W        W60688  15.501  37.512   3.529
93906W        W60689  19.606  29.823  11.031
93907W        W60690  35.402  34.921  14.736
93908W        W60691  32.766  22.097  14.741
93909W        W60692   8.534  16.301  11.323
93910W        W60693   6.823  12.140  12.851
93911W        W60694  40.975  27.175   3.750
93912W        W60695  27.015  11.594   1.116
93913W        W60696  26.542  39.357  14.363
93914W        W60697  19.506   4.156  10.677
93915W        W60698  37.583  33.468   4.300
93916W        W60699  22.160  13.857  10.600
93917W        W60700  27.150  28.176   2.288
93918W        W60701  25.671  17.647   0.678
93919W        W60702   3.529   4.941  11.328
93920W        W60703  23.879  12.084   3.846
93921W        W60704  13.901   4.771  13.001
93922W        W60705  38.497  24.540   4.079
93923W        W60706  17.820  34.081   3.684
93924W        W60707  30.690   2.563   5.012
93925W        W60708  44.694  26.175   0.072
93926W        W60709  29.223  30.581  10.335
93927W        W60710  18.277  11.682   3.923
93928W        W60711  13.190   4.870  10.609
93929W        W60712   7.564  44.790  14.159
93930W        W60713  25.950  13.089  11.121
93931W        W60714   1.159   7.953   4.551
93932W        W60715  31.944  19.236  13.826
93933W        W60716   3.769  20.972   1.877
93934W        W60717   4.363   8.829  10.949
93935W        W60718  22.505  21.602   1.395
93936W        W60719   8.181  40.799   0.852
93937W        W60720  43.015  27.115  11.062
93938W        W60721  32.665  12.769  11.890
93939W        W60722   6.296  24.335  11.957
93940W        W60723  14.145  23.262   2.752
93941W        W60724  20.518  36.563  13.171
93942W        W60725  38.835  18.296   0.757
93943W        W60726  20.457   0.376  12.617
93944W        W60727  33.713  35.398   3.728
93945W        W60728  28.661  14.296  14.624
93946W        W60729  11.414  12.359   0.795
93947W        W60730  18.615  13.246  14.478
93948W        W60731  10.319  29.306  14.427
93949W        W60732   6.647  20.043  13.452
93950W        W60733  20.519  11.713  13.871
93951W        W60734  35.807  27.788  11.655
93952W        W60735   5.927  12.703  12.068
93953W        W60736  16.786   0.157  12.236
93954W        W60737  32.146  28.221   3.762
93955W        W60738  32.875  14.152  14.091
93956W        W60739  42.317  10.706   0.520
93957W        W60740  44.868  15.669  13.962
93958W        W60741  21.372  37.534  11.101
93959W        W60742  22.200  34.678   0.253
93960W        W60743   2.041  18.281   0.487
93961W        W60744  44.768  26.968   1.329
93962W        W60745   6.016  23.177   4.205
93963W        W60746  42.890  35.509  12.319
93964W        W60747  23.449  24.950  11.534
93965W        W60748  14.600  36.903   1.957
93966W        W60749  25.677   0.526  12.049
93967W        W60750  17.313  22.647  14.551
93968W        W60751  10.593  22.024  12.878
93969W        W60752  33.322   8.597   4.612
93970W        W60753  37.978  40.885  13.960
93971W        W60754   9.751  14.127   1.271
93972W        W60755  26.608   6.185  11.129
93973W        W60756  17.061   4.872  11.469
93974W        W60757  15.863  20.087   2.740
93975W        W60758  42.972  25.652   1.994
93976W        W60759  28.524  17.648  10.533
93977W        W60760   9.352  41.878   3.594
93978W        W60761   7.758  19.023  10.707
93979W        W60762  37.835  17.233   2.677
93980W        W60763   3.899  37.342  13.668
93981W        W60764  32.914  33.867  12.013
93982W        W60765  19.101  24.594   4.697
93983W        W60766  12.869  28.220  13.886
93984W        W60767  39.314  41.493  12.076
93985W        W60768   0.545  30.548  11.547
93986W        W60769  34.859  29.106  14.857
93987W        W60770  23.729   6.594   2.368
93988W        W60771  22.744  33.034  11.482
93989W        W60772  19.142  18.794  10.139
93990W        W60773   8.800  20.530   0.746
93991W        W60774  28.144   2.132   3.267
93992W        W60775  18.786  13.116   1.326
93993W        W60776  19.260  40.221  12.977
93994W        W60777  23.003   3.276  14.786
93995W        W60778  20.058  29.509   0.481
93996W        W60779  31.668  42.456   1.792
93997W        W60780   2.664  12.255  12.457
93998W        W60781  39.970  39.728  11.681
93999W        W60782  11.292  29.505   1.679
94000W        W60783  36.536  38.915  14.917
94001W        W60784  44.083  25.658   1.188
94002W        W60785  22.236  37.016   1.380
94003W        W60786  23.235  44.304  13.920
94004W        W60787  21.066   1.409  14.400
94005W        W60788  37.991   8.154  10.323
94006W        W60789  38.016   1.312  12.406
94007W        W60790  34.921  19.177   1.037
94008W        W60791  12.263  23.770   4.130
94009W        W60792  18.443  40.317   2.472
94010W        W60793  14.451  38.591   5.004
94011W        W60794  40.658  21.513  10.333
94012W        W60795  14.740  32.836   1.511
94013W        W60796  37.880   0.445   1.230
94014W        W60797  27.937  37.056   3.285
94015W        W60798  36.896  15.769   4.256
94016W        W60799  38.897  34.287   4.185
94017W        W60800  43.280  17.678  13.974
94018W        W60801  35.126  39.001   2.257
94019W        W60802  13.711   1.879   3.730
94020W        W60803  31.154   6.953  12.144
94021W        W60804  24.065  31.131  14.320
94022W        W60805  40.895  42.712  12.201
94023W        W60806  16.025  18.663   1.345
94024W        W60807  13.146  28.567   4.294
94025W        W60808   6.236   5.919  10.804
94026W        W60809   1.482  22.199  13.850
94027W        W60810  44.782  21.564  14.938
94028W        W60811  28.103  14.581  12.026
94029W        W60812  10.204  14.795   4.484
94030W        W60813   5.815  42.404  14.867
94031W        W60814  34.176  18.087   1.907
94032W        W60815  18.540  36.665   1.240
94033W        W60816  19.737  13.109  13.367
94034W        W60817  35.473  17.252  12.439
94035W        W60818   5.400  21.047   2.934
94036W        W60819  24.944  21.353  11.991
94037W        W60820  37.590  34.757  11.040
94038W        W60821  36.516  10.692  12.215
94039W        W60822   1.446  10.680  12.821
94040W        W60823  41.787  14.190   1.357
94041W        W60824  28.119  22.205   0.378
94042W        W60825  27.984  40.504   2.761
94043W        W60826  35.100   7.640   3.783
94044W        W60827  17.138  21.595  13.556
94045W        W60828  40.360  31.491   0.898
94046W        W60829  31.943   3.667  13.449
94047W        W60830  13.584  25.701   3.746
94048W        W60831  31.443  42.264   3.065
94049W        W60832  34.817  28.038   2.864
94050W        W60833   5.143  32.600  14.903
94051W        W60834  13.378  42.812  11.609
94052W        W60835   6.540  22.328  10.389
94053W        W60836  29.983  26.369   4.183
94054W        W60837  29.060  39.969   2.739
94055W        W60838   1.427  30.110   4.531
94056W        W60839  13.203  21.924   0.335
94057W        W60840  32.411  44.360  14.372
94058W        W60841  37.886  12.456  14.304
94059W        W60842   6.677   2.750   4.590
94060W        W60843  32.141  13.638  14.883
94061W        W60844  40.257  26.189   0.972
94062W        W60845   7.874  29.521   4.507
94063W        W60846  33.046  14.512   3.863
94064W        W60847  22.090  14.661  13.840
94065W        W60848  35.385   2.559   3.223
94066W        W60849  20.804  44.294   1.836
94067W        W60850  34.045  15.547  12.923
94068W        W60851  33.733  27.179  13.390
94069W        W60852  10.426  10.467   4.733
94070W        W60853  24.539  42.076  10.737
94071W        W60854  39.432  41.588  10.802
94072W        W60855  20.710   4.153  12.803
94073W        W60856   7.832  28.143  14.575
94074W        W60857   6.750  23.563  11.513
94075W        W60858   6.841  30.597   0.294
94076W        W60859  32.953   4.726  10.735
94077W        W60860  40.401   2.463  12.022
94078W        W60861  10.170  19.287   3.346
94079W        W60862  37.305  38.349   2.601
94080W        W60863  18.669  31.909  11.532
94081W        W60864  44.978   7.890   0.816
94082W        W60865  10.308  13.453   4.003
94083W        W60866  39.367  21.825   4.188
94084W        W60867  26.658  39.011   3.080
94085W        W60868  34.039  18.021   3.306
94086W        W60869  39.903   7.061   1.277
94087W        W60870  27.886  16.254  12.747
94088W        W60871  23.051  40.304   1.417
94089W        W60872  37.106  27.775   4.092
94090W        W60873  22.050  15.115  12.488
94091W        W60874  14.618  43.644   3.610
94092W        W60875   7.419  18.160  10.666
94093W        W60876  36.621   0.123  13.301
94094W        W60877  30.171  10.410  14.456
94095W        W60878  27.476  36.797   3.157
94096W        W60879   2.000  12.878   2.979
94097W        W60880   2.258  37.397  14.313
94098W        W60881  31.595  38.264   1.275
94099W        W60882  38.628   3.552   4.346
94100W        W60883  17.977  19.911   0.029
94101W        W60884  18.773   0.515  14.865
94102W        W60885   0.413  10.390   1.294
94103W        W60886  13.789   2.962  12.547
94104W        W60887   8.771  16.183   1.118
94105W        W60888  29.383  41.471   4.653
94106W        W60889  27.380   7.319   3.326
94107W        W60890  23.153  31.138   1.000
94108W        W60891  26.729  13.166   3.364
94109W        W60892  30.239  29.017   1.434
94110W        W60893  20.326  44.838   2.902
94111W        W60894  22.496  37.172  12.991
94112W        W60895   6.184  39.487   0.261
94113W        W60896  40.008  31.512  13.786
94114W        W60897   1.801  39.451   2.736
94115W        W60898  13.383  27.246   1.931
94116W        W60899   1.797  10.152   4.258
94117W        W60900  22.717  31.586  13.357
94118W        W60901   2.664  41.754  11.499
94119W        W60902  19.926  18.156   0.164
94120W        W60903  10.117  42.961   2.171
94121W        W60904  44.938  31.394   2.115
94122W        W60905  19.033   6.935  11.400
94123W        W60906   6.953  15.357   0.502
94124W        W60907  42.209  29.565   4.844
94125W        W60908  39.038  32.165   0.733
94126W        W60909  35.162  23.493  10.243
94127W        W60910  31.594  34.281   3.030
94128W        W60911  27.116   4.013   1.008
94129W        W60912  39.497  12.798  12.882
94130W        W60913  29.548   8.520  14.427
94131W        W60914  12.794  25.628   2.759
94132W        W60915  42.286  19.227   4.376
94133W        W60916  37.383  22.332  10.796
94134W        W60917  28.454  15.823  14.954
94135W        W60918  24.881  12.221   0.907
94136W        W60919  22.615  35.554  10.735
94137W        W60920  33.862  39.891   3.709
94138W        W60921  32.130   4.551  10.344
94139W        W60922   0.449  26.482  14.074
94140W        W60923  11.660  28.575  14.730
94141W        W60924  40.848  38.796   1.637
94142W        W60925  43.310   2.730  13.783
94143W        W60926   1.258  20.154   3.111
94144W        W60927   4.167  27.352  13.979
94145W        W60928  39.892   7.891  14.321
94146W        W60929   6.490   9.749  12.472
94147W        W60930  32.541   0.104   0.242
94148W        W60931   0.305  41.484   3.644
94149W        W60932  24.597  19.738   0.408
94150W        W60933  28.988   7.958   4.116
94151W        W60934  10.149  35.992   0.398
94152W        W60935  44.976  12.382   2.664
94153W        W60936   3.839  22.162  12.580
94154W        W60937  29.029  22.081  10.758
94155W        W60938  17.116  27.915  12.438
94156W        W60939   9.980  18.341   2.262
94157W        W60940  15.707  14.221   0.523
94158W        W60941  21.239  18.047   1.864
94159W        W60942  15.324  42.372  11.010
94160W        W60943  23.512  32.558   4.783
94161W        W60944  23.264  39.491  11.115
94162W        W60945  41.859  36.923  14.992
94163W        W60946  20.219  16.730   3.903
94164W        W60947  20.463  24.901   1.818
94165W        W60948   3.649   7.545   3.760
94166W        W60949   7.228   7.708   0.986
94167W        W60950  22.667  29.564  11.586
94168W        W60951  36.579  39.797   3.865
94169W        W60952  44.935  18.840   1.060
94170W        W60953   6.880   6.020  14.410
94171W        W60954  28.585  37.919   1.518
94172W        W60955  35.175  27.693  14.357
94173W        W60956  16.517   8.215   0.836
94174W        W60957   1.809   7.596   3.640
94175W        W60958  21.245  44.881   3.525
94176W        W60959  34.046  26.015  13.484
94177W        W60960  17.125  22.745   1.879
94178W        W60961  31.010   3.708  14.695
94179W        W60962   5.943  27.249   2.786
94180W        W60963  16.126  26.636  12.922
94181W        W60964  27.509  42.353   1.877
94182W        W60965   3.889  11.020   0.973
94183W        W60966  38.813   4.771  13.896
94184W        W60967  37.244   4.560   3.992
94185W        W60968  14.550  12.806   4.103
94186W        W60969  41.597  35.426  13.920
94187W        W60970  29.539  39.763   2.757
94188W        W60971   8.724  34.538  14.988
94189W        W60972  19.996  12.624   5.027
94190W        W60973  32.052  40.900  11.446
94191W        W60974  30.128  29.637   3.197
94192W        W60975  17.762  42.251   1.769
94193W        W60976  31.876  44.506   1.631
94194W        W60977  34.269   1.173   2.614
94195W        W60978  11.314  16.095  13.086
94196W        W60979  37.584  11.125  12.560
94197W        W60980   9.143  35.328   0.999
94198W        W60981  30.336  36.449  11.190
94199W        W60982  36.348   2.751   4.101
94200W        W60983  31.646  19.196  11.764
94201W        W60984  12.729  33.446   2.517
94202W        W60985  38.551  26.329   0.759
94203W        W60986  39.330   4.888  10.731
94204W        W60987  20.240  43.132  11.069
94205W        W60988  38.511  18.102   3.734
94206W        W60989  24.293  21.987   4.243
94207W        W60990  25.900  36.616   3.282
94208W        W60991  31.384  11.590   4.394
94209W        W60992  40.352  27.383   1.047
94210W        W60993   1.255  11.502  14.895
94211W        W60994   2.395  29.398  13.455
94212W        W60995   2.314  41.913   4.946
94213W        W60996  18.743   8.822   4.185
94214W        W60997  40.566  23.030  12.028
94215W        W60998  31.143  32.939  14.805
94216W        W60999   8.024  36.997  11.390
94217W        W61000   4.457  39.601   2.838
94218W        W61001  31.313  27.334  12.450
94219W        W61002  19.965  28.640  14.978
94220W        W61003  11.375  22.166  12.463
94221W        W61004   2.242  19.110  10.918
94222W        W61005  29.676  31.382   3.955
94223W        W61006   1.871  32.501  11.794
94224W        W61007   0.801  27.928  11.659
94225W        W61008   9.223  35.091   0.209
94226W        W61009  25.945  41.747  14.444
94227W        W61010  27.697  43.240  13.936
94228W        W61011  42.986   1.785   0.380
94229W        W61012  12.850  26.501   4.438
94230W        W61013   0.810   8.951   4.503
94231W        W61014  15.368  35.968   4.548
94232W        W61015  26.208  14.055   1.916
94233W        W61016   4.260  13.413  13.932
94234W        W61017   8.336  20.090  14.322
94235W        W61018   4.452   3.205   1.806
94236W        W61019   9.621  27.543  13.923
94237W        W61020  19.791  29.449   4.581
94238W        W61021  41.867  44.756  14.922
94239W        W61022  26.243  19.498  10.431
94240W        W61023   6.964  39.552  13.055
94241W        W61024   7.893   4.196   0.832
94242W        W61025  26.897  19.084  13.946
94243W        W61026  31.098  21.091  11.490
94244W        W61027  41.573  11.191   0.781
94245W        W61028  36.414  34.553   4.659
94246W        W61029  42.872  26.281   4.401
94247W        W61030  33.564  30.548  10.615
94248W        W61031  37.547   9.674   2.680
94249W        W61032  16.548  44.916  13.800
94250W        W61033  33.114  29.936   0.365
94251W        W61034  36.959  22.093   3.849
94252W        W61035  21.759  24.547  13.892
94253W        W61036  43.271   8.243  11.174
94254W        W61037  18.062   0.388  11.051
94255W        W61038  10.865  23.632  13.338
94256W        W61039  16.964  22.114   4.764
94257W        W61040   5.229  24.234   1.434
94258W        W61041  16.023  20.166   4.291
94259W        W61042  21.773   7.629  14.301
94260W        W61043   1.124   5.428   2.148
94261W        W61044  13.150  32.429  11.740
94262W        W61045  35.076  10.935  12.537
94263W        W61046  27.914  34.379  14.761
94264W        W61047  19.164  26.007  13.302
94265W        W61048  38.824  17.042  12.545
94266W        W61049  38.959   1.332   3.124
94267W        W61050   0.434   2.387   2.404
94268W        W61051  31.545  16.197   1.254
94269W        W61052   3.628  38.216   3.352
94270W        W61053  20.587  38.989  12.778
94271W        W61054  16.806   3.140  10.339
94272W        W61055  17.315  28.189  10.133
94273W        W61056  21.892  42.937   4.759
94274W        W61057  21.743   1.064   2.717
94275W        W61058  17.325   9.954   0.354
94276W        W61059  22.988  42.844  13.259
94277W        W61060   8.788   0.405   4.277
94278W        W61061  32.554   1.268   3.608
94279W        W61062  12.261  44.473   0.051
94280W        W61063  40.381  33.610   1.699
94281W        W61064  17.788  28.181   3.190
94282W        W61065   6.683  34.660  11.707
94283W        W61066  16.505  39.503  12.757
94284W        W61067  36.012  34.931   3.847
94285W        W61068  43.866  10.676   4.972
94286W        W61069  17.672  24.771   1.399
94287W        W61070  36.049  38.228   4.410
94288W        W61071   1.318  16.838   4.114
94289W        W61072  23.244  26.810   3.692
94290W        W61073  22.935  23.079   3.392
94291W        W61074  29.230   9.652   0.848
94292W        W61075  13.881  23.520   4.382
94293W        W61076  33.014  14.888  10.966
94294W        W61077  30.219  43.273   1.303
94295W        W61078  28.648  42.979   3.059
94296W        W61079   1.760  10.349   3.784
94297W        W61080   7.663  31.481  11.923
94298W        W61081  11.330  26.010   4.813
94299W        W61082  19.262  41.244   0.428
94300W        W61083  13.570  30.990  11.698
94301W        W61084  22.436   9.399   1.147
94302W        W61085  39.846  15.748  10.678
94303W        W61086  17.275  32.364   0.895
94304W        W61087  11.304  36.480   0.722
94305W        W61088  29.266   4.570   1.059
94306W        W61089  23.141  28.303   1.004
94307W        W61090   2.198  35.064  12.530
94308W        W61091   0.547   4.974   3.806
94309W        W61092   6.955  14.025  13.055
94310W        W61093  36.490  31.788  13.403
94311W        W61094  32.610  31.106  13.308
94312W        W61095   5.850  42.594   4.600
94313W        W61096  15.715  28.829  13.047
94314W        W61097  27.710  40.072   2.717
94315W        W61098  22.296  28.675  14.356
94316W        W61099  33.502  21.260   0.587
94317W        W61100  23.221   7.064   1.781
94318W        W61101  30.006  18.755  12.961
94319W        W61102  13.786  13.831   3.794
94320W        W61103  38.388  44.763   0.383
94321W        W61104  40.260  16.650   0.279
94322W        W61105   4.574  17.692  12.429
94323W        W61106  38.287  11.671   0.928
94324W        W61107  16.206   4.004  12.070
94325W        W61108   4.851  30.711   1.352
94326W        W61109  32.161  43.829   1.402
94327W        W61110  21.597  11.385  10.510
94328W        W61111   4.328   6.495  11.745
94329W        W61112  28.815   7.374  11.926
94330W        W61113  33.541  19.505   3.708
94331W        W61114  23.631  14.215   2.282
94332W        W61115  11.210  44.836  14.952
94333W        W61116  28.066  27.061  13.637
94334W        W61117  29.018  12.583   2.278
94335W        W61118  28.245  17.396   4.133
94336W        W61119   9.240  29.299  13.097
94337W        W61120  30.995  18.184  13.433
94338W        W61121  19.105  12.295  10.292
94339W        W61122   7.535   5.802  12.039
94340W        W61123  22.231   6.051   4.586
94341W        W61124  16.252  18.746   0.454
94342W        W61125  33.174  37.931  11.426
94343W        W61126  13.804   7.638  14.893
94344W        W61127  32.944   7.786   2.633
94345W        W61128  16.302  10.284  12.985
94346W        W61129  27.467  26.826  11.879
94347W        W61130   2.713   2.927  14.747
94348W        W61131  21.314  41.186   3.679
94349W        W61132   9.811  18.654  14.477
94350W        W61133  28.411   5.213   0.378
94351W        W61134  43.360  16.764  10.346
94352W        W61135  14.388  24.719  12.509
94353W        W61136  28.469  10.817  12.341
94354W        W61137  43.023  40.400  10.766
94355W        W61138  32.367  22.131  13.971
94356W        W61139  35.541  29.961   2.607
94357W        W61140  26.020  35.381   0.479
94358W        W61141  10.406  16.130  10.986
94359W        W61142  12.822  17.806  13.476
94360W        W61143  34.589  33.442   1.768
94361W        W61144  12.654  14.778  11.858
94362W        W61145   6.785  19.706  14.357
94363W        W61146  15.567  15.739  12.006
94364W        W61147  34.675  14.843   3.151
94365W        W61148  38.593  25.288   0.776
94366W        W61149  38.723  36.883  14.946
94367W        W61150  36.569   8.315  14.391
94368W        W61151  32.818   1.436  11.202
94369W        W61152   6.096  36.412  11.000
94370W        W61153  39.291  34.569  12.912
94371W        W61154  37.922  33.160   4.641
94372W        W61155  13.084   9.150  12.937
94373W        W61156  14.661  31.978   2.130
94374W        W61157  16.796  18.766  12.987
94375W        W61158  23.770  11.484   3.698
94376W        W61159   5.497  23.459   2.683
94377W        W61160   9.603  34.324  13.945
94378W        W61161  28.636  19.406   1.924
94379W        W61162   8.682  34.610  12.457
94380W        W61163  40.354  41.954   2.625
94381W        W61164   7.420  28.509   2.366
94382W        W61165   4.450  20.732   1.687
94383W        W61166  10.556  26.681   4.147
94384W        W61167  28.246  37.387   2.349
94385W        W61168   2.444  23.607  13.925
94386W        W61169  18.605  39.741  13.658
94387W        W61170  16.558  18.227   0.832
94388W        W61171  36.485  27.672   0.398
94389W        W61172  21.147  11.138  10.752
94390W        W61173  10.148  17.172  14.028
94391W        W61174  41.448   2.707   1.896
94392W        W61175  21.645  21.971   2.908
94393W        W61176  16.577  44.975   2.617
94394W        W61177  16.602  24.638   4.636
94395W        W61178  32.838  37.947  13.547
94396W        W61179  38.077  25.725  11.888
94397W        W61180  29.892  41.006  14.939
94398W        W61181  42.735  26.970  11.448
94399W        W61182  40.708  27.910   2.233
94400W        W61183   2.455  22.481   1.420
94401W        W61184  19.754   6.636  12.517
94402W        W61185  42.810  24.824  10.615
94403W        W61186  35.371   4.478   1.230
94404W        W61187  33.396  22.215   2.173
94405W        W61188   1.772   1.519  12.190
94406W        W61189  26.364  31.539   2.993
94407W        W61190  42.786  37.873   2.899
94408W        W61191  37.771  19.756   1.699
94409W        W61192  16.056  29.760   4.814
94410W        W61193  36.068  41.091  10.774
94411W        W61194  32.406  32.132   1.424
94412W        W61195  27.930  21.563   3.143
94413W        W61196  28.430   0.462   2.201
94414W        W61197   8.459  18.750  14.052
94415W        W61198  12.268   6.298  14.364
94416W        W61199  38.320   6.842  10.986
94417W        W61200  34.142  13.602   0.255
94418W        W61201  29.025  35.607   1.619
94419W        W61202  42.574   6.543  10.764
94420W        W61203  40.748  38.597  11.554
94421W        W61204  37.827  26.490   0.148
94422W        W61205   8.363  21.840  11.604
94423W        W61206  16.119  10.109  12.493
94424W        W61207  11.218  19.538   1.441
94425W        W61208  36.197  18.289  13.795
94426W        W61209  33.847  35.404   4.555
94427W        W61210  16.879  23.164  11.452
94428W        W61211  41.286  38.540  11.626
94429W        W61212  13.026  22.529   4.187
94430W        W61213  21.177  37.308  12.438
94431W        W61214  18.231  37.516   0.745
94432W        W61215  36.904  16.139  12.370
94433W        W61216  22.636  12.692   4.236
94434W        W61217   7.113   7.336   1.635
94435W        W61218  44.323  31.763  10.994
94436W        W61219  28.425   8.316   2.827
94437W        W61220  18.524  29.441   2.748
94438W        W61221  36.482  44.413  12.541
94439W        W61222  44.692   3.071   4.816
94440W        W61223  31.555  38.751  13.273
94441W        W61224  21.751  43.812  10.894
94442W        W61225   2.512   2.856   0.734
94443W        W61226  34.118  37.616   2.998
94444W        W61227  21.549   8.772  10.763
94445W        W61228   8.354   5.467   0.844
94446W        W61229   9.373   6.756   4.506
94447W        W61230  44.478  38.618  14.251
94448W        W61231  15.692  29.803   1.214
94449W        W61232  38.366  27.737  14.051
94450W        W61233  40.397  12.048  11.685
94451W        W61234   6.512  15.139  14.027
94452W        W61235  11.391  15.091  11.026
94453W        W61236  27.657  44.555  12.581
94454W        W61237   7.565  10.430   0.277
94455W        W61238  34.970  32.585  11.999
94456W        W61239   3.901  37.433   1.267
94457W        W61240  26.020  15.998  13.995
94458W        W61241   3.809  11.377   2.781
94459W        W61242  33.032  11.238  10.738
94460W        W61243  13.790  29.560   2.847
94461W        W61244   3.857   1.977   2.147
94462W        W61245  27.730  20.454  13.009
94463W        W61246  42.765  22.782   4.614
94464W        W61247  17.148  33.029   0.019
94465W        W61248   5.381   8.920   1.385
94466W        W61249   1.436  14.054  13.441
94467W        W61250  38.939  15.962   0.218
94468W        W61251  18.223  21.417   1.443
94469W        W61252  10.738  38.695   0.119
94470W        W61253  15.272  34.020  10.711
94471W        W61254  25.102  10.948   2.329
94472W        W61255  42.535  10.163   1.740
94473W        W61256   1.361  33.065  13.311
94474W        W61257  18.834  30.124  14.068
94475W        W61258  35.229   3.195  13.839
94476W        W61259  33.370  42.482  11.525
94477W        W61260   8.711  14.376   3.661
94478W        W61261  32.465  34.520   4.671
94479W        W61262  34.869   9.799   1.209
94480W        W61263   7.527  34.609  13.849
94481W        W61264  21.706  33.108   2.279
94482W        W61265  44.847  10.214   0.320
94483W        W61266  40.276  41.417  12.405
94484W        W61267  15.668  33.666   0.378
94485W        W61268   5.311  23.183  14.340
94486W        W61269   4.747  19.199  10.766
94487W        W61270   5.892  37.854  11.063
94488W        W61271   2.392   0.548   0.846
94489W        W61272  12.916  11.114   2.763
94490W        W61273  17.071  24.072  10.978
94491W        W61274  17.110  27.156   1.232
94492W        W61275  36.812  22.062   3.272
94493W        W61276  33.167  27.146  11.628
94494W        W61277  25.147  23.637  13.953
94495W        W61278   8.609  17.191  13.068
94496W        W61279  24.727   9.723  13.120
94497W        W61280   2.404  30.217   2.321
94498W        W61281  34.208   5.431  10.118
94499W        W61282  22.346  44.795  13.521
94500W        W61283  29.376   8.189  11.968
94501W        W61284  40.980   9.952   3.056
94502W        W61285  20.294  24.598  14.833
94503W        W61286   3.876  40.099  12.064
94504W        W61287  44.221  12.526  12.830
94505W        W61288  43.367  20.300  13.912
94506W        W61289  36.848  27.390  12.054
94507W        W61290  27.935  17.300   2.679
94508W        W61291  15.253  23.611   4.603
94509W        W61292   3.681  26.705  12.574
94510W        W61293  35.679   1.107   1.408
94511W        W61294   0.953  21.864   1.409
94512W        W61295  39.930  13.623  10.911
94513W        W61296  10.842  30.513  14.661
94514W        W61297  24.675   7.247  13.789
94515W        W61298  18.188  20.215  14.216
94516W        W61299  32.053   1.868   0.048
94517W        W61300  34.190  44.562   3.347
94518W        W61301  16.470   2.436   2.760
94519W        W61302  40.558   5.742  11.587
94520W        W61303  33.496  17.263  11.914
94521W        W61304  20.347  29.081   0.612
94522W        W61305   5.812  28.632  12.466
94523W        W61306   0.464  35.006   3.454
94524W        W61307   5.392  29.722  14.994
94525W        W61308  30.136  10.668   2.612
94526W        W61309  16.358  35.524   1.362
94527W        W61310  22.256   0.300  13.313
94528W        W61311   1.527  30.970  11.147
94529W        W61312  22.823   7.462  10.399
94530W        W61313  40.204   2.172  11.620
94531W        W61314  25.940  38.371  10.583
94532W        W61315  43.221   6.940   4.503
94533W        W61316  25.422  37.548   0.797
94534W        W61317  34.973  44.402   3.856
94535W        W61318   0.620  15.098   2.183
94536W        W61319  37.626  33.611  12.145
94537W        W61320  33.349  12.887  13.254
94538W        W61321  27.626  40.300   2.265
94539W        W61322  32.937   6.390   3.570
94540W        W61323   5.674   8.870   2.223
94541W        W61324  35.841  21.126  13.496
94542W        W61325  19.547  20.318  14.870
94543W        W61326  40.885  42.576  14.051
94544W        W61327  28.507  39.574   1.226
94545W        W61328  28.406  36.139   2.644
94546W        W61329  42.391  37.383   3.134
94547W        W61330  12.322  25.161  11.093
94548W        W61331  37.961  24.025   0.651
94549W        W61332  16.933  32.610  14.458
94550W        W61333   8.897  44.270  13.360
94551W        W61334  37.906   0.468  13.003
94552W        W61335  30.155  17.191  13.568
94553W        W61336  31.347  12.102  12.899
94554W        W61337  41.449  14.602  14.339
94555W        W61338   2.685  15.298  14.583
94556W        W61339  34.445  36.625  12.917
94557W        W61340   6.538  34.985   0.287
94558W        W61341   1.233  33.550   4.268
94559W        W61342  44.404  13.435   2.236
94560W        W61343  23.976  44.267   3.095
94561W        W61344  26.653   4.878   1.874
94562W        W61345  26.666  40.160   0.905
94563W        W61346   7.001   4.315  13.030
94564W        W61347  32.201  34.421  14.325
94565W        W61348  39.214  21.949  13.021
94566W        W61349  22.513  28.023   4.629
94567W        W61350   1.937  21.744   2.885
94568W        W61351  18.246  14.578  13.987
94569W        W61352  31.162  44.761  13.872
94570W        W61353  16.132   4.712   1.099
94571W        W61354  42.745  41.174  13.396
94572W        W61355  31.734  22.837   1.903
94573W        W61356   7.605  13.551  12.442
94574W        W61357  13.385  33.561   1.355
94575W        W61358   2.854  23.554   3.698
94576W        W61359  37.502   0.714   1.562
94577W        W61360  44.500  39.159  14.172
94578W        W61361  26.969  11.679  11.279
94579W        W61362   0.257  12.093  13.014
94580W        W61363  17.224  40.635  11.548
94581W        W61364   8.273  25.572  13.414
94582W        W61365   8.897  32.735  14.336
94583W        W61366  28.115   7.932   3.709
94584W        W61367  36.307  29.437   3.728
94585W        W61368  35.219  26.956   1.964
94586W        W61369  42.768  42.840   3.634
94587W        W61370   2.352  33.950   4.085
94588W        W61371   1.807  17.919   0.244
94589W        W61372  32.486  27.310  14.752
94590W        W61373  37.010   0.699   1.808
94591W        W61374  43.783  10.205  11.102
94592W        W61375  20.494  32.982   1.743
94593W        W61376  18.324  37.185   4.250
94594W        W61377  32.188  14.835   1.232
94595W        W61378   1.118  20.498   4.593
94596W        W61379  13.243  42.704   1.702
94597W        W61380  41.791   5.956   0.262
94598W        W61381  30.176  20.798  10.715
94599W        W61382  34.549  30.614   3.450
94600W        W61383   4.013  34.638  12.551
94601W        W61384  14.645   1.904   3.555
94602W        W61385  38.819  31.077   4.620
94603W        W61386  12.090   4.873   3.825
94604W        W61387  30.009  13.601   1.246
94605W        W61388  12.274  16.149  12.785
94606W        W61389   1.126  16.136   9.874
94607W        W61390  35.126  29.668   0.220
94608W        W61391  12.888  41.705   2.793
94609W        W61392   6.210  32.163   4.036
94610W        W61393  38.765  18.770   1.679
94611W        W61394  25.525  29.390   5.049
94612W        W61395  24.412  39.708   5.346
94613W        W61396  25.528  28.017  13.940
94614W        W61397  13.637  38.672  14.442
94615W        W61398  19.834  30.363   0.038
94616W        W61399  19.119  37.403   4.574
94617W        W61400   6.880   0.841  13.531
94618W        W61401  22.583  38.972  14.283
94619W        W61402  16.171  37.940   4.667
94620W        W61403  17.787  15.755  14.318
94621W        W61404  10.593  19.113  12.472
94622W        W61405  16.196  21.608  13.055
94623W        W61406  18.747  13.296  12.565
94624W        W61407  29.979  15.277  13.628
94625W        W61408  38.255  32.970  11.999
94626W        W61409  44.897  25.508   0.897
94627W        W61410  18.868  13.576   0.319
94628W        W61411  26.296  13.542   1.955
94629W        W61412  19.327  13.335   4.141
94630W        W61413  38.667   9.865  10.647
94631W        W61414  26.858  20.084   1.743
94632W        W61415  23.988  12.600  14.500
94633W        W61416  30.674   6.238  13.749
94634W        W61417   8.304   6.617  14.076
94635W        W61418   6.718  29.515  14.896
94636W        W61419  26.180  29.603  12.017
94637W        W61420  41.923  22.634  13.694
94638W        W61421   6.038   8.370  10.791
94639W        W61422  28.075  25.581   2.140
94640W        W61423  15.282  16.613  14.856
94641W        W61424  38.112  18.108  14.395
94642W        W61425  37.935  30.047   3.123
94643W        W61426  37.160   7.687  10.177
94644W        W61427   4.227  24.079   3.107
94645W        W61428  41.633  39.090  13.416
94646W        W61429  23.816  33.534   0.722
94647W        W61430  44.683  15.752   1.110
94648W        W61431  21.350  31.722   3.169
94649W        W61432  37.011   1.739   0.632
94650W        W61433  22.632  37.014   2.005
94651W        W61434  26.858   9.194  13.909
94652W        W61435  18.219  37.028  13.349
94653W        W61436  16.467  42.294  13.922
94654W        W61437  10.693  44.109   1.475
94655W        W61438  28.468   3.347   3.743
94656W        W61439  11.824  31.441  12.396
94657W        W61440  28.193  38.830   2.308
94658W        W61441   4.385  12.616   1.186
94659W        W61442   8.826  13.681   4.203
94660W        W61443  37.749  11.640   2.814
94661W        W61444  26.633  13.592  10.497
94662W        W61445  35.732  33.707   2.968
94663W        W61446  11.757  17.399   1.892
94664W        W61447  29.436  38.994   0.327
94665W        W61448   6.267  16.111  13.970
94666W        W61449  18.149  39.381   2.779
94667W        W61450  18.238  19.921  11.950
94668W        W61451   3.755  21.739  11.489
94669W        W61452  12.307  38.503  13.090
94670W        W61453  21.258  17.167   2.677
94671W        W61454   0.835  25.049  13.982
94672W        W61455  13.859  12.277   1.765
94673W        W61456  14.328  13.564   2.147
94674W        W61457  24.274  26.134   0.362
94675W        W61458  12.465   3.638  14.708
94676W        W61459  25.637  13.242   3.240
94677W        W61460  15.812  13.245  14.814
94678W        W61461  30.943  38.502   2.317
94679W        W61462   7.985  14.174  13.434
94680W        W61463  44.597  36.462   0.901
94681W        W61464  12.771  22.189  13.883
94682W        W61465  27.211  29.584   2.302
94683W        W61466  15.648   3.470  14.920
94684W        W61467  20.702  26.232  14.257
94685W        W61468  39.793  43.519   0.815
94686W        W61469  13.933  21.677   1.154
94687W        W61470  25.568  29.909   4.357
94688W        W61471  24.933  26.976   3.104
94689W        W61472  39.281  18.800  11.510
94690W        W61473  21.165  37.179   2.629
94691W        W61474  24.366   9.904  14.115
94692W        W61475  18.521  23.088   3.748
94693W        W61476  36.075  22.495  12.638
94694W        W61477  32.327  12.334   2.419
94695W        W61478  38.974  11.710  11.512
94696W        W61479  21.850  28.939  12.496
94697W        W61480  34.858  18.727   0.760
94698W        W61481  40.816   4.667  12.359
94699W        W61482  38.836  22.651   0.492
94700W        W61483  42.040  21.999   0.880
94701W        W61484  21.949  33.139   1.773
94702W        W61485  15.484   3.957  13.826
94703W        W61486  22.696  18.328   1.788
94704W        W61487  21.940  10.796   1.648
94705W        W61488  18.361  42.752   1.275
94706W        W61489   8.872   1.195   2.209
94707W        W61490   0.134  28.788  13.534
94708W        W61491  44.037  23.833  14.257
94709W        W61492  24.238   9.628  11.144
94710W        W61493   1.092  25.033   4.418
94711W        W61494  11.094  40.381  13.430
94712W        W61495  35.103  12.290   4.056
94713W        W61496  39.801  42.359   3.101
94714W        W61497  28.650  16.567  12.506
94715W        W61498   6.147  35.184  13.997
94716W        W61499  40.182  13.140  10.234
94717W        W61500   5.340   5.628   2.100
94718W        W61501   9.776  33.288   3.246
94719W        W61502  28.726  36.360   4.458
94720W        W61503   3.406  26.196   4.438
94721W        W61504  38.050   9.327   3.444
94722W        W61505   1.113  32.909   2.333
94723W        W61506  15.886  20.251  14.772
94724W        W61507  12.871  36.856   3.476
94725W        W61508  44.365  27.861   4.372
94726W        W61509  26.719  23.174   0.780
94727W        W61510  33.141  32.569  11.584
94728W        W61511   1.975  34.906   0.033
94729W        W61512  25.358  16.774   1.516
94730W        W61513  28.110  25.309   4.258
94731W        W61514  21.720   6.282  14.268
94732W        W61515  18.225  16.642   0.309
94733W        W61516  30.601  19.410   4.556
94734W        W61517  24.646  25.416  12.291
94735W        W61518  43.958  32.102  13.888
94736W        W61519  13.584   4.941  11.540
94737W        W61520  33.099  32.599   2.870
94738W        W61521  28.593  12.169  10.505
94739W        W61522   6.979  39.093   1.289
94740W        W61523  34.916  32.937   1.314
94741W        W61524  37.034   8.669  14.459
94742W        W61525  14.040  35.347   3.869
94743W        W61526  36.604  37.561  13.362
94744W        W61527   2.822  13.551   4.990
94745W        W61528  44.381  23.170   0.209
94746W        W61529  41.004  27.676   3.577
94747W        W61530  39.076  30.010  10.582
94748W        W61531  41.732  18.850   3.691
94749W        W61532  26.522  15.668  12.943
94750W        W61533   1.350  44.665  12.469
94751W        W61534  41.537  12.082  12.309
94752W        W61535  27.145  33.371   0.451
94753W        W61536  25.055  17.570   4.100
94754W        W61537  44.342   3.488  12.050
94755W        W61538  18.446  13.654   9.761
94756W        W61539  27.458   2.399   0.254
94757W        W61540  30.328  24.472  14.994
94758W        W61541  41.585  21.243   0.945
94759W        W61542  13.817   1.864   0.816
94760W        W61543  21.551   5.209  13.184
94761W        W61544  44.713  24.177   2.287
94762W        W61545  28.732  26.276  11.668
94763W        W61546  10.320  27.119  13.442
94764W        W61547  27.271   8.465   4.337
94765W        W61548  22.003   2.996  13.350
94766W        W61549   5.528   8.892   4.509
94767W        W61550   3.480   6.920  11.631
94768W        W61551  21.554  33.685   2.342
94769W        W61552   3.428  41.065  12.891
94770W        W61553   0.054  16.044   0.242
94771W        W61554  23.081  32.060  10.700
94772W        W61555  20.843   7.846  11.548
94773W        W61556   2.872  24.244   4.105
94774W        W61557  39.795  36.587  14.085
94775W        W61558  40.864  37.815   3.708
94776W        W61559  26.888  26.992  11.921
94777W        W61560  27.260  14.810   3.566
94778W        W61561   6.647  34.131   0.111
94779W        W61562  36.341  31.865  12.555
94780W        W61563  25.035  24.177   2.189
94781W        W61564  43.733   3.885  13.518
94782W        W61565   2.357   2.675   3.850
94783W        W61566  11.097  36.597   4.465
94784W        W61567  42.027  37.561  14.468
94785W        W61568  38.792  18.815   2.203
94786W        W61569  43.418  37.033  14.398
94787W        W61570  11.150  38.091   0.344
94788W        W61571   5.659  11.605  14.442
94789W        W61572  19.384  29.512   1.765
94790W        W61573  24.773  33.494  11.793
94791W        W61574  33.554  21.130   2.242
94792W        W61575  33.955  21.442   2.215
94793W        W61576  43.264  28.065   3.184
94794W        W61577  11.245   0.687  12.142
94795W        W61578   1.511  27.796   4.053
94796W        W61579  41.618  29.614   3.230
94797W        W61580  14.995   4.868  13.935
94798W        W61581  32.949  17.073  12.000
94799W        W61582  33.145  18.745  11.962
94800W        W61583  44.477  15.263   4.503
94801W        W61584   2.529  29.815   0.027
94802W        W61585  25.505   5.720  13.488
94803W        W61586  42.859  30.908   2.930
94804W        W61587  39.415   7.053   1.697
94805W        W61588   4.786   7.249  12.220
94806W        W61589  13.299  28.957  14.945
94807W        W61590  37.012   0.041  14.866
94808W        W61591   5.243  43.506  10.878
94809W        W61592  10.508  22.528   2.133
94810W        W61593  28.014   3.489  13.489
94811W        W61594  41.039  24.225  12.440
94812W        W61595   3.727   8.486   3.958
94813W        W61596  41.163   8.148  13.996
94814W        W61597   0.801  31.488  12.669
94815W        W61598   8.310  21.291  11.522
94816W        W61599  12.009  42.901  12.621
94817W        W61600  42.059  12.457  11.574
94818W        W61601  12.129   9.455  12.493
94819W        W61602   6.139  23.741   4.314
94820W        W61603  18.071  30.705   3.711
94821W        W61604   6.479   4.549  14.335
94822W        W61605  36.286  31.987   5.010
94823W        W61606   4.194   7.394   1.150
94824W        W61607   8.222  12.206   3.417
94825W        W61608  19.051   4.573  13.405
94826W        W61609  16.366  11.137   0.905
94827W        W61610   5.990   3.710   1.098
94828W        W61611  17.956   3.427  11.137
94829W        W61612  17.278  13.212   2.384
94830W        W61613  14.281  41.566   0.297
94831W        W61614  39.007  19.216   1.794
94832W        W61615   6.111  12.836   4.166
94833W        W61616  28.723  32.923  10.818
94834W        W61617  26.072   1.434   3.664
94835W        W61618  23.928  38.404  10.735
94836W        W61619  30.839  12.138   0.265
94837W        W61620   3.816   3.722  12.499
94838W        W61621  19.681  42.282   1.447
94839W        W61622  29.231  38.060   2.202
94840W        W61623  15.165   2.789  13.073
94841W        W61624  18.091   7.646  13.913
94842W        W61625  21.982  17.756   0.261
94843W        W61626  32.616  40.441  12.037
94844W        W61627  42.305  41.611  11.201
94845W        W61628  28.493  16.070   4.885
94846W        W61629  17.710  13.175  10.581
94847W        W61630   7.964  11.616   2.367
94848W        W61631  17.194  15.315  14.272
94849W        W61632  44.055  24.043  13.276
94850W        W61633  15.113  14.790   0.821
94851W        W61634   5.804  41.351   5.315
94852W        W61635  42.957   3.270   2.340
94853W        W61636   2.490  39.910  11.657
94854W        W61637  31.128  13.512  14.981
94855W        W61638  13.679   5.649  12.181
94856W        W61639  39.475  41.268  12.990
94857W        W61640  29.239  18.226   0.659
94858W        W61641   4.665  28.684   3.692
94859W        W61642   0.321   2.200   4.226
94860W        W61643  43.677  11.656   4.259
94861W        W61644  35.071  28.002   3.318
94862W        W61645  27.458   5.913   4.370
94863W        W61646  35.019  37.494  10.298
94864W        W61647   1.243   0.080   1.384
94865W        W61648  11.866  29.972  10.725
94866W        W61649  26.653  37.580  11.302
94867W        W61650   3.232  14.664   4.900
94868W        W61651   9.797   0.281  14.245
94869W        W61652  20.793  24.318   0.747
94870W        W61653  19.810  37.095   3.971
94871W        W61654  21.207  28.571  10.990
94872W        W61655  26.722   4.604  10.055
94873W        W61656  15.429   6.581  12.974
94874W        W61657  44.361  24.460  11.080
94875W        W61658  26.463  18.596  11.590
94876W        W61659  43.323  43.104  11.288
94877W        W61660  11.242  20.712   3.932
94878W        W61661  15.390   4.248   0.514
94879W        W61662  16.330  15.875  11.543
94880W        W61663  25.089  11.849  13.940
94881W        W61664  30.056  37.090   2.730
94882W        W61665  26.317  44.755   2.688
94883W        W61666  32.241   2.625   3.879
94884W        W61667  23.661   1.622   5.021
94885W        W61668   9.007   6.839   2.626
94886W        W61669  23.419  35.614   4.394
94887W        W61670  13.575  15.156   1.628
94888W        W61671   6.763  31.809   3.210
94889W        W61672  41.799  23.069  14.018
94890W        W61673   0.730  27.510   4.287
94891W        W61674  14.237  37.423   0.403
94892W        W61675   0.466  43.270   4.268
94893W        W61676  29.885  23.425  14.252
94894W        W61677  26.572  34.909  11.835
94895W        W61678   9.254  15.008  12.637
94896W        W61679   7.321  41.832  14.622
94897W        W61680  43.333   1.391   4.424
94898W        W61681  24.453  10.862   1.724
94899W        W61682  29.761  41.614   4.971
94900W        W61683  31.858  35.566   1.225
94901W        W61684  33.843   7.533  12.743
94902W        W61685  21.163  23.870  13.935
94903W        W61686   3.799  11.861   4.608
94904W        W61687  18.565  35.651  13.949
94905W        W61688  31.226   8.433   9.808
94906W        W61689  44.402  24.298   1.467
94907W        W61690   0.806  42.389  11.483
94908W        W61691  39.310  14.794  12.907
94909W        W61692  35.959  19.786  14.012
94910W        W61693  40.591  26.598   2.231
94911W        W61694  22.685  42.990   0.997
94912W        W61695  37.387   2.082  10.287
94913W        W61696   5.834   6.172   2.076
94914W        W61697  33.917   5.701   5.399
94915W        W61698  32.888  26.040   4.519
94916W        W61699  33.823  22.501  11.152
94917W        W61700  23.524   7.249  14.256
94918W        W61701  39.000   6.200   4.153
94919W        W61702   2.922  22.131   1.959
94920W        W61703  29.434  22.513   4.590
94921W        W61704   4.165   8.363   3.188
94922W        W61705  15.548   1.896  10.447
94923W        W61706  24.661  29.426  10.559
94924W        W61707   3.302   5.230   3.681
94925W        W61708   9.394   9.765   2.027
94926W        W61709  25.437  36.483  12.869
94927W        W61710   6.643  42.792   4.208
94928W        W61711  38.652  19.032   3.312
94929W        W61712  42.835  28.821  13.824
94930W        W61713  43.262  28.907  13.541
94931W        W61714  26.533  43.094   1.754
94932W        W61715  21.988  30.708  12.472
94933W        W61716   0.921   7.929   0.980
94934W        W61717  16.989  10.974  12.585
94935W        W61718  37.035  27.578  13.855
94936W        W61719  39.163   6.372   4.593
94937W        W61720  44.428  25.999   2.717
94938W        W61721   2.874  33.433   0.986
94939W        W61722  19.143   2.725   3.379
94940W        W61723  29.753  24.909  10.955
94941W        W61724   3.373  27.887  11.675
94942W        W61725  22.505  17.113   1.377
94943W        W61726   4.385  33.662  11.452
94944W        W61727  30.435  32.440   1.450
94945W        W61728   9.666   4.423   3.890
94946W        W61729  13.072  19.094   0.377
94947W        W61730   9.434  40.402  13.337
94948W        W61731  42.889  38.415   0.587
94949W        W61732  36.459  39.072   3.901
94950W        W61733   4.217  41.793   2.825
94951W        W61734  39.296  11.307  11.618
94952W        W61735   6.196  32.489   3.643
94953W        W61736   1.827  39.391  13.182
94954W        W61737   5.325  44.839  14.725
94955W        W61738  12.154   1.828  12.541
94956W        W61739  33.407  40.988   0.770
94957W        W61740  26.960  15.862  10.435
94958W        W61741  19.359  17.796  14.436
94959W        W61742  17.276  26.234  12.319
94960W        W61743  14.775   9.612  12.336
94961W        W61744  42.037   1.299   3.183
94962W        W61745  11.318   3.433   2.232
94963W        W61746  41.961  12.618  12.076
94964W        W61747  36.806   0.847  11.278
94965W        W61748  33.793  13.871   3.628
94966W        W61749  13.278  16.300  13.360
94967W        W61750   9.633  43.443   1.786
94968W        W61751  39.854   2.450  11.309
94969W        W61752  26.553  33.831  11.045
94970W        W61753  40.868  21.728   3.199
94971W        W61754  23.664  29.169   0.835
94972W        W61755  11.183  19.069   0.489
94973W        W61756  33.285   3.730  11.030
94974W        W61757   3.032  20.883  12.536
94975W        W61758  38.162  18.761  13.661
94976W        W61759  24.720  25.656   2.696
94977W        W61760  27.444   7.452  11.645
94978W        W61761   9.761  28.359  11.511
94979W        W61762  18.659  14.231   4.136
94980W        W61763  41.538  17.086  12.086
94981W        W61764  33.327  16.823  11.733
94982W        W61765  20.875  21.130  14.306
94983W        W61766  44.495  14.331  14.225
94984W        W61767  17.592  19.998  11.251
94985W        W61768  26.984  28.564   1.966
94986W        W61769  43.576  41.388  13.321
94987W        W61770  38.066  11.195  13.883
94988W        W61771  23.209  42.439  14.869
94989W        W61772  22.018   4.183  12.533
94990W        W61773  12.335   7.153   9.863
94991W        W61774   2.456  21.490  10.225
94992W        W61775  15.561  16.130  14.805
94993W        W61776  17.663  40.244  14.765
94994W        W61777   6.419   0.894   3.231
94995W        W61778  32.963  40.032   1.247
94996W        W61779   0.588  44.938  11.704
94997W        W61780   4.789   8.755   0.553
94998W        W61781  14.643   3.421   5.118
94999W        W61782  23.119  20.705   3.783
95000W        W61783   2.533  35.695  13.932
95001W        W61784   0.805  32.375   4.152
95002W        W61785  28.237  41.851   2.632
95003W        W61786   8.148  10.689   3.694
95004W        W61787  30.566  37.773   2.143
95005W        W61788  43.964  22.205  13.221
95006W        W61789   2.699  31.061   1.320
95007W        W61790  30.522  38.273   2.153
95008W        W61791   9.695   2.069  14.629
95009W        W61792  42.959  16.926   4.160
95010W        W61793  21.502   1.779   2.797
95011W        W61794   9.301  25.125  13.356
95012W        W61795  13.644  22.443   2.826
95013W        W61796  21.102  41.036   4.572
95014W        W61797  36.107  39.028   0.225
95015W        W61798  32.880  14.622  13.845
95016W        W61799  17.065  24.955  14.359
95017W        W61800   1.297  44.041  13.731
95018W        W61801  35.493  30.002  14.396
95019W        W61802  39.063  29.695   0.440
95020W        W61803   3.439   6.820   4.044
95021W        W61804  44.912  20.672   3.285
95022W        W61805   6.966   2.613  12.128
95023W        W61806   0.382  14.602  12.919
95024W        W61807   3.103  31.157   0.527
95025W        W61808   0.562   1.234   3.731
95026W        W61809  29.966  12.934  12.524
95027W        W61810  34.937  37.816   4.213
95028W        W61811  35.857  11.886   4.586
95029W        W61812  20.108   8.547  11.582
95030W        W61813   6.955   9.181   0.351
95031W        W61814  37.693  33.553   0.436
95032W        W61815   7.807   4.403  13.802
95033W        W61816  12.599  23.033  12.804
95034W        W61817  42.321  16.937   1.860
95035W        W61818  10.729  22.556   4.526
95036W        W61819  43.572  40.433   1.677
95037W        W61820  25.851  35.034   4.089
95038W        W61821  30.478  19.089  14.745
95039W        W61822  21.364   9.227   1.738
95040W        W61823  34.135  37.106   2.754
95041W        W61824  42.851  23.284   4.731
95042W        W61825   7.123  10.681   0.288
95043W        W61826  23.225  33.680  13.038
95044W        W61827  29.265  28.574  14.801
95045W        W61828  33.348  13.193   2.339
95046W        W61829  32.415  16.503   2.788
95047W        W61830  29.767  10.232   4.762
95048W        W61831  10.390  26.374  12.471
95049W        W61832  19.579  29.640  14.218
95050W        W61833  32.379   9.231   0.838
95051W        W61834   6.471   0.215  10.041
95052W        W61835  23.455   5.101   4.056
95053W        W61836   6.154   2.846   4.538
95054W        W61837   9.739   1.001  11.523
95055W        W61838  30.432  40.123   1.828
95056W        W61839  13.364  36.232   1.397
95057W        W61840  24.387  23.082   3.142
95058W        W61841  37.834  10.705   3.088
95059W        W61842  26.564  33.112  12.992
95060W        W61843  35.119  43.535   0.006
95061W        W61844  30.500  20.723   4.980
95062W        W61845  28.472  12.812  12.723
95063W        W61846  18.092  18.743   1.177
95064W        W61847  36.872  40.056   3.158
95065W        W61848   4.607  29.190   4.548
95066W        W61849   2.608  44.410  14.901
95067W        W61850   2.645   9.259  13.246
95068W        W61851  17.610  27.140   0.767
95069W        W61852   0.940  21.248   3.428
95070W        W61853  26.762  29.374  10.284
95071W        W61854  25.949  44.697   4.475
95072W        W61855  21.057   0.067  14.912
95073W        W61856  10.619  43.458  13.390
95074W        W61857  21.277  12.904   1.354
95075W        W61858  31.935  29.064   4.929
95076W        W61859  24.538  28.134   4.059
95077W        W61860  19.096  16.684   2.344
95078W        W61861   1.365  43.199   2.524
95079W        W61862   8.314  34.029  12.074
95080W        W61863  24.198  16.306   1.545
95081W        W61864   0.722  42.756   3.722
95082W        W61865  32.527   3.404   3.161
95083W        W61866  21.789  33.457  10.184
95084W        W61867   7.018  29.636  14.072
95085W        W61868  11.331  44.745  11.556
95086W        W61869   9.103  21.959   3.827
95087W        W61870   1.686   5.034   2.387
95088W        W61871   8.839  11.823   1.440
95089W        W61872   2.966  26.483   4.268
95090W        W61873   4.362   7.272  10.664
95091W        W61874  19.324   0.828   3.669
95092W        W61875  42.114   1.824   3.157
95093W        W61876  13.174   8.494   3.238
95094W        W61877  21.612   6.166  12.913
95095W        W61878  38.954   9.431   0.796
95096W        W61879  37.786  37.398  14.000
95097W        W61880  23.598   0.355  13.084
95098W        W61881   2.653   2.750   1.215
95099W        W61882  14.774  14.831  11.321
95100W        W61883  22.100  11.195  14.269
95101W        W61884  13.592  35.912  13.461
95102W        W61885  23.529   6.092  13.528
95103W        W61886  31.860  41.619  10.967
95104W        W61887  26.060  35.076  10.793
95105W        W61888  37.420  14.078   1.777
95106W        W61889  29.200   5.736   3.784
95107W        W61890  11.510  32.907  14.451
95108W        W61891  19.631  30.237  12.988
95109W        W61892   7.576  44.963   3.948
95110W        W61893  38.470  17.022  11.537
95111W        W61894  21.241  32.044  10.170
95112W        W61895  27.100  32.653  13.487
95113W        W61896   1.002  38.410   3.455
95114W        W61897  33.325  29.027   2.876
95115W        W61898  40.095  26.913  12.551
95116W        W61899  39.165   3.515   4.167
95117W        W61900   1.082  21.981   4.645
95118W        W61901  23.522  26.829  12.958
95119W        W61902  26.732   7.351   0.747
95120W        W61903  43.656  15.745  12.166
95121W        W61904  14.446  38.089   2.257
95122W        W61905  35.751   8.023  12.824
95123W        W61906  10.286   2.440  11.033
95124W        W61907  39.039  37.795   1.315
95125W        W61908  14.888  20.328   3.754
95126W        W61909  43.925  11.694   1.969
95127W        W61910   4.734  10.819  13.049
95128W        W61911  19.783  37.553  14.429
95129W        W61912  44.426   1.511  14.787
95130W        W61913  28.449  23.249  12.443
95131W        W61914  40.015  28.570  12.846
95132W        W61915  18.791  43.968   1.506
95133W        W61916   7.343  38.245   2.193
95134W        W61917  30.705  36.295   0.759
95135W        W61918  27.711  29.322  13.791
95136W        W61919   4.942  25.104   9.878
95137W        W61920  29.938  16.821   3.722
95138W        W61921  40.781   1.621  14.863
95139W        W61922   6.178  12.127   4.639
95140W        W61923  24.974  40.889   0.829
95141W        W61924  22.056  43.945  12.053
95142W        W61925  18.572  17.184   3.235
95143W        W61926  30.858  16.501   9.551
95144W        W61927  38.796  25.686   4.517
95145W        W61928  28.501  22.452   3.135
95146W        W61929   2.208  14.300   3.333
95147W        W61930  43.577  35.768  11.082
95148W        W61931  36.416  17.718   0.966
95149W        W61932  19.537   6.131   1.873
95150W        W61933  35.786  30.496   3.074
95151W        W61934  43.946   1.918   0.615
95152W        W61935   3.459  10.689   2.540
95153W        W61936  21.198  28.465   1.874
95154W        W61937  34.518   8.519  11.141
95155W        W61938  11.661  41.228   3.393
95156W        W61939   6.043  31.674  11.994
95157W        W61940  36.375   1.920  12.888
95158W        W61941  12.577  36.549  14.534
95159W        W61942  26.510   8.340  10.400
95160W        W61943   0.859  27.117  12.225
95161W        W61944  11.689  40.912   4.397
95162W        W61945  34.365   0.994   1.451
95163W        W61946  31.402  34.104   2.391
95164W        W61947  32.330  39.477   0.383
95165W        W61948  35.803   7.108  13.922
95166W        W61949  18.708  35.450   3.184
95167W        W61950  25.230  26.116   2.047
95168W        W61951  26.583  10.793  12.030
95169W        W61952   0.263  22.971  13.891
95170W        W61953  11.894  21.970   4.356
95171W        W61954  34.926  32.023   3.614
95172W        W61955  14.028   8.105   4.996
95173W        W61956  14.529  22.565  10.247
95174W        W61957  10.714  38.093  12.031
95175W        W61958  23.770  23.825   0.455
95176W        W61959  14.587  27.020   4.441
95177W        W61960  20.628  25.211   1.434
95178W        W61961  21.201  29.074  10.835
95179W        W61962   0.758  13.830   4.490
95180W        W61963  34.916  19.380   2.764
95181W        W61964   9.268  26.847  11.117
95182W        W61965  31.346  39.768  13.408
95183W        W61966   4.288  20.695  12.148
95184W        W61967  17.345  27.087   1.702
95185W        W61968  18.679  27.663   3.124
95186W        W61969   8.829  26.455   1.266
95187W        W61970  30.380  13.883  12.411
95188W        W61971  18.313  43.275  12.905
95189W        W61972  40.121  37.878  12.649
95190W        W61973  37.018  41.319   2.729
95191W        W61974  36.961  23.614   3.611
95192W        W61975  28.709   9.321   4.100
95193W        W61976  11.104  25.331  13.242
95194W        W61977  44.761  17.001   3.623
95195W        W61978   7.376   4.179  14.252
95196W        W61979  26.973  26.268   4.428
95197W        W61980  36.353   3.055  12.408
95198W        W61981  31.517  13.167   3.908
95199W        W61982   8.161  42.772   2.218
95200W        W61983  31.882  22.974  11.217
95201W        W61984   0.146  37.082  12.927
95202W        W61985  37.555  29.585   0.272
95203W        W61986  17.559  43.787  13.939
95204W        W61987  42.738  14.901   2.395
95205W        W61988  29.628   8.213   0.435
95206W        W61989   1.511   6.888   1.100
95207W        W61990  22.628  14.918  14.078
95208W        W61991  20.325  25.650   2.452
95209W        W61992  10.088  28.352   2.650
95210W        W61993  19.095  44.731  13.823
95211W        W61994  38.345  12.116   1.295
95212W        W61995  18.059  29.137  11.028
95213W        W61996   5.951  15.576  10.693
95214W        W61997   6.659   7.350  12.482
95215W        W61998   0.468  12.634  13.716
95216W        W61999   8.880  11.275   0.318
95217W        W62000  36.382  39.553   0.851
95218W        W62001  34.449  26.237  14.433
95219W        W62002  11.597  34.469  13.603
95220W        W62003  40.987  43.069   2.348
95221W        W62004  43.893  21.024  12.948
95222W        W62005   9.274   6.140  10.713
95223W        W62006   3.369  23.958   4.215
95224W        W62007  13.222  41.801  10.452
95225W        W62008   6.323   2.439   3.015
95226W        W62009  22.734  43.884  14.455
95227W        W62010  14.043  39.418   2.549
95228W        W62011  37.454  20.197  13.025
95229W        W62012  10.520  24.763  12.111
95230W        W62013   7.322   8.163   1.288
95231W        W62014  34.220  35.571  14.367
95232W        W62015  19.241  15.074  11.490
95233W        W62016  15.723  30.630   2.407
95234W        W62017  23.474   6.968  12.459
95235W        W62018  44.857  42.761   1.489
95236W        W62019  16.126  16.540   2.118
95237W        W62020  22.532  41.020   1.784
95238W        W62021  34.133  28.458  11.693
95239W        W62022  12.263  20.339  12.484
95240W        W62023  36.635  25.466  11.624
95241W        W62024  26.570  44.108   2.671
95242W        W62025  21.793  17.745   4.207
95243W        W62026  27.222  26.015   1.738
95244W        W62027  28.611   1.146  11.577
95245W        W62028  15.263  35.911  14.589
95246W        W62029  34.791  41.456  13.386
95247W        W62030  22.481  17.269  13.576
95248W        W62031  28.689   7.951   0.874
95249W        W62032   6.600   4.351   4.038
95250W        W62033  27.476  24.898   5.457
95251W        W62034  31.147  37.149   3.872
95252W        W62035  28.342   4.363   2.239
95253W        W62036  22.914  44.779   1.277
95254W        W62037  33.478  23.373   3.204
95255W        W62038   4.807  39.281  11.246
95256W        W62039  19.094   3.019  13.589
95257W        W62040   6.824  20.106  11.157
95258W        W62041  38.008  35.986   1.047
95259W        W62042  11.860  26.730   1.604
95260W        W62043  39.829  25.605   1.572
95261W        W62044  42.681  33.542   1.772
95262W        W62045  28.542  21.592  14.245
95263W        W62046   5.420   9.835  14.841
95264W        W62047  43.524  10.276   5.005
95265W        W62048  33.948  20.123  11.283
95266W        W62049  32.372  37.467  14.704
95267W        W62050   4.220  36.629   0.696
95268W        W62051  19.872  38.422  14.574
95269W        W62052  41.807  19.573  11.531
95270W        W62053  25.524   0.453   1.867
95271W        W62054   2.912  29.209  10.666
95272W        W62055  43.462  21.612   4.712
95273W        W62056   4.719  11.641   3.663
95274W        W62057  12.630  30.414  13.082
95275W        W62058   8.535   8.401  13.409
95276W        W62059  32.966  29.699  13.973
95277W        W62060  25.607  16.576   2.379
95278W        W62061   2.181  43.963  13.907
95279W        W62062   7.815  21.077  11.636
95280W        W62063   9.678  27.722  13.451
95281W        W62064  27.577  42.358  14.541
95282W        W62065   5.217  30.896  12.833
95283W        W62066  22.391  44.037  12.546
95284W        W62067  23.800  26.419  14.887
95285W        W62068  24.102  14.964   3.264
95286W        W62069  34.331   2.780   2.198
95287W        W62070  10.003  16.564  13.524
95288W        W62071  33.555  19.454   4.657
95289W        W62072  26.761   7.249   2.050
95290W        W62073  16.109  42.351  14.291
95291W        W62074  27.267  16.618  11.962
95292W        W62075   4.410  14.668  12.078
95293W        W62076  38.377  26.649   4.453
95294W        W62077  29.648  26.512  13.947
95295W        W62078  34.123  33.631   3.729
95296W        W62079  26.667  14.299   1.811
95297W        W62080  19.169  30.965   4.121
95298W        W62081   9.139   3.909   4.585
95299W        W62082  11.148   4.835   3.115
95300W        W62083  17.367  29.470  13.091
95301W        W62084  33.310  23.449   4.086
95302W        W62085  32.406  22.630  13.098
95303W        W62086  27.101  30.482   1.756
95304W        W62087   1.920   8.675   3.609
95305W        W62088   0.887   5.844  12.561
95306W        W62089  35.914  23.773   4.228
95307W        W62090  14.826  35.853   4.584
95308W        W62091  27.681  29.667  11.630
95309W        W62092  31.168  40.035  10.547
95310W        W62093   0.364  12.859   3.618
95311W        W62094   8.970   9.128   3.529
95312W        W62095  29.142  11.144   0.928
95313W        W62096  21.492  20.276  12.997
95314W        W62097   1.013  36.602  12.613
95315W        W62098   2.724   9.004  11.400
95316W        W62099  18.800  37.908  14.922
95317W        W62100  22.749  38.607   0.857
95318W        W62101  29.192   6.700  13.008
95319W        W62102   9.829   1.928   3.841
95320W        W62103  28.434   5.534  10.672
95321W        W62104  15.546  25.221   1.296
95322W        W62105  40.246  22.052   2.771
95323W        W62106  26.632  26.245   1.404
95324W        W62107   6.427  40.322  13.602
95325W        W62108  29.228  20.235   2.840
95326W        W62109  42.055   4.422  12.630
95327W        W62110  11.677  37.778  13.835
95328W        W62111  31.308  23.392   1.319
95329W        W62112   9.227  16.020   0.889
95330W        W62113  15.178  35.619  12.909
95331W        W62114  15.683  15.535   4.225
95332W        W62115  29.465  25.751   0.261
95333W        W62116  15.923  33.700   5.108
95334W        W62117   8.640  36.226  10.697
95335W        W62118  25.914  38.543   3.240
95336W        W62119  28.980  40.962   0.173
95337W        W62120  14.629  14.563  10.444
95338W        W62121  12.024  36.800   4.962
95339W        W62122  18.083   3.722  13.109
95340W        W62123  28.584  28.301   3.562
95341W        W62124  15.608  44.575   3.142
95342W        W62125   6.240  14.531  11.518
95343W        W62126   3.439  13.574   0.783
95344W        W62127  25.577  18.109   2.135
95345W        W62128  15.529  10.714  14.471
95346W        W62129  24.783  44.879   2.695
95347W        W62130  14.799  18.762  11.499
95348W        W62131   4.263  43.581   4.295
95349W        W62132  44.711  39.214   2.174
95350W        W62133  28.105  33.976   0.023
95351W        W62134  39.131  35.025   3.141
95352W        W62135  15.653  32.624   0.334
95353W        W62136   0.015  44.697   0.655
95354W        W62137  12.803  44.228  11.059
95355W        W62138   7.169  23.197   3.911
95356W        W62139  43.927  34.928   4.323
95357W        W62140  33.004  29.929  11.574
95358W        W62141  22.491  18.472  14.765
95359W        W62142  11.173  33.865   3.163
95360W        W62143  42.348   1.948   1.230
95361W        W62144  43.391  10.525   2.819
95362W        W62145   2.445  12.762  11.745
95363W        W62146  14.571   8.233  11.378
95364W        W62147  26.733  14.874   2.682
95365W        W62148  22.836   7.770   3.823
95366W        W62149   3.279  35.433   4.494
95367W        W62150  27.927  17.697   9.906
95368W        W62151   7.904  42.063  14.877
95369W        W62152  39.047  11.142   3.046
95370W        W62153  43.268  30.383  12.450
95371W        W62154   9.676  13.000  12.541
95372W        W62155  26.730  42.130   5.053
95373W        W62156  27.652  34.979  12.941
95374W        W62157   9.723  25.267  12.162
95375W        W62158  34.584  41.463   2.338
95376W        W62159  40.209  31.359  12.043
95377W        W62160  31.192  14.645  13.418
95378W        W62161   1.536   7.102   3.361
95379W        W62162   7.814   8.877   3.774
95380W        W62163  17.835  40.365  11.258
95381W        W62164  36.645  38.356  14.956
95382W        W62165  19.250  31.778  14.830
95383W        W62166  30.468   2.398   4.099
95384W        W62167   0.367  10.448  10.966
95385W        W62168   7.851  10.243   5.239
95386W        W62169  43.487  41.030  12.424
95387W        W62170  32.498  15.522   5.291
95388W        W62171  17.664   7.952  13.987
95389W        W62172  22.972  18.053  13.369
95390W        W62173   5.059  21.677   1.139
95391W        W62174  21.205  35.616   3.387
95392W        W62175   6.960   2.918  14.960
95393W        W62176  37.640  37.018   3.121
95394W        W62177  24.082  20.987  11.570
95395W        W62178  36.622   9.965   0.758
95396W        W62179   3.740  40.403   4.223
95397W        W62180   1.992  27.171  12.604
95398W        W62181   4.673   4.658  12.925
95399W        W62182   6.206   0.520   2.315
95400W        W62183  11.267  39.144   1.251
95401W        W62184   2.814  34.382  11.093
95402W        W62185  37.946  26.573   1.691
95403W        W62186  17.107  42.161   4.734
95404W        W62187  17.400  14.725   0.849
95405W        W62188  35.525   1.775   4.598
95406W        W62189  16.334  27.690  11.627
95407W        W62190  16.666  13.811  12.353
95408W        W62191  30.458  35.972   0.364
95409W        W62192  10.871  24.632  10.891
95410W        W62193  12.128  36.928   0.293
95411W        W62194  27.071  44.377  14.376
95412W        W62195  19.780  44.693  14.394
95413W        W62196   1.795  34.841  14.525
95414W        W62197  12.954   7.375   5.039
95415W        W62198  36.448  43.951  14.420
95416W        W62199  43.499  41.422   1.767
95417W        W62200   4.005  42.365   2.304
95418W        W62201  37.959   1.042  13.093
95419W        W62202  33.613  19.505   3.186
95420W        W62203  41.733   7.127  11.595
95421W        W62204  19.240  12.250  11.792
95422W        W62205  13.263   5.938  12.099
95423W        W62206  27.186   0.769   2.213
95424W        W62207  20.728  37.455  14.077
95425W        W62208  20.614  37.039   2.400
95426W        W62209  40.245  17.972   0.725
95427W        W62210  39.968  23.497   0.790
95428W        W62211   9.618   6.606  13.879
95429W        W62212  16.625   9.322  12.919
95430W        W62213  14.582  30.113  11.459
95431W        W62214  43.551  10.373   1.903
95432W        W62215  37.896  34.241  12.408
95433W        W62216  10.368  29.877   1.143
95434W        W62217  26.256  15.455   3.364
95435W        W62218  18.716  30.022   0.822
95436W        W62219   2.624  39.290   1.777
95437W        W62220   6.973  20.616  11.223
95438W        W62221   7.854  40.667   4.377
95439W        W62222  26.281  33.330  14.804
95440W        W62223  27.062  16.199  12.199
95441W        W62224  20.492   1.586   2.756
95442W        W62225  16.825  26.133  13.860
95443W        W62226  37.795   1.769  12.496
95444W        W62227  20.292  44.812  11.521
95445W        W62228  31.625  23.639   3.730
95446W        W62229  21.047   2.695  11.420
95447W        W62230  41.860  43.015  10.659
95448W        W62231  24.990  24.919   0.317
95449W        W62232  31.856   9.887   0.527
95450W        W62233  16.558  14.850   1.333
95451W        W62234  39.471  25.171   3.181
95452W        W62235  37.838  21.150  14.472
95453W        W62236   4.423  13.085  13.530
95454W        W62237  34.414  24.408   1.793
95455W        W62238  14.678  35.498  12.997
95456W        W62239  20.992  16.965  13.519
95457W        W62240  38.029  11.630   4.080
95458W        W62241   2.400  31.204   2.085
95459W        W62242  27.652  13.755   3.716
95460W        W62243  21.502  28.158  11.568
95461W        W62244  43.876  29.183   0.232
95462W        W62245   1.138  19.974   4.532
95463W        W62246  21.216   9.576  12.048
95464W        W62247   8.736  31.013  12.060
95465W        W62248  34.332  36.974  10.723
95466W        W62249  37.380  15.060  14.269
95467W        W62250  11.567  27.555   4.615
95468W        W62251  41.720  23.077  13.097
95469W        W62252  22.495  43.304  12.541
95470W        W62253   2.861  34.924   2.768
95471W        W62254  12.558  33.983   0.977
95472W        W62255  19.951   3.958   3.944
95473W        W62256  22.789  22.275   2.281
95474W        W62257  42.312   0.456  11.644
95475W        W62258  26.750   6.767   1.260
95476W        W62259  13.924  27.983   2.419
95477W        W62260  33.210  21.658  10.815
95478W        W62261   1.353   5.178  12.884
95479W        W62262  43.348   0.891   1.260
95480W        W62263  24.321   5.266  11.977
95481W        W62264  36.373  32.109   0.169
95482W        W62265   0.905   2.589   2.272
95483W        W62266  11.468   1.403  13.489
95484W        W62267  12.834  33.910   0.097
95485W        W62268  25.495   8.196  14.334
95486W        W62269  42.032  18.021  10.782
95487W        W62270  20.440   4.110   3.149
95488W        W62271  22.187  44.215   4.016
95489W        W62272  15.845  15.820   4.611
95490W        W62273  32.149  17.321   1.725
95491W        W62274  14.197  27.586   0.393
95492W        W62275  24.676  35.171  13.367
95493W        W62276  10.118  20.369  14.596
95494W        W62277  44.259  16.577  14.971
95495W        W62278  27.992  41.083  10.668
95496W        W62279   1.793  40.140  13.687
95497W        W62280  21.797  35.124   3.463
95498W        W62281  22.184  34.587   1.337
95499W        W62282  42.316  26.972   4.110
95500W        W62283  30.054  21.224   1.188
95501W        W62284  27.013  43.788  10.677
95502W        W62285   6.943  29.521  13.039
95503W        W62286   5.609   4.363   3.153
95504W        W62287  38.433  42.588   3.295
95505W        W62288  29.168   8.351   0.213
95506W        W62289  37.057  31.643   3.072
95507W        W62290  40.349  44.407   1.239
95508W        W62291   8.567   9.599   2.282
95509W        W62292  38.763  44.824   3.836
95510W        W62293  16.043   6.335   2.494
95511W        W62294  29.380   6.618   3.991
95512W        W62295  13.600  44.715  14.805
95513W        W62296  33.840  13.253   2.272
95514W        W62297   5.484  29.978   3.680
95515W        W62298  34.325  30.967   1.585
95516W        W62299  17.739   9.795   4.480
95517W        W62300   3.730  36.941   2.709
95518W        W62301  40.798  28.141   3.766
95519W        W62302   2.402  26.805   0.373
95520W        W62303  14.609  15.032   0.868
95521W        W62304   4.361  35.620   3.299
95522W        W62305  16.627   9.725  14.861
95523W        W62306  27.659  30.349  13.334
95524W        W62307  16.170  13.508  10.628
95525W        W62308   1.647   3.720   2.693
95526W        W62309  41.818   9.934   4.133
95527W        W62310  23.736  27.492   1.859
95528W        W62311  41.397   2.405  14.680
95529W        W62312  12.506   3.266   0.938
95530W        W62313  13.185  12.876  12.069
95531W        W62314  11.842  35.131   2.703
95532W        W62315  12.836   9.933   4.174
95533W        W62316   3.394  15.927   2.348
95534W        W62317   4.368  16.003   1.390
95535W        W62318   9.892  41.222  11.534
95536W        W62319  20.233   6.784   0.768
95537W        W62320   8.846  13.925  12.027
95538W        W62321  36.807  25.444   0.304
95539W        W62322  30.633  40.284   1.346
95540W        W62323  16.287  40.089   0.787
95541W        W62324  35.979  41.820   0.638
95542W        W62325  10.573   1.277  11.396
95543W        W62326  39.583  16.993  10.066
95544W        W62327  41.662   0.925   1.751
95545W        W62328  30.724  29.215   0.747
95546W        W62329  39.074  41.349  11.639
95547W        W62330  25.052   9.186   2.663
95548W        W62331  33.847   6.331   0.916
95549W        W62332  33.914  25.339   4.285
95550W        W62333  32.629  37.390  11.711
95551W        W62334   7.428  18.136   4.702
95552W        W62335  24.671  23.574   4.961
95553W        W62336  28.113  35.840  14.035
95554W        W62337   9.283   5.479   3.183
95555W        W62338   1.857  29.328   1.532
95556W        W62339  35.932  21.748  10.592
95557W        W62340  26.524  31.967  13.401
95558W        W62341   0.310   5.394  11.414
95559W        W62342  37.089   4.236  12.617
95560W        W62343  11.891   8.741   3.816
95561W        W62344  44.405  44.529  13.069
95562W        W62345  21.333  29.712   4.585
95563W        W62346  18.951  21.229   1.907
95564W        W62347  11.476  23.066   1.085
95565W        W62348  36.160  21.447   3.686
95566W        W62349  40.815  12.186   1.754
95567W        W62350  28.198   1.917  10.571
95568W        W62351  43.408  17.725   1.543
95569W        W62352  34.340  27.547   0.748
95570W        W62353  13.576  20.252  12.106
95571W        W62354  26.328   1.975   4.156
95572W        W62355  23.479  39.078   4.596
95573W        W62356  19.437  32.923  12.853
95574W        W62357  29.468  35.992  12.596
95575W        W62358  42.967  13.788  13.605
95576W        W62359  26.498  18.207   1.623
95577W        W62360  37.912  30.657  12.921
95578W        W62361  23.385   6.040   4.244
95579W        W62362  17.549  11.741  11.812
95580W        W62363  36.530  16.107   2.315
95581W        W62364   1.224  43.730  12.862
95582W        W62365   5.076  14.513   1.694
95583W        W62366  27.436  26.419   4.576
95584W        W62367  37.237   8.388   2.265
95585W        W62368  23.757  39.425  12.028
95586W        W62369   3.379  14.767  12.538
95587W        W62370   2.668   5.368  12.127
95588W        W62371  43.571   1.954   0.983
95589W        W62372  24.122  32.901  11.616
95590W        W62373  43.867   0.524   2.354
95591W        W62374  16.061  18.547  12.128
95592W        W62375  18.620   8.162   1.265
95593W        W62376   8.147  15.066   0.798
95594W        W62377  20.086   6.652   1.836
95595W        W62378  39.125  42.894   0.607
95596W        W62379  11.333  11.153  13.221
95597W        W62380   1.715  36.029   2.788
95598W        W62381  33.564  24.788  12.564
95599W        W62382  21.279  27.193  10.549
95600W        W62383  42.400  24.513  10.683
95601W        W62384   7.846  35.590   3.669
95602W        W62385  33.151  10.400  14.961
95603W        W62386  13.226  26.167   4.528
95604W        W62387  32.597  17.270  14.731
95605W        W62388  18.571   5.424  12.777
95606W        W62389  21.273  35.901   3.833
95607W        W62390  18.836  37.221   2.390
95608W        W62391   7.852  35.050  13.962
95609W        W62392   4.503   9.725  11.022
95610W        W62393   6.941  24.539   2.763
95611W        W62394  14.162  24.174  14.840
95612W        W62395  21.124  24.307   3.293
95613W        W62396  29.987  15.803   2.669
95614W        W62397  39.468  41.928   2.942
95615W        W62398   3.288  30.997  11.201
95616W        W62399   5.284  18.124  14.498
95617W        W62400  17.196  36.808  10.585
95618W        W62401   6.868   3.665  11.963
95619W        W62402  43.252  14.942  13.864
95620W        W62403   4.608   1.428   2.371
95621W        W62404   3.321  33.019   4.665
95622W        W62405  40.666   3.466  11.451
95623W        W62406  37.158  33.620  14.759
95624W        W62407  34.628  44.462  12.512
95625W        W62408  39.684  15.648   4.589
95626W        W62409  22.143  26.398   0.981
95627W        W62410  17.265  33.299  10.985
95628W        W62411  21.746  39.310  11.002
95629W        W62412   1.095   5.415  14.421
95630W        W62413  28.695  41.292  13.230
95631W        W62414   9.415   1.973   3.310
95632W        W62415   4.691  13.736   4.875
95633W        W62416  23.675  15.820   4.735
95634W        W62417  27.006  34.468   0.423
95635W        W62418  13.051   4.339   0.744
95636W        W62419   3.943  37.500   0.265
95637W        W62420  39.582  30.157   0.966
95638W        W62421   1.745  36.137   2.240
95639W        W62422  32.100  29.531   3.587
95640W        W62423   5.910  35.359  13.176
95641W        W62424  35.319  15.343   4.200
95642W        W62425  37.924  36.373   2.883
95643W        W62426  43.420  32.651  11.209
95644W        W62427  28.984  24.575   1.394
95645W        W62428   4.267  22.461  11.989
95646W        W62429  22.392  39.431   4.203
95647W        W62430  33.381  26.350   5.144
95648W        W62431  38.580  14.802   1.770
95649W        W62432  23.528  38.540  13.363
95650W        W62433  20.297  30.002  13.301
95651W        W62434  40.287  28.981  11.937
95652W        W62435  36.971  31.860  10.460
95653W        W62436  25.073  21.809  10.642
95654W        W62437  15.317  20.624  12.903
95655W        W62438  36.581  19.195   4.155
95656W        W62439  30.442  42.488   1.702
95657W        W62440  27.139  29.501   3.343
95658W        W62441  23.049  31.738   1.833
95659W        W62442  31.878  31.582   2.716
95660W        W62443   3.387  29.639   4.126
95661W        W62444  10.046   4.911  13.134
95662W        W62445  11.796  23.076  10.542
95663W        W62446  19.808   4.219  11.091
95664W        W62447  35.338  18.722   4.969
95665W        W62448  18.828  15.634  10.646
95666W        W62449  41.352   7.382  12.411
95667W        W62450  34.184  11.846  12.704
95668W        W62451  22.526   2.623   3.584
95669W        W62452  34.460  22.903  14.930
95670W        W62453  15.311  10.677  11.443
95671W        W62454  23.694  10.673  12.943
95672W        W62455  44.885  24.782  14.911
95673W        W62456  13.581  25.155   2.869
95674W        W62457  23.084  37.572  10.770
95675W        W62458  11.687   7.695  12.285
95676W        W62459   1.278   2.865  13.741
95677W        W62460  34.552   4.289   4.818
95678W        W62461  10.359  43.403   2.331
95679W        W62462  13.311  15.239   1.180
95680W        W62463   5.018  25.560  13.344
95681W        W62464   9.198  19.322  11.929
95682W        W62465  10.818  11.875   1.880
95683W        W62466  33.626  43.935  13.071
95684W        W62467  27.899  44.570  14.389
95685W        W62468   4.075  11.820  11.545
95686W        W62469  36.899  36.602   1.896
95687W        W62470   0.780  42.535  11.986
95688W        W62471   7.823  19.302  11.146
95689W        W62472  24.232  39.970  11.231
95690W        W62473  43.394   3.840  13.072
95691W        W62474   2.195  23.618  10.453
95692W        W62475   3.401  40.897   3.205
95693W        W62476  43.398  44.826   0.793
95694W        W62477  34.051  37.870   4.900
95695W        W62478   3.287   7.389  12.607
95696W        W62479   0.097  26.400   0.806
95697W        W62480  34.457  10.088   1.339
95698W        W62481  13.349  20.032   0.643
95699W        W62482  21.554  32.754  11.334
95700W        W62483  30.028  29.621   0.264
95701W        W62484  25.147   9.061  12.844
95702W        W62485   6.712   0.284  10.873
95703W        W62486  39.704   9.231   0.199
95704W        W62487  20.524   1.485  12.351
95705W        W62488  26.740  34.333   4.289
95706W        W62489  13.369  20.534   1.775
95707W        W62490   4.363  37.875  11.537
95708W        W62491   3.248  32.277   2.122
95709W        W62492  24.122   8.923   3.172
95710W        W62493  25.247  40.745  13.915
95711W        W62494   9.899  12.327   2.282
95712W        W62495   1.266  31.277  14.075
95713W        W62496   6.180  18.629   2.705
95714W        W62497  36.614  35.850  12.032
95715W        W62498  21.495  43.829  13.123
95716W        W62499  34.618  25.591   1.017
95717W        W62500  31.363  16.552   0.773
95718W        W62501   2.292  32.406  12.082
95719W        W62502  17.713   2.208   0.359
95720W        W62503  33.757   9.425  14.346
95721W        W62504  34.996  14.726   3.553
95722W        W62505  31.647   5.346   4.412
95723W        W62506  34.142   0.622   2.659
95724W        W62507   0.680  28.726   0.959
95725W        W62508  40.492   8.874  12.362
95726W        W62509  40.277  30.512  14.869
95727W        W62510  16.398  26.602   1.262
95728W        W62511   5.796  21.468   0.442
95729W        W62512   0.490  37.438  11.017
95730W        W62513  36.292  44.768  13.545
95731W        W62514  11.666   8.389   1.636
95732W        W62515  14.733  26.172   2.395
95733W        W62516  34.455  34.305   0.051
95734W        W62517  40.206  34.107  10.880
95735W        W62518   2.283   9.354   3.577
95736W        W62519  20.340  36.992   3.803
95737W        W62520  29.852  14.780  12.359
95738W        W62521  43.993  30.145  11.915
95739W        W62522   9.664  30.979   0.813
95740W        W62523  23.001  22.927   1.739
95741W        W62524   1.020   3.551  14.891
95742W        W62525   8.108  24.608  12.339
95743W        W62526  26.302  38.006   5.057
95744W        W62527  43.734   8.237  10.963
95745W        W62528  30.198   1.924   1.766
95746W        W62529   2.375  44.777  13.448
95747W        W62530  22.049  28.708  10.577
95748W        W62531  41.788   2.744  11.750
95749W        W62532  44.524  32.188  10.078
95750W        W62533  28.395  37.843   0.000
95751W        W62534  43.529   2.422  11.050
95752W        W62535  32.346  21.760  12.075
95753W        W62536   8.665   8.545  10.629
95754W        W62537  27.915  44.312  10.660
95755W        W62538  10.313  12.467  11.661
95756W        W62539  13.957  17.837   4.027
95757W        W62540  14.236  29.110  14.924
95758W        W62541  27.494  20.015  12.840
95759W        W62542   8.355  10.217  13.513
95760W        W62543   6.953  15.380  13.124
95761W        W62544  17.125  30.436   3.639
95762W        W62545   5.007   9.858   3.524
95763W        W62546  34.513  35.867  12.511
95764W        W62547  29.181   0.015   2.233
95765W        W62548   0.150  41.852   2.874
95766W        W62549  42.057  16.737   3.078
95767W        W62550  34.425   9.828   3.109
95768W        W62551  34.024  18.813   3.612
95769W        W62552   9.038  25.801   2.710
95770W        W62553  21.615  44.429   2.653
95771W        W62554  25.600   7.327   3.223
95772W        W62555   5.513   5.670  14.925
95773W        W62556  38.572  18.443  13.550
95774W        W62557  42.706  10.844   1.809
95775W        W62558   5.415  41.812   4.646
95776W        W62559  26.253  33.171  11.636
95777W        W62560  43.226  36.024   2.178
95778W        W62561  29.445  40.971   4.506
95779W        W62562  15.395  40.289   9.693
95780W        W62563  29.591   7.304  12.459
95781W        W62564  14.692  31.494   1.276
95782W        W62565  33.765   5.520   3.338
95783W        W62566   5.140   5.387   0.287
95784W        W62567  39.489  11.609   2.819
95785W        W62568  36.992  11.608  11.746
95786W        W62569  22.197  15.646  12.564
95787W        W62570   6.909  15.034  11.568
95788W        W62571  23.543  44.304   3.437
95789W        W62572  10.216   5.694  13.345
95790W        W62573  32.952  21.757  11.295
95791W        W62574  19.072   2.778   2.870
95792W        W62575  12.553   5.881  12.442
95793W        W62576   9.246  14.082   0.361
95794W        W62577  19.739  16.209  12.242
95795W        W62578   2.810  24.273   3.148
95796W        W62579  25.296   9.277   3.133
95797W        W62580  27.393  44.220  11.085
95798W        W62581  28.897   4.732  14.250
95799W        W62582  40.793  21.484   3.652
95800W        W62583  10.315  42.898  14.760
95801W        W62584   8.848   1.621   1.823
95802W        W62585  30.235  14.730   1.230
95803W        W62586  28.974  39.608  13.480
95804W        W62587  34.498  31.847  13.395
95805W        W62588  23.034  23.986  10.847
95806W        W62589   9.364  38.426  12.577
95807W        W62590  39.343  21.270  12.468
95808W        W62591   7.253   7.780  11.647
95809W        W62592   4.671  37.374   1.817
95810W        W62593  34.897  25.139   4.347
95811W        W62594  24.124   1.727  11.894
95812W        W62595  43.293  34.022   2.222
95813W        W62596  15.308   8.684  14.834
95814W        W62597  26.553  18.651   2.437
95815W        W62598  44.349  18.048   1.822
95816W        W62599   4.765   6.418  13.479
95817W        W62600  26.237  24.731   3.834
95818W        W62601   4.899  11.625  11.351
95819W        W62602   4.183  13.996  13.211
95820W        W62603  25.246   2.593  14.955
95821W        W62604  15.325  41.754  12.263
95822W        W62605  27.967  12.793   2.205
95823W        W62606   3.752  42.427  14.753
95824W        W62607  13.552   8.248   5.122
95825W        W62608  41.980  25.498  14.476
95826W        W62609  36.078  28.638  13.831
95827W        W62610  27.741   7.206   3.739
95828W        W62611   0.036   0.698   4.142
95829W        W62612   1.356  21.468  10.621
95830W        W62613  26.155  14.849   0.924
95831W        W62614   9.800  40.719  11.560
95832W        W62615   3.922  21.454   1.823
95833W        W62616  35.007  42.723   2.247
95834W        W62617  33.904  24.161   2.804
95835W        W62618  10.692  21.063  12.761
95836W        W62619  12.839  34.970   3.827
95837W        W62620  18.630  22.576  13.861
95838W        W62621   2.164  28.232   3.334
95839W        W62622  28.984  28.246   2.857
95840W        W62623  37.581   7.404   5.069
95841W        W62624  23.152  22.636  10.883
95842W        W62625  17.289  16.240   1.782
95843W        W62626   9.825  36.088  13.318
95844W        W62627  44.287  10.089  13.503
95845W        W62628   0.717  19.689   2.009
95846W        W62629  39.737  18.502  10.810
95847W        W62630  19.569  21.352  14.959
95848W        W62631   2.193  44.313   4.527
95849W        W62632  34.892  29.939  12.446
95850W        W62633  24.622  35.868   4.259
95851W        W62634  15.344  31.100  14.822
95852W        W62635  20.117   3.276   0.969
95853W        W62636  24.787  22.032   1.293
95854W        W62637  19.416   4.036  12.526
95855W        W62638  37.300   8.801  14.017
95856W        W62639  29.594  20.571  11.356
95857W        W62640  41.845  39.652   0.364
95858W        W62641  32.089  32.082   0.338
95859W        W62642  30.066  39.770   0.757
95860W        W62643  24.772  25.915   1.403
95861W        W62644  40.453   6.981   3.287
95862W        W62645   3.245  33.103   0.190
95863W        W62646  36.234   9.280   1.323
95864W        W62647  34.014  33.618   0.288
95865W        W62648  10.800   3.486   1.788
95866W        W62649  28.453   0.624  11.720
95867W        W62650  18.730   7.479  10.791
95868W        W62651  32.136  28.040  13.790
95869W        W62652  22.192  24.472   3.777
95870W        W62653   7.299   2.217   4.118
95871W        W62654  22.193   3.300   1.726
95872W        W62655   6.241  44.317  13.830
95873W        W62656  22.692   9.803  13.785
95874W        W62657  41.803  33.736  13.848
95875W        W62658  30.470   0.898  14.637
95876W        W62659  19.733   3.501   0.691
95877W        W62660   6.160   1.236  14.823
95878W        W62661  15.115   4.955   4.103
95879W        W62662  44.458  22.617   3.310
95880W        W62663   2.814  21.491   2.445
95881W        W62664  41.097  36.902  14.464
95882W        W62665  11.565  18.051   1.228
95883W        W62666  27.762  16.511  11.902
95884W        W62667  26.008  20.017   4.863
95885W        W62668  17.315  14.432  12.187
95886W        W62669  35.524  34.617  13.210
95887W        W62670  36.254  16.092  11.832
95888W        W62671  38.573  39.925  11.294
95889W        W62672  34.634  28.288  13.331
95890W        W62673  26.008  40.309  11.624
95891W        W62674  21.050  17.112   3.798
95892W        W62675  44.435   9.762   4.158
95893W        W62676  22.068  33.071  13.991
95894W        W62677   2.923  17.648  11.932
95895W        W62678  20.061  33.749   2.611
95896W        W62679   2.370  38.327   2.216
95897W        W62680   8.105  28.612   2.771
95898W        W62681  23.630  36.538  12.505
95899W        W62682  25.542  28.735   2.649
95900W        W62683   5.057  27.606  10.660
95901W        W62684  31.903   1.236  14.581
95902W        W62685  44.510  19.160  10.721
95903W        W62686  25.491  12.334  12.055
95904W        W62687  24.133  16.541  10.699
95905W        W62688  27.442  34.990   4.976
95906W        W62689  32.890   1.151  11.988
95907W        W62690  33.922  40.948  10.923
95908W        W62691  23.255   4.904   4.675
95909W        W62692   8.843  35.576  13.619
95910W        W62693   5.908   2.414  14.023
95911W        W62694  17.024  21.785   3.832
95912W        W62695  15.748  34.350  11.091
95913W        W62696   4.708   7.381  12.707
95914W        W62697  19.162   6.102  14.993
95915W        W62698  25.629  37.783  11.109
95916W        W62699  23.675  22.772   3.875
95917W        W62700  32.493  12.247  10.733
95918W        W62701  11.146   8.866  11.186
95919W        W62702  41.249  28.103   4.054
95920W        W62703  35.046  33.589   4.409
95921W        W62704  33.058  39.532   1.680
95922W        W62705   8.419  21.215   1.431
95923W        W62706   5.422  17.621  13.022
95924W        W62707  11.895   1.971  12.083
95925W        W62708   5.241  41.755   2.024
95926W        W62709  28.626  20.616   3.672
95927W        W62710   8.079  33.344   0.159
95928W        W62711  18.275  18.361  11.115
95929W        W62712   6.460  15.806   0.368
95930W        W62713  36.514  26.749   1.808
95931W        W62714  34.845   6.590   0.848
95932W        W62715   0.675  13.519  11.049
95933W        W62716  38.857  34.197   0.345
95934W        W62717   2.967  27.959   1.962
95935W        W62718  32.388  36.508   4.841
95936W        W62719  19.250  29.612  10.714
95937W        W62720  38.636   7.026   4.495
95938W        W62721  28.616  17.327   1.007
95939W        W62722  12.735   6.860  12.716
95940W        W62723  20.058  13.774  13.966
95941W        W62724  17.760  29.318   2.229
95942W        W62725  17.078  13.543   3.238
95943W        W62726  41.274  41.001  10.720
95944W        W62727  38.571  19.114   4.135
95945W        W62728  18.159  31.462  13.123
95946W        W62729  37.536  32.079   1.706
95947W        W62730  32.618  16.831  14.437
95948W        W62731   5.677  16.382   2.057
95949W        W62732  15.890  29.078  11.675
95950W        W62733  40.881  18.746   4.347
95951W        W62734  33.547  18.184   3.252
95952W        W62735   7.319  23.397  11.049
95953W        W62736  44.370  36.385  12.588
95954W        W62737  31.036   9.200  11.921
95955W        W62738   6.235   7.196  11.113
95956W        W62739  14.615   5.722  12.142
95957W        W62740   1.775   8.855  13.878
95958W        W62741  13.560  36.512   2.243
95959W        W62742  26.478   7.321   0.296
95960W        W62743  18.460   1.959  14.864
95961W        W62744   8.993  24.501   4.194
95962W        W62745   0.597   7.752  13.037
95963W        W62746   8.248  30.465  11.331
95964W        W62747  39.424  40.589  10.471
95965W        W62748  33.701   8.271   3.183
95966W        W62749  44.090  15.357   4.845
95967W        W62750  38.002  18.096  12.369
95968W        W62751  14.259  21.253  11.952
95969W        W62752  18.249  24.623  11.114
95970W        W62753  11.970  13.891   1.335
95971W        W62754   2.993   3.248  13.474
95972W        W62755  30.574  33.067   4.597
95973W        W62756  18.093   3.781  14.901
95974W        W62757  43.595  36.041  11.522
95975W        W62758  30.912  11.171   3.845
95976W        W62759   4.221  11.120  13.361
95977W        W62760  39.387  23.559  12.882
95978W        W62761  23.952  44.157   0.703
95979W        W62762   6.388  22.680   3.409
95980W        W62763  41.284  44.965  14.578
95981W        W62764  36.619  11.087  13.440
95982W        W62765  34.463  33.788   1.373
95983W        W62766  38.435  27.128   0.311
95984W        W62767   6.186  12.371   3.284
95985W        W62768  25.645  35.537  11.570
95986W        W62769   7.369  19.921  14.098
95987W        W62770  14.800   7.283  12.476
95988W        W62771   9.429  38.444  11.211
95989W        W62772  21.191   5.436   3.688
95990W        W62773  13.683  41.799  10.707
95991W        W62774  27.441  41.295   0.914
95992W        W62775  17.262  43.783  11.683
95993W        W62776  40.867  43.858  11.536
95994W        W62777  23.085   0.557  12.394
95995W        W62778  43.814  39.738  14.479
95996W        W62779  10.985   1.913   5.022
95997W        W62780   4.836  13.457  11.536
95998W        W62781   1.699  25.152   3.253
95999W        W62782  12.788  37.984   1.040
96000W        W62783  27.358  42.849   4.620
96001W        W62784  19.418  43.137   4.465
96002W        W62785  17.802  11.214  14.514
96003W        W62786  30.857  43.316   4.150
96004W        W62787  18.324  13.797  12.109
96005W        W62788  32.350  14.141  10.789
96006W        W62789   6.394  11.044   3.784
96007W        W62790  43.571   9.962   3.677
96008W        W62791  42.402  36.539   3.782
96009W        W62792  14.614  34.479   3.573
96010W        W62793  36.020  25.605   3.480
96011W        W62794  19.285  34.579   1.767
96012W        W62795  32.387  31.976  10.809
96013W        W62796   1.966   2.956  10.456
96014W        W62797  31.017  23.060   3.523
96015W        W62798  43.398  24.764   2.232
96016W        W62799  18.042  44.872   3.400
96017W        W62800  23.053  36.704  11.235
96018W        W62801   9.148  30.085  13.455
96019W        W62802  16.377   4.334   0.230
96020W        W62803   3.379  44.828   1.799
96021W        W62804  32.974   4.506   2.410
96022W        W62805  43.446   4.614  11.509
96023W        W62806  20.927  30.084  14.386
96024W        W62807  16.218   5.561  12.430
96025W        W62808  36.787  41.295  11.154
96026W        W62809  37.048  43.668  11.634
96027W        W62810   3.625  24.684   0.735
96028W        W62811   5.892   8.114   1.360
96029W        W62812   1.024  24.349   4.119
96030W        W62813  24.997  21.783  14.241
96031W        W62814  27.997   9.709  10.478
96032W        W62815   0.370  25.421   0.638
96033W        W62816  29.639  24.045   2.580
96034W        W62817  40.134  19.671  11.084
96035W        W62818  42.729  18.077   2.379
96036W        W62819  14.616  27.559  13.055
96037W        W62820  43.815  10.363   0.535
96038W        W62821  24.702  29.171  14.734
96039W        W62822   6.359   9.106  14.976
96040W        W62823   0.771  40.045   3.173
96041W        W62824  13.045  24.158  12.164
96042W        W62825  37.327  27.116   3.334
96043W        W62826  21.243  36.373   3.613
96044W        W62827  26.747  31.535   3.335
96045W        W62828   4.576   1.936   2.636
96046W        W62829  39.826   3.773  14.261
96047W        W62830  24.411  41.954  12.121
96048W        W62831   2.435  32.761  12.448
96049W        W62832  42.856   9.736  11.665
96050W        W62833  21.249  16.669   2.924
96051W        W62834  24.147  31.294   3.817
96052W        W62835  34.636  16.681   3.836
96053W        W62836  29.735   1.378  12.492
96054W        W62837  40.143  43.328   3.776
96055W        W62838  21.826  38.699   2.221
96056W        W62839  25.679  43.869  11.509
96057W        W62840  15.877  23.344   1.827
96058W        W62841  12.913  11.394   3.199
96059W        W62842  27.671  18.044  13.619
96060W        W62843  39.220  39.627   4.129
96061W        W62844  19.460  33.888   5.110
96062W        W62845   0.907  29.002   4.010
96063W        W62846   7.325  10.908   1.589
96064W        W62847  14.743  38.577   1.063
96065W        W62848  12.154  21.102   0.242
96066W        W62849   1.349  39.211   2.679
96067W        W62850  41.299  29.832   4.804
96068W        W62851  32.775  31.831  14.229
96069W        W62852  44.003  41.185  13.119
96070W        W62853   9.859  21.653  12.835
96071W        W62854   2.753   7.344   2.689
96072W        W62855   2.835  28.677  13.720
96073W        W62856  18.891   9.354  11.478
96074W        W62857  20.663  39.960  13.845
96075W        W62858  14.576   3.336  11.740
96076W        W62859  25.112  44.716  14.301
96077W        W62860   9.302  43.984  13.674
96078W        W62861  35.794  13.657   0.531
96079W        W62862  22.215  35.612   2.614
96080W        W62863  12.841  25.119  13.291
96081W        W62864  38.579  44.216  13.517
96082W        W62865  35.516   1.320   0.560
96083W        W62866  20.780  25.552  12.900
96084W        W62867   8.545  33.130  14.314
96085W        W62868   0.540  33.132   0.926
96086W        W62869  30.327   4.514  14.002
96087W        W62870  28.721  17.319  11.998
96088W        W62871   7.216   0.286   1.312
96089W        W62872  34.952  44.777  13.613
96090W        W62873   7.036  24.238  13.286
96091W        W62874  32.224   7.461   4.920
96092W        W62875  35.807   5.322   2.870
96093W        W62876  17.965  13.083   5.481
96094W        W62877  38.152  37.705   2.281
96095W        W62878  18.795  42.856   3.117
96096W        W62879  13.857  12.873  13.585
96097W        W62880  10.944  38.506  13.928
96098W        W62881  39.486   8.755  14.697
96099W        W62882  26.533   1.280   2.455
96100W        W62883  41.397  33.912   1.924
96101W        W62884  11.260  10.593  11.552
96102W        W62885  17.838  34.982   0.365
96103W        W62886   0.152  43.130   1.788
96104W        W62887  10.736  34.868   0.305
96105W        W62888  22.879  42.021  10.188
96106W        W62889  30.555  15.641  10.658
96107W        W62890  22.456  13.511   1.814
96108W        W62891  20.779  42.542   4.005
96109W        W62892   5.928   3.738  14.366
96110W        W62893   3.025  12.385  13.713
96111W        W62894  20.090  16.685   2.463
96112W        W62895   3.952  24.312   0.921
96113W        W62896  37.740  24.716  13.991
96114W        W62897  33.484  37.933  10.412
96115W        W62898  40.103  16.745   1.730
96116W        W62899   1.021   1.667   3.182
96117W        W62900  31.858   9.223   0.968
96118W        W62901  38.448  43.773  12.583
96119W        W62902  14.203   3.899   1.960
96120W        W62903  10.258  35.976  10.128
96121W        W62904   5.964   1.791   4.686
96122W        W62905  40.028   8.619  12.597
96123W        W62906  32.993  16.351   0.316
96124W        W62907  43.231  39.343   4.188
96125W        W62908  27.231  39.923  11.605
96126W        W62909  17.697   6.264   4.026
96127W        W62910  21.769   0.252  13.527
96128W        W62911  16.241  18.637  14.897
96129W        W62912  27.109   0.602   4.064
96130W        W62913  34.523  38.981   0.507
96131W        W62914   6.315  38.374  12.538
96132W        W62915  29.315   1.213  11.569
96133W        W62916  25.566  14.838  14.564
96134W        W62917  22.539  31.132  12.608
96135W        W62918  25.843   4.736   0.796
96136W        W62919  10.890  15.627   3.687
96137W        W62920  39.006   7.975   4.641
96138W        W62921  17.495  42.752  12.501
96139W        W62922  20.748  18.259  12.261
96140W        W62923  17.582  24.193   0.678
96141W        W62924  27.989   8.644  13.063
96142W        W62925  32.374  32.051  13.967
96143W        W62926  36.120  34.978   1.418
96144W        W62927  33.407  19.589   0.356
96145W        W62928  26.706   6.824  12.098
96146W        W62929   7.159  44.433  14.116
96147W        W62930   0.986  26.614  12.143
96148W        W62931   9.260  12.386   0.900
96149W        W62932  28.051  31.720  10.274
96150W        W62933   5.859   4.942  12.326
96151W        W62934  30.571  21.985   3.733
96152W        W62935   4.578  21.086   9.938
96153W        W62936  15.712  24.811  10.670
96154W        W62937  39.597   9.344   1.213
96155W        W62938  33.338  23.788   1.400
96156W        W62939  44.025  40.655   1.756
96157W        W62940   9.111  16.030  11.355
96158W        W62941  36.127  16.521  11.598
96159W        W62942   4.367   6.920   4.129
96160W        W62943  39.599  24.813  13.408
96161W        W62944  26.719  17.697   2.769
96162W        W62945   7.911  30.016   1.401
96163W        W62946  16.675  31.564  13.891
96164W        W62947  24.692  44.027   1.369
96165W        W62948  34.588   9.262  14.903
96166W        W62949   0.227  24.632  13.478
96167W        W62950   0.981  11.410  14.414
96168W        W62951  41.352   0.754   1.313
96169W        W62952  37.311  20.634  12.028
96170W        W62953  26.291   0.141  13.873
96171W        W62954  21.943  41.276  14.340
96172W        W62955  18.755  27.900   1.335
96173W        W62956  23.452  25.896   0.669
96174W        W62957  36.923  33.892   4.153
96175W        W62958  10.003  23.457   5.041
96176W        W62959   5.657  30.937  10.672
96177W        W62960  44.764  25.398   1.398
96178W        W62961  37.490  34.323   3.166
96179W        W62962  20.702  19.626   2.928
96180W        W62963   7.936  35.415  14.494
96181W        W62964  18.580  37.350  10.936
96182W        W62965  37.551  15.892   4.875
96183W        W62966   1.225  43.738  12.360
96184W        W62967   7.249  27.121  10.998
96185W        W62968  18.647  19.245  12.225
96186W        W62969  33.943  24.891   0.190
96187W        W62970  27.968  29.541   0.309
96188W        W62971   4.339  44.258   3.161
96189W        W62972  40.756  19.084   2.144
96190W        W62973  37.488  26.263   5.174
96191W        W62974  26.410  24.931   0.327
96192W        W62975   4.098  41.996  14.561
96193W        W62976  25.859  43.964   0.913
96194W        W62977  16.669  27.595   0.535
96195W        W62978  30.062  32.075   2.358
96196W        W62979  41.298  42.722   2.646
96197W        W62980   5.869  14.768  10.963
96198W        W62981   9.679  23.634  11.604
96199W        W62982  19.404  39.231   1.288
96200W        W62983  34.009  38.285   2.307
96201W        W62984  12.875  33.613   1.165
96202W        W62985  36.681  33.795  11.191
96203W        W62986  11.786  44.990  11.106
96204W        W62987  24.142   0.327   3.096
96205W        W62988  10.925  32.298   2.407
96206W        W62989  41.915  20.682   2.137
96207W        W62990  24.576  17.818  11.980
96208W        W62991   9.750  14.709   1.040
96209W        W62992   2.190  30.572  12.616
96210W        W62993  39.082  24.102   3.880
96211W        W62994  17.217   7.632  14.052
96212W        W62995  44.805  25.730  10.772
96213W        W62996  44.861  26.758  10.397
96214W        W62997  18.952  39.059  10.693
96215W        W62998  12.099  30.954  10.484
96216W        W62999  22.653   9.425  10.498
96217W        W63000  16.579   8.142   1.373
96218W        W63001  13.821   3.799   4.375
96219W        W63002  43.516  33.596   2.396
96220W        W63003  26.373  24.700  10.293
96221W        W63004  28.491  18.652   4.514
96222W        W63005  30.691  22.253   1.801
96223W        W63006  18.245   8.122  13.300
96224W        W63007  13.678  36.657  14.449
96225W        W63008  19.764  16.166   5.219
96226W        W63009  30.329  30.887   2.227
96227W        W63010  38.505  23.652   4.555
96228W        W63011  23.270  19.057  14.942
96229W        W63012  15.683  17.237  14.924
96230W        W63013  28.148  37.081  11.229
96231W        W63014  14.607   3.350   1.487
96232W        W63015  14.751  34.637  14.384
96233W        W63016  35.376   2.921   2.269
96234W        W63017  28.652   2.380   1.603
96235W        W63018  31.467  12.837  11.326
96236W        W63019  28.613   7.432  13.157
96237W        W63020  28.502   3.255  14.593
96238W        W63021  26.493  19.701   1.806
96239W        W63022  27.165  37.369  11.295
96240W        W63023  27.147   9.334  14.340
96241W        W63024  35.256  16.757   2.516
96242W        W63025   5.881  11.866  11.965
96243W        W63026  31.674  14.821   1.201
96244W        W63027  40.927   0.321  14.997
96245W        W63028  29.231  12.349   3.251
96246W        W63029  12.759   9.965   4.689
96247W        W63030  44.937  40.562   2.615
96248W        W63031  44.831  22.155   3.140
96249W        W63032  30.337   9.942   0.249
96250W        W63033  19.067  24.778   4.213
96251W        W63034  33.001  25.050   0.725
96252W        W63035   9.816  37.651  14.447
96253W        W63036  12.276  44.988  10.934
96254W        W63037  17.207  37.603  10.183
96255W        W63038  14.845  31.567   4.327
96256W        W63039  19.178  19.975  12.343
96257W        W63040  10.624  25.031   4.276
96258W        W63041   4.419  39.066   2.841
96259W        W63042   9.714  39.631   4.614
96260W        W63043  36.491  22.089  14.846
96261W        W63044  42.033  23.202  10.501
96262W        W63045  30.180  37.305   3.750
96263W        W63046   4.222  32.980  13.861
96264W        W63047  34.635  22.838   4.166
96265W        W63048  25.748  19.890  13.406
96266W        W63049  41.591  25.658   2.699
96267W        W63050  12.715  23.807   2.846
96268W        W63051  36.920  22.288  11.028
96269W        W63052   6.324  40.791  13.816
96270W        W63053  42.090   5.928   1.520
96271W        W63054   3.879  41.488  14.402
96272W        W63055  15.196  39.679   1.642
96273W        W63056  31.838  14.967  12.477
96274W        W63057  18.349  21.178   2.854
96275W        W63058  15.345   2.324  12.130
96276W        W63059  31.332  41.464   4.072
96277W        W63060  43.936  28.032   2.723
96278W        W63061  38.805  11.192  11.549
96279W        W63062  16.882   5.050   1.123
96280W        W63063  12.253  17.544   3.716
96281W        W63064  29.051  28.851  13.986
96282W        W63065  39.808  13.161   1.429
96283W        W63066  11.239  16.628   1.405
96284W        W63067  40.287  13.771  11.540
96285W        W63068  30.409   0.343   3.593
96286W        W63069  33.441  30.672  11.930
96287W        W63070  32.108  35.966  12.901
96288W        W63071   6.269  32.528   2.692
96289W        W63072   9.619  23.626  12.551
96290W        W63073  22.355  10.211  13.772
96291W        W63074  15.667  33.306   4.201
96292W        W63075  14.134  18.281  10.849
96293W        W63076  21.753  12.920   0.308
96294W        W63077  22.619   7.430   3.325
96295W        W63078  10.848  25.316  14.505
96296W        W63079  24.550  10.574  12.390
96297W        W63080  36.549   9.799  12.054
96298W        W63081  35.564  44.460   2.082
96299W        W63082  44.586  10.741   4.510
96300W        W63083   7.968   8.397  11.176
96301W        W63084   2.624  36.477  11.567
96302W        W63085  31.002  14.170   2.154
96303W        W63086  13.701  13.817   2.337
96304W        W63087  27.957   2.246  11.951
96305W        W63088  41.306  44.132  11.513
96306W        W63089  18.078  14.314  14.475
96307W        W63090   0.169   5.775   3.770
96308W        W63091  33.655  14.718   3.341
96309W        W63092  33.145  30.251  11.149
96310W        W63093  42.190   2.180   4.113
96311W        W63094  14.837  28.175   2.330
96312W        W63095  10.227  39.494  12.003
96313W        W63096   8.648  37.870  14.708
96314W        W63097  13.090  29.032  14.434
96315W        W63098  41.215  40.450  12.567
96316W        W63099  12.961  33.416  11.707
96317W        W63100  17.527  19.959  12.934
96318W        W63101  35.881   2.510   0.381
96319W        W63102  10.948  21.035  11.832
96320W        W63103  35.324   8.766   4.145
96321W        W63104   7.852  25.102  12.482
96322W        W63105  24.742  28.576   3.853
96323W        W63106  38.197  23.898  11.147
96324W        W63107  33.572  30.023   4.042
96325W        W63108   9.259  27.666  14.901
96326W        W63109  37.478  35.367   2.898
96327W        W63110   1.899   8.694  12.119
96328W        W63111  15.274  17.793  12.939
96329W        W63112  44.084  20.151   0.392
96330W        W63113  39.029  44.728   4.739
96331W        W63114  38.527  31.356  10.682
96332W        W63115   2.728   5.272   1.950
96333W        W63116   1.131  16.655  14.700
96334W        W63117  28.836   9.860  11.471
96335W        W63118  40.958  15.469  12.431
96336W        W63119  32.010   7.949   4.155
96337W        W63120  36.910   6.454   1.489
96338W        W63121  20.251  32.622  12.996
96339W        W63122  36.064  23.455  11.889
96340W        W63123  38.185  12.867   2.708
96341W        W63124   2.414  17.783  11.114
96342W        W63125  12.833  18.470   0.931
96343W        W63126   9.394  12.597   4.118
96344W        W63127   7.510  44.646  11.757
96345W        W63128  33.486  33.673   3.207
96346W        W63129  17.178  24.859   3.670
96347W        W63130   4.409  24.477  12.846
96348W        W63131   5.825  40.499  11.076
96349W        W63132  42.061   5.371   4.528
96350W        W63133  26.316   4.396  12.710
96351W        W63134  44.795  32.869   3.701
96352W        W63135  16.338  23.122   1.862
96353W        W63136  27.270  36.275   2.957
96354W        W63137  15.880  29.081  12.629
96355W        W63138  15.931  19.535   3.685
96356W        W63139  20.914   2.007   1.898
96357W        W63140  26.755  28.707   3.597
96358W        W63141  32.594  21.609  14.809
96359W        W63142  28.741  39.725  14.433
96360W        W63143  22.454  40.277  13.918
96361W        W63144  12.708  27.711  14.789
96362W        W63145   8.204  42.782  12.902
96363W        W63146  27.620   0.189  12.157
96364W        W63147   7.311  27.656  14.017
96365W        W63148  38.908   0.224  11.186
96366W        W63149  30.059  38.009   2.009
96367W        W63150  10.846  40.847  11.975
96368W        W63151  30.569  22.624   2.866
96369W        W63152   9.437  10.838  14.876
96370W        W63153  37.593   9.483  12.001
96371W        W63154  33.560  16.313   4.418
96372W        W63155  16.564  26.926  11.173
96373W        W63156  27.202  27.136   4.835
96374W        W63157   8.818  15.984  12.605
96375W        W63158  12.648  38.284   4.542
96376W        W63159  44.816  28.996  10.657
96377W        W63160  19.998  22.564   1.295
96378W        W63161   3.801  34.902   0.791
96379W        W63162  22.725   5.209   0.774
96380W        W63163  33.501  12.439   2.684
96381W        W63164  42.885  12.356  12.639
96382W        W63165   8.616   2.378   4.090
96383W        W63166  22.322  17.418  14.995
96384W        W63167  31.313  11.421   0.499
96385W        W63168  25.673  28.437   5.191
96386W        W63169   0.954  41.858  13.653
96387W        W63170  40.547  18.994   0.874
96388W        W63171  18.628  18.661  14.940
96389W        W63172  23.392  44.438  12.664
96390W        W63173  35.624   8.336  12.163
96391W        W63174  22.204  36.233  11.052
96392W        W63175  26.147   1.122  11.751
96393W        W63176  35.002   2.479   0.514
96394W        W63177   7.688  40.525  12.428
96395W        W63178  32.621  30.856  10.752
96396W        W63179  13.302  38.491   3.664
96397W        W63180   0.459   4.538  11.773
96398W        W63181  37.533  31.379   3.891
96399W        W63182  38.780   3.312   3.882
96400W        W63183  43.102  20.359  10.524
96401W        W63184  37.825   2.975  12.492
96402W        W63185  18.255  12.331   3.604
96403W        W63186  34.235   7.940   2.079
96404W        W63187  18.778  10.191  12.448
96405W        W63188  12.102  23.670  12.209
96406W        W63189  19.010  41.323  13.869
96407W        W63190   2.211   8.843   0.242
96408W        W63191   4.135  42.394   3.324
96409W        W63192  41.013  27.386   2.706
96410W        W63193  22.619  33.419   0.447
96411W        W63194  39.996  17.133   0.954
96412W        W63195  15.588  43.445  13.545
96413W        W63196  15.515  37.854   1.912
96414W        W63197  23.659  17.083  12.378
96415W        W63198  31.020  21.523   0.868
96416W        W63199  27.580  12.070  10.609
96417W        W63200  30.872  17.361  12.144
96418W        W63201  12.404  35.563   0.457
96419W        W63202  39.302   0.165   4.630
96420W        W63203   6.358  20.436  14.966
96421W        W63204  17.013  39.004   1.733
96422W        W63205  27.086  41.855  11.538
96423W        W63206  25.707   9.626  11.209
96424W        W63207   2.255   9.762  14.010
96425W        W63208  34.300   4.182  11.621
96426W        W63209   2.668   6.270  11.147
96427W        W63210  44.499  18.793   1.380
96428W        W63211  27.819  23.638  14.875
96429W        W63212  24.319  34.246  12.343
96430W        W63213   3.757   0.481   0.909
96431W        W63214  30.582  29.777   1.708
96432W        W63215  22.184  20.813  10.618
96433W        W63216  23.471  30.997  12.585
96434W        W63217   1.488  14.843  14.978
96435W        W63218  36.310  38.430  12.436
96436W        W63219  39.812  15.110  11.158
96437W        W63220  39.749   9.378  11.949
96438W        W63221  15.427   4.081  11.090
96439W        W63222  35.395  15.976   3.620
96440W        W63223  30.602  32.638   1.918
96441W        W63224   4.406  42.117  13.181
96442W        W63225  43.410   4.804  14.565
96443W        W63226   9.497  35.427  12.017
96444W        W63227  16.076  35.126   4.335
96445W        W63228  29.597  17.480  12.029
96446W        W63229  20.862  38.586   4.134
96447W        W63230  43.574  33.370   1.431
96448W        W63231  43.219  30.889   4.730
96449W        W63232  12.244  27.858   1.676
96450W        W63233  37.888  26.435   4.475
96451W        W63234  28.383   8.311  12.117
96452W        W63235  17.688  34.349   2.925
96453W        W63236  16.094  29.302   0.775
96454W        W63237   9.913   7.339  14.367
96455W        W63238   3.531   9.670   0.907
96456W        W63239  30.042  32.664  10.773
96457W        W63240  38.528  14.832  13.216
96458W        W63241  44.399  34.164  10.765
96459W        W63242  12.778   3.304   2.912
96460W        W63243  43.778  37.969  14.458
96461W        W63244  34.711  35.995   3.066
96462W        W63245   0.099  36.629   0.943
96463W        W63246  10.796   8.394   3.643
96464W        W63247   6.170  27.671   4.211
96465W        W63248  17.064  24.023   0.878
96466W        W63249  12.166  22.247  12.667
96467W        W63250  37.253  35.395  13.174
96468W        W63251   8.207  17.518  11.557
96469W        W63252  30.190  23.082  13.405
96470W        W63253  21.611  42.970   0.335
96471W        W63254  13.356  19.936  13.282
96472W        W63255  34.588   9.207   4.724
96473W        W63256  25.907  24.575   3.445
96474W        W63257   3.521  33.081  13.400
96475W        W63258  43.861  14.239  13.492
96476W        W63259  27.499  27.241   2.791
96477W        W63260  34.913  40.013  10.795
96478W        W63261   4.211  10.732   4.609
96479W        W63262  30.174   4.859  13.189
96480W        W63263  13.363   9.901   4.084
96481W        W63264  19.542  13.032   0.900
96482W        W63265  10.439  33.636  11.158
96483W        W63266  41.492  31.737  14.456
96484W        W63267  32.406   7.103  14.787
96485W        W63268   8.650   1.270   4.167
96486W        W63269  34.199  12.205  14.591
96487W        W63270  33.510  21.736   4.180
96488W        W63271   2.719  16.125  14.459
96489W        W63272  23.046  18.540   4.315
96490W        W63273  12.062  32.660  11.067
96491W        W63274  21.668  26.903  14.681
96492W        W63275   4.385   5.774  13.795
96493W        W63276  34.088   0.900   3.296
96494W        W63277  42.586  32.533   2.300
96495W        W63278  10.777   9.426  14.864
96496W        W63279  14.635  35.379   0.830
96497W        W63280  24.552  19.120  13.616
96498W        W63281   3.197  37.279   1.883
96499W        W63282  19.880   9.459   4.308
96500W        W63283  42.127  35.361   2.791
96501W        W63284   4.459  12.732   3.307
96502W        W63285   6.405   2.327  13.959
96503W        W63286  42.711  42.506  13.391
96504W        W63287  31.520   3.060  11.628
96505W        W63288   4.161  17.890   0.132
96506W        W63289  27.862  38.313   3.527
96507W        W63290  22.223  27.103  13.405
96508W        W63291  29.111  30.597   3.360
96509W        W63292  18.554  31.240  12.869
96510W        W63293  29.485  40.939   3.600
96511W        W63294   0.880  34.002  11.254
96512W        W63295  20.768  12.926   1.255
96513W        W63296  22.074  14.866   0.792
96514W        W63297  38.414   2.946  12.519
96515W        W63298  24.458   0.757  13.473
96516W        W63299  37.666  44.827   0.766
96517W        W63300  12.171  20.834  13.440
96518W        W63301  30.188  26.588  13.983
96519W        W63302  19.998  22.204  11.216
96520W        W63303   9.785  19.310   3.756
96521W        W63304  21.705  35.816  14.381
96522W        W63305  22.564  20.805  14.337
96523W        W63306  31.883   9.148  13.539
96524W        W63307  18.047  39.175  10.603
96525W        W63308  41.796  29.061  11.188
96526W        W63309  35.604   8.809  14.424
96527W        W63310  43.041  17.850   1.957
96528W        W63311  27.951  23.577  10.288
96529W        W63312  31.846   4.635   4.088
96530W        W63313  32.515   9.784  13.640
96531W        W63314  33.924   4.312   1.182
96532W        W63315  30.970  36.069   0.352
96533W        W63316  34.107   3.774  11.386
96534W        W63317   9.671  13.917  11.596
96535W        W63318   2.226  43.312  12.551
96536W        W63319  44.269  24.147  13.886
96537W        W63320  37.056  22.810   0.837
96538W        W63321  32.579  43.893   1.734
96539W        W63322  37.877  12.369   1.393
96540W        W63323   5.230  37.467   2.691
96541W        W63324  11.801  30.905   3.389
96542W        W63325  11.854  38.666  11.991
96543W        W63326  22.522  10.433  11.594
96544W        W63327  26.760  10.103   1.387
96545W        W63328   6.906   4.190   0.912
96546W        W63329  17.290  36.382   4.649
96547W        W63330   6.220  41.116   3.675
96548W        W63331  42.168  18.564  12.881
96549W        W63332  19.818  12.344  13.847
96550W        W63333  23.198  35.970   1.644
96551W        W63334  13.297  22.003  13.477
96552W        W63335   3.764  37.076  11.149
96553W        W63336  43.233  12.937  12.005
96554W        W63337   8.778   2.401  14.034
96555W        W63338   1.357  21.040   3.215
96556W        W63339  36.209  19.585   2.350
96557W        W63340  41.907  31.599  10.614
96558W        W63341  31.782  16.343  13.993
96559W        W63342   9.414  32.677  12.378
96560W        W63343  11.657  31.590  13.547
96561W        W63344  25.141   5.659   2.529
96562W        W63345  10.411  15.851   3.649
96563W        W63346  33.920  27.557   4.635
96564W        W63347  36.088  12.263   3.798
96565W        W63348  17.054  10.142  14.053
96566W        W63349  27.989  36.560  14.345
96567W        W63350  31.987   5.258   3.461
96568W        W63351  15.093  40.528  14.633
96569W        W63352   3.989  16.646   3.131
96570W        W63353   9.387  31.860   0.024
96571W        W63354  12.922   4.342   4.166
96572W        W63355  41.397  32.406  12.824
96573W        W63356   6.267  34.789  10.641
96574W        W63357  17.416  10.334  11.908
96575W        W63358  42.736   5.202  11.869
96576W        W63359  34.488   5.013  10.283
96577W        W63360  31.638  17.175   1.721
96578W        W63361  10.156  34.792  10.572
96579W        W63362  33.475  22.454  14.802
96580W        W63363  34.946  37.599   1.227
96581W        W63364  19.776  23.978  12.756
96582W        W63365  30.983  39.547  14.582
96583W        W63366  23.714  18.479   3.282
96584W        W63367   5.407   2.388  10.771
96585W        W63368  30.987  39.596   0.507
96586W        W63369  15.815  22.068  11.100
96587W        W63370   0.980  20.729   5.522
96588W        W63371  21.097  35.614   0.345
96589W        W63372  30.247  32.468   4.652
96590W        W63373   8.567  27.437  11.119
96591W        W63374   1.985  44.934  11.678
96592W        W63375  34.841  18.220   3.745
96593W        W63376   6.431  18.620  13.814
96594W        W63377  27.021  28.761   2.436
96595W        W63378  38.967  28.126   1.972
96596W        W63379  18.575   9.153  12.970
96597W        W63380  30.628  43.017  13.029
96598W        W63381  10.643  35.577  14.868
96599W        W63382  22.701  19.268   1.228
96600W        W63383  30.343  30.486   1.345
96601W        W63384  42.568  14.254   2.815
96602W        W63385  28.552  36.302   1.243
96603W        W63386  19.106   3.245  10.436
96604W        W63387   2.019  42.459  13.001
96605W        W63388  27.951  34.662   0.910
96606W        W63389  33.714  35.315  14.827
96607W        W63390  16.324  21.480   4.692
96608W        W63391   8.122  33.297   4.101
96609W        W63392  11.288  36.175   3.562
96610W        W63393  20.474   9.795  11.636
96611W        W63394  16.664  41.017  10.470
96612W        W63395  35.115  22.725  11.632
96613W        W63396  26.621  42.169  13.407
96614W        W63397  41.068  44.784  10.573
96615W        W63398   2.728  13.491   1.496
96616W        W63399  27.014  13.057  11.255
96617W        W63400   5.153  40.547  10.736
96618W        W63401  20.100  33.798  12.869
96619W        W63402  44.627  36.474  14.809
96620W        W63403   8.377  35.415   3.648
96621W        W63404  33.519  40.152  11.615
96622W        W63405  30.100   6.101   1.733
96623W        W63406  44.320  25.653  12.509
96624W        W63407  35.564  28.654   4.535
96625W        W63408  37.258   6.798   4.838
96626W        W63409  30.606  13.231   4.096
96627W        W63410  17.231  27.997   1.898
96628W        W63411  20.527  27.379  11.132
96629W        W63412  40.281   9.365   1.811
96630W        W63413  35.609  31.501   4.079
96631W        W63414  12.084   8.173  13.040
96632W        W63415   7.293  14.606   0.510
96633W        W63416  10.798  25.221  11.977
96634W        W63417  25.657   9.581   1.425
96635W        W63418  17.970  25.042  14.778
96636W        W63419   8.190   4.039  14.619
96637W        W63420  21.823  34.627  11.631
96638W        W63421  33.612  38.452  14.981
96639W        W63422  14.560  30.378   0.730
96640W        W63423  16.614  20.945  11.105
96641W        W63424  34.925  38.420  12.006
96642W        W63425  23.304  28.424  12.949
96643W        W63426  42.488  26.323   1.380
96644W        W63427   5.938  20.955   0.441
96645W        W63428  34.404  42.707  10.765
96646W        W63429  42.469  15.178   4.217
96647W        W63430  32.620   9.376   0.364
96648W        W63431   2.957  29.651  14.474
96649W        W63432   4.378  36.145  11.151
96650W        W63433  40.020  41.249   0.971
96651W        W63434   3.516   6.868   0.404
96652W        W63435  15.599  11.703  13.071
96653W        W63436  40.884  26.676  14.452
96654W        W63437  16.587  27.878   1.782
96655W        W63438  35.090  32.119  14.651
96656W        W63439   3.206  43.765   0.888
96657W        W63440  22.757  12.772   2.251
96658W        W63441  15.828  22.563  11.243
96659W        W63442   4.312  20.841  13.972
96660W        W63443   4.138  38.106  11.141
96661W        W63444  16.840  39.046   4.500
96662W        W63445  29.914   1.773  14.946
96663W        W63446   1.665  15.048   4.007
96664W        W63447  16.074  31.040   4.648
96665W        W63448  35.763  30.472   4.786
96666W        W63449   7.256  20.950   0.303
96667W        W63450  15.497   9.087   0.855
96668W        W63451   1.285  31.611  10.972
96669W        W63452   3.810  37.952   0.456
96670W        W63453   0.943  25.681   3.349
96671W        W63454  37.458   9.401   0.105
96672W        W63455   1.884   8.738  13.023
96673W        W63456  18.726  13.910  13.406
96674W        W63457  22.520  15.062   0.913
96675W        W63458  16.744  24.857   2.016
96676W        W63459   5.324   3.049  14.277
96677W        W63460  42.934  37.466  13.049
96678W        W63461  43.988  30.446  10.904
96679W        W63462  12.273  37.053  13.781
96680W        W63463  12.789   6.013   0.895
96681W        W63464  18.016  27.919   2.601
96682W        W63465  28.224  22.283   1.306
96683W        W63466  12.059  24.679  11.063
96684W        W63467  41.470   3.713   4.186
96685W        W63468  24.783  17.146  10.759
96686W        W63469   1.366  27.641   3.590
96687W        W63470   0.502  15.112   5.351
96688W        W63471  20.677  23.001   4.688
96689W        W63472  40.977  27.107  12.288
96690W        W63473  32.156  32.278   3.282
96691W        W63474  17.993  44.908  11.380
96692W        W63475  11.226   5.210   2.632
96693W        W63476  31.458  33.691   1.320
96694W        W63477  35.927  27.962  10.785
96695W        W63478   9.843  35.577   0.293
96696W        W63479  41.609   3.699   0.308
96697W        W63480  38.022   6.676  14.450
96698W        W63481  19.280  37.917   2.574
96699W        W63482  10.867   2.326  10.237
96700W        W63483  19.766  43.251   0.666
96701W        W63484  11.712  40.594  14.419
96702W        W63485  20.261  43.875  14.433
96703W        W63486  22.620   8.794  14.888
96704W        W63487  29.702  10.221   2.315
96705W        W63488   4.287   9.966   2.804
96706W        W63489  43.939  26.989   3.628
96707W        W63490  29.084  32.862   1.775
96708W        W63491  26.978  31.467  13.154
96709W        W63492   8.336  36.263  13.881
96710W        W63493  27.153   3.376  11.987
96711W        W63494   4.148  42.846   4.341
96712W        W63495  31.142  36.632  12.007
96713W        W63496  17.046  34.826   2.379
96714W        W63497   5.495  35.006   3.291
96715W        W63498  40.436  22.648   3.558
96716W        W63499  13.357  35.018   3.857
96717W        W63500  35.055  16.782   0.194
96718W        W63501  27.875   0.657   3.338
96719W        W63502  21.061  33.959   4.667
96720W        W63503  42.968  16.225   1.752
96721W        W63504  23.252  17.335   3.703
96722W        W63505  39.436  35.060   4.974
96723W        W63506  37.065  41.750  14.865
96724W        W63507  23.069  22.046   1.874
96725W        W63508  36.123  44.013   2.642
96726W        W63509  33.567  22.873   9.892
96727W        W63510  13.114  38.897  12.204
96728W        W63511  37.706  27.885   1.677
96729W        W63512  34.508  36.876   1.877
96730W        W63513  31.963   3.324   3.862
96731W        W63514  33.808   6.978   1.401
96732W        W63515   3.998  27.338  12.323
96733W        W63516  37.668   2.535   4.445
96734W        W63517   3.211   5.438  14.008
96735W        W63518  26.889  40.280  14.779
96736W        W63519  21.851  18.191   0.013
96737W        W63520  36.949  27.585  14.894
96738W        W63521  22.484  28.604  10.273
96739W        W63522  42.418  38.577   1.625
96740W        W63523  35.869  27.537  14.722
96741W        W63524  38.930  20.737   4.060
96742W        W63525   8.294  37.438   4.548
96743W        W63526  32.337  29.162  14.004
96744W        W63527  20.010  40.879  13.399
96745W        W63528  16.732   6.732   4.119
96746W        W63529  26.526   0.930  11.420
96747W        W63530  16.072  39.030  13.432
96748W        W63531  16.529  36.210   5.116
96749W        W63532  11.196  35.665  13.492
96750W        W63533  23.713  28.473   3.813
96751W        W63534   1.723  11.353   0.499
96752W        W63535  26.066  42.983   9.691
96753W        W63536  34.164  22.605   1.862
96754W        W63537  41.022  30.900   1.242
96755W        W63538   5.118  29.437   0.956
96756W        W63539   6.460   5.700  12.982
96757W        W63540  31.692  36.003  14.925
96758W        W63541  15.654  15.200   2.468
96759W        W63542   2.217  31.668   3.391
96760W        W63543  38.667  43.525  13.845
96761W        W63544   6.591  41.935  14.565
96762W        W63545  43.053  16.804  11.110
96763W        W63546  44.087  39.261   0.378
96764W        W63547   2.981   5.914   4.217
96765W        W63548  27.220  30.900  11.986
96766W        W63549  34.321  21.395   3.274
96767W        W63550  40.675  37.298   1.914
96768W        W63551   6.269  42.530   1.173
96769W        W63552  13.159  26.619  11.871
96770W        W63553  36.083  24.176  13.032
96771W        W63554  11.252  40.089   3.429
96772W        W63555  25.202  12.061  14.814
96773W        W63556  15.156  21.740  14.021
96774W        W63557  39.343  19.179   4.696
96775W        W63558  37.724   8.138  14.640
96776W        W63559  11.912   9.942  12.580
96777W        W63560  44.030  36.354   3.181
96778W        W63561  12.110  34.524  14.923
96779W        W63562  39.729  38.078  12.210
96780W        W63563  21.608   1.141   3.930
96781W        W63564  18.356  11.293  13.790
96782W        W63565   7.159   6.878   0.840
96783W        W63566  24.251  13.357  13.405
96784W        W63567   2.662  18.685  11.561
96785W        W63568  31.687  39.900   4.578
96786W        W63569   7.668  24.545   0.738
96787W        W63570  39.810  32.696  13.383
96788W        W63571  40.567  27.663   2.878
96789W        W63572  13.585   8.686   9.917
96790W        W63573  33.050  34.043  14.431
96791W        W63574  16.002  40.699   0.438
96792W        W63575  22.124  25.121   0.307
96793W        W63576  18.478   5.463  14.826
96794W        W63577  17.631  36.678   2.526
96795W        W63578   5.853  16.686  12.643
96796W        W63579  31.423  20.820   0.856
96797W        W63580  26.441  18.955   4.216
96798W        W63581   8.458   0.977   0.290
96799W        W63582  37.646   1.556   2.252
96800W        W63583  21.333  28.198   4.965
96801W        W63584  25.452  13.695  12.454
96802W        W63585   8.031   8.426   3.940
96803W        W63586  34.329  12.127   1.032
96804W        W63587   4.033  36.868  10.696
96805W        W63588  30.656   1.144  12.464
96806W        W63589  41.424  12.887  12.958
96807W        W63590  17.617  22.102   2.388
96808W        W63591  34.923  22.182   4.183
96809W        W63592  34.021   6.786   0.667
96810W        W63593  25.077  21.206  14.735
96811W        W63594   8.769  26.257   0.785
96812W        W63595  32.443  18.626  12.530
96813W        W63596  12.341  13.747  12.770
96814W        W63597  33.095  31.843   3.348
96815W        W63598  14.398  11.767   1.055
96816W        W63599  37.443  30.925  14.949
96817W        W63600  41.807  15.874   5.125
96818W        W63601  43.051  11.288   0.791
96819W        W63602  27.558   6.231   0.037
96820W        W63603  15.614  42.215   0.912
96821W        W63604  25.986  11.259  13.410
96822W        W63605  24.746  35.350  13.858
96823W        W63606  30.183  13.838   0.222
96824W        W63607  22.593  15.583   5.066
96825W        W63608  21.808  33.476   2.758
96826W        W63609   5.655  25.940   4.079
96827W        W63610   5.830  24.246   3.628
96828W        W63611  12.991  44.524  12.006
96829W        W63612  17.296  16.014   5.344
96830W        W63613  35.245   7.040   1.424
96831W        W63614  36.577  31.095  14.452
96832W        W63615  21.715  33.410   0.286
96833W        W63616   2.902   2.025  12.967
96834W        W63617   6.264  29.070  14.040
96835W        W63618  27.086  39.965  12.096
96836W        W63619   2.178   8.706  14.729
96837W        W63620  31.660  17.867  12.358
96838W        W63621  30.171  24.552  12.481
96839W        W63622  12.065  43.938   4.896
96840W        W63623  27.244  42.311   5.304
96841W        W63624  24.142  36.807   1.390
96842W        W63625  29.446  28.779  13.502
96843W        W63626  13.124  38.121  14.334
96844W        W63627   3.249  16.425  12.990
96845W        W63628   3.797  17.078   2.830
96846W        W63629  40.974  17.557   3.209
96847W        W63630  36.370  41.414   5.077
96848W        W63631  25.123   8.873  10.473
96849W        W63632  41.397  40.388  14.411
96850W        W63633  41.927  44.587  10.801
96851W        W63634  11.625  40.207  10.047
96852W        W63635  11.591   4.448   4.755
96853W        W63636  40.363  19.159  11.062
96854W        W63637  32.390  32.876  12.242
96855W        W63638  37.606   5.209  12.948
96856W        W63639  37.372  12.499   3.605
96857W        W63640  34.905  18.031  12.154
96858W        W63641  35.484  39.937   1.088
96859W        W63642  22.266  42.930   2.877
96860W        W63643  10.901  28.010   0.147
96861W        W63644  32.620  26.970  14.362
96862W        W63645  27.690  21.121  11.105
96863W        W63646  39.654  43.352  11.238
96864W        W63647  42.979  44.511  13.154
96865W        W63648  11.123  18.580   0.011
96866W        W63649  21.549  30.300   1.363
96867W        W63650  34.598  32.617   2.233
96868W        W63651  40.753  38.843  13.560
96869W        W63652  13.375  26.528   2.508
96870W        W63653  18.058  27.881  13.864
96871W        W63654  12.543  19.548  13.387
96872W        W63655  10.100  17.772  14.830
96873W        W63656   3.420   6.701  11.168
96874W        W63657  12.740  42.240   4.617
96875W        W63658  13.182  16.114  13.838
96876W        W63659  41.810   4.354   0.913
96877W        W63660  39.069  33.793   4.131
96878W        W63661  25.271  24.517   1.200
96879W        W63662  14.406  25.166  11.079
96880W        W63663  41.060   6.841   2.212
96881W        W63664  13.896  30.712  11.034
96882W        W63665  13.242  10.284   4.896
96883W        W63666  18.260  33.854  13.402
96884W        W63667  20.046  19.546  14.806
96885W        W63668  17.210  14.303  13.064
96886W        W63669  41.738  12.661  11.201
96887W        W63670  42.992  11.693   3.728
96888W        W63671  19.565  15.309  13.629
96889W        W63672  26.568  28.657   0.004
96890W        W63673  17.313  29.632   1.364
96891W        W63674   0.569   6.688  10.570
96892W        W63675   6.863  14.632   0.792
96893W        W63676  43.844  42.268  13.495
96894W        W63677  39.523   6.281  12.954
96895W        W63678  15.069  32.871   2.831
96896W        W63679  17.313  18.079   1.393
96897W        W63680   6.673  40.984  14.198
96898W        W63681   7.828   4.395   0.351
96899W        W63682  24.756  17.452   1.841
96900W        W63683   8.733  34.083  12.418
96901W        W63684  32.060  29.408  11.537
96902W        W63685  33.324  19.502  12.487
96903W        W63686   0.072   7.384   2.291
96904W        W63687  12.896  38.134   4.988
96905W        W63688  21.644  13.571  13.792
96906W        W63689  41.277  11.760  11.979
96907W        W63690  38.522  11.396  11.164
96908W        W63691  20.313  15.678   3.152
96909W        W63692  44.467   9.336   1.359
96910W        W63693   4.166  42.276   0.002
96911W        W63694  21.645  41.458  13.564
96912W        W63695   7.200  20.909   3.209
96913W        W63696  38.301   6.600  12.338
96914W        W63697   6.335  41.432   4.083
96915W        W63698  24.571  27.966  12.541
96916W        W63699  28.952  17.254  14.372
96917W        W63700  23.327  23.348  13.537
96918W        W63701  35.473   9.646  10.985
96919W        W63702  11.907  25.698   1.420
96920W        W63703  37.649  38.069  12.614
96921W        W63704  19.148  27.713  12.505
96922W        W63705  12.556  16.105   3.252
96923W        W63706  31.651  31.599   3.252
96924W        W63707  23.171   9.347   2.099
96925W        W63708   2.385  42.954   3.927
96926W        W63709  44.081  16.347   0.420
96927W        W63710  42.908  15.873   2.137
96928W        W63711  43.209  42.585  14.279
96929W        W63712  24.190  24.219   4.210
96930W        W63713  34.955   4.046  12.936
96931W        W63714  39.964  31.140   3.738
96932W        W63715  21.682  42.316  12.538
96933W        W63716   9.666  32.174  14.436
96934W        W63717   8.790   6.057   4.418
96935W        W63718  18.729  38.968  14.359
96936W        W63719  21.213  42.073  11.548
96937W        W63720   1.511  44.998  11.488
96938W        W63721   9.777   6.242   2.033
96939W        W63722  10.751   1.454   0.310
96940W        W63723  40.433  32.150   4.682
96941W        W63724  34.935  34.408   0.740
96942W        W63725   4.949  16.664   5.189
96943W        W63726  17.327  44.523  11.007
96944W        W63727  39.836  36.942   1.775
96945W        W63728  15.997   4.203   3.232
96946W        W63729  43.074  22.706  12.587
96947W        W63730   0.586  31.086  14.221
96948W        W63731   0.825   0.738  14.315
96949W        W63732  23.331   1.703  13.272
96950W        W63733  27.033  29.568   4.677
96951W        W63734  30.973  39.023   0.467
96952W        W63735  20.858   1.146  14.006
96953W        W63736  12.311  14.161  14.881
96954W        W63737  22.602  27.217   2.197
96955W        W63738  42.311  40.023  13.804
96956W        W63739  10.258  35.094  10.956
96957W        W63740  35.354  33.194   4.572
96958W        W63741  11.913  37.121  11.958
96959W        W63742  40.699   7.377   4.334
96960W        W63743  17.200   9.077   1.821
96961W        W63744  41.742  30.777  13.379
96962W        W63745  16.222  26.226   3.227
96963W        W63746   3.996  25.109  14.029
96964W        W63747  37.971   1.389   2.739
96965W        W63748  25.070  12.336   1.963
96966W        W63749  38.165  40.981   1.943
96967W        W63750  14.521  34.468  10.261
96968W        W63751  22.716  43.881   3.384
96969W        W63752  35.592  42.827   4.092
96970W        W63753  17.731  12.510   1.843
96971W        W63754  27.666   5.347  12.292
96972W        W63755   4.779  36.116   1.448
96973W        W63756   9.160  43.957  12.125
96974W        W63757   2.027  43.804  12.500
96975W        W63758   2.870  38.087  14.657
96976W        W63759  32.154  22.597  13.908
96977W        W63760  11.274  32.608  11.961
96978W        W63761   9.167   6.838   2.127
96979W        W63762   7.254   0.520  13.393
96980W        W63763  17.231  18.500  14.713
96981W        W63764  13.097  12.073   0.034
96982W        W63765  20.138  23.164  13.113
96983W        W63766  11.212   2.030  14.399
96984W        W63767   7.763   4.291  14.821
96985W        W63768  39.727  24.724   0.465
96986W        W63769  24.731  42.556  10.691
96987W        W63770  17.255  20.783  12.955
96988W        W63771   2.286  35.322  11.070
96989W        W63772  41.056   2.850  14.802
96990W        W63773  26.264  43.491  13.745
96991W        W63774  35.522  18.332  11.879
96992W        W63775  42.680  27.458  14.139
96993W        W63776  23.545  39.926   5.106
96994W        W63777  10.122   5.860   0.946
96995W        W63778  30.070   8.664   1.791
96996W        W63779  44.242   6.394   2.894
96997W        W63780  42.446  13.677   1.019
96998W        W63781  22.409  23.110  13.491
96999W        W63782  38.450  31.441   4.551
97000W        W63783  26.610   5.376   4.643
97001W        W63784  26.892   2.265  12.575
97002W        W63785   9.628   0.743   3.294
97003W        W63786  36.897  29.989   0.274
97004W        W63787  13.287  11.903  11.984
97005W        W63788  13.645   7.882  12.478
97006W        W63789  24.153   3.825  13.271
97007W        W63790   3.643   5.473  12.338
97008W        W63791   6.252  17.583  11.558
97009W        W63792  39.942  41.956   2.265
97010W        W63793   1.055  27.971   4.210
97011W        W63794   8.376  31.984  10.536
97012W        W63795  27.932   9.719  11.645
97013W        W63796  31.165   8.103   4.167
97014W        W63797   8.036   2.912   4.275
97015W        W63798   8.250  18.049   2.223
97016W        W63799  12.611  43.306  12.612
97017W        W63800   7.806   1.603  11.715
97018W        W63801  25.107  35.089   1.293
97019W        W63802  23.001  26.226  12.635
97020W        W63803  11.718  36.814   2.260
97021W        W63804  29.644  33.499  13.512
97022W        W63805   7.698  19.820   2.650
97023W        W63806  35.619  19.805   4.280
97024W        W63807  12.194   6.798   1.834
97025W        W63808  22.788  19.542  13.888
97026W        W63809  23.427  38.286  11.778
97027W        W63810  11.900  22.804   1.505
97028W        W63811   7.873   3.360   3.283
97029W        W63812  43.227  42.548   0.171
97030W        W63813  18.218  22.475  12.348
97031W        W63814  38.666   5.118  13.294
97032W        W63815  33.700  41.380  12.429
97033W        W63816   4.622   6.626   2.408
97034W        W63817   3.654  20.982  13.415
97035W        W63818  29.405  21.075   3.876
97036W        W63819  25.204  15.593  11.098
97037W        W63820   9.719  19.189   0.725
97038W        W63821  14.550  11.286  10.776
97039W        W63822   0.824  38.357   2.495
97040W        W63823   0.842  16.174  14.904
97041W        W63824  22.554  13.855  12.636
97042W        W63825   8.503  25.007   1.448
97043W        W63826  22.166  24.405   0.851
97044W        W63827  26.261  35.104  12.838
97045W        W63828  20.742   8.241   4.353
97046W        W63829  11.066  15.721   0.847
97047W        W63830  36.773  37.438   0.047
97048W        W63831  27.439  15.279   0.222
97049W        W63832  18.555   2.737  11.737
97050W        W63833  40.979  41.775   4.316
97051W        W63834  11.759  40.404  13.088
97052W        W63835   1.831   4.411  11.953
97053W        W63836  15.576   0.570  11.431
97054W        W63837  19.409   4.681   4.128
97055W        W63838  38.388  29.988   2.359
97056W        W63839  29.867  24.343  10.976
97057W        W63840  19.775   5.264  13.021
97058W        W63841  36.576  28.926   2.563
97059W        W63842  25.624  42.513  11.893
97060W        W63843   5.893   9.362   2.203
97061W        W63844  36.937   4.221   1.941
97062W        W63845  33.743  23.228  12.073
97063W        W63846  44.473  21.618  12.539
97064W        W63847  18.539  36.545   3.156
97065W        W63848  23.053   6.418   4.089
97066W        W63849  11.080  34.042  11.638
97067W        W63850  28.475  27.803   1.478
97068W        W63851  29.562  36.940  11.785
97069W        W63852  32.087  35.516   3.278
97070W        W63853  18.061  25.372  14.412
97071W        W63854  27.511  13.374   1.000
97072W        W63855  40.758   3.280  14.957
97073W        W63856  10.582  43.541   2.783
97074W        W63857  42.628  17.265  10.309
97075W        W63858   4.682   4.340  10.800
97076W        W63859  18.136  42.918   4.182
97077W        W63860  17.709  29.872  13.870
97078W        W63861  18.748  20.043   2.388
97079W        W63862  26.143   3.830  14.749
97080W        W63863  19.904  43.197   3.125
97081W        W63864  25.688  14.319  13.008
97082W        W63865  27.618  34.767   3.701
97083W        W63866   0.161  38.977  14.837
97084W        W63867  37.557  34.073  11.614
97085W        W63868   7.579  38.428   4.757
97086W        W63869  18.225  24.727  12.140
97087W        W63870  39.803  41.486  12.191
97088W        W63871   3.431  37.009  14.282
97089W        W63872  31.716   5.899   1.374
97090W        W63873  11.112  42.330   4.839
97091W        W63874   0.836   7.146   2.724
97092W        W63875  23.007  27.077   0.360
97093W        W63876  16.414  24.263   3.336
97094W        W63877  31.558  13.752   0.720
97095W        W63878  28.189  36.901   2.097
97096W        W63879  31.991   9.678  13.500
97097W        W63880  23.457   5.263   5.404
97098W        W63881  22.502  30.556   3.223
97099W        W63882   9.166  28.983   1.282
97100W        W63883  26.653  15.811  11.990
97101W        W63884  24.156  39.320   3.729
97102W        W63885  14.315  35.590   0.427
97103W        W63886  39.237  14.535   0.707
97104W        W63887  26.200  15.674   0.157
97105W        W63888  16.201   4.761   2.658
97106W        W63889   0.496  34.109   3.575
97107W        W63890   1.674  13.776   0.210
97108W        W63891  16.296  43.909  14.776
97109W        W63892   0.771  17.321  14.052
97110W        W63893  28.533  11.635   0.494
97111W        W63894  37.572  13.654  12.000
97112W        W63895  38.994  21.134   0.542
97113W        W63896  15.372  21.914   2.672
97114W        W63897  14.152  42.202   2.691
97115W        W63898  27.050  27.078  13.278
97116W        W63899  37.777   8.857   2.286
97117W        W63900  16.831  31.920   2.781
97118W        W63901  36.122  23.010   1.903
97119W        W63902  21.136   4.640  13.910
97120W        W63903   1.246  12.651   2.343
97121W        W63904  30.381  23.637  13.422
97122W        W63905  15.797  44.863  13.798
97123W        W63906  31.534  21.755  14.221
97124W        W63907  38.411  34.158   2.902
97125W        W63908  32.302  33.632  12.605
97126W        W63909   8.336  25.168  10.184
97127W        W63910  39.593  40.293   2.735
97128W        W63911   8.772  27.224   0.955
97129W        W63912  16.688  29.517   3.322
97130W        W63913  16.554  21.734   0.418
97131W        W63914  41.065  34.098   3.716
97132W        W63915   4.179  31.128   1.741
97133W        W63916  23.046  28.682  11.568
97134W        W63917  30.904  33.873  11.380
97135W        W63918  22.294  26.605  13.473
97136W        W63919  39.456  10.722   2.333
97137W        W63920  16.338  15.401   2.867
97138W        W63921  16.538   7.686   0.549
97139W        W63922   8.210  43.847   0.443
97140W        W63923  19.282  36.902   4.632
97141W        W63924   6.376   8.316   4.735
97142W        W63925   8.742   5.036   0.509
97143W        W63926  32.016  27.487   9.986
97144W        W63927  24.942  23.755   2.447
97145W        W63928  17.235  13.182   0.229
97146W        W63929  30.187   1.290   1.432
97147W        W63930  37.101  26.941   4.911
97148W        W63931   7.359  20.173  11.092
97149W        W63932  25.060  12.894   0.198
97150W        W63933   7.708   1.391  14.254
97151W        W63934   9.699  28.127   4.125
97152W        W63935  43.203   6.251  10.196
97153W        W63936  35.663  34.710  10.830
97154W        W63937  37.987   6.562  13.033
97155W        W63938  29.621  24.204   3.071
97156W        W63939  23.524   0.410   2.852
97157W        W63940  36.101  34.386  12.100
97158W        W63941  17.698  37.559   1.957
97159W        W63942  37.473  10.096  14.296
97160W        W63943  37.351  14.357  10.710
97161W        W63944  26.138  15.699  13.456
97162W        W63945  27.801  14.682  14.381
97163W        W63946  17.965  35.114  13.535
97164W        W63947  41.799  42.483   2.484
97165W        W63948  35.855  23.523   4.675
97166W        W63949  19.985  29.102  13.769
97167W        W63950  17.550  27.271   3.266
97168W        W63951  32.916  27.124  12.088
97169W        W63952  38.903  43.838   2.989
97170W        W63953  29.481   1.731   2.834
97171W        W63954  26.292  20.006  14.917
97172W        W63955   8.575   1.506  13.803
97173W        W63956  24.091  18.929   0.478
97174W        W63957  38.583  25.624  13.801
97175W        W63958  37.013   0.041  11.171
97176W        W63959   7.224  23.889  10.865
97177W        W63960  17.345  35.658   4.158
97178W        W63961  23.521  43.249   1.811
97179W        W63962  43.077  11.802   0.700
97180W        W63963  34.917  10.850   4.826
97181W        W63964  12.873  14.184  12.915
97182W        W63965   1.668  11.322  13.069
97183W        W63966  11.299  27.722  14.915
97184W        W63967   8.856  12.716   0.811
97185W        W63968  41.017   4.259  10.418
97186W        W63969  10.583   1.714  11.687
97187W        W63970  10.302  18.588   1.931
97188W        W63971  37.690  10.182  12.324
97189W        W63972  37.597  11.557   5.042
97190W        W63973   8.862   0.896  14.349
97191W        W63974  10.984   6.261  10.175
97192W        W63975  26.607  21.554   1.652
97193W        W63976  37.427  42.431   2.945
97194W        W63977  15.848  36.516  14.927
97195W        W63978  41.162   4.093   4.048
97196W        W63979  41.047  36.015  14.377
97197W        W63980   1.070  39.992   0.366
97198W        W63981  39.379  25.791  13.389
97199W        W63982  13.323  16.092  11.772
97200W        W63983   6.210   5.360  14.499
97201W        W63984  21.859  42.946  14.796
97202W        W63985  15.132   9.547  14.009
97203W        W63986  24.915  30.965   4.227
97204W        W63987  31.622   7.345   4.099
97205W        W63988  11.339   0.469  12.629
97206W        W63989  43.324  40.541   0.371
97207W        W63990  28.661   7.090   3.819
97208W        W63991  31.548  39.964   1.942
97209W        W63992  26.196   8.736  14.482
97210W        W63993  20.069  13.149   4.818
97211W        W63994   6.836  17.180   0.344
97212W        W63995  36.374  30.926   2.179
97213W        W63996  40.335   5.807   1.758
97214W        W63997  10.158   2.308   3.677
97215W        W63998  21.450   3.624   2.267
97216W        W63999  18.199   4.446   2.410
97217W        W64000   3.359  19.248   2.344
97218W        W64001  35.121  23.498   4.547
97219W        W64002  41.552  37.995   3.371
97220W        W64003  11.734   4.710   1.453
97221W        W64004  28.220  10.219   2.677
97222W        W64005  15.598  19.864  10.115
97223W        W64006  11.772  20.115   2.850
97224W        W64007  36.025  10.819  11.127
97225W        W64008  35.056  44.709  14.451
97226W        W64009  10.774   2.241   4.550
97227W        W64010  25.646  39.760  14.019
97228W        W64011  21.970   6.145  13.262
97229W        W64012  36.121  11.808  14.859
97230W        W64013  40.097  28.511   2.774
97231W        W64014  44.990  18.070  10.702
97232W        W64015   5.605  26.225   1.794
97233W        W64016  26.691  22.300   1.349
97234W        W64017   6.831   1.485   1.417
97235W        W64018  11.097  16.390  11.324
97236W        W64019  14.532  12.071  11.130
97237W        W64020  20.115  11.260   2.438
97238W        W64021  38.463  30.003   0.495
97239W        W64022  12.885  40.317  13.983
97240W        W64023   3.388   3.669   0.386
97241W        W64024  22.280   5.725  13.219
97242W        W64025  14.734  14.714  14.327
97243W        W64026  44.057  15.628  10.387
97244W        W64027  27.387  28.555   3.227
97245W        W64028  27.636  41.651   3.063
97246W        W64029   5.386   7.643   4.099
97247W        W64030   7.753  41.233  13.976
97248W        W64031  23.818  14.682   3.577
97249W        W64032   2.155  14.187  14.973
97250W        W64033  37.374  37.537   4.054
97251W        W64034  11.080  39.184   4.473
97252W        W64035  31.826  44.381   0.136
97253W        W64036  19.783   8.809   3.121
97254W        W64037  18.485  20.535   4.841
97255W        W64038  17.016  33.925   3.291
97256W        W64039  32.012  15.620  13.833
97257W        W64040   7.637  10.801  11.530
97258W        W64041  21.090   5.395  13.329
97259W        W64042  40.225  41.980  10.664
97260W        W64043  39.309  34.510   3.233
97261W        W64044  20.639   5.132  13.163
97262W        W64045  20.996   7.908  12.506
97263W        W64046  18.799  38.952   0.798
97264W        W64047  27.519  14.933   0.982
97265W        W64048  43.311  37.405  10.184
97266W        W64049  34.138   1.268  14.698
97267W        W64050   9.268   4.225  13.898
97268W        W64051  23.776  10.179   4.181
97269W        W64052  25.227  38.419   0.238
97270W        W64053  17.645   8.844  11.888
97271W        W64054   7.846  44.474  14.959
97272W        W64055   3.299  28.521  13.872
97273W        W64056  27.213  24.552  10.644
97274W        W64057   9.610   7.820   0.785
97275W        W64058  20.012  18.318   0.807
97276W        W64059  20.099   5.336   2.091
97277W        W64060   6.401  17.265   2.732
97278W        W64061  34.867  44.359   1.369
97279W        W64062   4.484  32.542   3.557
97280W        W64063  32.995  39.294   2.156
97281W        W64064  28.357  32.901   1.233
97282W        W64065  27.715  16.819  11.481
97283W        W64066  37.789  11.931  14.264
97284W        W64067  27.976   2.324   0.336
97285W        W64068  33.068  10.802  14.509
97286W        W64069  43.248   5.355   5.028
97287W        W64070  17.237  18.743   0.163
97288W        W64071  32.301   8.671   4.709
97289W        W64072  18.052   7.282  13.091
97290W        W64073  34.983  33.657  10.293
97291W        W64074  24.035  41.817  14.922
97292W        W64075  42.951  28.566   1.292
97293W        W64076  15.508  30.625   1.899
97294W        W64077  18.208  28.574   0.689
97295W        W64078  39.615  35.987   1.692
97296W        W64079  25.956  41.507  13.608
97297W        W64080   8.662  10.160   1.630
97298W        W64081  14.080  28.532  12.419
97299W        W64082   0.479  29.875  12.142
97300W        W64083   7.857  29.616  13.961
97301W        W64084   3.967  28.611  12.115
97302W        W64085  43.439  13.635  13.750
97303W        W64086   7.184   5.295  14.510
97304W        W64087  30.622  12.155  12.040
97305W        W64088  33.142  18.337   4.678
97306W        W64089   0.914  15.335   2.600
97307W        W64090  39.119  36.369  11.970
97308W        W64091  24.064  38.376   2.799
97309W        W64092   3.426  27.992   2.233
97310W        W64093  28.454  27.575   1.936
97311W        W64094   6.305   3.918   3.151
97312W        W64095  18.834  35.526   0.655
97313W        W64096  27.432  12.644  12.555
97314W        W64097  11.081  25.754  11.062
97315W        W64098  43.869  43.058   1.280
97316W        W64099  13.271   8.748   2.075
97317W        W64100  29.140  12.278   1.869
97318W        W64101  37.142  16.807   1.823
97319W        W64102  42.465  23.659  13.012
97320W        W64103  32.934  11.275   3.125
97321W        W64104   4.805  32.430  11.258
97322W        W64105  13.473  13.949  14.730
97323W        W64106   6.314  21.366  10.731
97324W        W64107   3.448   6.408   1.667
97325W        W64108  33.572  42.408   1.970
97326W        W64109  40.986  27.266   3.231
97327W        W64110  32.437  10.314   0.709
97328W        W64111  29.001  31.955  13.709
97329W        W64112  44.336  42.096   2.336
97330W        W64113  27.108  24.924   5.054
97331W        W64114  29.129  27.683   0.275
97332W        W64115  20.289  27.210   0.769
97333W        W64116  20.640  29.538   2.310
97334W        W64117  44.996   7.149  12.503
97335W        W64118  23.510  22.042   3.281
97336W        W64119   9.587  16.203  11.391
97337W        W64120   4.454  14.716   0.910
97338W        W64121   9.794  20.053  14.852
97339W        W64122  30.253  10.845  11.963
97340W        W64123  34.581   8.274   0.212
97341W        W64124   3.332  29.017  10.886
97342W        W64125  17.837  13.304   9.755
97343W        W64126  26.381  18.585   1.954
97344W        W64127  15.612  24.827  14.436
97345W        W64128   7.208  16.154   3.589
97346W        W64129   6.930  33.914  12.503
97347W        W64130  41.034  40.269   4.777
97348W        W64131  13.538   7.655  10.565
97349W        W64132  21.483  37.513   1.211
97350W        W64133  14.700  41.324   4.668
97351W        W64134  34.933   0.120   1.909
97352W        W64135   4.989   2.422   0.011
97353W        W64136   4.508  42.806   2.867
97354W        W64137  22.964  35.738  13.624
97355W        W64138  36.342   6.205   4.976
97356W        W64139  21.532  23.936  12.606
97357W        W64140  14.600  18.821   1.251
97358W        W64141  35.825  37.141   3.267
97359W        W64142  38.764  43.410  14.946
97360W        W64143  35.344  38.139  13.063
97361W        W64144  42.236  34.396   2.920
97362W        W64145  25.516  17.325   1.393
97363W        W64146  10.897  27.642  11.881
97364W        W64147  32.107  28.852   1.212
97365W        W64148   6.511  35.621  12.173
97366W        W64149  22.017  40.048  12.405
97367W        W64150  30.454  38.253  14.946
97368W        W64151  42.185  15.719   5.452
97369W        W64152  42.290  25.524   4.823
97370W        W64153   6.792  41.258   4.298
97371W        W64154   0.449  14.610  14.516
97372W        W64155  40.319  21.445  13.824
97373W        W64156  18.616  35.965   0.765
97374W        W64157  34.243  31.044  14.092
97375W        W64158  17.136   5.196  14.002
97376W        W64159   8.084   2.140  12.501
97377W        W64160   3.646  15.821  10.829
97378W        W64161  28.965  26.863   1.673
97379W        W64162  29.964   5.632   0.838
97380W        W64163   2.806  41.951   1.779
97381W        W64164  37.378  28.101  14.519
97382W        W64165   0.974   9.342   4.194
97383W        W64166  41.103  16.804  11.527
97384W        W64167  13.128  40.031  10.566
97385W        W64168  24.099  43.236  11.989
97386W        W64169  11.647  30.278  14.065
97387W        W64170  21.372  37.793   2.291
97388W        W64171   4.376  22.954  11.931
97389W        W64172   9.903  28.423  11.033
97390W        W64173  27.090  31.834   0.426
97391W        W64174   4.488  13.750  14.893
97392W        W64175  37.083  30.500   0.249
97393W        W64176  25.018  42.359  13.917
97394W        W64177  16.240  26.020  14.233
97395W        W64178  22.782   4.185  10.708
97396W        W64179  43.702   7.773  12.988
97397W        W64180  37.364  38.132  14.831
97398W        W64181  44.206  25.785   1.673
97399W        W64182  42.729   0.201  14.133
97400W        W64183  37.552  19.523   4.190
97401W        W64184  32.049   3.292  12.523
97402W        W64185  14.604   2.469   0.838
97403W        W64186  26.323   7.723   2.450
97404W        W64187   7.736  39.596   3.242
97405W        W64188  42.419  21.098  10.627
97406W        W64189  20.589  18.831   4.058
97407W        W64190  33.915  26.633   0.430
97408W        W64191  33.675   2.703  14.462
97409W        W64192  28.436   4.992  12.444
97410W        W64193  20.282   2.039   2.175
97411W        W64194  40.807  11.912   4.483
97412W        W64195  11.126  43.523   2.771
97413W        W64196  40.518  35.763   3.321
97414W        W64197   4.545   0.267  13.482
97415W        W64198  14.079   7.188   9.951
97416W        W64199  23.908  24.216  11.738
97417W        W64200  13.996   5.848  10.061
97418W        W64201   1.293  35.169   3.295
97419W        W64202  28.935  27.670   3.758
97420W        W64203  12.484  20.985  10.638
97421W        W64204  32.849   0.505   0.410
97422W        W64205  12.919  19.707   3.595
97423W        W64206  40.979  30.546  12.913
97424W        W64207  21.001   0.396  11.495
97425W        W64208  12.751  24.552  13.322
97426W        W64209  25.637   6.898   4.538
97427W        W64210  39.624  36.222   3.371
97428W        W64211  16.559  43.247   3.331
97429W        W64212  17.279  36.347  13.776
97430W        W64213  39.829  29.722   3.743
97431W        W64214  32.559  37.440   0.382
97432W        W64215  41.392  32.056   3.202
97433W        W64216  35.409   5.449   0.183
97434W        W64217  14.127  20.953  12.360
97435W        W64218  13.290   3.266  10.774
97436W        W64219  13.191  24.775  13.466
97437W        W64220  42.851  32.517  12.820
97438W        W64221   3.690  23.918  14.584
97439W        W64222  35.985   4.816  14.352
97440W        W64223  27.737  28.718   4.408
97441W        W64224  12.298  14.842  11.488
97442W        W64225   4.034   9.064   4.405
97443W        W64226  29.933  35.584   1.216
97444W        W64227   6.745  39.886   3.161
97445W        W64228   4.345   5.303   2.402
97446W        W64229   2.013   3.757   0.884
97447W        W64230   6.884  22.122  14.874
97448W        W64231  10.852  19.081   1.392
97449W        W64232  14.134  38.755  14.548
97450W        W64233   9.068  44.389  11.002
97451W        W64234  17.113  33.523  13.236
97452W        W64235  15.072   9.027   2.283
97453W        W64236   8.337  17.528  14.435
97454W        W64237  34.598   1.259  12.051
97455W        W64238  22.783  18.254   1.264
97456W        W64239   8.117  16.640   2.207
97457W        W64240  21.796   2.797  14.732
97458W        W64241   2.236   2.945  14.934
97459W        W64242  12.168   4.865  14.924
97460W        W64243  35.653  21.648  11.278
97461W        W64244  21.180  26.167   0.187
97462W        W64245   4.018   2.071  12.475
97463W        W64246  31.400  13.883   2.684
97464W        W64247  11.153   7.630  13.025
97465W        W64248  21.274  42.551   0.796
97466W        W64249  29.570  43.577  11.472
97467W        W64250  28.645  30.924  11.682
97468W        W64251  32.503  40.563   2.393
97469W        W64252  15.134   4.299  11.881
97470W        W64253  32.298   2.809  10.744
97471W        W64254  30.586  40.789   1.248
97472W        W64255   4.946   9.948  14.998
97473W        W64256   6.669  27.126  13.909
97474W        W64257  34.396  40.425   1.390
97475W        W64258  19.214   7.816  11.963
97476W        W64259  19.592   8.934  12.102
97477W        W64260  34.010   4.787   4.605
97478W        W64261  18.251  25.070   3.158
97479W        W64262  33.321  23.670  14.308
97480W        W64263  12.183   7.246   3.305
97481W        W64264  21.638   6.433   0.357
97482W        W64265  29.590  10.882   0.817
97483W        W64266  37.391  18.806   3.708
97484W        W64267  25.273   5.676   3.030
97485W        W64268  36.087   4.352   2.402
97486W        W64269  17.849  31.117  13.364
97487W        W64270  36.097  39.646  14.283
97488W        W64271  26.767  35.964  13.083
97489W        W64272  16.563  41.077   0.860
97490W        W64273  26.906  30.547  13.124
97491W        W64274  17.831  33.076  13.379
97492W        W64275  20.345  34.156   1.492
97493W        W64276  32.809  39.938  11.979
97494W        W64277  26.618   2.155  10.124
97495W        W64278  42.004  22.761   1.480
97496W        W64279  24.192  42.256   0.773
97497W        W64280  28.476  20.729  12.588
97498W        W64281  29.116  44.904  13.985
97499W        W64282   1.374  29.362   0.875
97500W        W64283  40.884  29.900   0.813
97501W        W64284   9.860  17.704   2.574
97502W        W64285  26.195   8.730  11.943
97503W        W64286  23.166  41.106  14.431
97504W        W64287  18.814  25.532  11.920
97505W        W64288  24.102  42.894   2.398
97506W        W64289  32.442  11.369   3.891
97507W        W64290  14.629  13.275  13.308
97508W        W64291  21.108  10.557   2.858
97509W        W64292  43.583  11.874   0.775
97510W        W64293  32.022  16.075  13.602
97511W        W64294  35.811  25.653   1.816
97512W        W64295  37.807  36.489   0.319
97513W        W64296  22.591   6.038  12.676
97514W        W64297  36.407  20.409   9.899
97515W        W64298  31.921  38.283   4.883
97516W        W64299  34.478  36.052   0.486
97517W        W64300   9.928  15.200   4.262
97518W        W64301  13.891  44.884  13.933
97519W        W64302  40.344  10.703  13.942
97520W        W64303   8.176  25.269   4.602
97521W        W64304  16.689  43.358   2.027
97522W        W64305  26.507  27.091  11.588
97523W        W64306  12.516  31.982  14.517
97524W        W64307   7.251  14.642   0.004
97525W        W64308  44.886  34.601   0.932
97526W        W64309  26.547   8.391   3.712
97527W        W64310  30.959   5.205   1.478
97528W        W64311  13.697  35.191  12.840
97529W        W64312  26.026  26.201   0.858
97530W        W64313  24.256  31.578  14.466
97531W        W64314   9.748  21.735   4.363
97532W        W64315  32.168  24.693   1.420
97533W        W64316  26.145  40.354   4.029
97534W        W64317  34.429   4.002   1.330
97535W        W64318   6.960  26.330  11.085
97536W        W64319  26.407  33.773   4.571
97537W        W64320   2.949  41.419  14.053
97538W        W64321  14.316   0.747   0.844
97539W        W64322  32.228  27.712   3.525
97540W        W64323  11.106  13.715   2.741
97541W        W64324  11.862  28.583  13.388
97542W        W64325  29.851   2.352  11.714
97543W        W64326  44.527   0.325   3.381
97544W        W64327  20.268  32.696  11.220
97545W        W64328  40.111  23.356   2.808
97546W        W64329   9.097   0.499   0.809
97547W        W64330  30.884  12.358  12.848
97548W        W64331   1.616  37.539   5.045
97549W        W64332  36.065  20.129   4.831
97550W        W64333   7.342  19.722   0.953
97551W        W64334   0.465  44.654  12.120
97552W        W64335  28.691  17.103  13.900
97553W        W64336  28.098  43.487   3.608
97554W        W64337  24.217  28.885  11.662
97555W        W64338  39.095  11.264   1.728
97556W        W64339  11.121   2.882   2.252
97557W        W64340  37.242  43.750   3.783
97558W        W64341  10.253   8.228   3.173
97559W        W64342   9.954  19.683  10.722
97560W        W64343  29.642  17.623  14.555
97561W        W64344  12.025   6.686   0.952
97562W        W64345  40.402   0.298   3.582
97563W        W64346  26.672  10.781   0.812
97564W        W64347   1.003   7.762  13.991
97565W        W64348  16.845  27.927  11.703
97566W        W64349  38.241  43.442  13.022
97567W        W64350  16.546  32.966   1.430
97568W        W64351  28.111  31.961  12.632
97569W        W64352   5.004  37.830  12.482
97570W        W64353  36.230  18.323   1.847
97571W        W64354  42.464  29.115  13.602
97572W        W64355  40.044  34.075   4.297
97573W        W64356  32.798  19.103  14.876
97574W        W64357  14.215  43.849  11.972
97575W        W64358  37.954  28.619   2.370
97576W        W64359  22.012  27.265   4.487
97577W        W64360   1.181  19.220  14.417
97578W        W64361  34.472  27.968  12.952
97579W        W64362  16.064  35.985   3.932
97580W        W64363   1.898  11.691   1.654
97581W        W64364  14.564  36.372   1.910
97582W        W64365  22.088   5.940  14.115
97583W        W64366  22.525  22.138  13.393
97584W        W64367  30.638  32.060   4.297
97585W        W64368  11.317   1.665  12.053
97586W        W64369  20.701   5.643  13.068
97587W        W64370   1.537  19.216   1.734
97588W        W64371  37.166  38.454   4.100
97589W        W64372  43.921  18.388   1.923
97590W        W64373  44.919  14.257   4.525
97591W        W64374  38.305  36.865   4.187
97592W        W64375  23.079  20.771   2.107
97593W        W64376   3.864  14.306  13.987
97594W        W64377   3.742  33.401   3.318
97595W        W64378  41.806  14.591   2.323
97596W        W64379  34.789  15.699   4.728
97597W        W64380  35.316  35.956   1.640
97598W        W64381   0.031   3.081   9.963
97599W        W64382  41.878  33.495   2.719
97600W        W64383   9.929  24.772   1.969
97601W        W64384  20.002  16.232   1.683
97602W        W64385   5.384  13.284   1.883
97603W        W64386  23.676  37.854   0.823
97604W        W64387   6.038  27.188   3.295
97605W        W64388  31.914  16.989   4.099
97606W        W64389  26.263  23.341   2.725
97607W        W64390  40.735  11.630  14.049
97608W        W64391   2.459  33.268   0.739
97609W        W64392  34.347   5.002   0.814
97610W        W64393  41.833  41.552   2.213
97611W        W64394  31.996  42.558  14.593
97612W        W64395  26.098  20.529  14.734
97613W        W64396  14.733  26.706   2.384
97614W        W64397  19.917   3.250   4.655
97615W        W64398  12.821  10.872  10.943
97616W        W64399  14.495  20.127   5.116
97617W        W64400  42.806  44.325  13.634
97618W        W64401  27.293  12.462  10.750
97619W        W64402  36.025  43.493   3.356
97620W        W64403  25.922   1.462  14.462
97621W        W64404  23.469  28.703   0.959
97622W        W64405  26.364  26.004   3.227
97623W        W64406  42.817  16.793   4.631
97624W        W64407  44.255  23.663  10.817
97625W        W64408  40.951   4.925   1.720
97626W        W64409  30.940  30.133   5.008
97627W        W64410  24.650  27.794   5.405
97628W        W64411   2.400  20.045  14.918
97629W        W64412   7.799  37.782  13.556
97630W        W64413   5.374  42.612  11.515
97631W        W64414  23.054  20.761   1.613
97632W        W64415  39.230  29.960   0.021
97633W        W64416  36.812  40.915  12.842
97634W        W64417  29.179  32.604   3.286
97635W        W64418   5.478  26.974   0.243
97636W        W64419   4.611  20.315  11.979
97637W        W64420   4.967  15.164   3.239
97638W        W64421  15.116   6.363   2.139
97639W        W64422  32.541  30.074   4.407
97640W        W64423  27.588   4.177  13.701
97641W        W64424  15.575  37.400   2.193
97642W        W64425  29.126  20.560   4.522
97643W        W64426  20.550  27.652  11.588
97644W        W64427  13.657  16.260   2.970
97645W        W64428  36.976  19.225  13.657
97646W        W64429  37.220  11.638   3.152
97647W        W64430  40.396  35.839   0.345
97648W        W64431   7.275  34.615  11.048
97649W        W64432  13.309  15.480   5.041
97650W        W64433  33.172  22.013   9.900
97651W        W64434   3.193  35.995   3.104
97652W        W64435   9.398  20.245  10.590
97653W        W64436  24.567  31.529   2.081
97654W        W64437  14.284  11.400   2.780
97655W        W64438  33.552  36.843   3.442
97656W        W64439  37.747  21.736   1.969
97657W        W64440  33.603  18.043  12.917
97658W        W64441  23.495  44.673   2.293
97659W        W64442  42.315   7.970   0.742
97660W        W64443  39.408  39.757  10.976
97661W        W64444  31.238   1.821   0.821
97662W        W64445   1.481  44.181   3.240
97663W        W64446  33.857  38.564   0.866
97664W        W64447  40.902  34.969  13.077
97665W        W64448  39.314   1.347   2.724
97666W        W64449  33.480   9.391  12.585
97667W        W64450   6.439  42.979  12.634
97668W        W64451  14.765  29.609  10.793
97669W        W64452   0.068  19.963  11.035
97670W        W64453   5.438  37.881   0.813
97671W        W64454   3.877  26.025   2.136
97672W        W64455   5.222  16.461  12.109
97673W        W64456  24.012  28.511  11.258
97674W        W64457  15.387  36.421  14.696
97675W        W64458  25.417  24.494   3.613
97676W        W64459  13.144  35.021   0.236
97677W        W64460  19.463   3.396  13.514
97678W        W64461  20.005  41.919  14.327
97679W        W64462   9.697  24.124  11.173
97680W        W64463  44.987  13.668   5.603
97681W        W64464  26.079  27.755   0.232
97682W        W64465  16.858  16.874   1.325
97683W        W64466   4.430  20.224  13.481
97684W        W64467  43.451  15.007   5.360
97685W        W64468  13.281   5.903   3.173
97686W        W64469  31.685  30.963  14.359
97687W        W64470  24.312   9.392  13.066
97688W        W64471   2.734  24.721   1.872
97689W        W64472   3.065  18.979   1.097
97690W        W64473  32.027   4.355  14.715
97691W        W64474  26.644  29.391  11.605
97692W        W64475  33.119  32.774   2.392
97693W        W64476  19.006  14.571   3.024
97694W        W64477  12.724   1.371  14.534
97695W        W64478   5.170  14.657   0.328
97696W        W64479  10.816  28.159  11.055
97697W        W64480  35.465  36.130  14.286
97698W        W64481  10.574  38.967  11.339
97699W        W64482   0.296  38.954  12.115
97700W        W64483  29.646  31.974  14.313
97701W        W64484   1.500  14.726   4.376
97702W        W64485  13.669  36.989   2.973
97703W        W64486   7.463  35.609  12.012
97704W        W64487  15.757  43.052  13.194
97705W        W64488  14.131   8.165  11.148
97706W        W64489   0.800  29.242   3.557
97707W        W64490  24.677  26.574   0.920
97708W        W64491  33.179   9.851   1.423
97709W        W64492  27.424  19.477  14.971
97710W        W64493  43.941  27.609   4.256
97711W        W64494   8.363  23.804  11.073
97712W        W64495  12.741   5.999   0.025
97713W        W64496  38.319  30.200   0.021
97714W        W64497  18.950  39.490   3.476
97715W        W64498  29.624  11.538  12.479
97716W        W64499  34.995   2.921  11.168
97717W        W64500  40.930  37.338  12.065
97718W        W64501  20.069  15.285   0.861
97719W        W64502  12.725  30.930  13.905
97720W        W64503  21.981  10.384  11.559
97721W        W64504  43.804  18.230  11.656
97722W        W64505  19.729  11.840   0.364
97723W        W64506  17.675  22.532  11.351
97724W        W64507  32.687  42.269  10.946
97725W        W64508  32.634   2.029  12.905
97726W        W64509   3.673   0.248  14.556
97727W        W64510  10.330  29.898   0.258
97728W        W64511  23.210  17.369   2.734
97729W        W64512  18.155   5.429   1.248
97730W        W64513   8.858  34.502  14.489
97731W        W64514  11.878  14.075   0.158
97732W        W64515  26.764  34.536  13.340
97733W        W64516  29.700  24.632   3.326
97734W        W64517   9.769  34.484  11.903
97735W        W64518  12.830  28.410  13.163
97736W        W64519   6.944  42.041   2.270
97737W        W64520  43.657   1.175   0.493
97738W        W64521  24.712  17.452   0.935
97739W        W64522  38.008  19.376  13.908
97740W        W64523   8.562  23.074  12.906
97741W        W64524  42.813  26.408   0.805
97742W        W64525   7.399   6.921   1.836
97743W        W64526   3.372  42.397   4.890
97744W        W64527   1.128  13.628  14.160
97745W        W64528  29.022  12.106  14.890
97746W        W64529  12.111  10.366  11.497
97747W        W64530  15.128  37.874   3.729
97748W        W64531  30.943  34.371   4.400
97749W        W64532  14.733  39.597   0.830
97750W        W64533  17.044  22.143   3.236
97751W        W64534  16.802  30.030  10.598
97752W        W64535  11.941  24.456  14.927
97753W        W64536  44.247  44.428   0.440
97754W        W64537   1.665  11.843  13.061
97755W        W64538  22.153  21.966   1.562
97756W        W64539  26.619   3.480  11.937
97757W        W64540  11.219  13.787  10.726
97758W        W64541  44.849  36.989  14.309
97759W        W64542  24.601  31.828  10.915
97760W        W64543  14.012  41.456   4.097
97761W        W64544  12.163   3.364   1.313
97762W        W64545  44.336  24.686  11.554
97763W        W64546  44.794  30.447   1.426
97764W        W64547   2.552  40.507  11.176
97765W        W64548  28.239   7.300   0.895
97766W        W64549   4.327  24.255  10.760
97767W        W64550   5.385  26.572   3.155
97768W        W64551  11.232  22.556   4.305
97769W        W64552  41.807  34.049  13.435
97770W        W64553  24.317   2.842  14.780
97771W        W64554  19.520  33.307  13.239
97772W        W64555  23.144   6.401   4.596
97773W        W64556  13.900  41.839  12.462
97774W        W64557  21.250  13.141   3.358
97775W        W64558   2.410  13.207  14.157
97776W        W64559  31.621  20.012   1.339
97777W        W64560  10.193  44.225   5.080
97778W        W64561  17.987  24.843  14.304
97779W        W64562  20.350  37.154   3.277
97780W        W64563  10.425   1.055  14.487
97781W        W64564  25.530  36.973  12.500
97782W        W64565   4.370   7.883   1.928
97783W        W64566  39.505  41.009  11.575
97784W        W64567  30.933  25.595  14.962
97785W        W64568  13.967  37.315   1.336
97786W        W64569  38.970  31.365  14.917
97787W        W64570  16.846  27.296  14.317
97788W        W64571  11.116  35.041   1.871
97789W        W64572   4.404   5.876   4.113
97790W        W64573  12.867  26.894  11.484
97791W        W64574   0.757  16.783   1.883
97792W        W64575  15.044  16.414   4.828
97793W        W64576  26.199  34.087   0.766
97794W        W64577   2.412  22.124   1.773
97795W        W64578  17.267  44.678  13.876
97796W        W64579  29.892  27.735   1.790
97797W        W64580  41.378  44.376  12.361
97798W        W64581   8.083  34.373   4.141
97799W        W64582  12.839  19.143  13.284
97800W        W64583  33.756   6.029  10.190
97801W        W64584  17.028  29.498   5.011
97802W        W64585  33.011   3.985   2.413
97803W        W64586  13.367  24.307  10.913
97804W        W64587  36.619  33.533   0.799
97805W        W64588  31.982  27.015   3.420
97806W        W64589  34.599  19.504  14.796
97807W        W64590   7.426  18.016  14.288
97808W        W64591  38.372  37.578   3.687
97809W        W64592  34.331  37.197  12.352
97810W        W64593  13.325  39.952   0.197
97811W        W64594  26.630  43.244   2.239
97812W        W64595  22.504  43.090   4.219
97813W        W64596  25.461   8.463  13.461
97814W        W64597  29.718  19.333  13.157
97815W        W64598  10.374  10.885   4.416
97816W        W64599  10.715  31.130  12.127
97817W        W64600  35.981  23.092   1.389
97818W        W64601  28.619  35.803  13.914
97819W        W64602   3.890  40.873  12.713
97820W        W64603  13.394   6.648  11.412
97821W        W64604  13.777   6.503  12.599
97822W        W64605  33.583   7.967   1.303
97823W        W64606   9.809  35.488   1.759
97824W        W64607  10.084  28.056   4.461
97825W        W64608  19.730  43.838  10.536
97826W        W64609   3.994   8.853   1.747
97827W        W64610   4.492   5.253   1.491
97828W        W64611  28.520  34.790   3.683
97829W        W64612  18.844  36.400   0.889
97830W        W64613   1.434   6.415   1.300
97831W        W64614  23.004  22.170  14.890
97832W        W64615  22.231  13.066  10.973
97833W        W64616  17.862  24.730  13.459
97834W        W64617   0.774  29.957  11.098
97835W        W64618  22.280   3.685  14.759
97836W        W64619  33.744  34.585   4.952
97837W        W64620  39.744  38.930   2.215
97838W        W64621   0.309  39.843  13.092
97839W        W64622  12.596  28.579  11.172
97840W        W64623   0.011   5.828   4.606
97841W        W64624   5.224  41.589  11.623
97842W        W64625  13.970   0.405  13.999
97843W        W64626  18.165  36.522  13.222
97844W        W64627   9.420  12.609  14.521
97845W        W64628  33.395   3.386   4.585
97846W        W64629  33.154   0.205   2.730
97847W        W64630  14.847  38.978   5.562
97848W        W64631  31.409  42.507   2.271
97849W        W64632  21.688  17.971  13.756
97850W        W64633  14.383  11.975   4.626
97851W        W64634  10.016  13.648   3.574
97852W        W64635  42.618  23.544   1.242
97853W        W64636  20.247   8.070   4.231
97854W        W64637  36.009  43.220  12.603
97855W        W64638  41.795  20.481   4.521
97856W        W64639   0.389  32.445   4.433
97857W        W64640   9.625  11.762   5.009
97858W        W64641  16.363  24.447  13.504
97859W        W64642  26.680   1.383  10.654
97860W        W64643  29.289  31.880   4.555
97861W        W64644  40.293   7.318   0.953
97862W        W64645   0.956  23.203   0.994
97863W        W64646  44.144   9.865   4.655
97864W        W64647  30.225  16.855  11.503
97865W        W64648  11.284  35.442  13.963
97866W        W64649   7.833   8.419  12.108
97867W        W64650   1.211  20.117  14.272
97868W        W64651  12.726  26.897  12.994
97869W        W64652  17.920  43.354   0.796
97870W        W64653  25.139  22.757  14.250
97871W        W64654  10.380  41.950   1.186
97872W        W64655  34.739  42.939  12.351
97873W        W64656  41.336  30.613   0.820
97874W        W64657   4.742  31.564  12.105
97875W        W64658  22.340  30.965   1.342
97876W        W64659   2.885  19.928   0.802
97877W        W64660   9.140  39.505  10.704
97878W        W64661  27.291  25.732  14.984
97879W        W64662  39.820  20.094   0.435
97880W        W64663  25.216   3.508  12.519
97881W        W64664  17.129  21.649   1.051
97882W        W64665  15.048  35.118  12.997
97883W        W64666  26.457   0.889   4.191
97884W        W64667  31.220  24.276  12.983
97885W        W64668  26.106  33.860   3.429
97886W        W64669  25.494   6.214  10.352
97887W        W64670  12.171   3.344   3.700
97888W        W64671  38.918  41.786  11.938
97889W        W64672  28.103  15.489  13.976
97890W        W64673  35.621  35.930   2.846
97891W        W64674  28.009  38.120  13.520
97892W        W64675  12.087  12.755   4.181
97893W        W64676  35.557  33.454  14.892
97894W        W64677  39.919   4.144   1.392
97895W        W64678  26.680   3.264  12.546
97896W        W64679  21.476  34.477   3.729
97897W        W64680   1.368  15.691  14.322
97898W        W64681  27.312   8.237  13.883
97899W        W64682  37.786  30.772  13.467
97900W        W64683  12.728  29.688   0.811
97901W        W64684  17.320  36.200   0.958
97902W        W64685  26.203  12.352   0.891
97903W        W64686   7.818  29.742  11.439
97904W        W64687   5.834   9.396   3.087
97905W        W64688  19.480  21.576  11.293
97906W        W64689   6.234  44.794   4.184
97907W        W64690  37.958  44.051  11.884
97908W        W64691   4.914   7.413  14.341
97909W        W64692  18.784   6.967  10.689
97910W        W64693  31.989  15.616   4.516
97911W        W64694  17.088  35.456   0.267
97912W        W64695  43.184   0.293  10.170
97913W        W64696   1.545  15.835  12.374
97914W        W64697  25.777   7.426   3.706
97915W        W64698   6.259  30.130  14.512
97916W        W64699  35.110  15.576   3.769
97917W        W64700  12.150  20.157  14.138
97918W        W64701   3.118  41.792   4.159
97919W        W64702  28.579   3.892  10.581
97920W        W64703   3.523  27.070  14.817
97921W        W64704  35.207  40.779  12.873
97922W        W64705  34.374  27.590  14.859
97923W        W64706  41.715   6.934   1.787
97924W        W64707  37.867  29.005  10.722
97925W        W64708  43.525  28.552  12.949
97926W        W64709  22.971  13.297  10.678
97927W        W64710  43.315  43.894   4.507
97928W        W64711  44.919   8.369  11.373
97929W        W64712  43.388  21.934  11.880
97930W        W64713  21.992  25.598  11.290
97931W        W64714  12.807  12.634   3.754
97932W        W64715   5.712   5.942   3.328
97933W        W64716  25.588   6.464   2.430
97934W        W64717  22.702  27.235  11.635
97935W        W64718   3.729  20.308  11.400
97936W        W64719  21.727  15.741  12.402
97937W        W64720  44.338   0.180  10.774
97938W        W64721  13.228  14.055   2.267
97939W        W64722   1.270  34.960   4.227
97940W        W64723  41.976  23.995   5.094
97941W        W64724  41.454  35.505   0.863
97942W        W64725  39.592  41.783  14.817
97943W        W64726  34.475   3.947  10.553
97944W        W64727  10.729  12.620   4.882
97945W        W64728  34.331   8.855   1.904
97946W        W64729  16.168  32.449   3.074
97947W        W64730  19.696  18.720  13.411
97948W        W64731  35.750  23.049  11.875
97949W        W64732   5.997  12.551  13.812
97950W        W64733  14.534  41.399   2.770
97951W        W64734   3.223  31.035   1.300
97952W        W64735  16.613  15.597  11.200
97953W        W64736  13.261  43.787  14.102
97954W        W64737  32.374  44.868  14.266
97955W        W64738  30.575  42.987  13.942
97956W        W64739   4.976  23.891   0.898
97957W        W64740  12.577  29.496   4.202
97958W        W64741   1.439  42.856  12.354
97959W        W64742  40.895  24.175   3.753
97960W        W64743  18.869  36.014  12.008
97961W        W64744  33.818  24.081  11.029
97962W        W64745   7.320  24.222  12.462
97963W        W64746  14.268  39.071   4.877
97964W        W64747  44.505   1.864   4.803
97965W        W64748  10.106   7.108   3.269
97966W        W64749  14.300  11.609  11.144
97967W        W64750  36.577  22.536   4.059
97968W        W64751  35.392   1.950  13.153
97969W        W64752  11.484  30.464   4.240
97970W        W64753  42.376  35.411   1.888
97971W        W64754  29.779  43.034   4.537
97972W        W64755  21.136  36.657   2.721
97973W        W64756   7.795  24.172  13.770
97974W        W64757  15.154  10.228   2.763
97975W        W64758  11.325   3.750   3.687
97976W        W64759  23.384   1.009  13.544
97977W        W64760  36.982  30.941   3.421
97978W        W64761  33.493  26.057  12.125
97979W        W64762  43.028  41.944   3.683
97980W        W64763   1.493  28.287   4.172
97981W        W64764  28.110  15.057   2.478
97982W        W64765  17.791  31.672  11.603
97983W        W64766  21.693   3.918  10.272
97984W        W64767  35.386  22.581  11.211
97985W        W64768   1.811  42.240   0.958
97986W        W64769  18.964  44.396  12.144
97987W        W64770  43.463  42.944   0.816
97988W        W64771  19.579   5.877  11.941
97989W        W64772  18.957  43.333   3.282
97990W        W64773   5.651  32.643  14.848
97991W        W64774  13.054   6.081   1.368
97992W        W64775  21.778  36.130   2.317
97993W        W64776  28.230  39.848  13.018
97994W        W64777   9.169  11.340  12.153
97995W        W64778   2.748  15.329  12.187
97996W        W64779  26.188  34.539   2.244
97997W        W64780   7.436  22.519   1.408
97998W        W64781  41.042  27.707   1.732
97999W        W64782  40.427  39.432   0.890
98000W        W64783  36.528  21.827  14.391
98001W        W64784   6.874   1.861   4.063
98002W        W64785  33.464  21.796   5.182
98003W        W64786   8.862  13.609   1.338
98004W        W64787   2.995  43.499   3.803
98005W        W64788  33.411  12.029  10.650
98006W        W64789  35.373  13.854  11.520
98007W        W64790  38.304  41.524   2.439
98008W        W64791   8.028  23.715  13.875
98009W        W64792  29.171  41.916  12.870
98010W        W64793  32.429   6.819   2.605
98011W        W64794  44.607   6.508  11.842
98012W        W64795  15.779  11.123  13.327
98013W        W64796  19.615   1.695   0.361
98014W        W64797  34.007  18.362   4.648
98015W        W64798  21.547   1.536   1.439
98016W        W64799  25.048  17.200   3.222
98017W        W64800  10.840   1.695   2.324
98018W        W64801  17.540  28.869  13.913
98019W        W64802  41.238  35.153  14.865
98020W        W64803  22.703  28.284   0.218
98021W        W64804  28.464   1.769   0.886
98022W        W64805  32.928  20.766  13.065
98023W        W64806  23.816  19.395   5.017
98024W        W64807   4.889  10.365  13.805
98025W        W64808  41.568  36.662   1.823
98026W        W64809  14.849  16.410  10.359
98027W        W64810  41.442   1.005  11.698
98028W        W64811  39.421  40.768  11.131
98029W        W64812  24.244   4.824  10.981
98030W        W64813  29.143  39.348  10.603
98031W        W64814  33.437  12.935  13.808
98032W        W64815   8.862  17.225   2.357
98033W        W64816  43.435  37.554  14.408
98034W        W64817  43.404  28.876   4.293
98035W        W64818  30.858  10.841   1.225
98036W        W64819  14.575   3.302   4.207
98037W        W64820  44.474  44.283  11.226
98038W        W64821  44.847  21.669  13.900
98039W        W64822   1.505   6.876  10.411
98040W        W64823  26.046  28.696   2.861
98041W        W64824   8.662  40.743   1.982
98042W        W64825  34.051  15.286   4.743
98043W        W64826  23.201  17.606  11.189
98044W        W64827  39.039  31.404   1.182
98045W        W64828   9.400   9.038   0.311
98046W        W64829  21.917  25.582   0.357
98047W        W64830  23.258  22.488   0.839
98048W        W64831  40.508   1.326  12.428
98049W        W64832  44.508  10.427  12.676
98050W        W64833  23.142  18.554   0.184
98051W        W64834  16.508  11.657   3.166
98052W        W64835  34.085   3.038  12.148
98053W        W64836  21.936   1.963   4.094
98054W        W64837   5.656  34.328   2.660
98055W        W64838  30.922  33.907   2.234
98056W        W64839  41.798   7.662  11.549
98057W        W64840  41.514  17.792  10.791
98058W        W64841  35.446  12.207   0.930
98059W        W64842  16.640   1.720  12.677
98060W        W64843  16.886  26.907  11.583
98061W        W64844   4.376  21.345  13.887
98062W        W64845  29.125  12.654   2.769
98063W        W64846  42.544  17.295  14.737
98064W        W64847  22.781  27.630   3.337
98065W        W64848   4.828  17.552  11.596
98066W        W64849  20.949   8.726   4.447
98067W        W64850   2.451  16.676  13.403
98068W        W64851  31.959   6.138   3.867
98069W        W64852   8.207  20.801   1.759
98070W        W64853  38.053  44.988   2.617
98071W        W64854  33.640  37.817   3.194
98072W        W64855   1.933  24.124   1.359
98073W        W64856  12.359  28.298  12.080
98074W        W64857  15.059  43.797  10.798
98075W        W64858  10.858  34.502   3.119
98076W        W64859  16.296  28.147  14.571
98077W        W64860  41.414   8.382   1.762
98078W        W64861  31.582  20.801   3.525
98079W        W64862  36.401  16.516   0.067
98080W        W64863  14.128  15.222  10.794
98081W        W64864  21.878  23.337   2.790
98082W        W64865  19.172  25.624   4.520
98083W        W64866  41.076   9.644  12.852
98084W        W64867   4.666  12.347  12.102
98085W        W64868  41.085  21.133   0.909
98086W        W64869  43.074  16.679   3.234
98087W        W64870  28.698  22.241   1.517
98088W        W64871  30.554  34.887   2.284
98089W        W64872  43.876  40.020   3.419
98090W        W64873  24.558  34.305   4.140
98091W        W64874  32.162  32.079  12.960
98092W        W64875  21.958   5.219   1.942
98093W        W64876  36.818  37.287  10.382
98094W        W64877  24.579  40.363   3.298
98095W        W64878  14.844  33.035  10.673
98096W        W64879  26.286  30.496  14.863
98097W        W64880   9.390   0.382   2.201
98098W        W64881   8.707  31.919  11.160
98099W        W64882  44.761   4.642   3.178
98100W        W64883  23.200  40.080  13.101
98101W        W64884  13.124  24.545  12.940
98102W        W64885  33.082  18.141   1.847
98103W        W64886   2.358  19.063  10.426
98104W        W64887  33.650  10.788  11.069
98105W        W64888  28.860  41.511  12.811
98106W        W64889  36.677  44.756   1.722
98107W        W64890  39.100  18.808  14.734
98108W        W64891  26.126   1.418   2.765
98109W        W64892  38.874  30.397   3.625
98110W        W64893  14.138  33.119   0.859
98111W        W64894  29.648  10.367  12.009
98112W        W64895   8.376  43.259   2.236
98113W        W64896  33.889  27.080   3.704
98114W        W64897  44.959  29.760  11.969
98115W        W64898  31.809   4.243  10.039
98116W        W64899   5.186   4.383  13.383
98117W        W64900  34.610  39.532   3.778
98118W        W64901   3.729  34.949   2.316
98119W        W64902  13.823  44.793  10.572
98120W        W64903  35.549  39.473  11.155
98121W        W64904   3.676  42.507   0.768
98122W        W64905  23.978  27.069  11.935
98123W        W64906  18.243  39.000  12.074
98124W        W64907   5.686   3.566  11.195
98125W        W64908  42.578  18.727  11.034
98126W        W64909   3.183  18.111   3.772
98127W        W64910   4.192  33.321   4.713
98128W        W64911  33.444  19.986  11.268
98129W        W64912  40.419   7.151  10.649
98130W        W64913  34.694  28.314   0.429
98131W        W64914   0.306  30.542   0.849
98132W        W64915  17.832   1.890   4.369
98133W        W64916  20.500  37.497  10.780
98134W        W64917  19.302  33.004   2.347
98135W        W64918  32.016  28.000  10.604
98136W        W64919   3.996   7.106   0.350
98137W        W64920   0.686  38.748   2.174
98138W        W64921   1.768  22.356  14.336
98139W        W64922  39.610  36.574  12.039
98140W        W64923   1.208  11.573  13.038
98141W        W64924  11.736  15.875  10.993
98142W        W64925  23.154  27.956  11.165
98143W        W64926   3.186  44.814  13.258
98144W        W64927  40.466  11.532  11.687
98145W        W64928  25.851   8.828   2.681
98146W        W64929  29.514  24.170  13.617
98147W        W64930   6.933  35.703   4.002
98148W        W64931   6.192  44.757  12.758
98149W        W64932  26.564  40.614   3.131
98150W        W64933   2.920  41.257  12.906
98151W        W64934  41.154  35.426   3.714
98152W        W64935  10.181  13.845  14.808
98153W        W64936  22.004  24.074  13.360
98154W        W64937  28.471   9.451  14.941
98155W        W64938   6.897  22.685  11.333
98156W        W64939  36.341  42.810   1.175
98157W        W64940   8.256  19.672   4.132
98158W        W64941   8.432  28.171   1.295
98159W        W64942  33.904  17.692  13.923
98160W        W64943  18.608  29.972   2.795
98161W        W64944  22.807   8.908  13.972
98162W        W64945  28.470  37.149   4.094
98163W        W64946   8.358  41.918   3.647
98164W        W64947   2.609  13.378  12.396
98165W        W64948  15.252  16.322   3.931
98166W        W64949  39.036   4.893   4.004
98167W        W64950  18.102  10.547   0.899
98168W        W64951  44.554  15.348  11.413
98169W        W64952  29.892  31.789   1.934
98170W        W64953   6.285  33.058  10.506
98171W        W64954  19.061   7.097   4.107
98172W        W64955  14.780   9.698  12.830
98173W        W64956  11.344  44.401  14.311
98174W        W64957  31.984  30.581  13.040
98175W        W64958   5.016  12.911  11.434
98176W        W64959  16.643  19.042  10.852
98177W        W64960  43.891  43.366   3.955
98178W        W64961   0.926   9.183  11.232
98179W        W64962   7.529   5.997   4.170
98180W        W64963  33.732  33.683  11.572
98181W        W64964  35.296  12.305  12.992
98182W        W64965  11.583  27.208   3.749
98183W        W64966  31.985  39.279  10.823
98184W        W64967  41.847  12.592  13.019
98185W        W64968  26.008  37.584  11.655
98186W        W64969   1.273   2.579   2.645
98187W        W64970  36.400  24.698   2.058
98188W        W64971   7.261  18.028  14.872
98189W        W64972  32.827  32.927   4.159
98190W        W64973   6.245  29.344  11.608
98191W        W64974  15.387   4.589  11.155
98192W        W64975   8.226  43.439   4.723
98193W        W64976   7.034  31.911   2.764
98194W        W64977   6.942  25.523   2.755
98195W        W64978   2.217  23.746   2.474
98196W        W64979  12.778  20.279  12.523
98197W        W64980  44.863   1.307  14.542
98198W        W64981  16.689  44.205   0.010
98199W        W64982  38.136  21.158  11.345
98200W        W64983   3.045  16.243   4.619
98201W        W64984  22.163  15.606   2.552
98202W        W64985  15.186  17.028   0.861
98203W        W64986  28.580  23.451  14.308
98204W        W64987   6.882  26.463   1.429
98205W        W64988  36.349  31.521  12.932
98206W        W64989  17.323  12.467  12.512
98207W        W64990  36.108  21.547   4.930
98208W        W64991  14.086  38.936  12.612
98209W        W64992  44.384  35.320  11.487
98210W        W64993  16.466  23.255  12.373
98211W        W64994  33.646  22.164   5.474
98212W        W64995   9.718   7.022  10.165
98213W        W64996  27.471  44.595  10.761
98214W        W64997  43.356  33.892   3.254
98215W        W64998  41.794  29.728  13.978
98216W        W64999   9.807  17.754   0.421
98217W        W65000  31.401  17.125   1.265
98218W        W65001  27.713   4.455  12.506
98219W        W65002  34.621  13.054  12.185
98220W        W65003  40.695   1.207   0.901
98221W        W65004   6.036  12.534   4.972
98222W        W65005   6.386  37.319  11.349
98223W        W65006  44.305   1.208  12.957
98224W        W65007  11.660   9.083  12.428
98225W        W65008  17.241  36.523   1.906
98226W        W65009   8.028  26.648  13.941
98227W        W65010  22.201   7.433   2.861
98228W        W65011  33.331   8.014  11.240
98229W        W65012  43.758  24.256  14.187
98230W        W65013  28.868   1.930   1.469
98231W        W65014  29.095  10.724   1.712
98232W        W65015  10.239   7.756  14.079
98233W        W65016  23.058   8.243   1.742
98234W        W65017  39.512  15.308   4.216
98235W        W65018  23.073  41.804   4.563
98236W        W65019   1.987  26.154   4.117
98237W        W65020  38.892   2.510  12.470
98238W        W65021  27.411  16.662   3.433
98239W        W65022   4.492   2.274   3.378
98240W        W65023  17.653  21.259   3.624
98241W        W65024   6.233   1.420   3.186
98242W        W65025  19.110  38.565  10.767
98243W        W65026  25.023  27.009   1.205
98244W        W65027  34.327   5.269   5.048
98245W        W65028  11.822  27.911   1.166
98246W        W65029  25.132  25.681   3.007
98247W        W65030  13.034  12.296  14.545
98248W        W65031  21.647   7.591   2.724
98249W        W65032  37.435  38.976  14.244
98250W        W65033  13.518  44.837  11.545
98251W        W65034  21.509  20.172  14.828
98252W        W65035  18.693  14.327  10.997
98253W        W65036   4.362  24.229  11.566
98254W        W65037   7.423  12.802   4.958
98255W        W65038   7.914  10.390   2.996
98256W        W65039   6.789  20.219   4.628
98257W        W65040  40.338   1.756   2.192
98258W        W65041  21.612   0.373  11.231
98259W        W65042  25.551   2.293  14.508
98260W        W65043  20.565  28.186  11.572
98261W        W65044   6.187  20.202   3.733
98262W        W65045  35.427  32.514  13.809
98263W        W65046  11.206  36.454   4.955
98264W        W65047  20.127   8.629   2.211
98265W        W65048   8.983   1.699   2.311
98266W        W65049   5.944  12.269   1.771
98267W        W65050   2.067  32.050  13.462
98268W        W65051  18.939  40.941   2.759
98269W        W65052  27.068  26.019   1.204
98270W        W65053  21.381  38.720  12.934
98271W        W65054  44.478  23.053   2.050
98272W        W65055  44.570  14.726   4.471
98273W        W65056  19.096  13.658   2.364
98274W        W65057   7.723  26.008  12.071
98275W        W65058  13.245  36.375  14.326
98276W        W65059  35.835  28.430  12.900
98277W        W65060   4.486  40.288   0.822
98278W        W65061  40.042  36.013  14.406
98279W        W65062  14.558  20.722  13.789
98280W        W65063   3.029  29.226   4.306
98281W        W65064  38.536  23.768  11.996
98282W        W65065   5.742  43.919  12.536
98283W        W65066  18.651   4.572   0.001
98284W        W65067  24.652   7.390  11.488
98285W        W65068  42.788   7.377   0.122
98286W        W65069  12.632  39.440   3.227
98287W        W65070  18.618  11.817  14.872
98288W        W65071   6.161  32.661  14.887
98289W        W65072  20.323  30.117   3.961
98290W        W65073   7.848  22.097  11.594
98291W        W65074  36.664   9.899   1.747
98292W        W65075  30.164  20.272  11.440
98293W        W65076  15.041  44.509  12.294
98294W        W65077  31.845  23.504   2.269
98295W        W65078  25.600  21.234   4.596
98296W        W65079  17.987   8.183  12.355
98297W        W65080   6.929  16.718  13.375
98298W        W65081  15.373  13.347   0.116
98299W        W65082   0.909  14.985   3.170
98300W        W65083  30.134   3.750  14.913
98301W        W65084   2.480   3.854   1.806
98302W        W65085  22.906   1.250   5.004
98303W        W65086  43.443  37.815  10.494
98304W        W65087  33.155  13.951  11.374
98305W        W65088  35.349   4.640   4.963
98306W        W65089   4.374  30.905   1.320
98307W        W65090  11.322   5.028   1.381
98308W        W65091   8.276  43.377  11.179
98309W        W65092  41.332  21.464  13.288
98310W        W65093   1.305  24.122  11.470
98311W        W65094  41.250  25.007  11.798
98312W        W65095  28.237   1.288   1.235
98313W        W65096  38.230   6.870   0.339
98314W        W65097  42.810  32.162  12.392
98315W        W65098   0.782  23.943   2.148
98316W        W65099   8.236  44.751   0.448
98317W        W65100  44.317  11.391   1.287
98318W        W65101  43.421  17.264   2.445
98319W        W65102  31.094  43.016   0.929
98320W        W65103  40.734   4.948  10.625
98321W        W65104  41.329  23.487   1.646
98322W        W65105  10.924  18.862   3.151
98323W        W65106  24.742  40.868  13.972
98324W        W65107  27.468  33.336  11.974
98325W        W65108   6.355  20.297  11.276
98326W        W65109  39.871  38.607   1.804
98327W        W65110  39.487  32.199  12.443
98328W        W65111  38.006  25.207  11.588
98329W        W65112  42.841  23.061   0.172
98330W        W65113  26.668  42.995  10.535
98331W        W65114  35.699   0.592   1.197
98332W        W65115  20.877  15.148  13.729
98333W        W65116   3.250  22.669  10.797
98334W        W65117  39.851  36.052   2.150
98335W        W65118  36.896   5.677   1.794
98336W        W65119  38.603  12.407  11.036
98337W        W65120  10.287  21.746   0.311
98338W        W65121  44.951  14.307  12.765
98339W        W65122  16.778  40.840   3.698
98340W        W65123  20.032  39.335  13.895
98341W        W65124  15.642   6.941   2.759
98342W        W65125  36.854  40.936   2.355
98343W        W65126   6.694   4.658   0.796
98344W        W65127  43.356  26.072  10.678
98345W        W65128  13.180  43.718   2.037
98346W        W65129   8.480  11.097   2.349
98347W        W65130   2.766  37.582  14.562
98348W        W65131   7.702   5.356   2.234
98349W        W65132  32.888  32.046   1.301
98350W        W65133   5.056   1.499  11.144
98351W        W65134  19.567  10.295   0.455
98352W        W65135  41.024  39.563  14.765
98353W        W65136   8.305   6.214  10.733
98354W        W65137  11.365  18.011  11.368
98355W        W65138  20.736  40.355   0.499
98356W        W65139  39.475  20.143   3.673
98357W        W65140   7.829  30.811  14.426
98358W        W65141  18.109   1.782  11.166
98359W        W65142   5.958  34.010  10.958
98360W        W65143   6.757  28.839  13.446
98361W        W65144   6.003  10.565   4.857
98362W        W65145  42.066  16.182  10.710
98363W        W65146  37.372  11.995   3.510
98364W        W65147   9.782  33.981   3.823
98365W        W65148   1.813  43.553   0.384
98366W        W65149  41.507  38.519   4.210
98367W        W65150   4.886  16.701   1.038
98368W        W65151  30.499  18.804  10.932
98369W        W65152  43.324  41.013  14.256
98370W        W65153  36.137  33.915  13.857
98371W        W65154  25.022  21.868   3.057
98372W        W65155  25.700  27.069  13.879
98373W        W65156  13.374   8.624   3.723
98374W        W65157   0.294  38.597  14.348
98375W        W65158   1.403  42.908  13.581
98376W        W65159  43.882  16.829   1.730
98377W        W65160   4.643  22.716  12.378
98378W        W65161  14.740  17.289   3.151
98379W        W65162  11.238  41.502   3.261
98380W        W65163  23.687  21.777  10.430
98381W        W65164   2.864   8.773  12.080
98382W        W65165  14.645  17.698  10.959
98383W        W65166  21.575  44.437  14.574
98384W        W65167  26.225  20.511   2.346
98385W        W65168  10.444   6.428  10.328
98386W        W65169  12.613   4.733   3.893
98387W        W65170  16.139  37.600  11.627
98388W        W65171  36.628  32.836  13.387
98389W        W65172  21.326  19.830  11.858
98390W        W65173  40.598  11.315   1.749
98391W        W65174  29.938   5.897   4.589
98392W        W65175  16.472  11.140   3.069
98393W        W65176  25.051  15.877   3.008
98394W        W65177   3.002  17.181  13.889
98395W        W65178  40.985   8.866  12.154
98396W        W65179  25.619  17.803   1.187
98397W        W65180   3.942  26.136  11.381
98398W        W65181  22.546  13.267   1.350
98399W        W65182  21.641  13.014  12.363
98400W        W65183   4.866  34.042   4.661
98401W        W65184  42.475  36.486   2.846
98402W        W65185  35.924  21.678   1.147
98403W        W65186   3.498  12.376   2.315
98404W        W65187  13.584   5.169  12.046
98405W        W65188  17.184  24.893   0.806
98406W        W65189  36.473  34.426  14.469
98407W        W65190  20.275  25.076  14.506
98408W        W65191  14.368  19.585   1.723
98409W        W65192  14.321  20.062   1.428
98410W        W65193  19.044  15.155  10.647
98411W        W65194  43.589  22.999  14.628
98412W        W65195  31.924   0.088  13.413
98413W        W65196  22.251  44.420  13.874
98414W        W65197  37.599  36.546   3.349
98415W        W65198  20.567  10.841  13.224
98416W        W65199   2.739  38.796   0.440
98417W        W65200  34.977  22.600   1.201
98418W        W65201  35.862  10.097   1.264
98419W        W65202  21.758  44.836   3.367
98420W        W65203  19.193  15.182  13.270
98421W        W65204  28.724   9.452   3.181
98422W        W65205   6.509  17.167  12.084
98423W        W65206  29.929  16.336   2.616
98424W        W65207  22.055  25.172   2.912
98425W        W65208  32.371  27.588   1.829
98426W        W65209  15.754  18.494  12.606
98427W        W65210  20.485  43.824   2.733
98428W        W65211   3.432   0.206   1.223
98429W        W65212   6.290  20.974  12.729
98430W        W65213  33.026  19.585   4.622
98431W        W65214   0.304  36.124  10.605
98432W        W65215  33.825  28.433   0.814
98433W        W65216   0.729  17.700   4.064
98434W        W65217   0.295  11.110  13.023
98435W        W65218  34.571  27.463  12.824
98436W        W65219  30.532  15.236   0.926
98437W        W65220  11.618   4.245  13.403
98438W        W65221  37.023  26.438   1.384
98439W        W65222  32.157  41.819   1.334
98440W        W65223   4.518  11.708  13.495
98441W        W65224  19.074  36.693   3.324
98442W        W65225  15.419   7.537   4.204
98443W        W65226  10.315   0.792  12.090
98444W        W65227  33.006  14.504   4.407
98445W        W65228  44.920  20.819   2.405
98446W        W65229  10.558  15.482  14.864
98447W        W65230  18.776   4.466  12.925
98448W        W65231  27.086  32.921  12.931
98449W        W65232  12.086  29.689   0.402
98450W        W65233  12.521  41.964  14.392
98451W        W65234  13.528  24.124   1.357
98452W        W65235  31.161  40.713  12.974
98453W        W65236  38.342  43.345   0.972
98454W        W65237  19.173  35.846   1.958
98455W        W65238   4.276  20.790   2.582
98456W        W65239  11.083   5.363   3.096
98457W        W65240  40.567  44.824  10.730
98458W        W65241  18.725  32.203  11.980
98459W        W65242  23.651  38.290  13.841
98460W        W65243  14.172  42.325   0.892
98461W        W65244   2.429  35.688  10.740
98462W        W65245  33.330  37.586  14.965
98463W        W65246  44.877   9.043   9.901
98464W        W65247  10.113  41.013   3.987
98465W        W65248  30.060  37.482   1.761
98466W        W65249   3.278  35.855  12.940
98467W        W65250  25.993   5.581   4.932
98468W        W65251   2.381   3.065   3.520
98469W        W65252  27.253  30.950  13.885
98470W        W65253  31.596  11.893  11.723
98471W        W65254  13.360   8.682  12.925
98472W        W65255  28.050  20.715  11.515
98473W        W65256   2.681  40.995   4.526
98474W        W65257  18.600   2.098   3.327
98475W        W65258  40.238  33.542   2.221
98476W        W65259   0.462   6.367  14.708
98477W        W65260  32.687  18.346   5.015
98478W        W65261  25.936   1.871  10.670
98479W        W65262  14.458  22.062  11.677
98480W        W65263  14.806  18.163   0.902
98481W        W65264  17.483  20.705   1.396
98482W        W65265  29.347  15.817   4.653
98483W        W65266  16.252  27.414   4.685
98484W        W65267  35.262  28.993  11.222
98485W        W65268   9.869   0.195  11.806
98486W        W65269  32.132  10.929   2.253
98487W        W65270  31.471  10.430   0.463
98488W        W65271  27.547  32.269   4.097
98489W        W65272  35.925  43.436   2.392
98490W        W65273   9.606  10.410  11.488
98491W        W65274  22.418  28.079  11.591
98492W        W65275  10.879  10.841   1.372
98493W        W65276  10.864  33.876  12.094
98494W        W65277   3.980   9.565   2.695
98495W        W65278  25.998  42.046  12.530
98496W        W65279  26.229  14.327  12.526
98497W        W65280  21.226   0.481   2.341
98498W        W65281   6.757  39.604   0.179
98499W        W65282  22.956  13.398  12.074
98500W        W65283  39.994  30.836  12.910
98501W        W65284  32.962  10.538   1.828
98502W        W65285   3.943  24.070   2.643
98503W        W65286  44.224  23.187   0.700
98504W        W65287  24.885   9.766  12.453
98505W        W65288  41.497  13.736  12.061
98506W        W65289  13.706  25.918  12.747
98507W        W65290  38.845  25.645   2.864
98508W        W65291  36.033  24.819   0.368
98509W        W65292  24.501   5.869   1.235
98510W        W65293  10.163  34.421  12.526
98511W        W65294   0.123  29.825   3.888
98512W        W65295  20.551  44.345   0.928
98513W        W65296  22.069  33.668   1.704
98514W        W65297  22.146   0.235  10.412
98515W        W65298  36.113  31.386  10.611
98516W        W65299  39.607  41.934   1.641
98517W        W65300  12.824   3.040  13.543
98518W        W65301  17.525  44.449   4.488
98519W        W65302   2.342  29.012  13.111
98520W        W65303  11.672  35.595   4.505
98521W        W65304  31.646  15.606   3.511
98522W        W65305  40.362  37.051  11.923
98523W        W65306  16.123   6.739   1.933
98524W        W65307   6.848   1.261  13.245
98525W        W65308   4.979  17.686  14.362
98526W        W65309  35.906  35.866   0.956
98527W        W65310  27.334  38.299  12.460
98528W        W65311  34.429  16.829   0.891
98529W        W65312   5.825  43.276   4.076
98530W        W65313  40.149  28.570   3.306
98531W        W65314  12.910   9.054   1.797
98532W        W65315  26.540  24.165   1.341
98533W        W65316  28.538  17.275   0.505
98534W        W65317  29.906  32.650  13.003
98535W        W65318  44.868  35.828  10.640
98536W        W65319   3.316   5.644  10.589
98537W        W65320   4.482  13.816  12.087
98538W        W65321  26.662  41.842   4.624
98539W        W65322  24.057  31.531   3.339
98540W        W65323  24.693  11.332   1.721
98541W        W65324  44.466   1.007  14.889
98542W        W65325   0.021  30.985   0.775
98543W        W65326  22.012  43.215  11.502
98544W        W65327  11.177  13.379   0.744
98545W        W65328   8.537  14.451  14.475
98546W        W65329  43.456  18.331   3.970
98547W        W65330  19.704  13.497   3.611
98548W        W65331  30.079  34.723   2.121
98549W        W65332  26.230   0.684   1.656
98550W        W65333   9.628  20.998  12.543
98551W        W65334  34.122  37.116  14.832
98552W        W65335  34.326  21.677   3.710
98553W        W65336   7.277  42.080   3.608
98554W        W65337  37.387   2.018  12.660
98555W        W65338   8.196  42.820   0.115
98556W        W65339  25.416   6.637  14.814
98557W        W65340  34.512  29.095   0.975
98558W        W65341  40.861   1.451   2.713
98559W        W65342  42.701  42.846   4.590
98560W        W65343   1.640  30.156  11.376
98561W        W65344  24.911  29.062   3.730
98562W        W65345  34.492  15.857  12.993
98563W        W65346   8.172   0.769  12.585
98564W        W65347  33.301   5.631  11.114
98565W        W65348  31.151  42.412  10.860
98566W        W65349  24.714  12.488  12.561
98567W        W65350  38.546  23.098   3.146
98568W        W65351  18.542  12.795   4.970
98569W        W65352  43.000  29.588  14.909
98570W        W65353  37.932  11.206   2.044
98571W        W65354  37.637  44.799   2.884
98572W        W65355  11.899  28.001   3.975
98573W        W65356   0.840  33.829  10.779
98574W        W65357  38.041  26.446   1.193
98575W        W65358  38.396  11.054   3.710
98576W        W65359   1.678   7.258   0.763
98577W        W65360  41.393  20.755  14.861
98578W        W65361   6.937  35.992   2.740
98579W        W65362  25.417   6.081   0.947
98580W        W65363  40.136  13.822  12.532
98581W        W65364   6.664  15.335   3.654
98582W        W65365   8.119   9.784  13.329
98583W        W65366  42.292  42.434   2.235
98584W        W65367  20.684  10.807  13.740
98585W        W65368  26.049  25.899  11.992
98586W        W65369   7.705  24.520   3.189
98587W        W65370  19.618   7.975   0.805
98588W        W65371  37.219  10.501   4.034
98589W        W65372  33.589   1.062  12.641
98590W        W65373  15.469  21.280  13.126
98591W        W65374   0.230  24.156  12.586
98592W        W65375  11.821   6.980   3.062
98593W        W65376  30.022   1.004  13.595
98594W        W65377  21.675  20.563  14.304
98595W        W65378   8.914   5.126  12.118
98596W        W65379   6.935  34.928  13.445
98597W        W65380  39.390  15.436  11.089
98598W        W65381  15.245  26.985   5.070
98599W        W65382  14.193   3.219  12.376
98600W        W65383   4.796  26.715  11.047
98601W        W65384   6.271  37.553  13.289
98602W        W65385  41.376  34.625  14.775
98603W        W65386  23.248  22.666  11.452
98604W        W65387  31.977  27.140  14.843
98605W        W65388  39.115   8.773  11.369
98606W        W65389  27.538  21.674   4.587
98607W        W65390  29.822  25.078   3.077
98608W        W65391  40.926  27.678   4.080
98609W        W65392  41.179   4.519   3.132
98610W        W65393  32.167  41.119   3.615
98611W        W65394   1.837  19.803  13.612
98612W        W65395  23.066  35.417   3.602
98613W        W65396  15.009  25.269   1.829
98614W        W65397   9.138  20.231   2.423
98615W        W65398   2.874  12.370   2.813
98616W        W65399  20.537  24.621  14.372
98617W        W65400   0.802  25.009   1.307
98618W        W65401   9.474   9.277  10.185
98619W        W65402   0.945  12.635   5.326
98620W        W65403  22.168   2.522   2.450
98621W        W65404  38.614   2.438   3.754
98622W        W65405  32.195  13.424   1.317
98623W        W65406  11.833  32.486  14.091
98624W        W65407  33.721   3.093   0.750
98625W        W65408   5.850  40.372   0.676
98626W        W65409  44.035  31.842   2.750
98627W        W65410   2.099  38.624  11.583
98628W        W65411  13.666  43.239   4.798
98629W        W65412  21.668  19.015   4.630
98630W        W65413  44.944   0.323  14.561
98631W        W65414  15.835  20.518  13.602
98632W        W65415  38.693  26.409   4.098
98633W        W65416  11.689  19.540   5.293
98634W        W65417  10.134  11.913   5.010
98635W        W65418   1.307   6.782   2.649
98636W        W65419  10.352   5.049  14.015
98637W        W65420  23.879  27.116  11.048
98638W        W65421  21.650  16.565  11.826
98639W        W65422  13.391  10.433  10.695
98640W        W65423  11.123   3.951  14.233
98641W        W65424  24.300  41.301  13.332
98642W        W65425  20.604   6.466   1.930
98643W        W65426  42.323   0.538   4.291
98644W        W65427   0.290  11.417  10.646
98645W        W65428  17.377  19.727   4.780
98646W        W65429  33.712  17.120   4.692
98647W        W65430  23.755  38.006   1.307
98648W        W65431   3.432  36.978  14.817
98649W        W65432   9.714  33.657   0.739
98650W        W65433  33.327  18.890   1.518
98651W        W65434   0.422  21.011  13.975
98652W        W65435   7.511  11.813  10.637
98653W        W65436  18.500  33.060   1.135
98654W        W65437  35.496   8.464  14.052
98655W        W65438  32.468   6.469   3.173
98656W        W65439  34.559  35.349  14.892
98657W        W65440  44.320  13.820  14.323
98658W        W65441  37.563   1.010   3.290
98659W        W65442   9.133   2.584  11.993
98660W        W65443  35.573  43.315  11.490
98661W        W65444  39.846   5.250  11.569
98662W        W65445   5.791  27.487  13.213
98663W        W65446   0.964  33.491  11.175
98664W        W65447   7.644  28.163   0.471
98665W        W65448  30.563   4.023  11.923
98666W        W65449   4.953  16.722  11.120
98667W        W65450  44.804  28.552   4.580
98668W        W65451  17.659  15.298   3.378
98669W        W65452   4.341  34.783  14.136
98670W        W65453  11.094  24.050  10.131
98671W        W65454  14.844  27.612   1.222
98672W        W65455  40.646  29.043  13.309
98673W        W65456  18.761   7.658   1.124
98674W        W65457  21.834   8.846  12.025
98675W        W65458  19.080  31.402   1.791
98676W        W65459  29.375   7.852  12.503
98677W        W65460  21.619  30.543  13.580
98678W        W65461  28.014   7.827   0.231
98679W        W65462  24.962  44.925   4.612
98680W        W65463   4.088  25.592  11.290
98681W        W65464  26.014  22.968   0.325
98682W        W65465   2.878  32.889  14.233
98683W        W65466  14.339  36.437   3.095
98684W        W65467   3.910  28.722  14.490
98685W        W65468  32.590   4.347   4.544
98686W        W65469   4.280   0.815   4.556
98687W        W65470  42.970  21.730   1.692
98688W        W65471   1.532  27.372  12.513
98689W        W65472   8.365  39.589   1.248
98690W        W65473   0.421   1.187  14.759
98691W        W65474  37.079  44.148   4.166
98692W        W65475   6.898  28.672  11.209
98693W        W65476  35.405  36.570  11.964
98694W        W65477  12.038  30.552   1.757
98695W        W65478  33.275  42.350  13.740
98696W        W65479  44.194   0.344   1.938
98697W        W65480  12.887  27.383   1.783
98698W        W65481  11.306  34.859   4.076
98699W        W65482  11.221   3.448  14.068
98700W        W65483  38.905  24.920   4.174
98701W        W65484  19.129  41.782   0.977
98702W        W65485  37.313  37.500  11.258
98703W        W65486   3.650  20.186   2.739
98704W        W65487  14.208   0.407   3.537
98705W        W65488  11.883  24.143   4.024
98706W        W65489  27.226  32.059   0.886
98707W        W65490  32.375  35.170   4.227
98708W        W65491  44.382   0.754   3.631
98709W        W65492  40.814  23.451  14.767
98710W        W65493  39.080  13.350  12.353
98711W        W65494  37.126  29.177  11.517
98712W        W65495  13.578  15.583  12.963
98713W        W65496   5.658  40.521   2.696
98714W        W65497  24.331   3.707   3.783
98715W        W65498   2.261   1.733   5.076
98716W        W65499  27.038  39.947   1.199
98717W        W65500   1.170  39.107   4.110
98718W        W65501  39.351  13.281   0.281
98719W        W65502  23.163  35.085   2.819
98720W        W65503  19.549  23.432  11.696
98721W        W65504  26.076  42.489  12.144
98722W        W65505   5.793  35.625  11.414
98723W        W65506  44.253   0.727  13.124
98724W        W65507   2.926   9.337   4.717
98725W        W65508  10.780   7.189   1.008
98726W        W65509   3.161   7.573   2.463
98727W        W65510   5.788  17.707   0.748
98728W        W65511  23.992  42.382   4.567
98729W        W65512  35.100  33.500   1.637
98730W        W65513   1.276  15.708  11.965
98731W        W65514  20.933  35.870   1.368
98732W        W65515   9.980  44.263  14.253
98733W        W65516  16.520  43.568  12.006
98734W        W65517  20.375  26.956  13.499
98735W        W65518  35.154  30.149  12.035
98736W        W65519   9.413  19.963   3.346
98737W        W65520  41.417  37.487  11.352
98738W        W65521  10.153  34.502   4.705
98739W        W65522  30.904  41.359   3.134
98740W        W65523   1.258  22.491  14.495
98741W        W65524  36.428  38.523   2.237
98742W        W65525   9.381   1.426  10.716
98743W        W65526   8.976   6.728   3.820
98744W        W65527   7.293  11.689   4.291
98745W        W65528  32.897   2.780  14.872
98746W        W65529   8.964  40.188  14.283
98747W        W65530  12.218  14.164   2.129
98748W        W65531  38.659  33.077   1.360
98749W        W65532  39.362  19.675   4.465
98750W        W65533  37.831  26.548   2.722
98751W        W65534   2.360  32.932  10.763
98752W        W65535  41.636   3.254   4.331
98753W        W65536   1.534  13.746  13.857
98754W        W65537  13.371   9.247  11.394
98755W        W65538  36.088  25.582  10.413
98756W        W65539   0.488  30.543  10.643
98757W        W65540  35.413  26.216   2.415
98758W        W65541  30.110  25.444   1.850
98759W        W65542  41.531  41.441   1.805
98760W        W65543  19.655  41.241  13.387
98761W        W65544  28.123  12.260   1.261
98762W        W65545  11.025  13.328  14.759
98763W        W65546   2.478  16.164   0.598
98764W        W65547  36.859   1.716   1.833
98765W        W65548  40.014  43.092   2.156
98766W        W65549  12.839  28.343  11.808
98767W        W65550  35.164  22.305   3.748
98768W        W65551   2.539   3.722   1.014
98769W        W65552   1.227  12.176   9.920
98770W        W65553  44.458  22.214   2.700
98771W        W65554  33.079  27.519   1.392
98772W        W65555   8.831  18.501   4.701
98773W        W65556  34.599   5.790   2.747
98774W        W65557  13.631   1.823  13.060
98775W        W65558  36.600  37.600   3.723
98776W        W65559   5.500  31.891   1.671
98777W        W65560  11.683   3.754   0.517
98778W        W65561  17.538  31.754   3.762
98779W        W65562  12.180  36.876  11.001
98780W        W65563  24.088  18.488  13.438
98781W        W65564  19.813   7.295   0.773
98782W        W65565   7.409  10.969   1.091
98783W        W65566   1.274  31.484  12.407
98784W        W65567  33.431  21.381   3.538
98785W        W65568  30.623  27.214  14.396
98786W        W65569   9.384  22.534  10.697
98787W        W65570  26.559  38.109  14.984
98788W        W65571  21.938  15.201  13.868
98789W        W65572  37.675  43.791   1.865
98790W        W65573   9.772  27.201   1.925
98791W        W65574   7.740   0.400   0.131
98792W        W65575  35.098   8.212   3.045
98793W        W65576  29.651   2.339  12.913
98794W        W65577  27.655   0.983  13.897
98795W        W65578  44.398  40.088  13.331
98796W        W65579  15.239  11.356  14.322
98797W        W65580   8.139   9.756  11.850
98798W        W65581  21.661   3.421   1.763
98799W        W65582   1.855  10.421  12.018
98800W        W65583  30.066   4.513  13.554
98801W        W65584  24.435  31.944   0.202
98802W        W65585  43.926  14.439  11.686
98803W        W65586  43.907  36.357   2.188
98804W        W65587  39.486  44.365  14.344
98805W        W65588  36.506  31.837   0.996
98806W        W65589   8.510   8.165  10.315
98807W        W65590  17.051  14.241   3.652
98808W        W65591  28.697  40.039  13.998
98809W        W65592  43.062  31.561   3.219
98810W        W65593   9.356   8.495  12.385
98811W        W65594  20.844  33.092  13.554
98812W        W65595  34.478   6.940   4.077
98813W        W65596  21.727  39.480   1.878
98814W        W65597  42.416  27.622   0.084
98815W        W65598  22.502  15.748   1.484
98816W        W65599  31.409  13.066  14.978
98817W        W65600  39.984  11.433   3.618
98818W        W65601  11.111   3.651  11.611
98819W        W65602  23.854  35.819   3.006
98820W        W65603  29.962  42.112  12.974
98821W        W65604   6.152  29.946  12.990
98822W        W65605  27.496  11.838   0.961
98823W        W65606  25.439   4.792  12.341
98824W        W65607  22.935   6.681   0.924
98825W        W65608  29.985  40.713   0.943
98826W        W65609   3.711   4.729  12.009
98827W        W65610  37.947  35.896   4.805
98828W        W65611  30.662  19.604   0.758
98829W        W65612   3.018  38.475  10.637
98830W        W65613   4.782  16.876   9.966
98831W        W65614  39.042  11.125   4.717
98832W        W65615  32.885  11.698  12.912
98833W        W65616  26.675  38.011   4.559
98834W        W65617  40.466  30.541  12.013
98835W        W65618  26.792  34.505   1.645
98836W        W65619   5.930  21.542   0.929
98837W        W65620  17.692  24.950  13.887
98838W        W65621  10.784   0.900   0.057
98839W        W65622  38.870  44.547   1.299
98840W        W65623  17.206  17.182   1.100
98841W        W65624  41.414   0.501  11.590
98842W        W65625  11.815  24.151  13.067
98843W        W65626  37.676   7.563   4.473
98844W        W65627  14.494   9.315  13.018
98845W        W65628   1.246  33.937   2.709
98846W        W65629  16.744  17.058   2.642
98847W        W65630  44.421  36.778   1.303
98848W        W65631  24.614  17.890  13.013
98849W        W65632   7.169  27.151  14.002
98850W        W65633   1.234  20.449   2.425
98851W        W65634  32.540   4.790   2.257
98852W        W65635   9.629   4.949  12.668
98853W        W65636  34.093  23.619  13.772
98854W        W65637  18.086  41.021   2.026
98855W        W65638   8.362   7.377   1.824
98856W        W65639  23.166  32.879  12.446
98857W        W65640   7.625  43.623  12.376
98858W        W65641  23.128  19.516   0.958
98859W        W65642  16.626  29.103   4.524
98860W        W65643  41.980  43.372  12.981
98861W        W65644  14.151   6.884   4.704
98862W        W65645  16.109  25.726  13.426
98863W        W65646  11.657  30.886  10.758
98864W        W65647  24.082  31.870  14.838
98865W        W65648  42.358  26.884  14.995
98866W        W65649  34.147   4.654  10.356
98867W        W65650  21.775  25.961   2.324
98868W        W65651  37.438  44.901   3.367
98869W        W65652  31.926  33.324  13.501
98870W        W65653  23.018   1.467   4.546
98871W        W65654  15.607  16.017  10.614
98872W        W65655  24.442  14.200  12.921
98873W        W65656  16.827  39.620   2.339
98874W        W65657  28.479  13.379   2.286
98875W        W65658  16.517  31.876  14.958
98876W        W65659   1.351  14.860  12.520
98877W        W65660  20.299   5.741   1.870
98878W        W65661  40.279  31.312  12.985
98879W        W65662   1.686  39.147   3.157
98880W        W65663   9.905  26.093   2.811
98881W        W65664   1.070   0.746   0.686
98882W        W65665  19.940   2.739   4.527
98883W        W65666  10.305  37.757  11.954
98884W        W65667  36.581  26.248   3.770
98885W        W65668  18.047  34.032   3.194
98886W        W65669  44.291  29.665  13.509
98887W        W65670  14.135  21.498  13.791
98888W        W65671   8.863   5.315   0.943
98889W        W65672  10.706  17.135   2.622
98890W        W65673   3.395  38.618   5.059
98891W        W65674  13.825  43.363  11.148
98892W        W65675  29.120  36.433  13.605
98893W        W65676   4.912  14.990   1.793
98894W        W65677   7.707  14.756   3.161
98895W        W65678  26.162  40.066   0.791
98896W        W65679  36.085  34.509   3.221
98897W        W65680  37.969  32.677  13.351
98898W        W65681  24.065  30.999   1.016
98899W        W65682  32.348  34.917  14.457
98900W        W65683  28.538  27.045  12.116
98901W        W65684  42.456   9.745  10.429
98902W        W65685  12.795  21.266  13.414
98903W        W65686  43.988   8.445  11.355
98904W        W65687   0.941  10.631  14.010
98905W        W65688  10.350  40.453   4.620
98906W        W65689  26.171   5.687   4.465
98907W        W65690  38.768  31.113   0.353
98908W        W65691  38.297  17.618  14.400
98909W        W65692   7.171  26.003   2.738
98910W        W65693  43.739  22.482  10.663
98911W        W65694  41.930  13.924  14.463
98912W        W65695  31.977   6.454   4.315
98913W        W65696   3.835  26.063   4.718
98914W        W65697  27.010   2.817  13.885
98915W        W65698   0.883  40.412   1.340
98916W        W65699  20.489  10.579   3.856
98917W        W65700  19.970  44.653  10.686
98918W        W65701  16.065  22.571   0.835
98919W        W65702  39.485  30.051  13.947
98920W        W65703  28.114  15.660  14.500
98921W        W65704   4.839  32.521   2.378
98922W        W65705  28.774  14.565  11.167
98923W        W65706   7.889  16.626   1.360
98924W        W65707  34.156  34.401   3.120
98925W        W65708   3.714  12.678  10.651
98926W        W65709  26.590  20.433  13.355
98927W        W65710  43.057  22.708   4.184
98928W        W65711  16.653   4.438   4.636
98929W        W65712   7.876  25.032  10.717
98930W        W65713  12.103  25.612  12.760
98931W        W65714  19.115  29.732  11.685
98932W        W65715   5.796  26.922   2.404
98933W        W65716  20.480  11.784  14.841
98934W        W65717  41.411  29.433  12.575
98935W        W65718  12.104  20.335   4.586
98936W        W65719  18.563  16.625   3.934
98937W        W65720  15.115  13.853   2.215
98938W        W65721  12.649  14.419  13.609
98939W        W65722   9.808   1.845   1.259
98940W        W65723   3.567  18.258  10.530
98941W        W65724  35.345  11.495  11.899
98942W        W65725  22.688   0.281   3.288
98943W        W65726   6.764  16.763   0.699
98944W        W65727  15.842  26.199   4.231
98945W        W65728  10.621  10.132   0.872
98946W        W65729   4.713   7.202  11.225
98947W        W65730  22.460   1.971   4.051
98948W        W65731  16.188   2.054   0.291
98949W        W65732  10.896  22.023   1.416
98950W        W65733  24.574  15.221  11.600
98951W        W65734   8.286   8.174  13.915
98952W        W65735   1.053  37.053  14.921
98953W        W65736  24.431  27.580   0.021
98954W        W65737  32.391  34.525   1.239
98955W        W65738  11.080  41.095   1.434
98956W        W65739   0.069  22.838   0.386
98957W        W65740  35.394  44.934  11.197
98958W        W65741   5.255  36.456   0.456
98959W        W65742  13.301  16.612  12.947
98960W        W65743   4.711  20.331   0.463
98961W        W65744  28.524  31.536   4.382
98962W        W65745   4.112   5.480  11.616
98963W        W65746   1.470   8.387   3.593
98964W        W65747  27.696  40.992   3.887
98965W        W65748   1.313  13.740   1.537
98966W        W65749  29.624  33.785   1.799
98967W        W65750  35.049  27.210  14.538
98968W        W65751  19.128  18.799   2.847
98969W        W65752   4.157  42.122  12.709
98970W        W65753  40.370  30.154  12.419
98971W        W65754   8.614   3.365  13.229
98972W        W65755  16.911  40.993  11.843
98973W        W65756  31.453  21.574   1.157
98974W        W65757  25.601  44.256   3.561
98975W        W65758  20.229   3.509   0.489
98976W        W65759  12.812   9.754  14.312
98977W        W65760   9.599  43.351  12.543
98978W        W65761  15.771  26.790   5.183
98979W        W65762  32.553   7.654  12.530
98980W        W65763  37.138  22.013   1.318
98981W        W65764  20.228  27.698   0.880
98982W        W65765  26.444  21.625   4.405
98983W        W65766  36.280  20.111  13.780
98984W        W65767  41.713  37.536  10.917
98985W        W65768  30.656  35.053  12.866
98986W        W65769  15.894   2.983  14.977
98987W        W65770  12.609  27.705  11.167
98988W        W65771   3.957  33.603  11.171
98989W        W65772  29.719  32.865  12.571
98990W        W65773  33.889   4.739   2.307
98991W        W65774  24.004   9.167   3.823
98992W        W65775   1.205  28.902  12.481
98993W        W65776   3.786  10.534   1.032
98994W        W65777  23.107  25.697   0.339
98995W        W65778  17.922   7.482   1.696
98996W        W65779  10.758  17.586  10.583
98997W        W65780   2.480  42.945  10.534
98998W        W65781   2.554  20.738  12.357
98999W        W65782  38.428  16.281  14.545
99000W        W65783  30.128  34.399   4.122
99001W        W65784   9.234  13.267  12.626
99002W        W65785  26.744  17.769  11.009
99003W        W65786  34.140   5.823   3.509
99004W        W65787   2.370  22.868   4.071
99005W        W65788  13.803   5.514  13.487
99006W        W65789  34.812   4.717  10.618
99007W        W65790  29.179  37.310   2.863
99008W        W65791  32.607  26.236   1.302
99009W        W65792  23.134  38.040  11.448
99010W        W65793  35.028  19.752   3.582
99011W        W65794  15.610   9.222   4.590
99012W        W65795   4.160  40.692   0.817
99013W        W65796   3.364  37.855  14.182
99014W        W65797  41.598  33.560  13.348
99015W        W65798  22.753  14.026  14.405
99016W        W65799  30.074   8.678   3.336
99017W        W65800  30.523  40.625  11.626
99018W        W65801  23.877  31.487  10.590
99019W        W65802  27.061  44.805  13.560
99020W        W65803  13.658  15.205   2.145
99021W        W65804  17.316  35.299   5.091
99022W        W65805  43.750   1.387   4.125
99023W        W65806   8.148  24.056   1.455
99024W        W65807   0.805  31.265   1.865
99025W        W65808  40.008  36.228  12.048
99026W        W65809  38.569  26.171   2.226
99027W        W65810  15.227   7.088  14.037
99028W        W65811  14.129  32.059   3.768
99029W        W65812  13.748  40.589  14.961
99030W        W65813  36.537  43.400   3.219
99031W        W65814  19.921  34.683  13.823
99032W        W65815  30.488  36.492  13.118
99033W        W65816   4.378  31.008   4.833
99034W        W65817  28.241  29.051  10.982
99035W        W65818  12.340   4.895  13.435
99036W        W65819   6.470  35.432   4.051
99037W        W65820   1.845  31.444   2.615
99038W        W65821  10.695  17.668   2.442
99039W        W65822  35.923   5.312   3.684
99040W        W65823   0.365  29.269  13.797
99041W        W65824   1.399  25.518  12.641
99042W        W65825  27.243  24.737   3.675
99043W        W65826   1.989  29.462   4.093
99044W        W65827  18.302  11.556  12.098
99045W        W65828  17.184  21.044  10.671
99046W        W65829  26.148  25.733  12.484
99047W        W65830  29.467  40.638   0.944
99048W        W65831  34.675  18.206  13.995
99049W        W65832  24.592  28.746   3.403
99050W        W65833  28.109   1.222  11.533
99051W        W65834   1.942   2.369  12.675
99052W        W65835   8.453  21.748   2.015
99053W        W65836   8.830  34.751  11.050
99054W        W65837  23.794  17.841  12.754
99055W        W65838  42.130  36.479  14.964
99056W        W65839  11.636   0.502   0.269
99057W        W65840  18.565  16.548   0.719
99058W        W65841  31.664  22.933   4.182
99059W        W65842   3.983  10.713   3.784
99060W        W65843  36.152  44.630  10.871
99061W        W65844  31.652  40.390   4.825
99062W        W65845  14.118   4.214  12.574
99063W        W65846  20.388  14.644  14.789
99064W        W65847  42.974  19.711  14.927
99065W        W65848  16.349  36.574  14.815
99066W        W65849  42.989  42.253  10.837
99067W        W65850   6.870  17.091  12.434
99068W        W65851  15.814  22.784   4.011
99069W        W65852  17.772  44.753  13.913
99070W        W65853  13.163  42.810  13.804
99071W        W65854  24.559  19.774   4.544
99072W        W65855   9.957   5.299   3.741
99073W        W65856   2.511   9.772   3.880
99074W        W65857  19.580  23.627  11.207
99075W        W65858  20.047  18.573   1.734
99076W        W65859  35.631  21.448   3.740
99077W        W65860  35.353   9.872  13.764
99078W        W65861   1.324  19.141   4.645
99079W        W65862  38.033   3.782   2.736
99080W        W65863   5.455  14.690   2.012
99081W        W65864   6.283  35.511  11.291
99082W        W65865  10.208  43.812  12.111
99083W        W65866  40.288  25.013   5.110
99084W        W65867   3.916  10.636  11.603
99085W        W65868  21.467  43.897   4.996
99086W        W65869  44.360  35.577  12.954
99087W        W65870  18.754  20.170  12.137
99088W        W65871  36.523   8.314  11.158
99089W        W65872   6.602  37.823  11.602
99090W        W65873  34.595  31.543   4.172
99091W        W65874  25.494  32.607   3.280
99092W        W65875  42.287  27.136   2.567
99093W        W65876   6.625  18.906   1.314
99094W        W65877  36.518   4.452   0.441
99095W        W65878  16.036  32.116   0.381
99096W        W65879  41.076  43.386   4.746
99097W        W65880   8.828  16.318   2.845
99098W        W65881   5.608  28.561   4.751
99099W        W65882  16.827  43.665  11.034
99100W        W65883  18.050   7.802   4.586
99101W        W65884  32.810  22.066  14.216
99102W        W65885   6.663  28.132   0.677
99103W        W65886  11.437  27.139  14.032
99104W        W65887   9.747  13.488  10.758
99105W        W65888  12.303  11.638   9.510
99106W        W65889  12.979  26.394  11.440
99107W        W65890  12.022  15.094   3.187
99108W        W65891  19.977  20.319  11.191
99109W        W65892  32.147  40.428   3.338
99110W        W65893  19.373  16.826  10.978
99111W        W65894   1.858  19.432   0.904
99112W        W65895  27.433  35.982  14.870
99113W        W65896  39.848  14.334  11.666
99114W        W65897   9.166  17.661  12.562
99115W        W65898  27.124  44.487   1.924
99116W        W65899  38.350  10.756   3.251
99117W        W65900  36.693  36.449   4.583
99118W        W65901  22.586  27.869  14.899
99119W        W65902  41.884  25.595  10.229
99120W        W65903  29.781  41.381  13.888
99121W        W65904  30.656  42.017  14.424
99122W        W65905  17.119  24.808   0.223
99123W        W65906  17.491  12.083   3.223
99124W        W65907  35.134  34.354   3.376
99125W        W65908   3.815  40.377  10.624
99126W        W65909  29.132  31.014   4.647
99127W        W65910  30.830  11.115  14.953
99128W        W65911  11.698  31.168   3.887
99129W        W65912  26.184  13.778   3.718
99130W        W65913  13.637  29.906  11.379
99131W        W65914   0.868  30.390   3.377
99132W        W65915  37.494  13.201  12.934
99133W        W65916  19.202  16.335   0.884
99134W        W65917  23.125  23.484   2.670
99135W        W65918  27.017  29.994  14.603
99136W        W65919  20.583  40.847  14.261
99137W        W65920   5.187   6.710  11.959
99138W        W65921  34.315  15.681  13.463
99139W        W65922  16.366  19.661   5.114
99140W        W65923  16.154  31.524  14.016
99141W        W65924  24.697  38.863  14.839
99142W        W65925   1.270   1.000  14.412
99143W        W65926   2.192  10.947  11.686
99144W        W65927  39.468  30.869  13.607
99145W        W65928  39.936  33.910   1.964
99146W        W65929  40.315  44.899  14.253
99147W        W65930  42.479  29.691  14.932
99148W        W65931   7.972   3.852   4.059
99149W        W65932  37.180  19.061  10.743
99150W        W65933  22.562  28.960   3.596
99151W        W65934  20.665   2.833   1.506
99152W        W65935  23.085  15.713  11.022
99153W        W65936  29.727   9.690  13.883
99154W        W65937  13.179  19.066  14.480
99155W        W65938  38.828  14.248   3.694
99156W        W65939  20.266  32.914  11.681
99157W        W65940  17.595  16.006   2.659
99158W        W65941  22.758   3.370  11.589
99159W        W65942  14.594   1.776  13.464
99160W        W65943  21.422  27.680   1.302
99161W        W65944  37.339  16.278   0.313
99162W        W65945  17.952  22.210   4.551
99163W        W65946  15.553  24.727   0.008
99164W        W65947  18.276   9.170  10.693
99165W        W65948   7.494  25.240   2.326
99166W        W65949  22.268  31.963   1.428
99167W        W65950   3.303  28.140   0.952
99168W        W65951  28.931  20.836   1.342
99169W        W65952  22.701  28.476   1.678
99170W        W65953  21.212   1.411   4.265
99171W        W65954  26.695  28.542  11.631
99172W        W65955  28.674  33.170   0.897
99173W        W65956  22.725  19.058   3.114
99174W        W65957  24.468  37.379  11.665
99175W        W65958   8.978  26.596   1.763
99176W        W65959  44.002  21.592  14.221
99177W        W65960   9.336   2.407  10.426
99178W        W65961  40.422  17.698  12.839
99179W        W65962  36.545  43.991   0.698
99180W        W65963  42.460   3.008   1.217
99181W        W65964  44.506  22.612  12.313
99182W        W65965  12.555  31.606   5.053
99183W        W65966   9.293  19.524   1.751
99184W        W65967  25.412  36.991  14.663
99185W        W65968  39.106  16.745  12.870
99186W        W65969  17.769  42.517  14.239
99187W        W65970  44.407  21.025   0.794
99188W        W65971  29.583  17.039   4.841
99189W        W65972  21.991   4.687  14.881
99190W        W65973   5.401   1.367   2.794
99191W        W65974  11.602  26.064  14.537
99192W        W65975  31.412  22.638   2.904
99193W        W65976  41.865  40.616   0.530
99194W        W65977   7.357  21.454  13.909
99195W        W65978  24.480  41.875  13.339
99196W        W65979  29.683  23.219   0.715
99197W        W65980  34.995  30.526  10.395
99198W        W65981  24.122  33.195  11.207
99199W        W65982  24.140  10.560  14.897
99200W        W65983  28.920  40.847  13.721
99201W        W65984  11.622  44.044  10.475
99202W        W65985   2.487  37.287   2.338
99203W        W65986  13.793  14.317   1.288
99204W        W65987  21.589  13.748   9.751
99205W        W65988  23.204   6.883   0.545
99206W        W65989  29.771  25.321  11.267
99207W        W65990   6.733  37.804  12.097
99208W        W65991  14.183  11.275   3.685
99209W        W65992  26.972  16.272  11.236
99210W        W65993   4.907  26.956  12.962
99211W        W65994  22.497   9.393   3.751
99212W        W65995  32.454  43.261   0.481
99213W        W65996  17.068  43.948  10.378
99214W        W65997  20.499  22.641   1.239
99215W        W65998  14.685  25.468   2.966
99216W        W65999  24.455  28.501  13.466
99217W        W66000  16.601   9.105  11.244
99218W        W66001  30.910   8.125  12.840
99219W        W66002   0.356  42.047   1.757
99220W        W66003  20.941   8.128   2.815
99221W        W66004  37.977   5.999  13.274
99222W        W66005  42.281  35.970   2.972
99223W        W66006   7.002  18.798  11.041
99224W        W66007  40.551  41.577   4.701
99225W        W66008  15.608   2.347   0.743
99226W        W66009  20.634  34.862   0.394
99227W        W66010  19.601   6.818  13.587
99228W        W66011  35.125  25.479   2.968
99229W        W66012   1.176   0.267   0.495
99230W        W66013  15.657  20.246   4.653
99231W        W66014   2.416  37.751   3.722
99232W        W66015  24.488  19.355  11.964
99233W        W66016   1.404   3.111  11.879
99234W        W66017  28.132   5.408  12.511
99235W        W66018  13.335  23.965  13.777
99236W        W66019  26.261  26.006   0.370
99237W        W66020  31.048  33.759  14.319
99238W        W66021  19.124  43.447   0.703
99239W        W66022  28.941  16.739   4.968
99240W        W66023  29.160  27.157   2.247
99241W        W66024  39.442  31.661  13.113
99242W        W66025  26.551  41.471   4.277
99243W        W66026  25.404  38.291   2.406
99244W        W66027   3.711  28.199   0.539
99245W        W66028   9.106   7.288  14.487
99246W        W66029   0.864  11.350   2.701
99247W        W66030   5.172  17.971  11.745
99248W        W66031  38.253  17.711   0.273
99249W        W66032   7.511  30.659  12.396
99250W        W66033  23.743  10.782  10.688
99251W        W66034  32.445   1.541  12.923
99252W        W66035  38.905  18.085  13.373
99253W        W66036  41.473  31.323  10.639
99254W        W66037  31.955  28.915  14.838
99255W        W66038  11.600  38.538   5.526
99256W        W66039  34.471  15.125  10.504
99257W        W66040  33.999  25.477  14.315
99258W        W66041  15.154  40.516   2.763
99259W        W66042  13.117  23.563   1.954
99260W        W66043  14.750  23.474   1.306
99261W        W66044  36.461  13.561   3.888
99262W        W66045  42.050  12.722  13.786
99263W        W66046  35.564  35.400   1.397
99264W        W66047   6.541  29.501  13.917
99265W        W66048   9.622  20.504   2.275
99266W        W66049  24.363   1.272  13.536
99267W        W66050  17.767  30.375  13.857
99268W        W66051   6.204   7.757  13.390
99269W        W66052  14.586  25.977   2.889
99270W        W66053   9.748  11.926  10.606
99271W        W66054  14.633  29.402   0.798
99272W        W66055  23.544   5.093  14.876
99273W        W66056   4.178  28.146   0.300
99274W        W66057   6.118  40.533   4.244
99275W        W66058  13.629  11.200   3.715
99276W        W66059   3.828  17.167  11.267
99277W        W66060  11.106   7.400   3.405
99278W        W66061  24.989   5.785  13.480
99279W        W66062  16.814  15.123  12.995
99280W        W66063  25.525  11.747   5.025
99281W        W66064  34.587  26.392   2.149
99282W        W66065  17.461  25.179   4.413
99283W        W66066   2.317   3.227   2.273
99284W        W66067  28.479  32.468   3.621
99285W        W66068  22.956   1.350   0.767
99286W        W66069   8.486  21.777  12.785
99287W        W66070  32.790   1.482  14.059
99288W        W66071  27.486  33.477  11.373
99289W        W66072  42.125  44.939   3.314
99290W        W66073  38.057   5.439  11.147
99291W        W66074  11.801  33.515   3.445
99292W        W66075   2.346   6.075  10.206
99293W        W66076  15.680  16.802   1.398
99294W        W66077  14.785  28.394  10.797
99295W        W66078  41.765   2.500  12.198
99296W        W66079  31.423  31.849  12.510
99297W        W66080   1.033  41.378  11.243
99298W        W66081   4.687  29.098   2.344
99299W        W66082   0.201  37.142   1.767
99300W        W66083  37.586   4.935   4.114
99301W        W66084  24.980  43.771  11.920
99302W        W66085  25.245  37.550   0.288
99303W        W66086  40.598  24.519  13.484
99304W        W66087  30.375  37.742  14.875
99305W        W66088   3.306   8.442   1.160
99306W        W66089  40.374   9.688   0.347
99307W        W66090   2.885  34.030  10.703
99308W        W66091  17.140  27.299  10.997
99309W        W66092  10.430  19.824  10.658
99310W        W66093  25.216   7.368  12.426
99311W        W66094  18.166   0.388  13.606
99312W        W66095   5.788  24.505   0.177
99313W        W66096   7.792  34.152   2.862
99314W        W66097  35.559   2.276   2.810
99315W        W66098  39.539   0.457   1.667
99316W        W66099  24.677   9.364  12.691
99317W        W66100  18.158   4.990   2.683
99318W        W66101  12.276   1.288   4.490
99319W        W66102  23.197  32.242   4.514
99320W        W66103  22.466   2.749   3.082
99321W        W66104   1.336  36.187  10.715
99322W        W66105   4.893  21.031  12.369
99323W        W66106  40.483   0.652  13.777
99324W        W66107  15.254   2.795   4.515
99325W        W66108  35.179  25.631   0.849
99326W        W66109   1.981  19.921  13.061
99327W        W66110  26.185   2.295   1.622
99328W        W66111   3.353  44.461   3.785
99329W        W66112  26.796  13.216  10.824
99330W        W66113  11.086  18.335  11.059
99331W        W66114  19.762  10.585   0.899
99332W        W66115  22.873  32.049  14.569
99333W        W66116  26.508   1.794   1.008
99334W        W66117  41.430  36.390  12.625
99335W        W66118  32.712  38.820  11.447
99336W        W66119   1.217  23.165   1.449
99337W        W66120  15.844  33.466  14.050
99338W        W66121  18.671  21.575  14.624
99339W        W66122   5.474  30.531   1.943
99340W        W66123  32.496  22.497   0.095
99341W        W66124  38.097  25.672   2.315
99342W        W66125  35.072   9.612  12.065
99343W        W66126  36.681  18.194   4.956
99344W        W66127   9.196  21.214  12.396
99345W        W66128  13.589  24.061   2.237
99346W        W66129   4.297   6.614  14.372
99347W        W66130  17.832  24.546  14.703
99348W        W66131  23.947  30.224   2.409
99349W        W66132  31.935   6.682  10.347
99350W        W66133  38.844  24.710  11.662
99351W        W66134  19.843  32.999  13.620
99352W        W66135  10.704  19.575   1.412
99353W        W66136  33.888  16.888   3.566
99354W        W66137  28.129  32.754  11.492
99355W        W66138   7.744  15.802  12.960
99356W        W66139   9.818  37.400  13.968
99357W        W66140  42.351  12.866  11.853
99358W        W66141  23.850   4.114  14.751
99359W        W66142  34.679   5.058  11.994
99360W        W66143  39.788  20.158   0.949
99361W        W66144  37.813  10.973  11.467
99362W        W66145   5.955  22.881  11.269
99363W        W66146  38.248  39.309   4.082
99364W        W66147  36.547  22.934   2.217
99365W        W66148  24.071  32.363  12.491
99366W        W66149  19.642  40.168   4.061
99367W        W66150  18.581  13.670  14.159
99368W        W66151  37.996  17.109  13.581
99369W        W66152  42.720  39.210  11.036
99370W        W66153  37.422   2.308   4.054
99371W        W66154  34.091  16.100  14.587
99372W        W66155  16.621  28.632   3.744
99373W        W66156  41.454  15.372   4.431
99374W        W66157  34.276   2.746  11.156
99375W        W66158  21.204  34.560  14.351
99376W        W66159  29.999  35.946   3.808
99377W        W66160  42.000  13.372   2.662
99378W        W66161  12.217   9.708  12.958
99379W        W66162  40.434  22.745   0.882
99380W        W66163  17.894  37.954   5.479
99381W        W66164  28.379  20.688  13.534
99382W        W66165  32.084  15.096   1.857
99383W        W66166  24.781  33.037   1.828
99384W        W66167  15.685   0.941  12.988
99385W        W66168  10.262  14.054   0.744
99386W        W66169  29.009  24.294  12.041
99387W        W66170  30.246   5.189   1.767
99388W        W66171  11.838  21.749  14.915
99389W        W66172   7.346  34.331  14.843
99390W        W66173  43.889  23.556  12.117
99391W        W66174  12.121   2.998   2.197
99392W        W66175   3.230  23.435   2.395
99393W        W66176   4.778  15.813   2.699
99394W        W66177  38.777   8.939   1.919
99395W        W66178  36.134  24.039   2.809
99396W        W66179  14.556   5.797   4.041
99397W        W66180   8.137  17.038  14.466
99398W        W66181   3.235  32.173   0.319
99399W        W66182  39.782  44.681   0.487
99400W        W66183  15.401  15.473  12.414
99401W        W66184  12.101  41.121   3.161
99402W        W66185   5.952  33.906  12.333
99403W        W66186  17.020  16.685   1.792
99404W        W66187  40.429  34.362  14.483
99405W        W66188   5.360  27.419   0.485
99406W        W66189  18.596  36.596  13.889
99407W        W66190  35.080  18.117  10.691
99408W        W66191  30.442  32.895   2.355
99409W        W66192  23.204  43.914   3.272
99410W        W66193  23.612  44.166   1.849
99411W        W66194  14.340  37.302  11.182
99412W        W66195   9.382  24.681   3.927
99413W        W66196  23.423  17.838  13.485
99414W        W66197  38.606  10.782   1.515
99415W        W66198  24.432  20.592  14.054
99416W        W66199  43.898  18.734  11.575
99417W        W66200   0.025  38.255   3.581
99418W        W66201  38.173   8.761  11.316
99419W        W66202  27.466  19.812  11.546
99420W        W66203  36.466  28.311   1.452
99421W        W66204  33.088   1.837  13.098
99422W        W66205  24.380  26.658  13.140
99423W        W66206  17.617  25.477  12.473
99424W        W66207  23.492  28.890   4.620
99425W        W66208  31.019  39.883  11.530
99426W        W66209  29.707  14.150  11.972
99427W        W66210  28.700  19.495   3.189
99428W        W66211  22.294   8.639   3.284
99429W        W66212  27.600  25.675   2.873
99430W        W66213  13.310   1.518  11.122
99431W        W66214   4.780  17.407   4.116
99432W        W66215  32.515  26.054   4.117
99433W        W66216   7.086  15.272   4.462
99434W        W66217  30.005  43.545   1.684
99435W        W66218  15.815   2.762  14.256
99436W        W66219  40.993  16.833   0.940
99437W        W66220  31.071  19.703  14.335
99438W        W66221   5.866  38.573  13.299
99439W        W66222  26.014  24.222  12.814
99440W        W66223   0.941  39.982  11.822
99441W        W66224  28.416  16.744  14.731
99442W        W66225  38.070   4.442   4.126
99443W        W66226  26.107   1.706   3.196
99444W        W66227   1.458   6.959  10.930
99445W        W66228  15.643  15.704  13.733
99446W        W66229  41.848  42.794   0.242
99447W        W66230  36.530  41.977  10.904
99448W        W66231  33.075  16.178  14.808
99449W        W66232  22.030  24.680  14.422
99450W        W66233  11.298  35.130  11.421
99451W        W66234  32.619  24.470  13.014
99452W        W66235  35.967  28.765  11.650
99453W        W66236  16.127   4.373  10.691
99454W        W66237  23.956  29.688   2.380
99455W        W66238  17.632  35.350  12.758
99456W        W66239   4.671  14.566   0.422
99457W        W66240   6.952  12.274  11.076
99458W        W66241   8.240  14.111   0.421
99459W        W66242  13.186  44.916  14.535
99460W        W66243  20.591   2.288  14.828
99461W        W66244   7.711  39.090  12.525
99462W        W66245  18.035   6.620  11.583
99463W        W66246   7.564  36.449  11.093
99464W        W66247   0.634  39.192   0.957
99465W        W66248  30.409  26.110  12.880
99466W        W66249   5.584  36.054  10.328
99467W        W66250  28.431  44.335   0.317
99468W        W66251   7.753   3.781   3.569
99469W        W66252  29.968  16.847  14.935
99470W        W66253  25.979   4.705  12.994
99471W        W66254   1.554  19.577  14.483
99472W        W66255  34.541  17.121   0.460
99473W        W66256  17.349  34.118   1.419
99474W        W66257   4.470  14.137  11.267
99475W        W66258  15.132  34.450   2.207
99476W        W66259   3.255  29.381   2.109
99477W        W66260  18.092   1.887   3.333
99478W        W66261  29.949   3.945   3.581
99479W        W66262  31.967  19.241   2.718
99480W        W66263   8.240  31.110  14.484
99481W        W66264   4.410  12.244   0.823
99482W        W66265  34.416  33.715  14.409
99483W        W66266   9.784  20.092   1.335
99484W        W66267  43.945  13.564   1.556
99485W        W66268  11.786  11.600  11.918
99486W        W66269  20.510  33.856   2.118
99487W        W66270  12.680  36.118   1.902
99488W        W66271  11.770  26.417   4.904
99489W        W66272  12.056  38.053  12.355
99490W        W66273  14.217  18.134   1.760
99491W        W66274  27.604  21.565  13.975
99492W        W66275  11.861  22.950   3.237
99493W        W66276  30.800  24.553   0.250
99494W        W66277  18.185  20.554  10.651
99495W        W66278   7.588  44.190  11.506
99496W        W66279  29.764   0.971  14.097
99497W        W66280  29.101   0.314   1.781
99498W        W66281  21.883   1.349  12.944
99499W        W66282   0.648  26.016  14.088
99500W        W66283  43.537   7.005  11.601
99501W        W66284   5.407  44.895  11.933
99502W        W66285  41.536  28.935  11.651
99503W        W66286  24.159   5.251   3.617
99504W        W66287  37.350   1.515  12.567
99505W        W66288  35.345  40.508   0.925
99506W        W66289  36.841  42.023  12.142
99507W        W66290  28.023  32.107   1.401
99508W        W66291  18.676  35.090   1.289
99509W        W66292  19.569  43.727   0.789
99510W        W66293  10.876  23.527   4.785
99511W        W66294  37.670  15.790   4.228
99512W        W66295  15.886  18.817  13.932
99513W        W66296  12.984   6.436  13.954
99514W        W66297  20.078  10.932  13.091
99515W        W66298  21.408  39.086  12.428
99516W        W66299  42.609  40.398  13.611
99517W        W66300   6.999   8.701   4.196
99518W        W66301   5.451  42.702  14.656
99519W        W66302   9.598   5.915   0.521
99520W        W66303   9.372  11.809  14.853
99521W        W66304  21.637  23.262  13.103
99522W        W66305   1.545   7.736  13.147
99523W        W66306  43.565  39.288   0.268
99524W        W66307  38.868  14.375  14.368
99525W        W66308  11.084  42.620   5.300
99526W        W66309  13.624  14.220  11.172
99527W        W66310  33.108  14.198   1.552
99528W        W66311  29.456  41.170   0.211
99529W        W66312  36.058  25.190   1.859
99530W        W66313  24.558  25.784  13.135
99531W        W66314  38.533  42.064  10.720
99532W        W66315   5.956   6.654  13.885
99533W        W66316  37.262  12.188  13.060
99534W        W66317  17.384  30.117   4.948
99535W        W66318  28.913   5.129  11.922
99536W        W66319   8.324  24.534   0.295
99537W        W66320  34.534  37.546   2.679
99538W        W66321  34.270   0.645  11.127
99539W        W66322  23.948   7.148  12.578
99540W        W66323  20.640  11.347  11.507
99541W        W66324  21.249  22.954   3.919
99542W        W66325   8.941   2.352  12.705
99543W        W66326  16.568  37.032   2.230
99544W        W66327  42.853  33.941  13.526
99545W        W66328  11.707  43.312  10.087
99546W        W66329  38.076  29.652   0.363
99547W        W66330  29.874  21.675  10.320
99548W        W66331  41.890  36.171   4.594
99549W        W66332  18.270  10.517   3.589
99550W        W66333  14.759   5.794   1.772
99551W        W66334  31.439  36.860  14.582
99552W        W66335  12.294  25.009  11.982
99553W        W66336  43.153  43.519  11.024
99554W        W66337  24.122  35.055   0.706
99555W        W66338  40.233  43.359  11.251
99556W        W66339  24.433  18.181   2.881
99557W        W66340  29.494  15.326   3.870
99558W        W66341  39.836  18.969   2.773
99559W        W66342  20.853  13.310   4.135
99560W        W66343  26.725  16.144   2.846
99561W        W66344  42.957  36.958  12.383
99562W        W66345  21.147  33.011  10.596
99563W        W66346   4.660  11.949  11.656
99564W        W66347  14.227   7.490  13.064
99565W        W66348   2.775  29.580   3.271
99566W        W66349  17.526  44.199   3.193
99567W        W66350  32.195  12.805   3.175
99568W        W66351  39.124  17.296   0.417
99569W        W66352  43.484  13.148  12.977
99570W        W66353  37.439  10.200  13.740
99571W        W66354  37.919   5.934   2.403
99572W        W66355  44.259   0.859   1.272
99573W        W66356  33.046   6.447  14.778
99574W        W66357  11.593   9.405   1.659
99575W        W66358   0.765   1.350  10.377
99576W        W66359  36.128  44.502  14.049
99577W        W66360  33.380  24.605   0.262
99578W        W66361  29.385  20.242  12.601
99579W        W66362  24.425   1.010  11.118
99580W        W66363  39.999   2.206  12.831
99581W        W66364  23.701  40.350  12.001
99582W        W66365  25.008  27.897   4.192
99583W        W66366  12.783  35.089  12.903
99584W        W66367  38.747  43.154   3.767
99585W        W66368  13.866   5.267   3.169
99586W        W66369  20.697  13.310  14.945
99587W        W66370  10.922  27.023   4.161
99588W        W66371   5.820  21.418  12.399
99589W        W66372  25.253  44.725  10.929
99590W        W66373  35.864  24.065  12.558
99591W        W66374  19.540  39.451  11.927
99592W        W66375  32.006   9.301  12.241
99593W        W66376   3.987  23.537   4.781
99594W        W66377  20.273  16.769  14.803
99595W        W66378  42.241  22.154  12.542
99596W        W66379   4.648  10.810  14.471
99597W        W66380   0.237  33.567   1.905
99598W        W66381  33.359   1.379  10.391
99599W        W66382   0.073  22.035  12.520
99600W        W66383  39.395  44.246  10.691
99601W        W66384  26.981  29.606   0.429
99602W        W66385  13.490   1.936   1.664
99603W        W66386  37.906   7.901  12.072
99604W        W66387  37.464  37.115  10.510
99605W        W66388  15.675  40.233   3.035
99606W        W66389   1.487  13.783  10.722
99607W        W66390  44.121  35.066  14.560
99608W        W66391  21.324   6.237  10.557
99609W        W66392  22.903  35.340  14.949
99610W        W66393  20.770  24.133   3.665
99611W        W66394   0.294  11.193   3.805
99612W        W66395  42.824  42.310   0.404
99613W        W66396   4.155  41.601  10.443
99614W        W66397  17.618  22.614   0.963
99615W        W66398  21.630  40.348  14.543
99616W        W66399  40.153  22.756  14.463
99617W        W66400  23.700  30.736  11.936
99618W        W66401   8.578  43.531  12.616
99619W        W66402  44.781   8.699   2.138
99620W        W66403  25.731  33.144  13.287
99621W        W66404  26.182  22.265  12.397
99622W        W66405  36.355  24.097   0.411
99623W        W66406   5.377   6.479   1.916
99624W        W66407   2.498   3.477   3.233
99625W        W66408  29.350  32.424  11.326
99626W        W66409   6.367  21.627   3.545
99627W        W66410  17.113  41.767  14.302
99628W        W66411  25.632   5.723   4.571
99629W        W66412  38.286  16.698  13.275
99630W        W66413  20.135  35.622   0.394
99631W        W66414   1.435   3.210   3.282
99632W        W66415  37.493   2.330   1.150
99633W        W66416  39.020  42.985   2.122
99634W        W66417  17.774  29.459   0.484
99635W        W66418  13.584   4.019  11.049
99636W        W66419  42.275  42.194  14.114
99637W        W66420   3.476  41.021   1.437
99638W        W66421  24.397   5.420  14.845
99639W        W66422   8.196  29.328   1.509
99640W        W66423  42.466   7.049   0.373
99641W        W66424  11.592  35.499   3.059
99642W        W66425  38.811  36.403  10.525
99643W        W66426   5.798  17.797   2.275
99644W        W66427   1.178  35.072   4.747
99645W        W66428  35.612   5.700  12.434
99646W        W66429  17.129  40.052  14.014
99647W        W66430  28.025   5.350  14.095
99648W        W66431   8.388  36.577   2.642
99649W        W66432  40.087  37.480  11.642
99650W        W66433  10.970   5.169   3.574
99651W        W66434  44.282   7.974  13.533
99652W        W66435  18.339   7.851   2.855
99653W        W66436  24.495   9.751  13.608
99654W        W66437  22.704  34.863   2.793
99655W        W66438   7.663  14.324   5.007
99656W        W66439  14.727   1.212   0.267
99657W        W66440   3.276  42.554   3.888
99658W        W66441   8.795  15.371  11.946
99659W        W66442   2.929  32.183  10.682
99660W        W66443   3.755   0.829   4.296
99661W        W66444  17.178  11.529  10.942
99662W        W66445   4.934   6.791  10.989
99663W        W66446   2.424  13.863   1.740
99664W        W66447  43.567  12.866   4.197
99665W        W66448  39.548  26.905   0.922
99666W        W66449  10.758  18.115  11.864
99667W        W66450  22.950  13.832   3.307
99668W        W66451  39.344  44.275  12.467
99669W        W66452   9.982  16.915  14.456
99670W        W66453  35.115   6.784   0.432
99671W        W66454   7.695  41.772  14.249
99672W        W66455  31.410   1.687   2.848
99673W        W66456  25.018   7.260   4.775
99674W        W66457  43.478  37.390  13.044
99675W        W66458  23.498  15.241  12.548
99676W        W66459  14.914  41.452  12.950
99677W        W66460  28.161  43.591  14.840
99678W        W66461  44.676  38.467  10.593
99679W        W66462  37.501  24.459  11.431
99680W        W66463   0.144   9.305  12.716
99681W        W66464   8.079  19.140  14.191
99682W        W66465  42.377   5.343   5.450
99683W        W66466   4.654  28.426   2.697
99684W        W66467  33.123  31.762  13.845
99685W        W66468  28.912   5.834   4.204
99686W        W66469   4.449  16.559  10.387
99687W        W66470  35.957  29.716  12.515
99688W        W66471   5.988  39.126   2.796
99689W        W66472  35.656  32.167  10.738
99690W        W66473  38.355   5.252  11.505
99691W        W66474  31.126  16.051  13.577
99692W        W66475   7.138   1.213   4.446
99693W        W66476  20.912  37.835   3.602
99694W        W66477  32.820  23.604   2.363
99695W        W66478  25.887  25.036   1.611
99696W        W66479  28.558  23.745  12.386
99697W        W66480   3.840   7.213  14.008
99698W        W66481  28.694  18.522   3.186
99699W        W66482  39.813   8.237   3.313
99700W        W66483  28.396  12.717   3.149
99701W        W66484  10.357  32.831  14.131
99702W        W66485  23.220  40.529  12.712
99703W        W66486  21.043   0.842  12.968
99704W        W66487  38.922  32.359   4.300
99705W        W66488  17.147  30.444  10.121
99706W        W66489   9.054  34.319  14.019
99707W        W66490  19.391  32.627   4.931
99708W        W66491  17.109  31.922   2.314
99709W        W66492  21.053  24.011   2.886
99710W        W66493  16.103  25.164  10.609
99711W        W66494  20.179  20.728   0.514
99712W        W66495  10.779  10.846  14.958
99713W        W66496  41.522  32.127   1.763
99714W        W66497  12.378  23.269   4.143
99715W        W66498  16.064   2.340  13.743
99716W        W66499  42.408  23.988  10.880
99717W        W66500  13.227  23.215  14.690
99718W        W66501  40.495  44.272   3.758
99719W        W66502  42.847  10.710  11.664
99720W        W66503   3.831  22.264  11.526
99721W        W66504  14.883  28.981  13.428
99722W        W66505  16.622   5.975   1.474
99723W        W66506  16.489  33.405   2.081
99724W        W66507  20.080  28.619  10.687
99725W        W66508  44.464  33.312   0.908
99726W        W66509   4.860  25.105  13.182
99727W        W66510  23.513  19.115  12.952
99728W        W66511  27.037   7.734  12.469
99729W        W66512  28.802  36.329  14.862
99730W        W66513  43.397  10.003   2.810
99731W        W66514   4.177   3.761  12.876
99732W        W66515   3.700  28.234   3.535
99733W        W66516   6.106  30.189  10.264
99734W        W66517  33.564  32.225   0.349
99735W        W66518  10.542  40.974   2.086
99736W        W66519   0.835   1.525   2.329
99737W        W66520   2.854  30.665  14.810
99738W        W66521  44.455  33.849  13.340
99739W        W66522  30.142  21.658   3.724
99740W        W66523  36.372  23.616   0.254
99741W        W66524   5.586  27.111   1.951
99742W        W66525  42.321  44.227  12.022
99743W        W66526   3.054  44.473   0.312
99744W        W66527   0.238  25.864   2.904
99745W        W66528   6.236  26.719  10.979
99746W        W66529  29.971  35.337  11.268
99747W        W66530  31.057  40.587   1.353
99748W        W66531   8.283  37.633   1.338
99749W        W66532  22.344  26.256  12.040
99750W        W66533  14.907  42.133  12.458
99751W        W66534  35.186  16.163   1.149
99752W        W66535  14.671  35.604   3.324
99753W        W66536  36.642  12.646   1.023
99754W        W66537  42.460  38.594  14.807
99755W        W66538  33.074  18.928  11.064
99756W        W66539   0.092  44.827   1.564
99757W        W66540  25.212   2.012   4.617
99758W        W66541  43.365   5.437   1.412
99759W        W66542  10.353   1.340  10.686
99760W        W66543  38.122  20.558  14.978
99761W        W66544  40.199  23.507  14.401
99762W        W66545  43.315  17.065   1.157
99763W        W66546  27.504   4.321   1.190
99764W        W66547  42.601  30.113   3.616
99765W        W66548  16.297  26.544   4.070
99766W        W66549   1.761  11.636  11.633
99767W        W66550  28.191  35.815   0.355
99768W        W66551   8.854  12.795   3.841
99769W        W66552  36.267  42.308   1.298
99770W        W66553  14.493  21.081   5.061
99771W        W66554   5.886  43.788   1.830
99772W        W66555  10.304   3.305  12.390
99773W        W66556  36.555   9.297   2.833
99774W        W66557   5.859  24.115  12.880
99775W        W66558  10.561  38.069  12.908
99776W        W66559  37.076  18.696   0.534
99777W        W66560  27.164   5.233   1.209
99778W        W66561  24.119   4.333  13.420
99779W        W66562   2.378   6.502  13.927
99780W        W66563  43.880   5.218  13.902
99781W        W66564  43.973  40.835   2.776
99782W        W66565  43.951  34.885  10.598
99783W        W66566   9.392  25.152  11.080
99784W        W66567   9.553   3.190  12.996
99785W        W66568  11.932  10.088  12.077
99786W        W66569   4.948  10.670  11.205
99787W        W66570  30.480  18.805  11.453
99788W        W66571  43.043  18.032  10.846
99789W        W66572  19.742  44.230   2.991
99790W        W66573  24.966   7.372   0.459
99791W        W66574  38.872  18.774   0.207
99792W        W66575   4.729  25.917   1.986
99793W        W66576  37.399  37.836   4.505
99794W        W66577  30.492  29.675  11.710
99795W        W66578  20.465   5.863  13.832
99796W        W66579  28.014  33.131  10.721
99797W        W66580  38.305  35.084   2.777
99798W        W66581  19.224  27.469   4.992
99799W        W66582  12.791  19.880  11.432
99800W        W66583   5.910   4.028  12.048
99801W        W66584  14.187  26.990   4.760
99802W        W66585  29.197  22.161   1.694
99803W        W66586   6.733   1.071  12.670
99804W        W66587   3.809  29.293   1.326
99805W        W66588  40.898   7.593  12.394
99806W        W66589  38.578   4.193  13.743
99807W        W66590  23.037  39.072  11.675
99808W        W66591  25.281  17.751  10.696
99809W        W66592  15.573   2.561  13.823
99810W        W66593  41.766  42.812   3.725
99811W        W66594  34.456  25.405   1.899
99812W        W66595  40.364  12.280  12.495
99813W        W66596  33.611  15.392   0.760
99814W        W66597   4.145   7.248  11.128
99815W        W66598  40.938  14.251   3.558
99816W        W66599  24.213  43.965  12.499
99817W        W66600  29.901  35.681  10.887
99818W        W66601  36.651  40.419  12.904
99819W        W66602   9.175  27.994  14.511
99820W        W66603  29.739  10.896  12.052
99821W        W66604  23.235  34.896   3.705
99822W        W66605  27.088  43.847  14.319
99823W        W66606  11.448   6.470   2.439
99824W        W66607   0.997  42.370  12.833
99825W        W66608  12.983  23.419   4.159
99826W        W66609  30.924  34.147  12.963
99827W        W66610  36.582  23.987   4.142
99828W        W66611  22.726   2.704  12.146
99829W        W66612  30.847  17.051   2.163
99830W        W66613  12.097  35.589   3.122
99831W        W66614  18.840  28.011   1.833
99832W        W66615   4.428  42.598   0.396
99833W        W66616  25.157  28.101   4.722
99834W        W66617  18.368   3.080  10.694
99835W        W66618  44.740  20.178   3.304
99836W        W66619  35.384  40.516   2.305
99837W        W66620   5.303   8.830  10.410
99838W        W66621  27.632  17.229   1.276
99839W        W66622   5.724   3.473  12.446
99840W        W66623  32.225   0.056  12.102
99841W        W66624  15.330  40.841   4.891
99842W        W66625  27.484   8.652  13.182
99843W        W66626   2.716   7.606  13.979
99844W        W66627  33.563  16.495   2.340
99845W        W66628   0.926  33.925  14.389
99846W        W66629  30.874  43.215  11.310
99847W        W66630  12.974  12.035   1.841
99848W        W66631  40.458  17.642  11.506
99849W        W66632  28.653  23.158  12.910
99850W        W66633   3.940  27.196   0.719
99851W        W66634  18.592  21.558   0.618
99852W        W66635  32.151   8.197   2.726
99853W        W66636  10.905  34.670   2.224
99854W        W66637  23.946   6.637   0.804
99855W        W66638   9.185   2.302   3.662
99856W        W66639  20.332   9.596   3.485
99857W        W66640  14.282  37.858  14.534
99858W        W66641   5.494   1.708  14.463
99859W        W66642  19.675  41.260   3.194
99860W        W66643  11.857  26.465  14.777
99861W        W66644   8.792  20.342  14.413
99862W        W66645   7.893   3.441  12.360
99863W        W66646  25.632  22.563   5.042
99864W        W66647   3.881   1.813  11.601
99865W        W66648  32.386   4.767  13.398
99866W        W66649   8.394   7.343   3.297
99867W        W66650  11.264  30.920   4.067
99868W        W66651  39.009  22.513   2.444
99869W        W66652  20.770  16.213   5.012
99870W        W66653  10.392   0.469  13.041
99871W        W66654   8.515  35.595  13.208
99872W        W66655  34.812  27.321   1.727
99873W        W66656   8.249  18.324  13.706
99874W        W66657  42.379  24.459   1.315
99875W        W66658  28.323  26.016  11.901
99876W        W66659   4.439  44.757   3.114
99877W        W66660  24.066  31.048   0.495
99878W        W66661  39.064  39.183  13.980
99879W        W66662  12.385  34.661  11.183
99880W        W66663  33.984  16.560   0.846
99881W        W66664  10.900  42.656   3.688
99882W        W66665  43.087  14.822   3.261
99883W        W66666  12.281  21.767  10.614
99884W        W66667  43.344  14.184   1.061
99885W        W66668  18.165  13.487  12.917
99886W        W66669  33.039  10.224   4.108
99887W        W66670   6.253  39.791   1.773
99888W        W66671   4.724  11.867   4.136
99889W        W66672  41.337  44.866   3.832
99890W        W66673   4.874  41.957  13.524
99891W        W66674  27.461  39.129   2.702
99892W        W66675  40.830  12.163   1.196
99893W        W66676  40.466   7.293  13.968
99894W        W66677   4.363   1.499   4.921
99895W        W66678  42.084  34.532   2.450
99896W        W66679  29.463  18.454  14.102
99897W        W66680  38.546  22.298  13.465
99898W        W66681  20.208  17.339  13.896
99899W        W66682  29.220  23.983   1.643
99900W        W66683  40.242   1.416   2.841
99901W        W66684   9.734   7.315  11.921
99902W        W66685  27.518  25.039  14.017
99903W        W66686  33.615  34.504   1.868
99904W        W66687  11.123   6.848   2.679
99905W        W66688  44.737  27.181  11.281
99906W        W66689  44.356  27.938   1.864
99907W        W66690  43.793  21.876   1.541
99908W        W66691  41.300  31.229  14.467
99909W        W66692   4.569  10.810  10.872
99910W        W66693  27.027  28.650  14.747
99911W        W66694   3.988   9.784  10.757
99912W        W66695  26.573   8.353  11.908
99913W        W66696  43.318  11.766  14.794
99914W        W66697  37.060  30.718   1.395
99915W        W66698  34.403  30.173   3.205
99916W        W66699  36.004   4.279   3.390
99917W        W66700   1.906  16.788   1.720
99918W        W66701  16.521  38.997   4.102
99919W        W66702  33.507  31.892   3.729
99920W        W66703   6.570  16.686  12.343
99921W        W66704  24.684  11.742  11.847
99922W        W66705  27.727  23.321   4.871
99923W        W66706  36.133  33.036  12.560
99924W        W66707  38.299  29.105   0.203
99925W        W66708  17.772  30.432  13.007
99926W        W66709  19.698   4.383   3.843
99927W        W66710  34.118  20.761   3.848
99928W        W66711  13.120  28.792   0.413
99929W        W66712   3.808  44.364   2.460
99930W        W66713  31.115  10.624  12.447
99931W        W66714   8.691  31.998   0.744
99932W        W66715   6.364  31.133  12.184
99933W        W66716  17.863  18.234  10.693
99934W        W66717  31.995  42.085  13.382
99935W        W66718   4.342  27.695  12.896
99936W        W66719  18.101  23.534  12.357
99937W        W66720  33.048   6.814  14.066
99938W        W66721  29.537   7.168   2.358
99939W        W66722   2.049  11.571  12.452
99940W        W66723  18.568   0.779   1.506
99941W        W66724  43.461  25.541  12.563
99942W        W66725  39.349  21.649  13.560
99943W        W66726  38.212  38.974   2.309
99944W        W66727  17.308  14.057  13.974
99945W        W66728  41.284  28.649   0.963
99946W        W66729  27.995  34.384   4.590
99947W        W66730  24.975  36.270  14.312
99948W        W66731  24.504   7.122  14.275
99949W        W66732  23.879  22.165  10.178
99950W        W66733   3.176  37.562   1.443
99951W        W66734  36.084  22.965   2.423
99952W        W66735  29.461  15.509  11.277
99953W        W66736  32.818  29.569   4.146
99954W        W66737  21.801  32.379   0.559
99955W        W66738  44.859  29.470  12.828
99956W        W66739  35.041   3.888   3.451
99957W        W66740  31.276   1.464   2.396
99958W        W66741  13.710  43.203   3.359
99959W        W66742  18.099  43.012   1.722
99960W        W66743  26.741  26.913   3.187
99961W        W66744   1.345  31.489   0.537
99962W        W66745   9.693   6.242   1.518
99963W        W66746   2.766   2.947   4.521
99964W        W66747  38.095  35.432   4.586
99965W        W66748   6.153  36.378   2.210
99966W        W66749  28.141  24.882  14.906
99967W        W66750   0.161  27.631  10.908
99968W        W66751   5.331  29.610  11.597
99969W        W66752  16.891  35.593  13.904
99970W        W66753   8.473  30.825  14.846
99971W        W66754   1.989  40.350   3.798
99972W        W66755  28.530  30.049   3.643
99973W        W66756  16.651  10.649   2.252
99974W        W66757  28.374  43.083   2.206
99975W        W66758   7.672  16.833   2.783
99976W        W66759   1.875   1.400   1.332
99977W        W66760  12.227  25.539   3.463
99978W        W66761  28.331  16.009   0.798
99979W        W66762  22.989  31.524   2.292
99980W        W66763  43.518  19.435  13.496
99981W        W66764   4.634  27.171   3.285
99982W        W66765   7.423  33.403  14.584
99983W        W66766  32.962  33.641  13.455
99984W        W66767   9.309  11.834  12.372
99985W        W66768  11.850  21.113  11.403
99986W        W66769  15.092  21.021  10.555
99987W        W66770  36.041  36.831  13.477
99988W        W66771  11.147  14.714  11.927
99989W        W66772  21.502  28.659   2.785
99990W        W66773  34.409  10.921  10.686
99991W        W66774  32.942  34.805  11.529
99992W        W66775  33.545   7.849  12.493
99993W        W66776  37.390   8.622   2.749
99994W        W66777  22.715  10.511  14.243
99995W        W66778  10.748   1.850  12.621
99996W        W66779  23.775  22.573   0.865
99997W        W66780   8.154   0.663  14.958
99998W        W66781  23.256  15.770  11.488
99999W        W66782  23.776  14.086   1.806
    0W        W66783  29.415  27.547  14.863
    1W        W66784  10.306   3.402   4.137
    2W        W66785  31.142  25.122   2.940
    3W        W66786  24.220  20.035  11.110
    4W        W66787  26.001  42.813  11.684
    5W        W66788   8.048   8.222  13.381
    6W        W66789  29.071  10.150  10.307
    7W        W66790  34.292  29.496  13.159
    8W        W66791  24.024  34.051  13.239
    9W        W66792  32.433  29.949   2.456
   10W        W66793   6.704  41.820   0.482
   11W        W66794  10.553  33.016   0.354
   12W        W66795   9.331  26.672   1.399
   13W        W66796   9.325  36.384   0.962
   14W        W66797  20.313  39.885  10.094
   15W        W66798   7.648   2.337   1.304
   16W        W66799  14.740   0.417  14.726
   17W        W66800  27.437  43.222  11.803
   18W        W66801  39.595   9.709  13.525
   19W        W66802  17.736  31.673   4.637
   20W        W66803   8.348   3.434   4.202
   21W        W66804  26.210  39.825  12.615
   22W        W66805  19.134  21.017   0.788
   23W        W66806  27.944  36.662   2.959
   24W        W66807   8.886  10.214  13.439
   25W        W66808   3.429  42.997   2.486
   26W        W66809  29.448   5.032  14.214
   27W        W66810  21.314   2.302  11.626
   28W        W66811  14.647   7.240   0.328
   29W        W66812  23.885   6.380   0.315
   30W        W66813  30.133   9.228  11.512
   31W        W66814  27.181   4.685  11.761
   32W        W66815  37.173   0.668  10.529
   33W        W66816  41.280  17.515  13.093
   34W        W66817  14.860  14.204  12.523
   35W        W66818   6.506  14.121  14.445
   36W        W66819  43.254  23.011   4.568
   37W        W66820  11.329  27.445   3.318
   38W        W66821  39.604   7.157  11.983
   39W        W66822   0.318  28.025   1.694
   40W        W66823  25.451  29.623   0.197
   41W        W66824  35.376  34.130  13.416
   42W        W66825  27.044  11.919  13.116
   43W        W66826  39.050   4.915   1.412
   44W        W66827  16.810  25.663   0.492
   45W        W66828  13.030  18.116  10.642
   46W        W66829   4.259  23.579  11.104
   47W        W66830  29.943  31.442  13.909
   48W        W66831  26.832  12.771  14.216
   49W        W66832  13.177  21.448   4.143
   50W        W66833  12.929   2.635  12.268
   51W        W66834  24.643  43.789  11.544
   52W        W66835  26.426  11.879  12.036
   53W        W66836  43.309  33.440   0.993
   54W        W66837  16.227   5.791   4.596
   55W        W66838  29.111  10.347  14.338
   56W        W66839  21.564  20.699  11.798
   57W        W66840  38.538   1.416   4.360
   58W        W66841  18.456  29.630   4.163
   59W        W66842  10.275  14.638  14.358
   60W        W66843  21.422  32.066   0.693
   61W        W66844  40.898  30.099  14.149
   62W        W66845   7.414  15.559  13.258
   63W        W66846   4.937  27.748  13.638
   64W        W66847  39.505   2.825   2.626
   65W        W66848  21.630  33.501   4.582
   66W        W66849  40.967  16.152  11.961
   67W        W66850  33.701  16.192   4.905
   68W        W66851  36.492  30.178  13.045
   69W        W66852   0.948   8.141  10.587
   70W        W66853  18.117  37.355  12.000
   71W        W66854  44.839   3.427  13.893
   72W        W66855  44.041   3.295  13.446
   73W        W66856  17.575   1.975   3.921
   74W        W66857  34.978  33.427   2.141
   75W        W66858  21.594  40.893   4.559
   76W        W66859  18.470  17.573   2.340
   77W        W66860  17.677  15.812   0.336
   78W        W66861  41.955  13.338  12.579
   79W        W66862   1.836  33.677  13.160
   80W        W66863  38.615  18.358  14.422
   81W        W66864  17.701  12.116  12.635
   82W        W66865  30.939   3.667  12.001
   83W        W66866  25.724   4.602   3.904
   84W        W66867  16.501   3.526   3.362
   85W        W66868  10.034   2.323   1.352
   86W        W66869  40.005  18.995  10.691
   87W        W66870  40.743   6.250   1.106
   88W        W66871  20.359  43.973   1.834
   89W        W66872  39.825  26.471  12.467
   90W        W66873  36.615   5.364  12.930
   91W        W66874   7.720   8.182  14.798
   92W        W66875   4.934  28.573   3.272
   93W        W66876  25.950   7.289   0.282
   94W        W66877  26.165  32.462  11.162
   95W        W66878  11.301  12.128   2.824
   96W        W66879   7.076   6.638   2.181
   97W        W66880  15.159  10.422  12.528
   98W        W66881  13.435  15.601   2.375
   99W        W66882  20.236   2.037   0.399
  100W        W66883  33.405   7.617  13.951
  101W        W66884   5.865  16.183  14.483
  102W        W66885  28.525  34.365   4.632
  103W        W66886  33.464  29.843  14.020
  104W        W66887  33.974  18.289  12.582
  105W        W66888  19.920  29.608  11.952
  106W        W66889   0.475   1.721  10.601
  107W        W66890  29.853  39.410  12.423
  108W        W66891  39.625  36.846  11.451
  109W        W66892  43.277  35.100  13.482
  110W        W66893   3.624  16.724   0.695
  111W        W66894  32.411  30.017   3.389
  112W        W66895   8.320   9.649   0.996
  113W        W66896  24.846  14.054   2.881
  114W        W66897  44.760  32.071   5.070
  115W        W66898  18.067  12.888   0.328
  116W        W66899  25.647  24.018  11.114
  117W        W66900   6.195  33.411  12.344
  118W        W66901  16.424  19.634  12.034
  119W        W66902  28.538   2.865   1.829
  120W        W66903   5.322  33.281   2.118
  121W        W66904  26.162  35.552   4.417
  122W        W66905  19.533  34.361  14.042
  123W        W66906  10.265  33.537   2.462
  124W        W66907  17.254  29.929  10.853
  125W        W66908  10.884  29.379   4.353
  126W        W66909  42.098   2.996  14.669
  127W        W66910  15.635  35.685  14.224
  128W        W66911  34.704   2.534  14.245
  129W        W66912  13.061  24.450   0.888
  130W        W66913  13.491  21.091  10.732
  131W        W66914   4.912  17.670  13.217
  132W        W66915  13.102  33.450  13.606
  133W        W66916  30.712   4.946   2.270
  134W        W66917  21.159  23.079  12.927
  135W        W66918  14.160  44.821   0.997
  136W        W66919  38.534   3.243  13.351
  137W        W66920  31.979  18.577  11.221
  138W        W66921  11.483  21.676  11.545
  139W        W66922  13.729  40.047   1.478
  140W        W66923  27.519  15.631   2.609
  141W        W66924  38.902   1.066  10.735
  142W        W66925   2.759  21.340  12.510
  143W        W66926  19.817  13.789   0.499
  144W        W66927  18.561  26.205   4.022
  145W        W66928   9.453  14.319   4.097
  146W        W66929  36.119  24.805  14.535
  147W        W66930   8.679  30.966   3.730
  148W        W66931  32.506  33.876  13.490
  149W        W66932   7.710  21.025   1.726
  150W        W66933  19.610  16.590   1.692
  151W        W66934   2.955  18.775  13.460
  152W        W66935  43.189   2.152  14.511
  153W        W66936  34.902  40.779  11.138
  154W        W66937  26.393  19.283   2.595
  155W        W66938  32.434   7.045   3.997
  156W        W66939  31.158  34.832  13.594
  157W        W66940  14.240  18.257  12.326
  158W        W66941  15.385  42.571   2.283
  159W        W66942  38.569   6.703  14.330
  160W        W66943  35.435  43.817   1.546
  161W        W66944  11.969  17.676   4.137
  162W        W66945  27.122  32.719   1.754
  163W        W66946  27.551  25.054  11.396
  164W        W66947  44.259   3.789   2.196
  165W        W66948   5.256  22.225   4.693
  166W        W66949  36.765   9.816   3.691
  167W        W66950   3.872  40.386  12.861
  168W        W66951  44.091   6.989   2.317
  169W        W66952   0.010  26.722   1.747
  170W        W66953  12.532   4.292  10.375
  171W        W66954  28.937  33.086  12.074
  172W        W66955  36.024  42.746  13.498
  173W        W66956  31.010  32.372   9.542
  174W        W66957  33.871  13.905   1.402
  175W        W66958  14.367  14.626   0.548
  176W        W66959  36.632  26.696   4.989
  177W        W66960  10.327  19.608   4.401
  178W        W66961  16.244   6.752  13.304
  179W        W66962   9.802  28.140  13.172
  180W        W66963   7.291  18.671   4.615
  181W        W66964  18.082  16.680   3.726
  182W        W66965  11.132   6.744  10.785
  183W        W66966  35.974  37.322   3.726
  184W        W66967  42.594  29.135  10.527
  185W        W66968  29.885  38.132  12.125
  186W        W66969  14.679   5.392   3.772
  187W        W66970  15.114  17.210  10.644
  188W        W66971  14.881   2.216  11.146
  189W        W66972  20.567   9.645   0.235
  190W        W66973   7.506  30.374   1.253
  191W        W66974   0.166  16.301   1.664
  192W        W66975  37.041  35.500  13.829
  193W        W66976  28.896   4.323  12.095
  194W        W66977  41.932  37.326   3.649
  195W        W66978  24.908   7.623   2.677
  196W        W66979  31.931  30.389   1.412
  197W        W66980  25.064   4.322  12.038
  198W        W66981   4.477  14.104  14.529
  199W        W66982  19.048  18.839  11.235
  200W        W66983  40.438  23.890   3.632
  201W        W66984  25.930  39.863   3.881
  202W        W66985  16.840   0.256  10.557
  203W        W66986  39.981   5.864   4.965
  204W        W66987  17.976  30.920  10.560
  205W        W66988  19.272  12.578   3.815
  206W        W66989  41.092  33.635  13.241
  207W        W66990  25.218  28.892  13.015
  208W        W66991  40.297  44.579   4.123
  209W        W66992  28.672  36.334  13.903
  210W        W66993   4.140   6.897  12.695
  211W        W66994  36.000   1.569   4.536
  212W        W66995  40.036  26.206  14.008
  213W        W66996   0.364  41.071   0.689
  214W        W66997   6.709  19.269   0.926
  215W        W66998  39.058  34.811   4.129
  216W        W66999  34.994  10.270   1.343
  217W        W67000  35.293  22.944   0.427
  218W        W67001  41.465   5.771   2.690
  219W        W67002   5.721  42.229  12.547
  220W        W67003  41.633   4.159   4.988
  221W        W67004  44.553   3.708   1.776
  222W        W67005  41.380  21.549   0.271
  223W        W67006  30.810  41.566   2.620
  224W        W67007  39.567  42.948  14.160
  225W        W67008  14.306  35.681  13.888
  226W        W67009  11.996  34.329  12.138
  227W        W67010  26.644  22.574   5.454
  228W        W67011   1.070   2.722   3.420
  229W        W67012  29.116   6.900   2.356
  230W        W67013  38.298  38.089  10.540
  231W        W67014   7.440  14.202  14.774
  232W        W67015  29.229  12.774  11.032
  233W        W67016  42.983  12.327  10.719
  234W        W67017  17.002  13.225   2.825
  235W        W67018  23.740  22.130   1.427
  236W        W67019  24.135  11.587  10.020
  237W        W67020  44.092   4.239   2.374
  238W        W67021  34.807  40.605   0.723
  239W        W67022  29.070  13.577   1.149
  240W        W67023  29.006  18.917   3.353
  241W        W67024  44.723  14.593   9.893
  242W        W67025  39.242  22.161   2.747
  243W        W67026  13.619  33.735   3.053
  244W        W67027  11.380  37.008   9.815
  245W        W67028  27.293  36.532   3.577
  246W        W67029  10.807  35.413   3.622
  247W        W67030  35.018  10.380  13.573
  248W        W67031  21.825  20.067  14.447
  249W        W67032  12.498  40.741   1.284
  250W        W67033  36.859   1.652  10.889
  251W        W67034   1.269  41.387   0.776
  252W        W67035  17.014  22.570  13.567
  253W        W67036   7.646   1.802  13.937
  254W        W67037  11.211  40.473  14.429
  255W        W67038   0.853  20.714  14.007
  256W        W67039  35.786  33.838   4.560
  257W        W67040  42.987  36.000  14.224
  258W        W67041   4.837   9.455  14.410
  259W        W67042   2.628  33.503   4.613
  260W        W67043  39.102  10.135  10.533
  261W        W67044   4.951  19.124  12.366
  262W        W67045  15.448  33.127   3.758
  263W        W67046  31.509   3.402  13.522
  264W        W67047  35.387  10.267  14.500
  265W        W67048   5.003  18.485  13.258
  266W        W67049  10.414  10.578   1.439
  267W        W67050  16.307  33.746  12.988
  268W        W67051  39.593  33.965   4.048
  269W        W67052  12.795  42.677   2.789
  270W        W67053   2.259  24.672   1.655
  271W        W67054  35.350  23.114  10.592
  272W        W67055   9.415   2.473   3.127
  273W        W67056  38.666  28.002   3.941
  274W        W67057   6.232   7.162   1.903
  275W        W67058  36.515  12.417  13.850
  276W        W67059   6.755  15.684   4.470
  277W        W67060   7.161   3.117  11.319
  278W        W67061  41.127  26.078  13.639
  279W        W67062   9.300  31.652   3.719
  280W        W67063  37.305  36.442  12.102
  281W        W67064  44.286  28.080   2.345
  282W        W67065  43.617  17.243   1.568
  283W        W67066   1.221  16.543  11.093
  284W        W67067  33.592  28.539   3.571
  285W        W67068  20.065   6.307   0.687
  286W        W67069  42.585  34.523  12.625
  287W        W67070  17.752  17.662   4.440
  288W        W67071  41.563  41.376  14.005
  289W        W67072  40.995  21.532   2.746
  290W        W67073  29.532  41.817   0.958
  291W        W67074  21.290  25.311   3.357
  292W        W67075  42.039  11.313   1.746
  293W        W67076  26.281  30.453   2.296
  294W        W67077   0.504  28.503   4.125
  295W        W67078  23.812  35.153  13.621
  296W        W67079  21.193  24.673   5.006
  297W        W67080  24.716   1.310   1.440
  298W        W67081  23.186  20.179   3.126
  299W        W67082  13.045  20.717  12.361
  300W        W67083   1.936   2.335   3.262
  301W        W67084   2.475   9.288  12.770
  302W        W67085  20.719  25.518   4.672
  303W        W67086  34.494  20.182   0.537
  304W        W67087   7.417  28.904  13.823
  305W        W67088  12.687  24.033  14.484
  306W        W67089  24.010  17.557   0.160
  307W        W67090  15.249  35.396  14.457
  308W        W67091   1.943  39.096   1.336
  309W        W67092  28.979  36.094  10.740
  310W        W67093  28.946   6.667   3.654
  311W        W67094  38.296  12.384   4.466
  312W        W67095   7.326   7.248  11.475
  313W        W67096  10.959  35.360  14.427
  314W        W67097   5.369  19.297   0.974
  315W        W67098  22.218   5.738  12.258
  316W        W67099  17.262  25.279   0.409
  317W        W67100  32.516   4.465   0.317
  318W        W67101  19.645  30.539  13.545
  319W        W67102  36.868   2.925  13.995
  320W        W67103  22.480  15.505  11.888
  321W        W67104  37.364  25.058   2.276
  322W        W67105  34.085   2.741   0.836
  323W        W67106  41.730   0.402   1.735
  324W        W67107  26.672  38.729   4.026
  325W        W67108   1.449  37.928   1.923
  326W        W67109  11.852  42.437   2.350
  327W        W67110  31.121  11.138   0.899
  328W        W67111  35.613  12.546   4.582
  329W        W67112  40.962   7.037   3.104
  330W        W67113  41.327   9.854  10.455
  331W        W67114  29.705  36.966   3.469
  332W        W67115  17.230  38.902   2.188
  333W        W67116  36.945  17.643   1.864
  334W        W67117   1.833  43.296   4.366
  335W        W67118  13.321  29.020   0.832
  336W        W67119  16.625  23.230  10.458
  337W        W67120   6.879  39.546   3.533
  338W        W67121  34.836   6.264   2.874
  339W        W67122  15.988  15.650   9.896
  340W        W67123  35.936   4.904  11.642
  341W        W67124  42.596  17.109  13.470
  342W        W67125  22.651  37.023  13.456
  343W        W67126  23.760  39.715   1.937
  344W        W67127  44.833  14.111   1.355
  345W        W67128  15.643  11.874  13.933
  346W        W67129   5.660  11.362  10.966
  347W        W67130  23.916   4.388   1.895
  348W        W67131  15.308  30.458   4.701
  349W        W67132  27.764  35.093  13.816
  350W        W67133  18.836  29.921   9.827
  351W        W67134   4.619  24.725  14.748
  352W        W67135   4.490  34.377  14.440
  353W        W67136  29.986  25.398   0.476
  354W        W67137  41.079  23.095   3.162
  355W        W67138   0.510   2.175   1.952
  356W        W67139  40.950  22.981  13.608
  357W        W67140  43.938  22.582   3.243
  358W        W67141   6.282  16.565   0.853
  359W        W67142  44.441  31.858  13.848
  360W        W67143   1.877   0.890  13.877
  361W        W67144  15.866  31.549  13.323
  362W        W67145  34.912  38.022   2.310
  363W        W67146  16.602  10.201   3.681
  364W        W67147  42.890   4.991  14.462
  365W        W67148  40.895  37.069  12.493
  366W        W67149  22.126  19.337   2.422
  367W        W67150  13.090  18.482   3.180
  368W        W67151  27.715  39.882  13.724
  369W        W67152  25.140  25.608  12.924
  370W        W67153  29.175   0.963  14.888
  371W        W67154  33.001  17.716  14.084
  372W        W67155  37.875  26.041  10.534
  373W        W67156  24.147  11.854   0.387
  374W        W67157  20.213  22.645  13.926
  375W        W67158  17.316   8.372  13.004
  376W        W67159  12.543   3.834  11.522
  377W        W67160   3.828  27.200  14.400
  378W        W67161  39.858  38.883  13.450
  379W        W67162  29.442  24.219   2.142
  380W        W67163  20.310   2.716  14.908
  381W        W67164   3.453  13.520  14.854
  382W        W67165  18.134  18.187   4.677
  383W        W67166  40.521  16.546   3.291
  384W        W67167  43.307  21.855   1.306
  385W        W67168  18.375  18.273  10.181
  386W        W67169  24.525  21.696  14.046
  387W        W67170  18.837  17.620   0.034
  388W        W67171  20.259  35.275  14.346
  389W        W67172   6.120  40.327  10.546
  390W        W67173  41.614  19.165  11.831
  391W        W67174  43.361  21.051   1.831
  392W        W67175  36.574  38.272  13.399
  393W        W67176   2.593  35.827  12.134
  394W        W67177  29.910  30.971   3.206
  395W        W67178  42.744  41.635   4.500
  396W        W67179  15.896  43.040  14.597
  397W        W67180  44.091  33.314   1.315
  398W        W67181  42.489  15.221   0.967
  399W        W67182   5.757   1.934  14.054
  400W        W67183  32.332  16.413   1.909
  401W        W67184   5.296  16.304   1.682
  402W        W67185  25.726  24.257   0.516
  403W        W67186   1.150  16.984   0.907
  404W        W67187  35.476  20.962   4.027
  405W        W67188  19.875  18.654  14.369
  406W        W67189  16.198  34.065   1.538
  407W        W67190   9.838   5.430   4.814
  408W        W67191  19.295  44.865  13.269
  409W        W67192  16.476  25.077   2.913
  410W        W67193  30.526  39.816  12.082
  411W        W67194  43.462  23.751  11.932
  412W        W67195  12.054  21.430  12.308
  413W        W67196  26.195  42.474   1.287
  414W        W67197   5.461  33.027  12.434
  415W        W67198  32.625  28.579  14.459
  416W        W67199  30.859  38.797   1.899
  417W        W67200  14.641  21.622  13.913
  418W        W67201  21.006   2.450   1.327
  419W        W67202   9.530  27.169   3.723
  420W        W67203  25.075  19.061   1.720
  421W        W67204  25.438  19.841   4.535
  422W        W67205  42.388  40.960   1.032
  423W        W67206  19.927  20.831  11.170
  424W        W67207  17.613   6.454  13.476
  425W        W67208  44.402  28.128  11.620
  426W        W67209   4.738  26.267  10.759
  427W        W67210  26.992   9.305   2.261
  428W        W67211  24.247   4.715   2.127
  429W        W67212  25.014  17.594  12.880
  430W        W67213  39.336  23.058   2.836
  431W        W67214   7.911  31.862  10.722
  432W        W67215   2.177   6.488   4.217
  433W        W67216  39.449  42.010   4.217
  434W        W67217   8.183  21.791   1.016
  435W        W67218  17.103  13.607   1.303
  436W        W67219  13.174   2.639  11.503
  437W        W67220  30.425  10.099  11.395
  438W        W67221  28.467  21.236   0.516
  439W        W67222  18.571  39.716   1.824
  440W        W67223  39.078   0.276   3.838
  441W        W67224  43.832  27.228   0.774
  442W        W67225  23.902  37.086   3.919
  443W        W67226   2.192  27.521   1.027
  444W        W67227  13.889  39.910  13.357
  445W        W67228  36.871  31.416  13.505
  446W        W67229  36.471  19.725  12.472
  447W        W67230   9.849  25.677  14.367
  448W        W67231   3.889  44.376   3.968
  449W        W67232  25.420  24.062   1.400
  450W        W67233  41.060  23.699  11.216
  451W        W67234   8.166  13.101   3.256
  452W        W67235  11.831  16.094   1.817
  453W        W67236   3.277  21.781  13.406
  454W        W67237  16.227   8.788  11.858
  455W        W67238  36.566   6.720  12.385
  456W        W67239   0.366  35.776   2.147
  457W        W67240  34.084   3.315   3.841
  458W        W67241  17.755  30.436   3.238
  459W        W67242   2.387  21.090   1.778
  460W        W67243  38.059  24.932  11.161
  461W        W67244   3.658  22.032   3.820
  462W        W67245   3.643  20.466  13.472
  463W        W67246   3.925  43.876  12.102
  464W        W67247  14.100  43.906  13.882
  465W        W67248  11.837   5.978  10.166
  466W        W67249   4.788  11.264  14.251
  467W        W67250  10.165  40.728   1.818
  468W        W67251   9.795  24.532   3.666
  469W        W67252  27.524  10.822   2.853
  470W        W67253  33.849  24.186   0.955
  471W        W67254  38.308   5.389   5.024
  472W        W67255  41.923  18.178   4.167
  473W        W67256  17.230  32.202  14.376
  474W        W67257  10.264  37.581   4.007
  475W        W67258  34.397   3.547  14.304
  476W        W67259  26.904  12.659  12.676
  477W        W67260  41.690   8.203  13.938
  478W        W67261  33.123  14.747   3.404
  479W        W67262  18.761  22.980   3.293
  480W        W67263  41.466   0.357   4.136
  481W        W67264   5.345  10.745   2.800
  482W        W67265  27.476  34.226   4.572
  483W        W67266  27.575   5.731  13.641
  484W        W67267  22.532  33.575  10.662
  485W        W67268  37.093   8.850  11.540
  486W        W67269  24.623  10.896   4.755
  487W        W67270   3.417  38.141   0.724
  488W        W67271  27.634  39.364   1.347
  489W        W67272  18.276  28.068   2.180
  490W        W67273  12.388  42.536  12.475
  491W        W67274  24.091   1.962  14.758
  492W        W67275  43.255  20.660   4.582
  493W        W67276  29.561  14.271   1.933
  494W        W67277  14.909  18.710  13.798
  495W        W67278   2.958  23.988  12.930
  496W        W67279  30.474  23.489   2.473
  497W        W67280  25.943  40.242  14.275
  498W        W67281  34.187   4.442   0.757
  499W        W67282  43.027   1.525  13.452
  500W        W67283  31.892  37.300   4.180
  501W        W67284  30.645  19.668   1.688
  502W        W67285   8.732  43.157   3.155
  503W        W67286  11.834  38.684  14.087
  504W        W67287   5.696   2.272  13.031
  505W        W67288  13.402  41.347  10.667
  506W        W67289   8.334  33.865   4.593
  507W        W67290  17.664  22.582  10.829
  508W        W67291  18.780   0.257   3.258
  509W        W67292  15.324  15.026   1.729
  510W        W67293   7.335  24.936   1.893
  511W        W67294  14.610  25.603   1.650
  512W        W67295  31.486  27.653  12.091
  513W        W67296  33.960  32.656  10.961
  514W        W67297  12.164  12.176  10.809
  515W        W67298  21.237   9.856   3.665
  516W        W67299  25.422  32.871  14.889
  517W        W67300   4.912  44.586   0.911
  518W        W67301  26.737   6.444   3.780
  519W        W67302   9.414  42.489  11.813
  520W        W67303   4.788  10.118   2.751
  521W        W67304  43.437  17.503   1.996
  522W        W67305  13.606  28.117  13.446
  523W        W67306  17.768   3.762   0.355
  524W        W67307  17.173   5.762  12.791
  525W        W67308  18.362  16.118  13.404
  526W        W67309  23.038  16.242  14.130
  527W        W67310  13.198   8.639  13.830
  528W        W67311   7.792  28.136   2.753
  529W        W67312  27.147  30.563  10.670
  530W        W67313  40.276   7.781   2.884
  531W        W67314  26.080  21.110  13.311
  532W        W67315  38.440  34.448   4.469
  533W        W67316  41.024  25.701  12.021
  534W        W67317  22.490  24.747  10.586
  535W        W67318   7.288  36.381  12.509
  536W        W67319  15.221   9.263   4.253
  537W        W67320  19.587   2.099  11.047
  538W        W67321  15.696  11.787   0.299
  539W        W67322   1.433  12.886  14.784
  540W        W67323   8.832   8.131  10.992
  541W        W67324   0.498  38.418  13.370
  542W        W67325   5.855   8.373   2.366
  543W        W67326   5.459  22.999  12.569
  544W        W67327  16.989  34.320  14.851
  545W        W67328  14.049  25.891   3.790
  546W        W67329  40.346  12.560   2.720
  547W        W67330  13.240  32.033  14.741
  548W        W67331  22.995  35.159  12.985
  549W        W67332  33.999   5.399  14.376
  550W        W67333  26.614  30.400  12.374
  551W        W67334   5.430  38.567  14.580
  552W        W67335  10.626  15.568   3.230
  553W        W67336  21.157  30.667   1.311
  554W        W67337  21.841   6.288  13.752
  555W        W67338   9.629  23.133  12.840
  556W        W67339  26.040  25.977   2.088
  557W        W67340  27.269  33.024  11.587
  558W        W67341  25.141   6.610  11.836
  559W        W67342  41.820   3.885   1.232
  560W        W67343  23.556  23.786  14.984
  561W        W67344  39.986  29.814  12.399
  562W        W67345  22.133   1.853   5.351
  563W        W67346   0.058  13.170   5.438
  564W        W67347  28.365  40.080   1.306
  565W        W67348  29.917  25.543   3.313
  566W        W67349  11.189   3.728  11.113
  567W        W67350  33.014  42.560   0.939
  568W        W67351  38.156  33.049   1.449
  569W        W67352  44.866  41.296  14.322
  570W        W67353  14.532  30.712  13.985
  571W        W67354   9.880  12.750   0.993
  572W        W67355  30.680  40.856   4.377
  573W        W67356   0.544  36.090   1.730
  574W        W67357   6.927  41.982  12.635
  575W        W67358  12.741  41.241   3.693
  576W        W67359  44.934  42.933   4.082
  577W        W67360  43.823  43.755   2.091
  578W        W67361  37.616  42.880   2.725
  579W        W67362   3.672  18.690   1.654
  580W        W67363  19.582  20.080   0.762
  581W        W67364  44.534  44.081   0.193
  582W        W67365  22.875   6.875   3.884
  583W        W67366  11.767  35.035  11.144
  584W        W67367  16.213  30.838   2.476
  585W        W67368  21.666  32.623   4.187
  586W        W67369  36.965  12.200   4.840
  587W        W67370  11.273  42.544  13.329
  588W        W67371  15.742  27.605  10.566
  589W        W67372  17.531  10.751  10.369
  590W        W67373  37.027  26.632  13.854
  591W        W67374  17.248  34.556   4.578
  592W        W67375  43.503  13.731   1.374
  593W        W67376  23.013  10.211   3.733
  594W        W67377  26.971  38.596   3.202
  595W        W67378   5.128  15.336  12.657
  596W        W67379   4.506  19.665   1.668
  597W        W67380  31.305  17.046  12.164
  598W        W67381  42.261  27.614   0.554
  599W        W67382   9.380  16.309   4.499
  600W        W67383  18.333   4.945  10.371
  601W        W67384  19.225  28.413   1.204
  602W        W67385  17.725  42.089   4.093
  603W        W67386  43.429  34.599  10.567
  604W        W67387  21.836  31.827  11.016
  605W        W67388  20.725  33.843   1.633
  606W        W67389  29.049   8.855  11.539
  607W        W67390  28.478  38.950  13.457
  608W        W67391  34.115   5.296  12.854
  609W        W67392  41.493  19.529   2.457
  610W        W67393  31.959  22.068   4.091
  611W        W67394  27.245  27.495   3.171
  612W        W67395  37.141   4.915   3.156
  613W        W67396   2.043  35.016  13.014
  614W        W67397  30.013  14.153  14.806
  615W        W67398  37.517  21.920   4.726
  616W        W67399  18.238  32.219   1.032
  617W        W67400   1.880  42.741  14.390
  618W        W67401  44.641  37.127  12.877
  619W        W67402  40.043   6.651   3.352
  620W        W67403  31.649  25.139  13.875
  621W        W67404  18.778  28.725  11.099
  622W        W67405  16.310  20.531   0.904
  623W        W67406  32.966  30.846   3.335
  624W        W67407  43.718  18.346  12.575
  625W        W67408   0.071  14.042   3.547
  626W        W67409  18.139  39.604  10.870
  627W        W67410  42.334  41.481   4.160
  628W        W67411   7.018  26.171   3.270
  629W        W67412   2.750  24.928  14.075
  630W        W67413  42.244   4.946  12.511
  631W        W67414  33.229  30.616   3.697
  632W        W67415   2.984  17.764  11.442
  633W        W67416  17.167   0.946   1.322
  634W        W67417  36.998  35.838   3.809
  635W        W67418  11.716  11.486   4.493
  636W        W67419  22.127  35.900  13.782
  637W        W67420   2.513  34.866   4.174
  638W        W67421  34.539  11.816  14.541
  639W        W67422  16.632  44.980  14.459
  640W        W67423   3.761   3.978   3.302
  641W        W67424  14.359  36.539   0.641
  642W        W67425  12.193  20.955   1.472
  643W        W67426   9.433  12.123   1.820
  644W        W67427   8.305   5.268   4.570
  645W        W67428  25.440  10.365   5.122
  646W        W67429   2.450  11.224  12.081
  647W        W67430  21.692   9.904  12.102
  648W        W67431  30.981  26.454   1.240
  649W        W67432  34.580  16.987   4.567
  650W        W67433  25.169  17.485  14.717
  651W        W67434  44.702  16.081   3.744
  652W        W67435  11.952  11.458  14.263
  653W        W67436  18.660  29.124   1.459
  654W        W67437  14.065   6.663   0.578
  655W        W67438  17.413  38.166   5.394
  656W        W67439  12.118   8.387   1.375
  657W        W67440   8.144  17.039   2.648
  658W        W67441  38.940  33.917  13.990
  659W        W67442  28.461  34.841   0.954
  660W        W67443  35.710  19.587  10.722
  661W        W67444  28.952  17.491   0.289
  662W        W67445  30.404  22.179  10.987
  663W        W67446  33.851  17.834   3.784
  664W        W67447   4.416   2.431   2.883
  665W        W67448  29.687   6.788  12.994
  666W        W67449  26.714  43.087   4.171
  667W        W67450   4.352  32.994   0.297
  668W        W67451  31.717  22.531   1.266
  669W        W67452  11.355  22.463   2.678
  670W        W67453  44.590  21.191   1.259
  671W        W67454   9.662  35.109  13.553
  672W        W67455  12.429  10.779   3.575
  673W        W67456   5.186  31.028  13.331
  674W        W67457  25.076  39.772   2.392
  675W        W67458  14.293  33.473   0.513
  676W        W67459  15.590  28.608   1.768
  677W        W67460  13.623  29.753  11.884
  678W        W67461  10.115  40.935   1.338
  679W        W67462  14.834  19.982   1.455
  680W        W67463  37.144  26.682  14.392
  681W        W67464   9.046   0.707   2.441
  682W        W67465  15.642  41.098  12.857
  683W        W67466  23.789  30.727  14.045
  684W        W67467  22.164  20.896   2.383
  685W        W67468  21.104  11.289  12.268
  686W        W67469  43.520  24.070   4.325
  687W        W67470  30.508   7.201   4.053
  688W        W67471  15.304  13.025  11.407
  689W        W67472  16.833   6.260   0.805
  690W        W67473  16.834  31.952  13.061
  691W        W67474  39.991   5.039  13.731
  692W        W67475  18.956  44.987   2.841
  693W        W67476  25.698  29.528   3.541
  694W        W67477  29.841  23.023  11.420
  695W        W67478   9.327  25.074   2.359
  696W        W67479  32.088  13.122   1.710
  697W        W67480  19.189  44.504   0.736
  698W        W67481   5.793   8.247  14.588
  699W        W67482   5.764  37.700  13.217
  700W        W67483   2.253   2.724   2.223
  701W        W67484  16.225  37.844   9.983
  702W        W67485   4.839  24.936  11.156
  703W        W67486  40.333  12.618  14.307
  704W        W67487  19.283  33.699   2.016
  705W        W67488  24.059  20.512  10.956
  706W        W67489  10.355  36.914  14.827
  707W        W67490  43.934  20.768  12.465
  708W        W67491  27.993   8.372  14.513
  709W        W67492  16.130   7.435   0.373
  710W        W67493   1.124  25.992  13.859
  711W        W67494   1.976   4.034  12.617
  712W        W67495   8.817  35.801  11.818
  713W        W67496  43.451  29.272  14.936
  714W        W67497  39.634  16.214  10.770
  715W        W67498  43.402  14.266  13.004
  716W        W67499  37.463  15.634   2.193
  717W        W67500  24.065  20.018   1.291
  718W        W67501  12.364  14.307  12.745
  719W        W67502  27.530  35.827  12.578
  720W        W67503  15.990  12.812  12.912
  721W        W67504  23.540   4.819  12.004
  722W        W67505  30.647  29.194  14.882
  723W        W67506  26.524   8.296   4.574
  724W        W67507  36.950  23.571   2.421
  725W        W67508   0.749   5.665  10.792
  726W        W67509   7.688  44.349   0.958
  727W        W67510  19.270  31.892  14.073
  728W        W67511  27.982   4.518   1.361
  729W        W67512  28.226  34.191  11.544
  730W        W67513   8.727  15.945  13.520
  731W        W67514  40.574  44.375  13.479
  732W        W67515  38.076  38.551  13.840
  733W        W67516  18.447  40.168   3.965
  734W        W67517  16.886  37.907  14.198
  735W        W67518   3.426   6.428   3.334
  736W        W67519  26.551  21.158   3.126
  737W        W67520   8.269  44.764   2.792
  738W        W67521  44.277  14.109   3.160
  739W        W67522   5.394   7.491   0.913
  740W        W67523  14.922  40.519  12.918
  741W        W67524  35.589  34.615   3.429
  742W        W67525   2.694  43.541   2.815
  743W        W67526  29.691  35.614  13.396
  744W        W67527  35.100  22.515   0.707
  745W        W67528   1.868   1.189  14.996
  746W        W67529  38.917   7.627  13.296
  747W        W67530   7.804  30.981  12.071
  748W        W67531  20.882  12.194  12.081
  749W        W67532  15.508  31.619  14.824
  750W        W67533  18.097  37.310   1.222
  751W        W67534  42.177   0.741   1.049
  752W        W67535  31.919  40.542  14.768
  753W        W67536  11.927  44.035   1.864
  754W        W67537   3.515  29.194   4.454
  755W        W67538  25.149  11.378   3.718
  756W        W67539  42.050  39.989  12.465
  757W        W67540  28.876  36.892   2.881
  758W        W67541  38.079  23.708  13.439
  759W        W67542  28.955  30.157  10.528
  760W        W67543   0.999   8.554  14.677
  761W        W67544  19.981  18.204  12.850
  762W        W67545  13.220  42.459   4.574
  763W        W67546   0.871  27.509  14.464
  764W        W67547  33.579  10.650   0.312
  765W        W67548  38.387  37.564  10.586
  766W        W67549   9.123  37.925   1.974
  767W        W67550  32.174  19.573   3.329
  768W        W67551  19.657  23.852   3.305
  769W        W67552  10.178  33.356  12.434
  770W        W67553  17.781  27.459   2.472
  771W        W67554  44.883  42.773   0.029
  772W        W67555  38.630  22.496   4.703
  773W        W67556  44.665   4.302  12.059
  774W        W67557  43.666  33.529   1.913
  775W        W67558   3.842   7.005  13.543
  776W        W67559  42.350  20.234  12.594
  777W        W67560  20.582  40.052  11.945
  778W        W67561  25.782  23.319   0.927
  779W        W67562   3.834   0.774  11.556
  780W        W67563  23.747  23.488   4.924
  781W        W67564  27.947   5.784   0.475
  782W        W67565   9.258   9.720  10.966
  783W        W67566  42.458  12.449   9.951
  784W        W67567  40.376  27.352  12.535
  785W        W67568   9.367   4.485   1.731
  786W        W67569  37.803  25.725   0.497
  787W        W67570  31.594  39.821   1.435
  788W        W67571   6.347  24.449   1.829
  789W        W67572  17.339  16.710   2.765
  790W        W67573  30.272  21.436  12.842
  791W        W67574  24.960  20.602  11.430
  792W        W67575   7.462  13.979   0.755
  793W        W67576  34.115  10.826  14.460
  794W        W67577   9.900  17.047  12.388
  795W        W67578  15.025   5.284   0.449
  796W        W67579  34.613   5.722  12.627
  797W        W67580  11.850  20.353  10.807
  798W        W67581  23.929  10.746  13.791
  799W        W67582  34.026  40.417   3.681
  800W        W67583   3.487  38.048  13.329
  801W        W67584  10.290  25.542   3.793
  802W        W67585  18.630   6.326   0.715
  803W        W67586  15.151  23.704  11.137
  804W        W67587   2.349  32.967  14.402
  805W        W67588   6.816  43.291   4.080
  806W        W67589   8.816  13.120  12.366
  807W        W67590  44.897   3.982  11.673
  808W        W67591  27.534  16.054  13.555
  809W        W67592   0.270  29.156  12.790
  810W        W67593  18.267   9.333  12.103
  811W        W67594  30.036  23.381  11.103
  812W        W67595   1.195  44.103   2.261
  813W        W67596   8.169  38.580  10.531
  814W        W67597  18.706  14.836  10.868
  815W        W67598   6.846  27.017   0.374
  816W        W67599  41.916   5.241   1.903
  817W        W67600   6.894  30.443  10.610
  818W        W67601  10.367   7.056  14.426
  819W        W67602   9.121  14.644   1.825
  820W        W67603   4.134   0.902  12.343
  821W        W67604  34.870  23.171  11.453
  822W        W67605   0.315   2.921  13.164
  823W        W67606  25.493  15.913  10.791
  824W        W67607  27.395   3.873   1.446
  825W        W67608  20.437  29.445  14.502
  826W        W67609  25.870  44.853   3.625
  827W        W67610  22.135   8.577   2.577
  828W        W67611  32.713  18.011   1.001
  829W        W67612  39.026  20.959   3.125
  830W        W67613  44.550   4.750  13.281
  831W        W67614  19.989  14.926   0.408
  832W        W67615  28.969   4.615   1.818
  833W        W67616  34.267  22.633  13.411
  834W        W67617   5.128   2.204  13.541
  835W        W67618  31.956  43.536   3.825
  836W        W67619  32.115  17.737  14.041
  837W        W67620  30.475  11.114  11.575
  838W        W67621  12.786   1.438   1.652
  839W        W67622  30.499  14.216   0.009
  840W        W67623  26.536  33.634  12.882
  841W        W67624  19.378  38.619   4.107
  842W        W67625  40.865  39.784   1.196
  843W        W67626  39.607  43.782  11.571
  844W        W67627  21.480   9.397   2.223
  845W        W67628   3.448  15.358   3.743
  846W        W67629  30.098  27.438   1.027
  847W        W67630  20.464  41.092   4.520
  848W        W67631   0.898  22.896  14.805
  849W        W67632  12.730  21.560   3.415
  850W        W67633   1.016  33.471  14.842
  851W        W67634   3.488  28.082  12.663
  852W        W67635   4.897  14.875  12.986
  853W        W67636  36.618  14.651   1.825
  854W        W67637  14.595  29.465  12.540
  855W        W67638   2.297   7.246  10.716
  856W        W67639  35.350  29.596   3.846
  857W        W67640  25.402  37.797   4.188
  858W        W67641   2.879  21.361   4.786
  859W        W67642  35.154  10.344  14.956
  860W        W67643  11.252   9.419   0.049
  861W        W67644  39.530   3.706   2.856
  862W        W67645  27.524  13.698  14.514
  863W        W67646  17.819  33.578   3.802
  864W        W67647  32.164   3.273  11.024
  865W        W67648  14.227   8.891   4.068
  866W        W67649   5.981  36.841   4.899
  867W        W67650   6.829  19.161  10.732
  868W        W67651   6.374  32.269  10.179
  869W        W67652  36.509  16.773  13.332
  870W        W67653  42.227   9.351   0.269
  871W        W67654  15.546   4.895  13.836
  872W        W67655  27.382  20.934  12.609
  873W        W67656  28.496  14.877  10.852
  874W        W67657   7.425  30.166   2.284
  875W        W67658  20.229   8.034  13.215
  876W        W67659  24.665  32.649  10.722
  877W        W67660  13.177  14.515   0.784
  878W        W67661  17.851   0.759  14.471
  879W        W67662  19.101  31.940  13.276
  880W        W67663   2.304  31.103   0.292
  881W        W67664  44.836  19.512   0.258
  882W        W67665  36.513   1.649   0.844
  883W        W67666  29.584  17.138  14.780
  884W        W67667   0.303  31.857  11.170
  885W        W67668   3.293  18.107  11.651
  886W        W67669  41.031  21.237   4.586
  887W        W67670  13.822   6.695   1.918
  888W        W67671  35.795   2.429  13.405
  889W        W67672  23.254  41.465  14.067
  890W        W67673  42.762  32.460   2.910
  891W        W67674   7.747  17.389   1.761
  892W        W67675  22.494  10.721  13.845
  893W        W67676   5.401  30.619   4.589
  894W        W67677  19.774   9.486  14.000
  895W        W67678   9.310  39.490   0.882
  896W        W67679  18.702   1.707  13.424
  897W        W67680  39.712   7.420  13.525
  898W        W67681  44.973  31.536   4.559
  899W        W67682  12.885  34.474   3.144
  900W        W67683   1.934  19.687  12.029
  901W        W67684   4.313  11.187   0.715
  902W        W67685   0.951  34.980   1.254
  903W        W67686  30.106  32.675   1.772
  904W        W67687   1.347  26.206   1.984
  905W        W67688  34.142  42.396  14.803
  906W        W67689  31.952  20.494   0.280
  907W        W67690  18.027  26.289  10.665
  908W        W67691  25.612  14.215  11.600
  909W        W67692  20.624  39.318   0.118
  910W        W67693  24.538   1.656   3.182
  911W        W67694  11.542  31.647  14.980
  912W        W67695   2.302   2.434   2.892
  913W        W67696  34.945  35.063  13.566
  914W        W67697  17.614   5.233   2.357
  915W        W67698  12.112  23.532   4.555
  916W        W67699  31.440  23.944   4.114
  917W        W67700  33.057  37.805  14.505
  918W        W67701  26.525  43.249  12.430
  919W        W67702  23.414  11.298  11.540
  920W        W67703   2.435  36.904   3.245
  921W        W67704  10.804  14.111  11.742
  922W        W67705  36.392  23.421   2.206
  923W        W67706  15.101  33.793   9.823
  924W        W67707   7.234  20.108   1.926
  925W        W67708  30.484  10.353  14.945
  926W        W67709  42.597  19.829   3.603
  927W        W67710   0.238  33.876   2.655
  928W        W67711  22.540  31.061   0.251
  929W        W67712  25.240   2.939   3.138
  930W        W67713  20.675  35.900  10.743
  931W        W67714  33.598  20.799   3.696
  932W        W67715   1.054  32.105  13.497
  933W        W67716  38.307   6.951  11.874
  934W        W67717  40.444  26.631  11.450
  935W        W67718   3.708  17.164   0.186
  936W        W67719  41.393  24.189  12.047
  937W        W67720  24.672  38.043  12.472
  938W        W67721  25.976   2.774   1.636
  939W        W67722  28.805  43.978  10.794
  940W        W67723   5.244  14.832  12.617
  941W        W67724   6.275   9.785  10.833
  942W        W67725  36.690   8.005   5.067
  943W        W67726  11.536   3.352   4.396
  944W        W67727   5.872  37.993   3.551
  945W        W67728   3.319  20.916  14.761
  946W        W67729  33.161   8.792   1.191
  947W        W67730  17.271   0.820   1.822
  948W        W67731  29.840   8.664  12.468
  949W        W67732  16.425  19.673  10.557
  950W        W67733  15.704  35.527   0.247
  951W        W67734  32.313   6.858   9.912
  952W        W67735  12.861   6.554   1.239
  953W        W67736   4.998  12.896  12.974
  954W        W67737  22.008   9.246   3.646
  955W        W67738  34.886  23.684   1.453
  956W        W67739   4.215   0.430  12.543
  957W        W67740   7.019  28.117  14.783
  958W        W67741  26.205  24.114   0.943
  959W        W67742  14.603  15.387   3.237
  960W        W67743  26.244  15.714   4.386
  961W        W67744  23.889  40.082  11.587
  962W        W67745  26.166  13.633  11.976
  963W        W67746  41.939  27.252  11.706
  964W        W67747   8.168   8.530  10.459
  965W        W67748  30.736  43.057   4.600
  966W        W67749  13.658  19.758   0.955
  967W        W67750  17.592  15.358  14.589
  968W        W67751  44.796  36.862  10.670
  969W        W67752  17.164   0.452   3.097
  970W        W67753  26.725   5.450   2.325
  971W        W67754  35.907  18.000  13.448
  972W        W67755  36.156  35.437   0.671
  973W        W67756  17.245  24.453   2.285
  974W        W67757  17.725  35.005   1.284
  975W        W67758  25.004   1.635   0.903
  976W        W67759   0.477  31.080   3.687
  977W        W67760  29.595   5.617  11.310
  978W        W67761  24.909  21.542  11.494
  979W        W67762  29.138  23.747   0.313
  980W        W67763  39.710  42.080   3.788
  981W        W67764  16.415  11.786  11.259
  982W        W67765  11.873  21.103  11.932
  983W        W67766  39.272  25.195  12.055
  984W        W67767  40.822  17.875  14.526
  985W        W67768  38.566  43.916  10.902
  986W        W67769  11.643  44.906   2.366
  987W        W67770   7.355  25.056   4.393
  988W        W67771   3.312  15.020   3.386
  989W        W67772  34.163  25.593   1.331
  990W        W67773  30.958  13.284  10.789
  991W        W67774   5.262  35.082  12.985
  992W        W67775  33.558  27.613   0.078
  993W        W67776  21.167   8.469   0.702
  994W        W67777   0.543  33.555   1.454
  995W        W67778  25.537   1.386   1.016
  996W        W67779  38.451  36.189  11.447
  997W        W67780  14.150  25.113  13.824
  998W        W67781   3.670  41.732   2.810
  999W        W67782  32.354  30.720   1.545
 1000W        W67783   0.091  15.082   2.277
 1001W        W67784  20.448  26.136   3.740
 1002W        W67785   6.241  17.365  14.709
 1003W        W67786  26.468  42.249  12.520
 1004W        W67787  23.527   8.166  14.256
 1005W        W67788  32.426  31.580   4.532
 1006W        W67789  38.133   4.966   3.249
 1007W        W67790  39.852  27.901   2.042
 1008W        W67791   3.457  26.663  10.315
 1009W        W67792  42.381   5.809  13.493
 1010W        W67793  10.805  29.585   1.174
 1011W        W67794  15.718   9.690  10.723
 1012W        W67795   4.478  22.573   4.753
 1013W        W67796  40.533  17.740  11.027
 1014W        W67797   0.394   0.727  10.767
 1015W        W67798   3.786  13.183   4.963
 1016W        W67799  36.791  40.299  11.173
 1017W        W67800   5.845   0.140   0.859
 1018W        W67801   2.076  12.222  12.926
 1019W        W67802  38.265  30.425  10.697
 1020W        W67803  32.458   6.225   3.681
 1021W        W67804  21.023  30.464  13.921
 1022W        W67805  27.059  36.060  13.511
 1023W        W67806  29.857  38.492  11.643
 1024W        W67807  40.231   7.459   3.315
 1025W        W67808  27.197  27.081  11.512
 1026W        W67809  35.589   6.186   1.179
 1027W        W67810  36.099  12.071  13.928
 1028W        W67811   8.265  32.915   2.009
 1029W        W67812  43.203  28.580   0.838
 1030W        W67813  19.979  19.232  11.113
 1031W        W67814  14.331  31.608   2.850
 1032W        W67815   9.079   0.994   3.232
 1033W        W67816  13.149  14.128  11.060
 1034W        W67817  30.346  17.788   3.508
 1035W        W67818   5.351   7.424   2.571
 1036W        W67819  40.872  40.571   0.047
 1037W        W67820  20.940   4.952  13.547
 1038W        W67821  33.310  18.647  10.106
 1039W        W67822  20.673  40.412  13.592
 1040W        W67823  34.501  42.006  13.935
 1041W        W67824  35.504  28.991  11.691
 1042W        W67825  18.665  42.319   1.523
 1043W        W67826  23.568  34.405   1.292
 1044W        W67827  34.830  34.485  11.555
 1045W        W67828  40.920  20.269   2.007
 1046W        W67829  20.606   4.725   1.484
 1047W        W67830  28.684  39.166  12.417
 1048W        W67831  39.447  30.648  13.136
 1049W        W67832  24.454   6.392   4.193
 1050W        W67833  11.316  16.131   3.816
 1051W        W67834  43.257  32.512   1.658
 1052W        W67835  38.330  19.145  11.513
 1053W        W67836  30.605  15.425   4.510
 1054W        W67837  43.824  14.072  12.713
 1055W        W67838   0.732   1.428   4.190
 1056W        W67839  26.249  44.344   1.412
 1057W        W67840   2.439   1.659  14.416
 1058W        W67841  44.478   4.134  12.521
 1059W        W67842  44.378  28.572  11.903
 1060W        W67843   2.727   2.964  13.861
 1061W        W67844  10.681  20.493   1.314
 1062W        W67845   0.505  35.844   4.565
 1063W        W67846  27.553  22.296   3.705
 1064W        W67847  42.385  32.718  13.001
 1065W        W67848  23.107  40.864  11.010
 1066W        W67849  16.702  29.173   2.603
 1067W        W67850  28.427  10.761  11.542
 1068W        W67851  11.682  17.440  14.011
 1069W        W67852  24.018  42.653  13.841
 1070W        W67853  12.856   6.427   2.600
 1071W        W67854  11.804  27.508  14.825
 1072W        W67855  22.665  21.960   4.796
 1073W        W67856  14.761  19.277   1.474
 1074W        W67857  40.440  43.058   4.153
 1075W        W67858  10.099   9.749  13.010
 1076W        W67859  31.366  35.097   1.862
 1077W        W67860  25.011   1.777  12.090
 1078W        W67861  38.042  30.482  14.224
 1079W        W67862  28.718   0.509  12.924
 1080W        W67863  30.888  20.918  10.268
 1081W        W67864  42.800   7.294  13.866
 1082W        W67865   1.913  37.940   3.727
 1083W        W67866  42.602   9.743  14.541
 1084W        W67867  11.086  25.053  10.694
 1085W        W67868  35.932  44.375   3.399
 1086W        W67869  26.624  31.966   4.102
 1087W        W67870   8.901  18.677   0.721
 1088W        W67871  12.801  13.227   1.314
 1089W        W67872  11.124  15.766   4.136
 1090W        W67873  38.006  20.176   3.912
 1091W        W67874  38.260   6.315   0.461
 1092W        W67875  19.042   7.339  13.033
 1093W        W67876  27.031   5.394  10.550
 1094W        W67877   5.243  35.558   4.767
 1095W        W67878  27.067   0.344   1.929
 1096W        W67879   9.245  40.252   1.348
 1097W        W67880   9.291  17.071  10.994
 1098W        W67881  33.198  26.490   3.250
 1099W        W67882  44.411  41.888   0.898
 1100W        W67883  10.087   5.353  11.029
 1101W        W67884  30.023   8.353  14.279
 1102W        W67885  41.751  16.612  12.174
 1103W        W67886  26.637  31.598   2.166
 1104W        W67887   5.427  16.599  11.260
 1105W        W67888  11.257  16.102   0.542
 1106W        W67889  23.595   9.419   2.932
 1107W        W67890   1.740  18.251  11.673
 1108W        W67891  35.500  12.126   4.320
 1109W        W67892  25.630  22.920   4.073
 1110W        W67893   8.733  18.683   4.233
 1111W        W67894   8.160  14.720  14.960
 1112W        W67895   3.194  15.711   2.793
 1113W        W67896   4.760  25.967  13.508
 1114W        W67897  37.787  13.947  14.844
 1115W        W67898  28.636  21.749   3.741
 1116W        W67899  18.840  24.547  12.537
 1117W        W67900  18.269  29.602   4.639
 1118W        W67901   7.090  42.424   0.198
 1119W        W67902   7.869  41.004  11.605
 1120W        W67903   5.158  32.601   1.375
 1121W        W67904  40.055  33.128   2.777
 1122W        W67905  40.516  20.005   1.775
 1123W        W67906   8.819  12.717  11.160
 1124W        W67907   7.477  20.475   3.304
 1125W        W67908  24.128  10.606   4.033
 1126W        W67909   5.180  28.093  12.825
 1127W        W67910  31.564  34.045  12.562
 1128W        W67911   7.042   9.857   2.554
 1129W        W67912  31.653  39.817   3.684
 1130W        W67913   9.768  19.234  11.496
 1131W        W67914  19.351   9.368   4.207
 1132W        W67915  19.465  29.417   4.199
 1133W        W67916  37.672  24.263   3.907
 1134W        W67917  21.620  42.473   3.647
 1135W        W67918  30.491  36.474   4.491
 1136W        W67919  35.504   3.455  11.904
 1137W        W67920   2.562  15.802  10.701
 1138W        W67921  16.230  38.334  12.069
 1139W        W67922  37.198  31.005  13.507
 1140W        W67923  13.310   1.572   3.637
 1141W        W67924  36.493   1.766   3.243
 1142W        W67925  31.637  35.779  12.857
 1143W        W67926   0.521   0.920   4.175
 1144W        W67927  29.884  15.254  10.658
 1145W        W67928  35.334  11.815  11.466
 1146W        W67929  32.334  28.515   2.430
 1147W        W67930   6.670  31.646   4.559
 1148W        W67931  13.281  28.104  14.461
 1149W        W67932  24.226  42.721  12.098
 1150W        W67933  11.206  21.248  13.906
 1151W        W67934  40.278   2.753  11.521
 1152W        W67935  28.031  37.386   3.822
 1153W        W67936   9.654  23.013  13.338
 1154W        W67937  10.841   0.329  11.148
 1155W        W67938  12.122  12.674  11.672
 1156W        W67939  39.434  13.471   1.633
 1157W        W67940  32.384   9.325  13.489
 1158W        W67941  11.737  36.392   5.154
 1159W        W67942  40.615  26.873  12.643
 1160W        W67943   7.053   5.971   3.405
 1161W        W67944  34.349   3.922   5.529
 1162W        W67945  28.689  43.844   0.339
 1163W        W67946  18.822  14.748  14.812
 1164W        W67947  15.627   1.546  14.896
 1165W        W67948  28.723  18.672  11.143
 1166W        W67949  20.028   7.716  11.361
 1167W        W67950  26.408  30.622  13.956
 1168W        W67951  32.118  23.770   3.616
 1169W        W67952   8.765  32.097   2.114
 1170W        W67953  16.181  15.761  10.377
 1171W        W67954  34.337  42.719   1.804
 1172W        W67955  39.782   1.996  11.038
 1173W        W67956  22.771  16.496  12.559
 1174W        W67957  15.969  33.039  11.473
 1175W        W67958   6.682  20.821   3.162
 1176W        W67959  30.167  29.968   2.314
 1177W        W67960  15.681  12.694   3.181
 1178W        W67961  27.389  34.004  13.502
 1179W        W67962  17.678  10.778  13.700
 1180W        W67963   3.238  19.244  12.070
 1181W        W67964  15.373  22.207  12.864
 1182W        W67965   0.885  24.939   1.837
 1183W        W67966  18.321  31.520  11.148
 1184W        W67967  26.510  31.127  14.374
 1185W        W67968   0.032   4.944   1.873
 1186W        W67969  13.604  32.174   3.674
 1187W        W67970   6.768  15.409  12.060
 1188W        W67971  25.159  18.556   1.410
 1189W        W67972  28.742  43.800   4.179
 1190W        W67973   2.433   5.545  11.565
 1191W        W67974   6.205   4.327   2.260
 1192W        W67975  39.540  14.191  14.384
 1193W        W67976  23.555   4.704   5.452
 1194W        W67977   3.532  11.794   1.853
 1195W        W67978  19.535  14.249   4.027
 1196W        W67979  13.007  26.560  10.522
 1197W        W67980  17.797  34.883  12.590
 1198W        W67981  11.573  40.284   0.388
 1199W        W67982  30.704  40.429   2.248
 1200W        W67983  42.052   4.249   2.618
 1201W        W67984  39.030  39.637  14.260
 1202W        W67985   2.662   9.207   2.696
 1203W        W67986  44.913  31.642  11.419
 1204W        W67987  30.881  20.520  12.110
 1205W        W67988  38.842  10.365  12.844
 1206W        W67989  31.517   6.740   4.182
 1207W        W67990  22.313  13.075   5.018
 1208W        W67991  35.790   9.953  14.471
 1209W        W67992  33.970   8.768  13.841
 1210W        W67993   6.270  41.085  11.546
 1211W        W67994  31.428  41.977  12.114
 1212W        W67995  43.451   3.054   2.226
 1213W        W67996  14.789  44.472  14.870
 1214W        W67997  28.817  19.164   0.886
 1215W        W67998  25.144  23.284  12.345
 1216W        W67999  40.041   1.441  11.107
 1217W        W68000  18.216  22.229  13.385
 1218W        W68001   0.177   5.081   0.908
 1219W        W68002  18.248   2.946   2.317
 1220W        W68003   3.850   3.883   2.517
 1221W        W68004  25.660  33.693   3.255
 1222W        W68005   5.239   5.940   2.770
 1223W        W68006   2.163  27.763   2.402
 1224W        W68007  11.948   3.519   4.643
 1225W        W68008  26.267  25.664  14.907
 1226W        W68009  37.279   9.606  14.221
 1227W        W68010  30.129  24.196   2.656
 1228W        W68011   6.200  35.278   2.620
 1229W        W68012   8.312  25.494   1.452
 1230W        W68013   5.760   2.302   2.300
 1231W        W68014  37.033   5.304   4.523
 1232W        W68015  23.234  19.901   0.567
 1233W        W68016  42.976  14.158   0.269
 1234W        W68017   8.568  37.300   3.256
 1235W        W68018   5.308  31.338  13.733
 1236W        W68019   0.923  31.872  11.685
 1237W        W68020  33.847   4.153   4.041
 1238W        W68021  30.909  24.675  13.760
 1239W        W68022  38.551  34.994  12.123
 1240W        W68023  27.686  36.890   0.756
 1241W        W68024  26.364  24.670  12.388
 1242W        W68025  26.047  26.698  11.557
 1243W        W68026  13.303   8.725   5.054
 1244W        W68027  23.896   1.191  10.842
 1245W        W68028  27.374  25.208  12.501
 1246W        W68029  42.909  21.172   2.479
 1247W        W68030  26.097   9.602   3.190
 1248W        W68031  27.127  43.794  11.992
 1249W        W68032  31.584  16.327  13.508
 1250W        W68033  25.233  36.219   2.576
 1251W        W68034  40.189  31.148  12.511
 1252W        W68035  16.221   3.338   3.757
 1253W        W68036  41.054  11.993  11.137
 1254W        W68037   1.356  14.222   4.518
 1255W        W68038  38.578  29.082  11.457
 1256W        W68039   2.095  28.951   1.821
 1257W        W68040  27.661  18.038  12.106
 1258W        W68041  12.191  35.584  11.600
 1259W        W68042  13.997  38.714  10.736
 1260W        W68043  34.530  33.680   2.224
 1261W        W68044  29.651   6.829  11.138
 1262W        W68045  11.548   4.523  10.232
 1263W        W68046  13.894  31.203   0.420
 1264W        W68047  15.501  14.618   2.650
 1265W        W68048  10.774  18.816  14.394
 1266W        W68049  44.415  17.607  14.964
 1267W        W68050   2.718  29.999  13.848
 1268W        W68051  31.442  35.011   3.860
 1269W        W68052   9.245  28.161   1.872
 1270W        W68053  37.366   4.945   1.603
 1271W        W68054  40.405  25.731   0.785
 1272W        W68055  43.036   8.548   2.864
 1273W        W68056  17.005  37.602  13.807
 1274W        W68057  18.389   7.388   4.593
 1275W        W68058  35.517  40.425  10.445
 1276W        W68059  11.189   7.237   1.311
 1277W        W68060   5.700  32.375  11.500
 1278W        W68061  32.882  30.852  12.628
 1279W        W68062  35.946  27.030  10.371
 1280W        W68063   7.798  34.030  14.866
 1281W        W68064  26.752  37.303  12.109
 1282W        W68065  12.743  29.415  12.878
 1283W        W68066  20.259  43.819  10.454
 1284W        W68067  34.427  32.344   3.659
 1285W        W68068  21.605  18.429   2.244
 1286W        W68069  19.820  36.455  13.795
 1287W        W68070   5.366  38.533   2.926
 1288W        W68071  31.453   0.206   2.805
 1289W        W68072  35.530   1.247   2.587
 1290W        W68073  42.599  36.882   4.759
 1291W        W68074  18.816  13.184  10.563
 1292W        W68075   5.426  35.556   4.283
 1293W        W68076  21.662   9.893   1.364
 1294W        W68077   3.087  24.904   4.199
 1295W        W68078   5.875  17.118   1.977
 1296W        W68079   0.008  10.432  14.863
 1297W        W68080  25.625  23.274   2.717
 1298W        W68081  12.342  41.831   2.670
 1299W        W68082  15.795  20.098  13.303
 1300W        W68083  37.011  30.233  14.805
 1301W        W68084   6.296  21.321   0.278
 1302W        W68085   3.672   3.834  14.019
 1303W        W68086  21.765  44.373  11.925
 1304W        W68087   3.941   3.994  11.520
 1305W        W68088   9.458  35.790   1.498
 1306W        W68089  15.590  32.794   4.150
 1307W        W68090  12.801  15.922  11.144
 1308W        W68091  28.645   0.405   0.867
 1309W        W68092  23.126  11.839  13.386
 1310W        W68093  16.345  23.209  14.081
 1311W        W68094  26.846  41.984  14.131
 1312W        W68095   8.789   4.826  14.922
 1313W        W68096  42.958  43.277  11.697
 1314W        W68097  26.930  40.910  11.200
 1315W        W68098  23.793   7.255  13.811
 1316W        W68099  12.869   7.979  11.596
 1317W        W68100  23.568   2.645   0.256
 1318W        W68101  29.014  36.411   4.036
 1319W        W68102  20.448  30.467  13.141
 1320W        W68103  27.069  22.255  12.873
 1321W        W68104  43.355  30.384   4.646
 1322W        W68105   0.498  19.664   4.298
 1323W        W68106  19.928  10.767  10.823
 1324W        W68107   4.386  16.554   2.237
 1325W        W68108  11.368   7.930   0.964
 1326W        W68109  27.279   3.909  10.714
 1327W        W68110   1.392   6.738  13.920
 1328W        W68111  17.127  40.819  12.677
 1329W        W68112  11.472  36.955   3.246
 1330W        W68113  10.362   7.663   1.273
 1331W        W68114  31.151   1.240   4.286
 1332W        W68115  15.188  15.378   3.693
 1333W        W68116   2.207  32.498  14.592
 1334W        W68117  15.216   3.337  14.607
 1335W        W68118  15.750  31.983   1.391
 1336W        W68119  25.093  12.671   4.037
 1337W        W68120  20.616  44.399   3.200
 1338W        W68121  24.033  11.825   1.317
 1339W        W68122  26.530   6.852   2.288
 1340W        W68123  21.562  29.892   5.006
 1341W        W68124  43.071  23.518  12.165
 1342W        W68125  32.527   3.357  11.610
 1343W        W68126  16.740  38.620   1.969
 1344W        W68127  34.541  39.028   3.651
 1345W        W68128   7.396  29.886   1.310
 1346W        W68129   4.248   3.846  11.887
 1347W        W68130  32.076  33.452   2.690
 1348W        W68131  40.422  22.524  11.971
 1349W        W68132   0.324   8.985   2.847
 1350W        W68133  22.549  26.124   3.076
 1351W        W68134  36.605  37.975  12.412
 1352W        W68135  20.667  11.721  12.148
 1353W        W68136  33.580   0.073   3.003
 1354W        W68137  35.058  11.190   0.766
 1355W        W68138  39.342  34.691  13.906
 1356W        W68139  16.752  30.205   2.103
 1357W        W68140  42.215   8.225  13.995
 1358W        W68141  17.986  27.576  14.423
 1359W        W68142  30.156  10.311   1.252
 1360W        W68143  20.129  12.779  13.977
 1361W        W68144  33.472  11.637  14.269
 1362W        W68145  43.865  41.291  14.552
 1363W        W68146  44.647  34.661  13.886
 1364W        W68147   2.549   2.226   4.610
 1365W        W68148  23.676  38.549  12.135
 1366W        W68149  21.007  43.556  11.485
 1367W        W68150   2.454  16.691   1.686
 1368W        W68151   9.155   2.777  12.886
 1369W        W68152   6.849  10.812   1.739
 1370W        W68153  25.917  15.617   1.425
 1371W        W68154  24.516  42.474  13.952
 1372W        W68155   6.878  38.524   3.254
 1373W        W68156  43.999  17.279   4.908
 1374W        W68157  41.791  43.000   2.519
 1375W        W68158   2.006  44.138  11.148
 1376W        W68159  42.046   3.737  11.093
 1377W        W68160  32.370  22.617   4.613
 1378W        W68161  30.026  18.616   0.764
 1379W        W68162  19.092  12.259   2.808
 1380W        W68163  27.215  18.101  14.295
 1381W        W68164  18.236  43.710  14.241
 1382W        W68165  26.138  30.940   2.395
 1383W        W68166  21.483  38.321   1.287
 1384W        W68167  10.299  27.028   1.873
 1385W        W68168  34.628  40.446  12.111
 1386W        W68169   6.320  17.597   0.882
 1387W        W68170  30.036  40.007  14.389
 1388W        W68171  31.172  21.243  13.568
 1389W        W68172  23.477  40.097  14.467
 1390W        W68173  24.861  27.847   0.008
 1391W        W68174   8.693  28.956   4.734
 1392W        W68175  28.141  23.644   4.074
 1393W        W68176  24.279  12.599   5.074
 1394W        W68177  34.594  41.361  12.748
 1395W        W68178  32.963   7.918  11.647
 1396W        W68179  43.428  36.051  13.374
 1397W        W68180  32.624  24.768   2.263
 1398W        W68181   4.294  26.713  10.240
 1399W        W68182  41.854  14.274  14.046
 1400W        W68183  38.058  41.503  14.321
 1401W        W68184  23.119  27.607   0.221
 1402W        W68185  14.869  12.598   0.727
 1403W        W68186  20.125  10.172  14.320
 1404W        W68187  14.753  17.200   3.695
 1405W        W68188  12.156  12.257  11.337
 1406W        W68189   0.310  40.324   4.411
 1407W        W68190  34.407  30.099   4.713
 1408W        W68191  31.676   8.651   3.076
 1409W        W68192  40.470  11.674   0.469
 1410W        W68193  17.033  42.452  12.630
 1411W        W68194  13.585  32.888  13.362
 1412W        W68195   8.835   9.362  10.401
 1413W        W68196  27.538   6.804   3.975
 1414W        W68197  30.520   6.667  11.526
 1415W        W68198  14.917  40.979  13.438
 1416W        W68199  19.037   2.893  11.667
 1417W        W68200  25.077  18.754  10.462
 1418W        W68201  40.249  41.994   3.140
 1419W        W68202  20.364   3.871   4.886
 1420W        W68203  24.153  44.432   4.486
 1421W        W68204  36.916  19.496   3.161
 1422W        W68205  25.899  10.640   1.377
 1423W        W68206  24.698  22.526  14.058
 1424W        W68207  23.058  43.406  12.968
 1425W        W68208   4.912  41.445  12.041
 1426W        W68209  36.458   1.426  14.939
 1427W        W68210  15.581  13.764   4.119
 1428W        W68211   3.194  14.297  12.419
 1429W        W68212  25.187   9.598  14.420
 1430W        W68213  13.764  22.583  14.377
 1431W        W68214  44.952   5.741   2.803
 1432W        W68215  30.620  16.217  12.578
 1433W        W68216  23.465  22.727   5.244
 1434W        W68217  36.951  32.346   2.409
 1435W        W68218  23.429  28.231  14.329
 1436W        W68219   4.326   1.066   3.590
 1437W        W68220  28.555   9.950  14.795
 1438W        W68221   7.568  12.215  12.553
 1439W        W68222  19.196   7.416  11.589
 1440W        W68223  13.551   4.869   0.451
 1441W        W68224   8.967  36.715   4.631
 1442W        W68225  33.868  28.058   0.430
 1443W        W68226   3.390  17.599  11.764
 1444W        W68227  19.978  37.064   0.653
 1445W        W68228  32.074  23.600   0.980
 1446W        W68229  36.778  25.561  13.419
 1447W        W68230   5.969  37.843   4.557
 1448W        W68231  36.797   8.243  13.003
 1449W        W68232  27.571  14.265   4.605
 1450W        W68233  12.366  12.436   2.749
 1451W        W68234  37.053   6.260  10.691
 1452W        W68235   3.658  33.680  14.418
 1453W        W68236  41.262  26.459   1.280
 1454W        W68237  29.177  40.229   4.958
 1455W        W68238  13.684  28.991  11.194
 1456W        W68239   6.267   4.956  10.044
 1457W        W68240  33.415   4.813  14.840
 1458W        W68241  21.114  15.161   1.479
 1459W        W68242  37.512  27.665  11.548
 1460W        W68243  24.530  35.964  14.998
 1461W        W68244   6.993  40.958   3.199
 1462W        W68245   5.305  32.180  10.192
 1463W        W68246  18.237   3.695   1.883
 1464W        W68247  29.836  27.737   4.694
 1465W        W68248   9.083  17.967  14.130
 1466W        W68249  13.907  25.169  11.101
 1467W        W68250  34.999  10.418   4.317
 1468W        W68251  16.517  18.137  12.519
 1469W        W68252  36.892   3.260   4.214
 1470W        W68253   8.178  18.873   0.449
 1471W        W68254  14.610  22.783   3.076
 1472W        W68255  14.864  31.475  13.373
 1473W        W68256  12.528  32.338  11.082
 1474W        W68257   1.294   9.491  10.158
 1475W        W68258  37.551  29.865   1.686
 1476W        W68259  37.404   5.900  10.710
 1477W        W68260  33.384   1.682   2.224
 1478W        W68261  18.566  29.982  10.639
 1479W        W68262  19.592  35.866   3.186
 1480W        W68263  34.914  33.458   3.938
 1481W        W68264  22.172   9.184   0.175
 1482W        W68265  32.838  41.438   1.767
 1483W        W68266  42.926   7.227   1.674
 1484W        W68267  31.498  44.324  13.370
 1485W        W68268  25.375  12.484   4.439
 1486W        W68269  21.038   9.166  13.839
 1487W        W68270  21.326  35.201  11.439
 1488W        W68271  14.739  31.064   0.966
 1489W        W68272  20.019  35.625   1.278
 1490W        W68273  40.847  44.211   4.126
 1491W        W68274  28.377   2.259   0.721
 1492W        W68275  40.794   8.719   0.887
 1493W        W68276  36.651  21.220  10.249
 1494W        W68277  27.668   7.887   2.605
 1495W        W68278   9.211  39.949   4.486
 1496W        W68279  28.977  34.526   3.666
 1497W        W68280  34.729  11.078   1.670
 1498W        W68281  12.335  11.168  12.866
 1499W        W68282  24.225  23.399   5.140
 1500W        W68283  41.578   4.723   2.334
 1501W        W68284  28.494  43.908   1.767
 1502W        W68285  34.299  13.099  12.597
 1503W        W68286   4.137  21.096  14.379
 1504W        W68287  42.402  44.401  10.742
 1505W        W68288  29.359   2.245  11.601
 1506W        W68289   7.706  28.176   3.620
 1507W        W68290   4.408  35.302  10.744
 1508W        W68291   4.773  42.938   1.745
 1509W        W68292  17.293   3.362  10.266
 1510W        W68293  17.027  43.401   0.298
 1511W        W68294   4.776   7.840  10.660
 1512W        W68295  33.867  41.886  12.174
 1513W        W68296  42.345  44.417  13.866
 1514W        W68297   6.019  13.670   2.330
 1515W        W68298  16.044  29.353  13.051
 1516W        W68299   6.883  31.888   1.938
 1517W        W68300  10.804   7.711   3.129
 1518W        W68301  44.411  33.684   5.041
 1519W        W68302  44.763  30.626  12.317
 1520W        W68303  24.053  38.961   1.965
 1521W        W68304  20.658   1.888  13.570
 1522W        W68305  17.738   0.315   4.885
 1523W        W68306   8.596  12.221  14.398
 1524W        W68307   1.858  27.059  11.644
 1525W        W68308  41.464  26.314  12.894
 1526W        W68309  24.056  21.804   1.796
 1527W        W68310  27.694  12.455   4.127
 1528W        W68311  38.779  34.863   2.785
 1529W        W68312  17.706  17.385  12.589
 1530W        W68313  36.592  31.976  14.201
 1531W        W68314  22.170  32.687   0.401
 1532W        W68315  41.608   1.674  13.431
 1533W        W68316   8.466  31.487   0.772
 1534W        W68317  43.796  17.596   4.139
 1535W        W68318  14.813  43.339  14.046
 1536W        W68319  10.947  11.139  14.100
 1537W        W68320  10.451   9.201   2.297
 1538W        W68321  37.472  16.579  12.389
 1539W        W68322   1.288  44.644  11.140
 1540W        W68323  33.035  17.672   2.758
 1541W        W68324  35.515  15.339  14.064
 1542W        W68325  29.439  30.601   1.308
 1543W        W68326  25.671   3.397  10.253
 1544W        W68327  21.534   9.630  11.667
 1545W        W68328   4.889  22.265  12.309
 1546W        W68329  39.372  11.798  11.196
 1547W        W68330  29.550  21.422  11.828
 1548W        W68331  27.833  22.669   4.450
 1549W        W68332   1.292  13.011  12.460
 1550W        W68333  32.424  10.103  14.355
 1551W        W68334  23.642  30.937   0.217
 1552W        W68335  20.439  22.925  13.480
 1553W        W68336  37.046   9.462   0.953
 1554W        W68337  42.867  19.057  12.205
 1555W        W68338  40.977  22.101  12.572
 1556W        W68339  16.124  36.113  11.117
 1557W        W68340   4.555   9.224  11.227
 1558W        W68341  14.044  10.747   2.303
 1559W        W68342   3.783  36.663  12.054
 1560W        W68343  22.109  13.308  13.071
 1561W        W68344  20.742  29.054   3.336
 1562W        W68345   0.913   7.743  13.476
 1563W        W68346   2.880  24.552  12.080
 1564W        W68347  16.149  34.075   4.157
 1565W        W68348   0.438   3.166   1.740
 1566W        W68349   0.768  37.878  13.152
 1567W        W68350   3.947  25.081   3.735
 1568W        W68351  16.155  42.106   1.739
 1569W        W68352  34.621  28.391  11.053
 1570W        W68353  12.200   5.809   0.030
 1571W        W68354  36.952  19.738  12.872
 1572W        W68355  22.795  26.310  13.431
 1573W        W68356   2.395  22.893   3.551
 1574W        W68357  10.915  28.246  14.680
 1575W        W68358   2.893  26.154  13.862
 1576W        W68359  28.396  16.192  13.576
 1577W        W68360  12.846  36.004   2.856
 1578W        W68361  35.836  32.387  13.049
 1579W        W68362  14.298  17.850   0.075
 1580W        W68363  17.009  32.019  14.841
 1581W        W68364  31.943  12.838  13.369
 1582W        W68365  10.413   9.254  13.334
 1583W        W68366  38.469  27.101  11.369
 1584W        W68367   9.234  10.342   0.796
 1585W        W68368  17.360   2.437  10.033
 1586W        W68369  20.555  22.945   3.284
 1587W        W68370  39.878  17.664   2.144
 1588W        W68371  16.771  23.018   2.162
 1589W        W68372  11.127   7.591  11.115
 1590W        W68373   3.988  44.428   4.477
 1591W        W68374  29.713   0.474  14.001
 1592W        W68375   0.361   6.893   1.879
 1593W        W68376  42.337   6.315   5.401
 1594W        W68377   7.755  33.355   3.288
 1595W        W68378  39.554  37.852   2.253
 1596W        W68379  21.313   9.783   0.920
 1597W        W68380  26.532  39.815  13.048
 1598W        W68381   9.360  27.902  13.096
 1599W        W68382  38.272  24.647  13.900
 1600W        W68383   8.355  41.627  13.984
 1601W        W68384  14.726  23.111  14.982
 1602W        W68385  13.528   1.430   0.861
 1603W        W68386  40.438  12.502  11.458
 1604W        W68387  20.872  26.031   4.651
 1605W        W68388  22.411  19.133  10.641
 1606W        W68389  30.206  43.901  14.373
 1607W        W68390   6.231  43.491   0.826
 1608W        W68391  19.644   2.675   4.935
 1609W        W68392  34.974   8.452   5.353
 1610W        W68393  12.592   8.218  12.966
 1611W        W68394  31.333  19.274  12.592
 1612W        W68395  37.836  43.119  11.368
 1613W        W68396  21.221  20.926   4.237
 1614W        W68397  17.390  20.165   2.621
 1615W        W68398   6.176  37.886  14.014
 1616W        W68399  39.750  33.482   2.400
 1617W        W68400  10.257   8.392   0.197
 1618W        W68401  19.659  30.212   3.216
 1619W        W68402  24.714  42.167  12.828
 1620W        W68403   9.107   7.868   0.920
 1621W        W68404  16.028  18.042  14.919
 1622W        W68405  14.201  28.512  14.195
 1623W        W68406  40.408  23.783  14.803
 1624W        W68407  19.777  31.057   1.746
 1625W        W68408   5.802  17.985   3.663
 1626W        W68409  37.004  27.579   4.566
 1627W        W68410  17.897  20.188   2.771
 1628W        W68411  29.465  17.837   0.352
 1629W        W68412  19.202  22.527   2.486
 1630W        W68413  19.274  20.912  12.633
 1631W        W68414  20.052  23.733  13.991
 1632W        W68415  33.639   5.786  13.785
 1633W        W68416  27.027   0.887  12.172
 1634W        W68417   7.455  35.670  12.960
 1635W        W68418  24.351  20.713  14.539
 1636W        W68419   2.916   7.519  13.491
 1637W        W68420  41.575  35.575  11.586
 1638W        W68421   6.899  11.802   1.232
 1639W        W68422  21.086  38.927  11.144
 1640W        W68423  22.538  44.912  12.650
 1641W        W68424   3.826  40.600  11.956
 1642W        W68425  19.337  33.163   0.345
 1643W        W68426  33.503  43.873   0.990
 1644W        W68427  29.076  16.262   3.592
 1645W        W68428  43.344  41.039   0.256
 1646W        W68429  34.680  22.540   3.737
 1647W        W68430  31.325  12.434   0.242
 1648W        W68431  24.703   0.850  10.719
 1649W        W68432   1.034   6.985  14.463
 1650W        W68433  11.244  39.399  13.073
 1651W        W68434  35.367  11.728   3.547
 1652W        W68435  43.977  19.770  11.646
 1653W        W68436  17.749  42.099  13.032
 1654W        W68437  21.111  26.674   3.887
 1655W        W68438  40.939   3.266  12.595
 1656W        W68439  25.015   0.336   2.773
 1657W        W68440  14.340  11.177  13.278
 1658W        W68441   2.631  14.968   2.843
 1659W        W68442   2.764   8.633  13.953
 1660W        W68443  17.659  16.950   0.065
 1661W        W68444   6.410  43.040  13.625
 1662W        W68445  10.255  20.250   1.452
 1663W        W68446  39.461   3.850  13.547
 1664W        W68447  30.071   2.514  10.774
 1665W        W68448  13.614  24.571  13.162
 1666W        W68449  43.374   6.083   9.720
 1667W        W68450   9.313  27.436  12.859
 1668W        W68451  38.686   8.752  10.172
 1669W        W68452  15.117  39.917   2.655
 1670W        W68453   2.499  11.398  14.269
 1671W        W68454  20.447   4.302   4.596
 1672W        W68455  27.436  21.594   0.796
 1673W        W68456  17.633  38.816   0.756
 1674W        W68457  44.435  16.293   4.122
 1675W        W68458  15.304  14.322   0.835
 1676W        W68459   0.876  22.995   4.645
 1677W        W68460  21.690   1.453  12.113
 1678W        W68461   1.420   7.613  15.000
 1679W        W68462  10.834  44.945  10.720
 1680W        W68463   9.191  26.206   0.023
 1681W        W68464   0.682  28.887  12.003
 1682W        W68465  39.562  36.394  10.740
 1683W        W68466  26.691  21.988  10.754
 1684W        W68467  10.687  17.082  10.662
 1685W        W68468   4.962   4.222  12.938
 1686W        W68469  11.782  40.726   3.229
 1687W        W68470  44.538  42.846  13.906
 1688W        W68471   4.662  21.207   0.305
 1689W        W68472  13.180  39.100  13.094
 1690W        W68473  12.787  20.329   1.353
 1691W        W68474   1.475   1.834  10.605
 1692W        W68475  22.881   6.654   1.797
 1693W        W68476  27.097  43.054   0.337
 1694W        W68477  31.957   9.382   4.531
 1695W        W68478  13.221  42.985   3.280
 1696W        W68479  43.874  42.465   3.956
 1697W        W68480  37.189  34.470  10.759
 1698W        W68481   6.450  29.985   3.254
 1699W        W68482  14.632  16.614   4.531
 1700W        W68483  15.636  42.044   0.428
 1701W        W68484  18.986  32.083  14.480
 1702W        W68485  25.450  31.537  11.576
 1703W        W68486   0.820   7.851   1.886
 1704W        W68487  28.568  40.120   2.649
 1705W        W68488  18.245  13.379  12.392
 1706W        W68489  18.898  14.753   1.769
 1707W        W68490  33.503  11.427  12.442
 1708W        W68491   0.803   2.526   4.171
 1709W        W68492  25.828   2.768   3.830
 1710W        W68493  19.163  14.706   3.517
 1711W        W68494  12.102  13.640   0.884
 1712W        W68495  34.095  24.740  12.028
 1713W        W68496   2.841  21.197   4.212
 1714W        W68497  10.259   3.803  14.523
 1715W        W68498  28.143  43.228   3.155
 1716W        W68499  19.779  22.250  13.442
 1717W        W68500  28.858  34.142  12.212
 1718W        W68501  16.195  33.015  12.601
 1719W        W68502  44.033   8.173  12.288
 1720W        W68503  36.161  29.074   4.061
 1721W        W68504  12.658   2.476  10.669
 1722W        W68505  13.203  30.108   0.032
 1723W        W68506  24.006  26.636   2.147
 1724W        W68507  37.467  23.731   4.698
 1725W        W68508  12.808  19.015  12.423
 1726W        W68509  27.261  32.652   3.346
 1727W        W68510  39.846   0.974   4.361
 1728W        W68511  22.003  14.627  11.038
 1729W        W68512  16.508   3.716  14.076
 1730W        W68513  29.934  38.109  14.923
 1731W        W68514  27.968   0.277   0.428
 1732W        W68515   6.182  26.897   0.796
 1733W        W68516  37.656  32.848  14.171
 1734W        W68517  18.470  27.831  11.136
 1735W        W68518  27.273  12.862   0.297
 1736W        W68519   1.385   4.849   3.827
 1737W        W68520  17.066  30.157  14.445
 1738W        W68521  40.046  11.122  10.574
 1739W        W68522  28.361  42.361   3.168
 1740W        W68523  27.172  33.591  14.042
 1741W        W68524  42.902  26.614  11.108
 1742W        W68525  16.654  44.475  11.546
 1743W        W68526  33.955  38.847   4.761
 1744W        W68527  27.087   0.270  13.797
 1745W        W68528  42.293   6.841   5.413
 1746W        W68529  39.023  22.421  13.007
 1747W        W68530  14.832  24.101  11.082
 1748W        W68531  24.829  40.514   1.821
 1749W        W68532   2.108  39.396   0.836
 1750W        W68533  28.650  36.351   3.586
 1751W        W68534  36.861  31.110  13.925
 1752W        W68535   0.767   3.737  13.520
 1753W        W68536  33.635  29.555  14.866
 1754W        W68537   2.866  15.260  14.061
 1755W        W68538   2.809  42.326   3.816
 1756W        W68539  23.105  37.250   2.259
 1757W        W68540  11.978  38.350   4.296
 1758W        W68541  30.196   3.280  13.067
 1759W        W68542   9.189  41.284   2.747
 1760W        W68543  34.445  34.157  14.027
 1761W        W68544  20.282  40.111   0.272
 1762W        W68545  42.293  37.870  11.469
 1763W        W68546  39.873  28.398   1.865
 1764W        W68547   2.047  23.181   2.719
 1765W        W68548   2.771  18.642  10.501
 1766W        W68549  12.334   9.212   2.770
 1767W        W68550  38.129  31.571  11.056
 1768W        W68551  21.824  39.092  11.462
 1769W        W68552   9.638  42.031  14.286
 1770W        W68553  33.588  20.087   0.298
 1771W        W68554   2.737  22.917  14.330
 1772W        W68555   9.556  33.112  14.363
 1773W        W68556  10.417   7.868  12.029
 1774W        W68557   7.491  12.845  13.386
 1775W        W68558  14.782  42.871  12.729
 1776W        W68559  19.779  36.981  10.757
 1777W        W68560  10.546  12.179   0.891
 1778W        W68561  40.840   7.255   1.823
 1779W        W68562  10.791  40.484  13.925
 1780W        W68563  31.660  29.958  11.082
 1781W        W68564  29.899   6.829  12.528
 1782W        W68565  28.545  23.098   0.385
 1783W        W68566  44.391  22.307   0.719
 1784W        W68567  11.409   9.910   1.762
 1785W        W68568  36.124  17.708  13.831
 1786W        W68569  13.111  31.543  14.861
 1787W        W68570  32.726  25.194   1.361
 1788W        W68571  20.129  29.437   1.473
 1789W        W68572  25.668  41.866  11.544
 1790W        W68573  41.976   1.986  10.499
 1791W        W68574  17.366  39.981  12.959
 1792W        W68575   1.357  18.641  11.089
 1793W        W68576  16.604  13.604  10.895
 1794W        W68577   2.739  31.292  10.476
 1795W        W68578  18.623  32.681   4.543
 1796W        W68579  11.629   9.425   0.832
 1797W        W68580  23.440   5.687   3.266
 1798W        W68581  26.634  43.936  11.931
 1799W        W68582   9.895  36.024   1.729
 1800W        W68583   0.711  33.285   3.565
 1801W        W68584  34.466  21.624  12.454
 1802W        W68585  25.485  14.283   3.728
 1803W        W68586  30.090  29.655   4.040
 1804W        W68587   7.182  15.431   1.845
 1805W        W68588   5.669  27.568   4.199
 1806W        W68589  31.742  29.816  12.410
 1807W        W68590  16.425  41.807   2.648
 1808W        W68591  39.260  36.014  12.879
 1809W        W68592  28.960  29.527   1.297
 1810W        W68593  12.769  14.902  10.978
 1811W        W68594  29.123  31.603   2.453
 1812W        W68595   4.810  10.326  12.764
 1813W        W68596   1.334  31.760   5.203
 1814W        W68597  26.678   2.035   0.053
 1815W        W68598  19.015  36.116   2.378
 1816W        W68599  44.469  39.554  11.004
 1817W        W68600  11.072   5.494  11.360
 1818W        W68601   3.680  27.218  12.707
 1819W        W68602   5.806  10.804   2.025
 1820W        W68603  15.094  38.969   4.715
 1821W        W68604   3.697  22.781   2.344
 1822W        W68605  16.801  17.685   3.167
 1823W        W68606   0.057  15.519  14.424
 1824W        W68607  11.844  43.610   0.934
 1825W        W68608  28.237  36.047  12.982
 1826W        W68609  20.893   7.837  14.358
 1827W        W68610  18.340   9.889   4.715
 1828W        W68611   5.285  36.509  11.470
 1829W        W68612   0.347  31.352   0.544
 1830W        W68613  12.284   7.657   2.617
 1831W        W68614  36.973  27.197   3.682
 1832W        W68615  16.076  21.246   3.108
 1833W        W68616  27.153  20.695   3.750
 1834W        W68617   8.646  11.048   3.327
 1835W        W68618  17.898  19.700  13.149
 1836W        W68619  27.344   8.364   3.238
 1837W        W68620  16.799   9.360   0.216
 1838W        W68621   9.802  14.091  13.533
 1839W        W68622  26.055  15.155  12.149
 1840W        W68623  20.601  37.414   3.652
 1841W        W68624  39.416  31.868   0.446
 1842W        W68625  36.418  43.444  14.401
 1843W        W68626   9.363  33.589  14.459
 1844W        W68627  44.325  44.669   4.544
 1845W        W68628  34.157  11.534  10.121
 1846W        W68629  25.181   7.925   0.245
 1847W        W68630  26.717  42.532  10.769
 1848W        W68631   8.288  36.347   3.622
 1849W        W68632  18.272   1.530  14.444
 1850W        W68633  32.341   5.963  11.037
 1851W        W68634  26.069  37.367  14.996
 1852W        W68635  36.608  16.275  14.285
 1853W        W68636   7.913  11.303  14.388
 1854W        W68637  33.700  31.155  11.637
 1855W        W68638  42.997  24.517   3.100
 1856W        W68639  31.831  29.524  12.866
 1857W        W68640  15.886  10.860   3.670
 1858W        W68641  23.560  44.906  12.842
 1859W        W68642   9.705  29.491  10.728
 1860W        W68643  14.591  22.142   3.633
 1861W        W68644   2.723   2.014  12.058
 1862W        W68645   6.867  18.076  11.453
 1863W        W68646  35.055  38.616   1.436
 1864W        W68647  25.465  37.114   1.146
 1865W        W68648   3.373  17.703   4.686
 1866W        W68649  13.295  33.001  10.626
 1867W        W68650  30.866  38.549   4.528
 1868W        W68651  14.272   7.585   0.346
 1869W        W68652  21.836  36.905   3.109
 1870W        W68653  30.516  22.166  14.322
 1871W        W68654  31.600  34.868  11.908
 1872W        W68655  11.455  14.532  12.301
 1873W        W68656  37.921  44.694  13.258
 1874W        W68657  30.450  38.042   1.673
 1875W        W68658   5.475  15.466   1.262
 1876W        W68659   3.730  17.733  14.041
 1877W        W68660   3.758  15.126  13.471
 1878W        W68661  16.133  17.255  11.961
 1879W        W68662  33.211  33.499   1.723
 1880W        W68663  18.262  17.181   3.684
 1881W        W68664   2.952  35.477  13.005
 1882W        W68665   9.855  41.439  11.064
 1883W        W68666  40.575   4.109  13.069
 1884W        W68667  32.613  34.064  12.585
 1885W        W68668  17.563  24.250  12.030
 1886W        W68669   1.781  12.815  10.506
 1887W        W68670  25.683  43.522  14.857
 1888W        W68671   4.849   5.788  10.810
 1889W        W68672   5.295  23.976  13.017
 1890W        W68673   8.288   5.741  10.954
 1891W        W68674  31.683  19.603   0.784
 1892W        W68675  25.570  34.153  11.993
 1893W        W68676  33.412   0.853   3.551
 1894W        W68677  11.355  22.594   0.718
 1895W        W68678  32.208  36.104  12.082
 1896W        W68679  41.807  42.409  14.844
 1897W        W68680  23.700  28.398  10.547
 1898W        W68681   2.974  24.512  12.949
 1899W        W68682  20.538  30.988  14.525
 1900W        W68683  18.539   9.327   1.936
 1901W        W68684  14.876   4.326   0.383
 1902W        W68685   8.904  33.908  13.763
 1903W        W68686  39.454  31.769   2.414
 1904W        W68687   2.336  17.228   0.453
 1905W        W68688  42.250  18.027   4.641
 1906W        W68689  23.201  17.783  12.071
 1907W        W68690  32.973  11.348  12.374
 1908W        W68691   2.960  11.175   3.171
 1909W        W68692  32.056  34.689  12.096
 1910W        W68693  40.425   8.555  13.284
 1911W        W68694   8.011  13.051  14.421
 1912W        W68695  25.475   0.899   0.399
 1913W        W68696  34.710  24.211   1.281
 1914W        W68697  44.015  12.901  11.563
 1915W        W68698  25.830  17.008  13.783
 1916W        W68699  24.620  41.917   1.616
 1917W        W68700  44.020   0.980   3.937
 1918W        W68701  43.438  13.763   3.140
 1919W        W68702  32.630  23.074   9.873
 1920W        W68703   8.097  37.862  11.539
 1921W        W68704  14.295  34.344  14.353
 1922W        W68705   4.467  14.100   0.425
 1923W        W68706  35.029  43.647  12.291
 1924W        W68707  12.617  21.509   5.007
 1925W        W68708  21.267  18.780  13.909
 1926W        W68709   3.309   5.810   2.803
 1927W        W68710  20.348  40.467  12.151
 1928W        W68711  28.996  22.308  11.213
 1929W        W68712   7.404  30.703   2.855
 1930W        W68713   4.369  22.461  13.057
 1931W        W68714  40.008  42.930  11.910
 1932W        W68715  12.079  14.131   3.576
 1933W        W68716  34.191  42.782  14.095
 1934W        W68717  17.957  17.420   2.372
 1935W        W68718   4.928  44.312  12.097
 1936W        W68719  17.329  42.690  10.332
 1937W        W68720  16.377   0.392  11.923
 1938W        W68721   4.605   5.389  13.509
 1939W        W68722  28.283  31.675  12.234
 1940W        W68723  33.368  36.361  13.464
 1941W        W68724  27.139  23.495   2.465
 1942W        W68725  15.241  38.501   4.584
 1943W        W68726  17.706   2.240  12.000
 1944W        W68727  36.493  19.300   0.367
 1945W        W68728   2.453  16.186  13.591
 1946W        W68729   0.575  11.636   3.653
 1947W        W68730  10.580   1.507   2.717
 1948W        W68731   5.077  20.025   2.268
 1949W        W68732  41.347  20.640   2.969
 1950W        W68733  36.020  19.333   1.012
 1951W        W68734  43.074  32.802   2.101
 1952W        W68735  17.348  17.685   1.732
 1953W        W68736  27.494  44.008  11.533
 1954W        W68737  28.851   9.893   3.426
 1955W        W68738  29.749   7.879   5.039
 1956W        W68739   7.337   7.894  12.179
 1957W        W68740  18.782  16.258   2.346
 1958W        W68741  18.559  12.104   1.469
 1959W        W68742  14.323  19.633  11.533
 1960W        W68743  32.983  28.179  14.956
 1961W        W68744  40.109  23.603  11.128
 1962W        W68745  18.024  31.378   1.405
 1963W        W68746  35.640  27.760  10.380
 1964W        W68747  32.142  37.891  11.487
 1965W        W68748  11.873  15.165  11.502
 1966W        W68749  40.013  28.630  13.777
 1967W        W68750   3.545   1.280  11.024
 1968W        W68751  21.269  11.633  10.816
 1969W        W68752  43.045  44.497  14.503
 1970W        W68753  43.871   6.160  12.966
 1971W        W68754  31.176  15.118   1.967
 1972W        W68755  19.777   0.808   1.830
 1973W        W68756  25.647  25.493  13.029
 1974W        W68757  14.419   4.020  11.339
 1975W        W68758  40.438   7.780  12.498
 1976W        W68759  15.198  11.401   3.601
 1977W        W68760  18.590  40.783  12.013
 1978W        W68761  25.592  10.070  12.113
 1979W        W68762  37.852  22.594   0.334
 1980W        W68763  42.999  42.344  11.880
 1981W        W68764   4.759  12.652   2.862
 1982W        W68765  20.357  20.228   1.256
 1983W        W68766  41.844  35.891  13.808
 1984W        W68767  38.521  43.932  14.777
 1985W        W68768  35.637   5.825   2.817
 1986W        W68769  43.995   1.496  11.199
 1987W        W68770   2.472  11.882  13.321
 1988W        W68771   3.942  20.510   0.927
 1989W        W68772  36.797   1.896  14.791
 1990W        W68773  20.994  34.262   0.913
 1991W        W68774  39.696   5.298   4.340
 1992W        W68775  24.770   3.996  14.804
 1993W        W68776  19.758  14.824  11.374
 1994W        W68777  23.602  13.712  13.939
 1995W        W68778  26.527  39.351   1.728
 1996W        W68779  44.699   8.802  13.950
 1997W        W68780  16.311  17.153  13.387
 1998W        W68781  13.644   4.929  12.526
 1999W        W68782  37.633  42.198   1.192
 2000W        W68783  32.040  34.537   3.692
 2001W        W68784  35.723  42.343  10.585
 2002W        W68785  15.696  19.788   3.281
 2003W        W68786  36.890  39.964  13.028
 2004W        W68787  16.699  24.363   2.172
 2005W        W68788  34.848  25.212  14.848
 2006W        W68789  26.525  33.627  12.377
 2007W        W68790  34.470   3.026  12.479
 2008W        W68791  17.078  19.463   1.494
 2009W        W68792  25.038  44.430  13.312
 2010W        W68793  42.300  44.071  12.835
 2011W        W68794   7.195  22.090   1.275
 2012W        W68795  15.416  15.126   4.081
 2013W        W68796  40.909  10.526  13.006
 2014W        W68797   3.055  11.888  11.593
 2015W        W68798  12.706  31.368   3.221
 2016W        W68799  32.888  38.577  14.315
 2017W        W68800  13.817  14.282  10.708
 2018W        W68801  41.585  33.905  12.102
 2019W        W68802  31.396  12.770   3.560
 2020W        W68803  38.172  19.789   5.014
 2021W        W68804  38.771   7.561   1.700
 2022W        W68805  16.634  18.014  14.289
 2023W        W68806  10.893  16.604   1.015
 2024W        W68807   2.739   5.467  13.363
 2025W        W68808  36.005  29.122   1.901
 2026W        W68809  42.794  10.461  11.047
 2027W        W68810  16.283  15.356   0.374
 2028W        W68811  27.148  38.886   0.751
 2029W        W68812  13.421  44.442   2.759
 2030W        W68813   8.489   0.816  13.470
 2031W        W68814  24.991  13.373   3.755
 2032W        W68815   2.954  35.653  10.755
 2033W        W68816   2.446   5.143   4.647
 2034W        W68817  14.808  15.198   2.759
 2035W        W68818  28.773   2.330   1.078
 2036W        W68819  13.152  23.439   3.230
 2037W        W68820  43.138  16.154   2.513
 2038W        W68821   7.847  33.068   3.723
 2039W        W68822   6.591  29.345   0.875
 2040W        W68823   9.811  21.562  14.680
 2041W        W68824  12.135   8.405   0.447
 2042W        W68825  19.751  32.534  13.369
 2043W        W68826  11.205   4.241  11.881
 2044W        W68827  26.237   6.526  11.005
 2045W        W68828  31.625   5.307   0.256
 2046W        W68829  11.080   0.640   1.833
 2047W        W68830   0.925  38.945   0.261
 2048W        W68831  14.362  44.416  10.699
 2049W        W68832  14.288  43.793  13.403
 2050W        W68833  31.140   7.664  12.923
 2051W        W68834  22.281  35.460  11.485
 2052W        W68835  17.191   3.799   4.140
 2053W        W68836  25.804  37.821  14.056
 2054W        W68837   7.819  25.137   1.857
 2055W        W68838   1.417  21.984  14.330
 2056W        W68839  44.135   5.304   4.582
 2057W        W68840  24.637  12.235   2.315
 2058W        W68841  15.303   6.395  10.638
 2059W        W68842  14.462  21.766   1.319
 2060W        W68843  20.479  23.736   0.879
 2061W        W68844  34.657   0.247  12.211
 2062W        W68845  11.693  38.462   4.736
 2063W        W68846  19.086  40.570  14.868
 2064W        W68847  10.184  10.359  12.154
 2065W        W68848  20.655  41.622   4.736
 2066W        W68849  22.417  16.900   0.352
 2067W        W68850  14.527  30.951   3.570
 2068W        W68851  23.298  17.250   1.708
 2069W        W68852  13.117  35.622  12.370
 2070W        W68853   7.327  36.955   3.583
 2071W        W68854   6.930  42.259  13.923
 2072W        W68855  25.621  26.525   3.769
 2073W        W68856  31.834  38.097  13.489
 2074W        W68857  38.626  15.360   0.839
 2075W        W68858  17.099   6.829   4.948
 2076W        W68859  28.675  29.944   1.409
 2077W        W68860   5.775  20.257  14.874
 2078W        W68861  18.793  27.680  12.137
 2079W        W68862   9.437  40.386   2.205
 2080W        W68863  44.355  25.170  13.382
 2081W        W68864  22.914  33.367   1.816
 2082W        W68865  10.401  33.086  12.024
 2083W        W68866  42.862   5.657   3.216
 2084W        W68867   2.391  44.648  11.821
 2085W        W68868  17.266  44.324   1.186
 2086W        W68869  44.779  25.200  10.702
 2087W        W68870   4.782   2.931  14.390
 2088W        W68871   8.799  13.415  11.933
 2089W        W68872  37.466  23.127   1.857
 2090W        W68873   6.355   3.430   2.274
 2091W        W68874  42.284  27.720  13.957
 2092W        W68875  19.030  38.797  14.792
 2093W        W68876  40.119  27.130   4.935
 2094W        W68877   7.168  13.433   3.580
 2095W        W68878  41.787  12.408   0.496
 2096W        W68879   5.451   4.754   4.573
 2097W        W68880  22.791  42.894  10.244
 2098W        W68881  19.742  39.971  14.532
 2099W        W68882  42.808  21.729   1.193
 2100W        W68883   0.350  31.856  13.949
 2101W        W68884  35.057  41.991   3.415
 2102W        W68885  27.763  27.094   3.225
 2103W        W68886  32.303  39.610  12.949
 2104W        W68887  34.268   5.742  14.657
 2105W        W68888  28.151  11.237  13.938
 2106W        W68889  26.198  20.461  10.611
 2107W        W68890  20.454  11.042   2.101
 2108W        W68891  34.479  30.652  11.640
 2109W        W68892   6.903  19.324  13.943
 2110W        W68893  19.967  15.691  11.053
 2111W        W68894  32.144  15.342  11.163
 2112W        W68895  10.739  28.677  11.120
 2113W        W68896  42.481  41.928  14.504
 2114W        W68897  12.087   9.477   4.045
 2115W        W68898   8.311  36.456  12.547
 2116W        W68899  28.691   2.861   4.533
 2117W        W68900   9.865   2.711   3.302
 2118W        W68901  11.413  10.616  13.955
 2119W        W68902  31.149  16.725  10.462
 2120W        W68903  16.353   7.004  12.861
 2121W        W68904  37.841   0.930  12.117
 2122W        W68905  12.353   1.236   3.267
 2123W        W68906  18.743  29.874   4.552
 2124W        W68907  35.937   8.219   0.468
 2125W        W68908  44.079  22.967   2.386
 2126W        W68909  38.718  30.409  12.482
 2127W        W68910  34.630   7.606   3.560
 2128W        W68911   0.090  30.527   4.950
 2129W        W68912  14.201  30.524  11.509
 2130W        W68913  36.674  26.934  14.410
 2131W        W68914   0.029   2.915  14.871
 2132W        W68915  19.115  43.152  14.846
 2133W        W68916   6.806   6.109  12.998
 2134W        W68917   1.264  10.178   1.104
 2135W        W68918  34.808  16.527   2.626
 2136W        W68919   1.757  16.973   1.254
 2137W        W68920  34.101   9.248   1.654
 2138W        W68921  36.607   0.749   3.411
 2139W        W68922  24.529   7.822   4.923
 2140W        W68923  32.792  19.571  10.576
 2141W        W68924  36.573  16.084  10.979
 2142W        W68925  18.257  35.282   3.380
 2143W        W68926  44.805  24.961   4.534
 2144W        W68927  15.649  28.649   4.676
 2145W        W68928  22.797  37.278  11.121
 2146W        W68929  24.231   5.342  12.617
 2147W        W68930  21.679  40.532   4.177
 2148W        W68931   4.251  25.711   3.583
 2149W        W68932  29.149  16.708  11.283
 2150W        W68933  40.840  16.231  12.473
 2151W        W68934  11.583  39.626  14.501
 2152W        W68935  19.069  21.020  14.056
 2153W        W68936  14.337  28.430   3.622
 2154W        W68937  31.681  36.906  12.908
 2155W        W68938  30.044  16.978   0.928
 2156W        W68939  40.968  12.794   1.321
 2157W        W68940  37.856  23.173   0.919
 2158W        W68941   8.930   8.056  13.381
 2159W        W68942  10.624  13.634   1.449
 2160W        W68943  13.225  10.617  13.581
 2161W        W68944  44.760   9.694  13.985
 2162W        W68945  19.905  35.946  12.127
 2163W        W68946   6.201   5.812   3.505
 2164W        W68947  36.918  41.516  12.019
 2165W        W68948   3.400  35.382  13.852
 2166W        W68949  21.073   2.480  14.521
 2167W        W68950  26.752  24.793  10.664
 2168W        W68951  21.092  33.984   1.961
 2169W        W68952  36.541   5.244   4.833
 2170W        W68953  19.052  22.699  14.765
 2171W        W68954   7.454   7.293   0.740
 2172W        W68955  17.198  32.370   2.588
 2173W        W68956  20.679   1.197   1.650
 2174W        W68957  25.760  21.112   1.673
 2175W        W68958  11.870  37.436  13.506
 2176W        W68959  13.629   6.723  13.052
 2177W        W68960  35.400   3.176  11.040
 2178W        W68961  32.342  20.436   0.903
 2179W        W68962  24.735  36.174  13.370
 2180W        W68963  42.225  44.404   0.817
 2181W        W68964  22.928  35.341  12.139
 2182W        W68965  12.393  13.346   0.556
 2183W        W68966  27.529   1.929   3.219
 2184W        W68967   5.042  42.851  14.389
 2185W        W68968  23.531  32.987  14.969
 2186W        W68969  14.768  19.854   4.463
 2187W        W68970  37.768  24.235   1.606
 2188W        W68971  16.640  31.982  13.539
 2189W        W68972  26.176  11.892   2.218
 2190W        W68973  40.775  24.059   3.272
 2191W        W68974  25.047  16.189  10.687
 2192W        W68975  17.146  21.195   0.824
 2193W        W68976  27.762   6.262  13.585
 2194W        W68977   4.649  40.969  12.102
 2195W        W68978  39.863   1.319   1.408
 2196W        W68979   8.735   4.447   2.372
 2197W        W68980  25.949  44.319   0.467
 2198W        W68981  19.722  42.678  14.586
 2199W        W68982   8.667  10.710  14.301
 2200W        W68983   9.251  15.345  13.096
 2201W        W68984   2.008  25.269   4.688
 2202W        W68985  40.408  10.928   1.417
 2203W        W68986  13.401  37.610   3.173
 2204W        W68987  23.691  29.317   1.724
 2205W        W68988  41.417  28.174  12.911
 2206W        W68989  44.624   4.188   2.487
 2207W        W68990   2.026  14.840   1.687
 2208W        W68991  22.013  30.490  14.019
 2209W        W68992  22.933  14.267   0.984
 2210W        W68993  25.958  43.043  11.183
 2211W        W68994   0.249  17.571   2.615
 2212W        W68995  16.050  36.630  11.958
 2213W        W68996   0.732  23.216  13.945
 2214W        W68997  18.883   1.534  11.041
 2215W        W68998   4.301  20.910  13.060
 2216W        W68999   8.422  35.013   3.041
 2217W        W69000  25.213  36.742   2.838
 2218W        W69001  18.537  39.458   0.855
 2219W        W69002  32.117  12.677   0.698
 2220W        W69003   8.252   9.791   4.682
 2221W        W69004  30.661  21.181   2.576
 2222W        W69005  20.084   2.974  13.931
 2223W        W69006  28.610  27.190   4.687
 2224W        W69007  44.385  20.914  12.988
 2225W        W69008  31.720  25.981   2.791
 2226W        W69009   2.810  30.202  12.078
 2227W        W69010  26.530  27.405   0.055
 2228W        W69011  43.420  21.000  13.285
 2229W        W69012   6.671   8.606  14.331
 2230W        W69013  36.601   8.052  13.453
 2231W        W69014  37.552  13.048   2.730
 2232W        W69015  40.962  26.587  10.291
 2233W        W69016  21.387   9.086  12.083
 2234W        W69017  30.168  38.442  10.364
 2235W        W69018   7.569  41.415  11.532
 2236W        W69019  24.031  13.375   4.077
 2237W        W69020   1.418  38.605   3.692
 2238W        W69021   3.545   7.607   1.525
 2239W        W69022  37.568  32.070  14.516
 2240W        W69023   6.864  30.263  11.428
 2241W        W69024  17.960   8.157  11.702
 2242W        W69025   6.985  40.084  14.322
 2243W        W69026  34.122  13.088   0.340
 2244W        W69027  35.206  36.454   3.410
 2245W        W69028   6.692  27.658   2.271
 2246W        W69029  40.935  10.321  13.478
 2247W        W69030  24.898  28.505   0.739
 2248W        W69031  23.453  35.907  13.800
 2249W        W69032  36.645  13.619  11.948
 2250W        W69033  31.875  41.287  12.658
 2251W        W69034  11.295  36.645  12.512
 2252W        W69035  18.343  31.981  13.847
 2253W        W69036  12.581  22.012   1.000
 2254W        W69037  18.224  13.867   0.429
 2255W        W69038  44.270  39.251  13.701
 2256W        W69039  42.612  30.999   0.100
 2257W        W69040  12.924  22.629  14.080
 2258W        W69041  35.265  34.446  14.928
 2259W        W69042  31.222  10.928   4.530
 2260W        W69043  33.558  18.031   4.704
 2261W        W69044  44.060  24.936   1.732
 2262W        W69045  34.526  15.506   2.416
 2263W        W69046  37.070  37.942   1.740
 2264W        W69047  12.347   6.654   0.500
 2265W        W69048   0.814  24.662   2.340
 2266W        W69049   8.923  12.656   4.331
 2267W        W69050  10.984  36.873   4.039
 2268W        W69051  21.231  20.300  12.508
 2269W        W69052  17.122  43.947   3.379
 2270W        W69053  15.658   8.228  13.438
 2271W        W69054  19.176  21.538   2.280
 2272W        W69055   2.852  21.264   1.608
 2273W        W69056  31.985  44.023   4.963
 2274W        W69057  21.583  21.122   1.714
 2275W        W69058  14.277  27.121   0.638
 2276W        W69059  26.383  44.862   3.565
 2277W        W69060   1.845  25.239  12.496
 2278W        W69061   2.964   2.250  12.472
 2279W        W69062   8.880  17.173   4.387
 2280W        W69063  12.327  25.150  12.836
 2281W        W69064  18.314  42.537  13.491
 2282W        W69065  43.913  19.773  13.389
 2283W        W69066  18.684  39.963   3.010
 2284W        W69067  35.704  41.870   1.465
 2285W        W69068  16.290  23.216   1.343
 2286W        W69069  11.775  18.043   4.437
 2287W        W69070  31.535  27.871   0.527
 2288W        W69071  35.829  26.577  11.125
 2289W        W69072  21.189   3.652   0.025
 2290W        W69073  21.259   0.398   3.283
 2291W        W69074   2.844  40.515  12.046
 2292W        W69075  37.067  31.616   4.044
 2293W        W69076  26.515  43.403   2.716
 2294W        W69077  35.424  32.347  11.167
 2295W        W69078   0.583  12.667  14.765
 2296W        W69079   0.537  27.462  11.587
 2297W        W69080  33.321  41.867  13.381
 2298W        W69081  37.018  29.176   4.323
 2299W        W69082  30.564  35.940   1.349
 2300W        W69083   4.930  40.429  12.001
 2301W        W69084  39.566  25.084  12.539
 2302W        W69085   2.486  39.343  10.466
 2303W        W69086  23.008   8.086  12.061
 2304W        W69087  23.254  29.450  14.968
 2305W        W69088   1.162  35.374  13.415
 2306W        W69089  29.467  44.960   3.038
 2307W        W69090  23.628  18.977   3.207
 2308W        W69091  15.087  34.157   3.244
 2309W        W69092   9.856  18.597  12.174
 2310W        W69093  42.732   5.293   0.514
 2311W        W69094  34.814  31.103   1.711
 2312W        W69095  32.863   0.484  13.561
 2313W        W69096  44.028   3.219  14.914
 2314W        W69097   7.254  28.990   2.362
 2315W        W69098  23.001  36.380   0.395
 2316W        W69099  44.830  25.002  13.545
 2317W        W69100  30.058   9.911   1.581
 2318W        W69101  17.083  44.465   1.664
 2319W        W69102  18.158  22.574  11.561
 2320W        W69103  24.177  18.073  13.938
 2321W        W69104  41.398  24.317  14.553
 2322W        W69105   8.314  29.621  12.885
 2323W        W69106  28.724  35.941  13.047
 2324W        W69107  12.752  14.597  11.381
 2325W        W69108  15.706  21.331  11.796
 2326W        W69109   6.829  31.125   0.400
 2327W        W69110  25.708  44.113  14.561
 2328W        W69111  18.658  20.104  11.654
 2329W        W69112  41.925  32.170   2.784
 2330W        W69113  41.240  39.924   3.679
 2331W        W69114  31.225  41.266   2.728
 2332W        W69115  11.259  29.496   3.552
 2333W        W69116  26.117   2.259  14.933
 2334W        W69117  15.724  11.815   0.819
 2335W        W69118  10.249  30.990  13.472
 2336W        W69119   1.387  21.066  13.033
 2337W        W69120   6.112   8.497  11.466
 2338W        W69121  29.144  11.726  14.061
 2339W        W69122  26.951  22.693  11.727
 2340W        W69123  24.883   8.648   2.565
 2341W        W69124  22.432   1.963   4.933
 2342W        W69125  41.810  32.589  13.676
 2343W        W69126  15.950  20.480  14.104
 2344W        W69127  12.716  19.326   2.056
 2345W        W69128  31.099  14.416   1.178
 2346W        W69129  16.282   4.371   0.739
 2347W        W69130  29.560  17.520   3.159
 2348W        W69131   7.124  28.083   0.958
 2349W        W69132  26.495   2.463  13.961
 2350W        W69133  15.130  28.973  12.024
 2351W        W69134   6.634  18.967   0.488
 2352W        W69135   3.301  34.412   3.220
 2353W        W69136  40.588  23.553   0.242
 2354W        W69137  38.875  29.004   4.691
 2355W        W69138  26.154  33.477   0.303
 2356W        W69139   9.638  39.554  13.572
 2357W        W69140   0.239   4.024   2.686
 2358W        W69141   7.719  19.589   3.162
 2359W        W69142  41.685  40.001  10.593
 2360W        W69143  31.828  23.916  11.953
 2361W        W69144  13.757   7.978  11.480
 2362W        W69145  32.955  39.935   4.028
 2363W        W69146  14.144  34.216   2.384
 2364W        W69147   6.349  11.819  13.635
 2365W        W69148  15.115  26.704   2.810
 2366W        W69149   0.341  15.023  11.578
 2367W        W69150  40.575  38.143   2.299
 2368W        W69151  38.327  19.620   0.423
 2369W        W69152   6.264  28.416   0.916
 2370W        W69153  18.949  38.926   3.747
 2371W        W69154  20.104   7.305   0.348
 2372W        W69155  23.727  17.219  14.307
 2373W        W69156  18.203  29.102   1.213
 2374W        W69157   6.561  34.487   0.516
 2375W        W69158  11.325  11.098  10.677
 2376W        W69159  34.350  34.392  13.311
 2377W        W69160   0.386  19.093  13.576
 2378W        W69161  14.053  42.974   3.062
 2379W        W69162   2.510  10.187  12.982
 2380W        W69163  19.173  19.511  14.995
 2381W        W69164   6.700  22.102  13.882
 2382W        W69165  44.496   0.365   3.988
 2383W        W69166  10.622   9.769  13.025
 2384W        W69167  44.513  13.347  12.470
 2385W        W69168  11.914  43.332  13.024
 2386W        W69169   7.777  39.784  14.122
 2387W        W69170  43.370  21.333   4.277
 2388W        W69171  41.051   5.875  13.880
 2389W        W69172   0.420  37.110   0.456
 2390W        W69173   9.055  38.034   3.657
 2391W        W69174   1.608  33.376  14.096
 2392W        W69175  10.439   9.050   1.359
 2393W        W69176  14.194  16.750   2.282
 2394W        W69177  35.079  26.273  11.133
 2395W        W69178  24.693  12.191   3.263
 2396W        W69179   0.507  12.070  13.993
 2397W        W69180   1.379  26.451   4.685
 2398W        W69181  38.790  32.367  11.498
 2399W        W69182  27.469  28.107  14.398
 2400W        W69183  17.630   5.712  14.716
 2401W        W69184  39.164  31.576   2.799
 2402W        W69185  37.427  22.968  11.496
 2403W        W69186  11.340  12.351  14.899
 2404W        W69187  43.802  19.979  13.852
 2405W        W69188  44.379  16.734  12.369
 2406W        W69189  18.028  34.991   4.557
 2407W        W69190  38.334  30.064  14.056
 2408W        W69191  39.190  33.302  11.450
 2409W        W69192  44.040  26.166  11.052
 2410W        W69193   3.775  29.329  11.003
 2411W        W69194  18.160  32.699   2.860
 2412W        W69195  33.084  18.992   0.837
 2413W        W69196  35.452  23.074  11.457
 2414W        W69197  19.876  20.026   1.193
 2415W        W69198   5.435  25.395   1.742
 2416W        W69199  34.841  43.469   0.961
 2417W        W69200  18.353   9.167   4.109
 2418W        W69201  41.837   8.709  12.523
 2419W        W69202  38.757  21.690   1.709
 2420W        W69203  39.541  11.869  14.306
 2421W        W69204  26.912   4.444   1.997
 2422W        W69205  34.888   7.774  10.808
 2423W        W69206  42.051  16.043   3.818
 2424W        W69207  11.393  11.411  12.207
 2425W        W69208  23.639   0.343   4.296
 2426W        W69209  13.171   0.154  12.439
 2427W        W69210  14.713  22.270   1.806
 2428W        W69211  19.219  16.193   3.862
 2429W        W69212  15.204  19.667   0.507
 2430W        W69213  23.365   2.436  14.491
 2431W        W69214  25.095  19.020  12.385
 2432W        W69215  29.148  43.238   5.034
 2433W        W69216   2.992  32.589   4.725
 2434W        W69217  13.235  35.920   3.670
 2435W        W69218  18.126  40.546  12.043
 2436W        W69219  10.565  35.503  10.898
 2437W        W69220  20.614   5.415   2.219
 2438W        W69221  41.817  39.353   1.763
 2439W        W69222   7.966  11.889  10.369
 2440W        W69223  29.046  10.231  11.785
 2441W        W69224  10.263  26.063   3.719
 2442W        W69225  21.098  39.387   0.330
 2443W        W69226  10.461  43.334   4.070
 2444W        W69227  16.138   8.883   2.922
 2445W        W69228   8.442  23.637  14.913
 2446W        W69229  39.799   8.350   4.334
 2447W        W69230   6.194  32.685   4.106
 2448W        W69231  14.961   5.285   2.829
 2449W        W69232  19.752  34.462  10.760
 2450W        W69233   3.465  37.284  12.917
 2451W        W69234  31.184   8.769  12.144
 2452W        W69235  30.401  20.011   0.902
 2453W        W69236   4.125  32.850  11.191
 2454W        W69237  24.808  22.380  10.039
 2455W        W69238  32.130  26.958  12.651
 2456W        W69239   6.104  11.721  11.118
 2457W        W69240  36.393  11.639  13.892
 2458W        W69241  12.685  29.925   1.274
 2459W        W69242  41.538   4.785  11.026
 2460W        W69243  44.407   1.700  13.850
 2461W        W69244  41.469  12.844  11.669
 2462W        W69245   8.978  44.403  14.403
 2463W        W69246  36.896  35.348   3.701
 2464W        W69247   5.683  44.874   1.815
 2465W        W69248  31.420  20.255   0.909
 2466W        W69249  32.340  39.674   4.258
 2467W        W69250   9.873   4.227   0.352
 2468W        W69251   6.224  31.193   3.742
 2469W        W69252  27.858  19.088   4.037
 2470W        W69253  36.520  32.559  13.813
 2471W        W69254  10.721  18.214  12.348
 2472W        W69255  20.640  43.730   4.804
 2473W        W69256   7.394  15.047  13.271
 2474W        W69257   8.183  17.645   4.540
 2475W        W69258  39.206  37.417   2.136
 2476W        W69259   6.207  23.088  14.785
 2477W        W69260  38.126   4.193  14.053
 2478W        W69261  39.883   4.435   4.305
 2479W        W69262  44.824   8.648  12.444
 2480W        W69263  16.098  30.236   2.577
 2481W        W69264  41.303   5.731   1.292
 2482W        W69265  44.773  26.072  14.006
 2483W        W69266  25.979  37.496  14.497
 2484W        W69267   7.141   3.517   2.817
 2485W        W69268  10.792  23.397  13.792
 2486W        W69269  32.366   1.388  14.345
 2487W        W69270  13.610  20.775  13.492
 2488W        W69271  43.707  19.968   4.505
 2489W        W69272  39.117  35.638   0.427
 2490W        W69273   7.033  20.295  13.212
 2491W        W69274  26.009  27.318   3.502
 2492W        W69275  38.494  40.531  10.505
 2493W        W69276  39.356  23.427  11.521
 2494W        W69277   7.788  10.942   4.385
 2495W        W69278   7.980  32.089   3.770
 2496W        W69279  16.393   9.793  12.827
 2497W        W69280  39.895   5.770   0.905
 2498W        W69281  44.642  24.586  12.583
 2499W        W69282  31.564  33.464  12.559
 2500W        W69283  16.783   2.714  10.649
 2501W        W69284  18.275  13.660  10.663
 2502W        W69285  21.636  24.940   5.017
 2503W        W69286  32.050  10.660  11.953
 2504W        W69287  18.652   8.380  14.900
 2505W        W69288  35.562  13.581   1.858
 2506W        W69289  24.001  22.174  14.548
 2507W        W69290  31.588  33.001  14.409
 2508W        W69291  31.976  31.563   5.068
 2509W        W69292  37.143   4.982   0.218
 2510W        W69293  21.294  34.060  14.521
 2511W        W69294  14.586   5.350   4.733
 2512W        W69295  11.785  19.844  10.672
 2513W        W69296  34.713  38.764   5.013
 2514W        W69297  41.537   2.234  10.624
 2515W        W69298  25.293  17.758  11.197
 2516W        W69299  24.894  26.133   2.909
 2517W        W69300  27.497   1.670   3.699
 2518W        W69301  21.529   8.752   0.020
 2519W        W69302  35.971  35.441   4.659
 2520W        W69303  40.231  30.024   1.643
 2521W        W69304  10.609  15.774   4.121
 2522W        W69305  16.661  41.651   0.012
 2523W        W69306   3.359  13.894   2.303
 2524W        W69307  10.285  28.003   3.421
 2525W        W69308   9.096  39.001  10.883
 2526W        W69309  41.478  28.589   4.027
 2527W        W69310  19.990  24.537   1.240
 2528W        W69311  35.851  30.062  13.976
 2529W        W69312  35.492  14.389  12.861
 2530W        W69313  34.512   5.277  14.387
 2531W        W69314   4.727  16.597  14.983
 2532W        W69315   7.257  36.107  13.342
 2533W        W69316   2.909  26.489  12.146
 2534W        W69317  14.818  11.943  12.978
 2535W        W69318  40.750   7.993   2.877
 2536W        W69319  21.531  36.594   2.257
 2537W        W69320  31.346  19.370   2.745
 2538W        W69321   7.144   7.472   3.748
 2539W        W69322  38.399  31.621   3.062
 2540W        W69323   0.725   0.305  11.391
 2541W        W69324   0.236  29.052  14.797
 2542W        W69325  35.960  34.426   3.733
 2543W        W69326  18.360  28.971  12.438
 2544W        W69327  26.701   7.690   2.837
 2545W        W69328  13.014  14.008  11.980
 2546W        W69329  44.824  36.962  12.418
 2547W        W69330   5.832   5.608  13.105
 2548W        W69331  12.604   7.270   1.743
 2549W        W69332  25.009  20.025   2.792
 2550W        W69333  10.809   5.799   4.195
 2551W        W69334  29.029  17.087   1.327
 2552W        W69335  44.933  32.159  11.390
 2553W        W69336  31.504   8.721   4.347
 2554W        W69337   0.547   7.544  10.282
 2555W        W69338  10.266  32.570   0.373
 2556W        W69339  26.286  18.536   2.887
 2557W        W69340   6.962   2.595   0.770
 2558W        W69341  26.714  11.178   2.834
 2559W        W69342  22.365   3.977   3.792
 2560W        W69343  37.997  36.201  13.480
 2561W        W69344   8.335  36.829  14.753
 2562W        W69345   5.987  38.996  13.570
 2563W        W69346  19.036   0.347  14.452
 2564W        W69347  35.878  16.726  13.969
 2565W        W69348  31.972  25.296   2.838
 2566W        W69349  42.346  12.916   3.579
 2567W        W69350  27.546  22.830   0.386
 2568W        W69351  12.533   1.017  11.120
 2569W        W69352  17.054   9.898  13.569
 2570W        W69353   8.419  32.088   4.837
 2571W        W69354  23.133  32.279  11.182
 2572W        W69355  25.904  38.519   9.809
 2573W        W69356  14.814   1.504   3.285
 2574W        W69357  38.000  34.841  14.582
 2575W        W69358  23.302   3.161   3.979
 2576W        W69359  37.315  30.064   4.607
 2577W        W69360  18.522  13.723   4.158
 2578W        W69361  44.084  22.021   2.357
 2579W        W69362   1.863  15.509  14.242
 2580W        W69363  10.163  44.816   2.268
 2581W        W69364  35.390  26.468  14.881
 2582W        W69365  23.947  24.126  12.599
 2583W        W69366  18.726   8.491   2.142
 2584W        W69367   6.125  17.177  11.276
 2585W        W69368  30.232  37.948  12.532
 2586W        W69369  23.878  30.059   0.982
 2587W        W69370  27.673  43.869   0.511
 2588W        W69371  43.929  36.161   4.136
 2589W        W69372  20.832   9.529   3.676
 2590W        W69373  29.203  30.927  12.581
 2591W        W69374  30.861  20.541  14.700
 2592W        W69375  26.814  17.158  11.702
 2593W        W69376   1.701  41.058   2.711
 2594W        W69377  24.061  34.475   4.091
 2595W        W69378  37.990  40.915  11.531
 2596W        W69379   1.226   8.109   0.027
 2597W        W69380  16.642   0.366   0.788
 2598W        W69381  30.093  22.806  12.739
 2599W        W69382  10.590  40.014  14.011
 2600W        W69383  39.987  17.813  14.260
 2601W        W69384  27.500  28.686   2.732
 2602W        W69385   3.762  24.308   4.364
 2603W        W69386  44.155  37.133  13.057
 2604W        W69387  41.501  43.384  10.713
 2605W        W69388  42.103  19.736  10.996
 2606W        W69389  32.639  36.189   4.066
 2607W        W69390   7.852  30.229  11.549
 2608W        W69391  42.718  31.903  10.384
 2609W        W69392   5.472   7.387  12.968
 2610W        W69393  21.668  29.496   0.187
 2611W        W69394   9.678  22.084  11.593
 2612W        W69395  13.403  29.468  11.173
 2613W        W69396  13.984   4.208  14.934
 2614W        W69397  15.801  33.288   2.445
 2615W        W69398   6.894   4.306  12.528
 2616W        W69399  18.140  19.136  10.588
 2617W        W69400  31.046  28.987   1.612
 2618W        W69401   1.916  29.183  14.461
 2619W        W69402  14.621  40.651  14.869
 2620W        W69403  39.924  41.020  13.094
 2621W        W69404   0.927  17.799  14.268
 2622W        W69405  15.883  32.016  13.099
 2623W        W69406  40.266  43.920   0.762
 2624W        W69407  25.578  44.376   2.702
 2625W        W69408  18.963  29.599   4.150
 2626W        W69409  26.650  18.591   3.278
 2627W        W69410  22.234  29.186   3.930
 2628W        W69411   3.561   0.800   4.789
 2629W        W69412  30.566  15.238  14.790
 2630W        W69413  36.054  14.264  11.250
 2631W        W69414  18.836  16.923   4.254
 2632W        W69415  16.411  44.401   0.986
 2633W        W69416   4.656  15.531  11.637
 2634W        W69417  19.517  30.017   1.936
 2635W        W69418  23.758  19.122  10.874
 2636W        W69419  12.544   9.303  12.748
 2637W        W69420  25.281  21.126   3.567
 2638W        W69421  37.760  11.612  12.458
 2639W        W69422   2.209  29.013   2.701
 2640W        W69423  14.295  25.925   2.217
 2641W        W69424  11.830  17.882   3.679
 2642W        W69425  30.131  33.497   4.748
 2643W        W69426  21.652  10.806  11.583
 2644W        W69427   2.430  24.470  13.540
 2645W        W69428  13.405  17.794  12.664
 2646W        W69429   7.783  28.906  12.098
 2647W        W69430  15.311  15.545   0.207
 2648W        W69431  22.005  25.959   1.826
 2649W        W69432  35.187  36.137  11.180
 2650W        W69433  39.985  44.287  11.116
 2651W        W69434  32.120  23.231   3.626
 2652W        W69435  23.722  13.935  14.956
 2653W        W69436  36.866  28.923   4.760
 2654W        W69437   6.387  25.187   3.210
 2655W        W69438   4.377  36.240   2.133
 2656W        W69439  30.844  39.754   1.014
 2657W        W69440  22.017  12.227   0.454
 2658W        W69441  34.306  20.116  12.448
 2659W        W69442  23.287  11.816  13.871
 2660W        W69443  40.490  30.468   1.406
 2661W        W69444  43.715   6.370  13.423
 2662W        W69445  21.578  13.243  12.823
 2663W        W69446  14.784  18.702  12.429
 2664W        W69447   2.514  40.952  12.930
 2665W        W69448   4.080  12.307   4.578
 2666W        W69449  26.544   9.088   1.335
 2667W        W69450  36.920   4.201   3.736
 2668W        W69451  16.883  44.009  14.156
 2669W        W69452   5.425  34.397  14.748
 2670W        W69453  22.219  36.473   0.807
 2671W        W69454   7.150  10.728  11.638
 2672W        W69455  28.570  34.603   1.950
 2673W        W69456  26.585  36.250   1.325
 2674W        W69457  13.394  16.597  11.585
 2675W        W69458  15.554   7.918  14.464
 2676W        W69459  30.455  41.470   0.629
 2677W        W69460  23.022   7.406   0.037
 2678W        W69461  13.046   4.510  14.942
 2679W        W69462  36.451   0.408  14.250
 2680W        W69463  41.247  10.632  11.123
 2681W        W69464  14.354  20.551   2.444
 2682W        W69465  42.028   4.346   3.666
 2683W        W69466  35.891  15.377  14.399
 2684W        W69467  13.355  24.570  11.488
 2685W        W69468  16.586  11.620   2.258
 2686W        W69469  44.808  28.175   3.708
 2687W        W69470  12.580  41.236  12.558
 2688W        W69471   4.282  43.045  13.163
 2689W        W69472  38.589  10.380  14.738
 2690W        W69473  12.812  41.762   0.505
 2691W        W69474  16.542  29.149  12.962
 2692W        W69475  22.214  25.624  14.918
 2693W        W69476   5.424  21.352   0.984
 2694W        W69477   4.931   0.284   4.838
 2695W        W69478  23.933  27.737  10.755
 2696W        W69479  10.825  19.510  10.446
 2697W        W69480  32.668  33.103  14.004
 2698W        W69481   0.789  44.882   1.224
 2699W        W69482   7.957   8.635  14.781
 2700W        W69483  23.569  10.299  10.662
 2701W        W69484  10.331  41.866   2.585
 2702W        W69485  29.184  24.113   2.797
 2703W        W69486  16.698  43.751  13.743
 2704W        W69487  39.190  23.450   5.110
 2705W        W69488  13.937  11.153   1.278
 2706W        W69489   3.756  44.253  12.668
 2707W        W69490  32.135  15.698  10.727
 2708W        W69491   4.653   1.414  11.998
 2709W        W69492  30.963   9.298  13.934
 2710W        W69493  33.898  42.562   4.602
 2711W        W69494  44.076  25.119   2.684
 2712W        W69495  36.066  40.159   1.889
 2713W        W69496  13.279  12.745  14.513
 2714W        W69497  21.654  25.045  13.427
 2715W        W69498  18.976   9.099  13.572
 2716W        W69499  36.413  18.094   1.334
 2717W        W69500  20.196  11.568  11.987
 2718W        W69501  29.605  36.990   2.941
 2719W        W69502  19.943  40.978   4.466
 2720W        W69503  23.496  27.285   3.680
 2721W        W69504  20.722  28.460   4.115
 2722W        W69505  16.329  27.446  12.422
 2723W        W69506  12.725  20.018  10.903
 2724W        W69507  16.212  20.493   3.751
 2725W        W69508  24.393  37.455  13.050
 2726W        W69509  13.848  24.666   0.504
 2727W        W69510   6.811   9.791   3.649
 2728W        W69511  25.433  25.959   3.369
 2729W        W69512   8.758  20.787  11.544
 2730W        W69513  31.781   4.380  11.448
 2731W        W69514  40.252  29.390   4.216
 2732W        W69515  12.384  42.836   3.634
 2733W        W69516  25.646   5.151   1.468
 2734W        W69517  34.892  13.592   4.319
 2735W        W69518  42.669  32.909  14.955
 2736W        W69519  18.830  33.103  11.999
 2737W        W69520  10.941  37.672   2.730
 2738W        W69521  24.920   1.073  11.196
 2739W        W69522  16.117  13.257   5.437
 2740W        W69523   7.861  25.334   5.006
 2741W        W69524  33.634  23.974  13.087
 2742W        W69525  39.332  16.697  13.396
 2743W        W69526  30.555  42.886   2.297
 2744W        W69527  27.197  34.142  14.891
 2745W        W69528  31.985  32.127  14.333
 2746W        W69529  12.801   2.367   0.233
 2747W        W69530  18.439   0.870  13.659
 2748W        W69531  42.447  18.196  11.147
 2749W        W69532  21.501  22.918  13.919
 2750W        W69533   0.075  20.747  12.903
 2751W        W69534  38.853  35.291   3.895
 2752W        W69535   3.502   4.341  14.001
 2753W        W69536   1.931  44.795   0.724
 2754W        W69537  42.439  37.433  12.360
 2755W        W69538  26.342  24.157  12.400
 2756W        W69539  37.369   7.250   4.169
 2757W        W69540  39.986  12.238   2.533
 2758W        W69541  23.322  32.780   2.776
 2759W        W69542  38.272   1.938  12.590
 2760W        W69543  39.206  21.345   0.980
 2761W        W69544  34.928  12.691   1.754
 2762W        W69545  30.642  17.863  11.473
 2763W        W69546  44.386  25.514   2.453
 2764W        W69547  12.194   2.306  12.768
 2765W        W69548  37.882  43.292   4.309
 2766W        W69549  36.885  14.748   0.768
 2767W        W69550   8.797  43.059  11.312
 2768W        W69551   4.184  36.138   3.271
 2769W        W69552  38.882  13.191  13.831
 2770W        W69553  42.097  36.906   4.589
 2771W        W69554  33.423   5.679   0.984
 2772W        W69555  31.721  43.819  14.534
 2773W        W69556  14.053  29.580   1.735
 2774W        W69557  25.537  25.272  14.350
 2775W        W69558  38.444  14.352   4.692
 2776W        W69559  19.998  41.052   3.665
 2777W        W69560  10.746  19.925   4.547
 2778W        W69561  27.120  41.813   5.201
 2779W        W69562  26.672   2.900   0.310
 2780W        W69563  38.562  31.892  11.524
 2781W        W69564  38.490  18.292   1.704
 2782W        W69565  37.768  18.188   3.051
 2783W        W69566  17.980  42.998  12.546
 2784W        W69567  24.982  15.282  14.020
 2785W        W69568  29.030  40.691   3.288
 2786W        W69569  30.461  42.507  14.389
 2787W        W69570  23.104   5.338  12.600
 2788W        W69571   5.240  36.264  13.859
 2789W        W69572   4.101   4.290   4.904
 2790W        W69573  36.052   2.678  12.215
 2791W        W69574   2.229  38.543   0.438
 2792W        W69575  23.009  28.104   3.907
 2793W        W69576  25.860   0.575  13.401
 2794W        W69577  34.818  11.841  11.466
 2795W        W69578  43.585  21.069   4.661
 2796W        W69579  39.846   2.079   2.065
 2797W        W69580  12.210  36.571   3.938
 2798W        W69581   4.592  16.792   2.925
 2799W        W69582  25.710   1.598  13.342
 2800W        W69583  36.890  23.666   0.232
 2801W        W69584  29.198  36.008  11.203
 2802W        W69585  38.514   6.735   2.378
 2803W        W69586  19.184  25.801   3.232
 2804W        W69587  11.749   5.522  12.026
 2805W        W69588  21.337  43.584   1.907
 2806W        W69589  22.003  32.477  12.028
 2807W        W69590   3.710  17.611   2.824
 2808W        W69591  14.314   3.538   3.782
 2809W        W69592  10.333  10.599  12.657
 2810W        W69593   8.124  44.605   0.945
 2811W        W69594  26.340  27.809  14.761
 2812W        W69595   1.388  36.956  12.552
 2813W        W69596   1.275  36.979  14.453
 2814W        W69597  26.174  28.150  11.073
 2815W        W69598  39.431   1.770   4.395
 2816W        W69599  10.583  44.878  11.178
 2817W        W69600  36.992  14.093   3.445
 2818W        W69601  24.966  28.933   0.434
 2819W        W69602  40.320  36.525   3.706
 2820W        W69603  35.466   6.774   2.295
 2821W        W69604  20.651  16.099  13.956
 2822W        W69605  25.967  13.186  14.415
 2823W        W69606   8.198  19.972  14.798
 2824W        W69607  18.115  43.058  11.166
 2825W        W69608   7.241  44.520  13.594
 2826W        W69609   4.696   5.608   3.397
 2827W        W69610  35.758  17.613  14.192
 2828W        W69611  22.598  31.263   2.685
 2829W        W69612   5.865  24.985  14.396
 2830W        W69613   1.438  19.617  12.351
 2831W        W69614   2.661   8.702   4.668
 2832W        W69615   1.457   3.247  11.103
 2833W        W69616  39.688  42.291   2.589
 2834W        W69617   0.362  10.574  10.406
 2835W        W69618  19.124  38.436   3.693
 2836W        W69619  31.915   7.060  14.557
 2837W        W69620  44.447  41.899  13.809
 2838W        W69621  19.162   1.686  12.572
 2839W        W69622  14.902   1.842  10.351
 2840W        W69623  19.047   4.483   2.642
 2841W        W69624   4.890   2.249  10.717
 2842W        W69625  29.486  18.682  13.639
 2843W        W69626   0.372  39.436   3.854
 2844W        W69627  24.730  18.262   0.315
 2845W        W69628  18.207  27.531   3.365
 2846W        W69629  17.124  25.482  14.434
 2847W        W69630  15.538  20.318  11.504
 2848W        W69631  34.496  10.771   0.937
 2849W        W69632  14.176  14.686  10.716
 2850W        W69633  21.627  23.227   0.470
 2851W        W69634   1.884  20.623  13.798
 2852W        W69635  26.721  42.470  14.269
 2853W        W69636  23.051  39.697   4.530
 2854W        W69637  27.659  33.998   2.215
 2855W        W69638  17.047  16.716  14.334
 2856W        W69639  41.065  26.935  13.851
 2857W        W69640   9.765  32.992  14.851
 2858W        W69641  27.277  23.999  12.532
 2859W        W69642  14.014  30.638  12.864
 2860W        W69643  22.989  38.667  14.379
 2861W        W69644  23.726  38.916   4.173
 2862W        W69645  17.194  35.000  10.434
 2863W        W69646  37.817  18.092   0.688
 2864W        W69647  16.664  42.994   0.909
 2865W        W69648   5.597   6.267  12.449
 2866W        W69649  36.280   0.003   1.950
 2867W        W69650   4.794   2.512   1.286
 2868W        W69651  15.999  34.623   3.681
 2869W        W69652  36.756  15.554   3.236
 2870W        W69653  22.696   9.654  11.449
 2871W        W69654  14.427  18.077  10.436
 2872W        W69655  31.197  18.473  13.019
 2873W        W69656  36.899  22.991   3.821
 2874W        W69657  15.539  30.887   0.423
 2875W        W69658  31.654  24.708  14.569
 2876W        W69659  24.430   9.640   4.054
 2877W        W69660  29.618  29.834  13.383
 2878W        W69661   7.833   8.646  13.121
 2879W        W69662   5.277  33.178  10.560
 2880W        W69663   9.734  19.849  13.211
 2881W        W69664   0.830  42.361  13.792
 2882W        W69665  21.310  27.159   9.841
 2883W        W69666   6.732  23.044  14.903
 2884W        W69667  28.204  38.052  14.442
 2885W        W69668  36.018  12.302  14.393
 2886W        W69669  16.700  12.698  11.344
 2887W        W69670  16.814   8.644   0.691
 2888W        W69671  22.539  17.825   1.418
 2889W        W69672  14.096   1.935   2.420
 2890W        W69673  11.956  20.268   0.811
 2891W        W69674   7.907  38.774   4.275
 2892W        W69675  20.829  27.542  14.847
 2893W        W69676   7.794  15.352  12.060
 2894W        W69677  31.778  39.602  11.153
 2895W        W69678   2.880   7.741  12.080
 2896W        W69679  30.097  30.896  11.464
 2897W        W69680  24.488  39.416  13.814
 2898W        W69681   3.286  14.199   4.621
 2899W        W69682  34.625  10.828  11.982
 2900W        W69683  22.618  33.156   4.868
 2901W        W69684  44.474  41.571  10.525
 2902W        W69685   0.970  24.565   4.590
 2903W        W69686  34.578  40.708  13.927
 2904W        W69687   2.979  28.345  11.053
 2905W        W69688  35.995  15.721   0.305
 2906W        W69689   8.132   3.481  11.448
 2907W        W69690   1.297  23.627   2.786
 2908W        W69691  42.256   6.733  14.713
 2909W        W69692  19.356  16.704   1.232
 2910W        W69693   7.971  29.000   1.033
 2911W        W69694  35.656  38.079  14.110
 2912W        W69695  30.899  13.507   0.863
 2913W        W69696  37.507  11.706   2.318
 2914W        W69697  17.046  34.168   4.142
 2915W        W69698  33.123  36.580  13.866
 2916W        W69699  31.645   9.845   2.727
 2917W        W69700  13.369  36.044  12.150
 2918W        W69701  41.316  36.048  14.866
 2919W        W69702  28.657  27.954  10.845
 2920W        W69703  32.919  23.767  12.112
 2921W        W69704  40.347  11.715   4.334
 2922W        W69705  20.278  36.616  11.119
 2923W        W69706  43.015  44.001  11.095
 2924W        W69707  42.449   8.019   0.230
 2925W        W69708  10.924  13.680  12.483
 2926W        W69709   2.369  34.740   0.956
 2927W        W69710  35.136  43.213  10.115
 2928W        W69711   2.186  34.432   0.164
 2929W        W69712  11.677   0.473  11.979
 2930W        W69713  23.736  14.191  14.132
 2931W        W69714   1.547  11.582  12.631
 2932W        W69715  17.275  23.062   1.496
 2933W        W69716  15.364  17.749  12.083
 2934W        W69717   1.396  11.353  11.428
 2935W        W69718  19.090   6.707   3.273
 2936W        W69719  38.436  42.996  14.814
 2937W        W69720   9.964  14.925  11.779
 2938W        W69721   8.665  16.223  13.077
 2939W        W69722   4.463  11.135  11.881
 2940W        W69723   2.873  12.474   4.161
 2941W        W69724  13.398  33.886   4.318
 2942W        W69725  19.916  29.915  11.488
 2943W        W69726   2.593  35.548   3.334
 2944W        W69727   8.216  14.845   4.632
 2945W        W69728   8.274  24.515   3.731
 2946W        W69729  27.216  30.839  14.830
 2947W        W69730   4.789  35.543  14.364
 2948W        W69731  39.752  27.148  10.826
 2949W        W69732   3.361   0.536  11.565
 2950W        W69733   5.883  11.838   0.933
 2951W        W69734   2.574   8.852   0.654
 2952W        W69735   5.307  23.333  13.843
 2953W        W69736   8.452  15.354   4.525
 2954W        W69737  16.308  36.780  13.749
 2955W        W69738   9.177  10.262  13.844
 2956W        W69739   5.382  26.221   2.280
 2957W        W69740  43.347   2.829  13.260
 2958W        W69741  34.495  43.403  12.871
 2959W        W69742  38.086  44.987  12.872
 2960W        W69743  34.202   5.350   9.607
 2961W        W69744  36.872   1.763  12.782
 2962W        W69745  19.740  29.674  13.727
 2963W        W69746  40.462  20.481   4.758
 2964W        W69747  19.572  35.362   1.183
 2965W        W69748  41.142  24.261  13.711
 2966W        W69749   8.852  22.047   2.975
 2967W        W69750  37.496   7.730  13.011
 2968W        W69751  33.127   9.390  13.066
 2969W        W69752  44.976  21.828  12.019
 2970W        W69753  43.823  17.375   3.680
 2971W        W69754   7.389  32.753   4.260
 2972W        W69755  15.236  23.204   1.227
 2973W        W69756   2.719  32.115   1.262
 2974W        W69757  20.989  31.941  14.432
 2975W        W69758  15.705  18.295   1.020
 2976W        W69759  12.817  27.461   0.251
 2977W        W69760  12.862  10.686   4.584
 2978W        W69761  19.589   3.202   1.675
 2979W        W69762  26.570  16.653   2.878
 2980W        W69763  21.036  17.647   0.323
 2981W        W69764   6.451  39.389  12.014
 2982W        W69765  31.502  18.703  14.426
 2983W        W69766  31.353  21.625  13.266
 2984W        W69767  18.652  44.812  13.555
 2985W        W69768  39.540   9.160   2.333
 2986W        W69769  19.898   4.376  14.985
 2987W        W69770  20.600   9.069   3.653
 2988W        W69771  39.737   1.522   3.685
 2989W        W69772  37.371   4.447  13.541
 2990W        W69773  35.910  14.865  12.895
 2991W        W69774  37.568  22.498  11.246
 2992W        W69775   4.763  19.001   3.295
 2993W        W69776   4.421  15.539   2.411
 2994W        W69777  10.359  20.670  13.014
 2995W        W69778  39.090   3.134   1.089
 2996W        W69779  25.646  41.357  12.166
 2997W        W69780  12.374  29.075  13.931
 2998W        W69781  44.529  39.262   4.028
 2999W        W69782  36.191   6.510  11.589
 3000W        W69783   9.441  19.067   1.160
 3001W        W69784   2.661  10.844   2.909
 3002W        W69785  17.689  41.340   3.659
 3003W        W69786   4.869  26.931  12.042
 3004W        W69787  10.136  37.395  14.803
 3005W        W69788   1.493  30.635  11.537
 3006W        W69789  28.480  10.196   1.561
 3007W        W69790  22.936  37.555  13.827
 3008W        W69791  12.250   9.628  11.982
 3009W        W69792  27.221  33.653   1.390
 3010W        W69793  21.860  15.633   3.284
 3011W        W69794  25.491  29.146   2.362
 3012W        W69795  42.331   0.214  11.198
 3013W        W69796   6.644   0.323  12.997
 3014W        W69797  11.239  18.745  10.802
 3015W        W69798  14.636   8.187   1.691
 3016W        W69799  38.326   2.945   0.057
 3017W        W69800  30.873  20.039  12.405
 3018W        W69801  16.779   9.463  14.354
 3019W        W69802  35.730  16.744  14.524
 3020W        W69803  10.839   4.662   2.383
 3021W        W69804  24.196  17.211  13.456
 3022W        W69805  11.691   0.785   2.256
 3023W        W69806  25.158  20.627   0.927
 3024W        W69807  43.740  28.683   5.036
 3025W        W69808  15.608  15.201  10.989
 3026W        W69809  18.745  23.148   4.735
 3027W        W69810  19.568   1.236  10.716
 3028W        W69811  38.448  13.587  14.475
 3029W        W69812  31.458  31.711   3.730
 3030W        W69813  36.892  10.403   0.796
 3031W        W69814  41.523  21.514   2.613
 3032W        W69815  31.625  31.621  11.055
 3033W        W69816  20.538  17.820   2.820
 3034W        W69817  21.494   0.880  14.985
 3035W        W69818  42.838  32.992  11.122
 3036W        W69819  13.345  13.600   3.602
 3037W        W69820  38.893  29.454   3.782
 3038W        W69821  25.447  41.970   0.358
 3039W        W69822  25.152  19.584  14.521
 3040W        W69823  11.355   4.723  13.454
 3041W        W69824  36.253  30.514  10.733
 3042W        W69825  42.926  33.671  12.143
 3043W        W69826  28.021   2.287   4.408
 3044W        W69827  26.399  15.229  14.042
 3045W        W69828   0.753   1.315  11.835
 3046W        W69829  14.465  37.568  12.667
 3047W        W69830   0.037  19.360   1.142
 3048W        W69831   3.439  33.329  12.476
 3049W        W69832  25.618   0.526  10.666
 3050W        W69833   9.640  39.264   1.230
 3051W        W69834  40.526  42.049  11.066
 3052W        W69835  41.249   9.754   3.450
 3053W        W69836  10.911   5.294  13.846
 3054W        W69837  30.193   3.803  14.041
 3055W        W69838  39.068   4.214   3.704
 3056W        W69839  21.288  18.746   3.174
 3057W        W69840  25.693  30.142   1.226
 3058W        W69841  17.585  42.432  10.696
 3059W        W69842  35.465  33.697  10.631
 3060W        W69843  19.671  31.197  13.666
 3061W        W69844   4.736   8.092  11.108
 3062W        W69845  35.494   4.896  12.939
 3063W        W69846  19.468  29.256  13.820
 3064W        W69847  23.541  39.789  13.885
 3065W        W69848  29.573  11.605   2.104
 3066W        W69849   7.253  30.895   0.165
 3067W        W69850  33.422  22.249   4.046
 3068W        W69851  19.890   0.429  11.938
 3069W        W69852  29.697   6.345   4.469
 3070W        W69853  43.041  17.107  10.594
 3071W        W69854  31.700   8.713  11.075
 3072W        W69855  40.404  14.679   0.229
 3073W        W69856  38.919   2.370  10.875
 3074W        W69857  33.892   6.577  14.246
 3075W        W69858  40.995  29.285   2.316
 3076W        W69859  16.650   4.055   0.974
 3077W        W69860  12.157   6.893  13.589
 3078W        W69861  44.741  44.510   3.838
 3079W        W69862  37.410   0.220  10.699
 3080W        W69863  22.171  25.775  12.168
 3081W        W69864  36.018  25.106  10.639
 3082W        W69865   9.246  17.330  13.528
 3083W        W69866  24.921  11.622   3.272
 3084W        W69867  43.775  17.113  11.072
 3085W        W69868  28.366  15.875  10.972
 3086W        W69869  38.471  12.618  11.488
 3087W        W69870  41.658   6.229  14.504
 3088W        W69871  17.305  18.585  10.528
 3089W        W69872  39.527  12.079   3.770
 3090W        W69873  41.330  29.875  14.375
 3091W        W69874  28.685  10.202   0.548
 3092W        W69875  34.707  43.734  14.265
 3093W        W69876  27.161  22.093   3.415
 3094W        W69877  13.684  32.423   3.221
 3095W        W69878  23.132  15.003  12.870
 3096W        W69879  16.056  34.200   1.076
 3097W        W69880  15.139  41.961   2.989
 3098W        W69881   7.631  19.524   1.339
 3099W        W69882  31.031  42.772  14.026
 3100W        W69883   9.391  25.653  12.092
 3101W        W69884   5.421  38.765  12.060
 3102W        W69885   4.286   4.200  14.729
 3103W        W69886   9.246  23.960   1.650
 3104W        W69887   7.678  18.645   0.396
 3105W        W69888  28.700  43.940   4.724
 3106W        W69889  14.298  10.298   2.287
 3107W        W69890   4.068  18.726  11.589
 3108W        W69891  27.704   2.707  10.802
 3109W        W69892  27.766  18.088  13.129
 3110W        W69893  11.229   4.055  14.721
 3111W        W69894  20.213  39.598   4.619
 3112W        W69895   9.209  22.982  10.416
 3113W        W69896  33.217   6.816  12.935
 3114W        W69897  10.052   0.378   9.848
 3115W        W69898  31.498  32.142   4.380
 3116W        W69899   0.574  23.961  12.923
 3117W        W69900   8.023   8.716   2.333
 3118W        W69901  29.976  29.157   4.038
 3119W        W69902  20.092  15.847   5.494
 3120W        W69903  19.248  39.984   2.170
 3121W        W69904  40.277  39.066  13.713
 3122W        W69905  33.531   0.898  14.863
 3123W        W69906  16.586  32.322  14.710
 3124W        W69907  21.611  24.369   5.023
 3125W        W69908  22.995  35.294   1.273
 3126W        W69909  16.225  17.659   1.425
 3127W        W69910  15.325  30.410   0.309
 3128W        W69911  26.460  24.098   2.277
 3129W        W69912   0.584  26.551   0.876
 3130W        W69913  10.143   8.792   3.295
 3131W        W69914  22.107  34.571   1.861
 3132W        W69915  30.128  29.506   1.695
 3133W        W69916   5.322  24.596   3.705
 3134W        W69917  11.196   0.780   0.397
 3135W        W69918  36.397  25.705  12.181
 3136W        W69919  37.326  35.951   2.226
 3137W        W69920  25.371  26.523  13.829
 3138W        W69921  15.621  17.682   0.252
 3139W        W69922   0.839  39.714   0.779
 3140W        W69923  25.260  25.081   2.404
 3141W        W69924  21.708  14.878  11.911
 3142W        W69925  14.663   7.670   2.656
 3143W        W69926  39.976  39.258   0.697
 3144W        W69927  44.500  21.628  11.988
 3145W        W69928   0.959  31.937  10.743
 3146W        W69929   2.956  16.327   0.417
 3147W        W69930   0.548   3.397   1.281
 3148W        W69931   8.347  38.392   3.097
 3149W        W69932  16.596  13.741   4.141
 3150W        W69933  44.766  27.626  12.998
 3151W        W69934   0.988  10.097  14.014
 3152W        W69935  42.444  32.197   0.627
 3153W        W69936  35.968  21.742   0.642
 3154W        W69937  14.699   0.869   4.528
 3155W        W69938  40.300  30.108   0.188
 3156W        W69939  33.657  13.747  13.385
 3157W        W69940  35.824   0.877  10.963
 3158W        W69941  25.249  23.108   0.040
 3159W        W69942  10.289  17.702   4.215
 3160W        W69943  10.854  33.370  11.923
 3161W        W69944  25.097  23.932  14.413
 3162W        W69945  24.099  20.322  14.818
 3163W        W69946  38.534  33.841   3.281
 3164W        W69947   0.324  32.387  11.149
 3165W        W69948  31.031   0.368   0.028
 3166W        W69949  44.032  42.919  11.669
 3167W        W69950  10.753  25.622  13.490
 3168W        W69951   2.327  31.507   4.787
 3169W        W69952   1.513  14.741   1.791
 3170W        W69953  41.306  31.497   3.428
 3171W        W69954   4.456  21.517  14.381
 3172W        W69955  18.008   1.195  14.767
 3173W        W69956  20.000  25.025   3.794
 3174W        W69957  25.978  25.900   3.566
 3175W        W69958  15.586  12.088  13.437
 3176W        W69959  41.095  20.228   3.356
 3177W        W69960  23.011   6.820  13.819
 3178W        W69961   1.402   8.649  11.987
 3179W        W69962  38.644   7.362   3.689
 3180W        W69963  12.881  38.458   1.924
 3181W        W69964  11.449  34.450  13.093
 3182W        W69965  30.344  21.770   4.226
 3183W        W69966  11.336  18.247   4.595
 3184W        W69967   7.867  24.423   4.788
 3185W        W69968  12.614  18.848  14.490
 3186W        W69969   4.036  23.581  10.377
 3187W        W69970   9.662  24.188  13.922
 3188W        W69971  39.740  19.709   1.852
 3189W        W69972  34.855  14.562  12.096
 3190W        W69973  10.090   1.374  11.571
 3191W        W69974  35.995  21.230  11.998
 3192W        W69975  42.739  17.657   3.720
 3193W        W69976  32.451   7.744   3.584
 3194W        W69977  21.601  11.194   3.424
 3195W        W69978   0.847  39.630   4.615
 3196W        W69979  34.888  12.333  11.675
 3197W        W69980  38.800   4.218  13.183
 3198W        W69981  37.328   5.426  14.736
 3199W        W69982  29.010  33.598   0.739
 3200W        W69983  36.483  19.806   0.295
 3201W        W69984   0.877  30.104  12.447
 3202W        W69985  20.138  13.460   2.463
 3203W        W69986   9.345  14.926  14.481
 3204W        W69987  32.761  21.491  11.721
 3205W        W69988  14.670  40.508  14.345
 3206W        W69989  15.412  19.485  12.462
 3207W        W69990  36.445  13.834   2.151
 3208W        W69991   8.101  44.273   2.715
 3209W        W69992  20.262  22.119   1.224
 3210W        W69993  14.149  16.434   1.885
 3211W        W69994  36.293   9.351  13.515
 3212W        W69995   3.537  42.595  11.570
 3213W        W69996  43.767  26.532  12.576
 3214W        W69997  31.866  25.139  14.349
 3215W        W69998  37.597  23.399  13.456
 3216W        W69999  43.265  23.344   0.837
 3217W        W70000   3.376  30.000  14.419
 3218W        W70001  18.987  25.228  14.767
 3219W        W70002  15.711  30.988   0.945
 3220W        W70003  33.014  43.404   2.284
 3221W        W70004   5.337   8.732   3.327
 3222W        W70005  23.568  26.457  13.911
 3223W        W70006   4.147  16.080  11.701
 3224W        W70007  35.803  28.103   1.991
 3225W        W70008  22.085  41.259  13.358
 3226W        W70009  18.468  25.135  14.742
 3227W        W70010   8.580  34.947  14.436
 3228W        W70011  11.768  30.409  11.634
 3229W        W70012  16.818  19.304  13.988
 3230W        W70013   9.882  13.721   4.118
 3231W        W70014  27.627  20.217  10.690
 3232W        W70015  24.581  11.781   0.816
 3233W        W70016  19.509  22.489  11.256
 3234W        W70017  28.642  38.889   3.388
 3235W        W70018  21.195  42.385   4.307
 3236W        W70019  13.341  20.668  11.920
 3237W        W70020  44.031  43.483  11.904
 3238W        W70021  36.991   3.418  11.069
 3239W        W70022  33.661  25.471  13.903
 3240W        W70023  36.642  22.641  13.978
 3241W        W70024   1.387  20.689  14.012
 3242W        W70025  35.128  20.703  14.748
 3243W        W70026  17.235  30.356  11.679
 3244W        W70027  42.800  39.539  14.903
 3245W        W70028  42.958  27.968  14.488
 3246W        W70029   3.897  35.982   0.745
 3247W        W70030  25.216  29.434   4.199
 3248W        W70031  15.079  18.216   0.304
 3249W        W70032  29.373  41.850  11.992
 3250W        W70033   8.366  26.543   0.597
 3251W        W70034  11.080  19.518  13.101
 3252W        W70035   2.322  10.665  12.923
 3253W        W70036  27.035   8.033   4.094
 3254W        W70037  22.258  26.197   1.447
 3255W        W70038  16.287  33.076  13.468
 3256W        W70039  39.033  40.016  13.887
 3257W        W70040  40.101  40.741  14.983
 3258W        W70041   9.066  28.317   2.747
 3259W        W70042  16.739  20.574  11.516
 3260W        W70043  24.620  40.594  12.125
 3261W        W70044  30.005  32.600   2.279
 3262W        W70045  19.226  24.031   3.793
 3263W        W70046   1.749  10.078   1.235
 3264W        W70047  41.383  21.586   1.671
 3265W        W70048  17.396  19.768   1.933
 3266W        W70049  17.578  14.270   0.658
 3267W        W70050  33.873   5.596  12.026
 3268W        W70051  27.571  11.133  13.938
 3269W        W70052  35.330  15.811  13.951
 3270W        W70053  29.374  24.041  13.118
 3271W        W70054  33.995   0.901   0.113
 3272W        W70055  17.229  11.448   3.913
 3273W        W70056  33.537  21.397  11.179
 3274W        W70057   0.802  39.409  13.499
 3275W        W70058  15.744  32.099   2.812
 3276W        W70059  34.007  32.379   2.325
 3277W        W70060  25.070  23.566  14.790
 3278W        W70061  23.918  31.994   3.076
 3279W        W70062  23.961  29.147  13.148
 3280W        W70063  25.989  41.538  12.511
 3281W        W70064  26.043   9.591   0.639
 3282W        W70065  21.059  30.942  11.037
 3283W        W70066  39.133  44.353  10.237
 3284W        W70067  25.035  17.360  11.417
 3285W        W70068  25.769  29.539  14.769
 3286W        W70069  37.956  33.840   2.883
 3287W        W70070  32.104   9.192  13.077
 3288W        W70071   1.564  42.760  11.537
 3289W        W70072  42.813  43.449  14.466
 3290W        W70073   3.668  17.284   4.688
 3291W        W70074  17.280  35.940   3.704
 3292W        W70075  35.849  41.396  14.103
 3293W        W70076   2.787   5.335   0.906
 3294W        W70077  29.469  26.976   3.770
 3295W        W70078   3.966  34.458  13.040
 3296W        W70079  31.779   0.285   1.149
 3297W        W70080  27.015  14.575  13.929
 3298W        W70081  20.632  30.503  11.780
 3299W        W70082  15.494  37.176   2.666
 3300W        W70083  29.274   5.034   3.119
 3301W        W70084   4.104  11.327  11.121
 3302W        W70085  28.036   8.750  14.858
 3303W        W70086  29.481  27.065  11.936
 3304W        W70087  18.666   2.205   0.304
 3305W        W70088  13.788  39.828   2.945
 3306W        W70089  29.555  34.128  11.563
 3307W        W70090  36.558  11.062   3.689
 3308W        W70091  10.458  28.444  14.539
 3309W        W70092  23.784  19.644   2.672
 3310W        W70093   0.870  38.678   4.318
 3311W        W70094  12.754  43.175  13.097
 3312W        W70095  23.070  25.008   0.748
 3313W        W70096   9.246  35.295  13.841
 3314W        W70097  23.534  21.003   3.179
 3315W        W70098   6.980  30.960  14.528
 3316W        W70099  31.647  30.579   4.429
 3317W        W70100   5.881   7.464  14.775
 3318W        W70101  22.560  25.124  12.118
 3319W        W70102  10.427   0.240  12.558
 3320W        W70103  24.248   2.021  10.320
 3321W        W70104   4.470  30.053   3.696
 3322W        W70105   3.842  40.334   3.694
 3323W        W70106  29.651   3.572   3.371
 3324W        W70107   7.663  41.425   0.437
 3325W        W70108  28.185   5.458  11.111
 3326W        W70109  39.101  33.113  10.667
 3327W        W70110  14.191  28.571   1.766
 3328W        W70111  15.227  38.492   1.313
 3329W        W70112  33.963  33.983   1.212
 3330W        W70113  26.432   8.799   2.660
 3331W        W70114  11.213   3.192  13.048
 3332W        W70115  35.606  22.699  14.874
 3333W        W70116  31.160   8.380   2.717
 3334W        W70117  28.525  39.429  13.273
 3335W        W70118  20.776  32.879  14.334
 3336W        W70119   3.640   0.771  12.442
 3337W        W70120  34.855   9.849   3.527
 3338W        W70121   9.817  30.936   4.539
 3339W        W70122  22.485  29.159  14.972
 3340W        W70123  38.052  40.698   3.935
 3341W        W70124  31.113  32.044   2.097
 3342W        W70125  38.942  20.971   4.508
 3343W        W70126  29.283   7.278   3.209
 3344W        W70127  34.711  21.318  11.176
 3345W        W70128   4.902  20.587  11.077
 3346W        W70129  18.595  18.051  13.355
 3347W        W70130  43.436  30.777  14.744
 3348W        W70131   4.850  20.257   2.780
 3349W        W70132  41.529  18.642   1.436
 3350W        W70133  19.577  14.230   1.780
 3351W        W70134  20.350  20.711   2.998
 3352W        W70135  18.832   0.835   1.944
 3353W        W70136  30.950   4.167   1.207
 3354W        W70137  14.744  34.894  13.900
 3355W        W70138   2.797  34.353  14.496
 3356W        W70139  41.132  17.115  13.436
 3357W        W70140   4.033  19.059   1.742
 3358W        W70141  33.943   1.345  14.214
 3359W        W70142  40.834  38.972   3.897
 3360W        W70143  28.145  25.645  12.402
 3361W        W70144   7.151  43.436  12.348
 3362W        W70145  30.462  12.918   1.407
 3363W        W70146  11.175  30.710   0.763
 3364W        W70147  14.752  34.714   0.286
 3365W        W70148   6.165   2.667   1.271
 3366W        W70149  19.118   9.851  13.028
 3367W        W70150  40.157  23.843  10.295
 3368W        W70151  10.727  11.643  12.022
 3369W        W70152  30.561   4.200  10.614
 3370W        W70153  34.952  36.333   4.345
 3371W        W70154  26.425  11.848   4.202
 3372W        W70155  24.451  33.587   3.716
 3373W        W70156  37.913  21.596   3.661
 3374W        W70157  10.345  17.191   3.082
 3375W        W70158  40.553  32.051  11.613
 3376W        W70159  26.638   0.757   2.208
 3377W        W70160  26.784   8.264  13.823
 3378W        W70161  43.693  16.615  13.125
 3379W        W70162  42.327  44.201   3.555
 3380W        W70163   7.897  37.295   0.406
 3381W        W70164  12.899  29.087  13.949
 3382W        W70165  24.597  42.886   4.201
 3383W        W70166  33.073  30.597  10.758
 3384W        W70167  12.190   0.300   4.418
 3385W        W70168  30.732  12.918  11.111
 3386W        W70169  42.808  21.283   1.452
 3387W        W70170  38.738  23.016  14.337
 3388W        W70171  32.239  33.805   3.019
 3389W        W70172  25.131  18.534   4.713
 3390W        W70173  36.776  38.995  10.736
 3391W        W70174  10.873   4.771   1.293
 3392W        W70175  37.478  43.434  11.564
 3393W        W70176  33.156  38.492   3.838
 3394W        W70177  28.922  26.277  14.432
 3395W        W70178  25.060  25.981  14.187
 3396W        W70179  15.375  40.920   3.794
 3397W        W70180  23.909  13.736  13.362
 3398W        W70181   9.833   5.222   2.167
 3399W        W70182   8.754  20.347   4.122
 3400W        W70183  10.398  20.986   0.782
 3401W        W70184  11.256  35.880   1.561
 3402W        W70185  14.393  41.243  10.734
 3403W        W70186   2.522   8.841   3.615
 3404W        W70187  32.457  29.820  10.718
 3405W        W70188   7.892   4.086  11.200
 3406W        W70189   0.420  28.654  12.680
 3407W        W70190   4.133  11.249  14.770
 3408W        W70191  16.213  23.693   2.081
 3409W        W70192  24.584  41.174  14.517
 3410W        W70193  17.969   4.278  14.817
 3411W        W70194  41.643  13.155  11.207
 3412W        W70195  25.977  36.160  14.407
 3413W        W70196  33.729  13.732   1.908
 3414W        W70197  28.521  42.780  11.064
 3415W        W70198  44.139  44.944  12.873
 3416W        W70199  26.527  11.673  14.860
 3417W        W70200  14.209   1.434   1.927
 3418W        W70201  43.533  27.247   3.456
 3419W        W70202  32.006  13.111   4.064
 3420W        W70203   5.473   4.308  12.890
 3421W        W70204  32.954  11.393  13.766
 3422W        W70205   0.980  15.511   3.114
 3423W        W70206  17.056  20.772  12.413
 3424W        W70207  36.762  42.292   1.496
 3425W        W70208   3.212   0.371  12.420
 3426W        W70209  43.432   5.787   4.053
 3427W        W70210  22.457  26.614  11.134
 3428W        W70211   5.966  22.403  11.423
 3429W        W70212  33.818  10.630   5.052
 3430W        W70213  33.414  13.519   3.667
 3431W        W70214  39.893  42.706   4.987
 3432W        W70215  37.070  29.933   1.853
 3433W        W70216  14.284  23.264  11.902
 3434W        W70217  39.426  24.965  14.856
 3435W        W70218  31.631   4.161  14.258
 3436W        W70219  38.222  12.091  12.942
 3437W        W70220  36.959   1.968   4.584
 3438W        W70221   0.432   8.441   2.754
 3439W        W70222  16.685  15.756  13.268
 3440W        W70223  41.913   0.760  14.975
 3441W        W70224  43.332  44.845   2.812
 3442W        W70225  34.506  41.988  11.195
 3443W        W70226  21.547  23.244  11.446
 3444W        W70227   8.746  20.803   3.864
 3445W        W70228  39.773  10.325   2.469
 3446W        W70229  41.842   0.306   2.215
 3447W        W70230  21.853  23.690  11.382
 3448W        W70231  37.347  15.930   1.772
 3449W        W70232   5.675   9.805  13.002
 3450W        W70233  13.028  24.267  14.108
 3451W        W70234  12.067  29.130  14.390
 3452W        W70235   1.655  11.767  12.167
 3453W        W70236  24.002  16.092  12.019
 3454W        W70237  14.735  10.170   3.064
 3455W        W70238  37.443  12.143   4.001
 3456W        W70239   6.021   2.499  14.890
 3457W        W70240  44.475   6.245  10.906
 3458W        W70241  24.624  21.577  12.629
 3459W        W70242  36.544  34.033   0.951
 3460W        W70243  27.207  36.461  14.830
 3461W        W70244  19.031  34.170   4.193
 3462W        W70245  29.411  43.389   0.303
 3463W        W70246  29.365  14.207  12.953
 3464W        W70247  23.944  26.159   3.452
 3465W        W70248   9.417  14.316  11.424
 3466W        W70249  17.328  34.536   0.206
 3467W        W70250  14.023  33.353   4.273
 3468W        W70251  30.945  36.564  12.910
 3469W        W70252  15.056  23.797   4.144
 3470W        W70253  33.678  25.522   1.199
 3471W        W70254  37.186   8.175   5.101
 3472W        W70255  12.300  18.731  14.067
 3473W        W70256  37.350  26.112  10.561
 3474W        W70257  42.904  44.740  10.619
 3475W        W70258  38.550  18.097  11.686
 3476W        W70259  34.097  38.229  11.194
 3477W        W70260   0.962  44.838   3.113
 3478W        W70261   0.932  17.353  11.241
 3479W        W70262  10.604  24.241   0.422
 3480W        W70263  38.393  32.433   4.160
 3481W        W70264  40.900  40.063  11.525
 3482W        W70265  10.545  33.932   0.419
 3483W        W70266  27.187  29.309  13.148
 3484W        W70267  36.184  10.826   3.431
 3485W        W70268  39.526   8.915  11.632
 3486W        W70269  10.111   6.796  13.890
 3487W        W70270  31.369  38.368   3.661
 3488W        W70271   0.719  37.421  10.559
 3489W        W70272   5.695  28.001  14.873
 3490W        W70273   3.249  16.409   3.660
 3491W        W70274   9.888  14.391   2.376
 3492W        W70275  28.965   8.936  14.206
 3493W        W70276   3.338   8.806  12.579
 3494W        W70277  17.306  15.290  13.294
 3495W        W70278  27.129  15.805   2.910
 3496W        W70279   7.833  43.822   2.697
 3497W        W70280  14.151  44.967   1.500
 3498W        W70281  30.927   9.104   0.858
 3499W        W70282  27.469  36.158   2.145
 3500W        W70283  21.570  40.760  13.794
 3501W        W70284  23.314  42.502  13.079
 3502W        W70285  11.511  18.036   3.290
 3503W        W70286  15.552  24.696   1.323
 3504W        W70287  28.669   3.443   3.260
 3505W        W70288  16.586   7.194   0.294
 3506W        W70289  10.744  42.212  14.485
 3507W        W70290  38.522  42.616  10.338
 3508W        W70291   1.356  40.500  14.989
 3509W        W70292  43.936  34.083  12.564
 3510W        W70293  31.647  22.567  14.005
 3511W        W70294  38.458  20.599   0.380
 3512W        W70295  37.298  40.253  11.907
 3513W        W70296  32.927  34.325  11.735
 3514W        W70297  24.994  25.143  12.635
 3515W        W70298  22.214  39.850  11.975
 3516W        W70299   0.460  15.486   4.748
 3517W        W70300  19.918   3.151   4.114
 3518W        W70301  10.639  28.833  13.244
 3519W        W70302  35.871  39.388  12.429
 3520W        W70303  15.550  39.217   0.147
 3521W        W70304  13.381  13.017   4.948
 3522W        W70305  37.469   8.184  11.402
 3523W        W70306  44.267  32.653  10.708
 3524W        W70307  30.572  42.748  13.486
 3525W        W70308  28.180  30.552  10.637
 3526W        W70309  25.394  12.188   2.688
 3527W        W70310   4.492   7.462   3.329
 3528W        W70311  22.948  14.204   1.512
 3529W        W70312  22.623   9.656  12.371
 3530W        W70313  40.958   5.513   3.221
 3531W        W70314  20.132  38.876  12.044
 3532W        W70315  31.948  14.251  12.056
 3533W        W70316  18.179  20.663   2.788
 3534W        W70317  24.019  19.675   2.207
 3535W        W70318  31.524  28.606  14.860
 3536W        W70319  43.473  27.484   4.436
 3537W        W70320  39.761   7.379   0.878
 3538W        W70321  30.021  19.980  13.333
 3539W        W70322  30.553  17.751  12.873
 3540W        W70323   6.401  30.565  12.677
 3541W        W70324  44.902  31.700   1.686
 3542W        W70325  12.263  11.839   0.008
 3543W        W70326  24.451  14.238   3.834
 3544W        W70327   4.752   0.369  12.773
 3545W        W70328   7.703  36.977  11.802
 3546W        W70329  22.418  16.749  14.442
 3547W        W70330  25.085  11.823  12.577
 3548W        W70331  23.460  41.282   4.967
 3549W        W70332  18.929   5.255  14.026
 3550W        W70333  19.036   3.992   1.368
 3551W        W70334   5.126  42.570   3.453
 3552W        W70335  27.625  32.347   2.625
 3553W        W70336  42.531  21.831  12.840
 3554W        W70337  41.465  28.031   1.641
 3555W        W70338  15.189   5.793   4.711
 3556W        W70339   0.693  33.087   2.647
 3557W        W70340   1.725  37.560  10.367
 3558W        W70341  12.442  16.109  14.317
 3559W        W70342  18.926  35.592  11.677
 3560W        W70343  32.427   1.900  14.262
 3561W        W70344  15.197  28.921   4.679
 3562W        W70345  41.274  30.422   3.822
 3563W        W70346  35.888  10.466  14.476
 3564W        W70347   4.881  31.617   0.121
 3565W        W70348  16.303  30.136   0.066
 3566W        W70349  12.415  39.314   3.675
 3567W        W70350   6.628  38.832   9.870
 3568W        W70351  19.154   2.453  14.511
 3569W        W70352  21.534  39.969   0.712
 3570W        W70353  22.523  33.933  12.518
 3571W        W70354  33.545  37.800   5.038
 3572W        W70355   4.886  40.385  14.315
 3573W        W70356  20.588  20.647   3.466
 3574W        W70357   5.383  44.259   3.150
 3575W        W70358  29.952  21.748  14.996
 3576W        W70359  31.242  28.808   4.114
 3577W        W70360  30.419   1.050  11.988
 3578W        W70361  21.212  42.064   0.936
 3579W        W70362  31.943  26.108  12.097
 3580W        W70363  34.915  17.335  13.799
 3581W        W70364  18.567  31.138   1.356
 3582W        W70365   1.252  30.615   3.804
 3583W        W70366  21.654   9.056   3.960
 3584W        W70367  13.584  10.233   3.612
 3585W        W70368  17.209  39.110   0.907
 3586W        W70369  29.926  23.000   4.046
 3587W        W70370   1.505  20.093  12.147
 3588W        W70371  42.285  41.831  10.727
 3589W        W70372  20.907  23.050  14.830
 3590W        W70373  36.473  22.173   1.770
 3591W        W70374  13.681  16.351  12.032
 3592W        W70375  29.082  44.932  11.601
 3593W        W70376  29.506  30.422  11.596
 3594W        W70377  33.452  29.670  11.628
 3595W        W70378   3.962  40.499   4.693
 3596W        W70379  20.706   3.925  11.210
 3597W        W70380  27.683  35.573  13.996
 3598W        W70381  27.933  13.562  12.611
 3599W        W70382  22.021  42.864   2.437
 3600W        W70383  18.999  11.083  12.413
 3601W        W70384   3.340  25.224  10.674
 3602W        W70385  20.135  34.002  13.325
 3603W        W70386   9.888  11.841  14.932
 3604W        W70387  39.351  35.183   0.309
 3605W        W70388   2.968  19.502  14.525
 3606W        W70389  37.115   0.801   3.441
 3607W        W70390  21.180  38.995   5.108
 3608W        W70391  39.143   7.275  12.165
 3609W        W70392  34.504  17.548   3.638
 3610W        W70393   6.674  17.984   1.711
 3611W        W70394  33.984  20.893  11.965
 3612W        W70395  35.864  24.196  11.179
 3613W        W70396  31.115  20.979  14.533
 3614W        W70397  24.629  31.414  12.768
 3615W        W70398  16.873  29.430  13.284
 3616W        W70399   3.820  14.409   3.834
 3617W        W70400  44.882  28.944   2.164
 3618W        W70401  22.256  43.844   3.606
 3619W        W70402   2.189  42.405  12.521
 3620W        W70403   1.715  41.894  14.068
 3621W        W70404   4.352  39.482   4.605
 3622W        W70405  39.730   4.299  13.399
 3623W        W70406  18.714  32.112   1.257
 3624W        W70407  42.341  19.786   3.086
 3625W        W70408   6.832   3.052  12.899
 3626W        W70409   8.675  13.023  14.765
 3627W        W70410  33.962  25.253  12.923
 3628W        W70411  14.050  39.389   3.078
 3629W        W70412  20.121  16.846   0.787
 3630W        W70413  36.478  32.594   0.322
 3631W        W70414   8.434  27.916   3.425
 3632W        W70415   6.285  25.180   0.001
 3633W        W70416  14.730   8.233  12.825
 3634W        W70417   8.838  43.563  14.934
 3635W        W70418  13.574   9.379   3.191
 3636W        W70419  43.953  38.457  11.375
 3637W        W70420  41.332   6.683   3.618
 3638W        W70421   4.314   3.746   2.331
 3639W        W70422   9.406  23.033  11.866
 3640W        W70423  10.239  36.101  11.955
 3641W        W70424  19.743  44.186  14.452
 3642W        W70425   7.442  27.989   3.168
 3643W        W70426   2.764  19.026  12.183
 3644W        W70427  30.594  29.593   3.940
 3645W        W70428  17.203  35.602  12.972
 3646W        W70429   1.377   3.462   1.164
 3647W        W70430  25.157  31.448   1.330
 3648W        W70431  10.887   9.723   4.560
 3649W        W70432  20.152  11.766   4.792
 3650W        W70433  39.499  27.162   0.430
 3651W        W70434  41.508  23.657  11.917
 3652W        W70435  12.262  16.059  12.160
 3653W        W70436  37.589  16.938   0.553
 3654W        W70437  24.131  10.262   2.804
 3655W        W70438   2.479  23.360   1.715
 3656W        W70439   0.797  21.681   3.106
 3657W        W70440  23.400   5.609   0.044
 3658W        W70441   0.338   6.711  12.434
 3659W        W70442  10.170  15.868  14.913
 3660W        W70443  23.175  18.786   3.315
 3661W        W70444  20.623  14.249   0.031
 3662W        W70445  17.699  33.351   2.757
 3663W        W70446  11.701  39.744   9.803
 3664W        W70447  22.217  16.687  13.438
 3665W        W70448  39.554  14.812   3.386
 3666W        W70449  35.626  15.515   3.775
 3667W        W70450  12.342  10.842   1.731
 3668W        W70451   0.643  28.120  14.479
 3669W        W70452  17.200  13.782  13.027
 3670W        W70453  43.347  35.408  12.108
 3671W        W70454  14.269  17.782  14.548
 3672W        W70455   3.974   5.133   2.728
 3673W        W70456  19.059  35.685  13.903
 3674W        W70457  23.975   8.236  12.535
 3675W        W70458  36.160   6.161   1.995
 3676W        W70459  39.887  11.843   4.560
 3677W        W70460  29.691  24.287  14.099
 3678W        W70461  33.496   0.907   3.033
 3679W        W70462  38.157  34.922  12.603
 3680W        W70463  32.921  32.435   2.068
 3681W        W70464  35.701   9.178   4.112
 3682W        W70465  15.171  26.956   2.317
 3683W        W70466  18.011  37.486  14.693
 3684W        W70467  36.575  22.629  12.795
 3685W        W70468  40.577  24.027   2.794
 3686W        W70469  37.859  31.987  10.949
 3687W        W70470  23.208  34.642   3.096
 3688W        W70471  10.116   1.463  12.917
 3689W        W70472  32.066  31.529   2.223
 3690W        W70473  16.962  16.540   4.439
 3691W        W70474  40.004  10.120   1.052
 3692W        W70475  12.302  42.948   4.519
 3693W        W70476  44.231  29.621   1.787
 3694W        W70477  21.600  37.123  14.959
 3695W        W70478  20.930  30.914   2.635
 3696W        W70479  43.073  35.035  14.455
 3697W        W70480  26.468  33.651   2.410
 3698W        W70481   5.331  10.133   2.550
 3699W        W70482  40.039   8.124   4.728
 3700W        W70483  27.521  17.658  12.417
 3701W        W70484   6.139  41.026  14.243
 3702W        W70485  19.818  36.885  12.527
 3703W        W70486  13.481   0.244  14.844
 3704W        W70487  16.066  28.404   0.883
 3705W        W70488  30.253  40.365   5.092
 3706W        W70489   3.398   2.512   0.831
 3707W        W70490  27.019  30.252   5.013
 3708W        W70491  28.883  31.145   1.228
 3709W        W70492  35.090   0.752   4.990
 3710W        W70493  10.297  20.867  14.549
 3711W        W70494  31.574  32.417  14.202
 3712W        W70495  36.371   0.318   3.226
 3713W        W70496  24.655  35.638   0.799
 3714W        W70497  36.040  42.286   4.602
 3715W        W70498  23.725  21.193  14.042
 3716W        W70499  16.573  20.708   1.327
 3717W        W70500   2.847  38.622  11.091
 3718W        W70501   7.840  41.591  11.151
 3719W        W70502   9.674  23.508   3.577
 3720W        W70503  32.462  20.005  11.482
 3721W        W70504  14.542  27.075   3.783
 3722W        W70505  25.200  22.937   2.753
 3723W        W70506  25.081  37.523   2.412
 3724W        W70507  16.467   4.987   0.752
 3725W        W70508  34.584  13.253   0.980
 3726W        W70509  22.046  44.355  13.370
 3727W        W70510  31.599   4.805   0.405
 3728W        W70511  10.150  36.502   1.424
 3729W        W70512  37.538  29.317   1.485
 3730W        W70513  20.277  39.862   1.258
 3731W        W70514   6.361  39.818  12.375
 3732W        W70515  18.256  40.032   4.464
 3733W        W70516  27.267  35.821  13.058
 3734W        W70517   7.735   2.740  13.902
 3735W        W70518  42.104  38.511  13.416
 3736W        W70519  19.364  44.424  14.164
 3737W        W70520  41.926  11.957  11.644
 3738W        W70521  37.103  11.644  13.046
 3739W        W70522  15.666  11.366  13.960
 3740W        W70523  25.167  35.387  11.691
 3741W        W70524  23.466  14.817  13.373
 3742W        W70525  40.229  23.596   2.362
 3743W        W70526  21.616   7.835   0.230
 3744W        W70527  40.865   0.992   2.216
 3745W        W70528  33.951  38.010  14.943
 3746W        W70529  40.987  34.909  14.483
 3747W        W70530  43.774   2.443   3.114
 3748W        W70531  36.464  27.136   3.641
 3749W        W70532  18.756  29.738   2.335
 3750W        W70533  39.862  34.042   0.446
 3751W        W70534   3.940  33.357  13.609
 3752W        W70535  26.459  12.827  13.442
 3753W        W70536  10.220   2.473   4.619
 3754W        W70537  32.514  40.614  12.912
 3755W        W70538  21.743  10.491   4.047
 3756W        W70539  15.219  32.127   0.951
 3757W        W70540   0.592  39.813   0.264
 3758W        W70541  15.051   7.369  14.436
 3759W        W70542   8.443  18.283   1.342
 3760W        W70543  18.024  28.415   2.794
 3761W        W70544   7.360  34.978   2.549
 3762W        W70545  19.525  28.372   2.796
 3763W        W70546   5.781  44.966   3.889
 3764W        W70547   7.334  14.137   0.273
 3765W        W70548  35.868  24.537  13.828
 3766W        W70549  22.455  23.773  10.690
 3767W        W70550  41.646  35.480   1.351
 3768W        W70551  15.242   1.971   0.778
 3769W        W70552  10.188  29.183   3.619
 3770W        W70553  37.076   7.435  12.993
 3771W        W70554  44.253  30.945  13.347
 3772W        W70555   6.535   3.251   0.028
 3773W        W70556  38.359  12.009   3.993
 3774W        W70557  43.305  30.893   2.645
 3775W        W70558   8.205   6.871  13.106
 3776W        W70559   2.014  12.778   2.455
 3777W        W70560  15.080   2.421   4.135
 3778W        W70561   7.480  15.319   4.121
 3779W        W70562  17.772  34.638  11.579
 3780W        W70563  29.161  43.789   5.012
 3781W        W70564  23.263  25.020   1.912
 3782W        W70565  10.877  16.686  13.798
 3783W        W70566  30.580  18.227   3.235
 3784W        W70567  25.629  13.772  13.395
 3785W        W70568  29.481  26.201   4.176
 3786W        W70569  42.575  30.367  11.055
 3787W        W70570  19.151  20.184  10.874
 3788W        W70571   7.357  28.050  14.389
 3789W        W70572  13.360  16.258  14.309
 3790W        W70573   2.517   8.864  14.381
 3791W        W70574  13.803   4.213   2.126
 3792W        W70575   8.092  43.368   2.685
 3793W        W70576   8.179  29.654  10.631
 3794W        W70577  11.312  10.744   3.355
 3795W        W70578  18.604  19.212  11.712
 3796W        W70579  13.564   4.374   0.784
 3797W        W70580  28.889  26.831   4.982
 3798W        W70581  28.505  30.583   1.731
 3799W        W70582  14.436   5.739   2.178
 3800W        W70583  23.196  19.257   3.080
 3801W        W70584   0.293  11.598  13.224
 3802W        W70585  13.847   5.792   0.052
 3803W        W70586  22.182  20.343  10.303
 3804W        W70587  27.447  14.246  10.950
 3805W        W70588  35.649  43.271  10.702
 3806W        W70589  31.712  18.593  13.047
 3807W        W70590   8.714  39.188   0.771
 3808W        W70591  28.482  28.105  12.370
 3809W        W70592  44.615  25.735   3.243
 3810W        W70593  11.020  12.003   0.836
 3811W        W70594  38.625  42.974   0.738
 3812W        W70595  43.792   1.965  10.987
 3813W        W70596  18.578  31.377  12.364
 3814W        W70597  44.770  10.720   0.310
 3815W        W70598   8.213   4.475  11.939
 3816W        W70599  40.822  37.021  14.898
 3817W        W70600  10.553   0.556   0.868
 3818W        W70601  43.039  20.270  11.477
 3819W        W70602  35.914  10.373  12.581
 3820W        W70603  16.844  33.591  11.023
 3821W        W70604  23.762  29.154  12.372
 3822W        W70605   2.218   0.862   1.822
 3823W        W70606  18.552   4.687  10.755
 3824W        W70607   2.461  19.516  10.706
 3825W        W70608  37.881   7.303  13.597
 3826W        W70609  42.023  31.897   4.245
 3827W        W70610  32.481  13.247   4.297
 3828W        W70611  28.589  11.940  12.391
 3829W        W70612   2.400  29.358  11.978
 3830W        W70613  13.395   5.339  10.769
 3831W        W70614  29.592  28.524   1.794
 3832W        W70615  31.443  37.733  13.371
 3833W        W70616  12.107  14.391  13.471
 3834W        W70617  18.358  39.874  12.626
 3835W        W70618  34.005  10.822  13.923
 3836W        W70619  42.207   4.767  13.562
 3837W        W70620  34.383  12.207   2.414
 3838W        W70621   2.368  43.168   0.213
 3839W        W70622  29.615  29.540  13.803
 3840W        W70623  33.971  12.938  11.021
 3841W        W70624   4.716   3.824  12.094
 3842W        W70625  20.793  34.377   0.306
 3843W        W70626  26.236  12.600   1.767
 3844W        W70627  44.766  15.544   1.951
 3845W        W70628  14.145  24.950  13.339
 3846W        W70629  33.995  39.098  10.967
 3847W        W70630  21.674  11.874   3.667
 3848W        W70631  25.064  31.958  12.539
 3849W        W70632  32.088  29.137   3.992
 3850W        W70633  31.506  16.126  14.388
 3851W        W70634  25.037   2.281  12.057
 3852W        W70635   7.919   7.326   1.013
 3853W        W70636   0.443  11.719   0.682
 3854W        W70637  12.535  34.908   4.804
 3855W        W70638  16.361   2.342   3.742
 3856W        W70639  34.422  14.807  11.989
 3857W        W70640  32.652  12.719  10.539
 3858W        W70641  18.334  32.115  12.897
 3859W        W70642  24.684  31.334  11.043
 3860W        W70643  44.034  30.915  11.101
 3861W        W70644  36.132   6.157  13.116
 3862W        W70645  23.425  30.814  14.381
 3863W        W70646  33.428  23.717  10.795
 3864W        W70647   6.466   3.892  13.464
 3865W        W70648  24.287  19.369   4.752
 3866W        W70649  28.005  11.673   2.649
 3867W        W70650  12.995  20.789   4.936
 3868W        W70651  32.687   5.462   4.438
 3869W        W70652  15.621  42.376   4.691
 3870W        W70653  41.973   3.057  13.844
 3871W        W70654  22.483  40.545   3.507
 3872W        W70655  16.524  21.129   0.021
 3873W        W70656   5.761   0.889   4.510
 3874W        W70657   8.047  22.965   1.833
 3875W        W70658  11.869  33.523  11.260
 3876W        W70659  29.850  21.693   4.237
 3877W        W70660   9.475  24.780  14.829
 3878W        W70661   4.425  11.329   0.214
 3879W        W70662  29.039  35.550   3.664
 3880W        W70663  43.177  33.673   1.833
 3881W        W70664  12.999  38.795   1.400
 3882W        W70665  13.240  41.926   4.578
 3883W        W70666  43.740   5.870   3.633
 3884W        W70667   8.398  32.869   4.343
 3885W        W70668  38.734  39.481   4.997
 3886W        W70669  28.414   5.849   0.757
 3887W        W70670  15.743  41.337   1.799
 3888W        W70671   9.847  16.341   3.317
 3889W        W70672   1.280  40.573  12.990
 3890W        W70673  14.709  18.481  14.651
 3891W        W70674   2.236   1.785  12.141
 3892W        W70675  12.816  25.700   1.852
 3893W        W70676  30.389  26.618  11.122
 3894W        W70677  28.003  15.867  13.635
 3895W        W70678  39.161  32.140  13.465
 3896W        W70679  10.437  37.445   2.838
 3897W        W70680  35.370   9.838  14.788
 3898W        W70681  11.399  38.398   4.322
 3899W        W70682  28.186  24.963  12.168
 3900W        W70683   7.785  13.854   0.355
 3901W        W70684  36.106  22.735   4.277
 3902W        W70685  25.089  43.095   2.597
 3903W        W70686   0.823   0.834   1.668
 3904W        W70687   1.057  29.190  11.722
 3905W        W70688  20.959  34.484   3.707
 3906W        W70689  20.451  34.569  13.858
 3907W        W70690  30.887   7.417  12.065
 3908W        W70691  17.599  16.110  11.967
 3909W        W70692  29.018  38.367  13.003
 3910W        W70693  29.211   7.696  10.576
 3911W        W70694   2.704  39.905   2.738
 3912W        W70695  42.776  26.911  13.621
 3913W        W70696   5.811  31.302   1.450
 3914W        W70697  27.351  34.560  11.402
 3915W        W70698  23.531  13.658   1.582
 3916W        W70699  17.694  28.332  14.473
 3917W        W70700  10.833  22.220   2.393
 3918W        W70701  31.652  19.328   2.332
 3919W        W70702  14.697  30.599  11.592
 3920W        W70703  32.134  26.999  10.629
 3921W        W70704   0.320  22.243  11.017
 3922W        W70705  37.795  11.728  10.623
 3923W        W70706  11.361  43.751   4.139
 3924W        W70707  19.023  11.684   1.542
 3925W        W70708  26.583   0.747  12.433
 3926W        W70709  42.273   1.496  13.899
 3927W        W70710  23.958  38.987   0.359
 3928W        W70711   2.803   7.934  10.678
 3929W        W70712   2.633   5.025   2.417
 3930W        W70713   6.743  21.270  14.988
 3931W        W70714  34.443   7.938  12.090
 3932W        W70715  26.924  30.514  14.008
 3933W        W70716  36.533  28.855   3.074
 3934W        W70717  17.365  24.649  13.337
 3935W        W70718  20.208   8.410  12.846
 3936W        W70719  10.623  29.232  13.557
 3937W        W70720  37.590  18.223  14.435
 3938W        W70721  42.849   5.381   1.956
 3939W        W70722   0.461   6.772  11.493
 3940W        W70723  37.329  42.385   4.234
 3941W        W70724  17.656  12.661   5.426
 3942W        W70725  16.081   0.053  12.642
 3943W        W70726   2.739  20.749   1.440
 3944W        W70727  39.317  15.680  13.361
 3945W        W70728   6.392  23.027  12.529
 3946W        W70729   8.750  24.658   2.256
 3947W        W70730  25.196  39.936   1.886
 3948W        W70731  28.536  29.410  14.073
 3949W        W70732  13.143  38.364   1.097
 3950W        W70733  26.505  30.029  13.304
 3951W        W70734  11.679  37.235  10.204
 3952W        W70735  31.144   9.703  11.336
 3953W        W70736  12.223  24.409  12.872
 3954W        W70737   8.679   1.828   0.132
 3955W        W70738   0.492   9.195   3.296
 3956W        W70739  27.158  11.199   2.598
 3957W        W70740  28.449  44.275  12.017
 3958W        W70741  41.259  23.821  13.434
 3959W        W70742   1.195  27.702   4.944
 3960W        W70743  25.338  23.882  13.553
 3961W        W70744  14.427  39.398  13.932
 3962W        W70745  25.004  39.006   3.595
 3963W        W70746  30.217  38.562   1.264
 3964W        W70747  11.591  17.679  14.890
 3965W        W70748   2.666   9.866   3.025
 3966W        W70749   2.175  27.240  14.323
 3967W        W70750  28.576  40.093   4.000
 3968W        W70751   8.093  43.284  14.434
 3969W        W70752  10.823  37.959  13.869
 3970W        W70753  19.432  30.893  14.434
 3971W        W70754  29.524  28.014   2.004
 3972W        W70755  21.482   5.202   1.715
 3973W        W70756  36.942  41.097   1.255
 3974W        W70757  11.348  27.054   4.620
 3975W        W70758   4.331  38.623   0.981
 3976W        W70759  13.039  39.873  10.068
 3977W        W70760  16.639  25.953   3.806
 3978W        W70761   9.566  30.392  13.492
 3979W        W70762  32.440  27.223  13.928
 3980W        W70763   4.614  41.097   4.587
 3981W        W70764  10.878   2.704   0.740
 3982W        W70765  31.143  39.710   2.790
 3983W        W70766  20.560  10.863  11.621
 3984W        W70767  29.854  10.150  11.529
 3985W        W70768  39.238  29.916  13.437
 3986W        W70769  44.230  32.436   1.808
 3987W        W70770  23.231  44.806  11.508
 3988W        W70771  27.890  43.430   0.288
 3989W        W70772  24.448  43.065  13.111
 3990W        W70773   5.376  42.548   0.177
 3991W        W70774   7.700  41.441   4.646
 3992W        W70775  24.287  44.427  13.849
 3993W        W70776  40.308  20.583  13.475
 3994W        W70777  22.738   3.934  11.174
 3995W        W70778  13.307  11.535   3.491
 3996W        W70779  20.132  40.332   4.131
 3997W        W70780  11.095  29.668  11.988
 3998W        W70781   7.356  11.192  12.384
 3999W        W70782  42.328   3.891  12.063
 4000W        W70783   0.434   5.936  14.982
 4001W        W70784  12.248   5.873   2.023
 4002W        W70785  20.189  42.532   1.763
 4003W        W70786  34.917  35.125  13.040
 4004W        W70787   4.994   0.399  13.262
 4005W        W70788  13.137  34.513  14.964
 4006W        W70789  19.818  25.100  11.056
 4007W        W70790  21.267   6.026   0.760
 4008W        W70791  19.856  20.776   0.931
 4009W        W70792   2.321   6.820  11.928
 4010W        W70793  18.962   3.542  13.489
 4011W        W70794   9.220  40.983   4.175
 4012W        W70795  20.118  21.601  12.975
 4013W        W70796   8.976  18.067   4.401
 4014W        W70797  16.568  14.185   1.716
 4015W        W70798   2.399  36.929  14.494
 4016W        W70799  31.315  25.604  13.779
 4017W        W70800  32.703  41.932   4.744
 4018W        W70801   8.305  36.818  13.883
 4019W        W70802  23.001  23.433   4.123
 4020W        W70803  37.288  15.579   4.527
 4021W        W70804   6.577   4.175   1.306
 4022W        W70805   7.210  37.670  12.009
 4023W        W70806  12.726  31.196   0.760
 4024W        W70807  44.856  11.856   1.930
 4025W        W70808   9.997  29.563   4.222
 4026W        W70809   1.196  40.879  12.464
 4027W        W70810  14.287  21.466   0.851
 4028W        W70811  38.436  40.366  14.507
 4029W        W70812  42.403  44.935  10.700
 4030W        W70813  12.338  17.652  13.395
 4031W        W70814  26.245   6.403  13.378
 4032W        W70815  11.792   9.189   3.569
 4033W        W70816  13.248  29.464  13.740
 4034W        W70817  27.932  12.668  12.486
 4035W        W70818  19.720   9.860   1.494
 4036W        W70819  38.967  33.331   2.785
 4037W        W70820   5.939   4.958  11.497
 4038W        W70821  30.371  14.803   0.691
 4039W        W70822   4.235   0.704  13.551
 4040W        W70823  38.470  16.783   3.978
 4041W        W70824  34.631  25.709   1.515
 4042W        W70825  13.708  21.761  11.496
 4043W        W70826   9.654   1.293   4.495
 4044W        W70827  34.554  42.808  14.479
 4045W        W70828  24.959  18.980  12.875
 4046W        W70829  17.652  14.569  12.937
 4047W        W70830  11.430   9.584  11.589
 4048W        W70831  14.732   7.340  11.004
 4049W        W70832  24.378  23.963   3.268
 4050W        W70833  19.696  44.051  12.930
 4051W        W70834  38.079  29.946  10.721
 4052W        W70835  26.355  44.492   3.185
 4053W        W70836  26.008  17.895   3.158
 4054W        W70837  20.559  17.322   2.748
 4055W        W70838  11.296  35.657   3.558
 4056W        W70839  36.706  42.349  12.973
 4057W        W70840  23.553  44.414   1.006
 4058W        W70841  30.149  18.079   0.793
 4059W        W70842  35.601  10.993  11.372
 4060W        W70843   7.518   2.953   4.176
 4061W        W70844   7.940  27.896   3.268
 4062W        W70845  26.768  23.507  11.051
 4063W        W70846   7.893  21.610  14.541
 4064W        W70847   8.863  20.838  12.402
 4065W        W70848  25.501  34.174   3.327
 4066W        W70849  24.437  39.678  14.273
 4067W        W70850  43.765  33.583   3.185
 4068W        W70851   5.237  30.182   3.258
 4069W        W70852  42.243  15.721   4.402
 4070W        W70853  29.437  17.151  13.363
 4071W        W70854  14.133   7.791   0.810
 4072W        W70855  16.207  36.381  10.610
 4073W        W70856  24.417  20.965   1.818
 4074W        W70857  40.012   5.000   0.435
 4075W        W70858  29.999   6.477  11.604
 4076W        W70859  27.680   0.083   1.951
 4077W        W70860  15.580  25.535  12.148
 4078W        W70861  31.626  19.922  10.972
 4079W        W70862  42.575  22.055  14.924
 4080W        W70863  38.632  35.497   4.699
 4081W        W70864   5.723  21.753   2.822
 4082W        W70865  40.301  38.323  11.499
 4083W        W70866  31.080  41.228  12.937
 4084W        W70867  27.176  25.502   3.086
 4085W        W70868  33.533   6.408  12.036
 4086W        W70869  12.386  17.711   1.456
 4087W        W70870  44.083  13.908  13.136
 4088W        W70871  37.335  12.615  12.099
 4089W        W70872  39.033  42.387  14.368
 4090W        W70873  27.090   4.643   1.153
 4091W        W70874  32.128  30.362   4.573
 4092W        W70875   2.227  43.840   0.188
 4093W        W70876  34.082   3.725   4.154
 4094W        W70877  44.821  11.183  10.486
 4095W        W70878  30.212  22.171   0.857
 4096W        W70879  33.588  10.669  11.947
 4097W        W70880  24.458  17.887   1.991
 4098W        W70881   8.860   1.968  13.057
 4099W        W70882  15.718  27.553   0.472
 4100W        W70883   6.161  38.006  13.069
 4101W        W70884  22.030  32.359   3.252
 4102W        W70885   4.252  40.966   2.579
 4103W        W70886  16.637  29.459  11.722
 4104W        W70887   3.601  37.213   4.796
 4105W        W70888  10.111  41.519  12.275
 4106W        W70889   9.288   1.966   1.981
 4107W        W70890  36.590  11.362  10.127
 4108W        W70891  15.581  43.478   0.489
 4109W        W70892  14.283  36.421   2.570
 4110W        W70893   8.447  18.451   0.568
 4111W        W70894   3.011  21.583  13.013
 4112W        W70895  15.548  16.798  13.526
 4113W        W70896  27.680  28.429  10.483
 4114W        W70897  11.221  21.326  11.219
 4115W        W70898  36.055  33.522   3.336
 4116W        W70899  31.174  31.339   3.190
 4117W        W70900  36.440  24.606   4.860
 4118W        W70901  41.037   6.386   5.752
 4119W        W70902  16.749   5.217   4.140
 4120W        W70903  15.261  39.618  11.854
 4121W        W70904  14.847  19.227  13.003
 4122W        W70905  21.109   3.234   0.824
 4123W        W70906  14.374  18.195  11.824
 4124W        W70907   7.128  33.333  11.474
 4125W        W70908  41.440   3.431  10.769
 4126W        W70909  44.402  36.961  13.484
 4127W        W70910  42.248   7.943   2.237
 4128W        W70911  42.659   9.869   5.195
 4129W        W70912   1.479   8.356  13.690
 4130W        W70913  21.709  42.287   0.889
 4131W        W70914  12.196  11.562   1.208
 4132W        W70915  27.087  38.871  11.090
 4133W        W70916  18.719   7.763  12.028
 4134W        W70917   8.859  41.994   3.684
 4135W        W70918   7.492  18.491   5.051
 4136W        W70919  30.503   0.218  13.014
 4137W        W70920  15.258  23.319   4.173
 4138W        W70921  39.490  30.148  13.045
 4139W        W70922  32.351  27.967  11.006
 4140W        W70923  43.265  18.016  14.342
 4141W        W70924   5.630  29.691   0.858
 4142W        W70925  32.973  26.005  12.081
 4143W        W70926  17.101  29.929   4.531
 4144W        W70927   1.771  10.830   2.803
 4145W        W70928  31.159   7.851  11.907
 4146W        W70929  18.735  12.531   4.595
 4147W        W70930  10.749  34.166   2.296
 4148W        W70931  12.478   6.332  13.878
 4149W        W70932   4.746  16.747   3.761
 4150W        W70933  37.655  19.067  12.453
 4151W        W70934  38.543  27.462   4.074
 4152W        W70935  40.312  42.149  11.943
 4153W        W70936  26.324  15.178   0.273
 4154W        W70937  32.890  34.991   0.856
 4155W        W70938   6.489  26.151  11.151
 4156W        W70939  43.928  36.612  12.359
 4157W        W70940  26.427  13.085  14.083
 4158W        W70941  28.569  32.332  10.733
 4159W        W70942  31.225  18.631  12.190
 4160W        W70943   7.932  32.112  10.268
 4161W        W70944  34.329  25.471  11.074
 4162W        W70945  24.956   5.255   4.095
 4163W        W70946  23.428   7.307   0.357
 4164W        W70947   9.646   3.361   1.363
 4165W        W70948  29.891  43.006   1.651
 4166W        W70949  19.517  21.533   2.706
 4167W        W70950  10.818  42.964  10.675
 4168W        W70951  43.475  18.967   0.822
 4169W        W70952  25.813   4.835   2.436
 4170W        W70953   7.152  31.784  13.053
 4171W        W70954  25.048   6.393   4.224
 4172W        W70955  23.643  32.678   3.181
 4173W        W70956  34.430  17.703  10.331
 4174W        W70957  38.269  19.612  11.701
 4175W        W70958  38.538   5.041  11.942
 4176W        W70959  15.916   3.375   2.120
 4177W        W70960  21.469  17.850   1.001
 4178W        W70961  14.400   1.589   0.570
 4179W        W70962   6.408  43.331   4.777
 4180W        W70963   0.816   9.678   5.147
 4181W        W70964  11.200  30.839   4.559
 4182W        W70965  26.682   0.862   4.674
 4183W        W70966  41.617  36.471  14.893
 4184W        W70967  23.433  20.529  12.134
 4185W        W70968   0.690  26.732  14.957
 4186W        W70969  36.239   0.233   4.211
 4187W        W70970  29.745   8.698  13.800
 4188W        W70971  36.013  44.255   0.409
 4189W        W70972  21.072  27.652  10.937
 4190W        W70973  35.792   4.193  10.561
 4191W        W70974  40.132  34.023   1.510
 4192W        W70975  34.327  41.853   0.467
 4193W        W70976  35.039  11.609  12.300
 4194W        W70977  44.431   3.546   5.029
 4195W        W70978  37.942  37.917   4.259
 4196W        W70979   2.262  21.076   3.662
 4197W        W70980   9.625  19.925   1.829
 4198W        W70981  33.297  44.058  13.452
 4199W        W70982  11.724  22.916  12.385
 4200W        W70983  40.993  39.278  12.023
 4201W        W70984   6.699  35.853   1.300
 4202W        W70985  13.636  40.404   3.686
 4203W        W70986  14.904  33.914  14.838
 4204W        W70987  44.749   1.355  10.399
 4205W        W70988   3.756  17.138   3.343
 4206W        W70989   3.397  44.247   2.776
 4207W        W70990   6.429  33.001  12.625
 4208W        W70991   7.838   5.180   3.260
 4209W        W70992  39.246  16.166  14.874
 4210W        W70993   5.291   7.458  11.574
 4211W        W70994  10.941  33.172   3.058
 4212W        W70995   2.979  20.899   5.006
 4213W        W70996   3.009  23.117  12.056
 4214W        W70997  15.204  32.610   0.036
 4215W        W70998  42.268   9.333   1.393
 4216W        W70999  44.218  27.654  13.000
 4217W        W71000  10.847  30.488  11.507
 4218W        W71001   1.213   1.827   4.491
 4219W        W71002  38.511   5.052   3.773
 4220W        W71003   7.365  22.964   2.176
 4221W        W71004  36.992   5.718  10.957
 4222W        W71005  19.503  34.933  10.634
 4223W        W71006  36.461  20.734  13.433
 4224W        W71007   4.092  41.471   5.084
 4225W        W71008   0.020  15.858   0.732
 4226W        W71009  11.148  34.656  12.294
 4227W        W71010  23.710  12.124   0.512
 4228W        W71011  40.561  15.887   0.043
 4229W        W71012  23.805  30.581   0.745
 4230W        W71013  13.363  38.822   4.425
 4231W        W71014  39.606  21.955  14.748
 4232W        W71015  39.308  37.980  13.571
 4233W        W71016  19.309  13.396  13.455
 4234W        W71017   2.895   8.378   1.940
 4235W        W71018  17.020  17.452  13.865
 4236W        W71019  11.313  12.339  10.759
 4237W        W71020  38.777   9.010   4.356
 4238W        W71021  26.146   7.225   2.287
 4239W        W71022  31.478   4.999  13.326
 4240W        W71023  32.423  27.552   4.888
 4241W        W71024  18.040  43.444  11.953
 4242W        W71025   6.057  26.719  12.664
 4243W        W71026  33.477  13.361  12.104
 4244W        W71027  22.990  38.642  12.014
 4245W        W71028  37.047  16.249  11.158
 4246W        W71029  27.923   0.414   2.295
 4247W        W71030  43.456  28.465   0.386
 4248W        W71031  12.684  42.175   2.857
 4249W        W71032  36.359  39.853   0.410
 4250W        W71033  37.066  44.515  13.376
 4251W        W71034   5.230   3.408   4.598
 4252W        W71035  25.056  11.321  11.236
 4253W        W71036   2.483  29.488   2.776
 4254W        W71037   2.982  35.522   2.989
 4255W        W71038  26.759  19.649  10.389
 4256W        W71039  30.467   4.325  12.337
 4257W        W71040   3.206  28.363   0.480
 4258W        W71041  11.106  27.023  14.503
 4259W        W71042  43.568  37.252   1.674
 4260W        W71043  24.215  11.726   3.719
 4261W        W71044  17.319  31.172   0.037
 4262W        W71045  41.347  33.749  14.147
 4263W        W71046  41.091  42.928  11.195
 4264W        W71047  31.481  28.544   0.770
 4265W        W71048  23.206  39.678   2.855
 4266W        W71049  36.020   7.157   2.798
 4267W        W71050  36.605  33.295  12.008
 4268W        W71051  18.887  33.556   4.614
 4269W        W71052  23.115  24.044  11.353
 4270W        W71053  36.319  12.367  11.501
 4271W        W71054  38.389  38.125   0.144
 4272W        W71055  31.630  14.231   1.045
 4273W        W71056  43.655  26.341  12.125
 4274W        W71057  16.644   8.291   5.074
 4275W        W71058   5.307  23.281  12.154
 4276W        W71059  25.800  14.604  12.509
 4277W        W71060   2.129  20.137   4.611
 4278W        W71061  16.337  34.088  10.706
 4279W        W71062  21.267  28.424   4.108
 4280W        W71063  10.182  22.697   4.575
 4281W        W71064  28.304  24.145   4.115
 4282W        W71065  37.937  32.062   2.230
 4283W        W71066  24.274  43.412  11.541
 4284W        W71067  28.721  24.033   1.900
 4285W        W71068  41.409  31.855  10.672
 4286W        W71069  26.413  19.325   0.733
 4287W        W71070  26.720   9.631  10.209
 4288W        W71071   9.159  39.820   3.976
 4289W        W71072   3.565  11.749  10.691
 4290W        W71073  41.578  24.220  13.286
 4291W        W71074  41.107  32.126  14.407
 4292W        W71075  39.989   6.007  14.830
 4293W        W71076  10.197  32.122  13.540
 4294W        W71077  33.342  12.799   3.308
 4295W        W71078  29.068  26.555  11.421
 4296W        W71079  32.044  13.755  12.097
 4297W        W71080  24.911  14.151  14.777
 4298W        W71081  40.869  26.197  13.200
 4299W        W71082  43.402   0.756  10.099
 4300W        W71083  16.838  37.105  13.898
 4301W        W71084  28.256  36.985  12.917
 4302W        W71085  13.298  29.833   2.899
 4303W        W71086  14.875  44.233  11.305
 4304W        W71087  29.641  19.687   1.744
 4305W        W71088  15.871  23.554  10.284
 4306W        W71089   2.255  28.057  11.700
 4307W        W71090  19.300  27.175   0.312
 4308W        W71091  28.462   0.790  11.244
 4309W        W71092  38.969   4.400   4.199
 4310W        W71093   6.462   6.777  13.852
 4311W        W71094  34.159  39.771  13.966
 4312W        W71095  42.952  25.249   4.265
 4313W        W71096   6.682  22.532   1.760
 4314W        W71097  40.759  35.398  14.379
 4315W        W71098   4.048  12.863  13.025
 4316W        W71099   6.631  25.800   4.572
 4317W        W71100   9.796  24.472   4.174
 4318W        W71101  43.308  40.517  14.436
 4319W        W71102  10.324  24.180   0.958
 4320W        W71103  11.200  26.557   0.553
 4321W        W71104   5.289  23.742   5.193
 4322W        W71105  21.714  21.642   2.424
 4323W        W71106  16.513  31.962   0.477
 4324W        W71107  36.877  37.048   2.191
 4325W        W71108  14.068  17.317   1.442
 4326W        W71109   9.353  18.186   0.053
 4327W        W71110  19.356  38.445  12.532
 4328W        W71111  26.423   0.278  10.255
 4329W        W71112  13.808  26.629  13.489
 4330W        W71113  42.722  28.687   4.824
 4331W        W71114  23.618  34.193  13.896
 4332W        W71115  24.460  26.934   3.314
 4333W        W71116  34.884   0.299   0.315
 4334W        W71117  10.743   0.439  13.854
 4335W        W71118   8.866  29.179  14.340
 4336W        W71119   7.771  19.748  14.576
 4337W        W71120  20.548  43.288   2.757
 4338W        W71121   5.667  12.812   0.238
 4339W        W71122  31.587  15.810  13.455
 4340W        W71123  34.620  18.057   4.957
 4341W        W71124   2.801  35.998  13.117
 4342W        W71125   4.663   4.478   4.471
 4343W        W71126  42.713  38.825   2.846
 4344W        W71127  18.298  12.220  13.860
 4345W        W71128   9.643   7.838  13.144
 4346W        W71129  37.835  37.885   4.783
 4347W        W71130  23.104   9.725   5.061
 4348W        W71131  16.168  34.849   0.509
 4349W        W71132  17.159  17.955  13.860
 4350W        W71133   6.936  33.351  13.876
 4351W        W71134  38.970   1.710   0.903
 4352W        W71135  15.067  30.872   0.239
 4353W        W71136  19.718  18.520   4.555
 4354W        W71137  39.980  29.744   2.015
 4355W        W71138  41.657  33.074  12.585
 4356W        W71139  26.425  12.430  14.409
 4357W        W71140  26.662   0.457  14.087
 4358W        W71141  39.672   6.399   2.351
 4359W        W71142  43.249  21.196  11.020
 4360W        W71143  17.095  15.781   4.922
 4361W        W71144  42.453   2.928   3.701
 4362W        W71145  26.611  19.432   5.147
 4363W        W71146  11.887  28.749   0.720
 4364W        W71147  26.056   3.110   2.829
 4365W        W71148   4.616   3.511   0.533
 4366W        W71149  34.161  22.241  13.073
 4367W        W71150  43.644  35.952   3.123
 4368W        W71151   1.074  41.006  14.210
 4369W        W71152  34.202  43.783   4.209
 4370W        W71153  29.242  40.634   4.165
 4371W        W71154  40.749  10.492  12.060
 4372W        W71155   7.821  21.059   4.708
 4373W        W71156  18.692  20.666  10.692
 4374W        W71157  43.383  15.382   0.925
 4375W        W71158  26.648  20.578  10.808
 4376W        W71159  26.988  34.915  14.440
 4377W        W71160  40.987  44.808  14.967
 4378W        W71161  11.673  28.695  12.492
 4379W        W71162  42.453  32.738   4.212
 4380W        W71163  25.395  29.171  13.540
 4381W        W71164  30.497  30.383  13.442
 4382W        W71165  14.668  32.315  12.689
 4383W        W71166  16.857   3.092  12.855
 4384W        W71167  25.752  39.855   0.460
 4385W        W71168  29.035  23.974   3.685
 4386W        W71169  42.916  35.715  10.379
 4387W        W71170  41.495  30.440   1.799
 4388W        W71171  18.137  26.192  12.637
 4389W        W71172  28.635  12.782   1.485
 4390W        W71173  24.957  40.299  13.847
 4391W        W71174  33.482  17.185   0.640
 4392W        W71175  24.806  28.502  14.462
 4393W        W71176  18.583  11.218   4.662
 4394W        W71177  21.252  25.449  12.082
 4395W        W71178  13.094   1.746   1.939
 4396W        W71179   9.185  12.214   4.403
 4397W        W71180  15.252  38.289  14.560
 4398W        W71181  13.848  10.996   0.476
 4399W        W71182  20.635  10.683   3.374
 4400W        W71183  29.188   1.677   1.822
 4401W        W71184  32.215  19.766   5.096
 4402W        W71185  39.022   4.476   0.478
 4403W        W71186  32.729   0.374  11.074
 4404W        W71187  40.266  13.229   3.082
 4405W        W71188  34.021  36.930   3.679
 4406W        W71189  36.585  18.395  13.454
 4407W        W71190  13.222  33.635   2.667
 4408W        W71191  22.414  24.232  12.589
 4409W        W71192  19.154  42.457   1.704
 4410W        W71193  10.124  12.887  11.383
 4411W        W71194  40.954   5.457   2.320
 4412W        W71195  18.556  20.083   0.957
 4413W        W71196  10.857  15.448   1.502
 4414W        W71197  31.675  11.207   4.574
 4415W        W71198   0.225  14.713  11.165
 4416W        W71199   0.121  16.373   9.839
 4417W        W71200   0.802  34.997   2.276
 4418W        W71201  30.380  15.186  10.782
 4419W        W71202  34.412  44.263  12.096
 4420W        W71203   9.401  24.620   4.476
 4421W        W71204   4.838  28.893   4.158
 4422W        W71205  27.170  39.625  11.150
 4423W        W71206  36.659  17.212  14.558
 4424W        W71207  28.618   2.685  12.486
 4425W        W71208  15.400  30.850  12.978
 4426W        W71209  20.681  25.947   3.321
 4427W        W71210  21.671  42.309   4.140
 4428W        W71211   6.726  42.316   1.246
 4429W        W71212  13.538  36.391   0.345
 4430W        W71213  21.215   8.561   2.678
 4431W        W71214   3.410   6.777  13.418
 4432W        W71215  27.745  26.174   9.772
 4433W        W71216   5.463  40.846   1.828
 4434W        W71217  15.681  22.221   4.418
 4435W        W71218  30.563  17.087   1.701
 4436W        W71219  34.634   6.389   1.336
 4437W        W71220  41.387   5.813   4.857
 4438W        W71221  19.036  12.688  11.565
 4439W        W71222  26.152  13.421   0.715
 4440W        W71223  40.987  14.102   0.788
 4441W        W71224  15.154  28.992   1.334
 4442W        W71225   6.234   7.002  11.577
 4443W        W71226  26.780  35.178   3.628
 4444W        W71227  36.503   1.979  11.583
 4445W        W71228  22.105  24.878  11.886
 4446W        W71229  12.082   0.791  11.998
 4447W        W71230  12.836  12.613   2.885
 4448W        W71231  13.212  36.638  13.827
 4449W        W71232  29.261  37.544   2.233
 4450W        W71233  19.531  38.066  14.430
 4451W        W71234  40.997  31.977  12.885
 4452W        W71235   7.332  14.076  10.970
 4453W        W71236  16.729  17.581  11.355
 4454W        W71237   3.261  12.672  14.473
 4455W        W71238  24.256  21.573   2.898
 4456W        W71239  33.608  40.373   5.079
 4457W        W71240   9.959  39.880   2.707
 4458W        W71241  29.885  30.408   1.104
 4459W        W71242  12.448  36.656   3.214
 4460W        W71243  19.620  16.062   3.543
 4461W        W71244  15.268  12.273   2.938
 4462W        W71245   6.955  39.270  13.907
 4463W        W71246  31.774  43.769   5.355
 4464W        W71247   4.194  24.521   1.495
 4465W        W71248   1.809  21.043   0.219
 4466W        W71249  43.316  10.411   3.685
 4467W        W71250  14.287   1.970  14.498
 4468W        W71251  15.678  26.049  14.907
 4469W        W71252  44.093  34.046  12.018
 4470W        W71253  20.976  36.322  14.361
 4471W        W71254  43.474  19.722   0.064
 4472W        W71255  30.141   8.734  12.969
 4473W        W71256   9.393  12.783  13.537
 4474W        W71257  38.319   5.587  11.902
 4475W        W71258  22.829  12.822   1.378
 4476W        W71259  31.494  23.024  13.787
 4477W        W71260  19.770   1.429  13.276
 4478W        W71261  14.879  29.021  12.498
 4479W        W71262  20.673  32.406   0.307
 4480W        W71263   7.432  15.795   1.351
 4481W        W71264  38.409  24.782  13.411
 4482W        W71265  28.629   5.220  11.048
 4483W        W71266  43.549  23.500   0.387
 4484W        W71267  26.437  34.951  14.215
 4485W        W71268  30.689   8.298  13.613
 4486W        W71269  27.946   5.978  14.441
 4487W        W71270  31.114   2.190  13.747
 4488W        W71271  23.523   9.444   3.788
 4489W        W71272  16.220   4.665   3.163
 4490W        W71273   5.273  44.855   4.586
 4491W        W71274  38.159  43.536   3.341
 4492W        W71275   3.208   4.718   4.237
 4493W        W71276  19.034  24.260   4.236
 4494W        W71277   3.203  38.406  11.988
 4495W        W71278  16.831  11.245  11.654
 4496W        W71279  12.110  36.451   9.799
 4497W        W71280  22.050   7.509   0.782
 4498W        W71281  13.555  18.096  10.629
 4499W        W71282  13.717   5.872   4.598
 4500W        W71283  23.543   6.601  12.016
 4501W        W71284  22.187  28.440  12.916
 4502W        W71285  38.958  19.613  13.822
 4503W        W71286  15.744  12.125   1.671
 4504W        W71287  20.664   7.342   4.102
 4505W        W71288  16.860  11.210  12.155
 4506W        W71289  34.895  24.187   0.767
 4507W        W71290   1.820  10.083  11.619
 4508W        W71291   5.322  16.735   1.353
 4509W        W71292  43.363  12.101   2.258
 4510W        W71293  18.157  38.929  14.980
 4511W        W71294   0.585  41.885   2.598
 4512W        W71295  36.532  44.973  12.590
 4513W        W71296  36.553  26.512   3.282
 4514W        W71297   5.666   9.410  13.350
 4515W        W71298  21.020  21.801  14.849
 4516W        W71299  40.187  42.933   4.573
 4517W        W71300  43.608  31.006   2.214
 4518W        W71301  12.988  27.978   9.846
 4519W        W71302  41.311  12.615   4.618
 4520W        W71303  43.644  33.460  11.176
 4521W        W71304  27.505  22.461   1.730
 4522W        W71305  10.897   3.475   2.536
 4523W        W71306   4.425  30.064  12.543
 4524W        W71307  16.231   0.261   2.357
 4525W        W71308  28.162  38.299  12.784
 4526W        W71309  40.453  33.157   0.820
 4527W        W71310  14.375  41.518   2.257
 4528W        W71311   8.896  19.123  13.549
 4529W        W71312  29.619  24.242  14.845
 4530W        W71313  10.837  16.287  14.498
 4531W        W71314   5.146  23.743   3.201
 4532W        W71315  13.259  17.091   2.383
 4533W        W71316   6.598  33.488  12.700
 4534W        W71317  20.336  18.316  13.965
 4535W        W71318  44.076  43.912   1.662
 4536W        W71319  28.660   8.526   0.352
 4537W        W71320  32.440  25.237   4.949
 4538W        W71321  15.543  23.473  14.314
 4539W        W71322  25.395  10.977   0.119
 4540W        W71323  39.597  18.114   3.687
 4541W        W71324  10.329  43.250   1.433
 4542W        W71325  24.069  40.538   3.239
 4543W        W71326  26.209   7.374  13.961
 4544W        W71327  35.920  10.157  12.131
 4545W        W71328  26.915  29.881  11.541
 4546W        W71329  26.678  26.644   1.741
 4547W        W71330  23.425  37.925  12.301
 4548W        W71331  21.888  19.818  11.219
 4549W        W71332  10.091  24.784  11.731
 4550W        W71333   2.168  12.388  11.541
 4551W        W71334  40.487  39.061   4.253
 4552W        W71335  34.459   3.869  14.921
 4553W        W71336  41.586  25.388   2.254
 4554W        W71337  43.567   4.855  10.215
 4555W        W71338  33.835  23.540  11.133
 4556W        W71339  44.358  44.736  14.451
 4557W        W71340  17.244  30.198   0.458
 4558W        W71341  28.818  26.244  12.165
 4559W        W71342  21.115  13.029   0.078
 4560W        W71343  11.318  38.830  14.851
 4561W        W71344  22.084  13.582  11.044
 4562W        W71345  22.020   4.915  14.037
 4563W        W71346  26.202  11.232  14.898
 4564W        W71347  31.501  16.026  10.704
 4565W        W71348  17.497   3.479  13.589
 4566W        W71349  26.282  34.490   1.725
 4567W        W71350  20.042   8.397   3.278
 4568W        W71351  30.645  14.666  10.703
 4569W        W71352  43.398  16.654  14.816
 4570W        W71353  41.018  13.302   2.666
 4571W        W71354   7.128   4.181  11.134
 4572W        W71355   7.800   4.922  14.760
 4573W        W71356  30.068  20.367  14.650
 4574W        W71357  44.610   8.924  10.713
 4575W        W71358  19.652  33.780  13.419
 4576W        W71359  36.663  12.398  11.140
 4577W        W71360  33.024  39.975  10.921
 4578W        W71361  40.593  43.655  14.179
 4579W        W71362  16.325   3.441  10.307
 4580W        W71363  37.494  23.909  11.473
 4581W        W71364  31.430  29.261   1.783
 4582W        W71365  11.325  25.297  11.082
 4583W        W71366  30.973   3.035  10.702
 4584W        W71367  34.429  33.870   2.853
 4585W        W71368  35.095  35.634   5.072
 4586W        W71369   3.132  15.825   5.079
 4587W        W71370  11.821  41.372   4.165
 4588W        W71371  33.766  30.913  14.978
 4589W        W71372  13.690  21.530   3.062
 4590W        W71373  13.026  40.810   1.196
 4591W        W71374   1.829  32.466  13.687
 4592W        W71375  33.906  21.142   3.072
 4593W        W71376  31.154   4.679  14.862
 4594W        W71377   8.868  23.494  12.020
 4595W        W71378  25.150  21.170   4.074
 4596W        W71379  44.848  17.146  12.068
 4597W        W71380  23.144   5.743   5.223
 4598W        W71381   4.348  19.432  12.864
 4599W        W71382  17.596  35.549   3.580
 4600W        W71383   7.225  43.102   0.868
 4601W        W71384   7.362  25.446   1.864
 4602W        W71385  43.363  22.056  14.466
 4603W        W71386   0.428   4.026  11.636
 4604W        W71387  25.180   8.397   2.228
 4605W        W71388  10.277  36.634   2.255
 4606W        W71389  11.251  32.681  14.851
 4607W        W71390  40.462  39.584   3.261
 4608W        W71391   2.951  29.912  12.477
 4609W        W71392  13.215   4.042  14.419
 4610W        W71393  12.041   6.269   1.289
 4611W        W71394  10.141  39.907  13.488
 4612W        W71395  26.229   3.221  11.691
 4613W        W71396  25.069  11.965   2.347
 4614W        W71397   2.660  33.519   4.079
 4615W        W71398  25.520  18.296  14.886
 4616W        W71399  26.573  10.285  10.595
 4617W        W71400  38.384  43.096   4.201
 4618W        W71401  10.605   0.436  11.602
 4619W        W71402  14.377  31.550   4.560
 4620W        W71403   2.251  29.244   3.166
 4621W        W71404  29.625  41.350   1.211
 4622W        W71405   7.908  44.586   1.417
 4623W        W71406  37.134   9.583   0.455
 4624W        W71407   6.292  14.087   3.535
 4625W        W71408  31.714   1.615   1.422
 4626W        W71409  34.307  11.613   0.988
 4627W        W71410  20.975  36.451  11.550
 4628W        W71411  26.952  28.430  14.283
 4629W        W71412  12.129   8.947  12.584
 4630W        W71413  27.916  28.649   1.002
 4631W        W71414  14.722  35.955  11.217
 4632W        W71415  39.919  44.917  13.477
 4633W        W71416  29.650  34.924   3.311
 4634W        W71417  43.525   4.636  14.104
 4635W        W71418  28.578  34.148   2.841
 4636W        W71419  32.239  37.149   0.087
 4637W        W71420   4.183  13.218   3.291
 4638W        W71421  29.642  12.029  11.645
 4639W        W71422  21.049  39.093  14.912
 4640W        W71423   1.001   2.322   1.817
 4641W        W71424  16.344  36.854  12.352
 4642W        W71425  14.396  15.702   2.604
 4643W        W71426   1.054  39.631  11.019
 4644W        W71427  15.288   8.686  11.789
 4645W        W71428   2.485  14.728   3.316
 4646W        W71429  29.727  18.276   0.473
 4647W        W71430  27.606  27.046  13.378
 4648W        W71431  17.833  22.267  12.033
 4649W        W71432   8.281  23.610  11.866
 4650W        W71433   3.331  23.951   0.038
 4651W        W71434   7.878  33.541   4.480
 4652W        W71435  40.550  35.662  14.889
 4653W        W71436  22.187  10.205  14.246
 4654W        W71437  22.781   3.526  12.469
 4655W        W71438  16.129  13.584   2.877
 4656W        W71439  25.581  17.144   3.167
 4657W        W71440  10.852  32.983  14.933
 4658W        W71441  17.552  23.187  10.160
 4659W        W71442  38.945  26.732  14.445
 4660W        W71443   1.935   3.379   4.222
 4661W        W71444  13.727  15.762  11.236
 4662W        W71445  36.846  33.552  11.628
 4663W        W71446   1.274   5.727  10.695
 4664W        W71447   0.965   2.323   3.725
 4665W        W71448   7.325  18.986   2.496
 4666W        W71449  12.869  14.584   3.664
 4667W        W71450  28.593  16.225   3.879
 4668W        W71451  44.913   9.679   1.248
 4669W        W71452   9.057  22.533  11.223
 4670W        W71453  27.984  38.348  14.939
 4671W        W71454  43.620  44.507  11.617
 4672W        W71455  23.485  17.584   0.166
 4673W        W71456  18.790  43.964  11.920
 4674W        W71457  12.799  34.458   2.202
 4675W        W71458  14.437  37.272  10.243
 4676W        W71459  39.501  17.791   0.490
 4677W        W71460  33.463  13.028   4.560
 4678W        W71461  41.221  28.023   2.108
 4679W        W71462  43.433  13.627   2.239
 4680W        W71463  14.714   1.491   1.731
 4681W        W71464  15.244   3.700  14.239
 4682W        W71465   3.124  44.283  14.825
 4683W        W71466  13.307   4.569  12.009
 4684W        W71467  33.470  18.778   2.002
 4685W        W71468  30.440  12.181   0.704
 4686W        W71469  39.927  24.222  12.916
 4687W        W71470  43.303  28.702  11.613
 4688W        W71471  20.079  29.806   4.312
 4689W        W71472  28.489   4.457   4.161
 4690W        W71473   0.514  33.109   1.818
 4691W        W71474   2.860  24.718   4.943
 4692W        W71475  27.181  39.429   4.406
 4693W        W71476  13.335   5.767   4.158
 4694W        W71477  35.901   8.715   4.189
 4695W        W71478   1.564   2.378  11.308
 4696W        W71479  37.725  23.914  11.927
 4697W        W71480  25.130  14.233   1.277
 4698W        W71481  32.896  34.951  10.656
 4699W        W71482   5.935   9.883   0.840
 4700W        W71483  35.365  29.896   3.091
 4701W        W71484  34.631  40.094  12.542
 4702W        W71485  23.700  19.591   1.777
 4703W        W71486   3.798  21.202  11.472
 4704W        W71487  38.880  40.873  13.334
 4705W        W71488  26.562  14.315  12.122
 4706W        W71489  17.556  15.009   1.847
 4707W        W71490  30.749   1.939   1.687
 4708W        W71491  34.664  11.820   3.203
 4709W        W71492   7.523   2.793  11.123
 4710W        W71493  10.408   0.229  10.847
 4711W        W71494  11.881  11.315   2.301
 4712W        W71495  38.063  13.893   2.702
 4713W        W71496  17.286   0.433   4.657
 4714W        W71497  42.042  22.471   1.909
 4715W        W71498  38.845   9.720  11.536
 4716W        W71499   9.728  35.478   2.732
 4717W        W71500   3.257  32.803   2.089
 4718W        W71501  43.750  23.141   1.734
 4719W        W71502  40.049   3.848   1.821
 4720W        W71503  15.096  11.838  10.686
 4721W        W71504  27.286   3.717   3.228
 4722W        W71505  25.166  10.301  13.555
 4723W        W71506   3.838  27.485  11.128
 4724W        W71507  18.340  28.062   1.656
 4725W        W71508  27.080  31.390  13.661
 4726W        W71509  39.505   5.823   1.465
 4727W        W71510   5.276  29.681  14.001
 4728W        W71511   2.824  35.349   4.797
 4729W        W71512   4.993  33.419   5.211
 4730W        W71513   3.468  23.046   0.322
 4731W        W71514  30.596  23.722  12.461
 4732W        W71515   5.980  33.462  10.623
 4733W        W71516  17.356  42.316  13.418
 4734W        W71517   5.350   0.097   4.126
 4735W        W71518  21.744  19.695   4.175
 4736W        W71519  24.878   5.794  14.230
 4737W        W71520  24.295  27.967  13.401
 4738W        W71521  28.218  10.957   0.922
 4739W        W71522   9.475   1.788   2.425
 4740W        W71523   3.171  16.650  14.825
 4741W        W71524   9.712  32.847   1.233
 4742W        W71525  11.083  40.830  10.796
 4743W        W71526  20.210   6.348   1.210
 4744W        W71527  11.638   6.737  10.758
 4745W        W71528  42.515  17.731   3.262
 4746W        W71529   3.049  42.721   2.269
 4747W        W71530  43.306  13.252   1.378
 4748W        W71531  24.359  35.531  14.787
 4749W        W71532   7.704  22.237  11.085
 4750W        W71533  15.715  30.099   0.774
 4751W        W71534  23.744  29.450   4.076
 4752W        W71535  35.472   0.210  13.107
 4753W        W71536  20.906  44.262   3.625
 4754W        W71537  15.769  16.237   3.814
 4755W        W71538  33.594   7.006  12.117
 4756W        W71539  42.799  14.766   3.674
 4757W        W71540   4.160  20.050   4.176
 4758W        W71541   0.238  35.006   4.812
 4759W        W71542  29.009  14.783  12.372
 4760W        W71543  41.095   9.142   0.749
 4761W        W71544  38.816  40.463   2.411
 4762W        W71545  37.556   8.247   3.686
 4763W        W71546   8.352  10.746  12.922
 4764W        W71547  17.756  34.527   1.084
 4765W        W71548  32.900  44.924  10.386
 4766W        W71549   1.526   4.631   1.667
 4767W        W71550   5.908  24.670   4.824
 4768W        W71551   6.403   8.448   9.996
 4769W        W71552  29.128  13.706  13.101
 4770W        W71553  12.033   3.853  13.791
 4771W        W71554   5.812  26.647   1.977
 4772W        W71555  32.977  21.764   2.400
 4773W        W71556  40.388  17.996  14.951
 4774W        W71557   1.737  19.676   3.733
 4775W        W71558  24.060   6.442   1.639
 4776W        W71559  40.499  19.732   3.686
 4777W        W71560  18.335  20.434   3.277
 4778W        W71561  41.385  10.325  10.699
 4779W        W71562   6.728  36.918  12.986
 4780W        W71563  22.991  22.620   1.310
 4781W        W71564  26.454  29.921  12.394
 4782W        W71565  37.564  27.168  11.538
 4783W        W71566   3.250  24.008   3.186
 4784W        W71567   0.926  29.457   3.103
 4785W        W71568  32.549   0.882   0.224
 4786W        W71569  28.561  21.012   3.321
 4787W        W71570  42.563  26.467   1.887
 4788W        W71571  23.046  29.628   0.959
 4789W        W71572   8.946  21.822   2.144
 4790W        W71573  40.115   2.867  11.033
 4791W        W71574  29.456  33.954   2.258
 4792W        W71575   7.211  30.245   2.803
 4793W        W71576  14.320   5.403   4.282
 4794W        W71577  18.048  22.072   3.176
 4795W        W71578  32.523  33.888  14.426
 4796W        W71579  35.728   3.345  13.851
 4797W        W71580  16.332  19.213  13.812
 4798W        W71581  33.467  24.672   1.714
 4799W        W71582  27.688  25.004  13.523
 4800W        W71583   7.305  17.557  12.897
 4801W        W71584  16.552  25.159  11.537
 4802W        W71585  16.288   6.925  14.349
 4803W        W71586   4.342   7.879   1.426
 4804W        W71587  23.823  37.046   0.635
 4805W        W71588  21.248  21.111  11.072
 4806W        W71589   0.409  19.189  14.817
 4807W        W71590  25.147  19.631   0.493
 4808W        W71591   8.942  22.303  12.173
 4809W        W71592  28.025  10.242  10.552
 4810W        W71593  21.190  12.110  10.688
 4811W        W71594  37.249  26.011  13.342
 4812W        W71595  20.840  13.293   0.462
 4813W        W71596  43.823  21.730  11.312
 4814W        W71597  44.865   8.133  14.311
 4815W        W71598  13.384  19.840   2.857
 4816W        W71599  32.347  25.072  14.191
 4817W        W71600  43.223  18.671  13.920
 4818W        W71601  20.364   2.185   4.087
 4819W        W71602  12.294  34.166   4.677
 4820W        W71603  32.090  21.313   1.365
 4821W        W71604   4.638  34.443   1.473
 4822W        W71605  28.223  24.166   1.862
 4823W        W71606  21.160   2.625  13.893
 4824W        W71607  15.691  29.155   4.696
 4825W        W71608  23.141  32.419   3.170
 4826W        W71609  23.024  27.181   3.425
 4827W        W71610   2.755  37.137  12.139
 4828W        W71611   3.951  32.068   3.159
 4829W        W71612  20.315  20.033  10.734
 4830W        W71613  19.258  21.058  12.146
 4831W        W71614  20.674  31.726   2.862
 4832W        W71615  21.333  37.730  10.246
 4833W        W71616  37.981  33.140  12.400
 4834W        W71617   2.366  40.710  12.110
 4835W        W71618  23.664   6.888  12.945
 4836W        W71619  11.760  35.013   3.185
 4837W        W71620  25.532  35.400   2.884
 4838W        W71621   7.996  11.336   4.680
 4839W        W71622  27.930  32.639  14.832
 4840W        W71623  24.127  26.613  12.144
 4841W        W71624  26.522  41.752   3.845
 4842W        W71625   7.350  32.759  10.733
 4843W        W71626  22.699  18.284   0.238
 4844W        W71627  14.330  32.475  12.348
 4845W        W71628  33.094  25.720  10.927
 4846W        W71629  16.194  27.093   2.926
 4847W        W71630  41.167  34.390   2.644
 4848W        W71631  40.817  19.632   4.266
 4849W        W71632  21.735  19.787   1.760
 4850W        W71633  18.222  15.711   3.115
 4851W        W71634  30.872  25.666   3.666
 4852W        W71635  25.994  36.735   1.813
 4853W        W71636  20.155  21.871  13.469
 4854W        W71637  24.455  24.683   0.789
 4855W        W71638  19.151  19.996  13.896
 4856W        W71639   7.271  37.784  11.146
 4857W        W71640  19.718  33.788   3.776
 4858W        W71641   0.480  15.256  13.918
 4859W        W71642  12.072  41.061   1.296
 4860W        W71643  41.549  16.116  10.878
 4861W        W71644  25.498  43.286  12.422
 4862W        W71645  35.983  44.749  14.476
 4863W        W71646   3.657  29.035   2.199
 4864W        W71647  11.060  12.713   1.650
 4865W        W71648   6.537  11.661   2.746
 4866W        W71649  32.610  33.751   0.022
 4867W        W71650  12.349   4.729  12.939
 4868W        W71651  22.208  35.384  10.456
 4869W        W71652  19.152  40.406   3.341
 4870W        W71653  38.782  21.176  10.623
 4871W        W71654  14.175   3.416  14.612
 4872W        W71655  35.818  25.525  11.391
 4873W        W71656  28.031  39.092  11.088
 4874W        W71657   8.229  14.287  11.410
 4875W        W71658  16.850  19.205   2.737
 4876W        W71659   5.537  33.111  10.998
 4877W        W71660  29.579   9.166   2.243
 4878W        W71661  27.622  37.804   4.478
 4879W        W71662  28.655  44.006  14.428
 4880W        W71663  20.209  28.501  12.537
 4881W        W71664  16.739   6.831  14.058
 4882W        W71665  15.181  25.986   2.175
 4883W        W71666  25.175   5.426   4.561
 4884W        W71667   6.713  26.914   3.719
 4885W        W71668   8.280  21.531   3.919
 4886W        W71669   6.710   7.905  13.335
 4887W        W71670  10.805   4.796  10.692
 4888W        W71671   5.900  22.723  12.821
 4889W        W71672  43.375   0.932  14.868
 4890W        W71673  31.176  17.281   3.631
 4891W        W71674  23.779   8.576   1.419
 4892W        W71675  20.061   3.678  11.625
 4893W        W71676  34.343  40.512  12.628
 4894W        W71677  20.270  30.076   0.209
 4895W        W71678   9.286  31.598  13.294
 4896W        W71679  25.110  18.005   4.815
 4897W        W71680  10.319  23.013  11.963
 4898W        W71681  16.627   2.306   1.219
 4899W        W71682   3.230  15.165  13.498
 4900W        W71683   0.262  35.846   1.273
 4901W        W71684   9.488  21.973  13.834
 4902W        W71685   1.301  21.743   0.764
 4903W        W71686  20.774   1.484  11.905
 4904W        W71687  27.998   3.342  10.348
 4905W        W71688   7.715  32.404  12.378
 4906W        W71689  22.468  21.396  12.963
 4907W        W71690  18.720  38.768  12.080
 4908W        W71691   3.833  42.695   1.768
 4909W        W71692  33.865  36.367   1.989
 4910W        W71693  38.344  13.139  13.892
 4911W        W71694  29.847  38.306  14.264
 4912W        W71695   1.949  34.246  11.540
 4913W        W71696  27.437   3.252   3.523
 4914W        W71697  10.395  26.634  11.825
 4915W        W71698   8.253  30.151  12.807
 4916W        W71699   3.624  29.616   3.670
 4917W        W71700   8.305  38.079  13.234
 4918W        W71701  27.284  44.846  14.010
 4919W        W71702  37.090  27.235  14.235
 4920W        W71703  17.077  43.237  11.113
 4921W        W71704   2.640   8.823   2.044
 4922W        W71705   0.569   3.265  13.441
 4923W        W71706  35.441  18.530   4.506
 4924W        W71707  13.697  15.105  14.558
 4925W        W71708  16.523  34.531   0.066
 4926W        W71709  42.957  30.890  13.845
 4927W        W71710  19.956   6.846  13.988
 4928W        W71711  27.166  42.558   0.464
 4929W        W71712  17.547   0.319  12.650
 4930W        W71713  28.223  16.757  10.877
 4931W        W71714  40.794  34.532  11.110
 4932W        W71715  37.849  32.496  14.492
 4933W        W71716  34.072  39.086  11.906
 4934W        W71717  12.210  18.995   2.759
 4935W        W71718  43.863   7.384   0.498
 4936W        W71719  33.932   5.806   1.054
 4937W        W71720  26.724   1.227  12.509
 4938W        W71721  28.989   8.162  12.654
 4939W        W71722  42.158  37.156  11.975
 4940W        W71723   0.265  11.757   1.649
 4941W        W71724  42.561  17.637  13.266
 4942W        W71725  12.765  33.577   4.044
 4943W        W71726   8.503  21.582  13.311
 4944W        W71727   4.728   2.738   3.138
 4945W        W71728  40.515  16.380  11.077
 4946W        W71729   2.000  43.842  14.485
 4947W        W71730   7.270  36.552   4.430
 4948W        W71731  22.694  16.869  10.750
 4949W        W71732  29.700  37.356   2.119
 4950W        W71733  27.141   8.393   1.887
 4951W        W71734  25.759  30.662  11.054
 4952W        W71735  30.267  33.372   0.343
 4953W        W71736  42.348  36.457   0.432
 4954W        W71737  21.889  25.242   4.657
 4955W        W71738   0.407  31.678  12.329
 4956W        W71739   9.871  43.934   2.756
 4957W        W71740  29.043  15.630   1.294
 4958W        W71741  26.680  33.557   0.290
 4959W        W71742  36.332  43.469  12.969
 4960W        W71743  21.760  28.958   3.968
 4961W        W71744  21.174  13.538   0.092
 4962W        W71745   0.760  28.017  13.136
 4963W        W71746  34.455  29.495   2.284
 4964W        W71747  18.136  24.115   2.845
 4965W        W71748  16.659  39.336  14.447
 4966W        W71749   6.863  26.049  10.662
 4967W        W71750  44.839  42.540  12.017
 4968W        W71751  43.507  18.160  13.902
 4969W        W71752  17.703  27.700   0.083
 4970W        W71753  33.478  30.206  11.550
 4971W        W71754  21.110  20.793  10.543
 4972W        W71755  25.093  42.926  11.256
 4973W        W71756  10.953  20.120   0.734
 4974W        W71757  30.113  42.785   2.611
 4975W        W71758  24.498   6.261  14.619
 4976W        W71759   0.613  30.854  12.027
 4977W        W71760  20.516  28.828  10.882
 4978W        W71761  42.560  16.739  11.190
 4979W        W71762  43.750  44.309   0.197
 4980W        W71763  16.042  29.691  10.642
 4981W        W71764  16.270  17.311   3.607
 4982W        W71765  30.580  15.581   0.173
 4983W        W71766  26.675  17.659  11.500
 4984W        W71767  18.529  37.895   4.879
 4985W        W71768  37.605  18.137  10.702
 4986W        W71769  20.811  31.416   0.447
 4987W        W71770  24.188  33.050   2.172
 4988W        W71771  16.599  12.379  14.299
 4989W        W71772  29.654  39.833  12.659
 4990W        W71773   0.925  19.235  14.853
 4991W        W71774  10.835  16.649   3.844
 4992W        W71775  30.338  16.186   1.777
 4993W        W71776   6.209   7.956   2.437
 4994W        W71777  29.929   1.773   1.332
 4995W        W71778   2.340  43.372   4.249
 4996W        W71779  26.921  12.112   2.854
 4997W        W71780  32.398  30.527  13.342
 4998W        W71781  30.421  34.026  12.107
 4999W        W71782  13.673  23.515  10.709
 5000W        W71783  32.509  28.395  14.937
 5001W        W71784  30.632  44.760   1.862
 5002W        W71785  32.743  23.761   3.099
 5003W        W71786   3.628  28.208   4.060
 5004W        W71787   8.944  14.207  11.281
 5005W        W71788  30.714   9.692  14.193
 5006W        W71789  16.043  22.441  13.482
 5007W        W71790   4.634  24.299  14.453
 5008W        W71791  38.883  25.145   5.357
 5009W        W71792  14.421   2.209   2.724
 5010W        W71793  20.621  14.658  11.150
 5011W        W71794  29.355  10.712   2.167
 5012W        W71795  16.640  31.146   3.178
 5013W        W71796  18.201  37.035   2.460
 5014W        W71797  21.834  22.305   3.833
 5015W        W71798  22.975   9.947  12.625
 5016W        W71799   6.851   8.796   2.838
 5017W        W71800   1.786  14.770  10.690
 5018W        W71801  25.018   0.719   4.112
 5019W        W71802  36.496  15.825   9.879
 5020W        W71803  27.917   1.351  12.910
 5021W        W71804  24.848  33.902  13.603
 5022W        W71805   4.732  38.853   4.650
 5023W        W71806   4.891  10.477  12.278
 5024W        W71807  42.754   0.315  11.884
 5025W        W71808  44.385  16.157   3.149
 5026W        W71809   2.824  36.375   3.392
 5027W        W71810   2.287   7.914  14.030
 5028W        W71811  43.451  19.665   3.110
 5029W        W71812   0.759   8.290  12.359
 5030W        W71813  11.654  31.276  12.918
 5031W        W71814   5.742  43.536   1.103
 5032W        W71815  35.096   3.249  12.193
 5033W        W71816  27.497   9.122   2.102
 5034W        W71817  36.376  42.582  11.638
 5035W        W71818   4.883  39.544  14.933
 5036W        W71819  29.890  12.729  12.036
 5037W        W71820   8.867  35.527   0.047
 5038W        W71821  29.487  32.931   0.386
 5039W        W71822  11.144  21.995   0.504
 5040W        W71823  28.687  36.879  13.951
 5041W        W71824  23.068  28.670   2.320
 5042W        W71825  12.543  33.299   1.404
 5043W        W71826  13.248  18.222   3.652
 5044W        W71827  37.856   1.501   3.788
 5045W        W71828   6.570  10.153   0.296
 5046W        W71829   8.128  20.766   2.724
 5047W        W71830  15.962   1.234   2.649
 5048W        W71831   0.434   8.346  11.442
 5049W        W71832  16.584  19.794  13.070
 5050W        W71833  42.448  15.794   3.534
 5051W        W71834  40.604   7.731   0.171
 5052W        W71835  44.194  38.855   4.056
 5053W        W71836   3.253  10.682  13.363
 5054W        W71837  20.516  17.613   0.465
 5055W        W71838  22.717  17.193  14.407
 5056W        W71839   7.142  30.474  13.927
 5057W        W71840  15.624  31.464   1.182
 5058W        W71841  40.381  23.946  12.946
 5059W        W71842  19.515  36.263   4.563
 5060W        W71843  14.231  40.876   5.360
 5061W        W71844  15.552  16.800  14.401
 5062W        W71845  30.251  42.205   9.987
 5063W        W71846  41.949  19.039   0.360
 5064W        W71847  36.313  24.667  11.956
 5065W        W71848  28.954   8.964   4.961
 5066W        W71849   5.989   3.380  12.888
 5067W        W71850  15.975  39.739   1.159
 5068W        W71851  25.947  25.014   0.535
 5069W        W71852  10.280   0.851  12.598
 5070W        W71853  23.238   1.853   3.653
 5071W        W71854  13.404  24.055  12.933
 5072W        W71855   2.385   3.740   2.299
 5073W        W71856  28.596  21.468   4.665
 5074W        W71857  29.056  11.046  13.360
 5075W        W71858  28.442  16.639  10.425
 5076W        W71859  35.345  23.239   3.077
 5077W        W71860  19.749  18.361   1.350
 5078W        W71861  11.544  24.924  12.425
 5079W        W71862   6.722  17.497  10.676
 5080W        W71863  40.006  29.134  12.345
 5081W        W71864  10.354  16.327   3.448
 5082W        W71865  24.362  24.191  11.534
 5083W        W71866  13.031  12.268  11.352
 5084W        W71867   0.467  21.676  12.566
 5085W        W71868  33.324  17.119  14.365
 5086W        W71869  30.715  28.454   0.541
 5087W        W71870  34.862  17.443   0.722
 5088W        W71871  10.196   0.688   4.125
 5089W        W71872  42.455  32.560   1.802
 5090W        W71873  43.469  24.650   1.484
 5091W        W71874   9.330  37.856   1.086
 5092W        W71875  43.966   0.550  10.668
 5093W        W71876  14.696  25.025  14.606
 5094W        W71877  19.495   4.675   0.390
 5095W        W71878   2.674  35.243  14.340
 5096W        W71879  26.247   7.766   4.577
 5097W        W71880  41.576  28.065   3.668
 5098W        W71881  30.235  28.854  14.968
 5099W        W71882  10.312  12.328   3.157
 5100W        W71883  19.920   3.490  11.156
 5101W        W71884  40.827  16.699   3.716
 5102W        W71885   7.263  43.249  14.875
 5103W        W71886  12.372  28.907   0.737
 5104W        W71887  31.465  43.827  13.481
 5105W        W71888   6.818  29.366   1.346
 5106W        W71889   7.237  23.454   2.166
 5107W        W71890  41.817  36.849  10.482
 5108W        W71891  10.787  10.829   4.101
 5109W        W71892  23.192   5.365   4.428
 5110W        W71893  36.494   2.938  12.885
 5111W        W71894  15.644  37.980   0.892
 5112W        W71895  26.629   4.002  14.943
 5113W        W71896  42.378  38.578   3.903
 5114W        W71897  10.273  19.598  11.122
 5115W        W71898  29.788  18.288  12.849
 5116W        W71899  15.774  25.015   3.502
 5117W        W71900  39.931  29.653  13.834
 5118W        W71901  18.118  11.683  14.806
 5119W        W71902  26.410  13.450  12.392
 5120W        W71903  21.614  42.484   4.647
 5121W        W71904  39.506   3.341   2.486
 5122W        W71905  34.319  11.408   3.208
 5123W        W71906  17.792   4.272   2.659
 5124W        W71907  42.313   0.925  14.582
 5125W        W71908  25.403  36.266  11.905
 5126W        W71909  15.166   1.764  14.772
 5127W        W71910   6.764   1.192  11.057
 5128W        W71911  18.298   8.889   4.539
 5129W        W71912   0.996  29.730   0.922
 5130W        W71913  41.409  11.238   4.149
 5131W        W71914  31.364   9.310   1.244
 5132W        W71915  13.046   6.143   0.416
 5133W        W71916   8.291   8.835   2.819
 5134W        W71917   0.063  16.077   1.209
 5135W        W71918   8.338   6.878   4.879
 5136W        W71919   4.494  16.515  14.422
 5137W        W71920  17.965   5.894   1.409
 5138W        W71921  30.461  12.740  14.761
 5139W        W71922  33.430  35.916   0.258
 5140W        W71923  19.205   1.382   0.482
 5141W        W71924  26.286  16.002   1.395
 5142W        W71925  22.068  20.760   3.242
 5143W        W71926   2.375  24.581  12.154
 5144W        W71927   4.426  37.265   2.291
 5145W        W71928  27.043  37.117  12.492
 5146W        W71929  22.591  30.701  14.879
 5147W        W71930   1.007   5.287   4.731
 5148W        W71931  16.669  23.731  12.327
 5149W        W71932  26.450  30.486   2.994
 5150W        W71933  11.248   7.790   4.092
 5151W        W71934  26.022   1.718   0.759
 5152W        W71935  24.130   9.818   0.961
 5153W        W71936   0.719  41.080  12.479
 5154W        W71937  16.352   1.796   4.332
 5155W        W71938   5.221   7.856  14.853
 5156W        W71939  14.697  32.387  11.973
 5157W        W71940  22.362  27.996   5.353
 5158W        W71941  41.962  33.621   3.227
 5159W        W71942  32.695  39.048   0.984
 5160W        W71943  13.568  22.160   4.584
 5161W        W71944  12.129  31.947   3.764
 5162W        W71945   0.692  20.347  11.180
 5163W        W71946  43.516  19.515  11.669
 5164W        W71947  39.603  42.798  12.840
 5165W        W71948  44.437  31.511   1.886
 5166W        W71949  21.647   3.004   1.404
 5167W        W71950   9.105  28.443  12.491
 5168W        W71951  33.460  16.186  10.445
 5169W        W71952  16.019  33.520  12.574
 5170W        W71953  27.444  15.094  14.369
 5171W        W71954  17.684  20.587   1.855
 5172W        W71955  22.585  31.976   1.845
 5173W        W71956  27.136  18.633  14.178
 5174W        W71957  14.626   8.592  10.128
 5175W        W71958  15.229  23.567  10.653
 5176W        W71959  35.570  16.406   2.713
 5177W        W71960  26.255  38.887   4.913
 5178W        W71961  30.616  39.782  11.124
 5179W        W71962  21.109  25.608  10.751
 5180W        W71963  26.643  12.845   1.475
 5181W        W71964  12.204   4.081  14.770
 5182W        W71965   5.831  22.084   3.246
 5183W        W71966  24.246  37.810   1.349
 5184W        W71967   5.364  19.475   1.452
 5185W        W71968  42.380  28.069  14.345
 5186W        W71969  15.374  39.368   4.570
 5187W        W71970  25.659   4.716  11.353
 5188W        W71971   6.894  40.567   1.834
 5189W        W71972   9.344   5.146   0.854
 5190W        W71973   8.742  33.686   4.299
 5191W        W71974  39.091  11.692   3.672
 5192W        W71975  43.347  38.232  12.851
 5193W        W71976  18.702  11.374   2.802
 5194W        W71977  27.474  31.067  14.442
 5195W        W71978  11.429  42.997  13.440
 5196W        W71979  38.328  35.092   0.391
 5197W        W71980  13.747   2.515   4.333
 5198W        W71981  29.086  14.781  14.926
 5199W        W71982  18.649  21.724   1.526
 5200W        W71983  33.436  34.441  14.969
 5201W        W71984  28.054  21.137   3.505
 5202W        W71985  32.514   7.099   5.140
 5203W        W71986  14.509  42.621  11.412
 5204W        W71987  17.327  30.179  13.514
 5205W        W71988  19.321  14.581  11.597
 5206W        W71989  25.726  43.946  14.062
 5207W        W71990  22.118  28.519  11.505
 5208W        W71991  33.388  13.761   1.493
 5209W        W71992  28.167  17.256  14.773
 5210W        W71993  37.870  40.839  12.972
 5211W        W71994  16.740  21.705   3.202
 5212W        W71995  40.396  22.932  12.896
 5213W        W71996  10.027  19.060  14.244
 5214W        W71997  33.468  26.777   3.625
 5215W        W71998  22.499  28.235  14.557
 5216W        W71999  27.487   3.370   0.301
 5217W        W72000   1.973  28.170  11.108
 5218W        W72001   4.837  29.097   5.008
 5219W        W72002  27.687  42.452   1.411
 5220W        W72003  40.312  17.651   4.719
 5221W        W72004  18.797  24.760   0.839
 5222W        W72005   1.014  32.464  12.323
 5223W        W72006   2.723  41.204  14.993
 5224W        W72007  17.548  29.374   1.753
 5225W        W72008  10.486  30.537   3.954
 5226W        W72009  36.768   0.221   4.945
 5227W        W72010  25.250  35.020   3.814
 5228W        W72011  25.520  16.362  10.529
 5229W        W72012  16.068   4.865  13.159
 5230W        W72013  31.076  27.574  14.697
 5231W        W72014  19.718  20.363   3.242
 5232W        W72015  18.120  31.926  13.352
 5233W        W72016  43.991  40.305  10.493
 5234W        W72017  18.623   2.714  13.489
 5235W        W72018  14.495   9.168  11.579
 5236W        W72019   9.540  39.929   3.632
 5237W        W72020  21.008  33.165   5.472
 5238W        W72021  22.490  27.781   4.159
 5239W        W72022  14.798  20.715   0.941
 5240W        W72023  14.382  25.696   4.135
 5241W        W72024   0.027  14.054   5.012
 5242W        W72025   2.195   0.766   4.716
 5243W        W72026   4.142  13.863  14.162
 5244W        W72027  18.620  29.956  11.530
 5245W        W72028  30.730  41.553  13.808
 5246W        W72029  11.357   4.492  11.457
 5247W        W72030  42.530  28.541  11.215
 5248W        W72031   4.925  22.158   3.247
 5249W        W72032   1.918  33.972   0.229
 5250W        W72033  16.650  17.844   4.390
 5251W        W72034  33.779  43.307  11.096
 5252W        W72035  33.204  41.443  11.060
 5253W        W72036   5.419  21.475  11.109
 5254W        W72037  28.283  36.305   3.192
 5255W        W72038  30.006  41.744   0.730
 5256W        W72039  18.646   4.426   2.132
 5257W        W72040  34.838  40.099  14.421
 5258W        W72041   3.471   7.434  14.817
 5259W        W72042  36.550   9.027  13.197
 5260W        W72043  11.249  24.560   1.449
 5261W        W72044  23.776  40.162  11.065
 5262W        W72045  42.937   0.275   1.187
 5263W        W72046  41.945   2.416   4.521
 5264W        W72047  33.603   1.532  12.447
 5265W        W72048   9.767  13.443   2.885
 5266W        W72049  26.308  23.378  14.280
 5267W        W72050  10.465  37.022   3.170
 5268W        W72051  24.592   7.392  13.207
 5269W        W72052  15.618  25.995  13.961
 5270W        W72053  19.330  38.563   3.218
 5271W        W72054   7.378  43.693   0.183
 5272W        W72055  11.840   1.467   0.046
 5273W        W72056  11.553  21.180  13.384
 5274W        W72057  39.313  29.072   4.344
 5275W        W72058  11.696   7.688  14.864
 5276W        W72059  16.769  42.825  11.017
 5277W        W72060  23.026  33.493  14.022
 5278W        W72061  21.754  41.010   3.524
 5279W        W72062   1.856  21.423   3.667
 5280W        W72063   6.872  22.540   0.199
 5281W        W72064  12.614  19.341  12.815
 5282W        W72065  30.021  25.037   0.895
 5283W        W72066  22.211  13.693   2.832
 5284W        W72067  20.991  18.481  13.566
 5285W        W72068   7.211  36.856  11.688
 5286W        W72069  16.550  43.286   1.521
 5287W        W72070  23.477   2.494   1.327
 5288W        W72071   2.682  30.825   1.808
 5289W        W72072   2.696  37.544  14.057
 5290W        W72073  18.686  19.626  10.905
 5291W        W72074  33.945   5.349  10.923
 5292W        W72075  17.143  40.148  13.413
 5293W        W72076  41.172  37.458   2.011
 5294W        W72077  21.486  16.959  10.306
 5295W        W72078  21.636  23.609   4.526
 5296W        W72079   4.309  21.613  12.528
 5297W        W72080  34.029  17.201  13.602
 5298W        W72081  16.060  20.643   0.462
 5299W        W72082   8.716  34.556   2.193
 5300W        W72083   4.776  31.517   0.875
 5301W        W72084  38.962  15.339  10.763
 5302W        W72085  17.335  33.529   3.591
 5303W        W72086  43.393  20.708   3.194
 5304W        W72087  15.330   9.368   3.747
 5305W        W72088  17.688  31.666   0.636
 5306W        W72089  37.970  27.086   1.759
 5307W        W72090  31.403  27.613  10.697
 5308W        W72091  33.811   3.594  10.985
 5309W        W72092  17.277   6.397  14.940
 5310W        W72093  26.231  22.066   1.011
 5311W        W72094  35.388  28.160  13.035
 5312W        W72095   5.619  41.229  11.067
 5313W        W72096  23.758  20.239  13.272
 5314W        W72097  28.552   3.644  12.594
 5315W        W72098   2.092  15.608   0.815
 5316W        W72099  30.632  33.125  12.323
 5317W        W72100   1.641   0.129   0.289
 5318W        W72101   0.776  16.611   0.634
 5319W        W72102   4.354  25.135  12.452
 5320W        W72103  36.485  24.232   0.888
 5321W        W72104  28.176   7.107   4.030
 5322W        W72105  43.873  37.970  12.137
 5323W        W72106   9.648  33.382   1.233
 5324W        W72107  23.549  40.504   2.152
 5325W        W72108  37.847   1.052  14.815
 5326W        W72109  39.909   7.605   4.670
 5327W        W72110  31.917   1.396   0.513
 5328W        W72111  33.033  30.503   4.151
 5329W        W72112   3.742  40.136  13.854
 5330W        W72113   8.350  25.156   5.081
 5331W        W72114   6.903   0.914  14.551
 5332W        W72115  11.159  15.027   1.565
 5333W        W72116  30.923  20.679  14.162
 5334W        W72117   7.967  38.543   1.059
 5335W        W72118   1.488   7.760  11.357
 5336W        W72119  28.019  20.192   3.077
 5337W        W72120  24.207  25.662   2.642
 5338W        W72121   6.461   2.194  14.917
 5339W        W72122  15.628  15.588   3.278
 5340W        W72123  39.342   1.967   1.917
 5341W        W72124  18.030  17.861   1.436
 5342W        W72125   6.715   5.744   0.978
 5343W        W72126  36.944  26.934  10.777
 5344W        W72127  18.460  38.750   3.743
 5345W        W72128  36.446  44.946   0.371
 5346W        W72129  24.065  24.657  11.959
 5347W        W72130  23.066  28.557  14.928
 5348W        W72131  29.195  23.048   3.318
 5349W        W72132  30.051  15.849  11.547
 5350W        W72133  12.403  12.317   4.226
 5351W        W72134  37.299  33.065   1.810
 5352W        W72135  31.653  44.435  12.077
 5353W        W72136  25.963  35.981   3.726
 5354W        W72137  16.408  32.035  14.016
 5355W        W72138  41.817  41.328  10.321
 5356W        W72139  41.425  36.392  13.126
 5357W        W72140  41.895  16.843   2.147
 5358W        W72141  33.963  14.715   0.413
 5359W        W72142   5.912  11.347  11.873
 5360W        W72143   6.478  26.604  11.416
 5361W        W72144  34.561   6.618  13.671
 5362W        W72145  26.792  39.274   4.699
 5363W        W72146   2.922  19.808  13.787
 5364W        W72147  19.216  32.364   2.700
 5365W        W72148  28.294  13.229  10.778
 5366W        W72149  13.950   7.136   5.128
 5367W        W72150   0.791   2.965   4.662
 5368W        W72151  22.751  41.829   0.969
 5369W        W72152  11.110  43.389   1.874
 5370W        W72153  26.031  14.848   2.227
 5371W        W72154   5.778  44.635   0.814
 5372W        W72155  33.898  44.306   4.852
 5373W        W72156   7.912  36.762   0.080
 5374W        W72157  37.740   8.319   4.962
 5375W        W72158  43.555  44.373  13.825
 5376W        W72159   1.627  30.358   4.093
 5377W        W72160  31.070  16.827   3.441
 5378W        W72161  18.453  40.770   1.757
 5379W        W72162  36.643  44.805  10.886
 5380W        W72163  15.424  39.043   3.216
 5381W        W72164   3.648  36.445  13.984
 5382W        W72165  40.306  34.697  14.863
 5383W        W72166   4.463  14.273   4.610
 5384W        W72167  19.674  13.998   2.759
 5385W        W72168  28.383  25.526  10.934
 5386W        W72169   8.549  29.473   1.886
 5387W        W72170   5.710  43.346   1.618
 5388W        W72171   0.583  19.890   0.452
 5389W        W72172  42.339  28.522   2.758
 5390W        W72173  32.210  32.691   2.983
 5391W        W72174  21.591  44.637  12.344
 5392W        W72175   8.574  14.773   1.257
 5393W        W72176  35.080  28.040  13.478
 5394W        W72177  20.199  14.186  11.598
 5395W        W72178   1.175  13.817  12.496
 5396W        W72179  26.914  20.631  14.226
 5397W        W72180  43.182  42.454   1.713
 5398W        W72181   9.396   2.437   4.209
 5399W        W72182  11.162  24.934   0.292
 5400W        W72183  44.043  43.717  10.959
 5401W        W72184  28.251  22.008   0.861
 5402W        W72185   0.385  13.551  13.190
 5403W        W72186  24.458   8.354   2.669
 5404W        W72187  17.848  16.163  13.498
 5405W        W72188  15.695  40.126  14.160
 5406W        W72189  36.821  34.850   3.259
 5407W        W72190   4.762   3.002   0.435
 5408W        W72191  26.362  20.749   4.313
 5409W        W72192  21.129  44.918  10.633
 5410W        W72193  33.078  27.006   2.690
 5411W        W72194  35.331   3.702  12.779
 5412W        W72195  10.799  27.967   2.621
 5413W        W72196  43.169  18.733  11.903
 5414W        W72197  27.984  19.865   0.313
 5415W        W72198  40.092   9.256  10.729
 5416W        W72199  37.772  29.960  12.490
 5417W        W72200  26.776  13.614   4.312
 5418W        W72201  32.238   4.698  12.458
 5419W        W72202  37.773   8.718   0.912
 5420W        W72203  31.401  12.137   0.955
 5421W        W72204  31.264   2.376   1.333
 5422W        W72205  18.031  15.818   2.082
 5423W        W72206   5.427  14.511   4.290
 5424W        W72207  24.436  41.397   0.944
 5425W        W72208  22.650  21.084   3.176
 5426W        W72209  17.898  44.625   0.421
 5427W        W72210   4.707  38.316  11.638
 5428W        W72211  43.444  10.982   0.216
 5429W        W72212   5.264  17.329   3.271
 5430W        W72213  14.170   5.782   0.730
 5431W        W72214  20.242  29.459  10.675
 5432W        W72215   8.321  26.697  10.999
 5433W        W72216  39.354  38.981  13.349
 5434W        W72217  23.831  29.632  10.249
 5435W        W72218   2.989  21.580   0.703
 5436W        W72219  17.715   0.851  11.884
 5437W        W72220   0.937  37.963  12.637
 5438W        W72221  18.733  18.406   1.763
 5439W        W72222  22.191  14.370  10.620
 5440W        W72223   5.722  31.062   2.509
 5441W        W72224  34.576   9.833   9.761
 5442W        W72225  33.889  23.057   1.950
 5443W        W72226  13.348   0.806  12.418
 5444W        W72227  43.066   8.890  12.951
 5445W        W72228  11.212  27.823  11.202
 5446W        W72229  37.129  22.578   4.608
 5447W        W72230   3.221  39.014   0.456
 5448W        W72231  12.881   6.280  11.991
 5449W        W72232  24.423  23.127  11.035
 5450W        W72233  37.861   9.573   4.858
 5451W        W72234   0.297  18.100  12.492
 5452W        W72235   0.920  21.264  13.218
 5453W        W72236  16.780  41.900   1.832
 5454W        W72237  11.401   6.292  13.857
 5455W        W72238  12.342  35.867  12.056
 5456W        W72239   7.139  35.625   1.164
 5457W        W72240   9.225  34.502  11.647
 5458W        W72241  23.748  18.323  12.591
 5459W        W72242   7.854  28.029  12.089
 5460W        W72243  10.184  17.164   0.881
 5461W        W72244  33.891  41.521   1.218
 5462W        W72245  31.592  33.424   0.878
 5463W        W72246   3.249  16.311  11.619
 5464W        W72247   0.510  24.224  11.095
 5465W        W72248  43.236  23.566   2.957
 5466W        W72249  40.840  37.872  11.234
 5467W        W72250  21.500  40.837   0.728
 5468W        W72251  14.776  11.665   4.819
 5469W        W72252  42.509  31.777   1.388
 5470W        W72253  41.414  10.667  13.564
 5471W        W72254  21.176  22.765   4.384
 5472W        W72255   5.011  42.885   2.698
 5473W        W72256  12.140   7.131   0.670
 5474W        W72257  13.907  44.318  13.002
 5475W        W72258  21.515  33.981   1.685
 5476W        W72259  41.670  27.857  13.896
 5477W        W72260  15.789   6.128   3.765
 5478W        W72261  30.525  27.106  11.148
 5479W        W72262  38.529  10.097  14.313
 5480W        W72263  44.457  36.869  13.983
 5481W        W72264  40.535  10.402  10.361
 5482W        W72265  16.261  21.145  12.033
 5483W        W72266  42.864  21.427   4.144
 5484W        W72267  38.313  28.313   4.084
 5485W        W72268   9.179  23.992   0.265
 5486W        W72269   8.728  12.335   4.679
 5487W        W72270  16.307  22.049  13.288
 5488W        W72271  36.721  15.182   1.935
 5489W        W72272  30.525  16.518  12.178
 5490W        W72273  16.485  42.957   5.077
 5491W        W72274  41.056  25.483  14.955
 5492W        W72275  42.323  22.014   1.849
 5493W        W72276  30.941  21.654   2.729
 5494W        W72277  21.506  31.948  14.368
 5495W        W72278  39.005  16.518   2.254
 5496W        W72279   9.737  36.349  12.014
 5497W        W72280  36.746  14.806  12.195
 5498W        W72281  12.295  25.527  13.607
 5499W        W72282  31.206  25.981   2.810
 5500W        W72283   6.619  11.197   4.215
 5501W        W72284  44.037   7.742   1.795
 5502W        W72285  44.718   6.900  14.991
 5503W        W72286  38.804  42.497   2.088
 5504W        W72287  31.151  43.004  13.042
 5505W        W72288   1.052  34.055  12.517
 5506W        W72289  24.098  29.945   4.412
 5507W        W72290  38.097   3.424  12.480
 5508W        W72291  43.020  40.551  14.928
 5509W        W72292  29.483  36.109   3.856
 5510W        W72293  19.522  15.308   3.080
 5511W        W72294   4.268  42.777  10.117
 5512W        W72295  17.849  44.398   4.866
 5513W        W72296  24.165  18.188   4.181
 5514W        W72297  26.668  41.065   1.325
 5515W        W72298  31.477  14.810  13.895
 5516W        W72299  20.632  35.924   0.462
 5517W        W72300   1.937  18.662   1.155
 5518W        W72301  16.063  34.423  12.431
 5519W        W72302  12.600  35.392   3.542
 5520W        W72303  19.480   5.725  14.857
 5521W        W72304  14.720  11.840   2.459
 5522W        W72305  17.042   9.297   2.265
 5523W        W72306   8.920  18.154   0.381
 5524W        W72307   4.816  26.951   2.436
 5525W        W72308  39.291  21.287  13.962
 5526W        W72309  15.270  18.059   1.160
 5527W        W72310  11.828   7.407   2.474
 5528W        W72311  31.406   7.573  11.186
 5529W        W72312   8.216  22.064  12.438
 5530W        W72313  40.001  14.251   0.856
 5531W        W72314  22.439  44.820   1.489
 5532W        W72315   1.856  13.305  14.086
 5533W        W72316  28.315  30.539  12.542
 5534W        W72317  42.772   9.326   1.676
 5535W        W72318  17.819  44.248   4.074
 5536W        W72319  28.618   3.966  11.714
 5537W        W72320  44.201  29.163  13.650
 5538W        W72321  37.785  17.615  11.052
 5539W        W72322  38.467  44.041   4.197
 5540W        W72323  12.851  21.652  13.065
 5541W        W72324   8.695  14.603   4.134
 5542W        W72325  22.260  15.897  14.506
 5543W        W72326  29.962  26.526   1.243
 5544W        W72327   0.324  38.630  11.334
 5545W        W72328   8.124  27.443  14.048
 5546W        W72329  21.200   6.937  14.831
 5547W        W72330  42.617  41.904   3.370
 5548W        W72331  19.274  15.035  12.342
 5549W        W72332  22.665  14.608   4.053
 5550W        W72333  21.446  20.667  13.835
 5551W        W72334  39.884  21.942   0.810
 5552W        W72335  23.421  24.083   1.275
 5553W        W72336   4.676  25.341   1.282
 5554W        W72337  41.720   4.137  12.376
 5555W        W72338  29.442  10.642   3.078
 5556W        W72339   4.923   3.759  11.626
 5557W        W72340  25.785  34.891   3.622
 5558W        W72341  36.143  18.784   0.810
 5559W        W72342   3.986  20.630   0.268
 5560W        W72343   4.709  12.832  13.874
 5561W        W72344  42.072  11.117   0.753
 5562W        W72345  18.302  40.480  11.008
 5563W        W72346   5.629  41.770   3.066
 5564W        W72347  25.300  41.914   4.880
 5565W        W72348   1.371   5.833   1.188
 5566W        W72349  10.526  41.340  14.427
 5567W        W72350   7.296  24.288  11.150
 5568W        W72351  42.028  44.270  11.196
 5569W        W72352  40.820  18.776   1.680
 5570W        W72353  35.962  17.229  11.060
 5571W        W72354   0.661  27.067  13.031
 5572W        W72355   2.659  24.558  11.616
 5573W        W72356  44.816   3.732   2.675
 5574W        W72357  36.052  38.057  12.657
 5575W        W72358   7.937  27.065  12.225
 5576W        W72359  12.833   7.254  13.533
 5577W        W72360  19.889  18.099  13.852
 5578W        W72361  13.213  25.997   2.796
 5579W        W72362  24.985  39.384  11.553
 5580W        W72363   9.838   2.148  11.963
 5581W        W72364  36.361  37.944  11.955
 5582W        W72365  28.006   8.942   3.804
 5583W        W72366  30.416   4.758  11.463
 5584W        W72367   2.014  24.046   0.819
 5585W        W72368  13.799  40.047  14.889
 5586W        W72369  17.621  17.247  14.624
 5587W        W72370   4.519   9.522   2.693
 5588W        W72371  38.473  17.300  11.973
 5589W        W72372  27.392  22.833  11.507
 5590W        W72373  24.553  13.929  14.470
 5591W        W72374  31.262  39.618  11.172
 5592W        W72375  41.427   7.280  10.644
 5593W        W72376   3.298  33.955   4.649
 5594W        W72377   7.856  26.789  13.103
 5595W        W72378  23.099  16.674   4.574
 5596W        W72379  20.429  39.114   1.753
 5597W        W72380   9.095   3.971   2.463
 5598W        W72381  22.277  43.925  13.026
 5599W        W72382  40.815  25.215   2.717
 5600W        W72383  16.521  19.693   4.594
 5601W        W72384  42.488  15.123  13.385
 5602W        W72385  27.516  11.401  11.654
 5603W        W72386  26.526   3.853  12.604
 5604W        W72387   7.195  19.527   3.299
 5605W        W72388  41.128  21.970  13.517
 5606W        W72389   2.988  25.398   4.176
 5607W        W72390  38.104   9.889  13.396
 5608W        W72391   8.717  29.583  10.747
 5609W        W72392  31.395  41.774  14.899
 5610W        W72393   3.331  19.878  10.249
 5611W        W72394  32.986  44.987  13.500
 5612W        W72395  18.067  34.303   4.093
 5613W        W72396  30.944   1.038  13.357
 5614W        W72397  36.820   8.514   0.964
 5615W        W72398  11.979  17.098  14.297
 5616W        W72399  44.045  22.561   4.263
 5617W        W72400  10.263  44.733  12.446
 5618W        W72401  32.891  15.888  14.415
 5619W        W72402   8.302  10.762  10.980
 5620W        W72403   1.904  22.019   4.823
 5621W        W72404  19.614  15.634  14.733
 5622W        W72405  27.550  18.039   0.116
 5623W        W72406  16.211  20.228   1.730
 5624W        W72407  12.687   0.248  12.608
 5625W        W72408   3.395  18.136  13.577
 5626W        W72409  14.049   7.799  10.536
 5627W        W72410   3.417  17.792   2.397
 5628W        W72411  26.259  44.463  12.787
 5629W        W72412   6.518   0.874  10.658
 5630W        W72413   6.273  44.807   3.213
 5631W        W72414  18.113  32.320   1.524
 5632W        W72415  41.298   1.768   2.478
 5633W        W72416  29.598  40.608  12.131
 5634W        W72417  11.641   3.526  13.780
 5635W        W72418  28.567  22.381   2.263
 5636W        W72419  13.114  28.386   1.293
 5637W        W72420  36.410  20.766  10.423
 5638W        W72421   6.250  37.355   4.161
 5639W        W72422  20.112   1.500   0.464
 5640W        W72423  18.980   5.619  14.857
 5641W        W72424  28.221  33.139   4.303
 5642W        W72425  13.283  14.621  11.218
 5643W        W72426  43.263   0.943  12.962
 5644W        W72427  40.980  11.568  14.948
 5645W        W72428  29.019   4.947  11.249
 5646W        W72429  21.463  11.266   2.287
 5647W        W72430  25.635   4.837   3.466
 5648W        W72431  32.844  27.262   0.127
 5649W        W72432  19.590  39.517  14.264
 5650W        W72433   0.047  44.874  11.537
 5651W        W72434  41.156  31.911   4.014
 5652W        W72435  19.688  14.804  11.885
 5653W        W72436   6.381  19.248  13.926
 5654W        W72437  39.345  30.916   2.771
 5655W        W72438  34.376  42.746   1.015
 5656W        W72439   2.713  41.859  10.992
 5657W        W72440  17.182  11.026  10.757
 5658W        W72441  17.692  30.054   2.887
 5659W        W72442  29.957  42.538  14.281
 5660W        W72443   0.288  14.814   1.838
 5661W        W72444  41.808   2.491   0.913
 5662W        W72445  37.056  39.746  14.714
 5663W        W72446  40.519  17.649   0.392
 5664W        W72447  26.546  29.419   4.131
 5665W        W72448  38.604  32.781  12.517
 5666W        W72449  40.483  27.492   4.852
 5667W        W72450  24.424  35.023   4.523
 5668W        W72451  41.030  19.536   2.231
 5669W        W72452  20.799   7.759   3.605
 5670W        W72453  38.323  39.013  14.012
 5671W        W72454  35.345  38.551   4.425
 5672W        W72455  21.580   6.439   1.367
 5673W        W72456  11.788  12.688   0.980
 5674W        W72457   6.944  10.196   4.133
 5675W        W72458  44.225  34.050   1.398
 5676W        W72459  18.662  10.341  11.938
 5677W        W72460  42.808  43.245  14.954
 5678W        W72461  42.321   1.165   0.761
 5679W        W72462  19.003  22.227   4.352
 5680W        W72463  20.384  16.746  11.970
 5681W        W72464   4.359   0.557   3.699
 5682W        W72465  20.475   5.368  12.235
 5683W        W72466  10.868  40.864  14.349
 5684W        W72467  41.265  19.209  13.566
 5685W        W72468  18.260   7.678   2.344
 5686W        W72469  28.527   7.352   3.025
 5687W        W72470  19.530  33.820   0.303
 5688W        W72471  37.088  19.020   4.137
 5689W        W72472   2.552  18.174  10.784
 5690W        W72473  15.731  36.292   2.868
 5691W        W72474  28.010  41.396   2.608
 5692W        W72475  43.613   5.895   1.454
 5693W        W72476  33.320   5.429   1.475
 5694W        W72477  15.720   3.381   3.636
 5695W        W72478  17.052  35.780   2.112
 5696W        W72479  29.681  23.722  10.933
 5697W        W72480  29.566  29.895  11.634
 5698W        W72481  17.500   4.643  10.030
 5699W        W72482  19.247   3.969  14.373
 5700W        W72483  41.098  23.775  12.208
 5701W        W72484  22.101  14.684  14.808
 5702W        W72485  12.065  25.133  11.541
 5703W        W72486  23.927  42.978  14.741
 5704W        W72487  30.563   0.427  14.811
 5705W        W72488   3.343   5.677   0.286
 5706W        W72489  10.637  26.686   0.233
 5707W        W72490  39.796  14.655   2.760
 5708W        W72491  25.207   1.027   1.233
 5709W        W72492  24.178  23.165   3.989
 5710W        W72493  12.429  21.584   0.258
 5711W        W72494   3.370  16.912  12.998
 5712W        W72495   5.693   7.260   3.656
 5713W        W72496  39.089  25.024   0.898
 5714W        W72497   6.413  27.586  13.967
 5715W        W72498   1.725  36.954  11.063
 5716W        W72499  38.838  20.087   2.015
 5717W        W72500  15.031  38.177   3.311
 5718W        W72501  41.976  39.062  12.997
 5719W        W72502  11.767  26.430  10.257
 5720W        W72503   5.813   9.410   4.424
 5721W        W72504  44.572  16.538   2.396
 5722W        W72505  19.201  20.568   3.053
 5723W        W72506  30.648  17.609  14.355
 5724W        W72507  19.808  44.704   2.823
 5725W        W72508  33.018  17.720  10.408
 5726W        W72509  21.026  35.407  11.044
 5727W        W72510  42.333  23.155   3.923
 5728W        W72511  25.165  36.027  12.881
 5729W        W72512   5.625  28.740   1.069
 5730W        W72513  15.655  13.645  12.418
 5731W        W72514  21.433   1.877   4.145
 5732W        W72515  43.229  34.490   0.263
 5733W        W72516  30.164   2.780   3.866
 5734W        W72517  27.225  17.555   0.724
 5735W        W72518  17.368  37.811   1.006
 5736W        W72519  36.125  15.599   3.785
 5737W        W72520  33.030  31.634  10.591
 5738W        W72521  15.714  36.642  12.550
 5739W        W72522  27.036  39.026   3.869
 5740W        W72523  34.152  31.540   4.573
 5741W        W72524  25.570  37.203  10.296
 5742W        W72525  31.954   4.649   2.842
 5743W        W72526   0.497  26.056   5.085
 5744W        W72527  30.939  20.197  13.571
 5745W        W72528   9.645  30.023   0.948
 5746W        W72529  16.547  19.850   0.294
 5747W        W72530   3.241   1.011   4.365
 5748W        W72531  44.937   3.078   0.509
 5749W        W72532  19.389  26.468  14.750
 5750W        W72533  20.240   6.857   1.354
 5751W        W72534  31.721  38.516  12.244
 5752W        W72535  36.978  39.507   4.670
 5753W        W72536  42.336  30.041   3.135
 5754W        W72537   3.820  20.206  12.760
 5755W        W72538  36.306  42.195  11.305
 5756W        W72539  38.336  11.369  12.039
 5757W        W72540   5.279  36.347  10.673
 5758W        W72541  24.644   8.347   4.132
 5759W        W72542  31.797  39.761  13.707
 5760W        W72543  20.580  24.599  10.720
 5761W        W72544   7.713  16.077  11.629
 5762W        W72545  19.236   1.550   2.289
 5763W        W72546   5.806   3.250   4.633
 5764W        W72547  13.603  41.279   4.679
 5765W        W72548   3.142  19.680  13.311
 5766W        W72549  14.685   5.805   4.534
 5767W        W72550  38.304  38.972   0.898
 5768W        W72551  24.590  11.700  13.803
 5769W        W72552  41.996  40.801  11.593
 5770W        W72553  30.565   9.051  13.043
 5771W        W72554  28.396  43.300  12.095
 5772W        W72555  19.071  15.086   3.180
 5773W        W72556  29.308  38.731   4.091
 5774W        W72557  20.492  42.325  14.826
 5775W        W72558  37.918  16.875  12.959
 5776W        W72559  37.967  29.055   2.086
 5777W        W72560  44.791  31.971   1.271
 5778W        W72561  30.287  42.186   3.380
 5779W        W72562   6.407  28.426  13.480
 5780W        W72563  31.985  13.596  13.866
 5781W        W72564  31.183  20.404  12.605
 5782W        W72565  17.921  37.881  10.740
 5783W        W72566  29.541  42.900   0.107
 5784W        W72567  11.905  15.415  10.104
 5785W        W72568  11.374  24.020  11.466
 5786W        W72569  36.371   1.695  13.482
 5787W        W72570  22.010   5.481   2.377
 5788W        W72571  37.543  33.247   3.251
 5789W        W72572  43.148  27.277  14.075
 5790W        W72573  20.218  22.040   3.093
 5791W        W72574  11.938  15.819  11.801
 5792W        W72575  42.823  17.427   4.176
 5793W        W72576  30.661  10.902   1.703
 5794W        W72577  37.257  29.686   0.663
 5795W        W72578   7.301   7.894   2.845
 5796W        W72579  21.694   8.908   2.298
 5797W        W72580  10.848  34.996  11.201
 5798W        W72581   3.871  34.088   2.519
 5799W        W72582  36.420  17.493  11.151
 5800W        W72583  35.059  11.929  13.249
 5801W        W72584  12.750  36.911  12.421
 5802W        W72585  18.588  20.757   0.306
 5803W        W72586  40.319  35.015  10.750
 5804W        W72587  40.480  23.130  13.364
 5805W        W72588  18.017  42.788  13.859
 5806W        W72589  16.143  31.853   1.837
 5807W        W72590   2.267  44.489  10.168
 5808W        W72591  39.118  34.013   1.454
 5809W        W72592  23.806  20.650   2.704
 5810W        W72593  20.748  20.609  13.357
 5811W        W72594  27.821  43.877  10.931
 5812W        W72595  44.570  42.744  12.486
 5813W        W72596  11.865  13.627  12.517
 5814W        W72597  28.568  23.441  11.938
 5815W        W72598   3.945  29.028   3.856
 5816W        W72599  15.041  24.173   0.943
 5817W        W72600  30.700  37.387  13.936
 5818W        W72601   0.861  16.575  12.282
 5819W        W72602  38.097  26.163   0.552
 5820W        W72603  33.882  21.222  11.532
 5821W        W72604  17.348  17.979   0.455
 5822W        W72605  25.802  12.612  11.130
 5823W        W72606  35.446  16.335   3.977
 5824W        W72607   6.712  35.402  13.500
 5825W        W72608  15.776  25.540   4.795
 5826W        W72609  24.062  24.223  10.286
 5827W        W72610  38.147  29.428  11.606
 5828W        W72611   2.739   2.305   3.719
 5829W        W72612   3.835  20.667   2.858
 5830W        W72613  12.024   1.884   0.508
 5831W        W72614  26.036  39.538   0.812
 5832W        W72615  17.255  43.134  12.267
 5833W        W72616  38.585  11.360  13.455
 5834W        W72617  28.947   0.911   1.924
 5835W        W72618   1.990   2.253  13.947
 5836W        W72619  22.641  35.018   0.312
 5837W        W72620  28.462  35.885  14.847
 5838W        W72621  20.052  10.100  11.624
 5839W        W72622  16.464  37.341  14.958
 5840W        W72623  20.232  41.299   1.397
 5841W        W72624  10.785  42.148   3.693
 5842W        W72625  18.222  30.938   0.274
 5843W        W72626  39.448  17.625  12.994
 5844W        W72627  32.193  42.583   0.909
 5845W        W72628  33.477  32.019  12.608
 5846W        W72629  10.814  37.941   1.266
 5847W        W72630  14.292  27.096  14.616
 5848W        W72631  43.430  36.542  11.573
 5849W        W72632  21.125  25.176   4.992
 5850W        W72633   3.870  13.809   2.777
 5851W        W72634  26.715  37.122  10.720
 5852W        W72635  12.593  39.843  12.946
 5853W        W72636  19.547  28.381  11.884
 5854W        W72637  14.708   0.732   2.163
 5855W        W72638  18.302   7.631  13.436
 5856W        W72639  13.831  13.770  10.949
 5857W        W72640   4.862  26.557   3.270
 5858W        W72641  41.087   0.741  10.669
 5859W        W72642  37.842  12.729  12.088
 5860W        W72643  18.464  16.742  10.567
 5861W        W72644  28.413  17.617   3.419
 5862W        W72645  22.003   2.802   1.679
 5863W        W72646  34.551  29.197   3.219
 5864W        W72647  11.716  25.569  10.856
 5865W        W72648  34.310  34.922  13.403
 5866W        W72649  24.490  23.566   9.841
 5867W        W72650  14.316  37.519  12.176
 5868W        W72651  28.465  42.749   1.811
 5869W        W72652  18.130  25.544  14.975
 5870W        W72653  33.210  26.437  13.846
 5871W        W72654   3.639  43.314  10.720
 5872W        W72655  30.097  39.554  11.975
 5873W        W72656   5.304   8.145   4.177
 5874W        W72657  20.809  28.174  12.037
 5875W        W72658  20.693  28.107   1.224
 5876W        W72659  32.959  34.609  13.216
 5877W        W72660  13.308  13.331   1.247
 5878W        W72661   9.143   7.759   3.584
 5879W        W72662  43.052  33.340   1.443
 5880W        W72663   7.383  28.417  13.595
 5881W        W72664  18.148  16.845   0.775
 5882W        W72665  29.276  13.341  11.727
 5883W        W72666  35.358  39.562  11.609
 5884W        W72667  20.671   4.918   0.877
 5885W        W72668  35.611   1.648  12.764
 5886W        W72669  35.070  12.624  10.622
 5887W        W72670  16.176  20.154  10.712
 5888W        W72671  42.189  17.740   3.661
 5889W        W72672   1.367  12.352  13.736
 5890W        W72673  38.505   9.896   3.010
 5891W        W72674  40.371   0.352  11.496
 5892W        W72675  27.985   6.215   3.304
 5893W        W72676  15.556  34.371   3.388
 5894W        W72677   6.939  24.055   0.566
 5895W        W72678   0.951  14.614  12.169
 5896W        W72679  25.935  20.339   1.971
 5897W        W72680   3.905  32.034  10.623
 5898W        W72681  11.214  33.081  13.148
 5899W        W72682  34.268  21.634  12.927
 5900W        W72683  22.603  38.305   0.451
 5901W        W72684  23.154  40.997   1.228
 5902W        W72685  27.992  33.958  14.359
 5903W        W72686   8.035  44.027  11.653
 5904W        W72687  38.426  25.314  11.895
 5905W        W72688  20.511  19.661  11.728
 5906W        W72689  41.983  21.944  12.948
 5907W        W72690  41.462  27.119  12.532
 5908W        W72691  16.521  20.133   4.177
 5909W        W72692  17.957  18.133  11.491
 5910W        W72693  24.942  19.991  14.736
 5911W        W72694  40.915  44.280  14.963
 5912W        W72695  23.044  39.568   9.868
 5913W        W72696  23.532   9.384  13.345
 5914W        W72697  11.185  14.014   3.702
 5915W        W72698  26.723  18.933  13.474
 5916W        W72699  39.632  11.251   1.752
 5917W        W72700  10.621   9.343   2.775
 5918W        W72701  11.541   5.391  11.149
 5919W        W72702  32.311  31.081   0.719
 5920W        W72703  41.058  18.710  11.996
 5921W        W72704  39.801  24.891  11.182
 5922W        W72705  13.098  38.108   0.624
 5923W        W72706  39.384  12.293   1.725
 5924W        W72707   1.716  33.615   5.078
 5925W        W72708   6.353  18.197  14.361
 5926W        W72709   8.221   2.255  12.023
 5927W        W72710  13.143  15.109  13.831
 5928W        W72711   6.831  31.380  13.196
 5929W        W72712  32.705  38.004   4.231
 5930W        W72713  43.983  36.411  11.529
 5931W        W72714  26.215   0.754   0.796
 5932W        W72715  17.341  28.942   3.652
 5933W        W72716  13.681  24.841   4.167
 5934W        W72717  38.121  23.169  13.485
 5935W        W72718  24.951  27.907  12.895
 5936W        W72719   8.716   9.577  11.969
 5937W        W72720  44.752  43.543   2.413
 5938W        W72721   4.387  32.890   4.959
 5939W        W72722  42.596   5.638  14.005
 5940W        W72723  42.439  31.168   2.163
 5941W        W72724  41.238   7.786  11.627
 5942W        W72725   8.575  44.021   2.254
 5943W        W72726  32.499  19.487   0.437
 5944W        W72727  44.825   1.041   3.689
 5945W        W72728  23.998  33.899  13.759
 5946W        W72729  42.505  22.521  14.534
 5947W        W72730  23.951  13.083   4.540
 5948W        W72731  20.042  39.417  11.239
 5949W        W72732  20.668   5.588  11.001
 5950W        W72733  25.452   6.316  13.004
 5951W        W72734  32.191  17.739   3.305
 5952W        W72735  37.550  33.802   3.214
 5953W        W72736   0.466  20.935  10.784
 5954W        W72737  44.127  11.132   4.993
 5955W        W72738   3.460  24.490  14.419
 5956W        W72739  19.376  38.767  11.597
 5957W        W72740  28.106   6.480   2.342
 5958W        W72741   3.963  17.378   2.419
 5959W        W72742  26.729  27.034  12.439
 5960W        W72743  41.629  38.425  12.056
 5961W        W72744  19.094   4.458   4.930
 5962W        W72745  31.594  42.996   2.395
 5963W        W72746  36.874  37.731  11.093
 5964W        W72747  13.049  33.633   2.159
 5965W        W72748  22.645   1.261  12.015
 5966W        W72749  33.909  35.305  12.031
 5967W        W72750  30.876  18.466   4.469
 5968W        W72751   9.205   2.453  11.447
 5969W        W72752  20.887  29.868   1.996
 5970W        W72753  40.419  41.072   0.622
 5971W        W72754  25.414   3.401   0.653
 5972W        W72755  29.681  23.282  10.618
 5973W        W72756  10.354  40.810  12.471
 5974W        W72757  13.281  27.014  10.390
 5975W        W72758  10.370   1.917   4.602
 5976W        W72759   8.412  15.023  13.603
 5977W        W72760  19.606  15.790  13.393
 5978W        W72761  24.499  19.669   1.320
 5979W        W72762  12.178  20.690   4.959
 5980W        W72763   3.185  36.454  10.713
 5981W        W72764   1.177  21.066  10.357
 5982W        W72765  41.984  24.700   3.375
 5983W        W72766  33.082  25.254  12.848
 5984W        W72767  24.011   6.824   9.916
 5985W        W72768  34.504  18.680   1.686
 5986W        W72769  43.733   8.363   0.464
 5987W        W72770   7.665  15.111   2.207
 5988W        W72771  34.387  17.675   3.132
 5989W        W72772  20.007  27.187   1.208
 5990W        W72773  36.438  11.195   3.174
 5991W        W72774  39.469   2.165  12.074
 5992W        W72775  42.884  20.331  14.215
 5993W        W72776  18.875   9.631  13.502
 5994W        W72777   5.469   0.974   1.337
 5995W        W72778  33.904  41.328  13.906
 5996W        W72779  29.451  31.798   3.702
 5997W        W72780  14.086  16.558   4.503
 5998W        W72781  32.098  20.186   2.719
 5999W        W72782  10.689   4.494   4.712
 6000W        W72783  12.065   1.436   0.936
 6001W        W72784  12.226  13.219   4.005
 6002W        W72785  15.302  18.321  13.820
 6003W        W72786  44.874  16.552  14.326
 6004W        W72787  41.591  15.319  10.895
 6005W        W72788   0.530  29.713   2.918
 6006W        W72789  36.394  31.360   0.858
 6007W        W72790  17.771  38.595   1.215
 6008W        W72791  23.757  31.530   2.905
 6009W        W72792  13.245  39.973   5.089
 6010W        W72793  40.658  17.253   2.369
 6011W        W72794  38.002  13.654   0.247
 6012W        W72795  29.510   8.447  10.771
 6013W        W72796  38.927  44.550  12.617
 6014W        W72797  16.809  15.029  13.976
 6015W        W72798  23.735  18.130   3.679
 6016W        W72799  40.215   6.926  11.082
 6017W        W72800  15.461  33.147   0.536
 6018W        W72801  34.798  29.636  11.611
 6019W        W72802  28.080  26.969  13.140
 6020W        W72803  37.384  22.160  12.172
 6021W        W72804  14.202  21.544   3.479
 6022W        W72805   3.219  29.650   1.674
 6023W        W72806  25.301   0.726  11.433
 6024W        W72807  17.519  13.863  13.453
 6025W        W72808   0.785  26.202   2.102
 6026W        W72809  23.365  16.710   1.809
 6027W        W72810  38.495   8.765  13.125
 6028W        W72811   0.996  20.261  13.823
 6029W        W72812  20.185  22.139   2.594
 6030W        W72813   7.903  36.786   2.668
 6031W        W72814   1.750  44.428   2.247
 6032W        W72815   9.411  32.065  13.071
 6033W        W72816  42.959  14.350  13.312
 6034W        W72817   4.098  39.310   1.742
 6035W        W72818  28.141  10.861  11.961
 6036W        W72819  13.850  17.639  13.854
 6037W        W72820  19.652  16.114  14.938
 6038W        W72821  36.672  28.904   4.046
 6039W        W72822  10.789  11.874   1.316
 6040W        W72823  20.605  43.227  11.575
 6041W        W72824  40.785  24.651  12.567
 6042W        W72825  35.784   4.701   2.192
 6043W        W72826  22.169  31.883   0.218
 6044W        W72827  30.395  33.508   3.316
 6045W        W72828  25.554  25.829  14.404
 6046W        W72829  43.814  28.204   4.690
 6047W        W72830  13.159  33.044   3.661
 6048W        W72831  18.569  32.896  11.571
 6049W        W72832  26.643   8.903  13.185
 6050W        W72833  38.646  27.498   4.751
 6051W        W72834  23.750  31.738  11.033
 6052W        W72835  38.453  19.285  10.427
 6053W        W72836  18.266   2.755  12.456
 6054W        W72837  44.198  37.749   2.354
 6055W        W72838  30.225  44.630   0.632
 6056W        W72839  28.568  36.826   1.192
 6057W        W72840  29.638  32.967  13.325
 6058W        W72841  38.502   9.811   2.505
 6059W        W72842   9.677  23.098  10.882
 6060W        W72843  35.041  37.264   3.755
 6061W        W72844  21.263  18.026   4.580
 6062W        W72845  30.924  29.610  14.322
 6063W        W72846   9.778  19.778   0.866
 6064W        W72847  40.931  41.856  12.414
 6065W        W72848  44.757  34.468   4.385
 6066W        W72849   1.748  14.492   3.311
 6067W        W72850   7.724  32.739  11.982
 6068W        W72851  18.309   8.427   1.839
 6069W        W72852   6.644  27.918   4.145
 6070W        W72853  42.623  13.246  14.184
 6071W        W72854  20.608  23.950  12.919
 6072W        W72855  33.477  13.061  14.325
 6073W        W72856   6.301  12.848  13.009
 6074W        W72857   5.299  21.691   1.613
 6075W        W72858  36.640  16.239   1.323
 6076W        W72859  25.082  12.706  14.281
 6077W        W72860   5.026  10.338   4.559
 6078W        W72861  31.633  42.073   2.617
 6079W        W72862  31.905   6.814  11.621
 6080W        W72863  27.158  14.087  14.469
 6081W        W72864  25.605  41.820   2.874
 6082W        W72865  35.510  12.122  13.492
 6083W        W72866  23.065  21.269  12.423
 6084W        W72867  26.234  44.108  14.578
 6085W        W72868   1.381  31.382   2.341
 6086W        W72869   8.202  27.986  12.479
 6087W        W72870  13.810  35.099  14.192
 6088W        W72871  40.374  37.812   2.671
 6089W        W72872  13.947   3.131  11.563
 6090W        W72873  16.737  38.323   0.949
 6091W        W72874  32.073   3.686   0.347
 6092W        W72875  10.786  13.913  13.086
 6093W        W72876   4.943  20.232   4.559
 6094W        W72877  19.216  41.903  12.590
 6095W        W72878  33.336   1.011  14.090
 6096W        W72879  37.126  23.300   4.566
 6097W        W72880  15.572  11.653  11.553
 6098W        W72881   1.563  28.229  14.334
 6099W        W72882  24.315  22.780  11.576
 6100W        W72883  33.509  40.994   4.313
 6101W        W72884  27.188  16.100  14.317
 6102W        W72885  36.908  20.791  12.877
 6103W        W72886   1.936  24.818   4.942
 6104W        W72887  26.527   8.159  14.278
 6105W        W72888  31.400  25.277   0.781
 6106W        W72889  42.996   6.119   5.476
 6107W        W72890  10.072  36.843   9.800
 6108W        W72891   2.523   2.617  13.038
 6109W        W72892  25.098  24.522  11.027
 6110W        W72893  22.431  15.409  13.920
 6111W        W72894   1.498  42.069  14.983
 6112W        W72895   3.765  22.225   2.870
 6113W        W72896  25.143  28.624   4.625
 6114W        W72897   7.007   5.047   4.895
 6115W        W72898  32.912  25.527  11.402
 6116W        W72899   9.299   7.727  13.530
 6117W        W72900  20.779  38.489  14.840
 6118W        W72901  22.782  16.073   3.695
 6119W        W72902   2.789  35.904   3.668
 6120W        W72903  30.610  22.267  11.472
 6121W        W72904  41.943  34.682   1.975
 6122W        W72905  37.219  42.217  13.053
 6123W        W72906  22.412  26.952   4.599
 6124W        W72907   4.667  42.466   3.244
 6125W        W72908  38.583  34.597  14.406
 6126W        W72909  19.636  35.568  13.002
 6127W        W72910  13.811  33.663  14.485
 6128W        W72911  16.494  12.906   1.264
 6129W        W72912  42.026   9.837  11.059
 6130W        W72913  44.262  27.809   1.356
 6131W        W72914   3.986  29.246  14.582
 6132W        W72915   5.726   5.341  10.664
 6133W        W72916  14.137  23.502   1.912
 6134W        W72917  38.225   0.360  12.352
 6135W        W72918  36.581   1.262  12.081
 6136W        W72919  35.408   1.694  13.714
 6137W        W72920   1.977   1.963  10.649
 6138W        W72921  18.051   7.320  12.048
 6139W        W72922  26.192   5.800   3.474
 6140W        W72923  43.654  32.899   2.196
 6141W        W72924   7.327  20.554  14.936
 6142W        W72925  17.166  30.674  14.948
 6143W        W72926   3.735  13.778  11.569
 6144W        W72927  24.278  40.504  14.021
 6145W        W72928  21.730  33.842  14.331
 6146W        W72929  19.062  13.804   4.133
 6147W        W72930  16.588  23.545  14.403
 6148W        W72931  23.482  23.102  14.419
 6149W        W72932  41.413  17.564   1.921
 6150W        W72933  36.082  34.890  12.001
 6151W        W72934   6.649  41.963  11.772
 6152W        W72935  31.651  30.680   0.912
 6153W        W72936  39.947  31.222   0.743
 6154W        W72937  10.802   3.652   4.882
 6155W        W72938  26.206  22.463   1.342
 6156W        W72939  34.096   2.632   1.740
 6157W        W72940   0.017  18.215   2.790
 6158W        W72941   5.173  31.845  12.860
 6159W        W72942   4.779  42.809  10.743
 6160W        W72943  36.870   5.106   2.733
 6161W        W72944  35.594  27.248   2.244
 6162W        W72945   4.742  35.368   1.650
 6163W        W72946  29.732  33.509  14.278
 6164W        W72947  17.882  15.300   1.205
 6165W        W72948  16.162  39.830   4.250
 6166W        W72949  35.084  39.649  14.348
 6167W        W72950  30.345  25.695   3.720
 6168W        W72951  21.295  11.629  13.391
 6169W        W72952  28.104  40.839  13.902
 6170W        W72953  21.810  39.723   3.593
 6171W        W72954  22.528  37.317   3.298
 6172W        W72955  13.259   6.618   0.441
 6173W        W72956  21.634  18.621  10.713
 6174W        W72957  35.314   4.941   2.272
 6175W        W72958  13.133  14.815   3.276
 6176W        W72959  16.165   9.211   0.883
 6177W        W72960   4.872   6.879   2.881
 6178W        W72961   7.565   6.778   2.318
 6179W        W72962  17.999  38.982   3.883
 6180W        W72963  19.284   1.223   4.640
 6181W        W72964  12.180  35.606  12.465
 6182W        W72965  42.627   0.080   2.406
 6183W        W72966   9.640  39.107   0.734
 6184W        W72967  42.634  43.593  11.055
 6185W        W72968  29.690  41.260   1.750
 6186W        W72969   4.848  19.696  11.457
 6187W        W72970   8.593  18.674  14.694
 6188W        W72971  16.044  17.142  13.882
 6189W        W72972  28.534  44.944   2.851
 6190W        W72973   7.335  19.223  10.952
 6191W        W72974   1.609  44.327  14.807
 6192W        W72975  15.347  26.126   4.120
 6193W        W72976  32.821  32.617   4.594
 6194W        W72977  24.162  10.103   0.120
 6195W        W72978  34.912  44.542  12.094
 6196W        W72979  10.354  43.208  10.816
 6197W        W72980   5.898   0.361   1.844
 6198W        W72981  10.363  11.610  10.012
 6199W        W72982  13.747  36.568   1.248
 6200W        W72983  20.274   9.335   3.977
 6201W        W72984  21.230   2.101   5.029
 6202W        W72985  14.282   1.359   1.413
 6203W        W72986  36.540   7.599  14.897
 6204W        W72987  38.815  20.267  12.057
 6205W        W72988   2.913  19.724   1.718
 6206W        W72989  38.217  13.539  12.450
 6207W        W72990   7.561  31.524  14.934
 6208W        W72991  24.920   8.133   2.622
 6209W        W72992  21.234  17.353  12.843
 6210W        W72993  33.014  14.374   1.059
 6211W        W72994  35.902  13.793  11.515
 6212W        W72995  22.094  41.501   4.613
 6213W        W72996  32.093  35.429   3.893
 6214W        W72997  28.206  29.936  14.911
 6215W        W72998  21.037   8.591   1.214
 6216W        W72999   8.363  32.460   2.200
 6217W        W73000  22.555  40.312   0.042
 6218W        W73001  24.094   1.490   4.731
 6219W        W73002   9.412  41.476   4.481
 6220W        W73003  14.600  43.836  10.999
 6221W        W73004  18.286   2.700  13.963
 6222W        W73005  15.225  34.674  13.918
 6223W        W73006  16.393  37.978  14.234
 6224W        W73007  11.620  38.320   0.284
 6225W        W73008   6.581  32.135   2.853
 6226W        W73009  24.095  17.493  10.255
 6227W        W73010   1.781  19.147  11.146
 6228W        W73011  42.276  26.758   1.563
 6229W        W73012  13.310  12.817   2.840
 6230W        W73013   6.793  23.016  11.729
 6231W        W73014  19.305  28.296   1.704
 6232W        W73015  21.307  31.157   3.260
 6233W        W73016  15.303  24.595  11.575
 6234W        W73017   6.220  28.724  14.934
 6235W        W73018   4.228   0.302   0.849
 6236W        W73019  38.978  19.249  13.443
 6237W        W73020  20.930  23.747   5.222
 6238W        W73021   1.963  27.159   3.709
 6239W        W73022  41.855  36.044   3.215
 6240W        W73023   8.356   3.733  13.504
 6241W        W73024   4.788  38.960   3.748
 6242W        W73025  37.340  13.190   4.970
 6243W        W73026  38.943  39.562  11.122
 6244W        W73027   8.314  31.521   3.256
 6245W        W73028  10.152  25.275   4.283
 6246W        W73029  25.103  32.546  14.481
 6247W        W73030  20.056  24.254  13.924
 6248W        W73031  42.918  29.554   1.277
 6249W        W73032   4.157  31.176  10.677
 6250W        W73033   7.399  35.625   2.349
 6251W        W73034  21.501  17.096   1.632
 6252W        W73035   6.403  26.682  14.412
 6253W        W73036  29.349  41.454  12.666
 6254W        W73037  29.891   4.233  13.994
 6255W        W73038  37.300  29.701  10.781
 6256W        W73039   6.203  21.762   3.076
 6257W        W73040   7.092  30.117   4.729
 6258W        W73041  14.881  38.556  12.484
 6259W        W73042   4.151  29.946  13.002
 6260W        W73043  18.571  16.500   4.429
 6261W        W73044   5.330  19.108   1.868
 6262W        W73045  27.908  33.119   1.405
 6263W        W73046  35.014  17.217  10.753
 6264W        W73047  26.954  17.085  14.342
 6265W        W73048  20.212  28.883   3.137
 6266W        W73049  29.593  42.710  10.215
 6267W        W73050   6.437  41.820  11.103
 6268W        W73051  15.862  43.054  10.621
 6269W        W73052  21.758   4.782   1.777
 6270W        W73053   9.630  26.176  10.753
 6271W        W73054  12.762  20.201  14.920
 6272W        W73055  35.831  39.322  13.327
 6273W        W73056   1.701  12.065  12.594
 6274W        W73057  23.779   6.475  13.261
 6275W        W73058  17.582  40.615  12.553
 6276W        W73059  31.509   3.504   4.084
 6277W        W73060  16.690  11.947  12.717
 6278W        W73061  13.060  12.545   1.914
 6279W        W73062  23.590   3.992   1.819
 6280W        W73063  22.667   3.502   3.905
 6281W        W73064  12.980  14.271   1.766
 6282W        W73065  31.879  31.631  14.221
 6283W        W73066  28.190  12.491   0.777
 6284W        W73067  20.663  35.403   2.601
 6285W        W73068  44.984   1.665  12.732
 6286W        W73069  24.753   8.854  12.586
 6287W        W73070  31.943   0.533   2.170
 6288W        W73071  24.997  21.984   0.294
 6289W        W73072   8.455  10.273  14.434
 6290W        W73073  10.700  36.955  11.096
 6291W        W73074  10.806  38.451   1.108
 6292W        W73075   8.106  15.947   4.826
 6293W        W73076  17.890  14.733  11.579
 6294W        W73077  13.735  11.138   2.160
 6295W        W73078  12.325  13.102  11.941
 6296W        W73079  44.770  35.549   3.352
 6297W        W73080   6.189  29.760   2.085
 6298W        W73081  34.308  36.964   0.369
 6299W        W73082  27.036  23.737   3.698
 6300W        W73083  36.659  16.144  14.807
 6301W        W73084  42.364   8.415   1.005
 6302W        W73085  40.271  10.826  10.208
 6303W        W73086   7.955  29.403  14.405
 6304W        W73087  13.386  44.914   4.397
 6305W        W73088  29.667  42.581  11.879
 6306W        W73089   2.448  43.983   4.855
 6307W        W73090  43.869  35.939   1.851
 6308W        W73091   1.985  36.072   0.862
 6309W        W73092  13.333  41.958  13.283
 6310W        W73093   0.034  29.659  14.475
 6311W        W73094  28.079  43.404  11.185
 6312W        W73095  36.815  35.376  14.306
 6313W        W73096  25.567  10.684   2.369
 6314W        W73097  23.479  28.112   4.133
 6315W        W73098  31.002  14.846   2.921
 6316W        W73099  30.427  32.126  11.529
 6317W        W73100  27.203  14.923  10.746
 6318W        W73101  20.129  16.222  11.198
 6319W        W73102  29.346  27.761  12.678
 6320W        W73103  15.417  40.872  10.348
 6321W        W73104  15.766  17.116   4.052
 6322W        W73105   4.945  34.528   3.845
 6323W        W73106  24.106  25.630   0.357
 6324W        W73107  16.543  42.423  10.571
 6325W        W73108   2.903   9.150  14.560
 6326W        W73109  31.848  44.708  12.981
 6327W        W73110  20.776  23.510  13.815
 6328W        W73111   3.362  10.216   5.119
 6329W        W73112   1.454  24.623   4.779
 6330W        W73113  35.087  42.187  11.986
 6331W        W73114   9.298  21.177  13.337
 6332W        W73115  14.550  22.608  10.763
 6333W        W73116  31.769  17.334   5.066
 6334W        W73117  42.974  18.652   1.550
 6335W        W73118  26.020  43.110  13.141
 6336W        W73119  28.944  10.746   4.372
 6337W        W73120  24.640  41.379   2.864
 6338W        W73121  39.667   0.491  12.170
 6339W        W73122  22.190  30.230  11.055
 6340W        W73123  26.076   8.270  11.708
 6341W        W73124  17.032  34.494   2.789
 6342W        W73125   1.415   6.921   1.622
 6343W        W73126  30.717  24.832   1.987
 6344W        W73127   1.425  43.127  14.053
 6345W        W73128  38.542  41.290  13.404
 6346W        W73129  21.556  25.455   5.011
 6347W        W73130  26.174  14.654  13.483
 6348W        W73131  25.482  18.162  13.944
 6349W        W73132  16.830  18.688  11.168
 6350W        W73133  31.861  39.276  12.749
 6351W        W73134  20.558  37.050  12.908
 6352W        W73135  35.875  15.394  12.993
 6353W        W73136  40.745  31.414  12.738
 6354W        W73137  28.633  41.072   2.375
 6355W        W73138  26.672  40.959   9.801
 6356W        W73139  32.860  22.440   4.969
 6357W        W73140  31.412  31.391  14.341
 6358W        W73141  33.554  18.131   0.294
 6359W        W73142  34.402  39.639  12.472
 6360W        W73143  44.016   5.157  10.171
 6361W        W73144  13.647  38.500   4.699
 6362W        W73145  17.912  15.610   0.743
 6363W        W73146   7.735  42.088  12.502
 6364W        W73147  24.379   2.349  14.549
 6365W        W73148   6.237  38.935   3.714
 6366W        W73149  37.816  39.837   2.653
 6367W        W73150   5.971  35.527   4.231
 6368W        W73151   5.685  15.742   3.340
 6369W        W73152  33.444  27.121  14.927
 6370W        W73153   7.626   9.391   0.890
 6371W        W73154  30.821  17.692  13.541
 6372W        W73155  40.142  25.665  12.865
 6373W        W73156  32.897   3.712   2.883
 6374W        W73157  14.026  14.188  13.859
 6375W        W73158  18.697   1.242  11.915
 6376W        W73159  44.724   2.343   1.297
 6377W        W73160  18.337  13.761   0.938
 6378W        W73161  30.846  16.425   3.658
 6379W        W73162  38.290  32.945   0.027
 6380W        W73163   1.555   3.753  12.982
 6381W        W73164  33.555  33.574  13.848
 6382W        W73165  44.909  16.275   2.797
 6383W        W73166  13.758   1.263   1.319
 6384W        W73167  14.069  36.187   4.094
 6385W        W73168  39.358  18.288   4.682
 6386W        W73169  19.047  42.555  12.010
 6387W        W73170  38.291  22.119   3.780
 6388W        W73171  34.829  27.437   4.427
 6389W        W73172  25.176   8.918   3.530
 6390W        W73173  37.948   8.996  10.091
 6391W        W73174  30.034  31.553   2.389
 6392W        W73175  15.082  20.678  13.871
 6393W        W73176  29.657   9.634  12.342
 6394W        W73177  31.955  35.368  13.226
 6395W        W73178  12.321  16.185   1.733
 6396W        W73179  32.943  41.091  13.586
 6397W        W73180   2.435  10.454   1.156
 6398W        W73181   3.340  12.652   0.406
 6399W        W73182  44.862  39.883  11.108
 6400W        W73183  10.571  13.403   1.911
 6401W        W73184  27.567   7.426   2.863
 6402W        W73185   4.867  19.683  10.922
 6403W        W73186  42.209  13.286  13.409
 6404W        W73187  41.110   6.394  13.555
 6405W        W73188  32.066  16.469   1.461
 6406W        W73189  21.926  44.312   0.915
 6407W        W73190  41.463  25.196   3.176
 6408W        W73191   2.677  33.660  12.902
 6409W        W73192  33.414  29.395  13.087
 6410W        W73193  44.876  39.888  13.460
 6411W        W73194  35.288   0.793  11.002
 6412W        W73195   1.424  41.476   2.115
 6413W        W73196   1.212  18.730  13.788
 6414W        W73197  27.269  44.552   3.154
 6415W        W73198   4.364  44.486  14.335
 6416W        W73199  37.010   7.133   2.845
 6417W        W73200  13.509  28.748   1.249
 6418W        W73201  29.031  26.356   1.690
 6419W        W73202  30.512  11.977   4.000
 6420W        W73203  20.243   0.303  13.083
 6421W        W73204  10.172  28.653  11.574
 6422W        W73205  42.978  41.094  13.864
 6423W        W73206  16.546  12.745  13.854
 6424W        W73207   6.644   2.255  14.422
 6425W        W73208  39.577  40.373   4.537
 6426W        W73209  34.431  41.326   0.347
 6427W        W73210  16.125  22.085  14.872
 6428W        W73211  17.615  41.584  13.020
 6429W        W73212   9.203  30.643  13.788
 6430W        W73213   1.994  12.360  13.938
 6431W        W73214  10.346   5.550   4.152
 6432W        W73215  16.257  43.406   2.363
 6433W        W73216  18.688  36.543   3.645
 6434W        W73217   2.461   2.492  13.927
 6435W        W73218  19.985  26.520  10.980
 6436W        W73219  31.696   2.954  12.115
 6437W        W73220   1.366  19.655   0.875
 6438W        W73221   6.412  18.097  13.831
 6439W        W73222  12.452  43.649  10.955
 6440W        W73223  24.266  31.962  13.837
 6441W        W73224   4.687   0.542   0.881
 6442W        W73225  42.735  25.617  14.031
 6443W        W73226  10.075  28.498  12.429
 6444W        W73227   7.653   7.696  12.707
 6445W        W73228  40.544   6.129   2.332
 6446W        W73229  36.926  31.999  11.488
 6447W        W73230  13.648   7.932   0.417
 6448W        W73231   0.263  33.351   3.884
 6449W        W73232  29.206  17.631   0.737
 6450W        W73233  41.085   6.673  11.366
 6451W        W73234  40.459  20.911  13.881
 6452W        W73235  15.854   4.381  11.149
 6453W        W73236   2.735  21.139   0.050
 6454W        W73237  42.837  38.281   0.083
 6455W        W73238  33.341  14.336  11.651
 6456W        W73239   9.014  21.097  11.920
 6457W        W73240  44.229  31.128   1.072
 6458W        W73241  27.615  39.937   0.437
 6459W        W73242  31.067   0.945   1.780
 6460W        W73243   3.328  36.653   1.250
 6461W        W73244  25.988  21.596   4.650
 6462W        W73245  18.586  12.498  11.398
 6463W        W73246  11.206   7.751  11.594
 6464W        W73247  25.594   9.192   2.380
 6465W        W73248  36.366   6.268  13.544
 6466W        W73249  26.601  43.490  10.633
 6467W        W73250  18.418  28.459   4.316
 6468W        W73251  19.341   7.631  13.413
 6469W        W73252  23.035   5.693  14.624
 6470W        W73253  13.561  37.033  13.044
 6471W        W73254  42.810  12.986   3.813
 6472W        W73255  39.861  25.693  10.736
 6473W        W73256  23.184   6.857   4.353
 6474W        W73257  21.754  22.988   3.155
 6475W        W73258  28.355   6.745   1.962
 6476W        W73259  43.423  27.073  11.817
 6477W        W73260  32.083  44.485   0.707
 6478W        W73261  24.162  44.772   0.554
 6479W        W73262  35.105  31.521   4.146
 6480W        W73263   7.325  42.426   4.448
 6481W        W73264  22.650   6.193  10.372
 6482W        W73265  27.457  36.316   0.294
 6483W        W73266   9.977   9.758   0.375
 6484W        W73267  42.949  43.320   4.353
 6485W        W73268  34.034   6.480  13.362
 6486W        W73269  10.369  19.066  14.622
 6487W        W73270  37.394  23.867  14.279
 6488W        W73271   0.778  27.475  10.105
 6489W        W73272  16.808  15.398  12.521
 6490W        W73273  16.464  24.744   1.157
 6491W        W73274   7.239  21.593  12.577
 6492W        W73275  39.931   2.227   1.424
 6493W        W73276   5.264  13.214  13.807
 6494W        W73277  42.571  34.666  10.884
 6495W        W73278  28.737  15.623   0.419
 6496W        W73279  15.056  14.101   1.767
 6497W        W73280  38.902  16.219  11.390
 6498W        W73281   2.282  37.828  11.568
 6499W        W73282  42.708  20.536   3.573
 6500W        W73283   9.631  42.908  12.843
 6501W        W73284  21.112  25.481   2.884
 6502W        W73285  26.075  37.920   1.323
 6503W        W73286  40.030  36.601   3.293
 6504W        W73287   4.454  23.768  10.666
 6505W        W73288  39.978  15.251  10.690
 6506W        W73289   4.873  26.578  13.822
 6507W        W73290  42.256   2.556  13.911
 6508W        W73291  21.086  40.547   2.346
 6509W        W73292  32.125  34.085  11.270
 6510W        W73293  15.014  14.280  10.200
 6511W        W73294  32.901  43.430  14.312
 6512W        W73295   5.843  15.174  14.849
 6513W        W73296  29.948   8.421   2.227
 6514W        W73297  23.729  15.294   0.447
 6515W        W73298  15.679   4.111   4.195
 6516W        W73299  13.840   9.849   3.874
 6517W        W73300  22.165   1.539   2.236
 6518W        W73301  12.893  29.891   0.383
 6519W        W73302   9.322  27.738  10.529
 6520W        W73303  28.427  21.213  13.495
 6521W        W73304  23.809  27.775  13.445
 6522W        W73305  30.412  37.985  11.179
 6523W        W73306  11.243  22.894  14.380
 6524W        W73307   8.253  23.264  10.444
 6525W        W73308   5.347  18.772  10.602
 6526W        W73309  17.816   3.305  12.899
 6527W        W73310   5.184   0.902  11.652
 6528W        W73311   2.905  42.616  10.387
 6529W        W73312  30.555  16.092   0.337
 6530W        W73313  21.090  34.764   0.997
 6531W        W73314  44.784  40.482  12.166
 6532W        W73315  22.692   0.767  14.782
 6533W        W73316  41.412  36.585  11.133
 6534W        W73317  39.207  16.082   2.524
 6535W        W73318  40.524  42.350  13.754
 6536W        W73319  20.192   7.858   0.382
 6537W        W73320  38.107  38.387  12.361
 6538W        W73321  41.944   5.348  12.825
 6539W        W73322  21.720  20.666   0.336
 6540W        W73323  10.207  41.306   3.385
 6541W        W73324   4.493  31.979   0.785
 6542W        W73325  28.910  37.256   5.130
 6543W        W73326  22.691  40.415   3.963
 6544W        W73327  32.376  32.415   0.829
 6545W        W73328   2.270  10.803  14.910
 6546W        W73329  44.648  19.464  14.347
 6547W        W73330   2.969  20.512  11.066
 6548W        W73331  26.921  33.008   4.225
 6549W        W73332  17.563  20.564  11.154
 6550W        W73333  28.118  13.478   3.600
 6551W        W73334  41.889  15.050   4.716
 6552W        W73335   4.917  30.678  11.117
 6553W        W73336  12.600  42.908   4.097
 6554W        W73337  41.443  30.040   4.159
 6555W        W73338  24.160  19.324   3.331
 6556W        W73339   6.052  43.064   9.806
 6557W        W73340  19.680   7.764   2.853
 6558W        W73341  44.762  36.579  11.980
 6559W        W73342  33.756   4.780   3.277
 6560W        W73343  31.431  30.609  13.790
 6561W        W73344  42.402  11.945   9.913
 6562W        W73345   6.164  26.526  10.492
 6563W        W73346  11.108  32.177   0.717
 6564W        W73347  25.818  35.475   1.269
 6565W        W73348  41.750  36.342  10.589
 6566W        W73349  44.100  38.444   1.979
 6567W        W73350  13.028  37.521  14.993
 6568W        W73351  36.829  21.882   0.184
 6569W        W73352   0.720  40.774   3.331
 6570W        W73353  43.284   5.845   0.470
 6571W        W73354  10.094  31.150  12.982
 6572W        W73355   8.246  23.587   4.639
 6573W        W73356  32.784  19.557   4.155
 6574W        W73357  10.661   4.896  12.535
 6575W        W73358   1.851  30.943   2.459
 6576W        W73359  22.978   3.060  11.216
 6577W        W73360  43.957   6.875   3.725
 6578W        W73361  30.485  25.527   0.304
 6579W        W73362   8.180  32.459   1.275
 6580W        W73363  34.615   2.007  14.312
 6581W        W73364  34.770  43.767   0.348
 6582W        W73365  18.712  44.541  10.261
 6583W        W73366  30.331  32.373  12.960
 6584W        W73367  35.609  40.957   4.671
 6585W        W73368  27.454  23.743   0.263
 6586W        W73369  28.987   8.895   3.776
 6587W        W73370  33.570   6.066   9.700
 6588W        W73371  29.421  11.241  12.851
 6589W        W73372  27.721  36.092  14.428
 6590W        W73373  44.545  35.184  14.278
 6591W        W73374  13.226  37.268   2.808
 6592W        W73375   3.436   6.118  12.026
 6593W        W73376  11.687   3.319   1.772
 6594W        W73377  38.467  23.543  11.493
 6595W        W73378  38.160  19.005  12.578
 6596W        W73379  11.550  31.471  11.955
 6597W        W73380  29.368  21.044  12.769
 6598W        W73381   9.468  24.527   2.833
 6599W        W73382  37.380  37.932   1.319
 6600W        W73383  42.010  10.258   1.808
 6601W        W73384  19.037  17.685  11.056
 6602W        W73385   6.017  28.836  11.588
 6603W        W73386  34.512   4.727   2.603
 6604W        W73387  22.537  11.030  13.444
 6605W        W73388  10.231  38.556  14.410
 6606W        W73389  24.590  31.918  14.709
 6607W        W73390   2.903  32.331   0.768
 6608W        W73391  37.533  35.776   0.936
 6609W        W73392  17.773  16.527  14.766
 6610W        W73393  21.221  42.493  12.411
 6611W        W73394  40.439  26.970  12.181
 6612W        W73395  40.612  41.892  14.714
 6613W        W73396  25.498  44.554   0.396
 6614W        W73397  29.108  28.173  10.670
 6615W        W73398  20.111  14.784   0.898
 6616W        W73399   6.443  16.069  13.477
 6617W        W73400  34.430   6.540   3.160
 6618W        W73401  38.309  35.445   0.795
 6619W        W73402  17.503  28.029   4.717
 6620W        W73403  16.142  13.588  13.614
 6621W        W73404  25.417   1.486  12.031
 6622W        W73405  28.038  26.603   9.915
 6623W        W73406  13.850  42.245   3.155
 6624W        W73407  27.166  15.696   0.468
 6625W        W73408  40.418  34.338  13.301
 6626W        W73409  33.909  43.158   2.374
 6627W        W73410   1.300  43.438   3.504
 6628W        W73411  44.908   5.851   3.320
 6629W        W73412  27.634   4.544  11.468
 6630W        W73413  41.431   7.812   0.420
 6631W        W73414   8.492  41.738   2.306
 6632W        W73415  23.448  20.479   1.828
 6633W        W73416  22.633  14.989   1.918
 6634W        W73417   0.298  42.009   0.259
 6635W        W73418  44.830  19.710   0.763
 6636W        W73419   3.923  10.065   0.104
 6637W        W73420  11.150   8.443  12.130
 6638W        W73421   3.986  26.219  14.606
 6639W        W73422  29.193  38.030   3.407
 6640W        W73423  41.403  43.903  10.654
 6641W        W73424  18.177  16.367   5.227
 6642W        W73425   6.499  32.549   1.832
 6643W        W73426  27.714  20.006  12.377
 6644W        W73427   2.488   3.399  14.031
 6645W        W73428  21.741  19.597  12.244
 6646W        W73429  32.521  35.424  14.806
 6647W        W73430   7.327  41.276   3.464
 6648W        W73431   0.000   6.766  13.381
 6649W        W73432  10.421  43.297  12.926
 6650W        W73433  30.683   0.796   0.154
 6651W        W73434   1.313   4.404  11.514
 6652W        W73435  20.728  39.465   2.597
 6653W        W73436  16.041  26.047   1.926
 6654W        W73437  26.418  18.805   0.861
 6655W        W73438  23.719  34.629   2.242
 6656W        W73439   8.304  10.339  12.611
 6657W        W73440  33.130   6.330  13.779
 6658W        W73441  30.691  25.191   3.680
 6659W        W73442  40.612   2.814  11.133
 6660W        W73443  33.623  23.554  10.269
 6661W        W73444  31.459  10.865  11.747
 6662W        W73445   2.155  18.013   2.273
 6663W        W73446  29.534  18.534   4.343
 6664W        W73447   5.532  19.805   0.002
 6665W        W73448  11.233   0.379  11.693
 6666W        W73449  21.652  28.246  14.455
 6667W        W73450  34.258  23.189  12.833
 6668W        W73451  22.197  20.112   4.476
 6669W        W73452  42.043  30.752   5.179
 6670W        W73453  21.513  29.839   1.139
 6671W        W73454  17.271  40.102  11.593
 6672W        W73455  25.996  32.693  10.730
 6673W        W73456  31.591  22.754  11.617
 6674W        W73457  22.957  43.452   0.457
 6675W        W73458  20.713  42.459  13.907
 6676W        W73459  19.305  12.325  11.309
 6677W        W73460  34.963  29.876   3.696
 6678W        W73461  39.838  40.864  14.540
 6679W        W73462  15.843  25.676   1.361
 6680W        W73463  16.177   5.431  13.759
 6681W        W73464  23.449  17.522   0.929
 6682W        W73465   6.457  10.764   1.407
 6683W        W73466  18.058  38.888  13.496
 6684W        W73467  35.337  19.549  10.323
 6685W        W73468   4.252  40.199  10.403
 6686W        W73469  15.029  32.220   2.387
 6687W        W73470  28.522  19.737   2.747
 6688W        W73471   3.518  36.568  13.428
 6689W        W73472  38.842  43.952   0.809
 6690W        W73473  21.511   2.735   0.164
 6691W        W73474   2.961  33.414  13.938
 6692W        W73475  14.501  26.258   0.390
 6693W        W73476  18.698  10.553   3.221
 6694W        W73477  24.096  21.455  10.587
 6695W        W73478  17.309  35.492   4.628
 6696W        W73479   3.379  25.644   2.615
 6697W        W73480  40.945  32.443  12.531
 6698W        W73481  36.149  24.921  13.647
 6699W        W73482  24.307  34.982  13.778
 6700W        W73483  11.097  23.957   4.535
 6701W        W73484  38.592  25.698   2.429
 6702W        W73485  38.516  10.234   1.605
 6703W        W73486  29.474  37.871   1.349
 6704W        W73487  41.296  23.989  14.156
 6705W        W73488  15.777  24.819  11.574
 6706W        W73489  38.822  16.154   2.881
 6707W        W73490   1.302  35.780   2.144
 6708W        W73491  31.441  38.568   4.517
 6709W        W73492  32.913  29.415   1.905
 6710W        W73493  21.703  35.137   4.485
 6711W        W73494   7.989  28.221  13.000
 6712W        W73495  14.150  27.521  11.093
 6713W        W73496  33.920  42.589  11.564
 6714W        W73497  17.658   4.550   0.746
 6715W        W73498  22.844  11.437  13.554
 6716W        W73499   2.673   2.843  11.254
 6717W        W73500  34.176  27.556   2.415
 6718W        W73501  22.290  36.588  12.371
 6719W        W73502   8.055  12.309  14.414
 6720W        W73503   6.642  19.197  14.366
 6721W        W73504   4.329  11.505  14.316
 6722W        W73505   3.034   9.801   0.891
 6723W        W73506  39.801  38.047   1.824
 6724W        W73507  30.622  13.119   2.746
 6725W        W73508   3.372  38.112  10.730
 6726W        W73509   5.524  29.154   1.987
 6727W        W73510  30.750  18.310   0.418
 6728W        W73511  28.003   2.033   0.983
 6729W        W73512  25.708   4.095   3.595
 6730W        W73513   9.198   9.350   4.486
 6731W        W73514  11.976  16.645  13.394
 6732W        W73515  44.000  38.932  11.587
 6733W        W73516  33.847  28.441  12.119
 6734W        W73517  20.243  18.246  12.067
 6735W        W73518  35.999  19.208  14.861
 6736W        W73519   4.441  26.735  12.947
 6737W        W73520  17.680  32.708   4.427
 6738W        W73521  31.198  25.081  12.523
 6739W        W73522  44.762  19.246   4.171
 6740W        W73523  34.622  36.588  13.417
 6741W        W73524  41.396  17.025   1.932
 6742W        W73525  15.299  14.259   4.893
 6743W        W73526   5.856   5.452  11.669
 6744W        W73527  13.179  16.254   0.404
 6745W        W73528  36.717  26.026  13.162
 6746W        W73529  41.353  18.884  13.181
 6747W        W73530  30.965  35.780   3.718
 6748W        W73531  23.594  12.388   3.564
 6749W        W73532  33.138  41.069  14.488
 6750W        W73533  40.084  36.716  12.163
 6751W        W73534   4.771  15.296   4.125
 6752W        W73535  26.983  28.987  11.555
 6753W        W73536  43.735  18.578   0.592
 6754W        W73537  44.614  39.786  12.411
 6755W        W73538   2.357  10.664  13.879
 6756W        W73539  26.077   8.260   3.867
 6757W        W73540   5.138   3.478  13.497
 6758W        W73541  38.430  20.627  13.983
 6759W        W73542  39.621  39.510   0.966
 6760W        W73543  11.900  41.639   5.102
 6761W        W73544  14.055  13.351  12.017
 6762W        W73545   5.790  16.277   4.062
 6763W        W73546  28.011  12.366   4.531
 6764W        W73547  14.811  31.151  11.639
 6765W        W73548  33.341  40.395  12.548
 6766W        W73549   8.556  14.421   4.618
 6767W        W73550   6.150  29.677   0.759
 6768W        W73551   1.004  20.234  13.029
 6769W        W73552   0.195  26.861  14.998
 6770W        W73553   9.729  28.769   2.822
 6771W        W73554  32.353   3.676  14.891
 6772W        W73555  12.714  28.839   2.819
 6773W        W73556  24.696  37.583  13.447
 6774W        W73557  34.306   9.027   1.199
 6775W        W73558   9.659  33.703   4.248
 6776W        W73559  38.090  35.373  12.877
 6777W        W73560  12.067   2.074   3.227
 6778W        W73561  10.669   2.928  13.723
 6779W        W73562   4.164  23.677   0.336
 6780W        W73563  17.777  25.614   2.686
 6781W        W73564  24.617  30.217   0.606
 6782W        W73565  43.264   2.234  11.483
 6783W        W73566  32.126  34.579  11.153
 6784W        W73567  38.026  21.687  10.654
 6785W        W73568  27.184  16.276  13.832
 6786W        W73569  23.191  26.067   1.876
 6787W        W73570   6.283  34.058  11.884
 6788W        W73571   5.940  18.106  12.597
 6789W        W73572  14.752  19.309   3.349
 6790W        W73573  33.329  15.668  13.402
 6791W        W73574  32.458  12.403   0.989
 6792W        W73575  17.416  13.892   0.991
 6793W        W73576  16.272  10.304   0.838
 6794W        W73577  14.574   7.866   3.363
 6795W        W73578   6.521  33.986  12.839
 6796W        W73579  14.864  24.781   1.829
 6797W        W73580  28.514  38.275  10.961
 6798W        W73581  18.746  35.499   1.643
 6799W        W73582   5.969  17.602   2.841
 6800W        W73583   6.852  26.184   0.974
 6801W        W73584  20.085  14.108   4.065
 6802W        W73585   5.169  11.057   2.438
 6803W        W73586  39.379  23.263  12.402
 6804W        W73587  21.149  16.547  11.708
 6805W        W73588  40.732  26.026  11.676
 6806W        W73589   5.544  11.868   3.668
 6807W        W73590  16.183  33.496   0.343
 6808W        W73591  42.470  10.959   4.625
 6809W        W73592  12.098   7.276   1.715
 6810W        W73593   6.955  11.083  11.082
 6811W        W73594  13.129  15.047   0.744
 6812W        W73595  41.380  40.538   0.250
 6813W        W73596  32.920   2.973  13.968
 6814W        W73597  38.435  41.754  13.600
 6815W        W73598  37.045  18.061   2.175
 6816W        W73599  31.595   0.041  13.864
 6817W        W73600  44.536   0.860   4.123
 6818W        W73601  39.981   1.660  11.605
 6819W        W73602  32.496  26.610  10.691
 6820W        W73603  25.701  10.819  12.062
 6821W        W73604  28.438  43.515  14.406
 6822W        W73605  38.326  12.648   1.366
 6823W        W73606  23.063  40.234   4.627
 6824W        W73607  26.164   7.718   0.439
 6825W        W73608  34.046  17.545  12.089
 6826W        W73609  15.861  37.459   1.692
 6827W        W73610  44.819  22.110   1.719
 6828W        W73611  38.283   9.107   0.296
 6829W        W73612  36.192  36.890   4.082
 6830W        W73613  14.959  41.554   4.270
 6831W        W73614  19.913  42.187   3.214
 6832W        W73615   8.649  18.161   3.557
 6833W        W73616   2.491  25.482   2.745
 6834W        W73617  29.932  21.238  10.597
 6835W        W73618   8.588  32.477  13.945
 6836W        W73619   9.106  15.589   1.792
 6837W        W73620   7.289   8.418  12.949
 6838W        W73621  13.637  28.715  12.150
 6839W        W73622  26.233  38.411  14.224
 6840W        W73623  10.389  44.046   2.753
 6841W        W73624  20.619  12.621  14.175
 6842W        W73625  28.111  34.527  12.083
 6843W        W73626  35.331  41.175  14.022
 6844W        W73627  25.945   3.315   0.664
 6845W        W73628  34.156  32.881   2.410
 6846W        W73629  13.097  19.733  14.083
 6847W        W73630   1.744  24.235   1.855
 6848W        W73631  31.223  18.134  10.711
 6849W        W73632  12.417  15.093   2.223
 6850W        W73633   5.883  17.301   2.439
 6851W        W73634   0.189  38.352   4.494
 6852W        W73635  11.593  17.944   4.931
 6853W        W73636   1.331  34.203   1.777
 6854W        W73637  32.109   1.580  12.484
 6855W        W73638  24.415  35.499  13.045
 6856W        W73639  33.699  35.002   0.404
 6857W        W73640  13.353  18.298   2.696
 6858W        W73641   6.106  33.696   4.022
 6859W        W73642  33.836  27.217   3.213
 6860W        W73643  19.687  30.263   1.426
 6861W        W73644  39.742  33.414  11.563
 6862W        W73645  29.484   5.892   0.902
 6863W        W73646   6.754  38.989  10.890
 6864W        W73647  43.254   8.573   0.637
 6865W        W73648  34.007  21.409  12.490
 6866W        W73649  19.651  17.114  13.554
 6867W        W73650  39.133  13.908  10.568
 6868W        W73651  26.348  42.058  12.039
 6869W        W73652  37.943  42.846  14.937
 6870W        W73653  42.364  35.961  13.895
 6871W        W73654  10.150   5.343   1.159
 6872W        W73655  28.519  39.216   2.448
 6873W        W73656  37.640  25.221   1.850
 6874W        W73657   7.975  28.602  14.791
 6875W        W73658  11.851  28.217   0.690
 6876W        W73659   4.977  26.680   4.149
 6877W        W73660  27.980   5.180  10.700
 6878W        W73661  11.775   4.843  10.646
 6879W        W73662  14.864  34.007   3.754
 6880W        W73663  42.375  22.722  11.838
 6881W        W73664  32.063   0.361  13.902
 6882W        W73665  17.491  23.567   2.336
 6883W        W73666  15.182  33.073   1.808
 6884W        W73667   8.225  26.376  10.571
 6885W        W73668  41.809  36.780  11.937
 6886W        W73669  21.002  28.222   2.334
 6887W        W73670  35.055  35.134  12.067
 6888W        W73671  43.293  23.776  14.986
 6889W        W73672   0.261  17.512  12.934
 6890W        W73673  22.599   8.238   3.704
 6891W        W73674  28.935   8.863   4.276
 6892W        W73675   5.167  17.854   3.264
 6893W        W73676  11.214   0.298  10.756
 6894W        W73677  32.992  35.620  13.353
 6895W        W73678   0.175   0.789  13.117
 6896W        W73679   6.114  42.818   4.213
 6897W        W73680  15.570   1.494   2.871
 6898W        W73681   4.752   5.790   2.849
 6899W        W73682  19.292   6.459   2.835
 6900W        W73683  43.450  34.092   4.627
 6901W        W73684  19.089  29.490  14.244
 6902W        W73685  41.950  40.843  11.078
 6903W        W73686  32.927  36.386   2.921
 6904W        W73687   7.238  41.328  12.769
 6905W        W73688   9.620   6.447   2.933
 6906W        W73689  39.956  11.738   2.592
 6907W        W73690  27.238  29.147   2.767
 6908W        W73691  11.860  39.295  12.595
 6909W        W73692  18.920  17.547  12.182
 6910W        W73693   3.291  26.888   3.195
 6911W        W73694  35.931  30.075  10.618
 6912W        W73695  42.889  36.378  13.333
 6913W        W73696   4.213  37.591  14.788
 6914W        W73697   2.206  21.937  11.092
 6915W        W73698   3.683  32.662  12.997
 6916W        W73699  14.693  27.004   2.847
 6917W        W73700  42.940  34.878   2.212
 6918W        W73701   5.794  17.568  14.788
 6919W        W73702  24.619  39.391   4.503
 6920W        W73703   4.438  12.690   4.153
 6921W        W73704   4.857  38.312   0.263
 6922W        W73705  13.269  21.252  12.183
 6923W        W73706  19.142  34.706  14.056
 6924W        W73707   3.941   3.323  12.966
 6925W        W73708  12.188  27.419  11.099
 6926W        W73709   8.703  41.325  12.043
 6927W        W73710  34.125  29.173  13.586
 6928W        W73711   4.448  30.467  11.046
 6929W        W73712  19.268  43.944  14.394
 6930W        W73713   6.403  17.835   3.420
 6931W        W73714  14.325  44.197  14.277
 6932W        W73715  12.567  24.633   3.291
 6933W        W73716  33.456  11.315   1.950
 6934W        W73717  17.239  43.356   2.761
 6935W        W73718  24.786   9.796   2.770
 6936W        W73719   0.443  35.560   1.690
 6937W        W73720  28.577  17.611  12.387
 6938W        W73721  40.470  36.664  12.969
 6939W        W73722  34.321  18.174   0.098
 6940W        W73723  44.014  27.563  12.522
 6941W        W73724   0.534  31.555  11.529
 6942W        W73725   1.793  44.559  10.931
 6943W        W73726  39.847  13.884   3.745
 6944W        W73727  38.127  23.489  12.628
 6945W        W73728  37.471   9.705   4.542
 6946W        W73729   2.559  17.868  13.006
 6947W        W73730  23.478  15.844   2.345
 6948W        W73731   4.174  17.195   4.782
 6949W        W73732   7.304  16.626  11.639
 6950W        W73733  10.470  35.629  11.846
 6951W        W73734   2.884  40.510  14.218
 6952W        W73735  42.688  12.120  13.441
 6953W        W73736  26.217  14.682   2.681
 6954W        W73737  38.170  10.027  12.450
 6955W        W73738  34.753  44.807   2.307
 6956W        W73739   5.220  41.882   0.803
 6957W        W73740  44.746  18.158   2.274
 6958W        W73741  25.427  28.139   3.396
 6959W        W73742  31.021  17.099  12.592
 6960W        W73743  33.626   8.402   2.690
 6961W        W73744  10.200  12.602   1.916
 6962W        W73745  39.117  44.876  13.000
 6963W        W73746  37.846   0.687  13.472
 6964W        W73747  16.715  42.137  14.789
 6965W        W73748  22.252  25.249  14.102
 6966W        W73749   8.453   3.369   2.870
 6967W        W73750  30.114  31.449   4.270
 6968W        W73751  10.867  11.019   3.243
 6969W        W73752  39.899  19.642  13.625
 6970W        W73753  27.737   2.864  14.527
 6971W        W73754   3.284  21.166   0.804
 6972W        W73755   9.173   2.687  13.830
 6973W        W73756  12.767   9.425  10.740
 6974W        W73757  23.743  16.248   1.246
 6975W        W73758  22.578  14.571   0.748
 6976W        W73759   5.328  12.544   1.217
 6977W        W73760  28.803  15.867   1.686
 6978W        W73761  18.674  33.917   0.545
 6979W        W73762  13.693  25.965   0.137
 6980W        W73763  44.060   4.747  11.015
 6981W        W73764  12.838   7.748   1.879
 6982W        W73765  34.273  43.394  11.066
 6983W        W73766  27.120  35.908  11.077
 6984W        W73767   6.884  27.572  13.736
 6985W        W73768   2.016  11.695  13.429
 6986W        W73769  44.620  13.309   0.740
 6987W        W73770   4.223  39.555  12.416
 6988W        W73771  25.600  19.442   4.820
 6989W        W73772   5.410  33.384   1.616
 6990W        W73773  19.098  33.543  14.536
 6991W        W73774  26.574  18.343  12.915
 6992W        W73775  13.172  21.488   3.159
 6993W        W73776  24.107   4.773  11.974
 6994W        W73777  22.095  15.399  11.549
 6995W        W73778   3.976  17.509  14.442
 6996W        W73779  38.391  28.272  12.513
 6997W        W73780  26.934  20.492  12.554
 6998W        W73781  32.435   3.266   3.678
 6999W        W73782  20.160   6.168  13.470
 7000W        W73783  13.954   5.774   2.399
 7001W        W73784   1.825  42.328  11.586
 7002W        W73785  44.266   2.183  11.530
 7003W        W73786  38.844   5.916   2.895
 7004W        W73787  13.394  25.186  11.122
 7005W        W73788  32.915   7.931   3.162
 7006W        W73789  34.032  32.358   4.189
 7007W        W73790   8.224  36.125   4.170
 7008W        W73791   2.861  29.184  13.544
 7009W        W73792   8.860  11.728   0.033
 7010W        W73793  31.236   5.326   1.937
 7011W        W73794   0.835  28.139  11.199
 7012W        W73795  18.257  28.397  14.801
 7013W        W73796   8.169  38.097   1.641
 7014W        W73797   0.341  16.353  12.155
 7015W        W73798   2.293  17.482  14.925
 7016W        W73799  11.693  42.953  10.465
 7017W        W73800  20.177  23.436  14.403
 7018W        W73801  29.615   5.348   3.345
 7019W        W73802  44.251  13.159  13.370
 7020W        W73803  12.821  29.667  14.938
 7021W        W73804  41.509  23.078   0.904
 7022W        W73805  33.373  18.616  13.928
 7023W        W73806  32.348  34.635  13.850
 7024W        W73807  19.650   4.638  11.361
 7025W        W73808  24.496  17.107   2.175
 7026W        W73809   7.966  33.198  12.069
 7027W        W73810  10.347   6.783  11.219
 7028W        W73811   2.755  10.227   0.793
 7029W        W73812  31.453  35.839  10.460
 7030W        W73813  34.574  27.047   0.884
 7031W        W73814  41.209  27.604  14.024
 7032W        W73815  16.271  24.115   0.396
 7033W        W73816  10.320  14.232   3.334
 7034W        W73817  28.662  31.150  12.983
 7035W        W73818  23.214   6.962   4.938
 7036W        W73819  32.399  10.769  12.868
 7037W        W73820  24.131  34.095   3.686
 7038W        W73821   3.295  43.328  13.384
 7039W        W73822  14.026  17.098   4.563
 7040W        W73823   0.545  12.797  11.949
 7041W        W73824  16.618  19.657   2.837
 7042W        W73825   9.304  22.201   2.095
 7043W        W73826   9.341  44.202   0.358
 7044W        W73827  20.356  18.806   0.278
 7045W        W73828  31.925  13.193  10.611
 7046W        W73829  37.304  21.778   2.306
 7047W        W73830  26.978   8.139   2.948
 7048W        W73831   5.260  33.991   2.823
 7049W        W73832  23.458  43.034  11.531
 7050W        W73833  10.352   2.386  14.909
 7051W        W73834   9.958  26.529   4.795
 7052W        W73835   2.398  37.042  12.694
 7053W        W73836  11.193  23.063   4.569
 7054W        W73837  30.024   1.455  10.695
 7055W        W73838   7.963   0.815  13.549
 7056W        W73839  15.831   9.176  12.430
 7057W        W73840  26.153   0.512  12.548
 7058W        W73841  10.342   6.925  10.347
 7059W        W73842  12.060  34.524  13.360
 7060W        W73843  11.676   4.770  14.128
 7061W        W73844  14.293  21.479   4.817
 7062W        W73845   7.191  36.539   4.953
 7063W        W73846  22.824  16.589   3.714
 7064W        W73847   9.208  39.925  13.370
 7065W        W73848  27.153  20.187   1.313
 7066W        W73849   5.201   9.912   1.316
 7067W        W73850  44.367  18.819  14.455
 7068W        W73851  26.649   9.088  14.933
 7069W        W73852   9.424  36.715   3.194
 7070W        W73853  24.453   3.498   3.263
 7071W        W73854  31.571   0.538  13.807
 7072W        W73855  39.364  42.991  13.697
 7073W        W73856  28.455  20.004   4.878
 7074W        W73857  16.999  36.280  14.236
 7075W        W73858   5.795  30.971  13.787
 7076W        W73859  15.521   2.143   4.148
 7077W        W73860  19.160  28.742  10.525
 7078W        W73861  39.632  32.510   3.772
 7079W        W73862  28.080  44.758   0.344
 7080W        W73863  43.017  28.598  12.920
 7081W        W73864  15.485   3.403   1.283
 7082W        W73865  38.599  16.707  12.858
 7083W        W73866  36.390  27.844   2.762
 7084W        W73867   6.294  11.701  11.588
 7085W        W73868  12.346   0.322  12.207
 7086W        W73869  34.504  24.197  11.463
 7087W        W73870  13.115  16.044  12.227
 7088W        W73871   5.197  28.102  14.958
 7089W        W73872  23.777   8.254   0.656
 7090W        W73873  33.575  24.111   4.722
 7091W        W73874  27.991  13.004  12.850
 7092W        W73875   3.381  42.828   2.961
 7093W        W73876  44.914  42.112   2.022
 7094W        W73877  16.748  34.444   0.948
 7095W        W73878  14.028   3.212  13.837
 7096W        W73879   5.687  22.518  14.421
 7097W        W73880  35.475  37.517   4.550
 7098W        W73881  38.115  12.312  11.179
 7099W        W73882   2.634  44.776   0.334
 7100W        W73883   9.122  12.245   1.392
 7101W        W73884  31.195  30.067  13.329
 7102W        W73885   0.681  24.837  11.741
 7103W        W73886  27.535  14.786   4.612
 7104W        W73887  18.364  22.179  11.930
 7105W        W73888  13.531   5.866  14.580
 7106W        W73889  33.196  17.178   4.081
 7107W        W73890   4.787   5.294  10.671
 7108W        W73891  42.026   9.332  11.673
 7109W        W73892  23.547   4.850   2.851
 7110W        W73893   9.250  25.096  11.993
 7111W        W73894  30.951   5.932  12.939
 7112W        W73895   6.787  22.604  10.784
 7113W        W73896  35.885  40.354  13.874
 7114W        W73897  15.871   8.857  12.827
 7115W        W73898  15.091  24.930  13.377
 7116W        W73899   0.672  10.705   1.611
 7117W        W73900   2.179  17.204   3.778
 7118W        W73901  13.785  12.653  14.496
 7119W        W73902  24.221  35.989   1.470
 7120W        W73903  24.463  20.685   1.370
 7121W        W73904  33.025   5.466  14.398
 7122W        W73905  13.255  38.138  10.648
 7123W        W73906  31.474  27.650  14.374
 7124W        W73907   5.303  30.585  10.737
 7125W        W73908   3.837  38.555   4.625
 7126W        W73909  40.589   1.988  10.807
 7127W        W73910  17.758   8.841  11.359
 7128W        W73911  16.197  32.639   3.590
 7129W        W73912  33.060   2.437   3.804
 7130W        W73913  42.861  42.689  10.593
 7131W        W73914  37.496  30.949   3.578
 7132W        W73915  21.502  31.036  10.774
 7133W        W73916  18.446  22.093  13.908
 7134W        W73917   0.750  41.157   1.862
 7135W        W73918   3.760  23.757  13.383
 7136W        W73919   5.221  24.823  13.936
 7137W        W73920  25.483  22.215  13.544
 7138W        W73921  33.230   4.293   2.808
 7139W        W73922  18.083   0.719   4.754
 7140W        W73923  10.659   0.247   2.751
 7141W        W73924  34.634  20.677   3.734
 7142W        W73925  34.685  16.289   3.077
 7143W        W73926  11.971  32.196   0.400
 7144W        W73927  15.916  24.889  13.058
 7145W        W73928   3.882  38.273  13.577
 7146W        W73929  42.246  23.572  13.492
 7147W        W73930  10.875  28.633   2.271
 7148W        W73931  27.745  30.112  14.963
 7149W        W73932  22.290   9.435   1.843
 7150W        W73933  41.524   6.661  11.047
 7151W        W73934  17.735  23.945   4.187
 7152W        W73935  23.667  32.805  10.657
 7153W        W73936  21.535  12.173  12.615
 7154W        W73937  16.375   1.314   4.162
 7155W        W73938  27.511  18.358   2.301
 7156W        W73939  43.355  40.734  13.820
 7157W        W73940  23.074  18.334  13.836
 7158W        W73941  34.628   4.363  14.776
 7159W        W73942  14.143  35.910   1.238
 7160W        W73943   6.192  27.781   2.286
 7161W        W73944  39.058   0.156   5.071
 7162W        W73945  24.247  36.427   2.691
 7163W        W73946  42.241   9.219  14.301
 7164W        W73947  43.035   5.415  12.739
 7165W        W73948   0.553  43.769   3.024
 7166W        W73949  34.410  16.741   1.923
 7167W        W73950  21.647  29.740  14.694
 7168W        W73951  23.187  18.306   1.672
 7169W        W73952  39.650   2.045  11.535
 7170W        W73953  13.574  22.978   3.727
 7171W        W73954   9.945  39.818  11.433
 7172W        W73955   4.452  24.044   3.614
 7173W        W73956  38.945  36.917  13.878
 7174W        W73957  39.429  18.267   1.850
 7175W        W73958  26.026  33.579  12.553
 7176W        W73959   7.919  17.202  11.177
 7177W        W73960  14.098  32.874  13.271
 7178W        W73961   0.792  33.985   0.449
 7179W        W73962  13.623  32.820   2.799
 7180W        W73963  15.348  39.311  11.462
 7181W        W73964  20.721  20.164  12.530
 7182W        W73965  41.253  16.637  11.990
 7183W        W73966  13.287  13.856   1.755
 7184W        W73967  41.234  13.897  12.939
 7185W        W73968  44.420  44.910   2.159
 7186W        W73969  26.658  37.866  13.596
 7187W        W73970  25.977   7.804  12.055
 7188W        W73971   3.300   1.806  14.664
 7189W        W73972  10.302  30.122   3.696
 7190W        W73973  42.434  24.977   3.556
 7191W        W73974  23.183  10.394   3.279
 7192W        W73975  43.256  44.163  13.448
 7193W        W73976   1.752  28.661  11.174
 7194W        W73977  11.336  31.873   4.201
 7195W        W73978  41.885  25.649  12.355
 7196W        W73979   9.816  38.294  12.923
 7197W        W73980   2.911  21.845  12.578
 7198W        W73981  25.703   8.667  14.261
 7199W        W73982  21.423   1.924   1.812
 7200W        W73983  33.157  33.701  12.951
 7201W        W73984  31.965  33.418  14.335
 7202W        W73985  40.955  14.312  13.098
 7203W        W73986  31.425  33.967  14.624
 7204W        W73987  37.460  34.519   2.674
 7205W        W73988  23.106  35.028  12.505
 7206W        W73989   5.663   1.411   2.309
 7207W        W73990  29.740   0.864   0.782
 7208W        W73991  29.449  42.016   4.810
 7209W        W73992   4.759   1.299  13.038
 7210W        W73993  10.801   1.176   2.366
 7211W        W73994  18.387  14.706   1.673
 7212W        W73995  20.474   2.764  13.572
 7213W        W73996  39.541   5.838  11.531
 7214W        W73997  16.320  37.892  10.703
 7215W        W73998   5.668  27.922  13.485
 7216W        W73999  22.200  37.312  13.385
 7217W        W74000   6.139  10.776  14.541
 7218W        W74001  40.601  11.917   0.044
 7219W        W74002  34.991  17.630  12.892
 7220W        W74003  11.092  32.957  12.667
 7221W        W74004  25.509  19.822   0.827
 7222W        W74005  30.583  27.495   2.435
 7223W        W74006  31.964  12.775   4.719
 7224W        W74007  11.168  29.879  11.518
 7225W        W74008  43.082   5.769  13.955
 7226W        W74009  30.939  31.927   2.611
 7227W        W74010   0.269   1.021  11.181
 7228W        W74011  24.723  27.474   4.149
 7229W        W74012  37.950   9.207   0.890
 7230W        W74013  33.298   7.934   0.171
 7231W        W74014  28.148  29.638  11.394
 7232W        W74015   3.883  42.945   2.242
 7233W        W74016  42.392  20.430  14.428
 7234W        W74017  37.252  34.530  13.057
 7235W        W74018  19.160  11.349   3.423
 7236W        W74019  34.419  41.003   4.187
 7237W        W74020  19.038  25.084   2.806
 7238W        W74021  37.572  36.056   3.124
 7239W        W74022   8.673  25.570  10.311
 7240W        W74023  38.805  30.120  11.994
 7241W        W74024  38.936  12.880  14.278
 7242W        W74025  33.954  32.872   3.290
 7243W        W74026  33.687  31.918  13.077
 7244W        W74027   1.852  36.389   3.650
 7245W        W74028   5.186   1.785   0.734
 7246W        W74029   5.771  33.009   2.119
 7247W        W74030  11.307   7.417  12.051
 7248W        W74031  31.376   2.803  13.848
 7249W        W74032   0.721  37.082   1.822
 7250W        W74033  17.317  23.567   4.977
 7251W        W74034   3.923  40.738   1.775
 7252W        W74035  15.865   9.806  12.874
 7253W        W74036  28.623  16.683   2.141
 7254W        W74037   6.646  10.655   4.099
 7255W        W74038   0.720   8.002  14.367
 7256W        W74039   4.039  17.281   1.904
 7257W        W74040  36.305   7.397  12.603
 7258W        W74041  42.073  23.583   0.383
 7259W        W74042  26.484   7.158  13.055
 7260W        W74043   3.396   2.028  11.630
 7261W        W74044  44.889  31.877  12.718
 7262W        W74045  30.708  44.521  13.787
 7263W        W74046   4.211  32.048   4.862
 7264W        W74047  18.530  18.130   3.068
 7265W        W74048  23.689  14.117  13.615
 7266W        W74049  14.611  24.008   2.758
 7267W        W74050  31.498  28.930   2.188
 7268W        W74051   9.448   9.315  13.380
 7269W        W74052  32.911  39.594  14.844
 7270W        W74053  38.166  28.619   1.901
 7271W        W74054   0.257  29.857   0.351
 7272W        W74055   6.673  24.439   0.328
 7273W        W74056  30.471  41.316  13.316
 7274W        W74057  24.097  18.121   0.726
 7275W        W74058  28.043  15.066   4.687
 7276W        W74059  17.797  33.130   4.090
 7277W        W74060  18.990  39.903  11.546
 7278W        W74061  22.351   7.282   0.397
 7279W        W74062  25.930  23.083   4.828
 7280W        W74063  17.252  33.891   2.313
 7281W        W74064  38.965  32.422  13.920
 7282W        W74065   0.409   7.993   1.219
 7283W        W74066  10.483  38.544   1.493
 7284W        W74067  16.695  23.753  11.799
 7285W        W74068  10.170  21.178  10.445
 7286W        W74069  40.559   7.859   4.189
 7287W        W74070  25.742  20.284  14.318
 7288W        W74071   3.559  26.466   2.061
 7289W        W74072   2.236  15.130  13.398
 7290W        W74073  26.901  36.351   0.250
 7291W        W74074   3.632  20.207   1.221
 7292W        W74075  21.802  29.361   1.789
 7293W        W74076  23.985  39.889  12.074
 7294W        W74077  26.658  15.708   3.140
 7295W        W74078  18.788  10.110  10.425
 7296W        W74079   7.880  20.311  11.158
 7297W        W74080  36.903  24.514   0.799
 7298W        W74081   1.597  32.022  14.424
 7299W        W74082  44.402  28.143  13.176
 7300W        W74083  18.363  35.995  11.115
 7301W        W74084  14.210  24.506   0.839
 7302W        W74085   2.481  37.810   2.198
 7303W        W74086  24.907  39.795   3.917
 7304W        W74087  41.626  11.993   5.026
 7305W        W74088  27.632  24.844  12.267
 7306W        W74089  12.170  36.518   2.175
 7307W        W74090  26.186  37.774   2.861
 7308W        W74091  40.364  14.260  12.619
 7309W        W74092   4.638  36.438   1.057
 7310W        W74093  40.425   0.371   1.666
 7311W        W74094  29.110  30.352  14.014
 7312W        W74095   6.253   2.154   1.209
 7313W        W74096  38.880  17.768  12.942
 7314W        W74097  43.054   5.293  10.337
 7315W        W74098  26.225  33.434   1.183
 7316W        W74099  22.700  10.908  11.446
 7317W        W74100  11.928   5.029  12.934
 7318W        W74101   3.837  28.537   0.907
 7319W        W74102  21.628  32.437   2.349
 7320W        W74103   1.261   8.396  12.419
 7321W        W74104  34.419  15.596  11.530
 7322W        W74105   3.212  15.634   1.931
 7323W        W74106  39.431  31.098   3.639
 7324W        W74107  10.821   0.833  11.395
 7325W        W74108  13.593  15.182  10.658
 7326W        W74109  18.478  37.990  12.540
 7327W        W74110  32.541  38.461   0.516
 7328W        W74111  10.442  13.778  11.206
 7329W        W74112  36.607  13.993   4.650
 7330W        W74113  14.019  29.160   0.409
 7331W        W74114  41.076  41.721   3.344
 7332W        W74115  32.364   0.259   2.399
 7333W        W74116   1.262  35.600  14.356
 7334W        W74117   9.468  14.713   3.739
 7335W        W74118  34.643  44.385   2.582
 7336W        W74119  25.054  18.506  12.763
 7337W        W74120  26.268   0.923  13.388
 7338W        W74121  34.798   6.209  12.509
 7339W        W74122   4.831   4.297  14.926
 7340W        W74123  10.613  33.946  14.327
 7341W        W74124  16.229  10.810  12.130
 7342W        W74125   2.220  36.340   4.236
 7343W        W74126   6.722  25.716   3.243
 7344W        W74127  29.447  21.105   4.863
 7345W        W74128  12.860   2.199  12.003
 7346W        W74129   0.348   5.943   1.832
 7347W        W74130  43.749   2.155   1.426
 7348W        W74131  42.257  12.785  11.194
 7349W        W74132   9.913  11.795   1.356
 7350W        W74133   3.864  11.724  14.295
 7351W        W74134  13.323  16.006   2.661
 7352W        W74135   5.284  32.099  10.722
 7353W        W74136  26.125  31.644  12.354
 7354W        W74137  22.199  34.438  11.308
 7355W        W74138  33.280   0.992  13.041
 7356W        W74139  21.096  19.962  12.869
 7357W        W74140  11.743  15.341  12.534
 7358W        W74141  23.350  25.939  12.388
 7359W        W74142  20.314  21.095   3.595
 7360W        W74143  38.406   5.839   1.722
 7361W        W74144  39.356  44.814  12.532
 7362W        W74145  36.851  27.670   0.776
 7363W        W74146  36.357   9.230   0.722
 7364W        W74147  27.091  41.802   3.225
 7365W        W74148  11.116  26.728  14.950
 7366W        W74149  15.122  10.677   1.752
 7367W        W74150  14.545  25.981   3.689
 7368W        W74151   6.400  39.324  13.886
 7369W        W74152  28.890   6.214  14.777
 7370W        W74153   9.214  22.450  14.318
 7371W        W74154  34.473  25.066   3.632
 7372W        W74155   9.134   5.727   4.652
 7373W        W74156  13.317  29.860  10.861
 7374W        W74157   5.517  36.883  13.439
 7375W        W74158   8.378  28.221  12.044
 7376W        W74159  29.491  38.940   3.193
 7377W        W74160  15.729  20.673  12.603
 7378W        W74161  26.928  11.354  14.306
 7379W        W74162  41.891  15.894  13.939
 7380W        W74163   3.733  22.593   0.416
 7381W        W74164  44.827   1.443  13.643
 7382W        W74165  43.533   3.260  13.446
 7383W        W74166  30.288   8.881   5.012
 7384W        W74167  23.618  39.572   1.447
 7385W        W74168  16.316  29.471  11.034
 7386W        W74169   0.070  30.613   2.746
 7387W        W74170  23.591  19.102   4.133
 7388W        W74171   3.182  40.012   2.911
 7389W        W74172  32.544  43.755   3.717
 7390W        W74173  15.650  31.978   1.907
 7391W        W74174  28.208   7.331   2.254
 7392W        W74175  41.150  29.946   3.635
 7393W        W74176  28.932  14.217   1.260
 7394W        W74177  29.314   2.948  10.535
 7395W        W74178  18.533  20.563  12.391
 7396W        W74179   7.645  42.783   0.974
 7397W        W74180  35.150  44.199   4.300
 7398W        W74181   8.281   4.343  10.988
 7399W        W74182  42.495  16.293   3.647
 7400W        W74183  32.261   8.044   0.277
 7401W        W74184  10.834  13.995   3.266
 7402W        W74185  38.192  40.098  12.197
 7403W        W74186  34.530   1.502   0.639
 7404W        W74187  13.113  11.569   5.052
 7405W        W74188  29.839  16.572   4.605
 7406W        W74189  12.148   2.924   3.384
 7407W        W74190   8.175   5.951   0.756
 7408W        W74191  27.897  37.841  14.803
 7409W        W74192   9.303  23.291   3.301
 7410W        W74193   2.921   0.517  13.546
 7411W        W74194  23.275  19.131  11.023
 7412W        W74195  15.782  34.973  10.719
 7413W        W74196   1.388   2.730  14.852
 7414W        W74197   6.488   2.870   0.901
 7415W        W74198  18.777  42.482  13.742
 7416W        W74199  36.259   0.020  13.984
 7417W        W74200  21.541   0.275   3.717
 7418W        W74201  41.449  10.184   3.204
 7419W        W74202  16.556  43.362   0.538
 7420W        W74203  21.347  36.139   1.077
 7421W        W74204  26.778  44.376   0.221
 7422W        W74205  15.635  28.842  12.052
 7423W        W74206   5.963  28.357   2.363
 7424W        W74207  44.491  43.979   0.688
 7425W        W74208  29.037  27.959   4.199
 7426W        W74209  14.124  40.325   0.736
 7427W        W74210  17.017  16.220  13.092
 7428W        W74211  10.085  13.804  12.581
 7429W        W74212  34.226  34.037  12.956
 7430W        W74213  33.588  21.543   1.558
 7431W        W74214  35.593  23.675  14.866
 7432W        W74215  34.950   4.978   2.642
 7433W        W74216  42.421  18.652   3.174
 7434W        W74217  37.458  36.219   1.244
 7435W        W74218  18.209  20.174  12.392
 7436W        W74219  29.638  11.955   2.485
 7437W        W74220  20.677  39.112  14.284
 7438W        W74221   7.888  37.592   5.347
 7439W        W74222   7.423  19.508  12.466
 7440W        W74223   1.768  41.764   4.243
 7441W        W74224   1.005  43.476   2.291
 7442W        W74225  41.835  44.237  14.945
 7443W        W74226  11.365  40.444   3.076
 7444W        W74227  31.777   9.251  10.704
 7445W        W74228  24.638  11.162   3.208
 7446W        W74229  40.983   6.171   4.917
 7447W        W74230  43.764  42.865   2.689
 7448W        W74231   9.052  25.633  13.849
 7449W        W74232  33.439   4.378   3.270
 7450W        W74233  15.239  34.946   2.453
 7451W        W74234  44.254  10.159  14.675
 7452W        W74235   5.420  42.261   4.366
 7453W        W74236  20.713  44.704  10.883
 7454W        W74237  14.849  44.379  10.825
 7455W        W74238  40.619  16.218   3.713
 7456W        W74239  16.737   5.719  14.549
 7457W        W74240   1.710  18.174   3.792
 7458W        W74241  28.425  37.573   3.214
 7459W        W74242  14.393  18.401  13.287
 7460W        W74243   2.664  24.020  11.566
 7461W        W74244  22.173  25.606   3.591
 7462W        W74245   8.488  38.502  11.307
 7463W        W74246  33.214  37.565   0.933
 7464W        W74247  32.467   9.645   2.425
 7465W        W74248  26.924  31.119   1.128
 7466W        W74249   7.675  15.567  12.516
 7467W        W74250  33.117  23.574   2.791
 7468W        W74251  14.173  40.507  14.230
 7469W        W74252   2.517   9.758   0.874
 7470W        W74253  32.143  35.824   1.659
 7471W        W74254   5.020  26.211   1.299
 7472W        W74255   4.273  13.726  11.601
 7473W        W74256  28.117  23.585  12.125
 7474W        W74257   9.188   9.806   0.625
 7475W        W74258  29.581  17.723   2.670
 7476W        W74259   6.965  34.844  12.118
 7477W        W74260  26.051   6.031  11.061
 7478W        W74261  16.596  38.078   0.503
 7479W        W74262  38.036  26.623  11.922
 7480W        W74263  17.282  24.351  10.176
 7481W        W74264  33.349  21.163  14.594
 7482W        W74265  15.770   5.769   3.387
 7483W        W74266   1.496  15.454   3.739
 7484W        W74267  44.949  41.884  11.704
 7485W        W74268  12.745  42.884  14.549
 7486W        W74269  15.620  15.613  12.850
 7487W        W74270  21.271  23.081   3.422
 7488W        W74271   5.675  19.264   2.217
 7489W        W74272  14.645  33.660  14.443
 7490W        W74273  33.536  13.888  13.871
 7491W        W74274  44.618  35.444   3.837
 7492W        W74275  14.037  12.907  10.151
 7493W        W74276  34.860  14.564   4.030
 7494W        W74277  35.072  22.123  12.840
 7495W        W74278  13.770   2.707   2.260
 7496W        W74279  11.788  35.100  12.032
 7497W        W74280  39.583   4.891   1.320
 7498W        W74281   6.362  40.582  14.298
 7499W        W74282  25.384  21.247  10.348
 7500W        W74283   0.277  31.492  14.297
 7501W        W74284   7.422  39.665   2.821
 7502W        W74285  20.031  28.479  13.967
 7503W        W74286   1.332  27.378   2.642
 7504W        W74287   5.899   2.480   3.321
 7505W        W74288  12.148  10.687   2.273
 7506W        W74289  42.075  24.985  12.956
 7507W        W74290  12.562  12.616  13.942
 7508W        W74291  20.521  19.662   4.346
 7509W        W74292  44.787   2.198  11.589
 7510W        W74293  14.328   9.039  10.790
 7511W        W74294  32.909  23.976  14.357
 7512W        W74295  18.165  31.938   2.358
 7513W        W74296  26.977  31.113  12.384
 7514W        W74297  17.198   8.968   3.631
 7515W        W74298  23.976  11.788  12.588
 7516W        W74299  40.059  28.184  12.476
 7517W        W74300  22.415  42.808  12.510
 7518W        W74301  41.852  21.785  12.457
 7519W        W74302  30.584  14.110   1.846
 7520W        W74303  20.348   9.382   2.658
 7521W        W74304  36.468  32.818   1.316
 7522W        W74305  17.049  35.457  10.605
 7523W        W74306  31.653   9.112   4.000
 7524W        W74307  13.695  27.615   3.310
 7525W        W74308  33.198  35.169  12.398
 7526W        W74309  22.437  21.311  11.940
 7527W        W74310  16.026   3.365  12.563
 7528W        W74311  17.774  24.707  11.877
 7529W        W74312   1.097  11.057  11.737
 7530W        W74313   7.344  31.201   1.672
 7531W        W74314   5.341  19.660   0.527
 7532W        W74315  40.605   8.441  14.775
 7533W        W74316  37.635  14.436   1.029
 7534W        W74317  34.152  43.146  13.190
 7535W        W74318   4.321  15.850   3.475
 7536W        W74319  20.745  22.674  10.555
 7537W        W74320  16.667  22.736  10.634
 7538W        W74321   2.936  25.625   0.856
 7539W        W74322  19.025  22.161   2.170
 7540W        W74323  26.346  11.849   5.042
 7541W        W74324   7.440  34.418  12.922
 7542W        W74325   8.899  35.376  12.963
 7543W        W74326  29.503  43.180   3.697
 7544W        W74327  27.701  10.986   0.870
 7545W        W74328  44.367  17.089  14.855
 7546W        W74329  28.356  24.974  11.083
 7547W        W74330   4.720  37.780  13.918
 7548W        W74331  32.657  42.869   4.767
 7549W        W74332  27.655  15.541  14.224
 7550W        W74333  34.257  26.125  13.972
 7551W        W74334  44.044  34.952   0.455
 7552W        W74335  14.272   7.938  14.021
 7553W        W74336   2.055  34.926   3.700
 7554W        W74337  15.416  23.333   0.767
 7555W        W74338  12.074  31.008  13.090
 7556W        W74339  24.436  43.885  14.847
 7557W        W74340   6.236  23.219  14.283
 7558W        W74341  17.753   8.879   4.592
 7559W        W74342   3.752  29.121  13.632
 7560W        W74343  24.735  39.849   0.633
 7561W        W74344  31.315  29.674  12.676
 7562W        W74345  13.621   2.446  13.825
 7563W        W74346  27.314  12.895  12.981
 7564W        W74347  28.995  18.486  13.830
 7565W        W74348  29.068  13.611  10.425
 7566W        W74349  11.136  22.003   2.818
 7567W        W74350  36.638   9.287  13.929
 7568W        W74351  27.083  33.564  13.536
 7569W        W74352  12.853  36.525  12.761
 7570W        W74353  35.843   4.160   0.385
 7571W        W74354   2.950  12.339  12.863
 7572W        W74355  39.480  35.280  11.534
 7573W        W74356  21.542   6.819   3.205
 7574W        W74357  16.303  12.453  10.728
 7575W        W74358  12.613  38.544  13.508
 7576W        W74359  35.931  35.087   2.816
 7577W        W74360  37.466   2.531  12.073
 7578W        W74361   9.315   9.593   1.154
 7579W        W74362  40.344  33.333  14.356
 7580W        W74363  34.267  28.489   2.209
 7581W        W74364  37.135  33.403   0.800
 7582W        W74365  10.256  31.901   2.681
 7583W        W74366  38.010   3.443   3.139
 7584W        W74367  30.708  24.053   4.825
 7585W        W74368   8.220  18.144  14.699
 7586W        W74369  34.396   5.475   1.076
 7587W        W74370  21.920   8.603  13.086
 7588W        W74371  22.253  12.654  10.256
 7589W        W74372  35.470  24.655   4.423
 7590W        W74373  15.760   1.727  14.386
 7591W        W74374  33.120  30.631   2.339
 7592W        W74375  43.984  16.009   0.842
 7593W        W74376   2.163  26.510   3.772
 7594W        W74377  34.083  33.352  11.702
 7595W        W74378  38.912  42.450   0.765
 7596W        W74379   5.964  16.670  11.630
 7597W        W74380  25.109  12.797  11.598
 7598W        W74381  27.973  35.753  11.630
 7599W        W74382   7.403  10.628   0.721
 7600W        W74383  42.743  26.132  11.173
 7601W        W74384  34.312  11.371  14.697
 7602W        W74385  13.313  39.766  10.984
 7603W        W74386  12.762   6.345  14.613
 7604W        W74387  12.417  11.352   4.078
 7605W        W74388  32.502  30.955  14.315
 7606W        W74389   5.275   0.509   1.407
 7607W        W74390  12.653  14.478   0.837
 7608W        W74391  11.680   9.583  13.455
 7609W        W74392  10.912  34.029   3.645
 7610W        W74393  35.424   3.922   4.573
 7611W        W74394  28.488  37.932   0.509
 7612W        W74395  11.717  36.459  13.327
 7613W        W74396   8.135  34.356  11.647
 7614W        W74397  21.537  14.669   5.007
 7615W        W74398  42.357  28.536   3.609
 7616W        W74399  23.716  36.484   3.800
 7617W        W74400  39.080  40.910  12.862
 7618W        W74401  22.555  14.559  11.911
 7619W        W74402  22.764  21.463   2.738
 7620W        W74403  39.544   8.764   4.166
 7621W        W74404  19.048   6.814   4.561
 7622W        W74405  22.466  40.054   2.203
 7623W        W74406  40.631  13.729  12.573
 7624W        W74407  33.704  32.628   5.047
 7625W        W74408  27.054  40.373   0.639
 7626W        W74409  41.783  23.794   4.067
 7627W        W74410  27.046  30.200   2.963
 7628W        W74411  40.140  16.382  10.706
 7629W        W74412  29.139  17.580   2.402
 7630W        W74413  44.961   2.809  14.362
 7631W        W74414  18.970  19.140  13.342
 7632W        W74415  39.827  42.859  13.312
 7633W        W74416  15.188  32.264  10.656
 7634W        W74417  25.029  15.600  14.427
 7635W        W74418   0.751  33.062   0.455
 7636W        W74419  36.995  17.136   0.011
 7637W        W74420  42.032  37.548  10.522
 7638W        W74421  24.768   6.060   5.125
 7639W        W74422   0.670  41.504   1.396
 7640W        W74423  43.723  29.062   3.578
 7641W        W74424  19.476  16.309  11.809
 7642W        W74425  11.789  15.085  13.857
 7643W        W74426   8.379  20.473  11.205
 7644W        W74427  18.607  41.737  14.417
 7645W        W74428  43.883  26.025   4.544
 7646W        W74429  19.595  38.617   2.180
 7647W        W74430  44.436  11.047   4.120
 7648W        W74431  18.313  24.146  12.987
 7649W        W74432  22.084  10.233   3.402
 7650W        W74433  34.600  16.193   3.573
 7651W        W74434  10.277  17.416   2.610
 7652W        W74435  30.159  17.811   4.010
 7653W        W74436  34.004  34.944   4.342
 7654W        W74437   9.027   2.084   4.161
 7655W        W74438  22.736  41.398  14.844
 7656W        W74439  39.900  26.229   4.607
 7657W        W74440  19.220  43.409  14.375
 7658W        W74441  23.592   7.518   4.177
 7659W        W74442  39.097  33.541   0.774
 7660W        W74443  20.315  24.267   0.477
 7661W        W74444  16.171  19.093   1.639
 7662W        W74445   3.257  11.823   2.298
 7663W        W74446  44.276  28.717   0.006
 7664W        W74447  16.537  32.797  13.127
 7665W        W74448  43.342  11.024   2.735
 7666W        W74449  34.835  11.394   4.097
 7667W        W74450  35.768   6.533   0.836
 7668W        W74451  25.768  10.719  13.512
 7669W        W74452  23.476  15.563   1.900
 7670W        W74453  19.537  19.797   4.091
 7671W        W74454   4.421  14.318  14.071
 7672W        W74455   3.148  18.150   4.522
 7673W        W74456  18.088  10.297  10.761
 7674W        W74457  38.360  14.650  13.832
 7675W        W74458  32.827   3.982  11.011
 7676W        W74459  18.764  16.073   0.752
 7677W        W74460  28.031  34.463   0.280
 7678W        W74461  32.115  18.838  11.776
 7679W        W74462  44.494  19.287  13.849
 7680W        W74463   2.944  34.703   5.103
 7681W        W74464  18.791   3.189   2.677
 7682W        W74465  40.984   8.111   1.705
 7683W        W74466  40.917  29.103  13.965
 7684W        W74467  27.600  18.491  14.399
 7685W        W74468  18.766   7.709   2.174
 7686W        W74469  33.010  11.868   2.199
 7687W        W74470  22.131  25.530   2.078
 7688W        W74471  26.698  40.045   0.363
 7689W        W74472   7.834  37.073   3.478
 7690W        W74473  35.828  17.256  12.887
 7691W        W74474  15.077  20.085   0.205
 7692W        W74475   1.999   1.932   4.088
 7693W        W74476  10.220  30.229  10.725
 7694W        W74477   0.019  23.532   4.572
 7695W        W74478  32.431  13.108   4.788
 7696W        W74479  37.569  25.134  14.316
 7697W        W74480  25.423  12.924  12.882
 7698W        W74481  40.953  33.181   3.833
 7699W        W74482   3.636   1.442   0.396
 7700W        W74483  39.500  32.606   4.631
 7701W        W74484  17.211  41.562  13.825
 7702W        W74485   8.747  25.750   3.660
 7703W        W74486   6.623  12.715  14.882
 7704W        W74487  20.623  35.855   2.871
 7705W        W74488   9.360   2.891  13.372
 7706W        W74489  34.408  24.925  14.960
 7707W        W74490  37.592  38.476  14.018
 7708W        W74491   5.379   9.475  11.257
 7709W        W74492  36.152   3.865  13.580
 7710W        W74493  10.929  18.488   2.708
 7711W        W74494   4.214  14.643  11.541
 7712W        W74495  18.077  26.704  10.315
 7713W        W74496   3.600  10.394  11.261
 7714W        W74497  16.913   0.833   0.800
 7715W        W74498  40.266  33.648   3.688
 7716W        W74499  37.124  32.123  12.387
 7717W        W74500  26.683  14.548  13.516
 7718W        W74501  21.506  32.401  12.206
 7719W        W74502   2.378   2.164  11.517
 7720W        W74503  15.125  27.680  13.839
 7721W        W74504  27.712  41.518   1.300
 7722W        W74505  12.498  29.111   1.184
 7723W        W74506  13.504   8.205   2.298
 7724W        W74507  28.186  23.743   1.303
 7725W        W74508  32.988   3.052   1.322
 7726W        W74509  35.542  38.657  11.254
 7727W        W74510  16.307   8.046   0.220
 7728W        W74511  21.735  24.727   0.729
 7729W        W74512  42.966  42.416   3.858
 7730W        W74513  28.656  31.968  12.460
 7731W        W74514   4.660  38.099  11.157
 7732W        W74515  11.359  39.119  12.590
 7733W        W74516  18.960   9.578  11.937
 7734W        W74517  10.185  42.376  14.801
 7735W        W74518   3.502  43.544  12.877
 7736W        W74519   2.232  41.944   4.425
 7737W        W74520  26.801  19.940  14.958
 7738W        W74521   7.773   5.456   0.350
 7739W        W74522  27.640  39.637   4.182
 7740W        W74523  38.995  20.735  12.144
 7741W        W74524  37.036  39.972   3.675
 7742W        W74525  14.327  11.125  13.788
 7743W        W74526  43.892  21.199   4.084
 7744W        W74527  19.824  39.005  11.032
 7745W        W74528  22.787  33.443  14.518
 7746W        W74529  35.826  21.140   1.359
 7747W        W74530  42.257  42.618   2.725
 7748W        W74531  44.986  21.150   0.230
 7749W        W74532  39.469  21.771  14.081
 7750W        W74533   8.747  22.163   2.475
 7751W        W74534  30.260  28.453  13.109
 7752W        W74535   2.927  14.621  12.856
 7753W        W74536  26.074   3.949  13.445
 7754W        W74537  27.926  23.715   1.763
 7755W        W74538   8.654  28.177  11.558
 7756W        W74539  41.769  16.079   4.602
 7757W        W74540   9.414  11.376  12.606
 7758W        W74541  21.534  11.421   1.433
 7759W        W74542  29.603   4.883  10.691
 7760W        W74543  15.651  20.225  12.347
 7761W        W74544  39.722   1.409   4.600
 7762W        W74545  21.112  14.374  12.465
 7763W        W74546  39.632   8.347  14.979
 7764W        W74547   0.395  22.252   3.258
 7765W        W74548  14.223   7.386   1.349
 7766W        W74549  42.005  21.118   4.652
 7767W        W74550   3.190  42.956  11.673
 7768W        W74551  26.703   9.252   1.779
 7769W        W74552   2.497  30.148  11.665
 7770W        W74553  41.421  11.684   0.722
 7771W        W74554  44.455  41.611   4.029
 7772W        W74555   0.226  20.349   1.442
 7773W        W74556  31.236  24.644   0.512
 7774W        W74557  16.802   0.757  10.755
 7775W        W74558   4.257  35.320   3.747
 7776W        W74559  16.159  37.274  13.797
 7777W        W74560  22.689   2.451   4.057
 7778W        W74561  18.605   9.277  11.067
 7779W        W74562  25.062  34.254   4.857
 7780W        W74563  20.580  42.289   2.023
 7781W        W74564  14.255  25.447   2.007
 7782W        W74565  43.233  25.633   4.858
 7783W        W74566  36.569  10.246   1.207
 7784W        W74567  14.561  36.660   1.454
 7785W        W74568  41.433  38.416   1.941
 7786W        W74569  40.265   5.827   2.697
 7787W        W74570  32.904  38.043   3.742
 7788W        W74571  12.187  27.267  14.407
 7789W        W74572  11.603   1.151  12.446
 7790W        W74573  12.226  39.511  13.135
 7791W        W74574  37.308  16.543  13.484
 7792W        W74575  18.136  20.164  11.514
 7793W        W74576   4.434  31.736  12.492
 7794W        W74577  42.448   2.282  12.119
 7795W        W74578   0.376   9.436   1.175
 7796W        W74579  44.613  44.780  10.054
 7797W        W74580  32.440  12.026  11.316
 7798W        W74581  18.273  13.712   1.969
 7799W        W74582   3.765  24.518  11.290
 7800W        W74583  36.754  39.594   3.382
 7801W        W74584   3.270  37.453  14.512
 7802W        W74585  30.728  37.821  12.592
 7803W        W74586  41.758  32.379   0.804
 7804W        W74587  35.602   7.987  14.188
 7805W        W74588  40.006  11.369  12.469
 7806W        W74589   7.304  14.717   4.793
 7807W        W74590  25.639  23.013  10.604
 7808W        W74591  36.371  37.014   0.303
 7809W        W74592  30.345  18.837   0.422
 7810W        W74593  31.634   1.137  11.640
 7811W        W74594   6.389  42.812  14.087
 7812W        W74595  26.633  27.673   1.995
 7813W        W74596   0.985  19.759   3.280
 7814W        W74597  25.762   9.314   0.980
 7815W        W74598  21.754   2.048   0.481
 7816W        W74599  43.872   4.982   1.057
 7817W        W74600   6.307   5.919   1.230
 7818W        W74601   6.166  24.217   0.429
 7819W        W74602  40.374  18.213  13.944
 7820W        W74603  36.406   6.450   1.415
 7821W        W74604  11.773  34.862   0.213
 7822W        W74605   5.141   6.254   0.267
 7823W        W74606  38.003  20.528   1.396
 7824W        W74607   9.736  35.870  10.827
 7825W        W74608  15.173  11.648   4.491
 7826W        W74609   9.071   6.589   4.905
 7827W        W74610   2.235  10.650  11.261
 7828W        W74611   2.895   1.339  12.534
 7829W        W74612   9.184  30.991   2.423
 7830W        W74613  16.303   9.396  14.571
 7831W        W74614  16.599  38.021  12.901
 7832W        W74615  15.593   3.179   1.727
 7833W        W74616  32.400  31.011  14.873
 7834W        W74617  16.150  38.268   5.055
 7835W        W74618  39.368  26.007   2.807
 7836W        W74619  38.038   8.269  11.241
 7837W        W74620   2.476  29.550  13.943
 7838W        W74621  44.278  17.133   3.679
 7839W        W74622  21.720   0.490   1.412
 7840W        W74623   3.246   5.096   1.675
 7841W        W74624   3.357  34.364  12.325
 7842W        W74625  40.639   2.381   0.587
 7843W        W74626   5.868  19.653   1.369
 7844W        W74627  13.214  31.109   4.349
 7845W        W74628  30.619   9.328  11.643
 7846W        W74629  22.599  11.775   4.123
 7847W        W74630  21.152  24.147  11.161
 7848W        W74631  27.355  44.699   4.626
 7849W        W74632   7.622   9.830   1.362
 7850W        W74633  31.617   8.657  12.394
 7851W        W74634  33.187  44.274  14.873
 7852W        W74635  23.436  16.633  14.506
 7853W        W74636   6.749  23.337   4.734
 7854W        W74637  41.078  21.076  13.514
 7855W        W74638  22.968  27.524   4.229
 7856W        W74639  18.726   3.382   1.155
 7857W        W74640  36.898  40.087   4.572
 7858W        W74641  10.386  28.084  12.464
 7859W        W74642  12.921  24.982   0.822
 7860W        W74643  35.029  12.262   3.042
 7861W        W74644  10.010  36.661  11.086
 7862W        W74645   8.364  12.456  11.132
 7863W        W74646   3.651  43.598   1.922
 7864W        W74647   0.028  23.203   2.410
 7865W        W74648  17.042  29.413   4.509
 7866W        W74649  27.772  28.674   3.891
 7867W        W74650  13.543  22.677   1.705
 7868W        W74651   2.658  16.526  14.796
 7869W        W74652  41.413  27.977  14.322
 7870W        W74653   9.307   8.339   0.975
 7871W        W74654  16.259  22.916  13.388
 7872W        W74655  42.504  26.079  13.956
 7873W        W74656  37.407   3.975   1.973
 7874W        W74657  10.075   7.086  13.467
 7875W        W74658  41.929   2.982   3.660
 7876W        W74659  22.965  15.037  14.530
 7877W        W74660  28.720   9.611  11.029
 7878W        W74661  19.749  30.762   2.333
 7879W        W74662  26.248  41.693   3.045
 7880W        W74663  17.716   1.527  13.387
 7881W        W74664  43.320  32.205  13.440
 7882W        W74665   8.685  28.058  14.364
 7883W        W74666  39.224   5.704  11.915
 7884W        W74667  31.782  26.445   2.502
 7885W        W74668  21.620  21.703  12.707
 7886W        W74669  28.045   9.070   4.666
 7887W        W74670  32.135   2.821  14.339
 7888W        W74671  32.224   6.212  13.282
 7889W        W74672  33.078  29.330   3.294
 7890W        W74673  26.099  43.953  12.142
 7891W        W74674  30.593  27.579  13.890
 7892W        W74675   3.939  14.695   0.790
 7893W        W74676   9.515  15.421  14.477
 7894W        W74677  37.064  25.511  13.840
 7895W        W74678  26.945  13.202   1.843
 7896W        W74679   3.673   5.555  13.286
 7897W        W74680  35.089   5.732  12.426
 7898W        W74681  16.294  38.889  12.971
 7899W        W74682   2.518  21.667  12.943
 7900W        W74683  39.901  21.049  11.685
 7901W        W74684  37.894  41.799  11.995
 7902W        W74685  40.589  34.420   0.215
 7903W        W74686  22.771   2.376  13.341
 7904W        W74687  28.483  14.273   0.497
 7905W        W74688  34.307  20.837   2.919
 7906W        W74689  39.411  11.261  14.509
 7907W        W74690  15.198  24.619   5.187
 7908W        W74691  18.912  15.346   4.092
 7909W        W74692  28.192   2.412   1.844
 7910W        W74693  14.615  35.737   5.029
 7911W        W74694  35.799  20.579  13.594
 7912W        W74695  43.931  29.526  14.849
 7913W        W74696  38.978  38.282   2.742
 7914W        W74697  42.882  43.699  10.619
 7915W        W74698  20.296  43.538   3.138
 7916W        W74699   7.545   3.711  12.641
 7917W        W74700  23.058  34.513  12.377
 7918W        W74701  23.337   2.651   0.795
 7919W        W74702  30.618   9.315  12.594
 7920W        W74703  25.525   7.846   3.206
 7921W        W74704  12.399   5.305   3.658
 7922W        W74705   0.909  28.583  13.897
 7923W        W74706   1.235   6.693   3.172
 7924W        W74707  24.523  18.901  12.190
 7925W        W74708  33.051  14.117  14.569
 7926W        W74709  26.819   4.894   4.742
 7927W        W74710  29.961   8.666  10.754
 7928W        W74711  13.817   9.911  14.655
 7929W        W74712  37.648  14.697  13.069
 7930W        W74713  44.725  42.975   5.043
 7931W        W74714  28.955  15.996   2.651
 7932W        W74715  40.354  29.596   3.750
 7933W        W74716  36.926  15.736  11.194
 7934W        W74717  21.700  15.030  12.884
 7935W        W74718  20.178  32.611   1.969
 7936W        W74719  43.682   4.667   3.549
 7937W        W74720  40.291  43.999  14.406
 7938W        W74721  35.179  39.836  11.205
 7939W        W74722  14.783  37.437   0.651
 7940W        W74723   1.506   3.457   0.203
 7941W        W74724  23.735   3.648  14.004
 7942W        W74725  43.290  23.922  12.439
 7943W        W74726  22.128   1.144  12.011
 7944W        W74727  24.268  12.839  11.737
 7945W        W74728  18.778   8.880  14.006
 7946W        W74729  11.796  41.354  14.918
 7947W        W74730  20.365  41.466   2.806
 7948W        W74731  15.117   4.688  12.269
 7949W        W74732  13.660  27.175   2.486
 7950W        W74733  17.415  16.456  11.061
 7951W        W74734   0.494   3.228  12.032
 7952W        W74735  12.898  14.159   2.743
 7953W        W74736  32.614  26.836  14.908
 7954W        W74737  28.595   1.713  10.852
 7955W        W74738   3.148  33.546  14.420
 7956W        W74739  40.961  33.959   3.218
 7957W        W74740  37.396  14.799   4.188
 7958W        W74741   4.838  24.236  13.024
 7959W        W74742  25.435  41.449   0.872
 7960W        W74743  11.353  37.055  14.695
 7961W        W74744  44.911  29.431   3.102
 7962W        W74745  44.902  13.889   0.854
 7963W        W74746  28.827   7.401   3.448
 7964W        W74747  40.827  17.965  12.035
 7965W        W74748  13.862  35.625   1.947
 7966W        W74749  23.284  17.121   0.273
 7967W        W74750  25.316   4.253  12.503
 7968W        W74751  37.193  13.646   1.526
 7969W        W74752  29.046  41.107  14.183
 7970W        W74753   6.207  32.597   1.410
 7971W        W74754  11.381   8.178   4.473
 7972W        W74755   6.907  35.446  10.736
 7973W        W74756  36.855  28.183  13.887
 7974W        W74757   4.858  39.884   9.874
 7975W        W74758  17.648  41.305   2.770
 7976W        W74759   9.123  22.374   0.406
 7977W        W74760   0.484  14.533  11.657
 7978W        W74761  33.232  43.739  12.407
 7979W        W74762  22.627  16.118   0.850
 7980W        W74763  26.414  43.338  11.081
 7981W        W74764   0.530  39.792  12.121
 7982W        W74765  20.125  28.446   1.327
 7983W        W74766   1.896  22.560   2.331
 7984W        W74767  20.577  14.654  12.050
 7985W        W74768  37.635  34.822  14.976
 7986W        W74769   4.393  29.538   2.264
 7987W        W74770  14.578  36.751   4.498
 7988W        W74771  42.373  20.271   3.874
 7989W        W74772  21.225  22.190   1.250
 7990W        W74773  26.240  16.390   3.207
 7991W        W74774  19.071   3.496   2.366
 7992W        W74775   9.071  39.964   0.951
 7993W        W74776   0.045  30.080  13.956
 7994W        W74777  20.056  37.430   0.268
 7995W        W74778   9.868  28.068  12.652
 7996W        W74779  32.498  38.455   4.464
 7997W        W74780  23.625  40.312   4.026
 7998W        W74781  28.182  39.114  12.529
 7999W        W74782  17.365  42.372   1.389
 8000W        W74783  41.943  33.420  10.068
 8001W        W74784  22.122  28.273   4.418
 8002W        W74785  32.108   9.678   0.933
 8003W        W74786  33.525  40.521  13.031
 8004W        W74787  35.857  23.531   1.124
 8005W        W74788  10.141  13.332   2.174
 8006W        W74789  39.761  26.678   0.427
 8007W        W74790  19.315  37.003  12.622
 8008W        W74791  39.568  33.127   0.333
 8009W        W74792  21.902  14.306   4.629
 8010W        W74793   7.278  15.766  14.187
 8011W        W74794  23.153   5.318  11.233
 8012W        W74795  40.594   1.880  14.448
 8013W        W74796  30.587   0.491  14.289
 8014W        W74797  28.861  44.260  13.091
 8015W        W74798  18.657  44.156   2.408
 8016W        W74799  39.761  38.390  10.635
 8017W        W74800  41.395   0.694   3.317
 8018W        W74801  39.991   2.373  13.807
 8019W        W74802  26.118  23.691   2.355
 8020W        W74803   5.415  43.606  12.842
 8021W        W74804  18.837  26.089   4.458
 8022W        W74805  30.424  30.119  13.917
 8023W        W74806  40.070  19.722   1.001
 8024W        W74807  40.543  18.968  10.626
 8025W        W74808  32.539  23.315   0.239
 8026W        W74809  37.583  25.724   3.249
 8027W        W74810   5.871   9.435   1.705
 8028W        W74811  39.437   7.482   4.836
 8029W        W74812   0.799  16.809   2.819
 8030W        W74813  33.742  16.277  13.822
 8031W        W74814  41.765  16.584  10.553
 8032W        W74815   3.394  24.204   2.686
 8033W        W74816  25.959   7.267  14.392
 8034W        W74817   7.826   9.208  14.079
 8035W        W74818  32.515  39.805   3.790
 8036W        W74819  39.367  32.063   2.866
 8037W        W74820  13.809  15.680   4.916
 8038W        W74821   2.990  34.709   2.323
 8039W        W74822  26.286  13.114  11.990
 8040W        W74823  41.231   3.148  13.429
 8041W        W74824  36.050  35.439   1.704
 8042W        W74825  34.981  21.702   0.728
 8043W        W74826  13.597  23.613   0.502
 8044W        W74827  30.946  44.795   3.748
 8045W        W74828  44.081  14.436  13.026
 8046W        W74829  24.001  34.559  11.979
 8047W        W74830  43.347   3.744   3.446
 8048W        W74831  31.930   0.369  12.875
 8049W        W74832   7.961  42.953   4.509
 8050W        W74833  11.790  27.625  10.514
 8051W        W74834   8.277  30.165  12.288
 8052W        W74835  18.092  40.378   1.964
 8053W        W74836  19.976  39.933  13.314
 8054W        W74837  24.108  43.486  12.441
 8055W        W74838  40.359  37.437  12.507
 8056W        W74839   7.338  16.275  11.993
 8057W        W74840  11.141  36.391  12.083
 8058W        W74841   3.804  24.865  14.464
 8059W        W74842  19.609   9.861  14.979
 8060W        W74843  37.800  36.312   3.875
 8061W        W74844  13.253  16.511   3.153
 8062W        W74845  28.215  30.216  11.185
 8063W        W74846  24.689  23.611   1.907
 8064W        W74847  26.319  30.134  13.794
 8065W        W74848  35.289  15.779  13.439
 8066W        W74849  10.960  30.816   2.195
 8067W        W74850  19.590  15.311  12.655
 8068W        W74851  35.905  35.256  13.369
 8069W        W74852  37.919  31.676  13.480
 8070W        W74853   4.842  33.495   2.159
 8071W        W74854  17.550  35.417  13.297
 8072W        W74855  29.197  19.877  14.921
 8073W        W74856  42.448   6.183   4.251
 8074W        W74857  21.330   4.022   2.700
 8075W        W74858   6.975   5.481   2.704
 8076W        W74859  25.611   0.004  10.707
 8077W        W74860  33.635  25.515   0.672
 8078W        W74861  11.403  11.858  14.822
 8079W        W74862   4.888  44.811   4.073
 8080W        W74863  12.155  17.307   1.191
 8081W        W74864  12.145   2.242  11.517
 8082W        W74865  41.398  34.816  13.308
 8083W        W74866  36.225   3.455   0.936
 8084W        W74867  16.222  43.300  14.253
 8085W        W74868  41.308  29.312   0.219
 8086W        W74869   9.243  25.450   3.274
 8087W        W74870  11.996  12.246   1.839
 8088W        W74871   9.290  34.084   3.753
 8089W        W74872  33.607  25.630   3.619
 8090W        W74873  15.576  20.978   3.137
 8091W        W74874   1.767  13.195  15.000
 8092W        W74875  38.008   5.468   2.174
 8093W        W74876   8.319  25.294  10.691
 8094W        W74877  26.039  21.306  12.785
 8095W        W74878   4.893  35.022  11.595
 8096W        W74879   3.639  14.795  13.880
 8097W        W74880  43.060  40.349   3.050
 8098W        W74881   7.963  42.815  12.263
 8099W        W74882  35.133  34.470  14.394
 8100W        W74883  35.960  11.846  13.452
 8101W        W74884  17.103  10.937   1.346
 8102W        W74885   5.943   5.194  14.084
 8103W        W74886  20.035   0.812  11.495
 8104W        W74887   9.521  34.949   5.024
 8105W        W74888  37.086  33.999  11.444
 8106W        W74889  38.258  10.715  10.984
 8107W        W74890  32.502  19.718   5.522
 8108W        W74891  39.048  25.448   1.630
 8109W        W74892  38.025   0.458  13.895
 8110W        W74893  18.815   4.174  11.322
 8111W        W74894  31.436  27.269   1.693
 8112W        W74895  12.466  11.591  14.131
 8113W        W74896  37.310   0.345  12.020
 8114W        W74897  11.435  27.442  14.476
 8115W        W74898  36.899  39.265   1.941
 8116W        W74899  34.009   5.730   4.888
 8117W        W74900  10.964  15.856  12.065
 8118W        W74901  42.134  16.096  14.387
 8119W        W74902   7.602  23.613  11.626
 8120W        W74903  32.081  39.983   1.234
 8121W        W74904  30.405   4.209   1.847
 8122W        W74905  16.154   3.447  14.828
 8123W        W74906  28.955  43.785   1.496
 8124W        W74907  23.661  32.305   2.230
 8125W        W74908  17.820   7.810  13.490
 8126W        W74909  37.967  34.027  11.319
 8127W        W74910  26.074   6.451  14.720
 8128W        W74911  24.973  10.055  14.558
 8129W        W74912  37.927   9.189   4.489
 8130W        W74913  25.653  38.769  12.986
 8131W        W74914   4.826  18.680  10.691
 8132W        W74915  15.641  35.899   1.319
 8133W        W74916  28.009  34.090  12.461
 8134W        W74917  36.867   4.774  10.636
 8135W        W74918  20.982  33.828  13.425
 8136W        W74919  36.964  14.383  12.013
 8137W        W74920   1.478  38.233  11.307
 8138W        W74921  26.615  17.131  14.727
 8139W        W74922   3.411   0.002   0.748
 8140W        W74923  22.722  29.202   0.922
 8141W        W74924  22.671  33.624   3.027
 8142W        W74925  37.019  44.483  14.838
 8143W        W74926  41.008  14.064  14.553
 8144W        W74927   8.161  12.276   2.923
 8145W        W74928  15.558  30.873   4.181
 8146W        W74929  38.804  34.954   1.373
 8147W        W74930  10.772  26.535  12.821
 8148W        W74931   6.932  32.200  11.923
 8149W        W74932  42.803  26.522  12.153
 8150W        W74933  18.540  43.385  11.048
 8151W        W74934  37.398  10.734   3.405
 8152W        W74935  17.536  34.060   0.930
 8153W        W74936  43.641  32.957  14.837
 8154W        W74937  30.999  21.480  14.892
 8155W        W74938  10.067  32.532   2.156
 8156W        W74939  31.398  25.564  14.698
 8157W        W74940  29.718   2.003   0.385
 8158W        W74941  25.394  23.588  12.002
 8159W        W74942  42.982   5.308  10.857
 8160W        W74943  41.033  42.863  13.069
 8161W        W74944  28.697  37.093  14.409
 8162W        W74945  21.161  27.547   0.489
 8163W        W74946  36.802  44.345   4.943
 8164W        W74947  16.310  39.638  13.611
 8165W        W74948  38.326  31.638  14.588
 8166W        W74949  15.189  39.482   2.994
 8167W        W74950  23.314  29.549  13.564
 8168W        W74951  28.392  11.392   4.651
 8169W        W74952  19.758   8.999   5.080
 8170W        W74953   5.191  27.651  12.550
 8171W        W74954  10.022  27.567   1.666
 8172W        W74955  40.343  13.054   4.664
 8173W        W74956  36.489  42.392   0.280
 8174W        W74957  35.981  14.113   3.368
 8175W        W74958  43.859  41.525   4.621
 8176W        W74959   2.437  16.533  14.311
 8177W        W74960   2.580  32.455  10.969
 8178W        W74961  26.054   0.985   1.254
 8179W        W74962   6.133  39.198  11.582
 8180W        W74963  27.741   4.364  13.237
 8181W        W74964  10.549  33.098  14.537
 8182W        W74965   0.525  15.983   4.646
 8183W        W74966   9.944  38.415   1.457
 8184W        W74967  40.864   2.811   0.741
 8185W        W74968  18.250   8.034  14.838
 8186W        W74969  18.023  35.174   2.681
 8187W        W74970  28.080  42.339   2.670
 8188W        W74971  19.232  25.242  12.691
 8189W        W74972   1.825  22.196  10.396
 8190W        W74973  22.548   2.330  10.746
 8191W        W74974   4.907  37.965  13.459
 8192W        W74975  29.242   5.751   1.445
 8193W        W74976   2.765  34.373  12.013
 8194W        W74977  27.947  38.963   0.340
 8195W        W74978  44.378  10.841   2.858
 8196W        W74979  10.070  38.473   3.699
 8197W        W74980   2.679  33.422   2.031
 8198W        W74981  35.810  44.878  13.360
 8199W        W74982  40.849  39.255   3.337
 8200W        W74983  18.071  19.452   2.268
 8201W        W74984  19.041  41.865   3.165
 8202W        W74985  42.813  34.576  14.321
 8203W        W74986  30.773  21.350   0.385
 8204W        W74987  21.714  32.509  13.578
 8205W        W74988  26.475  27.901  14.263
 8206W        W74989  20.748  14.421   5.414
 8207W        W74990  18.583  12.046   4.546
 8208W        W74991  44.348  29.492  12.998
 8209W        W74992  13.128  11.158   3.851
 8210W        W74993   5.458   6.337  11.693
 8211W        W74994  28.649  11.760   4.927
 8212W        W74995  29.561  35.521  11.513
 8213W        W74996  40.780  23.536   4.836
 8214W        W74997  16.453   9.570  11.117
 8215W        W74998  21.530  30.101   4.265
 8216W        W74999  23.432  44.906  14.848
 8217W        W75000   9.251  40.696  11.547
 8218W        W75001  29.657  30.906   1.674
 8219W        W75002  41.753  31.684   2.746
 8220W        W75003   9.902  27.738   4.851
 8221W        W75004  32.913   5.878   3.557
 8222W        W75005  26.978   3.693   2.250
 8223W        W75006  30.179  36.407  14.957
 8224W        W75007   4.666  25.160   0.442
 8225W        W75008  37.695  39.898  11.204
 8226W        W75009  28.136  11.919   5.036
 8227W        W75010   7.892  19.022   4.417
 8228W        W75011  22.679  15.862   0.412
 8229W        W75012  10.612   7.623   0.792
 8230W        W75013  39.313  30.423  11.447
 8231W        W75014  38.375  35.486   3.112
 8232W        W75015   1.761  27.600   1.899
 8233W        W75016  20.142  20.007   1.690
 8234W        W75017  26.682  16.163  12.524
 8235W        W75018   3.847  12.446  11.102
 8236W        W75019   3.955  32.968  11.644
 8237W        W75020   6.388   8.484   2.324
 8238W        W75021   7.978  17.359  12.013
 8239W        W75022  43.324  10.691  13.974
 8240W        W75023  20.609   2.800   3.757
 8241W        W75024   1.356  33.133  14.533
 8242W        W75025  12.800  44.291  14.810
 8243W        W75026   0.256  27.502   4.085
 8244W        W75027   9.291  36.006   4.444
 8245W        W75028  25.288  36.997  13.881
 8246W        W75029  27.501  34.337  10.977
 8247W        W75030   5.655  30.553   2.421
 8248W        W75031  10.241  34.697   3.819
 8249W        W75032  43.651  42.846  14.229
 8250W        W75033  17.552  29.385  13.869
 8251W        W75034   3.416  30.950   2.845
 8252W        W75035  30.559   8.191   1.433
 8253W        W75036  43.905  26.262   0.481
 8254W        W75037  32.195   1.377   3.241
 8255W        W75038  21.668  30.231  14.911
 8256W        W75039  38.082   4.776   0.330
 8257W        W75040   1.935  20.553   2.140
 8258W        W75041   2.173  32.555   4.304
 8259W        W75042  10.066  20.441   4.152
 8260W        W75043  34.492  21.943   3.289
 8261W        W75044  33.322  15.100  14.354
 8262W        W75045  38.362  18.781   0.969
 8263W        W75046  30.855   7.814   2.738
 8264W        W75047  12.530  10.898  10.275
 8265W        W75048   5.373  17.271  14.785
 8266W        W75049  43.761  37.923   1.376
 8267W        W75050  30.298  24.155  13.407
 8268W        W75051  27.297  15.160  12.988
 8269W        W75052  12.632  28.327   2.821
 8270W        W75053  17.023  43.831   2.894
 8271W        W75054   9.788  10.072  11.828
 8272W        W75055  35.025  30.998  12.947
 8273W        W75056   0.845  39.622  14.004
 8274W        W75057   9.251   4.446   2.337
 8275W        W75058   0.230   5.973   0.467
 8276W        W75059  18.751  42.041  14.018
 8277W        W75060  23.539  29.454   2.197
 8278W        W75061  32.074  27.267   2.601
 8279W        W75062  26.493  11.356  13.451
 8280W        W75063  33.590  34.966   4.616
 8281W        W75064  16.197  37.865   5.392
 8282W        W75065  20.641  23.504   4.343
 8283W        W75066   4.235  36.592  14.771
 8284W        W75067  25.960   6.416   2.773
 8285W        W75068  23.539   7.684  13.954
 8286W        W75069  20.426  20.782  11.078
 8287W        W75070  22.255  42.231  11.354
 8288W        W75071  14.892   8.062   2.434
 8289W        W75072  29.424  12.106   0.228
 8290W        W75073  32.207  26.186   3.670
 8291W        W75074  27.144  38.124  13.439
 8292W        W75075  28.035  35.062   3.616
 8293W        W75076  33.394  44.898   0.748
 8294W        W75077  40.652  34.442  13.762
 8295W        W75078  16.749   7.111   5.205
 8296W        W75079  30.474  19.336   0.350
 8297W        W75080  40.724  40.877  12.871
 8298W        W75081  27.482   9.376  13.018
 8299W        W75082  26.788  29.694  14.960
 8300W        W75083  43.656  30.012  11.523
 8301W        W75084  10.288  31.102  10.486
 8302W        W75085   3.121  43.366   4.690
 8303W        W75086  12.373  15.360  11.562
 8304W        W75087  38.457  32.680   4.615
 8305W        W75088  21.192  29.597  10.737
 8306W        W75089   0.237  30.236   1.299
 8307W        W75090  10.269   8.725  14.815
 8308W        W75091  24.243   2.531   3.120
 8309W        W75092  19.857  32.541   4.728
 8310W        W75093  35.893  25.536   4.766
 8311W        W75094  40.650  34.515   1.961
 8312W        W75095  15.672  23.505   1.353
 8313W        W75096  15.175  19.294  13.836
 8314W        W75097  43.757  17.882  14.299
 8315W        W75098  37.950  11.185  14.781
 8316W        W75099  28.033  20.159   3.599
 8317W        W75100  13.873   8.694  12.842
 8318W        W75101   7.856   1.983   0.974
 8319W        W75102  29.779  18.215  11.717
 8320W        W75103  34.966  11.430   5.321
 8321W        W75104  36.501  16.932   3.317
 8322W        W75105  34.909  10.246  11.437
 8323W        W75106  33.531   7.629   4.431
 8324W        W75107  34.079  30.472   4.126
 8325W        W75108  25.276  17.259  10.981
 8326W        W75109  24.583  14.331   1.372
 8327W        W75110  38.359   4.465  11.105
 8328W        W75111   9.849   8.447  14.863
 8329W        W75112  40.567   9.004  10.888
 8330W        W75113  39.165  39.383   1.580
 8331W        W75114  38.892  20.514  11.199
 8332W        W75115  29.022  13.139   1.411
 8333W        W75116  31.709  19.502   3.081
 8334W        W75117  18.043  34.893   3.099
 8335W        W75118  30.986  27.727  10.990
 8336W        W75119  26.915  30.616   1.292
 8337W        W75120   9.637   2.121  11.475
 8338W        W75121  13.252  25.114   1.203
 8339W        W75122  17.306  24.460   1.056
 8340W        W75123  25.546  29.925   4.875
 8341W        W75124  15.226  34.345  11.978
 8342W        W75125  23.964  20.534   1.309
 8343W        W75126   1.623  16.738   0.814
 8344W        W75127  38.889   2.838   2.715
 8345W        W75128  21.308  19.810  11.139
 8346W        W75129  44.758   4.202   1.177
 8347W        W75130   9.086  34.025  11.599
 8348W        W75131  15.663  24.644   4.372
 8349W        W75132  15.738  36.385   0.426
 8350W        W75133  17.331   5.295   1.947
 8351W        W75134  27.571   5.207  14.849
 8352W        W75135   2.786  28.217   0.953
 8353W        W75136  24.189  15.772   2.737
 8354W        W75137  21.744  40.173   3.814
 8355W        W75138  28.999  36.411   0.357
 8356W        W75139   7.150   3.748  14.054
 8357W        W75140  38.834   9.401   1.699
 8358W        W75141   9.879   4.454   2.689
 8359W        W75142   6.137  19.332  13.436
 8360W        W75143   0.482  17.364   4.424
 8361W        W75144  29.870  10.713   2.165
 8362W        W75145  14.264  24.788   1.318
 8363W        W75146  27.489   7.985   0.852
 8364W        W75147   7.529  36.591  12.091
 8365W        W75148  14.316  11.267  11.693
 8366W        W75149  27.583  25.551   3.385
 8367W        W75150  43.670  44.391   0.932
 8368W        W75151  13.380  29.694   0.271
 8369W        W75152  17.799  41.918  14.785
 8370W        W75153  42.519   2.516  12.588
 8371W        W75154  22.873  44.845   9.735
 8372W        W75155  36.808   2.469   0.388
 8373W        W75156   0.076  19.698  10.613
 8374W        W75157  15.369  16.255  10.218
 8375W        W75158  29.962  25.563  12.441
 8376W        W75159   4.311  13.299   0.002
 8377W        W75160   1.410  38.508   3.166
 8378W        W75161  20.005  19.136  13.504
 8379W        W75162   5.818  26.083  13.349
 8380W        W75163  31.966  26.516  11.482
 8381W        W75164  37.106  18.064  10.631
 8382W        W75165  23.270  43.743  13.356
 8383W        W75166  35.130  39.122   1.303
 8384W        W75167  34.481  23.303   1.454
 8385W        W75168  33.012   4.813   1.100
 8386W        W75169   7.401  43.043   1.417
 8387W        W75170   0.200  27.712  12.087
 8388W        W75171  22.251  31.084  14.799
 8389W        W75172  26.690   6.461  13.973
 8390W        W75173  27.137  23.639  14.747
 8391W        W75174  43.674  15.644   4.118
 8392W        W75175  43.503  16.701  10.893
 8393W        W75176   4.339  10.852   1.657
 8394W        W75177  23.085  19.084   4.313
 8395W        W75178  26.773   0.633  13.618
 8396W        W75179  16.801  34.130   1.402
 8397W        W75180  14.404   4.951  13.014
 8398W        W75181   9.689  20.591  14.785
 8399W        W75182  33.956   7.902   1.661
 8400W        W75183   1.871  34.328   1.511
 8401W        W75184  18.126  44.841  14.844
 8402W        W75185  36.362  24.970   4.460
 8403W        W75186  28.031   0.018   1.140
 8404W        W75187  20.269  15.212  13.110
 8405W        W75188   1.450  11.263  12.161
 8406W        W75189  21.241   5.540   0.874
 8407W        W75190  37.105   5.308  13.059
 8408W        W75191  14.839  22.967   4.215
 8409W        W75192  32.445  28.950   0.793
 8410W        W75193  11.839  26.622   2.103
 8411W        W75194  10.816   3.162  12.404
 8412W        W75195   0.552   3.001   0.416
 8413W        W75196  26.291  13.153   4.040
 8414W        W75197  29.065  20.973   3.164
 8415W        W75198  20.623  18.203  10.373
 8416W        W75199  19.720  37.475   4.318
 8417W        W75200  37.437  44.232  14.990
 8418W        W75201  22.631  23.429  13.861
 8419W        W75202  38.824   2.002   3.933
 8420W        W75203   7.790  34.235   1.949
 8421W        W75204  43.886  27.686   4.756
 8422W        W75205  19.519  16.075   1.607
 8423W        W75206  25.478  36.399   4.238
 8424W        W75207  30.619  24.116   2.765
 8425W        W75208  11.308  19.007  14.562
 8426W        W75209   2.850  44.349   1.308
 8427W        W75210  32.000  11.340  11.161
 8428W        W75211  21.796  15.818  11.587
 8429W        W75212   1.373  18.215   0.745
 8430W        W75213   9.154  31.306  11.994
 8431W        W75214  38.286  21.041  13.732
 8432W        W75215  30.994  43.026  13.541
 8433W        W75216  17.295   5.155  10.018
 8434W        W75217  18.631   4.030  10.476
 8435W        W75218  13.748   7.407   5.536
 8436W        W75219   5.685  28.188  11.073
 8437W        W75220   6.985  34.007   1.705
 8438W        W75221  32.031  28.395   4.577
 8439W        W75222  23.033  10.372   0.425
 8440W        W75223  42.568  36.663   1.692
 8441W        W75224   4.621  16.520   4.212
 8442W        W75225  33.101  20.037   3.652
 8443W        W75226  34.632  26.344  10.833
 8444W        W75227   5.276  33.621   4.288
 8445W        W75228   8.628  29.224   2.320
 8446W        W75229  28.045   3.270  12.155
 8447W        W75230  40.427   4.933  14.508
 8448W        W75231  19.180  40.330   3.852
 8449W        W75232  30.681  43.881  13.060
 8450W        W75233  28.537  21.166  14.563
 8451W        W75234   6.925  28.911   1.812
 8452W        W75235   7.688  35.012  14.794
 8453W        W75236  29.534  32.753  11.694
 8454W        W75237  33.142  43.552  13.346
 8455W        W75238  31.410  25.794   0.802
 8456W        W75239  11.520  37.130  11.561
 8457W        W75240   7.382  27.064  14.483
 8458W        W75241  20.054  35.014   4.582
 8459W        W75242   3.382  20.500  11.717
 8460W        W75243  29.390   2.162  12.470
 8461W        W75244  29.593  24.484   4.233
 8462W        W75245   2.449   6.370   1.325
 8463W        W75246   4.943  27.072   0.912
 8464W        W75247  24.470  44.942   4.336
 8465W        W75248   8.440  14.036   4.261
 8466W        W75249   9.822  32.770   2.812
 8467W        W75250  18.169  25.886   4.236
 8468W        W75251  19.734  39.900   0.536
 8469W        W75252  30.427  20.648  10.232
 8470W        W75253  37.438   7.715   0.470
 8471W        W75254  35.987   3.671  11.709
 8472W        W75255   8.323  40.088   4.134
 8473W        W75256   4.575  10.833   0.373
 8474W        W75257  26.821  40.649  14.332
 8475W        W75258  13.426  35.543  10.753
 8476W        W75259  16.317   7.388  12.518
 8477W        W75260  38.931  39.521   2.582
 8478W        W75261   5.699  32.618   1.389
 8479W        W75262   2.176   2.940   1.272
 8480W        W75263  10.079   7.960  12.916
 8481W        W75264  22.196  33.375   3.118
 8482W        W75265   8.353  19.292   2.776
 8483W        W75266  27.631  36.782  12.531
 8484W        W75267   2.904   5.454   1.425
 8485W        W75268   9.357   3.419  13.464
 8486W        W75269  17.861  31.534   3.367
 8487W        W75270  21.090  41.421   3.272
 8488W        W75271  31.451  16.065   3.267
 8489W        W75272  14.643  15.599  12.072
 8490W        W75273  33.619  39.449  12.030
 8491W        W75274  13.393  21.956   3.021
 8492W        W75275  32.389  32.511  11.082
 8493W        W75276  27.118   5.218  14.316
 8494W        W75277  11.298  40.970   3.712
 8495W        W75278  24.678   5.011  14.963
 8496W        W75279  35.216  13.686  12.002
 8497W        W75280   7.416  44.998   4.491
 8498W        W75281  10.650  31.941  10.262
 8499W        W75282  31.692  33.314  13.042
 8500W        W75283  43.479  43.433   0.455
 8501W        W75284  44.546  22.189   3.596
 8502W        W75285  30.920  42.256  12.908
 8503W        W75286  17.306  27.571   1.551
 8504W        W75287  23.545   9.807  11.970
 8505W        W75288  17.618  39.901   9.671
 8506W        W75289  39.863  39.329  12.516
 8507W        W75290  10.618   9.991  11.514
 8508W        W75291   0.470  24.099   0.941
 8509W        W75292   1.981  41.567  13.249
 8510W        W75293  44.283  30.933  10.643
 8511W        W75294  13.129  15.277  12.478
 8512W        W75295   4.700  34.298   4.257
 8513W        W75296  11.741  17.221   4.247
 8514W        W75297  20.224  27.908  11.262
 8515W        W75298  35.463  41.906   2.944
 8516W        W75299  26.212  28.596   0.415
 8517W        W75300   1.180  43.255  12.630
 8518W        W75301  20.260  40.509   0.630
 8519W        W75302  20.700  25.965   0.054
 8520W        W75303  15.719  13.251   2.117
 8521W        W75304  17.145  26.976   3.413
 8522W        W75305  18.691  28.706   3.187
 8523W        W75306  13.201  25.940  11.561
 8524W        W75307  33.999  11.559  12.326
 8525W        W75308  40.417   1.174  13.805
 8526W        W75309  22.758  26.239   2.193
 8527W        W75310  44.251   3.997  12.083
 8528W        W75311   1.853  10.826  13.091
 8529W        W75312   0.392  35.045  14.471
 8530W        W75313  21.738  26.002  14.313
 8531W        W75314   8.919  44.514   0.323
 8532W        W75315  37.855   9.143  11.153
 8533W        W75316  33.495  26.255  14.271
 8534W        W75317  39.905   8.107  11.470
 8535W        W75318  40.413  11.842   0.953
 8536W        W75319  25.250  38.141   4.533
 8537W        W75320  17.533  11.177   1.438
 8538W        W75321   1.050  24.896   0.797
 8539W        W75322   5.537   8.368  10.591
 8540W        W75323   5.285   3.986   0.566
 8541W        W75324  18.140  13.402  14.356
 8542W        W75325  22.396  11.273  12.252
 8543W        W75326  13.066   6.894   2.715
 8544W        W75327  20.093  23.498   2.178
 8545W        W75328   9.599  33.225   4.054
 8546W        W75329  33.522  12.157  11.922
 8547W        W75330   6.826  34.911   4.642
 8548W        W75331  18.158  38.995   2.427
 8549W        W75332  43.415  10.654  11.742
 8550W        W75333  35.550   5.015  12.050
 8551W        W75334  40.762  32.287   3.802
 8552W        W75335  13.709  10.828   1.752
 8553W        W75336  27.272  23.164  13.445
 8554W        W75337  32.703  14.140   3.693
 8555W        W75338  32.673  24.640   4.153
 8556W        W75339   5.509   4.659  11.562
 8557W        W75340   8.895   9.391  14.797
 8558W        W75341  30.685  34.687  13.422
 8559W        W75342   5.882  27.746   2.700
 8560W        W75343   1.491  16.874   2.423
 8561W        W75344  32.921  26.063   3.149
 8562W        W75345  20.674  42.391   3.524
 8563W        W75346   0.418  41.753   4.081
 8564W        W75347  15.361  26.926   0.860
 8565W        W75348  26.109  11.747   0.162
 8566W        W75349  18.235  37.808  13.018
 8567W        W75350   0.631  34.506  13.969
 8568W        W75351   8.223  33.409  13.862
 8569W        W75352   6.250  39.859  14.850
 8570W        W75353   9.668   9.650   0.765
 8571W        W75354   2.226  24.941   4.164
 8572W        W75355   1.259  13.884  11.569
 8573W        W75356   5.181  23.725   4.157
 8574W        W75357  38.919  18.012   4.632
 8575W        W75358   2.873  40.903   4.059
 8576W        W75359  28.984   3.472   2.781
 8577W        W75360  36.013  12.864  11.934
 8578W        W75361  33.729  17.337   2.240
 8579W        W75362  23.557  44.422  14.312
 8580W        W75363   3.476  30.107   0.732
 8581W        W75364   2.413  20.233  12.520
 8582W        W75365  36.065  29.946  11.084
 8583W        W75366  11.892  12.196   0.917
 8584W        W75367  31.859  33.127   1.835
 8585W        W75368  32.432  29.988   4.928
 8586W        W75369   3.409   1.897   2.393
 8587W        W75370  39.532  21.235   3.139
 8588W        W75371  29.531   3.251  13.798
 8589W        W75372  34.084  31.015   0.395
 8590W        W75373  41.010   8.817   4.917
 8591W        W75374  31.925   3.431  12.037
 8592W        W75375   9.437   1.374   1.279
 8593W        W75376  10.017  35.480  12.122
 8594W        W75377  29.493  32.980   3.187
 8595W        W75378  34.335  20.085   2.291
 8596W        W75379  30.125  43.928  10.617
 8597W        W75380  22.659  32.941  12.317
 8598W        W75381  16.611  23.727  12.846
 8599W        W75382  37.359  12.336   3.108
 8600W        W75383  21.776  10.407  12.979
 8601W        W75384  23.293   2.586   3.053
 8602W        W75385   3.803   5.654   2.702
 8603W        W75386  21.166   6.905  13.441
 8604W        W75387   4.092  14.144   3.279
 8605W        W75388   8.178  33.930  13.980
 8606W        W75389  29.057   6.977   4.157
 8607W        W75390  41.256  36.519   2.226
 8608W        W75391  15.452   9.898   3.593
 8609W        W75392  36.531  41.794  10.425
 8610W        W75393  43.852  17.163  10.195
 8611W        W75394  20.757  16.548   3.125
 8612W        W75395  23.948  39.580  11.510
 8613W        W75396   9.916  27.016   2.791
 8614W        W75397   7.934   9.431   1.308
 8615W        W75398  37.715  25.711  12.272
 8616W        W75399   8.422   0.611  11.241
 8617W        W75400   5.355  11.347   2.834
 8618W        W75401  35.563   0.333   2.557
 8619W        W75402   4.830  43.226  11.055
 8620W        W75403  35.469  27.072   2.752
 8621W        W75404  31.275  32.480  10.980
 8622W        W75405  23.205  32.165  14.940
 8623W        W75406  39.164   6.289   2.256
 8624W        W75407  20.941   6.645  13.979
 8625W        W75408  36.417  34.835  10.415
 8626W        W75409  28.648  11.269   0.146
 8627W        W75410  11.927  30.499   2.285
 8628W        W75411  30.836   2.437  11.512
 8629W        W75412   5.597  19.543  11.963
 8630W        W75413  19.402  13.147  10.460
 8631W        W75414   9.586  25.640  13.897
 8632W        W75415   6.504   5.981  11.648
 8633W        W75416  33.952  29.223  10.872
 8634W        W75417  25.625  39.477  11.086
 8635W        W75418  12.776  41.269   0.253
 8636W        W75419  10.892  10.577  14.024
 8637W        W75420  40.726   8.745   2.524
 8638W        W75421  34.563   3.240  11.986
 8639W        W75422   7.282  39.805   0.924
 8640W        W75423  17.234  23.269  13.292
 8641W        W75424   0.355  27.368  13.806
 8642W        W75425  38.326   5.582   4.106
 8643W        W75426  33.830  33.414   0.741
 8644W        W75427  29.067  33.988   0.406
 8645W        W75428  33.555  11.116   0.565
 8646W        W75429   0.868   2.811   1.764
 8647W        W75430   6.190   9.274  12.131
 8648W        W75431  14.502  39.360   5.591
 8649W        W75432  44.061  37.029   0.395
 8650W        W75433  36.852  10.366   1.642
 8651W        W75434   0.874  33.361  10.546
 8652W        W75435  10.824  22.786   4.061
 8653W        W75436  34.380  26.948   3.756
 8654W        W75437   5.743  36.639   0.326
 8655W        W75438  31.204  41.999   1.205
 8656W        W75439   6.577  39.323   3.149
 8657W        W75440  20.158  14.650  14.309
 8658W        W75441   0.306   1.466  14.348
 8659W        W75442  43.263  17.568   2.873
 8660W        W75443  36.351   0.357  12.914
 8661W        W75444  21.674  27.735  14.376
 8662W        W75445  13.767   2.960   2.904
 8663W        W75446  13.332   2.313  13.274
 8664W        W75447  32.579  39.798  11.549
 8665W        W75448  13.744  39.469   1.731
 8666W        W75449  43.368  38.828   3.255
 8667W        W75450  18.023  32.861  14.830
 8668W        W75451  23.978   1.800   2.697
 8669W        W75452  41.470  26.697   4.303
 8670W        W75453  10.122   9.340   2.674
 8671W        W75454  44.644  37.030   0.890
 8672W        W75455  41.954  35.941   1.276
 8673W        W75456   4.123   9.185  12.579
 8674W        W75457  35.367   9.428   0.972
 8675W        W75458  41.702  31.381   1.020
 8676W        W75459  18.344  17.060  14.062
 8677W        W75460  39.432   0.016  13.387
 8678W        W75461   4.341   7.706  13.366
 8679W        W75462  31.163   7.594   4.112
 8680W        W75463   6.625  34.891   1.201
 8681W        W75464  44.220   2.704  11.464
 8682W        W75465  29.667  31.611   1.160
 8683W        W75466  25.683  39.100  10.221
 8684W        W75467   9.383  10.825   2.375
 8685W        W75468  12.491  40.354   3.730
 8686W        W75469  18.229  27.683  11.558
 8687W        W75470  44.802   7.359  11.608
 8688W        W75471  12.046  39.745   1.285
 8689W        W75472  44.310  36.231   1.884
 8690W        W75473  31.633   9.307  12.628
 8691W        W75474   2.944  18.880   4.666
 8692W        W75475   8.868  32.044  10.688
 8693W        W75476  18.664   2.440  14.832
 8694W        W75477   6.871  13.768  14.456
 8695W        W75478  26.030  24.523   2.937
 8696W        W75479  28.048  15.119  10.728
 8697W        W75480  15.239  34.978   0.370
 8698W        W75481  37.441  32.280   2.196
 8699W        W75482  30.596  33.564  12.576
 8700W        W75483  18.333  16.199   3.309
 8701W        W75484  41.268  22.040   0.481
 8702W        W75485  25.937  27.692  13.925
 8703W        W75486  23.740  26.859  10.611
 8704W        W75487  29.068  42.709  11.025
 8705W        W75488  23.959  16.792  14.510
 8706W        W75489   9.317  40.275  14.953
 8707W        W75490   4.300  11.149   3.872
 8708W        W75491  25.062  22.256  14.465
 8709W        W75492  27.562  11.376   3.160
 8710W        W75493  42.512  23.225  11.912
 8711W        W75494   8.479  20.196  10.743
 8712W        W75495  27.174   6.953   0.029
 8713W        W75496   4.813  28.947  12.510
 8714W        W75497  35.569  39.465   2.858
 8715W        W75498  10.359  25.753  11.872
 8716W        W75499   0.780  40.215   2.114
 8717W        W75500  37.965  13.618   4.542
 8718W        W75501  44.217   4.242   0.497
 8719W        W75502  44.111  20.643  11.153
 8720W        W75503   7.748   8.364  10.718
 8721W        W75504  10.797  19.281   3.903
 8722W        W75505   6.922  11.284   3.814
 8723W        W75506  14.641  20.278   3.303
 8724W        W75507  30.471  38.384   0.826
 8725W        W75508  39.372  31.915  12.015
 8726W        W75509  14.173   4.734  12.572
 8727W        W75510  12.689  32.798   1.379
 8728W        W75511   4.726  28.567   0.781
 8729W        W75512   9.014  24.548   0.883
 8730W        W75513  36.881  13.146  10.682
 8731W        W75514  33.444   4.996  12.556
 8732W        W75515  19.335   5.923   0.843
 8733W        W75516   0.320  42.449  11.180
 8734W        W75517  34.157  35.370   1.576
 8735W        W75518  41.765   4.869  12.665
 8736W        W75519  28.044  24.005   3.707
 8737W        W75520  35.743  43.161   3.689
 8738W        W75521   3.713   2.429   1.859
 8739W        W75522  38.962   0.423  12.886
 8740W        W75523  17.517  12.201  12.082
 8741W        W75524  17.845  13.360  13.496
 8742W        W75525   3.368  31.947  12.742
 8743W        W75526  44.239  26.120   0.869
 8744W        W75527  30.422  17.648  13.869
 8745W        W75528  20.764  14.420   2.950
 8746W        W75529   4.889  34.652  12.001
 8747W        W75530   0.613  29.656   3.828
 8748W        W75531  40.022  32.447   4.667
 8749W        W75532  39.165   4.325  11.588
 8750W        W75533  22.540   6.243   1.790
 8751W        W75534  24.217   3.051   3.127
 8752W        W75535  35.734  40.417  11.494
 8753W        W75536   6.868  23.155  13.982
 8754W        W75537  25.518  30.102   2.264
 8755W        W75538  31.100  38.743  14.092
 8756W        W75539   4.240  22.766  10.702
 8757W        W75540  10.574  24.927  11.602
 8758W        W75541   0.090  10.654  13.875
 8759W        W75542  41.460  41.851  12.384
 8760W        W75543  21.955  40.869  11.597
 8761W        W75544   1.406  12.764   0.674
 8762W        W75545   8.488  18.108   2.674
 8763W        W75546  30.486  10.790   0.223
 8764W        W75547  14.602  20.221   1.880
 8765W        W75548  24.401  37.992  13.327
 8766W        W75549  16.376  19.148  14.739
 8767W        W75550   4.784  10.422   0.818
 8768W        W75551  29.470   5.380  12.892
 8769W        W75552   2.225   6.296  13.437
 8770W        W75553  32.626  26.015  14.616
 8771W        W75554  26.912  38.240  10.290
 8772W        W75555  38.749  41.929   4.638
 8773W        W75556  15.792  13.212  10.826
 8774W        W75557   9.843   9.455  14.050
 8775W        W75558   5.469  28.433  12.099
 8776W        W75559  13.065  35.773  13.412
 8777W        W75560  25.275  35.378   4.621
 8778W        W75561  19.402  43.337   0.273
 8779W        W75562   5.951  13.290   3.922
 8780W        W75563   4.899  24.532   2.781
 8781W        W75564   8.997   6.758   1.299
 8782W        W75565   9.875  32.171   1.716
 8783W        W75566  12.128  37.431   2.840
 8784W        W75567   1.811  40.075  11.526
 8785W        W75568  33.231   4.852   3.360
 8786W        W75569  14.891  13.851   9.907
 8787W        W75570  39.988  39.851   3.325
 8788W        W75571  43.545  10.646  14.819
 8789W        W75572  26.472  32.650  13.389
 8790W        W75573  34.940  20.259  13.827
 8791W        W75574  16.014  18.682  14.413
 8792W        W75575   4.754  30.485   0.847
 8793W        W75576  44.096  33.145  13.011
 8794W        W75577  27.604  11.066  14.849
 8795W        W75578  23.396  35.316  14.828
 8796W        W75579  31.613  14.244   0.514
 8797W        W75580  31.240  34.451  12.648
 8798W        W75581  37.887   5.403  12.135
 8799W        W75582   0.309  13.166  10.147
 8800W        W75583   2.000  36.569   0.753
 8801W        W75584  32.386  37.375   3.162
 8802W        W75585  26.251   9.663   2.683
 8803W        W75586  14.257  40.236   1.683
 8804W        W75587  28.251  26.369  11.520
 8805W        W75588  35.476  39.740   0.182
 8806W        W75589   0.301   8.208  12.578
 8807W        W75590  28.534  40.097   0.295
 8808W        W75591  16.069  28.417   2.889
 8809W        W75592  26.441   0.044  14.421
 8810W        W75593  14.515  16.125   1.708
 8811W        W75594  35.808  38.969  13.816
 8812W        W75595  12.441  33.571  14.377
 8813W        W75596  27.209   1.214   1.415
 8814W        W75597  25.412  36.635   5.063
 8815W        W75598   0.841   0.378   1.917
 8816W        W75599  11.921  40.878  13.277
 8817W        W75600   0.859  29.487   1.383
 8818W        W75601  41.062  42.189   1.751
 8819W        W75602  41.392  15.519  12.686
 8820W        W75603  13.256  41.219  11.139
 8821W        W75604  42.019  35.880  10.747
 8822W        W75605  30.132  24.250   3.170
 8823W        W75606   0.320  29.954  10.759
 8824W        W75607   5.399  44.452  13.354
 8825W        W75608  44.530  27.465   0.535
 8826W        W75609   3.818  11.597   4.112
 8827W        W75610  30.905  15.323   1.419
 8828W        W75611  18.233  24.248  13.501
 8829W        W75612  21.715  42.015   1.902
 8830W        W75613  39.405   7.976  14.142
 8831W        W75614  17.447  34.976  13.532
 8832W        W75615  28.235  22.347  14.857
 8833W        W75616   1.367  17.390   4.053
 8834W        W75617  20.208  15.522   1.309
 8835W        W75618   5.530   2.664   0.810
 8836W        W75619   0.457  21.561   2.216
 8837W        W75620  39.017  33.225   1.795
 8838W        W75621  31.426  35.274  11.115
 8839W        W75622   1.444   0.184   3.077
 8840W        W75623  41.498  36.780   0.359
 8841W        W75624   0.324  43.780  13.791
 8842W        W75625  12.950  25.045   4.623
 8843W        W75626   1.685  33.308  10.494
 8844W        W75627  40.995  27.629   0.895
 8845W        W75628  22.163  15.131  11.063
 8846W        W75629  29.755  34.337  10.990
 8847W        W75630   3.949   6.190  13.151
 8848W        W75631   1.939   0.767   0.941
 8849W        W75632  20.796  10.733   4.291
 8850W        W75633   5.780  15.396   2.956
 8851W        W75634  25.074   5.466  11.478
 8852W        W75635   3.220  27.406  14.521
 8853W        W75636  21.567  25.767  11.514
 8854W        W75637  42.886  29.429  11.407
 8855W        W75638  29.856  44.660   1.683
 8856W        W75639  28.121  24.647  12.603
 8857W        W75640  37.022  40.759   1.854
 8858W        W75641  11.537  36.877   5.113
 8859W        W75642  23.071  34.354  11.355
 8860W        W75643  44.006  29.887   3.171
 8861W        W75644  22.345  21.643   0.327
 8862W        W75645   3.968   7.666   4.266
 8863W        W75646  20.840  34.373   1.422
 8864W        W75647  14.870  10.854  11.611
 8865W        W75648  33.449  28.633   1.656
 8866W        W75649  20.198  10.758  13.569
 8867W        W75650  16.546  17.279  13.814
 8868W        W75651  40.066   6.066   4.101
 8869W        W75652  14.439  35.034  12.053
 8870W        W75653  31.303  27.521   3.778
 8871W        W75654  36.024  42.329  12.497
 8872W        W75655   8.915   8.236  12.440
 8873W        W75656   9.827  17.163   2.706
 8874W        W75657  15.209  34.457   0.374
 8875W        W75658  34.934   9.308   3.650
 8876W        W75659  27.703  22.222  12.124
 8877W        W75660   1.222  19.602   3.710
 8878W        W75661  39.961   8.926  14.566
 8879W        W75662   3.494  20.540   1.828
 8880W        W75663   0.829  10.307   3.884
 8881W        W75664  24.527   0.531   4.071
 8882W        W75665  21.643  17.306   9.932
 8883W        W75666   7.455   8.647   0.886
 8884W        W75667  29.699  17.181  13.783
 8885W        W75668  21.690   9.229  14.978
 8886W        W75669  27.561   0.569   1.909
 8887W        W75670  10.896   6.888   4.655
 8888W        W75671  36.913  18.578   3.781
 8889W        W75672   7.794   1.725   3.663
 8890W        W75673  23.993   1.185   2.374
 8891W        W75674  20.322  28.103   0.280
 8892W        W75675   9.233  15.995   2.687
 8893W        W75676  21.070  28.370   0.915
 8894W        W75677   6.611   1.421  11.861
 8895W        W75678  27.551  10.322  13.022
 8896W        W75679   4.951  11.190   3.645
 8897W        W75680   2.761  33.091   0.357
 8898W        W75681  24.625  29.422   0.839
 8899W        W75682  42.401  17.181  13.937
 8900W        W75683  23.638  30.031   4.674
 8901W        W75684  33.065  34.820  12.022
 8902W        W75685  27.203  14.609   2.688
 8903W        W75686  43.243  33.100  11.459
 8904W        W75687  33.680   4.658  13.497
 8905W        W75688  17.919  37.488   3.108
 8906W        W75689  32.415   7.724  13.432
 8907W        W75690  42.301  24.990  13.824
 8908W        W75691  13.919  35.374   4.922
 8909W        W75692   2.593   0.857   2.743
 8910W        W75693  25.550  23.275  11.572
 8911W        W75694  44.446  20.117   0.835
 8912W        W75695  24.670  43.705  12.436
 8913W        W75696  11.833  23.919  12.598
 8914W        W75697   1.519  35.844   0.844
 8915W        W75698  14.045  11.387  12.114
 8916W        W75699  28.027   4.939  13.794
 8917W        W75700  21.512  13.116   2.242
 8918W        W75701  23.225   0.497   2.449
 8919W        W75702   3.903  29.980  12.535
 8920W        W75703   5.264   3.386  11.517
 8921W        W75704  31.795  25.544   0.571
 8922W        W75705   1.959  33.627  13.768
 8923W        W75706  21.769  22.155   2.449
 8924W        W75707  35.094  39.621   3.160
 8925W        W75708   9.566  24.391   1.864
 8926W        W75709   5.039  29.014  13.899
 8927W        W75710   1.214   6.575   0.816
 8928W        W75711   0.247   0.950  14.336
 8929W        W75712  18.476   9.262  13.500
 8930W        W75713  39.898  13.694   1.440
 8931W        W75714  38.697  42.942  11.538
 8932W        W75715   3.578  12.339   1.364
 8933W        W75716  35.609  28.133   3.779
 8934W        W75717  19.347  17.767   4.547
 8935W        W75718  27.755  16.370  14.978
 8936W        W75719  18.766  23.469   2.006
 8937W        W75720   6.758  22.335   3.174
 8938W        W75721  37.077  20.537  12.470
 8939W        W75722  34.950  34.986  14.475
 8940W        W75723  24.932  35.539  13.004
 8941W        W75724  36.411  39.313   2.109
 8942W        W75725  24.467  24.539  13.991
 8943W        W75726  11.897  26.200   1.039
 8944W        W75727   0.460   1.722   1.058
 8945W        W75728  27.045  33.632  11.107
 8946W        W75729  19.035  42.721   3.571
 8947W        W75730  22.291   3.195  11.420
 8948W        W75731  35.681  18.506   3.218
 8949W        W75732  42.954   6.199  10.670
 8950W        W75733  40.535  17.985   4.067
 8951W        W75734   2.004  20.170  12.212
 8952W        W75735  43.799  24.006  13.742
 8953W        W75736   3.905  36.828   4.126
 8954W        W75737   1.760  23.524  10.741
 8955W        W75738   2.712  11.143  11.643
 8956W        W75739   3.337   8.163   0.709
 8957W        W75740  23.472  13.563  11.197
 8958W        W75741   7.744  21.320   2.199
 8959W        W75742  40.468   9.566   4.443
 8960W        W75743  10.345   6.435   2.114
 8961W        W75744  22.427  26.435   3.715
 8962W        W75745  16.584  16.808  12.553
 8963W        W75746  27.540  12.590  14.914
 8964W        W75747  35.520  17.194  14.424
 8965W        W75748  15.420  24.984   3.113
 8966W        W75749  26.060  16.594   0.393
 8967W        W75750   6.992  21.105  13.790
 8968W        W75751  43.165  14.636  11.631
 8969W        W75752   6.931  39.558   4.072
 8970W        W75753  42.977  19.404  10.870
 8971W        W75754   5.495  37.422  11.942
 8972W        W75755   3.145   6.801   3.549
 8973W        W75756  30.809  37.023   4.230
 8974W        W75757  39.744  12.577   2.859
 8975W        W75758  37.261  11.604  12.563
 8976W        W75759  43.406  30.230   4.144
 8977W        W75760   6.398  13.865  13.872
 8978W        W75761   1.384   3.881   4.563
 8979W        W75762  22.857  20.275   0.675
 8980W        W75763  35.348  20.207   3.514
 8981W        W75764  32.463   3.774  10.656
 8982W        W75765  29.693  11.492   4.009
 8983W        W75766  30.189  31.363   4.799
 8984W        W75767  23.222  27.624  12.628
 8985W        W75768   5.396  21.765  10.648
 8986W        W75769  13.550   0.207   3.177
 8987W        W75770  19.279  29.591   3.732
 8988W        W75771  28.086  18.858  12.432
 8989W        W75772   3.678  20.203  14.235
 8990W        W75773  31.442  27.641   2.815
 8991W        W75774  39.819  13.762  14.452
 8992W        W75775  26.719  22.175   0.849
 8993W        W75776  35.086  14.214   0.561
 8994W        W75777  11.572  44.548   0.753
 8995W        W75778   1.839  37.973   1.097
 8996W        W75779   0.343  28.749   1.356
 8997W        W75780  37.048   3.791  13.876
 8998W        W75781   8.289   6.900  12.195
 8999W        W75782  41.617  24.030  13.762
 9000W        W75783  18.603  21.411   1.109
 9001W        W75784   6.536  22.760  13.973
 9002W        W75785   9.638  29.558  14.041
 9003W        W75786  25.621  30.648   3.142
 9004W        W75787  22.659  23.543  14.743
 9005W        W75788  28.267  18.236  13.061
 9006W        W75789  39.568  36.153  14.272
 9007W        W75790  19.028  25.499  13.087
 9008W        W75791  12.172  18.493   2.941
 9009W        W75792   0.994   0.343   2.921
 9010W        W75793   9.852  12.229  12.949
 9011W        W75794  31.934   8.372  14.498
 9012W        W75795  40.308  42.859   3.683
 9013W        W75796  42.887  25.433  14.486
 9014W        W75797   9.438  34.426  13.023
 9015W        W75798  29.436  43.694   3.545
 9016W        W75799  27.394  33.157   1.313
 9017W        W75800  10.139  23.095  14.947
 9018W        W75801  28.095  21.748  11.551
 9019W        W75802  30.700  13.970  11.966
 9020W        W75803  23.645  32.766   0.428
 9021W        W75804  41.951  32.546   1.313
 9022W        W75805  41.561   5.373  13.182
 9023W        W75806  20.021  44.377   1.223
 9024W        W75807  32.055  43.172  12.393
 9025W        W75808   6.840  40.805  10.671
 9026W        W75809  16.358  34.967   3.949
 9027W        W75810  33.592  19.522  12.010
 9028W        W75811  14.336  19.793   3.227
 9029W        W75812   3.350  14.513   3.500
 9030W        W75813  29.927  18.085  10.787
 9031W        W75814   1.380  33.971   1.298
 9032W        W75815  11.333  37.356   5.086
 9033W        W75816  22.706   2.877  10.812
 9034W        W75817   3.543   4.713  14.933
 9035W        W75818  44.754  30.430   3.744
 9036W        W75819  32.029  21.870  13.357
 9037W        W75820  39.246  36.827   1.464
 9038W        W75821  31.819  16.357   1.906
 9039W        W75822  24.427   2.457   2.254
 9040W        W75823  11.323  39.515  14.030
 9041W        W75824  15.181  11.615  12.777
 9042W        W75825  39.606   5.303   1.703
 9043W        W75826   7.498  23.560  10.592
 9044W        W75827  40.993  32.419  13.146
 9045W        W75828   4.680  25.619   3.312
 9046W        W75829  35.412  31.637  13.950
 9047W        W75830  15.167  24.670   0.918
 9048W        W75831   7.320  41.593  11.926
 9049W        W75832  34.367  37.154   4.110
 9050W        W75833  13.178  41.720  10.959
 9051W        W75834  20.510  31.206  10.476
 9052W        W75835  15.339  40.030  12.168
 9053W        W75836  12.601   0.523   4.174
 9054W        W75837  24.261  44.015   1.085
 9055W        W75838  16.180   6.320  13.595
 9056W        W75839  33.093  12.781   4.850
 9057W        W75840  17.762   6.602   0.977
 9058W        W75841  34.190  13.292  13.878
 9059W        W75842  13.060   0.265  10.719
 9060W        W75843  44.271  39.097  12.831
 9061W        W75844  10.280  14.930   3.987
 9062W        W75845  27.338  21.235   2.561
 9063W        W75846   8.893   1.891  14.096
 9064W        W75847  29.380  18.300   3.649
 9065W        W75848  20.401  31.728   5.014
 9066W        W75849  27.177  21.354   1.233
 9067W        W75850  28.542  39.014  12.924
 9068W        W75851  32.547  38.997   3.254
 9069W        W75852  25.611   8.261   4.067
 9070W        W75853  10.103  39.067   0.961
 9071W        W75854  15.523  25.818  13.095
 9072W        W75855   2.673   6.360   0.755
 9073W        W75856  34.957   6.875   2.273
 9074W        W75857   3.630  37.407  11.620
 9075W        W75858  35.493  10.937   1.196
 9076W        W75859  19.262  32.977   1.370
 9077W        W75860  32.526  36.096   2.779
 9078W        W75861  11.076  11.550  13.015
 9079W        W75862  17.513  21.239   3.098
 9080W        W75863  12.854   7.689  13.775
 9081W        W75864  12.778  18.132   4.530
 9082W        W75865  34.136  25.505   2.855
 9083W        W75866  12.294  38.878  14.830
 9084W        W75867  21.517  24.462   2.393
 9085W        W75868  41.462  26.829   3.086
 9086W        W75869  19.995  40.499  12.515
 9087W        W75870  19.253  23.289  12.167
 9088W        W75871  39.068   8.651   4.177
 9089W        W75872  44.436  19.790   0.428
 9090W        W75873  13.828  34.984   3.595
 9091W        W75874  16.322   5.155   2.980
 9092W        W75875  21.172  14.542   3.289
 9093W        W75876  31.173  28.030   4.555
 9094W        W75877  22.395  32.752  14.247
 9095W        W75878  33.901   2.849  13.502
 9096W        W75879   5.756   7.709  11.521
 9097W        W75880   6.233   3.836  13.006
 9098W        W75881  27.031  26.004   3.167
 9099W        W75882   3.442  40.032   5.336
 9100W        W75883  22.994  19.121  12.056
 9101W        W75884   9.864  23.975  14.995
 9102W        W75885  44.988   9.765  12.921
 9103W        W75886  42.455   2.416   4.547
 9104W        W75887  25.537  26.947  11.618
 9105W        W75888  38.272   9.752  13.956
 9106W        W75889  18.058  26.173   3.831
 9107W        W75890   8.185  38.030  10.549
 9108W        W75891   4.242  18.997  14.279
 9109W        W75892  36.356  22.777  14.428
 9110W        W75893  34.921   9.839   0.074
 9111W        W75894  21.330  19.089   1.261
 9112W        W75895  23.696   1.696   0.027
 9113W        W75896  11.087  23.178  14.793
 9114W        W75897  12.970  43.638  12.409
 9115W        W75898  29.157  39.040  11.691
 9116W        W75899  21.705   5.598  14.992
 9117W        W75900   3.692  38.933  14.467
 9118W        W75901  14.113  34.069   1.278
 9119W        W75902   8.823  40.921  13.216
 9120W        W75903  33.508  16.348  11.905
 9121W        W75904  10.309  40.889   3.092
 9122W        W75905  29.492   0.870   4.994
 9123W        W75906  14.829   8.518   0.755
 9124W        W75907  16.017  31.088   1.370
 9125W        W75908   5.620  43.942   2.815
 9126W        W75909  25.049  40.892  12.060
 9127W        W75910  20.977  41.746   4.075
 9128W        W75911  10.766  17.206   1.724
 9129W        W75912  26.993  12.593   0.646
 9130W        W75913   6.780  16.834  12.879
 9131W        W75914  21.136  44.669   2.722
 9132W        W75915  34.530  19.214   4.028
 9133W        W75916   7.337  41.760   3.199
 9134W        W75917  21.899  16.129   3.624
 9135W        W75918  13.906   8.723  11.956
 9136W        W75919  26.721  15.859  14.309
 9137W        W75920   9.734  44.699  12.554
 9138W        W75921   3.318  41.169  11.523
 9139W        W75922  13.087  19.572  14.946
 9140W        W75923  35.295   2.466  12.185
 9141W        W75924   8.491  20.664   3.079
 9142W        W75925  16.795  35.013  10.765
 9143W        W75926  40.856  39.797  11.097
 9144W        W75927   6.779  15.986  13.934
 9145W        W75928  31.414  38.557   0.894
 9146W        W75929  38.482  10.919  12.416
 9147W        W75930   5.308  37.386  12.413
 9148W        W75931   5.213  24.925  10.766
 9149W        W75932  41.142  19.559   5.270
 9150W        W75933   2.253  18.724  11.226
 9151W        W75934   1.947   5.017  11.418
 9152W        W75935  14.127  19.752  14.878
 9153W        W75936  12.141  35.593   4.237
 9154W        W75937  15.857  43.859   1.519
 9155W        W75938  35.907  43.010  11.204
 9156W        W75939  18.441   1.953  13.055
 9157W        W75940   3.346  40.306   3.895
 9158W        W75941  31.869  27.385  12.480
 9159W        W75942  39.348  16.369  14.008
 9160W        W75943  43.829   5.217   3.812
 9161W        W75944  42.301  36.898  13.037
 9162W        W75945  40.809   7.806  12.879
 9163W        W75946  24.172  23.572   0.254
 9164W        W75947   4.684   5.324   4.653
 9165W        W75948  37.973   6.927  13.957
 9166W        W75949  16.560   6.180   3.209
 9167W        W75950  42.258   3.482  13.817
 9168W        W75951  14.623   0.499   4.983
 9169W        W75952  23.791   2.710  14.780
 9170W        W75953  42.986  29.903  13.608
 9171W        W75954  21.201   1.004  10.743
 9172W        W75955  39.237  39.378  11.515
 9173W        W75956   4.351   3.834  10.910
 9174W        W75957   7.901  30.551  13.044
 9175W        W75958   8.728  42.096  11.621
 9176W        W75959   8.394  32.791  13.567
 9177W        W75960  33.138   9.874  14.802
 9178W        W75961   4.834  44.325   0.435
 9179W        W75962  26.478   4.414   1.709
 9180W        W75963  18.224  27.524   3.880
 9181W        W75964   8.681  42.399   2.841
 9182W        W75965  15.119  37.075   0.854
 9183W        W75966  44.256  42.269  14.621
 9184W        W75967  23.940   3.521   3.199
 9185W        W75968  43.011  30.447  11.976
 9186W        W75969  24.167  12.417  11.237
 9187W        W75970  21.155  15.668   1.670
 9188W        W75971  43.521  25.310  14.895
 9189W        W75972   8.398  39.927   1.669
 9190W        W75973  26.154  44.820  14.875
 9191W        W75974  14.080  42.079  11.088
 9192W        W75975  43.647  13.260  12.099
 9193W        W75976   2.717  31.124  14.324
 9194W        W75977  12.759   7.308  10.122
 9195W        W75978  40.005  34.667  14.426
 9196W        W75979  24.674  19.773  14.349
 9197W        W75980  12.359  28.233  13.024
 9198W        W75981  32.530  41.347  13.342
 9199W        W75982   6.678  10.213  11.916
 9200W        W75983  30.856  38.910   4.120
 9201W        W75984   8.185  26.569  13.449
 9202W        W75985  20.312  28.981  13.386
 9203W        W75986  33.270  31.639  11.040
 9204W        W75987   5.381  18.777   0.842
 9205W        W75988   2.463  42.999  13.820
 9206W        W75989  14.364  33.967  13.297
 9207W        W75990  22.667  13.624  14.103
 9208W        W75991  38.373  36.969   0.892
 9209W        W75992  43.058  34.978  12.112
 9210W        W75993  37.799  20.494   3.197
 9211W        W75994   6.363  34.979   2.224
 9212W        W75995  27.054  12.715   4.079
 9213W        W75996  17.160   8.760  12.688
 9214W        W75997  41.661  27.554  14.990
 9215W        W75998  28.888  28.555   2.263
 9216W        W75999  30.582  41.543  12.000
 9217W        W76000  10.868  25.838  14.484
 9218W        W76001   6.848  38.934   2.908
 9219W        W76002  43.237   3.651  13.532
 9220W        W76003  33.517  20.916  11.710
 9221W        W76004  17.366  30.887   0.890
 9222W        W76005  39.805   8.887   1.028
 9223W        W76006  17.126  25.215   4.017
 9224W        W76007  27.587  30.667  11.019
 9225W        W76008  17.761   9.523  14.234
 9226W        W76009  25.201   6.138   2.354
 9227W        W76010  18.794   9.670   4.916
 9228W        W76011  39.877   2.733   0.871
 9229W        W76012  14.134  41.839   3.761
 9230W        W76013   5.118  11.289  10.998
 9231W        W76014  32.031  36.287   1.866
 9232W        W76015  39.157  10.240   3.097
 9233W        W76016   5.838  31.700  13.265
 9234W        W76017  18.309   0.518   2.312
 9235W        W76018  35.904  21.973   2.915
 9236W        W76019  37.109  36.385   3.231
 9237W        W76020  12.740  38.604   2.811
 9238W        W76021  37.516  44.746  13.554
 9239W        W76022  32.400  38.569  14.001
 9240W        W76023  23.747  33.595   3.330
 9241W        W76024  19.085   8.530  13.701
 9242W        W76025   4.670  38.419  13.368
 9243W        W76026  21.167  23.561   2.689
 9244W        W76027  42.862  13.347  12.369
 9245W        W76028  25.512   6.648  10.639
 9246W        W76029  18.486  15.550  14.879
 9247W        W76030  11.815   2.925  11.679
 9248W        W76031  40.921  35.970   1.279
 9249W        W76032  20.767  11.687  13.418
 9250W        W76033  12.269  12.937  12.641
 9251W        W76034  32.047   5.430   0.902
 9252W        W76035  25.474   2.585  10.760
 9253W        W76036  34.587  42.419   2.253
 9254W        W76037  20.850  28.427  12.845
 9255W        W76038   0.345  13.806   0.607
 9256W        W76039  18.285   6.343  13.337
 9257W        W76040   1.792   3.929  12.156
 9258W        W76041  15.032   8.519   2.248
 9259W        W76042  20.692  13.886  11.627
 9260W        W76043  30.053  11.745   1.903
 9261W        W76044  44.557  29.969   4.661
 9262W        W76045  40.317  42.956   0.430
 9263W        W76046  17.386  39.451   0.139
 9264W        W76047  18.324  43.371   4.685
 9265W        W76048  41.083  10.602  11.618
 9266W        W76049  44.002  16.389  14.486
 9267W        W76050  38.096  19.067   2.367
 9268W        W76051  38.963  23.972  13.050
 9269W        W76052  31.492   4.430   3.470
 9270W        W76053  44.886  41.750   0.105
 9271W        W76054  18.460  26.296   3.518
 9272W        W76055  11.675  23.261   0.200
 9273W        W76056  39.127  13.401   9.404
 9274W        W76057  21.598  11.356  14.392
 9275W        W76058   3.266  34.472  11.326
 9276W        W76059   2.023   6.330   1.619
 9277W        W76060   7.269  40.040  10.688
 9278W        W76061  13.223  33.197   2.367
 9279W        W76062  34.396  39.601  13.345
 9280W        W76063  26.426  19.641   1.305
 9281W        W76064   3.969  30.608  13.029
 9282W        W76065  43.411  44.779   3.698
 9283W        W76066  44.475  36.320   2.398
 9284W        W76067  21.193   0.778  13.883
 9285W        W76068  37.014  22.035  13.293
 9286W        W76069  28.888  11.639   0.864
 9287W        W76070  28.583  40.821   0.918
 9288W        W76071  36.199  22.416  13.133
 9289W        W76072  18.552  11.239   4.140
 9290W        W76073   1.323  22.970  13.239
 9291W        W76074  25.266   1.035  13.950
 9292W        W76075  10.797  36.298   3.400
 9293W        W76076  32.871   7.173   3.343
 9294W        W76077   4.094  35.057  11.092
 9295W        W76078   5.875  41.871  13.038
 9296W        W76079  28.537  17.225   1.487
 9297W        W76080  30.935  19.610   0.324
 9298W        W76081  18.103  23.942   1.444
 9299W        W76082  36.840  22.779  11.032
 9300W        W76083  31.509   6.035  14.696
 9301W        W76084  32.548  43.903   3.220
 9302W        W76085  37.424   2.439   1.667
 9303W        W76086  18.683  14.255   1.590
 9304W        W76087  41.234  28.002   0.286
 9305W        W76088  43.465  31.176   1.343
 9306W        W76089  23.852   1.900   1.789
 9307W        W76090  21.637  41.394   4.432
 9308W        W76091  13.179  31.567   3.093
 9309W        W76092  11.679  10.501   1.963
 9310W        W76093  41.454  31.208   4.935
 9311W        W76094  11.981  35.797  14.257
 9312W        W76095  25.757  26.140  12.345
 9313W        W76096  25.618  41.481   2.355
 9314W        W76097  24.949   7.819   0.765
 9315W        W76098   3.480   5.440   3.204
 9316W        W76099   2.267  32.976   1.141
 9317W        W76100  41.505  22.321  10.747
 9318W        W76101  18.574   8.126  12.370
 9319W        W76102   1.691   4.153   4.872
 9320W        W76103  15.793  43.950  14.964
 9321W        W76104  11.440  35.387  13.069
 9322W        W76105  16.645  32.808  14.861
 9323W        W76106  31.571  25.064   0.349
 9324W        W76107  30.652  18.634  14.524
 9325W        W76108  23.543  29.187  14.399
 9326W        W76109  27.654  38.850   4.530
 9327W        W76110   7.671  17.189   3.162
 9328W        W76111  11.617  18.274  12.313
 9329W        W76112  13.174  18.607   2.297
 9330W        W76113   7.572   4.594   0.818
 9331W        W76114   8.217   3.012  14.485
 9332W        W76115   9.244  24.574   0.302
 9333W        W76116  41.028  27.734  13.551
 9334W        W76117  14.791  23.434   3.886
 9335W        W76118  43.148   2.595  14.256
 9336W        W76119   2.336  21.457   1.297
 9337W        W76120  17.607   9.311   1.604
 9338W        W76121   0.436  44.891   4.306
 9339W        W76122   4.829  14.651  14.380
 9340W        W76123  42.525   8.405   1.816
 9341W        W76124  43.567  23.773   1.244
 9342W        W76125  11.669  43.868   2.331
 9343W        W76126  17.970  10.649  13.292
 9344W        W76127  17.638  25.049  10.948
 9345W        W76128  30.564  12.129   2.659
 9346W        W76129   8.758  33.330  10.972
 9347W        W76130  37.065  35.785  11.522
 9348W        W76131  27.991   0.468   3.887
 9349W        W76132  30.175  27.156   2.262
 9350W        W76133   7.258  13.920   3.518
 9351W        W76134  28.190  11.376  12.021
 9352W        W76135  36.628  17.268  11.571
 9353W        W76136  37.434  32.843   2.283
 9354W        W76137  29.678  19.580  14.004
 9355W        W76138   1.711   0.437  11.705
 9356W        W76139   4.259  42.535  12.429
 9357W        W76140  17.332  21.200  13.272
 9358W        W76141   1.330  13.744   3.272
 9359W        W76142  39.737  16.233  11.606
 9360W        W76143   6.878  16.665   0.190
 9361W        W76144   8.922  36.479  14.458
 9362W        W76145  11.453  28.917  11.576
 9363W        W76146  27.966  41.281  11.579
 9364W        W76147  16.988   2.572   2.662
 9365W        W76148  22.407  41.354   4.984
 9366W        W76149  21.618  25.749  14.744
 9367W        W76150  10.345  26.679  10.812
 9368W        W76151  44.376   6.669   3.515
 9369W        W76152  36.079   4.987   4.096
 9370W        W76153  39.809  40.721  10.789
 9371W        W76154  26.528   4.892  13.623
 9372W        W76155   8.571  22.214  13.089
 9373W        W76156  32.548  18.156   5.470
 9374W        W76157   1.961  37.831  14.217
 9375W        W76158  16.306  17.231  11.108
 9376W        W76159  37.243  31.963   2.617
 9377W        W76160  10.262  27.627  13.190
 9378W        W76161  30.424  26.440   2.702
 9379W        W76162   6.204  33.141  14.412
 9380W        W76163  20.476  22.009  11.161
 9381W        W76164  37.025  25.785  14.416
 9382W        W76165   3.586  31.171   0.375
 9383W        W76166   2.922  12.122  12.037
 9384W        W76167  30.024  23.287  12.971
 9385W        W76168  39.604  14.763  12.459
 9386W        W76169  27.626  26.587  13.126
 9387W        W76170  21.090  32.849  11.085
 9388W        W76171  20.590  32.393  14.397
 9389W        W76172  18.158  38.521   4.655
 9390W        W76173   9.536   5.172   2.795
 9391W        W76174  29.065  24.581   0.883
 9392W        W76175  16.154  42.449   2.944
 9393W        W76176  44.739   6.224   2.881
 9394W        W76177  11.347  25.989   3.286
 9395W        W76178  26.710  33.879  13.998
 9396W        W76179  37.298  32.457  12.038
 9397W        W76180  19.724  12.171  11.583
 9398W        W76181  16.039   3.101   0.464
 9399W        W76182   7.823  19.322   2.678
 9400W        W76183  12.152  36.351  12.054
 9401W        W76184  38.463  15.756   2.950
 9402W        W76185  23.007   7.954  14.959
 9403W        W76186  43.364  35.478  13.124
 9404W        W76187  17.912  35.549  11.491
 9405W        W76188  28.023  38.324   0.987
 9406W        W76189  13.682  21.281   3.954
 9407W        W76190  17.235   6.467   4.193
 9408W        W76191  38.051  42.958  13.116
 9409W        W76192  12.614  39.337  14.804
 9410W        W76193  20.757  20.577  11.464
 9411W        W76194  11.906  24.986   4.892
 9412W        W76195  19.964  41.841   1.285
 9413W        W76196   0.922  37.903  10.684
 9414W        W76197  26.997  10.144   3.428
 9415W        W76198  43.896   5.241  11.062
 9416W        W76199  25.175  30.045  11.139
 9417W        W76200  33.177   8.381  14.929
 9418W        W76201  34.110  17.568   5.535
 9419W        W76202  20.691  22.217  14.145
 9420W        W76203  25.278  34.166   3.985
 9421W        W76204   1.080  28.183  14.179
 9422W        W76205   2.373  33.891  10.696
 9423W        W76206  39.885  18.128  13.799
 9424W        W76207  36.043  38.301  10.693
 9425W        W76208   3.776  17.629   0.413
 9426W        W76209  24.540   3.836   2.095
 9427W        W76210  42.220  20.700   3.581
 9428W        W76211  30.528  17.755   2.982
 9429W        W76212  42.933  30.642  14.304
 9430W        W76213  26.933  11.638  10.791
 9431W        W76214  13.536  17.825   2.540
 9432W        W76215  24.524  35.135   1.459
 9433W        W76216  37.287  33.908   5.043
 9434W        W76217  16.650  19.725   1.319
 9435W        W76218   0.820  42.506   2.466
 9436W        W76219  37.890  26.081   1.524
 9437W        W76220  31.134   6.797   1.286
 9438W        W76221  43.394  13.090   2.269
 9439W        W76222  22.631  29.551  10.656
 9440W        W76223   0.304  42.784  10.272
 9441W        W76224  32.636  16.383  13.096
 9442W        W76225   2.877  16.238   0.964
 9443W        W76226  16.883  43.025   2.379
 9444W        W76227  14.740  11.604   2.914
 9445W        W76228  40.368  20.495  12.967
 9446W        W76229  18.401  39.090  11.463
 9447W        W76230   2.886   6.840   2.465
 9448W        W76231  16.955  20.004   4.585
 9449W        W76232   6.911   7.157  12.062
 9450W        W76233   2.233  26.136  10.753
 9451W        W76234  28.773  27.907  14.971
 9452W        W76235  12.625  16.590   0.997
 9453W        W76236  16.555  44.244   3.168
 9454W        W76237  26.556  34.010   1.742
 9455W        W76238  11.092  20.221   4.153
 9456W        W76239   3.882   8.877   0.887
 9457W        W76240  11.793   7.282  11.905
 9458W        W76241  16.685   4.811   2.870
 9459W        W76242  18.409  15.744   3.593
 9460W        W76243  29.065   7.959  13.239
 9461W        W76244   3.828  14.616   3.335
 9462W        W76245  12.348  18.551   1.939
 9463W        W76246  44.094  25.922   2.296
 9464W        W76247  11.707  10.188   4.965
 9465W        W76248   6.796  44.049  14.021
 9466W        W76249  33.586  18.544  12.890
 9467W        W76250   4.530  43.810   4.749
 9468W        W76251  39.391   7.224   2.177
 9469W        W76252  38.342  16.577  11.238
 9470W        W76253  25.401  38.379  10.724
 9471W        W76254  30.311  19.400   2.027
 9472W        W76255  33.874  11.073   1.756
 9473W        W76256  14.740  27.889  12.417
 9474W        W76257  24.287  35.921  13.335
 9475W        W76258  12.039  25.144   2.644
 9476W        W76259  13.662  16.243   1.770
 9477W        W76260  17.642  20.358  11.604
 9478W        W76261  18.481  26.580   0.212
 9479W        W76262  27.580  23.191   2.473
 9480W        W76263  35.881   1.907   2.584
 9481W        W76264  44.886  34.068   1.684
 9482W        W76265  41.326  15.335  13.951
 9483W        W76266  39.763  16.982   1.390
 9484W        W76267  28.263  27.738   3.298
 9485W        W76268   3.336  21.636   3.654
 9486W        W76269  44.369  38.329   0.797
 9487W        W76270  35.350  29.446   2.834
 9488W        W76271  31.488  14.441   4.160
 9489W        W76272  31.413  21.725   4.905
 9490W        W76273  11.465  17.778  12.541
 9491W        W76274   2.055  15.639  10.220
 9492W        W76275  43.241  18.215   1.630
 9493W        W76276  33.398  26.065   1.898
 9494W        W76277  23.640  18.704   0.214
 9495W        W76278  21.460   1.371  12.599
 9496W        W76279   2.876  15.788   0.539
 9497W        W76280  38.803  25.485   4.984
 9498W        W76281  11.681  30.410   3.349
 9499W        W76282  18.992  24.669   0.352
 9500W        W76283   9.371   4.631   0.693
 9501W        W76284   5.609  37.517   3.662
 9502W        W76285   8.278  24.765   4.744
 9503W        W76286  21.723  37.963   4.794
 9504W        W76287  40.924  17.664  12.735
 9505W        W76288   5.110  28.123  12.333
 9506W        W76289   3.278  30.353  11.865
 9507W        W76290  36.364  22.668   5.060
 9508W        W76291  10.843  19.408   4.412
 9509W        W76292  25.639  34.606   1.161
 9510W        W76293  18.585  25.333   3.746
 9511W        W76294  41.539  20.693  13.461
 9512W        W76295  13.805  22.996  12.160
 9513W        W76296  21.967  11.135  11.875
 9514W        W76297   8.668  23.532   4.959
 9515W        W76298   2.157   4.705   3.308
 9516W        W76299   0.899   0.963  10.738
 9517W        W76300  11.791  14.076   1.838
 9518W        W76301  23.009  40.173   2.891
 9519W        W76302  25.619  39.857   3.117
 9520W        W76303  36.095  16.811  10.746
 9521W        W76304  18.319   5.836  13.531
 9522W        W76305  12.232  37.952   4.491
 9523W        W76306  42.214   6.619   4.458
 9524W        W76307  20.009   7.222   2.394
 9525W        W76308  25.865  13.162   0.372
 9526W        W76309  24.019  35.023   4.179
 9527W        W76310  22.618  24.062  11.142
 9528W        W76311   9.028  38.738  14.960
 9529W        W76312   3.780   6.789   1.853
 9530W        W76313   1.353  44.396  10.677
 9531W        W76314  41.991  36.803   3.563
 9532W        W76315  42.950  43.336   2.844
 9533W        W76316  32.131  32.426  10.645
 9534W        W76317  17.068  42.936  12.867
 9535W        W76318   6.783  24.214  12.823
 9536W        W76319   7.831  39.577  12.672
 9537W        W76320  37.261  42.846   0.468
 9538W        W76321  38.738  36.156   3.691
 9539W        W76322  38.865  28.288  11.405
 9540W        W76323   4.853  12.357   4.215
 9541W        W76324   5.048  35.787   1.765
 9542W        W76325   7.914  22.977  13.488
 9543W        W76326  31.837   4.214   2.026
 9544W        W76327  16.280  25.267  13.911
 9545W        W76328  17.494  43.142   3.213
 9546W        W76329  22.325  37.307   5.004
 9547W        W76330  23.150  33.923  12.134
 9548W        W76331   1.402  22.552   4.056
 9549W        W76332  43.954  36.708   4.255
 9550W        W76333   1.851  26.111   0.104
 9551W        W76334   8.827  18.172  10.592
 9552W        W76335   6.775   0.728   4.540
 9553W        W76336   9.593  40.873   2.165
 9554W        W76337  19.974  30.911  13.345
 9555W        W76338   9.928  11.272   1.300
 9556W        W76339  40.884  14.200  12.598
 9557W        W76340  28.042  26.413   1.380
 9558W        W76341  14.727   4.415   3.918
 9559W        W76342  42.791   0.508  11.072
 9560W        W76343  11.608  18.005  14.320
 9561W        W76344  11.744  36.653  12.837
 9562W        W76345  29.589  29.593  12.908
 9563W        W76346  17.027   3.486  13.378
 9564W        W76347  36.358  15.078  13.053
 9565W        W76348  41.000  27.196  13.398
 9566W        W76349   3.754  37.383  14.653
 9567W        W76350  35.498   5.666  11.216
 9568W        W76351  22.210  31.960  11.943
 9569W        W76352  19.502  21.818   0.197
 9570W        W76353  14.131  31.789  14.549
 9571W        W76354  12.413  43.384   4.237
 9572W        W76355  11.405  23.019  11.561
 9573W        W76356  39.616  27.703   5.002
 9574W        W76357   6.237   4.867   0.947
 9575W        W76358  37.888  21.269  13.949
 9576W        W76359  36.611  35.970   2.659
 9577W        W76360   4.900   2.255   2.897
 9578W        W76361  31.525  19.512  13.965
 9579W        W76362  42.901  26.307  10.702
 9580W        W76363   2.219  43.852   2.859
 9581W        W76364   8.088  44.029  12.243
 9582W        W76365  31.381   3.066  14.705
 9583W        W76366  16.935  34.836  14.930
 9584W        W76367   5.277  19.023  11.571
 9585W        W76368  11.375   0.322   2.177
 9586W        W76369  12.249  32.218   3.315
 9587W        W76370  43.518  32.457   1.216
 9588W        W76371   5.041  44.504  11.111
 9589W        W76372  29.119   5.849   2.842
 9590W        W76373   7.095  37.034   0.265
 9591W        W76374  34.256  19.243   0.472
 9592W        W76375  31.931  28.217   0.614
 9593W        W76376  18.731  11.638  14.411
 9594W        W76377  31.631  38.358   0.419
 9595W        W76378  41.268  11.129  11.033
 9596W        W76379  40.285  42.434   2.833
 9597W        W76380  38.645   3.356   0.363
 9598W        W76381  36.913   4.726   3.636
 9599W        W76382   6.907   7.661  12.033
 9600W        W76383  32.660   9.439  11.014
 9601W        W76384  15.049   7.251   2.062
 9602W        W76385  35.244   0.994  14.735
 9603W        W76386  15.695   9.913   5.106
 9604W        W76387   1.932  16.083   2.337
 9605W        W76388   6.694  22.462  13.506
 9606W        W76389   3.014  28.551   1.269
 9607W        W76390   8.246  22.250  11.930
 9608W        W76391  15.404  40.115  14.595
 9609W        W76392  30.480  30.422   0.392
 9610W        W76393   6.322  22.125  13.465
 9611W        W76394  41.600   1.219  12.606
 9612W        W76395  39.343  21.842   0.836
 9613W        W76396  41.861  38.775  13.774
 9614W        W76397   5.144  27.213   1.710
 9615W        W76398  21.651   9.908  13.005
 9616W        W76399  25.047  29.124  12.218
 9617W        W76400  42.688  12.194  11.107
 9618W        W76401  34.144  15.695   1.866
 9619W        W76402  12.143  38.607   2.335
 9620W        W76403  27.101   2.222  11.480
 9621W        W76404  31.860  20.998   1.705
 9622W        W76405   4.197  23.338  14.903
 9623W        W76406  40.763   4.607   2.840
 9624W        W76407   9.197  42.293   0.027
 9625W        W76408  42.532  23.585  11.508
 9626W        W76409   6.437   1.648   4.854
 9627W        W76410   4.591   3.493   1.376
 9628W        W76411  11.652  16.719  10.706
 9629W        W76412   7.990  36.359  12.157
 9630W        W76413  34.150  10.641   2.774
 9631W        W76414   4.379  34.037   1.729
 9632W        W76415  43.872  42.328   2.954
 9633W        W76416  19.825   3.955  11.976
 9634W        W76417  15.100  35.050  12.028
 9635W        W76418  38.842   5.701   4.197
 9636W        W76419  29.900  19.037  10.018
 9637W        W76420  33.896  10.345  14.497
 9638W        W76421   7.421   2.860   2.043
 9639W        W76422  38.896   8.942   2.848
 9640W        W76423  13.098   9.555   3.188
 9641W        W76424   6.508  30.086  11.097
 9642W        W76425  17.128  38.466  10.602
 9643W        W76426  30.376  22.987   9.850
 9644W        W76427  30.342  20.571   4.134
 9645W        W76428  22.965  22.980   3.899
 9646W        W76429  28.593  31.552   3.352
 9647W        W76430   1.785   5.433   1.968
 9648W        W76431  33.367   9.414  13.523
 9649W        W76432   0.992   9.883  12.887
 9650W        W76433  39.409   2.452  14.540
 9651W        W76434   2.963  10.066   1.827
 9652W        W76435   6.211  40.002   3.598
 9653W        W76436  27.852  25.435   1.690
 9654W        W76437  31.840   7.270   2.145
 9655W        W76438  29.043  33.859  14.921
 9656W        W76439  24.925   3.018   1.259
 9657W        W76440  11.752  10.758  11.477
 9658W        W76441   0.511  12.765   5.020
 9659W        W76442  26.677  20.132  10.566
 9660W        W76443  30.654   2.960   4.627
 9661W        W76444   5.846   5.713  14.077
 9662W        W76445   3.078  35.292  11.159
 9663W        W76446   6.916  35.112   2.854
 9664W        W76447  22.420  17.671  14.520
 9665W        W76448  27.570  26.905   1.918
 9666W        W76449   0.919  44.195   4.240
 9667W        W76450  32.731  18.658   4.629
 9668W        W76451  32.166   2.621   2.743
 9669W        W76452  14.210   1.339  10.695
 9670W        W76453  44.546  39.543   4.483
 9671W        W76454  31.195  25.309   3.835
 9672W        W76455  14.206  21.092   3.261
 9673W        W76456  44.574  15.181   2.279
 9674W        W76457  29.031  21.026   2.283
 9675W        W76458  16.350  33.406   0.819
 9676W        W76459   9.139  15.113  11.027
 9677W        W76460  27.574  13.725  10.762
 9678W        W76461  40.042  10.333   2.042
 9679W        W76462  30.090  33.226  13.425
 9680W        W76463  37.052  29.726  11.976
 9681W        W76464  41.802  30.429   0.968
 9682W        W76465  14.088  23.467  14.285
 9683W        W76466  11.652  17.848  10.614
 9684W        W76467   3.303  42.462   0.389
 9685W        W76468   7.822  14.280  11.100
 9686W        W76469   3.916  36.904  12.507
 9687W        W76470  28.239  23.734  14.567
 9688W        W76471   4.650  26.518   2.757
 9689W        W76472  19.937  43.358   0.197
 9690W        W76473  30.043  33.653  10.450
 9691W        W76474  21.178  44.685  11.120
 9692W        W76475  23.992   4.729   4.031
 9693W        W76476  34.567  42.984   4.080
 9694W        W76477  23.714  43.415  10.822
 9695W        W76478  12.369  13.227   3.275
 9696W        W76479  39.473  30.607   1.819
 9697W        W76480  16.344  25.187  11.060
 9698W        W76481  39.475   8.118  11.131
 9699W        W76482  25.147  39.386   4.144
 9700W        W76483  25.447  43.443   0.316
 9701W        W76484  35.426  40.016  10.772
 9702W        W76485   2.683  12.154   3.291
 9703W        W76486  41.796  18.763  10.767
 9704W        W76487   8.272  11.360  13.998
 9705W        W76488  38.525  18.712  14.038
 9706W        W76489  26.930  28.017  12.855
 9707W        W76490  25.995   5.819   2.691
 9708W        W76491  24.658  12.651   2.707
 9709W        W76492  38.326  20.691   2.314
 9710W        W76493  22.634  24.573  11.065
 9711W        W76494  19.305  12.827  11.159
 9712W        W76495   5.761  15.116  12.022
 9713W        W76496  26.201  11.897   0.662
 9714W        W76497   8.251  41.091   3.883
 9715W        W76498  36.369   3.017   2.120
 9716W        W76499  33.671  15.868   3.642
 9717W        W76500   5.086  38.771  10.189
 9718W        W76501  28.023  12.090  13.002
 9719W        W76502  15.132  37.880  14.273
 9720W        W76503  16.612   7.129  11.726
 9721W        W76504  31.295   9.365  10.576
 9722W        W76505  24.671  24.946   1.899
 9723W        W76506  15.054  28.075   0.062
 9724W        W76507   9.458  29.205   2.923
 9725W        W76508  44.724  19.587   2.719
 9726W        W76509  44.268  10.551   4.134
 9727W        W76510  10.374  38.693   2.376
 9728W        W76511  23.501  25.534   3.730
 9729W        W76512  32.450   1.423  12.088
 9730W        W76513  13.333  43.530  11.146
 9731W        W76514  11.723  14.632   4.065
 9732W        W76515  12.293  44.465  12.167
 9733W        W76516  32.578  12.091   4.774
 9734W        W76517  18.722  22.467   3.140
 9735W        W76518  25.404   1.229  11.195
 9736W        W76519  39.725  39.851   4.612
 9737W        W76520   5.254  23.811  14.025
 9738W        W76521  11.249  42.090   2.341
 9739W        W76522  10.784  37.917   2.305
 9740W        W76523  18.020  20.822  11.062
 9741W        W76524  28.600  17.138   0.020
 9742W        W76525  14.575  12.538   0.312
 9743W        W76526   6.879   5.137  12.536
 9744W        W76527  10.514  17.500   3.800
 9745W        W76528  11.643  12.499  13.618
 9746W        W76529  42.017  19.300   0.831
 9747W        W76530  14.555   2.744   2.733
 9748W        W76531  23.636  27.899   2.164
 9749W        W76532  12.656  31.438  13.000
 9750W        W76533  21.664  10.943  14.069
 9751W        W76534  16.739  15.353   3.895
 9752W        W76535   8.079  18.130   4.161
 9753W        W76536  29.857  33.284  10.110
 9754W        W76537  25.001   3.830  12.156
 9755W        W76538  33.987  38.027  13.130
 9756W        W76539   8.835  17.701   2.676
 9757W        W76540  12.292  31.511   4.623
 9758W        W76541  20.762  32.728   2.102
 9759W        W76542  40.475  25.268  12.861
 9760W        W76543  21.044   5.272   1.972
 9761W        W76544  27.864  25.424   3.818
 9762W        W76545  37.779  41.596  11.034
 9763W        W76546  25.477  36.743  12.041
 9764W        W76547  21.775  38.535  13.939
 9765W        W76548  42.264  27.657   1.354
 9766W        W76549  35.367  15.868  12.457
 9767W        W76550  20.027  32.511  13.788
 9768W        W76551  31.607  12.156  14.474
 9769W        W76552  13.164  39.939  11.810
 9770W        W76553  44.172  44.493   0.955
 9771W        W76554  41.971  10.659  12.079
 9772W        W76555  22.622  29.052  14.470
 9773W        W76556   6.739  29.873   0.866
 9774W        W76557   8.870  32.934  11.675
 9775W        W76558   4.251  41.586  13.160
 9776W        W76559  15.632  32.985   1.008
 9777W        W76560  29.101   4.265  14.375
 9778W        W76561  10.291  20.052  12.060
 9779W        W76562  25.220  40.754   3.069
 9780W        W76563  36.154   9.422   4.113
 9781W        W76564  37.032  25.036   3.271
 9782W        W76565  41.412  43.775   0.721
 9783W        W76566  42.828   1.322  12.099
 9784W        W76567  25.504  20.374   1.690
 9785W        W76568  19.087   9.786   4.031
 9786W        W76569  15.392  15.530  13.311
 9787W        W76570  28.536   2.710   2.718
 9788W        W76571  40.813  33.316   1.753
 9789W        W76572  12.321  36.922   2.757
 9790W        W76573  26.428  37.649   2.425
 9791W        W76574  40.061  20.737   1.715
 9792W        W76575  24.445  42.078  14.333
 9793W        W76576  17.136  32.571   3.069
 9794W        W76577   2.364  32.996   3.483
 9795W        W76578  13.035  13.394  13.451
 9796W        W76579   1.320  38.109  11.947
 9797W        W76580   4.919   5.171  13.927
 9798W        W76581  10.407  24.712   1.699
 9799W        W76582  36.404   8.756  11.995
 9800W        W76583   9.839  39.828  14.850
 9801W        W76584   9.210  33.661   4.527
 9802W        W76585  34.757  12.961   2.635
 9803W        W76586  29.785  35.450  13.872
 9804W        W76587   1.270  25.244   0.423
 9805W        W76588  11.748   2.145   2.527
 9806W        W76589   2.302   4.722  10.514
 9807W        W76590  41.192  26.698  12.588
 9808W        W76591  17.107  44.980   4.858
 9809W        W76592  11.304   6.971   3.146
 9810W        W76593  23.938   7.780  14.298
 9811W        W76594  10.873  24.467  14.961
 9812W        W76595  38.356  36.671  11.193
 9813W        W76596  33.174  43.215   2.744
 9814W        W76597   1.195  28.496   2.754
 9815W        W76598  19.453  22.454   2.937
 9816W        W76599  34.671  23.516   1.908
 9817W        W76600   0.965  19.673  11.936
 9818W        W76601  18.078  23.510   4.237
 9819W        W76602  38.055   2.343   2.668
 9820W        W76603  35.841  37.920  13.105
 9821W        W76604  21.491  20.072   2.729
 9822W        W76605  26.000  14.743  12.985
 9823W        W76606  18.937  20.658  12.013
 9824W        W76607   1.575  40.164   0.357
 9825W        W76608  19.924   0.002   3.225
 9826W        W76609  15.733   8.604   3.782
 9827W        W76610  36.757  16.569   3.070
 9828W        W76611  11.126  40.574   1.400
 9829W        W76612  16.119   0.637  12.841
 9830W        W76613  34.408  28.484  12.875
 9831W        W76614  42.033  12.816   1.265
 9832W        W76615   3.771  39.471  14.363
 9833W        W76616  11.264  22.616   4.828
 9834W        W76617   6.194  42.377   4.916
 9835W        W76618  21.056  15.098   0.920
 9836W        W76619  34.116   8.848  14.840
 9837W        W76620  43.246  10.753   4.211
 9838W        W76621  31.336  17.138  12.997
 9839W        W76622  16.127   3.962   1.014
 9840W        W76623  22.194   1.448  14.276
 9841W        W76624  36.173  34.523   1.709
 9842W        W76625   5.805  24.272  13.824
 9843W        W76626   9.506  19.143  14.321
 9844W        W76627  20.429  41.865  13.061
 9845W        W76628  42.701   6.796   0.765
 9846W        W76629   3.495  17.607  11.249
 9847W        W76630  33.085   3.882   0.751
 9848W        W76631   3.188  14.918   2.158
 9849W        W76632  30.042   0.377   4.526
 9850W        W76633  38.797  14.812  11.096
 9851W        W76634  40.383  32.860   2.440
 9852W        W76635  29.720  39.551   2.297
 9853W        W76636   2.401  32.952   4.640
 9854W        W76637   5.195  44.702   1.736
 9855W        W76638  11.149  40.195   1.771
 9856W        W76639  40.311  19.459  10.641
 9857W        W76640  41.965   4.933  13.133
 9858W        W76641  13.264  14.790  12.502
 9859W        W76642  33.471   5.448  11.650
 9860W        W76643  12.771  14.917  13.515
 9861W        W76644  16.819  35.438   2.952
 9862W        W76645   8.958  11.502   1.077
 9863W        W76646  44.377  17.776  12.504
 9864W        W76647  30.189   6.875   3.790
 9865W        W76648   7.263  37.633  14.309
 9866W        W76649   5.734   5.771  12.483
 9867W        W76650  11.623  13.378  12.118
 9868W        W76651  20.521  10.070   2.519
 9869W        W76652   5.620  36.438   2.371
 9870W        W76653  26.120  42.761   1.848
 9871W        W76654  30.840  11.923  11.269
 9872W        W76655  14.499  39.208   9.812
 9873W        W76656  25.165  34.637  14.299
 9874W        W76657  35.189  16.823  12.569
 9875W        W76658   1.447  22.495  10.652
 9876W        W76659  26.491   2.912   3.316
 9877W        W76660  32.508  29.044  12.423
 9878W        W76661  42.892  11.364  11.041
 9879W        W76662  24.877  43.355   3.352
 9880W        W76663  17.150  19.598   2.848
 9881W        W76664  42.564   1.527   4.671
 9882W        W76665   1.265  26.493  12.580
 9883W        W76666  16.815  44.060  13.350
 9884W        W76667   1.893  10.843  14.085
 9885W        W76668  39.824  10.822  12.181
 9886W        W76669  33.854   7.486  13.240
 9887W        W76670  33.129   7.820   4.713
 9888W        W76671  17.233  41.135   3.828
 9889W        W76672  29.535   1.075   1.211
 9890W        W76673   8.698  34.036  14.811
 9891W        W76674  23.966  38.845  13.387
 9892W        W76675  20.076  25.010   2.898
 9893W        W76676  16.035  12.372  13.390
 9894W        W76677  13.353  26.098  14.697
 9895W        W76678  41.178  23.392   3.561
 9896W        W76679  11.798  23.972   0.905
 9897W        W76680  44.515  18.741  12.591
 9898W        W76681  31.832  27.988   0.096
 9899W        W76682  40.127   0.989  12.594
 9900W        W76683   3.449  26.131  14.837
 9901W        W76684  44.745  31.038  13.330
 9902W        W76685  38.949   0.031   4.277
 9903W        W76686  40.829  20.910   4.949
 9904W        W76687  16.872  43.988  12.844
 9905W        W76688   5.322  13.736   3.714
 9906W        W76689   0.846  13.745   2.371
 9907W        W76690  40.566  28.663  12.914
 9908W        W76691  31.318  30.589  11.994
 9909W        W76692  20.792  37.047  13.375
 9910W        W76693  42.993  44.771   1.815
 9911W        W76694   5.075  21.745   2.539
 9912W        W76695   4.183  44.907   4.535
 9913W        W76696   9.810   0.238   1.931
 9914W        W76697  39.840  26.467  14.453
 9915W        W76698   6.339  17.840  10.643
 9916W        W76699  42.289  24.230  14.514
 9917W        W76700  31.092  17.872  14.550
 9918W        W76701  17.614  39.449   1.803
 9919W        W76702  22.137  35.413   0.903
 9920W        W76703  34.953  32.305  12.428
 9921W        W76704  15.179  18.690  14.706
 9922W        W76705  20.434   7.156  14.919
 9923W        W76706  22.030  30.996  14.303
 9924W        W76707  41.027   9.172  10.699
 9925W        W76708  31.558  17.779  11.643
 9926W        W76709  17.504  12.769   4.008
 9927W        W76710  20.830  21.144   3.557
 9928W        W76711   8.362  39.349  11.135
 9929W        W76712  20.897   6.233  14.819
 9930W        W76713  31.986  11.168   4.155
 9931W        W76714  17.801  35.466   0.983
 9932W        W76715   4.436  11.942   1.751
 9933W        W76716  34.052  25.128   1.699
 9934W        W76717  42.336  26.654   2.849
 9935W        W76718  37.123  41.044   3.708
 9936W        W76719   9.917  13.736  11.181
 9937W        W76720  35.033   4.299  14.399
 9938W        W76721  28.571  14.352  14.113
 9939W        W76722  36.652  30.878  13.524
 9940W        W76723   9.830  15.348   0.410
 9941W        W76724  42.872   5.212  14.954
 9942W        W76725  16.406   8.765   4.435
 9943W        W76726  19.677  24.192  13.443
 9944W        W76727  30.869  21.443  10.279
 9945W        W76728  42.115  17.016  10.496
 9946W        W76729   6.479  25.677  13.502
 9947W        W76730  11.300   4.448   1.300
 9948W        W76731  25.808  29.182   1.379
 9949W        W76732   3.217   9.818   4.811
 9950W        W76733  38.779  42.953   0.221
 9951W        W76734  12.822  11.247  14.501
 9952W        W76735  16.351  33.443  10.207
 9953W        W76736  12.665  13.638   2.838
 9954W        W76737  42.715   7.387  11.408
 9955W        W76738  28.024  33.176  12.033
 9956W        W76739   2.840  40.401   1.122
 9957W        W76740  17.235  21.139  13.788
 9958W        W76741   1.951  29.978   2.161
 9959W        W76742  21.165  13.543  13.421
 9960W        W76743  42.552  12.827   1.306
 9961W        W76744   4.728  28.610  13.956
 9962W        W76745  42.403  37.354  11.560
 9963W        W76746  21.214  16.565  10.656
 9964W        W76747  25.810  25.587  14.000
 9965W        W76748  15.641  19.010  12.561
 9966W        W76749  24.496  17.734  12.533
 9967W        W76750  39.333  20.204  13.959
 9968W        W76751  43.799  44.446   3.864
 9969W        W76752   7.230  38.481   0.387
 9970W        W76753  29.678   4.427   3.687
 9971W        W76754  35.955  35.849  13.430
 9972W        W76755   0.716  35.546  12.675
 9973W        W76756  29.047  32.632   0.515
 9974W        W76757  13.240  27.630  11.623
 9975W        W76758  23.508   9.869   2.186
 9976W        W76759  12.810  36.407  14.083
 9977W        W76760  27.629  21.586   2.234
 9978W        W76761  19.038  15.180  12.763
 9979W        W76762  22.207  32.106   3.658
 9980W        W76763  31.016  10.918  13.821
 9981W        W76764  40.887  27.437  11.542
 9982W        W76765  39.773  17.716  13.421
 9983W        W76766  41.952  23.093   0.618
 9984W        W76767   4.464   4.823   4.769
 9985W        W76768  11.263  25.937  14.169
 9986W        W76769   6.386  38.665  14.474
 9987W        W76770  34.790  37.309   1.901
 9988W        W76771   3.865  34.412   4.030
 9989W        W76772   6.889   3.400  12.393
 9990W        W76773  35.001  36.837   4.607
 9991W        W76774  30.414   1.473  12.780
 9992W        W76775  24.568   0.499   0.770
 9993W        W76776  14.708  28.686  13.024
 9994W        W76777   4.772   4.881   2.992
 9995W        W76778   2.060  37.617   2.436
 9996W        W76779   5.801  15.778   4.810
 9997W        W76780  13.361  20.716  14.467
 9998W        W76781  40.884  41.822  12.944
 9999W        W76782  18.760   5.371   0.460
10000W        W76783  31.414   1.292   0.431
10001W        W76784  40.335  15.085  11.137
10002W        W76785  40.989  17.620   1.244
10003W        W76786  21.512  32.333   1.851
10004W        W76787  43.904  30.031   4.098
10005W        W76788  22.059  40.257   3.222
10006W        W76789  10.157  19.873   1.817
10007W        W76790   3.029  41.879   3.622
10008W        W76791  12.363  41.829  13.365
10009W        W76792  19.483  22.115   1.899
10010W        W76793  26.026  30.019   2.373
10011W        W76794  16.707  36.113   0.253
10012W        W76795  25.916  28.170   3.178
10013W        W76796  16.399  24.975   1.618
10014W        W76797  12.997   0.072   2.405
10015W        W76798  13.347  40.282  14.770
10016W        W76799  15.292  26.552  12.934
10017W        W76800  17.272   5.533   4.599
10018W        W76801  21.614  31.515   1.370
10019W        W76802  18.996   5.544   1.324
10020W        W76803  17.490  20.232  14.232
10021W        W76804  32.428  39.953   3.250
10022W        W76805  39.634   7.199  13.027
10023W        W76806  31.808   8.759   1.241
10024W        W76807  43.409   5.953  13.435
10025W        W76808   4.411  15.603   3.921
10026W        W76809   4.461  28.579   0.243
10027W        W76810  35.373  23.232   1.741
10028W        W76811  17.295  38.382  12.333
10029W        W76812  24.204   5.470   1.356
10030W        W76813  22.601  12.385  14.733
10031W        W76814  14.333  43.721   4.411
10032W        W76815  27.654  23.299   1.962
10033W        W76816  42.470   3.341  11.038
10034W        W76817  24.952  41.544   1.808
10035W        W76818  43.988  19.258  13.341
10036W        W76819  43.908  23.835   3.678
10037W        W76820  20.058  16.655  13.082
10038W        W76821  35.534  29.463  11.189
10039W        W76822  10.621  19.976   2.744
10040W        W76823  30.399  24.822  12.849
10041W        W76824   4.108  27.105  13.503
10042W        W76825   8.901  27.559  14.427
10043W        W76826  13.379   8.228   0.862
10044W        W76827  27.493  14.055  13.468
10045W        W76828  43.547  43.911  11.152
10046W        W76829  23.727  38.888  10.713
10047W        W76830  40.797  33.644   4.702
10048W        W76831  34.427  32.807   1.139
10049W        W76832  31.068  14.270  12.167
10050W        W76833  27.606   0.766  10.877
10051W        W76834  33.869  10.807  11.538
10052W        W76835  17.791  18.440   5.035
10053W        W76836  20.393  29.901  12.373
10054W        W76837  21.317  41.474   2.458
10055W        W76838  34.722  13.591  12.133
10056W        W76839  32.123  12.277   4.601
10057W        W76840  43.025  16.248   3.536
10058W        W76841  41.332  16.640  13.355
10059W        W76842  17.489  17.567  13.018
10060W        W76843  30.494  20.100  10.220
10061W        W76844  11.339  33.458  12.818
10062W        W76845  25.289  33.164  13.001
10063W        W76846  37.428  20.080  13.931
10064W        W76847  42.424  24.830  11.103
10065W        W76848  42.913  41.043   1.731
10066W        W76849  18.333   5.517   2.784
10067W        W76850  24.575   4.503  12.121
10068W        W76851   6.786  30.559   4.705
10069W        W76852  16.289  40.653  13.449
10070W        W76853   3.210   3.476  11.580
10071W        W76854   2.473  20.229   3.695
10072W        W76855  42.807  44.502  11.071
10073W        W76856  29.414  26.864   5.097
10074W        W76857  42.872  32.125  11.345
10075W        W76858  34.160  19.018   3.104
10076W        W76859  11.081   2.892  10.988
10077W        W76860  20.292   4.677  11.761
10078W        W76861  21.967   9.200  14.213
10079W        W76862  12.589   0.038   2.803
10080W        W76863  35.614   9.351   2.643
10081W        W76864  31.069  14.871   3.840
10082W        W76865  12.960  13.638  11.546
10083W        W76866  26.718  11.892  11.643
10084W        W76867  38.002  39.528  10.949
10085W        W76868  10.318  18.228  14.873
10086W        W76869   9.912  38.441   2.298
10087W        W76870  41.582   9.808  13.686
10088W        W76871  30.585  39.379  14.266
10089W        W76872  44.301  37.483  13.438
10090W        W76873  40.998  42.298  13.185
10091W        W76874  31.129  43.486  11.653
10092W        W76875  16.781   8.160  14.833
10093W        W76876  32.967  13.652  12.874
10094W        W76877  41.188  42.307  12.318
10095W        W76878  41.051   1.680  14.381
10096W        W76879  21.523  20.357   4.777
10097W        W76880  22.320   6.558   4.431
10098W        W76881   5.934  36.866  14.380
10099W        W76882  26.082  29.115  14.699
10100W        W76883   9.988  40.992   0.421
10101W        W76884  28.425  38.384   0.234
10102W        W76885   8.220  16.569  13.032
10103W        W76886  19.814  39.719  11.587
10104W        W76887  40.864   8.652  13.535
10105W        W76888  29.997  15.947  14.216
10106W        W76889   5.825  42.388  13.031
10107W        W76890  31.362  27.708  11.603
10108W        W76891  33.482  29.529   3.586
10109W        W76892  25.525   6.928   3.642
10110W        W76893  35.978  13.989   2.402
10111W        W76894  25.196   4.404   4.745
10112W        W76895  19.517  21.553   3.690
10113W        W76896  29.539  12.331  12.044
10114W        W76897  38.292   8.377   4.625
10115W        W76898  39.873   2.925   4.906
10116W        W76899  31.877  15.222  13.529
10117W        W76900  18.552  13.837  10.260
10118W        W76901  24.265  14.842  12.304
10119W        W76902  41.565  30.542   4.250
10120W        W76903  36.628   6.129   4.535
10121W        W76904  24.211  38.188   0.034
10122W        W76905  39.964  21.451   4.605
10123W        W76906  15.117   7.211   2.609
10124W        W76907   3.969  41.244  11.239
10125W        W76908  18.723  41.410   2.686
10126W        W76909  29.887   9.881  11.967
10127W        W76910  42.355  10.655   2.981
10128W        W76911  18.240  15.405   0.311
10129W        W76912  28.116   9.524   2.029
10130W        W76913  16.768  42.359   3.756
10131W        W76914  10.321   1.445   3.235
10132W        W76915  34.374  28.787  13.984
10133W        W76916   8.690  44.977   0.434
10134W        W76917  30.235  39.414   2.320
10135W        W76918  26.648  29.179  14.801
10136W        W76919  34.214  31.857  11.165
10137W        W76920  15.531  16.062   1.698
10138W        W76921  31.648  23.995  13.012
10139W        W76922  36.026  28.049  13.486
10140W        W76923  31.918   9.491   3.060
10141W        W76924  11.591  37.845  12.283
10142W        W76925   8.336  14.722   3.758
10143W        W76926  37.646  31.185  13.145
10144W        W76927  35.655  28.578  12.426
10145W        W76928  23.734  43.802  12.614
10146W        W76929  27.205  36.944   0.910
10147W        W76930  40.538  22.295  11.499
10148W        W76931   7.271   3.014   2.842
10149W        W76932   2.937  36.428   2.894
10150W        W76933  14.775  38.346   2.902
10151W        W76934  30.562  31.129   4.317
10152W        W76935  15.048  38.143   5.364
10153W        W76936  41.791  16.624  13.565
10154W        W76937  22.676  41.647  14.385
10155W        W76938  10.618  33.022   3.446
10156W        W76939  23.561  41.764  12.442
10157W        W76940  37.258  30.574  10.822
10158W        W76941  19.628  38.931  12.007
10159W        W76942  33.678  10.678   1.405
10160W        W76943  42.408   5.240   1.728
10161W        W76944   4.143  15.095   2.313
10162W        W76945  32.680  32.649  12.597
10163W        W76946  37.942   8.884   3.650
10164W        W76947  30.572  22.764  11.611
10165W        W76948  19.161  29.945  13.021
10166W        W76949   6.477  42.990   2.436
10167W        W76950  23.114  18.111   4.040
10168W        W76951  42.528  19.515  13.245
10169W        W76952   5.270  44.952  13.290
10170W        W76953  13.404  32.192  12.107
10171W        W76954  26.630  18.102   3.130
10172W        W76955  17.058  17.627   1.317
10173W        W76956  25.708  38.793  13.992
10174W        W76957  32.849  10.300   0.373
10175W        W76958  38.331  29.011   4.932
10176W        W76959  32.977  18.829   3.228
10177W        W76960  11.212  31.220   0.774
10178W        W76961  30.862  25.117  10.214
10179W        W76962   2.179   7.299  11.730
10180W        W76963   8.358  13.614   2.724
10181W        W76964  36.687   2.543   3.738
10182W        W76965   7.622   4.330  13.329
10183W        W76966  12.549  35.248  13.328
10184W        W76967  19.770   6.343  14.378
10185W        W76968  12.873  44.059  14.323
10186W        W76969  31.437  41.947  10.797
10187W        W76970   4.246  20.275  14.979
10188W        W76971   4.317  42.979   1.972
10189W        W76972  13.546  41.600   4.275
10190W        W76973  13.726   3.480  12.449
10191W        W76974  26.638  12.843   9.574
10192W        W76975  22.751   9.661   0.797
10193W        W76976   2.472  14.185   0.443
10194W        W76977   9.416  10.372   1.312
10195W        W76978  36.503  38.603  14.482
10196W        W76979  33.781   8.361  12.536
10197W        W76980   8.566  21.597  11.188
10198W        W76981  43.197  38.542   4.534
10199W        W76982   2.051  13.968   2.089
10200W        W76983   8.095  42.043   1.794
10201W        W76984  16.611   1.920   0.018
10202W        W76985  15.266  36.459   0.195
10203W        W76986   5.938  43.635   3.675
10204W        W76987  24.261   3.675   1.432
10205W        W76988  20.145  20.827  12.029
10206W        W76989  24.051   0.599   0.903
10207W        W76990   8.904  14.782  14.237
10208W        W76991  16.356  11.299  11.976
10209W        W76992   7.887  38.843   1.471
10210W        W76993  20.154  32.096  12.994
10211W        W76994   6.414  24.855  12.008
10212W        W76995  33.455  26.090  12.994
10213W        W76996   7.473  31.894  10.442
10214W        W76997   1.448  42.447   4.194
10215W        W76998  15.807  34.989  13.845
10216W        W76999  21.614  41.807   4.760
10217W        W77000  22.164  35.425   3.091
10218W        W77001  15.442  18.054  10.277
10219W        W77002  17.692  13.103  14.990
10220W        W77003  32.395   3.035  13.950
10221W        W77004  40.959  40.842   4.078
10222W        W77005  43.784  16.338   1.880
10223W        W77006  40.297  27.953   0.311
10224W        W77007  41.058  17.548  14.156
10225W        W77008  41.205   9.340  12.125
10226W        W77009  25.975  17.910  13.980
10227W        W77010  22.324  21.374   2.443
10228W        W77011  20.655  40.501   4.124
10229W        W77012   3.703  22.237   0.874
10230W        W77013   3.625   2.522  13.393
10231W        W77014  39.212   5.634  11.124
10232W        W77015   9.146  10.128  11.500
10233W        W77016   3.709  35.406   2.060
10234W        W77017  33.432   4.879   1.679
10235W        W77018  26.044  23.169  10.909
10236W        W77019  31.627  23.329   0.913
10237W        W77020   6.492  20.345   3.286
10238W        W77021   5.979  44.118   3.809
10239W        W77022   6.859  37.350  11.551
10240W        W77023  31.041   1.781  11.988
10241W        W77024  40.429  38.046  10.997
10242W        W77025  15.972  19.047   4.386
10243W        W77026  10.263  19.455   3.912
10244W        W77027   0.393   7.491   1.083
10245W        W77028  27.280  43.149   3.386
10246W        W77029  20.063  43.242  14.714
10247W        W77030  27.729  40.037   4.519
10248W        W77031  27.776  34.522   1.366
10249W        W77032  17.149  34.172  10.712
10250W        W77033  27.735  20.049   4.977
10251W        W77034  21.731  36.152  13.984
10252W        W77035   9.876   1.209   2.383
10253W        W77036  37.360  17.160  13.751
10254W        W77037  30.735  21.542   2.195
10255W        W77038  15.322  10.568  13.831
10256W        W77039  31.434  12.720  12.321
10257W        W77040   4.502   5.606  14.703
10258W        W77041  31.369  21.350   2.771
10259W        W77042  31.446  31.986   0.995
10260W        W77043  22.298  32.048  11.034
10261W        W77044  29.788  36.580   0.277
10262W        W77045   1.622  42.906  14.896
10263W        W77046   5.877   9.961   1.776
10264W        W77047  28.183  40.809  13.016
10265W        W77048  31.097  43.310   1.940
10266W        W77049  37.827  40.701   2.245
10267W        W77050  24.637   2.784   0.779
10268W        W77051   3.214  25.276   0.277
10269W        W77052  35.036   9.894   4.322
10270W        W77053   0.946   6.744  13.621
10271W        W77054   8.428  31.507   4.227
10272W        W77055  28.006  18.970   3.173
10273W        W77056   6.397  29.512   3.045
10274W        W77057  11.291  43.903  12.166
10275W        W77058  25.643  14.717  13.381
10276W        W77059  12.680   6.550   4.131
10277W        W77060  33.447   2.190   2.226
10278W        W77061  38.534  19.685   2.206
10279W        W77062  14.720  16.396   1.314
10280W        W77063  44.816  25.642   0.388
10281W        W77064   8.568  12.415  11.603
10282W        W77065   8.885  29.423   1.223
10283W        W77066  29.923  15.107   4.106
10284W        W77067  27.516  43.783   4.108
10285W        W77068  15.845  11.015  10.200
10286W        W77069   3.732   2.611  14.573
10287W        W77070   0.685  11.426  10.294
10288W        W77071  33.133   6.386   9.636
10289W        W77072  42.102  29.672   3.439
10290W        W77073  44.873  41.755  14.065
10291W        W77074  42.055   2.265   2.184
10292W        W77075   1.307  28.773   3.182
10293W        W77076  40.861   6.360  14.020
10294W        W77077  27.191  35.063   3.282
10295W        W77078  22.611  44.791   3.369
10296W        W77079   5.992   0.759  11.973
10297W        W77080   9.405  11.259   1.212
10298W        W77081  37.120  44.471   4.569
10299W        W77082  21.632  16.802   0.311
10300W        W77083  44.269   9.715  13.852
10301W        W77084  35.294  12.966  13.533
10302W        W77085  25.486  24.012   4.648
10303W        W77086  42.442  20.698   2.185
10304W        W77087   1.372   7.364   3.759
10305W        W77088  41.802  15.378  10.417
10306W        W77089  14.214  16.253   0.503
10307W        W77090  39.841  14.516   4.540
10308W        W77091  39.574  30.537  11.901
10309W        W77092   4.395  32.397   2.685
10310W        W77093  34.395   0.784   3.791
10311W        W77094  36.554   2.484   2.070
10312W        W77095  37.556   8.585  14.412
10313W        W77096  15.678  30.085   4.593
10314W        W77097  18.278  28.610   2.371
10315W        W77098  43.801   0.862  11.624
10316W        W77099   6.149  41.991  14.821
10317W        W77100  35.545   2.374  10.769
10318W        W77101  12.753  36.574   1.659
10319W        W77102  27.703  24.136   1.962
10320W        W77103   3.326  34.640   1.448
10321W        W77104  27.510   7.944  12.620
10322W        W77105  18.254  44.459   2.711
10323W        W77106  19.558  18.726  12.392
10324W        W77107  22.299   7.740   2.036
10325W        W77108  35.096  14.857   1.749
10326W        W77109  31.214  31.408  13.554
10327W        W77110  41.786  20.423   1.663
10328W        W77111  25.403  30.598   1.345
10329W        W77112  28.673  30.119   4.647
10330W        W77113  38.827  14.919  12.780
10331W        W77114   0.443  28.716   4.599
10332W        W77115  43.949   4.029   4.313
10333W        W77116  25.664   5.257  13.616
10334W        W77117  24.764  44.221   3.922
10335W        W77118  17.767  32.878   2.536
10336W        W77119  12.833  43.372   3.867
10337W        W77120  24.886   3.799   4.100
10338W        W77121  26.819  33.225  12.557
10339W        W77122  38.052  21.971  13.410
10340W        W77123  42.833  42.953  14.282
10341W        W77124  43.769  15.576   0.628
10342W        W77125  39.089  39.470   4.607
10343W        W77126  33.484   5.825  13.273
10344W        W77127  34.401  18.276  10.995
10345W        W77128  29.138  28.766   1.637
10346W        W77129   7.265  32.074   1.181
10347W        W77130  43.608  30.063   3.670
10348W        W77131   2.752  23.554   2.166
10349W        W77132  37.835  30.004   0.009
10350W        W77133  33.361  44.412   1.373
10351W        W77134  39.495  25.688   3.247
10352W        W77135  17.611  30.998   1.325
10353W        W77136   5.804   7.941  12.566
10354W        W77137  25.547   6.662  11.530
10355W        W77138   1.391  35.506   1.685
10356W        W77139  10.900  27.076   3.245
10357W        W77140  27.983   6.337   1.863
10358W        W77141  28.598  26.534   1.919
10359W        W77142  30.405  37.362   4.239
10360W        W77143  20.271  39.501  13.436
10361W        W77144  44.865  17.641   4.256
10362W        W77145  30.604  27.890   2.796
10363W        W77146  29.843  33.912  13.854
10364W        W77147  24.578  22.797   0.529
10365W        W77148  32.945  23.988   1.693
10366W        W77149  42.254  37.803   0.884
10367W        W77150   8.186  27.082   3.903
10368W        W77151  38.472  24.749   0.212
10369W        W77152  37.994  27.719   2.373
10370W        W77153  36.389   5.484  12.044
10371W        W77154  11.324   2.367   0.339
10372W        W77155  43.439  26.373   1.404
10373W        W77156  27.187   5.245   3.713
10374W        W77157  29.640  37.405   2.631
10375W        W77158  32.758  27.866   3.161
10376W        W77159  16.656   3.506   0.800
10377W        W77160  19.571  38.940  12.543
10378W        W77161  18.248  25.714  14.099
10379W        W77162  33.518  25.004  13.017
10380W        W77163  28.060  21.819  10.613
10381W        W77164  23.992  12.282  12.477
10382W        W77165  26.288  39.491   3.965
10383W        W77166  21.762  30.939   3.160
10384W        W77167  40.373  21.811  12.417
10385W        W77168  39.271  13.623   0.866
10386W        W77169  11.234   1.265  13.929
10387W        W77170  13.115  35.543   4.650
10388W        W77171  25.427  18.355  11.096
10389W        W77172  10.016  22.798   3.156
10390W        W77173   1.341  30.160  10.619
10391W        W77174  30.653  21.530   4.538
10392W        W77175  16.255  19.978   3.741
10393W        W77176  31.571   2.415  12.080
10394W        W77177  19.893  27.728  14.552
10395W        W77178  23.153   4.743   3.730
10396W        W77179   9.335  36.948   2.178
10397W        W77180  19.464  30.916   3.652
10398W        W77181  14.149  22.437   3.036
10399W        W77182  24.434  27.229  10.206
10400W        W77183  35.552  23.222   0.789
10401W        W77184   7.356  13.271  11.636
10402W        W77185  43.474  17.076   9.858
10403W        W77186  35.173  17.448   1.509
10404W        W77187  44.982  16.290  11.194
10405W        W77188  10.832   9.338   5.002
10406W        W77189  19.351  28.946   3.374
10407W        W77190  12.500   4.071   2.411
10408W        W77191  41.221  13.806   3.575
10409W        W77192   7.458   6.647  12.568
10410W        W77193   5.754  29.518   3.804
10411W        W77194   7.867  34.428   2.424
10412W        W77195   4.347  16.242  11.250
10413W        W77196  12.122  30.031   3.870
10414W        W77197  11.634  16.756   4.435
10415W        W77198   0.343   2.412  12.448
10416W        W77199  43.902  15.149   0.916
10417W        W77200  18.151   7.910   3.733
10418W        W77201  21.238  14.128   2.964
10419W        W77202  40.532  24.519  10.712
10420W        W77203  10.139   8.912  13.006
10421W        W77204   1.459  44.032   0.782
10422W        W77205  10.918  44.013   4.168
10423W        W77206  39.252  24.668  12.527
10424W        W77207  26.609   3.383   0.072
10425W        W77208  34.980   4.935  12.840
10426W        W77209   0.724  29.149  14.614
10427W        W77210   4.396  19.905  13.069
10428W        W77211   2.758   9.717  12.964
10429W        W77212  35.874  19.152  12.845
10430W        W77213  21.557  35.354   0.251
10431W        W77214  30.044  26.940  11.307
10432W        W77215  36.796   4.376  13.016
10433W        W77216   0.484   4.391   0.246
10434W        W77217  26.962  34.481  12.841
10435W        W77218   7.804  15.049  12.488
10436W        W77219  31.794   3.350   4.761
10437W        W77220  13.220  20.240  14.205
10438W        W77221  29.670  43.340  14.852
10439W        W77222  17.509  37.469  14.458
10440W        W77223  12.139  31.456  12.792
10441W        W77224  12.603  35.240   0.813
10442W        W77225  32.044  39.729  11.590
10443W        W77226  25.157  36.463  13.422
10444W        W77227  17.719  37.305  12.483
10445W        W77228  13.198  25.471   3.032
10446W        W77229   6.531  15.604   2.611
10447W        W77230   7.933  15.084  11.586
10448W        W77231  30.091  41.811  10.309
10449W        W77232  39.885  17.851   3.309
10450W        W77233  25.263   4.434  11.567
10451W        W77234  23.434  35.414  12.191
10452W        W77235   9.304   1.251   0.446
10453W        W77236  24.941   0.700  14.305
10454W        W77237  29.860  33.894  11.221
10455W        W77238   3.776  30.620   0.222
10456W        W77239  44.114  12.595  10.515
10457W        W77240  35.707  22.082  13.065
10458W        W77241   6.374  41.937   1.428
10459W        W77242  22.104  11.061  13.769
10460W        W77243  26.392  10.035  10.171
10461W        W77244  25.983  19.903  14.014
10462W        W77245   2.437  19.353  14.444
10463W        W77246  40.384  17.269  11.153
10464W        W77247  34.068  11.727   4.376
10465W        W77248  42.828  28.720  10.345
10466W        W77249  29.538  25.133  13.374
10467W        W77250  17.836  18.312  12.183
10468W        W77251  12.077  19.276   3.177
10469W        W77252  13.471  21.475   0.342
10470W        W77253  23.488  17.257   4.790
10471W        W77254  39.360   8.764   3.700
10472W        W77255  27.504  32.885  10.690
10473W        W77256  12.153  41.076  11.599
10474W        W77257   5.892  16.762  11.081
10475W        W77258  12.244  41.341  11.178
10476W        W77259  27.096  38.542  10.683
10477W        W77260  10.837   1.844  14.008
10478W        W77261   3.930  27.971   2.042
10479W        W77262  20.467   1.523  11.159
10480W        W77263  43.891   9.160  12.596
10481W        W77264  10.083  34.014  14.369
10482W        W77265  25.019  32.972  11.640
10483W        W77266  12.916  23.362  12.541
10484W        W77267  22.810  10.520  11.147
10485W        W77268  12.137   7.635   1.290
10486W        W77269   9.205  39.923   2.279
10487W        W77270   0.184  23.624  11.885
10488W        W77271  10.572  18.475   3.098
10489W        W77272  10.918  16.839  12.482
10490W        W77273  27.098  17.139   2.220
10491W        W77274   2.293  32.108   3.649
10492W        W77275   5.806  44.723  10.640
10493W        W77276  33.967   5.423  11.442
10494W        W77277  30.543  30.659   0.867
10495W        W77278  33.631  41.453   0.767
10496W        W77279  36.294  26.653  13.046
10497W        W77280  44.295  27.586  14.782
10498W        W77281  19.498  15.782  12.435
10499W        W77282   7.911  37.411  10.267
10500W        W77283  11.667  10.842   4.186
10501W        W77284   3.982  39.860   2.849
10502W        W77285  36.385  40.690   2.273
10503W        W77286  11.871  21.149   0.733
10504W        W77287  26.804  27.206   4.540
10505W        W77288  20.672  16.463  10.607
10506W        W77289  43.867  44.552  10.633
10507W        W77290   2.186   1.300   0.387
10508W        W77291  27.034   2.007   1.781
10509W        W77292  39.727  36.036  14.806
10510W        W77293  44.622  40.529  11.685
10511W        W77294  19.484  23.990  10.851
10512W        W77295  21.282  26.670  14.974
10513W        W77296  27.513   5.905   2.714
10514W        W77297  33.407   5.389   0.075
10515W        W77298  43.339   5.605  11.504
10516W        W77299  39.582   3.312   0.786
10517W        W77300   6.123  15.054   0.835
10518W        W77301  33.662   8.843  13.065
10519W        W77302  20.369  26.728  14.014
10520W        W77303  10.868   6.779   4.151
10521W        W77304   7.666  31.672   0.434
10522W        W77305   5.891  31.409   4.144
10523W        W77306  23.119   2.332  11.435
10524W        W77307  40.041   3.220   0.555
10525W        W77308   9.754  39.532  12.218
10526W        W77309  33.192   2.334  13.281
10527W        W77310  33.153  17.542  12.275
10528W        W77311  22.193   9.976   2.566
10529W        W77312  22.280  26.044   4.882
10530W        W77313   6.438  35.925   3.885
10531W        W77314   8.641   0.197  11.748
10532W        W77315   2.943  43.977  13.447
10533W        W77316  21.514  43.400  11.568
10534W        W77317  33.482  44.879  12.035
10535W        W77318  23.935  33.314  10.311
10536W        W77319  36.923  21.230   4.328
10537W        W77320  36.389  35.072  13.328
10538W        W77321  21.608  17.190   0.730
10539W        W77322  26.100  28.382   4.882
10540W        W77323  42.122   1.295  12.561
10541W        W77324   8.446  23.810   4.218
10542W        W77325  14.625  19.602   2.367
10543W        W77326  32.314  31.624   0.449
10544W        W77327  15.031   9.251  12.985
10545W        W77328  20.534  19.151   3.098
10546W        W77329  36.998   4.287  10.705
10547W        W77330   7.123  19.955  12.458
10548W        W77331  39.367  33.788  11.428
10549W        W77332  14.731  22.715  12.492
10550W        W77333  19.691  28.359  10.873
10551W        W77334  22.591  26.929  14.747
10552W        W77335  37.353  11.180   0.035
10553W        W77336  37.330  28.497  13.173
10554W        W77337   4.207   5.895   1.185
10555W        W77338  37.936  15.285  12.565
10556W        W77339  31.715  37.350  12.009
10557W        W77340   2.728  11.081   1.905
10558W        W77341  30.479   4.389   2.341
10559W        W77342   6.455  13.909   2.242
10560W        W77343  29.629  13.327   3.613
10561W        W77344   4.941  24.227   4.109
10562W        W77345  41.830  23.212   4.086
10563W        W77346   3.183  23.034  11.548
10564W        W77347  12.850  18.275  14.766
10565W        W77348  23.113  40.963  12.994
10566W        W77349  22.591  24.677  14.337
10567W        W77350  25.077  43.534   4.635
10568W        W77351  25.927  29.584   1.681
10569W        W77352  42.372  38.336  10.607
10570W        W77353  13.633   8.224  12.882
10571W        W77354  32.550  33.506   3.344
10572W        W77355  23.247  38.753   1.393
10573W        W77356  15.296  20.015   3.779
10574W        W77357  41.246  20.195   2.723
10575W        W77358  28.552  20.853   2.165
10576W        W77359  29.463   8.598   3.639
10577W        W77360  22.686   2.370  11.722
10578W        W77361   2.027  10.756   3.885
10579W        W77362  34.548  11.660   4.596
10580W        W77363   1.231  39.342   4.839
10581W        W77364  30.543   3.929  11.063
10582W        W77365   1.303  10.623   0.286
10583W        W77366  16.980  11.303   3.184
10584W        W77367  27.615  32.129  13.073
10585W        W77368   9.877  43.515   1.340
10586W        W77369   4.638  26.394  13.277
10587W        W77370  30.189  16.210   4.650
10588W        W77371  14.164  28.679   3.208
10589W        W77372  21.731   5.679   0.814
10590W        W77373  11.628  42.639   1.042
10591W        W77374  32.431  15.387  11.602
10592W        W77375  25.025  25.159  13.154
10593W        W77376   0.766  17.516  12.718
10594W        W77377  24.564  14.759  10.472
10595W        W77378  42.223  44.486  12.449
10596W        W77379  21.660  41.251  12.581
10597W        W77380   7.705  26.519   1.345
10598W        W77381  21.686  29.407   4.798
10599W        W77382  10.966  26.285   0.186
10600W        W77383  16.085  25.064  14.349
10601W        W77384  10.614   6.273   1.358
10602W        W77385  11.348   2.759  11.577
10603W        W77386   7.741  24.279   3.660
10604W        W77387   8.536  34.131   4.128
10605W        W77388  34.351  38.390  12.974
10606W        W77389  24.706  10.221  13.256
10607W        W77390  37.080   9.189   4.182
10608W        W77391  14.619  22.672  11.654
10609W        W77392  36.056  23.131  12.273
10610W        W77393  31.162   8.356  12.447
10611W        W77394   9.273  24.562   2.317
10612W        W77395  23.142   4.259  14.485
10613W        W77396  19.218  10.255   3.875
10614W        W77397  26.391   4.322  14.351
10615W        W77398  15.092  19.663  12.864
10616W        W77399   8.019  35.465  13.315
10617W        W77400  16.171   9.868   2.302
10618W        W77401  25.137   6.171  13.980
10619W        W77402  21.095  11.127  11.782
10620W        W77403  27.619  24.581   0.712
10621W        W77404   3.844  40.543  14.225
10622W        W77405  13.586  37.410  14.936
10623W        W77406  34.142  12.635  10.651
10624W        W77407  18.791  30.992  13.582
10625W        W77408  14.623  41.983   0.340
10626W        W77409  18.452  30.901  12.490
10627W        W77410  10.702  21.038  11.365
10628W        W77411   2.936  22.545   1.224
10629W        W77412  37.576  35.255  14.717
10630W        W77413  35.520  23.738   0.766
10631W        W77414  27.021  16.714  11.517
10632W        W77415  10.032  23.332  13.544
10633W        W77416  11.335  30.345  11.402
10634W        W77417  26.704  43.701   4.983
10635W        W77418  25.626  24.003   3.656
10636W        W77419  11.781  14.395   1.423
10637W        W77420  14.575   0.259  12.523
10638W        W77421  22.691  10.708   0.244
10639W        W77422  21.496  17.577   3.741
10640W        W77423  29.478  10.115   5.323
10641W        W77424  23.619   3.456  13.386
10642W        W77425   1.145  28.052  14.687
10643W        W77426  25.112  10.530   3.839
10644W        W77427  17.881  44.320  10.584
10645W        W77428  18.914  14.223  12.251
10646W        W77429  43.314  31.727   4.101
10647W        W77430  21.573   8.641  11.623
10648W        W77431  41.439  30.941  12.387
10649W        W77432  27.738   7.804  10.695
10650W        W77433  25.685  35.932   1.052
10651W        W77434  34.479  34.119  11.443
10652W        W77435   2.678   6.876  14.909
10653W        W77436   1.406   6.263   4.424
10654W        W77437   1.057   0.322   0.982
10655W        W77438  34.838  20.223   3.587
10656W        W77439  28.581  25.085   0.269
10657W        W77440   9.685  31.177   2.600
10658W        W77441  23.764  33.390   4.179
10659W        W77442   7.384  12.762   1.325
10660W        W77443   9.259   0.834  12.666
10661W        W77444  22.753  11.667   2.133
10662W        W77445  17.995  13.064  10.996
10663W        W77446   7.741  14.893   2.664
10664W        W77447   2.692  22.847  13.442
10665W        W77448  36.336  37.536  11.654
10666W        W77449  10.658  20.003   1.674
10667W        W77450   5.049  18.126  14.032
10668W        W77451  33.179  35.429   3.664
10669W        W77452  26.515  20.280  12.871
10670W        W77453  31.988   2.249  11.843
10671W        W77454  42.735   3.398   0.908
10672W        W77455  24.451  33.781   1.423
10673W        W77456   1.779  38.809   0.391
10674W        W77457  35.456   9.420   5.069
10675W        W77458  11.679  16.522   3.247
10676W        W77459  23.043  37.288  12.584
10677W        W77460  12.258  41.804   1.773
10678W        W77461  33.138  35.113   1.299
10679W        W77462  30.023  23.394   3.281
10680W        W77463  14.659   5.846  14.381
10681W        W77464   6.747  42.714  10.762
10682W        W77465  27.525  19.534   1.795
10683W        W77466  17.010  12.863  12.615
10684W        W77467  31.037  32.940   4.813
10685W        W77468  20.036   9.537  11.577
10686W        W77469  24.756  19.211   1.235
10687W        W77470   1.702   7.260  12.392
10688W        W77471  14.824  44.615   3.759
10689W        W77472   1.170   3.933   2.760
10690W        W77473  11.294  38.428  12.911
10691W        W77474  29.933  37.438   0.694
10692W        W77475  31.887  19.505  13.380
10693W        W77476  42.662  10.888   9.860
10694W        W77477   1.673   6.957  14.901
10695W        W77478  44.085  42.110   0.091
10696W        W77479   3.355  25.929  13.077
10697W        W77480  32.810  40.350   0.578
10698W        W77481   1.560  18.362   0.280
10699W        W77482  39.309   3.666   1.055
10700W        W77483  25.349   6.443   3.802
10701W        W77484  35.754   2.339   2.324
10702W        W77485  16.143  40.150  13.487
10703W        W77486  40.745  21.067   2.764
10704W        W77487   3.050  17.277   4.751
10705W        W77488  35.310  12.138   2.271
10706W        W77489   5.710   2.706  14.424
10707W        W77490  26.335  39.318  12.865
10708W        W77491  15.091  42.758   3.999
10709W        W77492  38.863  36.881   2.723
10710W        W77493  19.416  30.087  11.420
10711W        W77494  24.541  40.566   2.262
10712W        W77495  10.441  28.037  14.869
10713W        W77496  11.632  30.140   3.834
10714W        W77497   0.701  44.812   3.565
10715W        W77498  19.605  33.492  14.356
10716W        W77499  30.936  38.089   3.766
10717W        W77500  42.075  30.494  14.510
10718W        W77501  26.700  22.549   3.344
10719W        W77502  14.885  29.509   0.359
10720W        W77503  24.616   8.691   1.507
10721W        W77504  11.245  13.875  14.241
10722W        W77505  13.680   4.565  13.695
10723W        W77506  40.333  35.308   3.244
10724W        W77507  23.772   4.651  11.565
10725W        W77508  20.303  10.795   4.690
10726W        W77509  35.619  17.175   4.224
10727W        W77510  36.133   0.801  14.354
10728W        W77511  12.634  13.915   4.207
10729W        W77512  32.074  23.310   4.133
10730W        W77513  17.753  34.279   0.087
10731W        W77514   4.149  33.585   4.252
10732W        W77515  23.741  34.696  13.854
10733W        W77516  41.441   1.498  11.593
10734W        W77517   2.968  23.636  13.852
10735W        W77518   0.507  20.956  13.089
10736W        W77519  10.229  15.283   2.298
10737W        W77520   6.421  14.057   4.528
10738W        W77521  32.419  33.328  11.001
10739W        W77522  33.139   1.949   4.762
10740W        W77523   3.410  42.727  10.229
10741W        W77524  27.031  28.067  10.211
10742W        W77525  33.624   3.412   2.560
10743W        W77526   9.296   9.246   3.152
10744W        W77527  22.979  27.551   0.728
10745W        W77528  37.784  12.647   2.954
10746W        W77529  20.292  39.612   0.371
10747W        W77530  13.861   6.293  10.523
10748W        W77531  21.267  10.791   4.746
10749W        W77532  36.158  41.295   2.897
10750W        W77533  18.034  34.130  10.590
10751W        W77534  39.976  38.983   4.843
10752W        W77535  10.096  41.714   0.798
10753W        W77536   9.312   7.392   0.826
10754W        W77537  28.140  33.943   2.431
10755W        W77538  38.973  38.871  10.668
10756W        W77539  31.663   0.908   4.574
10757W        W77540  22.949   6.276  13.003
10758W        W77541  17.361  26.645   0.053
10759W        W77542   0.824  11.149  14.896
10760W        W77543  43.139   1.296   0.351
10761W        W77544   6.398  17.185  14.262
10762W        W77545  30.852   6.694  13.872
10763W        W77546   9.283  26.934  14.347
10764W        W77547   7.624  36.317  14.518
10765W        W77548  27.925  34.483  11.243
10766W        W77549  15.102  28.458   4.407
10767W        W77550   7.067   3.844   0.399
10768W        W77551  27.695  10.312   3.682
10769W        W77552  29.935  30.419   4.692
10770W        W77553  26.548  11.647   0.918
10771W        W77554  12.810  29.911   2.679
10772W        W77555   9.648  35.167  11.540
10773W        W77556  19.109  39.026  13.944
10774W        W77557  27.787  40.366  11.233
10775W        W77558  44.096  11.908  12.080
10776W        W77559  29.834  15.388  11.624
10777W        W77560  43.322   2.831  12.744
10778W        W77561  22.865  41.068   5.027
10779W        W77562  43.775  42.068  10.781
10780W        W77563   5.396  10.198   1.989
10781W        W77564  27.139  18.157   3.901
10782W        W77565  16.248  40.729  12.109
10783W        W77566  41.008   0.859  14.257
10784W        W77567   5.618  24.649  12.509
10785W        W77568  42.078  26.444  14.863
10786W        W77569  43.053  30.258  10.858
10787W        W77570  39.389  17.660   2.486
10788W        W77571   1.222  10.636  10.412
10789W        W77572  24.407  42.280   2.867
10790W        W77573  37.988  19.117   0.734
10791W        W77574  34.012  20.166   3.233
10792W        W77575  10.732  26.462  13.779
10793W        W77576   2.353  30.736  10.261
10794W        W77577  27.083  32.973  14.803
10795W        W77578  44.444  33.823  13.853
10796W        W77579  39.010  28.705  10.114
10797W        W77580  23.075  26.340  13.996
10798W        W77581  20.120  12.975   0.420
10799W        W77582   2.495  37.817  14.945
10800W        W77583   3.544  27.116  12.226
10801W        W77584  18.604  15.360   4.505
10802W        W77585  26.035  13.357  13.903
10803W        W77586   8.702  16.754   0.868
10804W        W77587  14.380  40.830   3.674
10805W        W77588  34.168  21.342  11.101
10806W        W77589  28.997  16.266   3.075
10807W        W77590  30.586  19.717  11.586
10808W        W77591  29.242  18.739  11.178
10809W        W77592   7.505  26.227   0.260
10810W        W77593  23.577   0.529  13.584
10811W        W77594  37.104  33.569   3.296
10812W        W77595   2.449  14.854  12.932
10813W        W77596   8.772  28.476   4.946
10814W        W77597   7.256   2.029   2.781
10815W        W77598  43.017  24.549  12.048
10816W        W77599  22.142  23.346  11.654
10817W        W77600  31.714  27.536   1.373
10818W        W77601  18.154  21.652  13.920
10819W        W77602  13.439   0.224  13.067
10820W        W77603  25.643  43.065  11.939
10821W        W77604  23.617  13.818  14.479
10822W        W77605  28.066   5.125  12.061
10823W        W77606  23.953  15.335   4.614
10824W        W77607  22.593   2.737   4.485
10825W        W77608  16.232  17.117   2.709
10826W        W77609  42.272  44.093   3.018
10827W        W77610  20.712  24.475  13.774
10828W        W77611  19.850  32.495  14.719
10829W        W77612  42.976  36.508   4.654
10830W        W77613  28.124  21.075   0.924
10831W        W77614  40.567  36.305   2.478
10832W        W77615  12.371  27.717  13.077
10833W        W77616   9.889   5.499   2.603
10834W        W77617  28.561  39.782  11.058
10835W        W77618  44.039  35.622   2.682
10836W        W77619  28.189  41.895  14.085
10837W        W77620  10.873   6.726  10.337
10838W        W77621  14.990   9.015   0.812
10839W        W77622  14.566  36.825   2.845
10840W        W77623  35.669  30.553  13.905
10841W        W77624  20.049  38.608   2.410
10842W        W77625  14.867   6.480  14.946
10843W        W77626  41.334  35.341   1.765
10844W        W77627  34.775  20.518   1.689
10845W        W77628  30.433  32.705  13.895
10846W        W77629   3.151  33.368   4.024
10847W        W77630   7.929  18.894  12.980
10848W        W77631  30.444  27.434   4.190
10849W        W77632  25.561  16.087   4.642
10850W        W77633  31.628  23.467  10.674
10851W        W77634  13.349  19.567  14.510
10852W        W77635   3.258  39.564  12.428
10853W        W77636  21.174  35.008   4.492
10854W        W77637  31.129  24.766   2.586
10855W        W77638  31.874  18.159   3.329
10856W        W77639  15.230  38.708  13.427
10857W        W77640  23.098  10.917  11.775
10858W        W77641  39.632  25.189   1.839
10859W        W77642  33.518   6.346  14.578
10860W        W77643  20.661  26.482  10.190
10861W        W77644  30.472  21.642  13.305
10862W        W77645  41.074  34.470  11.572
10863W        W77646  22.514  23.432  12.883
10864W        W77647  10.010  15.801  12.067
10865W        W77648  20.267  11.966   0.743
10866W        W77649  28.169   1.356   4.977
10867W        W77650  39.917   4.624  12.365
10868W        W77651  26.239  22.411  13.892
10869W        W77652  29.415  28.712  14.333
10870W        W77653  28.536  35.058  13.888
10871W        W77654  17.673  30.474  11.415
10872W        W77655  31.952  42.347   3.115
10873W        W77656  16.012   9.325   3.184
10874W        W77657  23.802  23.588  11.132
10875W        W77658  15.726  38.860  11.158
10876W        W77659  36.421  17.669   1.921
10877W        W77660   6.439  37.964  13.568
10878W        W77661  12.726  34.468   4.571
10879W        W77662  44.305  33.668  10.619
10880W        W77663  42.394   6.559   0.222
10881W        W77664  19.475  18.679  10.956
10882W        W77665   4.230   0.313   2.223
10883W        W77666  34.673  35.322   4.169
10884W        W77667  29.638  35.230  10.735
10885W        W77668   4.819   1.142   4.197
10886W        W77669  34.115  27.100   2.793
10887W        W77670  42.996  41.058   0.864
10888W        W77671  32.693  24.413  10.746
10889W        W77672  32.465  42.520  14.822
10890W        W77673   9.924   6.675   3.467
10891W        W77674   2.681  40.201  12.488
10892W        W77675  16.990   0.893   4.699
10893W        W77676   7.432  36.116  11.932
10894W        W77677  35.561   1.039  13.523
10895W        W77678   8.411  28.974   1.872
10896W        W77679  39.390  38.451  13.333
10897W        W77680   3.307  30.808   2.338
10898W        W77681  22.080   9.616  12.958
10899W        W77682  38.335   4.935  10.421
10900W        W77683  27.810   8.358  13.976
10901W        W77684   6.183   5.481   1.513
10902W        W77685   2.372  14.304   4.684
10903W        W77686   2.523   0.388  14.020
10904W        W77687  14.788  18.259  13.593
10905W        W77688  34.686  26.835   3.323
10906W        W77689  29.070  33.580  14.336
10907W        W77690  34.146   3.991   3.226
10908W        W77691  27.029  38.112   1.408
10909W        W77692  30.657  10.744  10.631
10910W        W77693   4.818  14.887   3.834
10911W        W77694  41.193  13.250  11.503
10912W        W77695  14.610  22.200  12.556
10913W        W77696   4.277  30.046   3.201
10914W        W77697  19.204  41.321   3.821
10915W        W77698  11.123   4.182   4.849
10916W        W77699  27.488  14.219   2.347
10917W        W77700  16.857  34.901   4.148
10918W        W77701  13.464  30.987  12.685
10919W        W77702  40.505  25.993  12.682
10920W        W77703  37.894  34.842  13.576
10921W        W77704  11.828   0.688  12.431
10922W        W77705  30.528   0.217  12.497
10923W        W77706  11.524  36.374  11.025
10924W        W77707  29.893   8.900   3.801
10925W        W77708  32.588  43.984   0.681
10926W        W77709  33.055  25.530   4.519
10927W        W77710  31.743  38.465   3.329
10928W        W77711  38.972  39.385  14.922
10929W        W77712   4.678  33.782   4.216
10930W        W77713  25.008  41.351  11.848
10931W        W77714  18.671  36.277   2.745
10932W        W77715  36.162  41.999  12.119
10933W        W77716  28.010  44.184   1.742
10934W        W77717  12.839  19.139  14.871
10935W        W77718  16.702  20.327   3.717
10936W        W77719  16.218   4.397  14.284
10937W        W77720  35.554   2.920  12.091
10938W        W77721  36.339   4.719  13.399
10939W        W77722  39.378   1.339  12.658
10940W        W77723  23.014  28.038  12.818
10941W        W77724   3.035  15.548  13.041
10942W        W77725  25.570  10.316   1.655
10943W        W77726   7.826   2.201   4.672
10944W        W77727  41.762  38.308  13.051
10945W        W77728  23.145  30.232   4.635
10946W        W77729  12.174  15.419  13.926
10947W        W77730   7.294   1.924   1.889
10948W        W77731  43.795  15.596   1.165
10949W        W77732  37.125  18.669   1.086
10950W        W77733  26.560  10.239   3.657
10951W        W77734   7.346  32.267   4.114
10952W        W77735  42.979   9.437   5.012
10953W        W77736  40.907  20.781  11.560
10954W        W77737   1.196  34.034  13.030
10955W        W77738  30.060  41.816  13.923
10956W        W77739  19.260  24.519   0.773
10957W        W77740  35.503  11.613  13.613
10958W        W77741  12.305  10.404   0.294
10959W        W77742   5.156  35.059   0.194
10960W        W77743  27.110  37.069   1.401
10961W        W77744  26.161   4.576  11.240
10962W        W77745  25.388  13.324   0.245
10963W        W77746  29.020  15.591  10.989
10964W        W77747  32.839  25.244  14.249
10965W        W77748  40.373   9.303  12.594
10966W        W77749  29.047  25.686  12.606
10967W        W77750  28.951  13.091   2.325
10968W        W77751  18.023   3.770  11.694
10969W        W77752  37.946  33.970  11.964
10970W        W77753  30.145  34.191  12.979
10971W        W77754   4.936   8.142   2.662
10972W        W77755  36.624  33.070   0.505
10973W        W77756  11.574  31.404  10.700
10974W        W77757  29.883   1.509  14.433
10975W        W77758  37.494  11.274  10.711
10976W        W77759  34.153  12.825   2.162
10977W        W77760  15.312   7.824  13.551
10978W        W77761  12.203   0.963  12.859
10979W        W77762  28.676   3.342   4.757
10980W        W77763  21.131   1.996   3.116
10981W        W77764  14.534  24.137   0.981
10982W        W77765  19.549  20.817  14.014
10983W        W77766   3.361   3.309  14.959
10984W        W77767   7.014  34.672  13.891
10985W        W77768  26.098  19.580  14.423
10986W        W77769  36.796  41.588   1.200
10987W        W77770  13.460   1.878   2.732
10988W        W77771  43.364  34.531  12.086
10989W        W77772  27.026   2.445  12.069
10990W        W77773  28.874  41.826  11.915
10991W        W77774   0.340  13.660  11.979
10992W        W77775  22.053  29.608   2.594
10993W        W77776  29.403  34.620   0.847
10994W        W77777   5.425  43.030   0.398
10995W        W77778  32.685  20.762   3.647
10996W        W77779  18.112  19.059   3.445
10997W        W77780   0.766  28.462   0.362
10998W        W77781   5.155  15.710   0.920
10999W        W77782  35.718  40.948   3.792
11000W        W77783  18.132  12.183   1.794
11001W        W77784  41.819  23.319   2.820
11002W        W77785   0.915  29.648  11.922
11003W        W77786  26.475  23.711   1.949
11004W        W77787  25.898  33.795   1.333
11005W        W77788   8.486  28.524   3.996
11006W        W77789  11.633  38.348  12.389
11007W        W77790  44.132  26.973  13.906
11008W        W77791  16.596  12.587  11.839
11009W        W77792  23.936  24.699  14.881
11010W        W77793  14.742  42.956  11.960
11011W        W77794   7.316  37.524  13.362
11012W        W77795  32.988  16.554  11.978
11013W        W77796   2.339  28.279   5.151
11014W        W77797  12.965  40.051  14.414
11015W        W77798   7.739  40.233  13.785
11016W        W77799  25.933  33.220  10.721
11017W        W77800  39.998   1.444   4.153
11018W        W77801  18.045  41.793   3.251
11019W        W77802   2.222  14.175   4.208
11020W        W77803   7.855  16.237   4.045
11021W        W77804   5.946  27.129   0.064
11022W        W77805   7.812  38.457   2.353
11023W        W77806  43.849  42.026   2.088
11024W        W77807  29.876   8.265  12.842
11025W        W77808   8.189  28.154  10.815
11026W        W77809  30.636  42.497   3.187
11027W        W77810  35.608  10.805   1.672
11028W        W77811  29.063   7.761   2.611
11029W        W77812  44.807   9.899  13.512
11030W        W77813  26.597  42.643   5.034
11031W        W77814   8.069  22.996  12.990
11032W        W77815   5.162  14.324  14.885
11033W        W77816  29.991  42.618  12.907
11034W        W77817  27.126  23.194  11.769
11035W        W77818  17.336  42.629   4.735
11036W        W77819  25.878  27.588   9.552
11037W        W77820  31.888  21.268  14.905
11038W        W77821  43.832  41.965  11.276
11039W        W77822  44.914  36.789   2.843
11040W        W77823  27.571  20.059   3.361
11041W        W77824  31.552  20.752  14.403
11042W        W77825  44.451  28.267   1.473
11043W        W77826  15.613  38.480   2.345
11044W        W77827  28.911  14.608   4.671
11045W        W77828   1.333  31.978  14.876
11046W        W77829  26.010  41.037   0.881
11047W        W77830  19.558   7.988  11.611
11048W        W77831  34.569  27.884  11.063
11049W        W77832   9.360  27.874   2.905
11050W        W77833  15.802  31.524  11.507
11051W        W77834  19.498   4.467  14.646
11052W        W77835  29.642   6.112  13.547
11053W        W77836  32.441  29.142   4.799
11054W        W77837   1.059  28.720   1.819
11055W        W77838   8.285   7.596   4.171
11056W        W77839  11.167  24.210  11.029
11057W        W77840  30.140  13.879   2.840
11058W        W77841  18.145  38.761  14.497
11059W        W77842   2.801  42.501   5.015
11060W        W77843  31.843  12.691  11.641
11061W        W77844   7.396  31.160  12.370
11062W        W77845  11.089   5.968  11.542
11063W        W77846   8.754  36.667  13.437
11064W        W77847  40.434  42.534   4.322
11065W        W77848  12.263  34.999   5.652
11066W        W77849  15.105  32.659   4.082
11067W        W77850  43.888   4.945  11.477
11068W        W77851  21.006   7.143  12.918
11069W        W77852  28.407  19.735  14.343
11070W        W77853   2.758  22.034  12.127
11071W        W77854  29.438  34.717  13.967
11072W        W77855  12.289   0.806  11.523
11073W        W77856  18.652   7.376   2.852
11074W        W77857  26.152  32.090   3.888
11075W        W77858  29.700  17.088   5.335
11076W        W77859  29.536  33.936   1.193
11077W        W77860  31.411  36.588  14.140
11078W        W77861  13.985   8.858   4.507
11079W        W77862   3.248  39.984  13.828
11080W        W77863   4.795  17.224  10.750
11081W        W77864  29.106  37.102  13.718
11082W        W77865   5.919  37.256   1.310
11083W        W77866  23.844  24.455  13.272
11084W        W77867   8.698  22.619   2.686
11085W        W77868  18.936  34.861  11.688
11086W        W77869  16.603  23.997   1.788
11087W        W77870  39.928  22.596   0.266
11088W        W77871  24.377   5.210  13.109
11089W        W77872  30.374  39.428  12.425
11090W        W77873   9.325  38.862  10.446
11091W        W77874  26.189  32.906   2.729
11092W        W77875   3.562  19.083   1.335
11093W        W77876  29.119  42.324  13.223
11094W        W77877  33.246  24.583   0.757
11095W        W77878  37.900  19.602   2.839
11096W        W77879  14.232  12.770  12.750
11097W        W77880  41.497  13.435   2.807
11098W        W77881  29.568  38.886   1.693
11099W        W77882  38.207  40.422  14.030
11100W        W77883  41.680  37.745  12.570
11101W        W77884  31.159  43.913  10.723
11102W        W77885  15.572  32.424  13.837
11103W        W77886   7.841  13.635   2.215
11104W        W77887  22.885  36.959   2.757
11105W        W77888   2.830  22.383  12.491
11106W        W77889  24.214  30.559  13.169
11107W        W77890  39.085  32.852   2.613
11108W        W77891  40.482  27.762  10.629
11109W        W77892  23.600   5.788  12.679
11110W        W77893  28.537  44.506   3.124
11111W        W77894  26.669   0.477  12.012
11112W        W77895  19.294  34.164   2.946
11113W        W77896  25.455  16.234   4.150
11114W        W77897  30.601  37.780  10.734
11115W        W77898  18.274  37.906  14.866
11116W        W77899  19.565  35.902   1.210
11117W        W77900  16.225   1.526   3.543
11118W        W77901  20.515   2.526   0.695
11119W        W77902  18.866  14.713  11.341
11120W        W77903  16.268  34.211  12.018
11121W        W77904  34.155  28.164   1.777
11122W        W77905   9.944   7.839  14.543
11123W        W77906  44.440  39.468   3.555
11124W        W77907  15.622  14.439  14.507
11125W        W77908  31.443   6.725   0.816
11126W        W77909  29.120   5.407  14.399
11127W        W77910   1.752  33.591   4.115
11128W        W77911   7.909   6.482  13.786
11129W        W77912  31.749  31.080   4.937
11130W        W77913   0.578   3.303   2.378
11131W        W77914  19.289   2.767  12.105
11132W        W77915  16.804   0.243  14.903
11133W        W77916  44.097  14.925  10.981
11134W        W77917  27.419  19.612  12.511
11135W        W77918  18.902  12.129  14.535
11136W        W77919  27.892   0.854   2.853
11137W        W77920  39.444  28.930  11.512
11138W        W77921  24.260   8.560  11.614
11139W        W77922   5.328  18.843  13.504
11140W        W77923  15.195   2.090  10.763
11141W        W77924  11.259   0.275   3.163
11142W        W77925  11.793  24.017   1.797
11143W        W77926  11.379  11.904  11.035
11144W        W77927  39.148  24.636   2.919
11145W        W77928  17.014   6.106  11.021
11146W        W77929  30.991  14.520  14.935
11147W        W77930  30.538  24.967  10.602
11148W        W77931  12.320  26.768   2.866
11149W        W77932  44.743  28.934  14.904
11150W        W77933   3.117  30.114  11.125
11151W        W77934   4.950   7.574   1.198
11152W        W77935  40.864  41.714  13.453
11153W        W77936   2.869  32.472  12.350
11154W        W77937  39.588   3.954  13.057
11155W        W77938  37.490  27.198   0.509
11156W        W77939   7.973   9.304  11.631
11157W        W77940  42.917   3.810   3.134
11158W        W77941  14.894  13.408   3.193
11159W        W77942   7.752  20.574  11.585
11160W        W77943   3.119  22.283  11.099
11161W        W77944  22.596  39.298   0.313
11162W        W77945  17.377  12.637  13.554
11163W        W77946  37.842   3.251  12.961
11164W        W77947   8.159  14.829  14.454
11165W        W77948   6.732  32.452   2.350
11166W        W77949   6.193   8.939   2.116
11167W        W77950  22.932   7.703   0.864
11168W        W77951  14.828  12.335  13.881
11169W        W77952  42.657  34.047  14.871
11170W        W77953  17.103   3.782  11.610
11171W        W77954  34.399  23.915   1.779
11172W        W77955  28.853  43.348   2.602
11173W        W77956  24.911  20.628  14.431
11174W        W77957  29.181  23.470  14.839
11175W        W77958  17.738   1.880  13.788
11176W        W77959   9.207  17.332  14.988
11177W        W77960   2.236  44.772   1.202
11178W        W77961  17.163  13.037  11.040
11179W        W77962  10.042  24.086   3.671
11180W        W77963  12.112  42.481  12.919
11181W        W77964   7.445   8.676  14.949
11182W        W77965  31.049  24.304   3.553
11183W        W77966  39.223   5.857  12.832
11184W        W77967  21.693   0.717   2.350
11185W        W77968  23.117  33.136  12.922
11186W        W77969   5.834   9.141   1.249
11187W        W77970  10.079   6.581   5.058
11188W        W77971  38.558  37.630  12.901
11189W        W77972  11.046   3.343   3.528
11190W        W77973  32.436  41.785  12.016
11191W        W77974  35.408  40.938   1.946
11192W        W77975   2.408  22.839  11.995
11193W        W77976  43.297  42.436  13.410
11194W        W77977  11.180  22.131   3.710
11195W        W77978  11.787  19.083  14.825
11196W        W77979  22.436  22.548  12.284
11197W        W77980  40.930  17.074  10.426
11198W        W77981  40.049  38.798   4.356
11199W        W77982  38.584   3.372  10.732
11200W        W77983  19.523  12.738   3.360
11201W        W77984  16.905   1.419  11.940
11202W        W77985  29.177   8.299   1.234
11203W        W77986  33.368  12.604  14.785
11204W        W77987  10.275  21.313  11.466
11205W        W77988  35.458   1.421  14.522
11206W        W77989  17.359  24.518  11.630
11207W        W77990  22.694   8.971   1.323
11208W        W77991  44.931  23.321  13.098
11209W        W77992  36.921  18.633  12.377
11210W        W77993  27.970   8.224  12.448
11211W        W77994  29.619  24.998   2.617
11212W        W77995  18.502  41.782  11.123
11213W        W77996   2.881  42.465  14.506
11214W        W77997  40.254  37.979  12.156
11215W        W77998  23.764   8.169  10.715
11216W        W77999  44.036  17.651  10.293
11217W        W78000  15.581  19.753   5.025
11218W        W78001  17.232   5.571   2.396
11219W        W78002   4.350  10.152   5.224
11220W        W78003   6.432  41.744   3.101
11221W        W78004  17.290  19.008  12.027
11222W        W78005   2.452  23.670  12.978
11223W        W78006   0.232   2.412   3.765
11224W        W78007  13.992   5.414   0.381
11225W        W78008  36.367   3.950   0.518
11226W        W78009  11.086  16.833   1.850
11227W        W78010  41.960  27.996   0.749
11228W        W78011   8.226   1.811   2.813
11229W        W78012  30.637  17.219  11.431
11230W        W78013   4.422   8.875   3.904
11231W        W78014  31.453  24.634   0.044
11232W        W78015  33.541  11.676  10.992
11233W        W78016  30.576  17.585   0.824
11234W        W78017  20.561  32.336   3.296
11235W        W78018  19.875   6.921   3.742
11236W        W78019   4.657  44.240   2.751
11237W        W78020  13.612  40.469   0.777
11238W        W78021  34.978  16.062   3.888
11239W        W78022   1.581   3.786  13.861
11240W        W78023  35.477   4.518   0.500
11241W        W78024  43.518  29.911  12.413
11242W        W78025   4.575   4.949   4.249
11243W        W78026  27.585  12.473   2.299
11244W        W78027  14.255  21.977   3.235
11245W        W78028  39.963  38.812  12.546
11246W        W78029  13.769  40.794  13.955
11247W        W78030  10.895  23.625  11.554
11248W        W78031  10.651  38.187   0.254
11249W        W78032  31.125  38.535   0.474
11250W        W78033  34.637  12.277  14.319
11251W        W78034  36.974  12.907  14.186
11252W        W78035   7.398   5.755  14.652
11253W        W78036  40.443   2.403  13.549
11254W        W78037  38.940  12.675  14.763
11255W        W78038   9.542  39.499   0.413
11256W        W78039   2.449  31.703   1.930
11257W        W78040  16.368  17.574   4.051
11258W        W78041   1.108  33.501  13.973
11259W        W78042  11.069   7.105  12.468
11260W        W78043  32.016  17.806   3.831
11261W        W78044  11.902   4.344  13.870
11262W        W78045  10.116  40.947  11.170
11263W        W78046  37.708   1.738  10.622
11264W        W78047  41.832  15.071  12.043
11265W        W78048  42.101  43.627   3.188
11266W        W78049   2.388  40.610   0.941
11267W        W78050  22.286  34.495  11.815
11268W        W78051  28.976  32.369   3.697
11269W        W78052  16.142  31.591   4.007
11270W        W78053  29.923  29.906  14.854
11271W        W78054  38.393   6.794  12.807
11272W        W78055  44.059   4.871   1.551
11273W        W78056  11.632  20.667  11.664
11274W        W78057  26.671  29.409   0.796
11275W        W78058  22.961  35.696   5.118
11276W        W78059   2.012   5.891  10.846
11277W        W78060  37.028   6.210  14.084
11278W        W78061  43.220  39.496  11.606
11279W        W78062  21.964   2.267  12.659
11280W        W78063  41.554  32.655   3.940
11281W        W78064  41.117  36.548   4.276
11282W        W78065  18.184  12.705   1.671
11283W        W78066  35.346  26.751  14.405
11284W        W78067  27.528  17.558  11.891
11285W        W78068   5.342   3.293  14.782
11286W        W78069  12.923  24.304   4.094
11287W        W78070  30.610  40.875   3.858
11288W        W78071   9.339  38.762   1.494
11289W        W78072  16.925  13.703   0.829
11290W        W78073  27.649  15.647  11.852
11291W        W78074   1.054   3.837  13.964
11292W        W78075   8.356  33.628  11.062
11293W        W78076  22.581  35.914   4.339
11294W        W78077  39.272  43.402  14.938
11295W        W78078  44.213   1.206   4.349
11296W        W78079  13.167   8.557  12.048
11297W        W78080  22.160  43.021   1.022
11298W        W78081  29.577   2.724   1.226
11299W        W78082  24.612  19.780  12.857
11300W        W78083  13.368  40.485  13.891
11301W        W78084  13.053  26.074  13.362
11302W        W78085   8.346   1.025  13.024
11303W        W78086  41.484  14.256   3.510
11304W        W78087  27.428  26.566   9.664
11305W        W78088  36.198   0.911  10.592
11306W        W78089  36.988  20.927   3.933
11307W        W78090   5.687   3.845  13.931
11308W        W78091  14.385  42.029  12.510
11309W        W78092  18.971   7.290  14.865
11310W        W78093   9.350  14.626   0.703
11311W        W78094  43.784  28.555   2.905
11312W        W78095   2.742  41.537   3.339
11313W        W78096  20.639   3.884   4.347
11314W        W78097  12.467  38.795   3.700
11315W        W78098   8.445  14.828  10.631
11316W        W78099   4.960   8.624   1.513
11317W        W78100  17.749  33.439  14.574
11318W        W78101  30.371   0.057  13.499
11319W        W78102   7.464  31.044  14.711
11320W        W78103  36.371  21.996   0.845
11321W        W78104   9.198  31.543   1.234
11322W        W78105  32.337  44.330   1.440
11323W        W78106  40.781  12.103   0.665
11324W        W78107  35.505  36.040  13.181
11325W        W78108  29.079   1.466  10.739
11326W        W78109  10.911  19.997  10.677
11327W        W78110   0.916   6.951  11.703
11328W        W78111  18.788  27.144   4.915
11329W        W78112  43.114  36.364  14.998
11330W        W78113  42.974  25.962   0.339
11331W        W78114  45.000  41.078   3.821
11332W        W78115   8.842  31.197   0.426
11333W        W78116  41.320   3.961  10.712
11334W        W78117  42.601   5.830  14.862
11335W        W78118  16.650  39.235  12.340
11336W        W78119  35.072   6.417  13.786
11337W        W78120  15.232  21.899  14.981
11338W        W78121  35.647  18.824  11.767
11339W        W78122  17.821   3.896  13.545
11340W        W78123  14.306   9.753  12.487
11341W        W78124  16.850  10.842   4.545
11342W        W78125  44.416  12.331  14.315
11343W        W78126  12.796  10.766   0.321
11344W        W78127  21.107  32.458  14.416
11345W        W78128  23.241  16.303   3.604
11346W        W78129  25.021  34.789   3.390
11347W        W78130  23.002  32.725   4.547
11348W        W78131  43.517  24.021  13.324
11349W        W78132  10.097  41.824   4.248
11350W        W78133  26.919  25.200  13.043
11351W        W78134  42.492  39.583   2.363
11352W        W78135   3.719  25.778  12.268
11353W        W78136  23.113  37.411   2.780
11354W        W78137  33.407  44.280   4.146
11355W        W78138  18.033  34.359  13.900
11356W        W78139  35.017  27.049  10.405
11357W        W78140  34.239  34.560   4.596
11358W        W78141  41.926  43.471  11.640
11359W        W78142  32.107  43.548   4.750
11360W        W78143  38.560  18.216   2.325
11361W        W78144  31.989  34.157   3.351
11362W        W78145  20.118  42.895  14.325
11363W        W78146  37.250  37.358   3.187
11364W        W78147  37.975  33.536  13.726
11365W        W78148  33.657  44.011   1.473
11366W        W78149  19.735  33.586   1.761
11367W        W78150  37.429  17.029   4.549
11368W        W78151  21.605  14.131   5.011
11369W        W78152  28.757  26.873   0.960
11370W        W78153   7.175  33.535  11.942
11371W        W78154  26.058  43.499  12.379
11372W        W78155  40.726  40.812  11.934
11373W        W78156  39.325  29.475  14.828
11374W        W78157  24.344  41.615  10.625
11375W        W78158   0.556  24.641  14.110
11376W        W78159  14.510   1.024   1.783
11377W        W78160  35.665  39.976  11.226
11378W        W78161  43.700   5.014   0.522
11379W        W78162  19.738  25.618  11.042
11380W        W78163  14.148  27.644  12.827
11381W        W78164   2.189  33.968  12.895
11382W        W78165  22.139  25.128   3.417
11383W        W78166  24.626  10.650  12.932
11384W        W78167  14.647  26.697  14.576
11385W        W78168  18.996  40.770   0.327
11386W        W78169  26.769  35.735   2.338
11387W        W78170   0.444  41.781  13.770
11388W        W78171   2.968  35.920   2.647
11389W        W78172  16.642   1.418  13.815
11390W        W78173   8.315  21.597   4.945
11391W        W78174  29.823  40.324  10.671
11392W        W78175  19.493   2.967   4.541
11393W        W78176  42.264  16.435  12.082
11394W        W78177  19.125  44.291  11.647
11395W        W78178  32.682  18.772  14.507
11396W        W78179  40.549  13.385  14.876
11397W        W78180  37.951  11.189   3.244
11398W        W78181  44.413  33.607   2.236
11399W        W78182  43.560  13.226  14.038
11400W        W78183  25.563  37.808  12.029
11401W        W78184  33.714  17.134  10.872
11402W        W78185  36.420  26.235  10.532
11403W        W78186  22.132  21.657  12.591
11404W        W78187  36.313  43.072   2.441
11405W        W78188  43.708  37.944   0.367
11406W        W78189  27.825  33.963   4.311
11407W        W78190  23.434  31.952   2.896
11408W        W78191  15.703  29.417  14.373
11409W        W78192  27.146   5.775   1.679
11410W        W78193  38.065  21.010  11.846
11411W        W78194  22.666  41.268  12.416
11412W        W78195  11.408   1.271  14.826
11413W        W78196  35.252  43.041   0.134
11414W        W78197  32.265  39.098   0.739
11415W        W78198   3.294  17.182   1.134
11416W        W78199  36.537   4.850  12.921
11417W        W78200  27.374   3.855  12.038
11418W        W78201   8.822  21.485   1.137
11419W        W78202  15.892   6.171  10.585
11420W        W78203  18.479  13.045   5.396
11421W        W78204  25.779  35.428   2.161
11422W        W78205  29.139  44.244   1.284
11423W        W78206  44.165  21.748  13.361
11424W        W78207  24.563  44.859  12.567
11425W        W78208   4.493   0.122  11.291
11426W        W78209   9.731  22.440   2.834
11427W        W78210  41.262   7.760   1.969
11428W        W78211   0.039  34.193   3.233
11429W        W78212   3.685  42.820   4.107
11430W        W78213  33.958   3.458   1.024
11431W        W78214  35.168  38.997  14.950
11432W        W78215  33.359  26.689  10.668
11433W        W78216   9.155   4.665  10.287
11434W        W78217  23.570  21.255   3.642
11435W        W78218  31.594   2.322  13.920
11436W        W78219   1.985   6.381  11.606
11437W        W78220  25.127  39.692  11.170
11438W        W78221   0.735   4.546  10.537
11439W        W78222   2.406  34.069   0.466
11440W        W78223  35.624  19.052   3.242
11441W        W78224  36.353  42.648   1.682
11442W        W78225   7.814   6.320   2.341
11443W        W78226  36.814  11.385   3.984
11444W        W78227   3.165  10.176  11.041
11445W        W78228  32.504  28.537   1.415
11446W        W78229  33.212   0.168  14.427
11447W        W78230  17.060  27.012   2.418
11448W        W78231  39.047  20.824  11.609
11449W        W78232   6.349  40.943   1.260
11450W        W78233  24.726  30.905   0.872
11451W        W78234  39.768  18.458  11.465
11452W        W78235  32.433   9.507   3.150
11453W        W78236  23.173  25.722  14.032
11454W        W78237   7.363  44.493   2.301
11455W        W78238   6.740  37.094  11.073
11456W        W78239  12.955  38.467  11.498
11457W        W78240  14.055  36.219  13.499
11458W        W78241  37.038   4.459   0.328
11459W        W78242  13.570  24.101  11.537
11460W        W78243  19.312  40.781   0.730
11461W        W78244  14.252  22.277  14.961
11462W        W78245  15.478  39.700  14.878
11463W        W78246  37.255   8.902   2.305
11464W        W78247  18.136   1.407   0.273
11465W        W78248   7.275   9.650  11.176
11466W        W78249  18.222  27.585   4.392
11467W        W78250  30.634  15.037  14.321
11468W        W78251  36.397  20.663   2.898
11469W        W78252  44.194  28.948   3.720
11470W        W78253  30.153  16.681   4.193
11471W        W78254  43.767  27.481  10.633
11472W        W78255  32.800  43.496  12.064
11473W        W78256  37.595  37.609  10.830
11474W        W78257  30.754  18.906  13.812
11475W        W78258  27.375  35.030   4.098
11476W        W78259  23.940  26.893   3.332
11477W        W78260  13.811  38.885  13.466
11478W        W78261  25.641  39.878  14.540
11479W        W78262  32.915  37.116   4.097
11480W        W78263  29.217   0.432  11.953
11481W        W78264  24.675  23.300   5.409
11482W        W78265   0.037   0.314   3.271
11483W        W78266  15.581  22.605  14.607
11484W        W78267  17.110  21.769   2.830
11485W        W78268  40.771  24.544   0.371
11486W        W78269  33.598   4.625   3.736
11487W        W78270   2.009  33.873   2.208
11488W        W78271  39.326  39.218   2.393
11489W        W78272  27.932  19.567  14.877
11490W        W78273  12.235  27.417   4.206
11491W        W78274  39.625  12.294  11.124
11492W        W78275  17.331  42.868   1.395
11493W        W78276   6.116   1.962  13.112
11494W        W78277  38.393   8.476  13.543
11495W        W78278  20.428  28.706  12.955
11496W        W78279  33.417  18.631   3.017
11497W        W78280  10.933  25.886   1.045
11498W        W78281  40.169  37.331   1.788
11499W        W78282   5.368  15.294   4.632
11500W        W78283   2.871  20.657  14.890
11501W        W78284  28.046  23.548   4.550
11502W        W78285  38.784  29.740   4.220
11503W        W78286   7.371  31.899  14.198
11504W        W78287  24.206  27.096  11.454
11505W        W78288  11.200  11.665  11.812
11506W        W78289   3.301  13.161  11.880
11507W        W78290  32.352  23.201  10.330
11508W        W78291  42.883  27.400   2.799
11509W        W78292  40.603  26.286   0.024
11510W        W78293  39.406  43.894   3.749
11511W        W78294  35.386  28.174  14.207
11512W        W78295   4.841  24.702   0.637
11513W        W78296  14.566   1.830   4.156
11514W        W78297  23.989  25.510   2.214
11515W        W78298  22.613  27.713  13.402
11516W        W78299  44.934   9.172   1.208
11517W        W78300  40.281   7.789  14.773
11518W        W78301  19.295   5.851   2.292
11519W        W78302   5.494  13.958  11.179
11520W        W78303  38.954   5.395  10.695
11521W        W78304   8.373  20.234  12.941
11522W        W78305  37.559  35.123  12.060
11523W        W78306  39.066   1.415   4.464
11524W        W78307  21.506  10.134  11.697
11525W        W78308  37.027  21.081   3.445
11526W        W78309  27.188   5.000   2.916
11527W        W78310  23.394  30.105  12.509
11528W        W78311  42.793  20.859  12.114
11529W        W78312  21.473  26.512  11.952
11530W        W78313  30.350  29.942  11.265
11531W        W78314   2.768  23.425  14.304
11532W        W78315   2.073   7.614   0.596
11533W        W78316  25.493  16.891  14.719
11534W        W78317  24.102  11.570  14.936
11535W        W78318  23.726   3.346  11.510
11536W        W78319  25.928   6.308  10.633
11537W        W78320  24.458  26.421   2.282
11538W        W78321  13.805   9.830   3.361
11539W        W78322  41.528  27.672  11.837
11540W        W78323  40.581  42.369   3.297
11541W        W78324  41.768  11.868   4.552
11542W        W78325  36.625   8.598  11.567
11543W        W78326  12.369  25.565  11.727
11544W        W78327  26.571  21.606   2.882
11545W        W78328  25.544  27.902  10.663
11546W        W78329  44.216  31.217   4.153
11547W        W78330   6.002   5.766  14.748
11548W        W78331  29.596  29.415   0.480
11549W        W78332   2.831  27.130   0.275
11550W        W78333  30.892  22.240  10.734
11551W        W78334  10.065   2.907  11.098
11552W        W78335  29.028  14.100   4.489
11553W        W78336   6.145  34.209   0.317
11554W        W78337   2.195  18.010  11.634
11555W        W78338  20.186  33.475  12.500
11556W        W78339  38.056   4.709  13.054
11557W        W78340  22.336   6.196  13.604
11558W        W78341   3.946  25.790  11.766
11559W        W78342  19.236   2.792  10.681
11560W        W78343  40.743   7.734   1.991
11561W        W78344  24.586  43.690   4.657
11562W        W78345  16.801  14.374   1.326
11563W        W78346  42.803  33.169   0.383
11564W        W78347   1.412  15.239   3.253
11565W        W78348  22.252   7.107  13.486
11566W        W78349  22.780  17.700  13.003
11567W        W78350  32.947  44.959   0.498
11568W        W78351  32.003  41.611   3.693
11569W        W78352  24.322  33.171   4.988
11570W        W78353  27.340  10.066   2.436
11571W        W78354  32.598  16.624   2.309
11572W        W78355   6.986  26.550  11.561
11573W        W78356  19.298   5.219  14.812
11574W        W78357  35.279  30.484  14.289
11575W        W78358  13.350  38.561   0.672
11576W        W78359  16.272  30.717   5.009
11577W        W78360  27.661  44.311   3.383
11578W        W78361   6.212  13.142  12.115
11579W        W78362  15.478  18.627   3.649
11580W        W78363  41.978  28.961  12.013
11581W        W78364  17.115  34.507  10.316
11582W        W78365  35.617  38.031  11.727
11583W        W78366  29.440  37.814  10.997
11584W        W78367  42.554  17.350  12.389
11585W        W78368  10.982   6.195   2.385
11586W        W78369   8.976  26.927  13.561
11587W        W78370   7.824  43.248  11.417
11588W        W78371  38.614   4.292   0.219
11589W        W78372  30.538  39.606  11.607
11590W        W78373  33.690   7.910  14.353
11591W        W78374  23.759  43.916   1.137
11592W        W78375  10.389  41.243   0.756
11593W        W78376  39.631  33.998   1.499
11594W        W78377   2.320  27.971  10.303
11595W        W78378  22.506  10.270  14.629
11596W        W78379  39.929  27.056  13.023
11597W        W78380  13.297  15.749   3.668
11598W        W78381  36.843  18.866   2.437
11599W        W78382  22.195  35.040  12.596
11600W        W78383  11.160   7.887  13.871
11601W        W78384  19.457  39.461   1.760
11602W        W78385  24.563  39.769   4.860
11603W        W78386  44.086  18.766  13.457
11604W        W78387  17.680  22.268  14.524
11605W        W78388  14.839   1.336   4.851
11606W        W78389  28.031  12.663  14.053
11607W        W78390  26.330   0.078   4.524
11608W        W78391  38.334  25.690  12.925
11609W        W78392  32.019   9.214  11.743
11610W        W78393   7.667  28.599   0.206
11611W        W78394  28.886  43.165   2.105
11612W        W78395  35.890  30.941  12.412
11613W        W78396  43.904  32.359   2.796
11614W        W78397  35.063  33.107   2.788
11615W        W78398  18.578   4.301   1.570
11616W        W78399  37.786  29.530  10.772
11617W        W78400  36.801   5.838   0.281
11618W        W78401  44.602  30.772   5.004
11619W        W78402   6.493   5.649   2.668
11620W        W78403  38.256  42.891  12.644
11621W        W78404  12.850  23.537  14.460
11622W        W78405  19.559  35.653  13.916
11623W        W78406  41.389  36.279   3.610
11624W        W78407  21.258   7.494  14.199
11625W        W78408  38.609   2.325  11.836
11626W        W78409  38.930  15.982   3.946
11627W        W78410  17.771  19.851  11.715
11628W        W78411   9.871  34.491   2.207
11629W        W78412   2.232  18.621   2.766
11630W        W78413   0.826  26.894  11.743
11631W        W78414  36.830  13.855   0.845
11632W        W78415  36.083  14.951   3.186
11633W        W78416  40.108  27.620   2.410
11634W        W78417  36.402  16.205   3.875
11635W        W78418  25.475   5.590  12.595
11636W        W78419  42.073  24.564  14.986
11637W        W78420  16.491  36.128   4.239
11638W        W78421   8.835  35.650   2.240
11639W        W78422  20.610  26.545  11.632
11640W        W78423   8.970  26.161  14.551
11641W        W78424  42.500  42.844  11.540
11642W        W78425   9.898  30.915  14.894
11643W        W78426   6.854  10.417  14.918
11644W        W78427   7.143  32.264  10.683
11645W        W78428  13.587  19.970   3.315
11646W        W78429  13.286  13.731  10.737
11647W        W78430  31.080  20.409   2.782
11648W        W78431  42.304   9.213   2.425
11649W        W78432  15.596   9.117   2.231
11650W        W78433  24.811  28.123  13.341
11651W        W78434  37.936  36.240   1.483
11652W        W78435  28.121  23.817   2.241
11653W        W78436   9.963   8.804   9.773
11654W        W78437   3.765  37.594   3.681
11655W        W78438   7.871  41.333  14.473
11656W        W78439  27.851  39.195   1.861
11657W        W78440   2.973   0.435   1.305
11658W        W78441  43.497   0.284   0.500
11659W        W78442   0.336  13.596   2.322
11660W        W78443  28.962  10.244   4.216
11661W        W78444   9.326   2.875   4.634
11662W        W78445  23.908  40.702   0.849
11663W        W78446  34.400  32.037  10.729
11664W        W78447  40.784  18.735   3.788
11665W        W78448  41.316  38.699  12.436
11666W        W78449  18.344  19.671   4.624
11667W        W78450  34.380  44.242   4.615
11668W        W78451  26.820   1.372   4.616
11669W        W78452  36.520  21.971  11.062
11670W        W78453  27.175  13.394  11.596
11671W        W78454  40.467  38.425  13.394
11672W        W78455  34.518  34.935   0.320
11673W        W78456  14.641   3.346   0.967
11674W        W78457  28.777  26.720   4.469
11675W        W78458  35.682  24.119   2.541
11676W        W78459  28.924  35.927  13.513
11677W        W78460  32.103  30.960  13.467
11678W        W78461  17.537  10.742   3.095
11679W        W78462  41.185   0.513   5.131
11680W        W78463  21.155  25.683  12.544
11681W        W78464   1.027  11.933   2.779
11682W        W78465  27.423  15.559  11.125
11683W        W78466   3.186   5.578   1.853
11684W        W78467  40.510  43.224  14.461
11685W        W78468  15.810  10.689  11.422
11686W        W78469  27.435  20.622   0.525
11687W        W78470  25.336  11.099  11.685
11688W        W78471  29.685  15.048  14.394
11689W        W78472  40.609  18.160   0.378
11690W        W78473  23.829   5.398   5.010
11691W        W78474  30.010  33.751   3.916
11692W        W78475  36.440  10.726   1.386
11693W        W78476  13.684  37.984   3.384
11694W        W78477   9.839   2.723   3.858
11695W        W78478  24.539  41.752  12.578
11696W        W78479  10.931  26.745   4.601
11697W        W78480  39.455  11.097   5.030
11698W        W78481  29.020  36.708  14.574
11699W        W78482  43.873  42.849   2.177
11700W        W78483  39.945  20.626   0.726
11701W        W78484  28.673  10.104  12.156
11702W        W78485   1.790  13.977   3.365
11703W        W78486   2.530  20.248  11.200
11704W        W78487  28.608  36.832  12.569
11705W        W78488   8.620  36.615   2.167
11706W        W78489  37.293  23.622   3.199
11707W        W78490  22.901  35.655  13.111
11708W        W78491  19.718  34.536  11.730
11709W        W78492  41.910  39.502  13.529
11710W        W78493  17.152  29.472  11.618
11711W        W78494  38.931   0.525  10.726
11712W        W78495  12.327  11.937   2.833
11713W        W78496  41.794  42.295  11.197
11714W        W78497  35.513  43.803   0.810
11715W        W78498  37.761  37.352   4.899
11716W        W78499  12.618  13.584  10.593
11717W        W78500   2.253   3.839   2.778
11718W        W78501  13.229  24.282  13.368
11719W        W78502  35.066   4.455   2.564
11720W        W78503  10.912  31.952  13.044
11721W        W78504  19.173  14.439   1.479
11722W        W78505  32.342  24.254   4.044
11723W        W78506  23.085  41.311  10.748
11724W        W78507  25.111  14.347  11.512
11725W        W78508  27.545  20.455  12.529
11726W        W78509  33.575  24.447  10.142
11727W        W78510  39.471  31.991   0.942
11728W        W78511  27.537  33.835  11.017
11729W        W78512  16.187  23.947  11.487
11730W        W78513   1.618  34.065  11.898
11731W        W78514   0.896  42.248   2.903
11732W        W78515  39.442   1.469   3.229
11733W        W78516  41.293  19.682  10.563
11734W        W78517  20.321   1.817  14.595
11735W        W78518  41.260  22.186   4.113
11736W        W78519  12.134   0.509   3.945
11737W        W78520  20.989  41.961  13.081
11738W        W78521  24.975  41.995   4.477
11739W        W78522  29.674  25.258   1.229
11740W        W78523  32.879   0.361   4.617
11741W        W78524  16.533   0.975  14.065
11742W        W78525  23.023   6.428  14.986
11743W        W78526   8.431   7.950  11.637
11744W        W78527  40.402  24.261  11.625
11745W        W78528  18.248  15.915   0.174
11746W        W78529  18.383  18.151   3.559
11747W        W78530  39.892  12.745  10.415
11748W        W78531  30.078  23.915  11.202
11749W        W78532  13.724  42.205   1.435
11750W        W78533  37.946  24.875  12.626
11751W        W78534  30.427  19.782  12.582
11752W        W78535  36.289  18.284  10.330
11753W        W78536  30.149   5.680  14.437
11754W        W78537  40.989  28.172   4.779
11755W        W78538  21.697  39.412  14.464
11756W        W78539  28.684  24.098   2.767
11757W        W78540  40.912  21.330  11.622
11758W        W78541  44.024  22.002   4.473
11759W        W78542  10.361  34.481  14.321
11760W        W78543  38.319  41.325  13.896
11761W        W78544  17.125   8.646   2.728
11762W        W78545  31.203  25.129  14.953
11763W        W78546  37.986  28.648   0.471
11764W        W78547  20.115  35.456   1.800
11765W        W78548  20.933   5.249   0.574
11766W        W78549  14.927   2.359   2.689
11767W        W78550  43.890  16.935   0.041
11768W        W78551  17.689  34.152  13.161
11769W        W78552  17.428  28.172  10.658
11770W        W78553   9.958   6.164   0.125
11771W        W78554  17.777  24.545  10.855
11772W        W78555  15.563  40.553   1.367
11773W        W78556  11.892  30.165   0.358
11774W        W78557  15.170  20.993   1.215
11775W        W78558  44.056  35.375   1.419
11776W        W78559  34.571  39.304  12.015
11777W        W78560  20.645  37.463   0.959
11778W        W78561  12.791  10.902   3.217
11779W        W78562  11.641  34.824   3.661
11780W        W78563   3.439  25.594  14.952
11781W        W78564  23.919   2.543   2.273
11782W        W78565   5.640  44.454   2.687
11783W        W78566  16.334  25.036  12.824
11784W        W78567  28.823  25.186  12.951
11785W        W78568  31.418  31.054   1.194
11786W        W78569  43.661  12.547   2.858
11787W        W78570  43.853  32.529  10.410
11788W        W78571  37.837   6.151  14.458
11789W        W78572  14.598  38.533  12.966
11790W        W78573  40.422   9.909  10.522
11791W        W78574   9.599   5.413  14.434
11792W        W78575  34.009  30.838  11.890
11793W        W78576  16.195  32.992   2.260
11794W        W78577  10.574  40.402   3.337
11795W        W78578  22.535  32.233   4.910
11796W        W78579  29.245  34.274   4.040
11797W        W78580  12.566  15.808  14.752
11798W        W78581   3.110  40.382   1.581
11799W        W78582  36.027  44.479  11.362
11800W        W78583  14.625  36.605  10.585
11801W        W78584  30.648  37.007   3.743
11802W        W78585  10.323  16.618   0.916
11803W        W78586   8.727  11.091  12.276
11804W        W78587   2.998  15.079  14.931
11805W        W78588  33.119  26.027  13.398
11806W        W78589   2.344  43.318   1.593
11807W        W78590  34.158  13.311  12.148
11808W        W78591   2.067  15.395   1.694
11809W        W78592   3.510  32.901  14.767
11810W        W78593  14.830  27.538   3.659
11811W        W78594  15.636  38.065   3.816
11812W        W78595  16.553   7.213   4.135
11813W        W78596  35.872   9.550  12.958
11814W        W78597  37.574  15.293   0.238
11815W        W78598  36.370   2.265   3.299
11816W        W78599  17.673  27.719  10.711
11817W        W78600  29.892  36.527   0.773
11818W        W78601  41.836  23.944  11.630
11819W        W78602   3.602  35.172  11.187
11820W        W78603  14.671  31.411  11.087
11821W        W78604   6.174  29.714   2.612
11822W        W78605  15.593  10.065   1.093
11823W        W78606  27.651  18.616  12.510
11824W        W78607  31.448  22.261  14.390
11825W        W78608  17.089  23.988   3.533
11826W        W78609  24.906  42.145  10.384
11827W        W78610  19.586  38.059  12.827
11828W        W78611  18.625   2.628   3.252
11829W        W78612  23.145   7.287   4.069
11830W        W78613  39.906  33.392   1.843
11831W        W78614  42.241  20.638   1.710
11832W        W78615   2.016  36.356  13.452
11833W        W78616  29.850  37.014  14.271
11834W        W78617   7.739  36.588   3.167
11835W        W78618   5.916  21.837   3.733
11836W        W78619  37.531  26.564  14.064
11837W        W78620  23.685  17.632   1.919
11838W        W78621  21.096   8.934  13.390
11839W        W78622   4.314  28.890  11.330
11840W        W78623  20.585   5.939  11.411
11841W        W78624  30.304  44.868   1.478
11842W        W78625  42.531   1.331  14.821
11843W        W78626  36.226  14.772  12.488
11844W        W78627  43.009   3.863   5.181
11845W        W78628  28.037   1.299   4.467
11846W        W78629  42.997  32.497  10.994
11847W        W78630  33.951  37.759   0.409
11848W        W78631   7.791  21.080  13.653
11849W        W78632  18.695  43.333  14.232
11850W        W78633  34.171  43.690  12.600
11851W        W78634  39.857  18.245   0.932
11852W        W78635  32.724  17.281   3.914
11853W        W78636  16.145  43.916   3.017
11854W        W78637  11.598  39.472  10.291
11855W        W78638  30.652   5.810   2.093
11856W        W78639   3.481  31.605   4.741
11857W        W78640  17.777  21.056  13.726
11858W        W78641  34.503  10.073   3.885
11859W        W78642   5.416  10.915  11.134
11860W        W78643  27.833   2.274  11.428
11861W        W78644   2.294  32.382  13.111
11862W        W78645   0.288  31.608  10.706
11863W        W78646  37.164  41.603   3.602
11864W        W78647  38.987  17.478   2.763
11865W        W78648   2.411  25.619  10.768
11866W        W78649  32.902  29.563  11.961
11867W        W78650  32.633  41.993   1.284
11868W        W78651  21.050   5.232   4.134
11869W        W78652  36.766  31.898   3.425
11870W        W78653  16.198   8.302   3.079
11871W        W78654  29.561  31.449   2.196
11872W        W78655  15.791  42.789  14.154
11873W        W78656   5.895  37.322   4.679
11874W        W78657   2.478   7.638  11.465
11875W        W78658  33.310   3.843   4.801
11876W        W78659  29.627  14.630  13.166
11877W        W78660  27.025  19.539  12.916
11878W        W78661  27.218  11.921   1.471
11879W        W78662  13.263  20.227  11.625
11880W        W78663  30.520  16.035  12.014
11881W        W78664  40.430  40.624  11.123
11882W        W78665   8.345  14.138   2.755
11883W        W78666   5.352   1.886  12.548
11884W        W78667  20.802  40.202  11.449
11885W        W78668  21.188  42.767  10.062
11886W        W78669  17.384  43.677  13.010
11887W        W78670  22.422  11.180  10.489
11888W        W78671   0.800  43.817   1.002
11889W        W78672  41.341  44.782   2.785
11890W        W78673   1.882   6.085   4.157
11891W        W78674  13.370  38.068  12.003
11892W        W78675  32.515  23.685  11.270
11893W        W78676  31.869  14.079   1.574
11894W        W78677   9.383  21.668  11.652
11895W        W78678  10.531  17.267   2.164
11896W        W78679  35.163  41.923  14.376
11897W        W78680  19.255  36.786   0.034
11898W        W78681  24.174   8.539   1.768
11899W        W78682   7.174  25.947   4.161
11900W        W78683  42.911  19.752  12.996
11901W        W78684  30.504  12.615  11.513
11902W        W78685  42.011   9.413   0.751
11903W        W78686  25.688   3.544   4.557
11904W        W78687  31.500  15.747   0.333
11905W        W78688   8.282  39.057   0.325
11906W        W78689  27.837  12.859   4.596
11907W        W78690   1.164  26.130   3.426
11908W        W78691   6.410  10.316   5.167
11909W        W78692  23.451   8.776  13.003
11910W        W78693  34.891  38.368   4.261
11911W        W78694  27.006   8.343  10.663
11912W        W78695  37.853  22.654  11.665
11913W        W78696  37.426  26.682   4.580
11914W        W78697   8.632  19.145  13.111
11915W        W78698  28.146  17.478   0.768
11916W        W78699  39.488  44.469  11.141
11917W        W78700  13.489  34.990   0.759
11918W        W78701  28.556  39.397   3.225
11919W        W78702  40.036  23.579   3.716
11920W        W78703   4.175  24.636  13.279
11921W        W78704  32.147   3.158   2.841
11922W        W78705  31.442   1.701   3.349
11923W        W78706  11.549  25.612  13.248
11924W        W78707  32.179  29.200  11.081
11925W        W78708  38.416   8.011   5.575
11926W        W78709   7.835  31.481   1.899
11927W        W78710   1.606  23.200   3.633
11928W        W78711  12.702   8.251   1.981
11929W        W78712  15.757  11.201   1.379
11930W        W78713  34.042  29.021   3.378
11931W        W78714  19.183  29.491   0.735
11932W        W78715   7.954   5.651  14.113
11933W        W78716   2.958   2.796  11.671
11934W        W78717  17.782  36.467   0.965
11935W        W78718   4.793  23.021   1.468
11936W        W78719  41.286  18.222  12.073
11937W        W78720  24.836   5.346  13.935
11938W        W78721  39.708  28.795   2.201
11939W        W78722  44.755   6.223  13.461
11940W        W78723  16.408  34.098  14.720
11941W        W78724  24.468  41.715   4.598
11942W        W78725  31.381  14.630   0.806
11943W        W78726  12.148  14.535  11.867
11944W        W78727  22.094   5.018   4.580
11945W        W78728   6.478   0.584  14.689
11946W        W78729  33.054   6.567   1.935
11947W        W78730  44.887  37.084   2.406
11948W        W78731  14.240  10.206   1.409
11949W        W78732  36.859  33.097   1.514
11950W        W78733  42.481   3.809   1.742
11951W        W78734  43.544   7.327  14.254
11952W        W78735  18.667  23.261   1.473
11953W        W78736   9.223  40.762   3.699
11954W        W78737   2.400   6.258  10.696
11955W        W78738   3.663   4.234  14.780
11956W        W78739  11.376  10.819  14.911
11957W        W78740  41.525  36.537  13.606
11958W        W78741  26.394  35.568   3.556
11959W        W78742  26.189  16.317   1.799
11960W        W78743  22.640  21.603  12.477
11961W        W78744   2.422  32.157   1.685
11962W        W78745   9.196  12.779  12.532
11963W        W78746  37.108  38.028  12.533
11964W        W78747  33.851   3.296   4.337
11965W        W78748  36.868  20.459  14.323
11966W        W78749  35.435   8.089   1.377
11967W        W78750  19.179  13.605  12.642
11968W        W78751   7.237  38.860  13.735
11969W        W78752  38.829  20.865   1.697
11970W        W78753   7.896  34.789  12.009
11971W        W78754  43.870  27.939  14.858
11972W        W78755  31.557  32.019   0.469
11973W        W78756  32.011  39.499   4.667
11974W        W78757  31.235  19.901   2.728
11975W        W78758  22.894  32.550   1.795
11976W        W78759  44.268   0.941   3.160
11977W        W78760   7.922  19.102   1.179
11978W        W78761  20.598  37.794   1.344
11979W        W78762  39.450  36.982  13.898
11980W        W78763  35.602  15.396  11.694
11981W        W78764  19.129  12.377   3.329
11982W        W78765  30.283  13.227  14.898
11983W        W78766   3.933   6.798   4.408
11984W        W78767   2.771  12.150   1.704
11985W        W78768   6.388  42.996   3.800
11986W        W78769   7.896  11.107  11.185
11987W        W78770  10.882  15.183  14.381
11988W        W78771   5.864  12.654  11.517
11989W        W78772  26.419  38.562   3.262
11990W        W78773  39.429  23.625   1.539
11991W        W78774   1.483  16.310   0.566
11992W        W78775  13.166   6.315  14.929
11993W        W78776  38.796  31.458   0.735
11994W        W78777  10.438  39.391  10.180
11995W        W78778  38.716  23.944  11.191
11996W        W78779  11.845  11.100  12.063
11997W        W78780  36.129  24.298   1.274
11998W        W78781  19.477  24.539  14.410
11999W        W78782  20.828  12.951  11.943
12000W        W78783  22.696  19.984  14.787
12001W        W78784  42.056   3.768   2.840
12002W        W78785  12.924  29.938  10.494
12003W        W78786   7.496   5.419   2.709
12004W        W78787   9.658  18.708  11.586
12005W        W78788  23.693   7.701   1.422
12006W        W78789   0.699   5.123   0.865
12007W        W78790  14.641  19.152   1.960
12008W        W78791   5.121  36.701  11.023
12009W        W78792  44.920  26.898   2.236
12010W        W78793   9.308  15.790   1.347
12011W        W78794  31.873  41.015   3.188
12012W        W78795  20.077  28.419  11.212
12013W        W78796   2.327  38.793   3.664
12014W        W78797  22.131  31.083   3.540
12015W        W78798  30.719   5.328   1.916
12016W        W78799   5.906  13.389  14.423
12017W        W78800  38.965   7.433   4.610
12018W        W78801  24.559  18.733  12.689
12019W        W78802  31.532   9.857  14.454
12020W        W78803  30.442   9.438  10.736
12021W        W78804  33.536  39.086  11.210
12022W        W78805  19.145   9.357   3.709
12023W        W78806  42.018   6.281  10.839
12024W        W78807  40.456  41.135   3.286
12025W        W78808  30.686   3.025  11.129
12026W        W78809  16.035   2.020  13.292
12027W        W78810  43.121  10.722  12.141
12028W        W78811   5.752   9.602  14.508
12029W        W78812   4.305   3.158  13.758
12030W        W78813  13.260  39.236  12.597
12031W        W78814   1.154   4.507   3.098
12032W        W78815   8.246  11.830  14.283
12033W        W78816  44.954  33.482  12.540
12034W        W78817   3.151  14.043   3.660
12035W        W78818  18.841  34.334  14.285
12036W        W78819  35.336  13.064  14.423
12037W        W78820   5.051   4.424   4.784
12038W        W78821  35.382  36.643  14.356
12039W        W78822  36.001  12.620   1.814
12040W        W78823  13.117  18.724  13.112
12041W        W78824   0.981  38.977   1.291
12042W        W78825   4.146  17.094  12.801
12043W        W78826  25.123  13.176   3.156
12044W        W78827   3.749  18.454  14.401
12045W        W78828  15.030  26.219   0.458
12046W        W78829   6.400  23.091  11.417
12047W        W78830   9.230   2.266   0.704
12048W        W78831  25.880  29.313   0.315
12049W        W78832  33.911  12.354   0.821
12050W        W78833  37.963  39.869  10.568
12051W        W78834   5.393  16.958   4.517
12052W        W78835  12.757  19.026   1.605
12053W        W78836  39.110  22.569  12.120
12054W        W78837  25.050  42.385   0.827
12055W        W78838  25.632  36.150   3.372
12056W        W78839  33.934  21.187   3.588
12057W        W78840  18.544   6.881   4.595
12058W        W78841  11.166   0.200  13.998
12059W        W78842  15.367  30.367   4.192
12060W        W78843   0.466   1.702  14.830
12061W        W78844  25.110   6.467  11.339
12062W        W78845  10.695  36.029  13.915
12063W        W78846  25.961  10.081   3.306
12064W        W78847  10.132  43.273   0.957
12065W        W78848  26.650  24.310   3.705
12066W        W78849   2.391   6.148  12.570
12067W        W78850  27.572   0.693   0.943
12068W        W78851  43.776  29.460  12.398
12069W        W78852   9.900   1.950   2.629
12070W        W78853  28.062  33.445   3.598
12071W        W78854  30.244   7.201   3.041
12072W        W78855  24.639  31.406   2.588
12073W        W78856  11.000  26.644   2.384
12074W        W78857  39.815   9.116   5.468
12075W        W78858  21.297  14.711  10.333
12076W        W78859  27.496   6.407  11.535
12077W        W78860  20.142   4.649   1.290
12078W        W78861  22.521  16.632  13.018
12079W        W78862  26.104  39.539   9.869
12080W        W78863  33.211   8.346   3.283
12081W        W78864  30.147  27.449   0.370
12082W        W78865  39.288   9.913  13.970
12083W        W78866   9.337  35.597   0.233
12084W        W78867  10.147  37.802   4.464
12085W        W78868  34.829  33.473  14.202
12086W        W78869  40.595  14.921  11.580
12087W        W78870   7.621  23.119  14.345
12088W        W78871  38.529   2.349  12.802
12089W        W78872   9.241  32.582  11.520
12090W        W78873  15.561  27.792  13.252
12091W        W78874  41.079   7.877   0.033
12092W        W78875  34.985  34.405  12.471
12093W        W78876  11.288   3.098   0.894
12094W        W78877  43.930  31.382  13.406
12095W        W78878  12.667  15.505  12.427
12096W        W78879  39.667  15.869  11.152
12097W        W78880  30.109  16.259  12.397
12098W        W78881  35.003  10.185   3.871
12099W        W78882  16.214  41.316   3.787
12100W        W78883   3.184   7.901  12.489
12101W        W78884  23.053  38.790  13.394
12102W        W78885  28.832   6.798  10.736
12103W        W78886  32.399   7.760   2.730
12104W        W78887  20.524  33.118   2.835
12105W        W78888  12.912  25.504  11.637
12106W        W78889  11.206  42.299   2.925
12107W        W78890  10.631   9.622   0.813
12108W        W78891  21.248  24.493  11.966
12109W        W78892  29.065  23.158  10.793
12110W        W78893   0.571   0.244   3.210
12111W        W78894  27.573   5.290   1.531
12112W        W78895  32.610  14.262  12.304
12113W        W78896   1.797  32.460  14.235
12114W        W78897  36.862  19.613   3.647
12115W        W78898  41.694   8.124  12.460
12116W        W78899   2.463  24.606   0.331
12117W        W78900  22.720  13.165   4.001
12118W        W78901   2.964   0.145   1.728
12119W        W78902   9.758  38.003  11.707
12120W        W78903  25.211  43.007   1.582
12121W        W78904   6.983  17.388  12.038
12122W        W78905  28.698  26.348   0.968
12123W        W78906   9.909   6.846   1.255
12124W        W78907   4.820   6.678   1.033
12125W        W78908  20.555  12.329  14.841
12126W        W78909  37.169  33.918  14.292
12127W        W78910   2.940  30.823   0.886
12128W        W78911  24.878   3.991   4.584
12129W        W78912  12.057  22.472  11.825
12130W        W78913  23.770  28.822   2.745
12131W        W78914  21.084  14.017  14.903
12132W        W78915  13.886  41.754   4.660
12133W        W78916  40.993  32.093   1.194
12134W        W78917  28.022   1.900   1.933
12135W        W78918  31.868  29.099   3.390
12136W        W78919   7.223   8.227   4.251
12137W        W78920  10.348  30.377   4.916
12138W        W78921  16.033  38.602   3.077
12139W        W78922  14.876  30.637   3.768
12140W        W78923  35.294  12.329  14.957
12141W        W78924  14.188  18.297  12.835
12142W        W78925  16.706   2.675  12.574
12143W        W78926  33.849   3.481   2.068
12144W        W78927  23.080  29.489   3.562
12145W        W78928  24.297   2.421   0.942
12146W        W78929  23.086  23.537  10.615
12147W        W78930  44.513  17.258  12.480
12148W        W78931  20.641   6.432   2.458
12149W        W78932  13.159  28.259   1.820
12150W        W78933  36.168  30.513  13.997
12151W        W78934  39.867  43.980   3.519
12152W        W78935  12.953  20.300   0.394
12153W        W78936  13.223  42.354   2.092
12154W        W78937   0.921   3.006  14.785
12155W        W78938  28.104  36.049   1.193
12156W        W78939   8.196  27.292   0.298
12157W        W78940  11.488  37.289  11.074
12158W        W78941  37.069  38.766  11.103
12159W        W78942  25.472   1.313   3.416
12160W        W78943  26.209  13.631   4.248
12161W        W78944   7.133  10.160  10.443
12162W        W78945  24.536  13.563  11.214
12163W        W78946   5.418  21.767   0.683
12164W        W78947  11.304   6.292  10.616
12165W        W78948  27.511  19.469   2.707
12166W        W78949   6.635  43.279  14.055
12167W        W78950  39.759  21.174   4.194
12168W        W78951  22.098  38.344   4.816
12169W        W78952  19.185  30.433   1.702
12170W        W78953  16.843   2.160   3.665
12171W        W78954  34.470   9.358   9.960
12172W        W78955  44.302   3.760   0.287
12173W        W78956  44.986  12.362   1.833
12174W        W78957   8.729  10.621  12.537
12175W        W78958   5.781   7.941   3.107
12176W        W78959  21.784   5.636   1.699
12177W        W78960  31.465   8.768  10.615
12178W        W78961  31.922  10.951  13.882
12179W        W78962  28.524  17.999   3.080
12180W        W78963  28.577  38.352   4.727
12181W        W78964  38.944  10.591   0.039
12182W        W78965  38.540  19.767   1.271
12183W        W78966  37.258  42.058   0.267
12184W        W78967  18.222  12.647   3.174
12185W        W78968   6.949  26.206   4.546
12186W        W78969  40.663  30.966   2.791
12187W        W78970  25.002  26.759  14.560
12188W        W78971  14.657  10.208  10.231
12189W        W78972   7.331  26.466   1.688
12190W        W78973  17.764  17.176   2.804
12191W        W78974  23.620  36.043   2.124
12192W        W78975  43.214  16.619  13.889
12193W        W78976  30.546   4.434   1.383
12194W        W78977  41.896  42.500  14.306
12195W        W78978  15.535  18.032  12.495
12196W        W78979  18.122  27.902  14.827
12197W        W78980   8.333  40.317   0.820
12198W        W78981  17.164   6.287  12.071
12199W        W78982  38.502   5.182  13.889
12200W        W78983  32.869  34.794   2.987
12201W        W78984  21.158  23.115   4.837
12202W        W78985  29.128  19.529  11.228
12203W        W78986  11.365  21.568   3.029
12204W        W78987   2.003  16.490  12.892
12205W        W78988  24.386   4.674   0.211
12206W        W78989  20.679  34.477  14.353
12207W        W78990  25.982  14.905  13.923
12208W        W78991   8.430  39.675  11.559
12209W        W78992  21.356  35.481   4.645
12210W        W78993  35.125  10.440  11.015
12211W        W78994  30.918  38.560  11.563
12212W        W78995   8.441  24.951   2.549
12213W        W78996   4.627  23.957  11.985
12214W        W78997   2.254  40.342  11.548
12215W        W78998   6.991  27.213  14.910
12216W        W78999  12.806  11.973  13.148
12217W        W79000   1.917  35.055   0.893
12218W        W79001  31.076   5.148   3.420
12219W        W79002   5.877   1.424  12.734
12220W        W79003  31.077  25.514  14.276
12221W        W79004   5.239  43.082  11.623
12222W        W79005   0.288  15.301   3.875
12223W        W79006  40.544  35.932  14.434
12224W        W79007  39.939  33.035   2.242
12225W        W79008  31.432   6.474  10.204
12226W        W79009  25.601  17.344  14.496
12227W        W79010  43.464  13.246  14.552
12228W        W79011  28.238  34.049  10.417
12229W        W79012  36.106  13.258   4.566
12230W        W79013  25.886  21.019  10.667
12231W        W79014  21.039   8.736  10.861
12232W        W79015  21.438  18.809  13.423
12233W        W79016  20.224  43.715   2.276
12234W        W79017  29.649  40.036  12.169
12235W        W79018  27.522   1.794  13.538
12236W        W79019  41.291  21.089  14.014
12237W        W79020  43.404   5.760   0.992
12238W        W79021  28.739  10.583  11.991
12239W        W79022  10.768  41.443   1.952
12240W        W79023  11.751  26.715   3.711
12241W        W79024  20.342  26.323   3.267
12242W        W79025   7.953  36.910   4.473
12243W        W79026  10.114  41.821   1.597
12244W        W79027   8.469  28.622  11.708
12245W        W79028   2.718  14.249   3.250
12246W        W79029  38.513  27.093  14.404
12247W        W79030   5.363  14.499  14.423
12248W        W79031  20.051  42.987  13.370
12249W        W79032  20.120   6.488  13.020
12250W        W79033  23.198  31.203   0.466
12251W        W79034  24.563  27.766   1.771
12252W        W79035  41.432  32.387  14.008
12253W        W79036  23.506  24.966   1.052
12254W        W79037  43.775  35.134  13.646
12255W        W79038   4.982   9.822  11.232
12256W        W79039  30.975   4.512  13.439
12257W        W79040  13.553  30.282   4.888
12258W        W79041  44.984   6.679   2.790
12259W        W79042  24.250   6.596   4.989
12260W        W79043   2.752  27.905   2.857
12261W        W79044  21.128  32.562   3.256
12262W        W79045   4.774   3.727   2.575
12263W        W79046   5.155  11.385  14.828
12264W        W79047  25.263   9.731  11.936
12265W        W79048   4.594  24.761   3.281
12266W        W79049  27.610   2.462  12.274
12267W        W79050   3.457   8.582  14.451
12268W        W79051  23.605   7.881   2.915
12269W        W79052   0.483   9.299   5.050
12270W        W79053  11.687  35.114  10.569
12271W        W79054  33.997  12.250   4.441
12272W        W79055  14.116  25.280   1.413
12273W        W79056   2.524  39.778   1.725
12274W        W79057  43.973  41.818  14.521
12275W        W79058  39.355  23.633  14.132
12276W        W79059  41.931  26.100   3.373
12277W        W79060   0.387   4.511   2.645
12278W        W79061  36.073  22.951  14.827
12279W        W79062  11.534   3.354  11.704
12280W        W79063  41.044  38.342  11.193
12281W        W79064  21.557   4.431  12.495
12282W        W79065  28.648  28.426  12.805
12283W        W79066   2.347  36.769  12.267
12284W        W79067   3.209  21.561  11.607
12285W        W79068  14.755   6.452  10.696
12286W        W79069  20.134  30.487   0.531
12287W        W79070  44.530   1.487  12.595
12288W        W79071  23.635  18.073   1.546
12289W        W79072   2.380  37.926  10.645
12290W        W79073  31.106  25.971  10.797
12291W        W79074  40.494  15.377  14.965
12292W        W79075  28.271  11.917   3.749
12293W        W79076  25.897  29.713  11.498
12294W        W79077   7.958  30.264   0.372
12295W        W79078  29.029  34.143   3.168
12296W        W79079  16.341  32.746   2.693
12297W        W79080   4.986  16.663  14.520
12298W        W79081   0.086  43.720  11.112
12299W        W79082  39.752  30.668   3.671
12300W        W79083  28.147  11.190   2.508
12301W        W79084  34.063  40.956   4.551
12302W        W79085  32.643  26.047   2.712
12303W        W79086  24.774  35.422   4.481
12304W        W79087  20.524  33.810   4.017
12305W        W79088   6.683  35.502   0.928
12306W        W79089  38.154  43.590  13.917
12307W        W79090  30.652  16.689  13.479
12308W        W79091  34.217  43.782  14.415
12309W        W79092   9.638   8.426  11.681
12310W        W79093  21.618   0.959  11.325
12311W        W79094  36.360  15.868   3.409
12312W        W79095  31.477  34.432  10.722
12313W        W79096  16.211  30.071   3.851
12314W        W79097  34.821  28.434   4.070
12315W        W79098  10.200   7.301  14.858
12316W        W79099  31.552  33.434   2.682
12317W        W79100  26.381  21.021  11.495
12318W        W79101  39.515  28.897   1.296
12319W        W79102  19.781  26.025  12.185
12320W        W79103  36.021  27.987   1.533
12321W        W79104   1.421  10.228  14.718
12322W        W79105  34.087   5.903   0.135
12323W        W79106  33.814   3.783  13.614
12324W        W79107   2.508  26.465   1.803
12325W        W79108   6.610  24.649   4.202
12326W        W79109  43.620   4.800   4.037
12327W        W79110  28.175   1.791  12.866
12328W        W79111  44.448  41.892  14.323
12329W        W79112  40.584  33.335   1.284
12330W        W79113  16.236  38.411   2.122
12331W        W79114  11.289   5.967   1.691
12332W        W79115  13.737  17.206   0.286
12333W        W79116  11.791  35.930  11.002
12334W        W79117  28.489  20.123   3.849
12335W        W79118  25.779  22.206  13.972
12336W        W79119  33.269  29.678   2.222
12337W        W79120  19.193  33.951  14.215
12338W        W79121  29.521  22.996  14.292
12339W        W79122  26.297  21.808  11.058
12340W        W79123  14.548  34.191  10.694
12341W        W79124  24.494   2.575  13.393
12342W        W79125  27.466  22.052  13.124
12343W        W79126  14.728  17.390  13.815
12344W        W79127   0.985   8.246   2.733
12345W        W79128  22.601  20.056   2.215
12346W        W79129  33.650  19.707  14.889
12347W        W79130   2.215  38.561  13.048
12348W        W79131  21.118  35.897  14.618
12349W        W79132   2.667   2.304  13.450
12350W        W79133  39.297  36.935  11.838
12351W        W79134  13.125  23.642   0.281
12352W        W79135   3.681   4.524   4.085
12353W        W79136  14.778  17.862   9.469
12354W        W79137  39.498   5.911   2.328
12355W        W79138  10.894   0.004  12.456
12356W        W79139  11.201   2.744   2.915
12357W        W79140  22.761  21.699  13.287
12358W        W79141   9.776   5.962  13.360
12359W        W79142  23.151   9.914  13.971
12360W        W79143  10.406  39.360  11.067
12361W        W79144  14.858   3.860  10.404
12362W        W79145  43.890  14.834   1.737
12363W        W79146  12.274  10.906   0.384
12364W        W79147  28.395   1.678   3.206
12365W        W79148   1.341  16.331   0.054
12366W        W79149  37.885  30.085  13.587
12367W        W79150  22.667   3.565   1.791
12368W        W79151  41.659  10.637   2.270
12369W        W79152   5.159  18.095   2.422
12370W        W79153  21.943  26.449   2.369
12371W        W79154  31.943  19.792  12.125
12372W        W79155  33.280  36.904  14.498
12373W        W79156  24.063  19.843   4.732
12374W        W79157   5.768   6.976   0.716
12375W        W79158  35.021   3.790   4.292
12376W        W79159  16.767  18.551   3.078
12377W        W79160  38.741  18.918  10.638
12378W        W79161  10.421  16.144  11.942
12379W        W79162  41.026  40.533  10.667
12380W        W79163  25.127   7.845   1.271
12381W        W79164  13.674  32.160  13.970
12382W        W79165  22.586  13.374  12.778
12383W        W79166  20.456  33.686  14.689
12384W        W79167  21.449   2.949   1.883
12385W        W79168  11.233  44.923   4.527
12386W        W79169  43.719  35.906   4.573
12387W        W79170   9.701  30.518  13.984
12388W        W79171  29.161  42.915   2.820
12389W        W79172  22.033  27.036  12.389
12390W        W79173  42.029  13.193  14.905
12391W        W79174  40.100  27.531  10.895
12392W        W79175  11.305  37.377   0.887
12393W        W79176   3.195  23.982   0.536
12394W        W79177  22.952   8.128  13.404
12395W        W79178  38.415  11.395  14.909
12396W        W79179  10.406  17.006   4.542
12397W        W79180   1.745  44.596   0.254
12398W        W79181   5.882  39.621   3.494
12399W        W79182   3.672  34.076  11.149
12400W        W79183  33.810  11.163  12.042
12401W        W79184  40.073  40.583  13.997
12402W        W79185  15.166  27.945  11.960
12403W        W79186  41.343   9.324  11.127
12404W        W79187   8.855  38.289   3.138
12405W        W79188  23.762  32.651   3.688
12406W        W79189  26.764  34.954  12.722
12407W        W79190  12.602  36.134   2.411
12408W        W79191  44.625  40.487  14.068
12409W        W79192  41.104  34.915  11.250
12410W        W79193  12.336  34.839  13.010
12411W        W79194   9.113  35.000  14.317
12412W        W79195  25.161  23.537   0.299
12413W        W79196   0.729  21.828   4.154
12414W        W79197  19.241  39.774   0.156
12415W        W79198  35.008  38.072   3.260
12416W        W79199   1.825   6.099   1.201
12417W        W79200  37.456  22.528   2.729
12418W        W79201   7.336  36.082   4.707
12419W        W79202  40.857  15.935   2.167
12420W        W79203  37.759  35.336  13.305
12421W        W79204  39.766  29.914   1.406
12422W        W79205   6.120  16.588  13.751
12423W        W79206  32.979  22.669  11.012
12424W        W79207  41.127   1.018   3.639
12425W        W79208  22.402  18.731   1.874
12426W        W79209  13.581   4.267  13.298
12427W        W79210  13.731  16.046  13.305
12428W        W79211  12.621  41.271  11.586
12429W        W79212  21.203   7.779   1.446
12430W        W79213  42.297   0.243  14.439
12431W        W79214   3.570  25.974   0.312
12432W        W79215  13.706   8.586   1.229
12433W        W79216   6.485   0.636   1.412
12434W        W79217  34.384  21.007  14.861
12435W        W79218  20.918  14.596  13.413
12436W        W79219  18.497  13.325   2.763
12437W        W79220  34.003  34.059  12.511
12438W        W79221  39.162  14.436   3.296
12439W        W79222  10.358  42.705  14.214
12440W        W79223  23.019   2.195  14.174
12441W        W79224  39.821  36.950   4.115
12442W        W79225  11.900   9.199   0.429
12443W        W79226  37.825   4.451   0.751
12444W        W79227  19.032  33.211  13.038
12445W        W79228   2.151   6.907   3.383
12446W        W79229  37.974  16.336  11.572
12447W        W79230   7.120  34.430  13.407
12448W        W79231  41.943  41.847   4.128
12449W        W79232  38.032  23.217   0.023
12450W        W79233  16.308  44.737  13.005
12451W        W79234  36.017  36.836  12.965
12452W        W79235  20.963  34.599  13.901
12453W        W79236  14.245  33.366  10.794
12454W        W79237  10.118  30.179  13.917
12455W        W79238  16.110  35.043   2.959
12456W        W79239  10.221  20.652   1.112
12457W        W79240  11.414   6.387   4.130
12458W        W79241   3.029  10.873   3.903
12459W        W79242  26.136   0.272  12.082
12460W        W79243  18.723   5.746   1.870
12461W        W79244   1.642  24.087   2.395
12462W        W79245  11.684  36.245  14.344
12463W        W79246   4.955  37.687   3.122
12464W        W79247  11.696  19.307  11.608
12465W        W79248  14.318  38.290   1.271
12466W        W79249   9.715   2.747   1.330
12467W        W79250  19.868  15.659  10.460
12468W        W79251   0.403  37.871  10.737
12469W        W79252  34.067  28.699   2.631
12470W        W79253   9.657  16.142  12.832
12471W        W79254  39.894  19.621   4.383
12472W        W79255  41.959   1.907   0.343
12473W        W79256  41.527   2.711   3.455
12474W        W79257  32.446  29.632  14.249
12475W        W79258  31.026   9.661   3.326
12476W        W79259  30.833  23.260  12.501
12477W        W79260  26.129   2.748  11.506
12478W        W79261   8.461   3.766  14.971
12479W        W79262  17.515  42.408  12.010
12480W        W79263  36.372  32.548  14.832
12481W        W79264  40.309  39.735  10.829
12482W        W79265  40.005  41.504   4.625
12483W        W79266  43.968  23.517  13.852
12484W        W79267  24.088  44.411   1.872
12485W        W79268  10.209   0.021   3.621
12486W        W79269  13.773  22.302  13.517
12487W        W79270  16.073  13.212   4.574
12488W        W79271   2.475   3.690  11.468
12489W        W79272  22.896  21.056   4.729
12490W        W79273   8.761  39.304   0.229
12491W        W79274   1.790   3.910   0.364
12492W        W79275  26.269  17.451  12.800
12493W        W79276   0.934  22.572   0.815
12494W        W79277  25.519  10.219   2.172
12495W        W79278  18.764  35.568  14.796
12496W        W79279  36.445   9.364  11.052
12497W        W79280  11.109  24.416   0.435
12498W        W79281  39.991  11.759  11.663
12499W        W79282   1.261   8.173  13.274
12500W        W79283   7.715  35.120  10.801
12501W        W79284   2.823  16.800   0.208
12502W        W79285  17.099  18.332  10.922
12503W        W79286  38.144   8.450   2.294
12504W        W79287   9.809  36.826   2.348
12505W        W79288  18.650  35.508   4.548
12506W        W79289  23.451  21.548   4.088
12507W        W79290  44.724  37.287  14.752
12508W        W79291  10.748  44.918   0.268
12509W        W79292  14.557  31.899  13.403
12510W        W79293  20.956  25.508  14.355
12511W        W79294   3.873  27.462   1.728
12512W        W79295  35.068  11.929   1.344
12513W        W79296  14.738   4.148   4.353
12514W        W79297  39.970  30.208   0.609
12515W        W79298  33.648  44.599   4.497
12516W        W79299   6.388   7.913  12.903
12517W        W79300  32.852   0.908  13.285
12518W        W79301   5.323  17.944  13.444
12519W        W79302  43.506  30.005  13.687
12520W        W79303  31.923  36.340   4.518
12521W        W79304  21.749   5.438  11.551
12522W        W79305  42.077   4.197   3.140
12523W        W79306  29.955  27.142   3.639
12524W        W79307  40.358  29.460  14.494
12525W        W79308  20.619  20.521  10.660
12526W        W79309  40.432  23.016  10.757
12527W        W79310  15.841   2.368   3.793
12528W        W79311   7.848  15.528  13.555
12529W        W79312   0.408  38.587   4.086
12530W        W79313  27.019  36.831   4.937
12531W        W79314  33.668  44.560   0.436
12532W        W79315  15.745   6.891   0.175
12533W        W79316  29.447  20.953  14.955
12534W        W79317   6.103  16.307   1.748
12535W        W79318   7.353  30.421   0.368
12536W        W79319  28.243  24.637   4.690
12537W        W79320   4.173  40.422  13.818
12538W        W79321  19.227  27.546   2.424
12539W        W79322  41.125  43.869  11.091
12540W        W79323  31.665   6.894  12.065
12541W        W79324  23.496   1.204   2.251
12542W        W79325  36.691  28.520  11.136
12543W        W79326  29.489  14.808   4.021
12544W        W79327  18.715  43.815  14.464
12545W        W79328  26.915  37.614  12.541
12546W        W79329  19.673  11.626  14.443
12547W        W79330  36.594  23.183  11.169
12548W        W79331   7.403  17.593   3.979
12549W        W79332  34.133  20.590   2.458
12550W        W79333  13.922  24.910   4.613
12551W        W79334  10.742  25.864   3.631
12552W        W79335   6.917  35.572  13.038
12553W        W79336  36.897  30.509   0.731
12554W        W79337  42.970  27.116  13.204
12555W        W79338  32.980  15.743  12.997
12556W        W79339  25.241   3.170   4.234
12557W        W79340  34.310  22.202   0.933
12558W        W79341  39.864  23.507  13.993
12559W        W79342  25.983   0.069  13.437
12560W        W79343  38.632  29.644  13.996
12561W        W79344   1.923   9.484  14.946
12562W        W79345  16.123   8.352   1.182
12563W        W79346   3.593  27.755   3.310
12564W        W79347  35.161   6.356   2.240
12565W        W79348  30.245   4.921  10.762
12566W        W79349  41.332  21.710  12.408
12567W        W79350  14.352  34.428   0.471
12568W        W79351  21.657  42.553   3.142
12569W        W79352  15.529  10.703   3.299
12570W        W79353   7.339  25.715  14.980
12571W        W79354   4.333  41.818  13.616
12572W        W79355  13.582  11.076   0.919
12573W        W79356  26.954  23.566  10.535
12574W        W79357  42.078   0.784  12.420
12575W        W79358   2.963  37.082   1.314
12576W        W79359  19.110   6.592  13.626
12577W        W79360  40.832   3.789  10.633
12578W        W79361  44.349  30.077   2.834
12579W        W79362   7.095  36.372  11.563
12580W        W79363  41.938  22.940   3.662
12581W        W79364  33.657   4.397   0.725
12582W        W79365  40.103  17.318   4.102
12583W        W79366  37.332  44.431   3.101
12584W        W79367  35.090  25.845  13.935
12585W        W79368  10.802   7.795  10.766
12586W        W79369   1.787  34.576   3.379
12587W        W79370  28.448  30.880   1.229
12588W        W79371   8.818  38.870   4.103
12589W        W79372  44.832  25.256   3.231
12590W        W79373  38.052  40.743  10.773
12591W        W79374  10.840  41.917   0.387
12592W        W79375   3.361  19.780   0.913
12593W        W79376  20.441   3.225   2.283
12594W        W79377  19.190  43.019  11.235
12595W        W79378   9.171  38.458   3.974
12596W        W79379  22.090  29.689  12.420
12597W        W79380  21.653  26.049  11.093
12598W        W79381   8.294  28.579   0.986
12599W        W79382  13.281  44.029  11.183
12600W        W79383  35.778  19.268  10.321
12601W        W79384  23.288  43.894   1.340
12602W        W79385  31.157  40.348  14.926
12603W        W79386  35.548   4.226   2.655
12604W        W79387  24.963   4.731   4.082
12605W        W79388  16.296  20.767  13.312
12606W        W79389  29.622  31.414  13.450
12607W        W79390  17.192  35.041   2.820
12608W        W79391   4.352  42.300   2.854
12609W        W79392  23.757  26.737   4.816
12610W        W79393  14.599  29.916   0.937
12611W        W79394  14.704  35.349   4.667
12612W        W79395  38.358  24.536  12.390
12613W        W79396  24.788   5.440   1.353
12614W        W79397  29.801   8.974   2.815
12615W        W79398  39.990  25.914   4.178
12616W        W79399  39.571  27.101   3.778
12617W        W79400   5.268  15.111  12.184
12618W        W79401  23.036  22.158  10.684
12619W        W79402  18.248  30.564   4.814
12620W        W79403  26.296   7.807   3.691
12621W        W79404   5.696  10.770  13.582
12622W        W79405  36.721  40.529   2.707
12623W        W79406  25.586  34.915  14.305
12624W        W79407  44.516  30.596   0.480
12625W        W79408   4.931   6.647  12.977
12626W        W79409  11.585   1.411  10.858
12627W        W79410   5.672  34.888   3.756
12628W        W79411  24.507   9.464   0.235
12629W        W79412  37.881  20.244  14.255
12630W        W79413  18.717  34.607  12.090
12631W        W79414  25.630  13.357   1.401
12632W        W79415   3.707  19.049   4.181
12633W        W79416  41.910   8.331   3.109
12634W        W79417  39.868  42.945   1.675
12635W        W79418   5.499  20.750   1.904
12636W        W79419  35.604   6.929   0.502
12637W        W79420  20.855  25.079  14.644
12638W        W79421  40.712  42.890   4.610
12639W        W79422  41.936  14.850  11.100
12640W        W79423  43.888  20.627   3.118
12641W        W79424  28.335   8.369  11.145
12642W        W79425  24.956  40.542  13.377
12643W        W79426   1.658   1.425  10.893
12644W        W79427   8.793   8.409   4.212
12645W        W79428  43.973  10.476   1.526
12646W        W79429  29.216   9.376  12.337
12647W        W79430  37.688  16.154  12.876
12648W        W79431  13.526  20.429   4.110
12649W        W79432  10.724  19.870  13.473
12650W        W79433  30.163  30.832   1.714
12651W        W79434  36.075   1.768  10.819
12652W        W79435  39.349  40.237   3.696
12653W        W79436  44.558  30.553   2.853
12654W        W79437  33.088  33.481   0.717
12655W        W79438  42.238  10.776  12.524
12656W        W79439  27.408  33.937   2.656
12657W        W79440  21.595   7.744   0.967
12658W        W79441   6.423  40.084   5.102
12659W        W79442   8.167  42.456   2.867
12660W        W79443   5.908  16.183  13.450
12661W        W79444  37.361   1.533   1.786
12662W        W79445   4.282  30.543   3.801
12663W        W79446  20.704  23.507  12.051
12664W        W79447  36.113  13.713  13.373
12665W        W79448   9.443  39.308  12.603
12666W        W79449  23.563   7.830   4.599
12667W        W79450  33.916  32.676   1.791
12668W        W79451  39.721  42.986   3.774
12669W        W79452   7.732  43.753  11.217
12670W        W79453   6.921  25.459   0.253
12671W        W79454  30.094  27.060  14.846
12672W        W79455  11.393  26.514   4.545
12673W        W79456  39.989   0.660   0.390
12674W        W79457  21.347  30.055   2.873
12675W        W79458  12.465  44.787  13.987
12676W        W79459  25.488   9.157  11.166
12677W        W79460  18.094  10.818  10.726
12678W        W79461  39.304  44.374  12.975
12679W        W79462   3.899  28.796   1.353
12680W        W79463  32.860  27.530   2.747
12681W        W79464  26.281  10.191   2.827
12682W        W79465   2.618   8.460  14.745
12683W        W79466  12.940  29.555   2.284
12684W        W79467  35.150  20.107  11.134
12685W        W79468  17.502  12.337   9.787
12686W        W79469  36.396  11.950  14.368
12687W        W79470   0.080  43.999   3.190
12688W        W79471   1.896  43.411   1.305
12689W        W79472  17.310  11.786  13.490
12690W        W79473  25.502  17.768   3.881
12691W        W79474  15.058  11.166   0.846
12692W        W79475  25.975  18.890   5.018
12693W        W79476  17.896  40.370  13.906
12694W        W79477  44.811  31.600  10.925
12695W        W79478  19.117  11.817  10.537
12696W        W79479   3.397   9.262   2.253
12697W        W79480  17.521  10.981   3.962
12698W        W79481   7.340  13.093   0.659
12699W        W79482  24.588  29.644  14.901
12700W        W79483  41.956   8.965   1.669
12701W        W79484  33.581  44.393  11.859
12702W        W79485  12.829  43.368  11.212
12703W        W79486  37.450  13.580  14.906
12704W        W79487  41.896  12.094   5.444
12705W        W79488  13.291  31.363  10.731
12706W        W79489  36.642   0.837   0.935
12707W        W79490   9.859  42.441  12.059
12708W        W79491  21.062  21.104   1.920
12709W        W79492   7.268   1.681  14.980
12710W        W79493   9.863   5.351  12.449
12711W        W79494  34.995   2.668   1.999
12712W        W79495  24.729  26.724  13.524
12713W        W79496  13.180  26.058   3.681
12714W        W79497  15.401   2.824   0.918
12715W        W79498  24.937   7.136  12.948
12716W        W79499  37.403  23.922   3.609
12717W        W79500   4.199  39.517  10.422
12718W        W79501  44.987  30.952  12.709
12719W        W79502  20.415  28.750  11.425
12720W        W79503  26.573  43.902  12.956
12721W        W79504   5.387   6.223  10.855
12722W        W79505   1.401  34.819  11.090
12723W        W79506  32.499   6.462  11.140
12724W        W79507   1.172  23.564  13.942
12725W        W79508  41.593  15.632   0.564
12726W        W79509  41.039  44.518   0.392
12727W        W79510  21.068  23.250   5.327
12728W        W79511  18.677  28.226  13.615
12729W        W79512   2.772  11.110  12.913
12730W        W79513  35.548   0.898   4.338
12731W        W79514  41.334  25.195   2.675
12732W        W79515   7.958  28.554  14.269
12733W        W79516  16.985   4.251   4.220
12734W        W79517  40.900   8.885   3.860
12735W        W79518   7.112   0.068   3.725
12736W        W79519   3.519  36.018   4.045
12737W        W79520   0.166   6.360  10.579
12738W        W79521  15.783  24.278  13.155
12739W        W79522  43.284  25.146   2.918
12740W        W79523  32.834  30.040   0.929
12741W        W79524  29.684   5.744   4.102
12742W        W79525  24.090  15.072   2.383
12743W        W79526  20.039  30.956   0.321
12744W        W79527   4.395  24.495  11.989
12745W        W79528  30.398  43.904   3.166
12746W        W79529  10.884  30.319   2.312
12747W        W79530   2.903  36.422  12.875
12748W        W79531  32.913  15.745  12.419
12749W        W79532   3.842  35.016   0.272
12750W        W79533   6.347  24.020   2.388
12751W        W79534  11.557  30.372  10.822
12752W        W79535  28.546  35.297   3.648
12753W        W79536  28.758   0.743  14.028
12754W        W79537  29.014  42.305  10.684
12755W        W79538  29.016  34.926   2.803
12756W        W79539  10.665  11.487   3.296
12757W        W79540  22.609  41.859  11.453
12758W        W79541  11.262   5.721   0.716
12759W        W79542  21.279  26.091   3.836
12760W        W79543   7.263  14.977  12.404
12761W        W79544  26.977  28.548   0.956
12762W        W79545  35.529  41.209  14.861
12763W        W79546  25.751  13.828  12.870
12764W        W79547   6.229  29.202   0.537
12765W        W79548   2.833  29.436   0.978
12766W        W79549  20.574  27.489   4.437
12767W        W79550  24.873  23.445  14.327
12768W        W79551  36.397  41.204   2.380
12769W        W79552  22.272  18.090   0.520
12770W        W79553  20.809  38.317  13.814
12771W        W79554  44.781  30.693   4.178
12772W        W79555   1.079  11.242   2.222
12773W        W79556  43.221  43.811   2.146
12774W        W79557  27.203  22.919  13.921
12775W        W79558  31.640  12.325   4.804
12776W        W79559   4.756  21.627   2.944
12777W        W79560  35.116   0.438  12.100
12778W        W79561  13.233  22.222  14.909
12779W        W79562  22.705  29.015   1.416
12780W        W79563  23.199  25.543   1.952
12781W        W79564  12.068  39.373  14.514
12782W        W79565  28.124  32.113   1.931
12783W        W79566  20.122  29.963   0.722
12784W        W79567  18.647  14.328  13.048
12785W        W79568  12.548  39.813   1.333
12786W        W79569  44.387  23.256  11.598
12787W        W79570   9.279  16.157  12.424
12788W        W79571  18.751  15.763   0.284
12789W        W79572  19.963  11.912   1.866
12790W        W79573   2.608  29.439   3.735
12791W        W79574  38.788  39.072   2.322
12792W        W79575  36.865  25.417  12.086
12793W        W79576   6.765  19.680  11.474
12794W        W79577  42.652  11.696   4.110
12795W        W79578  18.484   6.434   3.718
12796W        W79579  27.228  22.097   0.919
12797W        W79580  39.592  35.112   2.872
12798W        W79581  34.978   5.190   1.947
12799W        W79582   2.208  10.143  11.199
12800W        W79583   0.982  43.697  13.483
12801W        W79584  24.640  10.689   3.976
12802W        W79585   0.271   4.275   1.270
12803W        W79586   7.686  44.466   3.994
12804W        W79587  40.992  16.644  12.814
12805W        W79588   1.843  15.758   2.726
12806W        W79589  37.078  12.090  11.233
12807W        W79590  11.338   3.690   2.726
12808W        W79591   8.268  21.080  13.402
12809W        W79592  37.259  10.878   0.454
12810W        W79593  15.675  43.455  14.408
12811W        W79594  10.604  32.828  12.562
12812W        W79595  32.864  39.028   1.724
12813W        W79596  39.747  32.906   3.149
12814W        W79597  27.439  26.944  10.497
12815W        W79598   4.213  19.191   4.126
12816W        W79599  27.829  43.451   2.794
12817W        W79600   5.311  42.572   2.973
12818W        W79601  14.365   2.932  11.420
12819W        W79602  33.406  14.727  14.730
12820W        W79603  20.937   5.946   3.222
12821W        W79604   4.010   6.358   4.743
12822W        W79605  33.343   2.935  10.715
12823W        W79606  11.384  14.584   2.824
12824W        W79607  11.735  13.981   4.992
12825W        W79608  11.523   3.826  11.944
12826W        W79609  42.860  22.215   1.006
12827W        W79610  37.857  39.987   0.733
12828W        W79611  43.752  38.791   2.129
12829W        W79612  13.177   6.928   3.241
12830W        W79613  43.343  33.703  14.449
12831W        W79614  29.825  42.475   0.213
12832W        W79615  38.113  25.572  10.641
12833W        W79616   2.978  41.856   0.793
12834W        W79617   4.739  11.757  13.022
12835W        W79618  37.570  17.178  11.738
12836W        W79619  37.029  27.696   3.575
12837W        W79620  10.840   6.848   1.380
12838W        W79621  22.066  19.143  14.715
12839W        W79622  28.173  35.465  14.966
12840W        W79623  44.508  36.936   4.197
12841W        W79624  36.922  23.119  11.577
12842W        W79625  22.317  30.134   0.476
12843W        W79626  24.151   6.353  14.227
12844W        W79627  16.536  32.062  12.625
12845W        W79628   7.445  27.202  12.004
12846W        W79629  25.608  44.933   0.044
12847W        W79630  27.478  31.310  13.258
12848W        W79631  16.931  27.704  11.240
12849W        W79632  20.002  16.041   9.913
12850W        W79633  16.335  33.700   3.776
12851W        W79634  44.882  41.996   0.576
12852W        W79635   4.848   2.067  10.220
12853W        W79636  19.605  14.787  13.814
12854W        W79637  32.483  39.301  14.912
12855W        W79638  39.398  41.132  13.975
12856W        W79639  41.556  26.102   4.698
12857W        W79640   5.437  39.567  12.925
12858W        W79641   2.951  33.484  14.970
12859W        W79642   3.441  18.161  14.114
12860W        W79643   0.663  44.796  13.952
12861W        W79644  20.369   6.852   3.763
12862W        W79645   0.691  22.775  12.179
12863W        W79646  34.746   5.429  11.492
12864W        W79647  40.441  12.649   4.164
12865W        W79648   7.483   7.825  13.615
12866W        W79649  15.711  36.143   3.553
12867W        W79650  23.727  43.928  14.311
12868W        W79651  15.376  38.231  13.363
12869W        W79652  27.414  40.294  13.902
12870W        W79653   2.492   8.570  11.168
12871W        W79654  13.656  33.198   3.668
12872W        W79655  29.539   0.065  11.817
12873W        W79656  14.244  35.912   1.737
12874W        W79657  31.480  17.394  12.549
12875W        W79658  24.809  17.728  13.477
12876W        W79659  39.734  37.376   2.095
12877W        W79660  20.964  37.157  11.989
12878W        W79661  21.883  27.500   1.436
12879W        W79662  19.844  36.041  14.122
12880W        W79663  35.058  37.601  13.546
12881W        W79664  20.072  18.558  14.849
12882W        W79665  41.292  24.481  10.726
12883W        W79666  27.218  20.792   2.822
12884W        W79667  30.941  10.077   4.189
12885W        W79668  35.307  39.775  12.078
12886W        W79669  28.957  44.830   3.214
12887W        W79670   1.683   9.521  13.554
12888W        W79671  23.698  12.694  12.600
12889W        W79672   1.986  11.842  10.711
12890W        W79673  44.155  32.374  12.640
12891W        W79674  38.264  26.470   3.003
12892W        W79675   7.887  34.997   3.024
12893W        W79676  29.154  43.928  14.262
12894W        W79677  27.524  20.311   0.983
12895W        W79678  10.460  42.331   1.897
12896W        W79679  18.667  22.949  11.545
12897W        W79680  18.197  44.821  12.808
12898W        W79681   5.298  36.116  11.139
12899W        W79682  30.236  20.263   5.001
12900W        W79683  33.281  23.112  11.564
12901W        W79684  16.538  36.791  11.531
12902W        W79685  26.963  23.082   1.237
12903W        W79686  37.390  19.197   4.554
12904W        W79687  12.268  13.745   3.903
12905W        W79688  16.178  27.087   3.445
12906W        W79689  31.429  30.670   2.716
12907W        W79690  40.561  26.602   3.247
12908W        W79691   8.201  22.816  11.229
12909W        W79692  15.634   6.646   3.786
12910W        W79693   5.119  31.078  10.641
12911W        W79694  28.654  31.627  14.990
12912W        W79695  42.954  31.839   1.809
12913W        W79696  37.559  12.535  13.907
12914W        W79697  25.741  34.558   1.697
12915W        W79698  37.562  20.554   1.986
12916W        W79699  19.712  29.281   3.615
12917W        W79700  12.987  20.975  10.761
12918W        W79701  17.343  44.039  12.664
12919W        W79702  38.082  33.455   1.776
12920W        W79703  40.136  22.308  12.809
12921W        W79704  29.799  20.998  11.042
12922W        W79705  33.381  38.499   1.037
12923W        W79706  30.648  14.323  12.514
12924W        W79707   2.701  38.509  11.936
12925W        W79708  38.536  28.041  14.898
12926W        W79709  37.824  29.133  12.856
12927W        W79710  13.137  21.747   3.708
12928W        W79711  37.650  38.508   4.270
12929W        W79712  28.648   7.297  13.637
12930W        W79713   7.145  38.340   5.062
12931W        W79714   6.365  26.270   4.493
12932W        W79715   2.769  42.249  14.984
12933W        W79716  24.710  22.749  11.246
12934W        W79717  11.299  29.065   4.317
12935W        W79718  18.223  38.492  12.073
12936W        W79719  34.026  10.347  11.237
12937W        W79720  20.797  22.797  11.501
12938W        W79721  35.502  33.297  12.899
12939W        W79722  27.853   2.629   1.363
12940W        W79723  17.901   3.351   4.079
12941W        W79724  20.040  11.827   9.998
12942W        W79725  37.355  31.831   3.664
12943W        W79726  19.992   1.720   3.669
12944W        W79727  29.602  43.080  11.645
12945W        W79728  22.634  32.919   0.184
12946W        W79729  12.761  28.593   1.921
12947W        W79730   1.462  26.987   2.227
12948W        W79731  15.702   1.227   0.932
12949W        W79732   9.017  24.818  13.958
12950W        W79733   9.455  28.349  12.842
12951W        W79734   3.822  24.983  10.714
12952W        W79735  18.809  37.402   1.901
12953W        W79736  13.247  44.796  13.336
12954W        W79737  25.171   6.796  12.315
12955W        W79738  38.999  42.352  11.581
12956W        W79739  33.320  13.278   1.303
12957W        W79740  20.319  38.353  14.016
12958W        W79741  21.904  12.172  14.920
12959W        W79742  23.981   1.644  10.580
12960W        W79743  38.511  17.138  13.430
12961W        W79744  44.731  23.641   0.947
12962W        W79745  15.244  10.429   1.292
12963W        W79746  23.553   7.269   3.705
12964W        W79747  44.534  33.601  11.194
12965W        W79748  35.328   2.473   4.140
12966W        W79749  24.196  23.565   3.601
12967W        W79750  12.096   9.211  13.016
12968W        W79751  38.855  36.359   2.832
12969W        W79752  26.147  29.483   3.795
12970W        W79753  18.618  15.378   3.223
12971W        W79754  15.319  33.516   0.891
12972W        W79755   1.393  36.540   2.272
12973W        W79756  32.059  26.349  10.724
12974W        W79757  37.951  30.730  11.970
12975W        W79758  27.436  40.817   2.244
12976W        W79759  10.417  40.631   4.126
12977W        W79760  30.906  12.343   2.327
12978W        W79761  35.074  28.455   2.674
12979W        W79762  21.269  12.074   4.081
12980W        W79763   0.933   3.835  14.467
12981W        W79764  12.640  44.588   1.819
12982W        W79765  10.776  40.208  14.928
12983W        W79766  29.680   8.437   3.119
12984W        W79767   5.142   0.508   2.340
12985W        W79768  39.400  12.809  11.120
12986W        W79769  44.306  22.503   2.308
12987W        W79770  20.260  43.871   1.330
12988W        W79771  39.921  18.202  13.291
12989W        W79772  10.682   7.431  12.387
12990W        W79773   6.648  23.442   3.668
12991W        W79774  14.144   9.788  13.491
12992W        W79775  24.221  28.519   3.766
12993W        W79776   6.672  36.021   4.332
12994W        W79777  40.260  27.459  11.406
12995W        W79778  12.337  31.871  13.035
12996W        W79779   2.493   9.822  12.483
12997W        W79780  40.237  29.941  11.959
12998W        W79781   9.841  25.431  13.433
12999W        W79782  13.990  35.705   4.227
13000W        W79783  33.871  30.605  12.347
13001W        W79784  33.214  19.496   0.830
13002W        W79785  32.673   1.599   1.852
13003W        W79786  22.168  10.114  12.812
13004W        W79787  32.859  23.120  10.324
13005W        W79788  14.653   1.982  11.560
13006W        W79789  12.448  12.815  13.459
13007W        W79790  22.975  28.769   0.831
13008W        W79791  44.665   9.091  12.673
13009W        W79792  23.072  13.280  14.064
13010W        W79793  15.602  20.830  13.963
13011W        W79794  14.726  25.090   1.014
13012W        W79795   8.013   5.683  12.222
13013W        W79796  22.011  36.333  10.592
13014W        W79797  41.332  15.711   3.414
13015W        W79798  34.664  18.634   0.284
13016W        W79799  34.045  33.030   1.416
13017W        W79800  27.868  34.933   4.127
13018W        W79801  33.639  17.460  12.403
13019W        W79802  25.850   6.445  11.962
13020W        W79803  32.768   2.919   1.933
13021W        W79804  32.844  35.774  14.574
13022W        W79805  34.148   1.732   1.829
13023W        W79806  17.059  18.155   3.251
13024W        W79807   2.233  44.888   4.221
13025W        W79808  28.362  43.939  12.406
13026W        W79809  23.103  38.269   1.415
13027W        W79810  34.276  30.040  14.406
13028W        W79811  31.543  40.852  12.626
13029W        W79812   8.817  11.429  11.448
13030W        W79813  40.739  30.103   1.699
13031W        W79814  12.427  20.068   4.916
13032W        W79815  24.593  39.395   2.810
13033W        W79816  21.597  42.573  14.422
13034W        W79817  38.808   8.141   1.369
13035W        W79818   9.085   4.305  13.410
13036W        W79819  29.109  28.782   2.714
13037W        W79820   5.102  43.026   4.163
13038W        W79821   5.356  33.662   0.714
13039W        W79822   7.290  13.355   1.205
13040W        W79823  19.139  29.554  11.209
13041W        W79824  16.316  27.640  13.786
13042W        W79825  18.911  12.473   5.111
13043W        W79826  17.218   3.634   3.655
13044W        W79827   5.380  22.341   4.189
13045W        W79828  11.847  19.566  12.466
13046W        W79829  37.896  14.897   4.143
13047W        W79830  18.095  21.327  11.063
13048W        W79831  21.014  44.448   2.275
13049W        W79832  40.826  42.323   1.092
13050W        W79833  27.705  11.117  12.057
13051W        W79834  22.770  18.330   3.741
13052W        W79835   7.981  30.108  11.061
13053W        W79836  36.556  41.367  11.636
13054W        W79837  17.357   2.268  14.500
13055W        W79838   0.229  36.837   3.741
13056W        W79839  25.968  21.914  11.495
13057W        W79840  15.821   9.269   2.688
13058W        W79841  17.868  21.120  11.474
13059W        W79842  32.509  12.349   0.466
13060W        W79843  22.565  33.006   3.162
13061W        W79844   5.797  36.133  11.327
13062W        W79845  24.658  28.279  12.077
13063W        W79846  24.552  32.183  12.514
13064W        W79847   0.443  36.226   3.057
13065W        W79848  19.077  14.923   0.256
13066W        W79849  32.400  17.091   4.265
13067W        W79850  37.839  34.463  11.892
13068W        W79851  12.568  20.739  12.641
13069W        W79852  35.534  41.880   0.966
13070W        W79853  11.598   0.696   4.925
13071W        W79854   2.979  30.323   2.755
13072W        W79855  41.120  28.970  14.876
13073W        W79856  13.654   3.868   0.825
13074W        W79857  24.002  41.479  12.485
13075W        W79858  33.254  38.070   4.145
13076W        W79859  38.139  22.892  12.047
13077W        W79860   7.338  10.981   3.690
13078W        W79861   4.978  16.297   3.925
13079W        W79862  15.134  30.126  11.019
13080W        W79863  10.256   0.560   2.733
13081W        W79864  42.802  11.832  10.729
13082W        W79865  30.042  16.875   2.461
13083W        W79866  42.695  41.324   0.303
13084W        W79867  23.534  25.880   1.167
13085W        W79868  11.637  42.520   3.270
13086W        W79869  35.037  20.835   0.771
13087W        W79870  18.607   3.173   3.163
13088W        W79871  42.972  39.748   1.233
13089W        W79872  35.393   9.125  11.048
13090W        W79873  35.299  19.702  11.722
13091W        W79874  16.671  41.831  11.996
13092W        W79875  14.339  14.808   1.889
13093W        W79876  29.410  22.664   1.775
13094W        W79877   3.309  40.789  12.010
13095W        W79878  30.689  38.322   1.296
13096W        W79879  15.720  23.164  10.617
13097W        W79880  17.574  12.640  14.057
13098W        W79881   0.583   8.926   0.434
13099W        W79882   7.179  19.726   1.457
13100W        W79883  19.708  26.554  12.017
13101W        W79884  43.886  40.211  13.308
13102W        W79885   7.026   6.954  12.525
13103W        W79886  40.115  35.655  12.894
13104W        W79887  29.438   3.040  11.240
13105W        W79888   2.137  42.854  14.856
13106W        W79889   5.762  43.466   2.671
13107W        W79890  35.140  24.167   2.410
13108W        W79891  25.942  42.461  13.885
13109W        W79892  17.401   0.737   0.909
13110W        W79893  23.614   1.366  14.289
13111W        W79894   5.011  41.656  13.127
13112W        W79895   8.445  17.690   0.824
13113W        W79896  11.153  19.063   1.829
13114W        W79897  38.029  23.129   3.134
13115W        W79898  24.472  12.573   0.733
13116W        W79899  37.421  36.660   0.961
13117W        W79900  42.574  33.725  13.122
13118W        W79901   0.856  24.142   0.609
13119W        W79902  19.466  43.362  10.948
13120W        W79903   7.169  41.594   0.476
13121W        W79904   3.951  18.217  10.890
13122W        W79905  10.670  43.488   3.297
13123W        W79906  41.058  39.017  11.586
13124W        W79907   5.675  21.942   0.251
13125W        W79908   3.402  38.573  11.000
13126W        W79909  28.019  32.685   4.800
13127W        W79910  12.713  22.391   0.032
13128W        W79911  38.513  14.287   0.735
13129W        W79912  14.801  37.473  12.021
13130W        W79913  18.711  42.438   3.994
13131W        W79914  36.059  18.669  12.920
13132W        W79915  24.710   7.860  11.729
13133W        W79916   1.978  15.847  11.556
13134W        W79917  26.439  28.115  11.516
13135W        W79918   9.122  24.197   4.627
13136W        W79919   2.030  30.984  14.834
13137W        W79920  41.860  27.248  11.182
13138W        W79921  31.064   8.601  10.287
13139W        W79922   4.130  28.481   2.753
13140W        W79923  34.553  25.127  12.368
13141W        W79924  32.171  32.060   1.905
13142W        W79925  30.322  36.866   4.136
13143W        W79926  39.435  30.550   4.954
13144W        W79927   1.179  27.374   4.065
13145W        W79928  40.834  25.711   4.671
13146W        W79929   1.308  25.441   3.093
13147W        W79930  34.743  44.189   5.014
13148W        W79931  17.178   0.964   3.194
13149W        W79932   8.683  34.592  13.412
13150W        W79933   6.492   4.279  12.867
13151W        W79934  34.465   9.404  10.966
13152W        W79935  33.543  35.623   0.821
13153W        W79936  18.254  40.734  12.522
13154W        W79937   8.635   4.338  14.707
13155W        W79938  39.033  44.780   0.017
13156W        W79939  26.044  13.245   3.580
13157W        W79940  15.526  14.240   3.896
13158W        W79941  34.766   2.276   2.294
13159W        W79942  34.502  17.848  12.909
13160W        W79943   9.646  26.454  13.608
13161W        W79944   1.044  34.641   1.964
13162W        W79945  35.247  31.536  12.169
13163W        W79946  30.422  38.802   3.174
13164W        W79947   3.899  15.598  13.604
13165W        W79948  20.800  14.315  10.753
13166W        W79949  38.487  39.693  12.069
13167W        W79950  10.693  23.092   4.497
13168W        W79951  23.054  35.676  14.592
13169W        W79952  31.509  16.763  13.800
13170W        W79953  37.340  39.792  14.285
13171W        W79954  35.020  24.989  10.694
13172W        W79955  22.525  38.093  14.995
13173W        W79956  22.014  34.523  13.785
13174W        W79957  20.037  28.162  11.676
13175W        W79958  23.212  23.167  11.529
13176W        W79959  37.028  25.479  10.778
13177W        W79960  20.175  21.080  10.701
13178W        W79961  11.432  43.907  14.421
13179W        W79962  26.429  33.023   3.169
13180W        W79963   6.768  18.701  12.467
13181W        W79964  12.528  25.285  14.939
13182W        W79965  18.259  40.292  13.029
13183W        W79966  27.000  16.774  13.824
13184W        W79967  30.440  31.536  12.558
13185W        W79968   9.820  42.047   2.321
13186W        W79969   7.796   1.275   0.276
13187W        W79970  32.594   2.873   2.954
13188W        W79971  39.978  13.337  13.288
13189W        W79972  40.596  18.694   0.258
13190W        W79973  31.988  38.378  14.982
13191W        W79974  28.498   6.098   4.063
13192W        W79975  31.023   6.433   3.679
13193W        W79976   7.862  32.913  10.672
13194W        W79977   2.800  41.521   0.436
13195W        W79978  27.709  26.088  10.664
13196W        W79979  20.590   0.341   1.714
13197W        W79980  15.825  22.658   2.234
13198W        W79981  38.886  37.174   3.600
13199W        W79982  18.332   7.714   0.409
13200W        W79983  39.302  17.849   4.957
13201W        W79984  43.830  14.473   2.279
13202W        W79985  11.633  38.932   1.587
13203W        W79986  34.028  19.500   1.542
13204W        W79987  41.810  32.616  14.931
13205W        W79988  38.221  32.721  14.196
13206W        W79989   7.971  26.645   0.917
13207W        W79990   3.382   8.307  13.412
13208W        W79991  11.560   5.170   3.034
13209W        W79992  42.258  18.162   3.352
13210W        W79993  14.871  39.462   4.795
13211W        W79994   2.327  44.036   0.672
13212W        W79995  20.716   8.274   0.619
13213W        W79996  17.332  37.234  13.996
13214W        W79997  27.690  10.368  11.174
13215W        W79998  42.750  24.967  11.497
13216W        W79999  19.282  27.903   1.258
13217W        W80000   3.509  42.957   1.455
13218W        W80001  12.215  13.755   1.770
13219W        W80002  25.269   6.361   0.237
13220W        W80003  23.630  29.401   4.577
13221W        W80004  33.026   7.102   1.896
13222W        W80005  21.718  38.583  11.546
13223W        W80006  29.461  19.118   4.328
13224W        W80007  43.537  44.171  14.307
13225W        W80008  16.821  18.797  12.047
13226W        W80009  35.623  42.461   3.676
13227W        W80010   5.720  40.847  10.711
13228W        W80011   6.301   7.784   1.178
13229W        W80012   8.871   5.363  12.587
13230W        W80013  18.623  27.579   4.752
13231W        W80014  44.256  16.976   0.952
13232W        W80015  10.602   4.409  13.467
13233W        W80016   2.283  39.879  12.524
13234W        W80017  20.005  29.012  12.951
13235W        W80018  39.550  27.659   4.462
13236W        W80019  24.267   1.583   0.513
13237W        W80020  27.769  35.440   4.048
13238W        W80021  31.419  36.071  14.081
13239W        W80022  13.857   1.574   2.698
13240W        W80023  16.285   0.206  14.965
13241W        W80024   9.682   2.677   4.989
13242W        W80025  34.996  20.265   3.082
13243W        W80026   3.829   6.157   1.442
13244W        W80027  23.050  16.276   0.573
13245W        W80028   8.173  34.456  13.364
13246W        W80029  27.203  37.883  12.969
13247W        W80030  29.517  12.346   2.810
13248W        W80031  42.535  15.248  13.909
13249W        W80032  16.703  40.339   1.632
13250W        W80033  24.919  39.270  14.055
13251W        W80034  42.252   3.240   0.796
13252W        W80035  38.760  12.897  11.117
13253W        W80036   6.136  15.283   4.169
13254W        W80037  13.263  43.544   1.381
13255W        W80038  41.503  32.861  13.050
13256W        W80039   8.765   5.392   2.310
13257W        W80040   3.308  41.300  12.024
13258W        W80041  26.609   5.664   4.203
13259W        W80042  19.662  10.476   2.337
13260W        W80043   5.926   6.691  12.509
13261W        W80044  36.905  24.747   1.868
13262W        W80045  37.553  28.602  14.526
13263W        W80046  16.185  22.227   4.294
13264W        W80047  16.604  39.482   4.718
13265W        W80048  21.410  11.183   4.456
13266W        W80049  29.951  26.784  11.858
13267W        W80050   2.598  34.396   2.671
13268W        W80051   4.798  29.942   3.101
13269W        W80052   7.466  14.514  12.419
13270W        W80053  40.575  19.411  11.937
13271W        W80054  41.114  27.932  11.642
13272W        W80055  28.670  37.970   3.419
13273W        W80056   2.946   1.388   4.571
13274W        W80057  37.720  20.983  14.966
13275W        W80058  35.590  30.241  14.851
13276W        W80059  37.643  28.149   3.267
13277W        W80060  44.978   1.515  14.988
13278W        W80061   1.376  17.052  12.090
13279W        W80062  11.429   1.313  10.368
13280W        W80063  21.126  29.336  12.361
13281W        W80064  18.130  20.769   3.630
13282W        W80065  33.739  13.800  14.969
13283W        W80066  22.133  13.091   1.639
13284W        W80067  41.346  31.136  11.181
13285W        W80068  14.565  11.801  10.692
13286W        W80069   5.807   0.051  14.847
13287W        W80070  35.997  17.707  11.303
13288W        W80071  15.989  18.228  11.113
13289W        W80072   0.718  12.197   2.311
13290W        W80073  10.363  36.021   3.295
13291W        W80074  15.146  35.949   0.150
13292W        W80075  11.330  36.542   5.443
13293W        W80076  26.040   9.720  14.804
13294W        W80077  25.258  11.475  12.982
13295W        W80078  13.451   9.920  10.633
13296W        W80079   4.269   2.987  13.273
13297W        W80080  38.696   5.458  14.342
13298W        W80081   8.956   5.628  13.798
13299W        W80082   8.705   1.888   1.292
13300W        W80083  18.348  24.487   0.921
13301W        W80084  17.598  20.712  12.443
13302W        W80085  37.426  36.546   2.858
13303W        W80086  38.565  21.723   2.979
13304W        W80087  34.479  22.296  14.209
13305W        W80088   5.534   4.462   1.968
13306W        W80089   6.225   5.673   4.018
13307W        W80090  31.728  35.023  12.379
13308W        W80091  14.588  36.112   3.397
13309W        W80092   4.118  13.702   4.363
13310W        W80093  30.085  41.060  10.974
13311W        W80094  12.334  15.686   3.779
13312W        W80095  31.133  20.204   1.365
13313W        W80096   5.183  11.615  14.229
13314W        W80097  43.764  22.656  13.416
13315W        W80098  15.851  16.272   0.665
13316W        W80099  35.068  15.101   2.644
13317W        W80100  27.107   4.970  13.820
13318W        W80101  36.206  17.702   2.412
13319W        W80102  31.000  18.381  10.296
13320W        W80103  42.141  27.147  12.477
13321W        W80104  29.041  30.625   0.456
13322W        W80105  15.231   0.211  14.745
13323W        W80106  28.651  28.247  10.416
13324W        W80107   0.098  12.731  12.872
13325W        W80108  18.180  33.170   2.636
13326W        W80109  30.194  23.447   4.266
13327W        W80110  38.021  20.620   3.652
13328W        W80111  18.037  21.769  12.009
13329W        W80112  39.787  34.626  14.886
13330W        W80113  35.118   0.394   2.866
13331W        W80114  14.395  28.501   2.382
13332W        W80115  18.672  30.141   3.302
13333W        W80116  10.846  38.456  14.428
13334W        W80117   8.196  11.150   1.120
13335W        W80118   1.857  25.628  14.884
13336W        W80119  19.039  22.268   0.297
13337W        W80120  43.993  38.679  10.926
13338W        W80121  32.511  11.202   0.971
13339W        W80122  39.346  19.195   3.696
13340W        W80123  10.708  30.017  14.004
13341W        W80124  24.279  37.903   4.599
13342W        W80125  12.941  21.478   0.277
13343W        W80126   2.968  38.407   0.714
13344W        W80127   5.936  11.843   4.069
13345W        W80128  24.635  21.359  11.075
13346W        W80129  38.169  40.448  11.746
13347W        W80130  34.825  18.642  11.027
13348W        W80131   7.258  32.162  12.304
13349W        W80132  33.008   3.960   3.558
13350W        W80133  19.240  23.179  14.509
13351W        W80134  40.318   8.180   0.410
13352W        W80135  30.114   9.694   3.186
13353W        W80136  22.054  37.389   3.117
13354W        W80137  42.319  19.628  13.705
13355W        W80138  21.967  16.286   4.099
13356W        W80139   8.199  13.468  14.134
13357W        W80140   6.553  32.926  10.931
13358W        W80141  44.279  39.387  11.593
13359W        W80142  20.731  27.407  10.646
13360W        W80143   2.656   5.620   4.727
13361W        W80144  15.043  23.769   2.913
13362W        W80145  18.531   2.175  13.568
13363W        W80146   7.645  13.069   3.278
13364W        W80147  22.456   4.478   2.144
13365W        W80148   2.211  17.753   3.165
13366W        W80149  28.140  12.730  12.038
13367W        W80150  16.707   4.725   0.353
13368W        W80151  32.956  39.576  10.608
13369W        W80152   3.583  28.736   4.123
13370W        W80153  18.057  40.654   2.395
13371W        W80154  19.644  24.428  12.970
13372W        W80155  36.740  13.408  14.462
13373W        W80156  10.767  27.640  14.794
13374W        W80157   5.312  18.080   1.926
13375W        W80158  14.977  42.749   3.434
13376W        W80159  25.794   9.191   3.304
13377W        W80160  15.729  12.180   3.168
13378W        W80161  14.521  44.013   4.036
13379W        W80162   3.566  20.185   2.204
13380W        W80163  33.562   2.807  12.806
13381W        W80164   8.246  10.864   4.630
13382W        W80165   3.627   0.917   2.777
13383W        W80166   8.736   5.553   0.502
13384W        W80167  37.379  25.410  11.990
13385W        W80168  25.380   7.845  11.207
13386W        W80169  19.572  20.018  11.109
13387W        W80170  31.837  15.001  11.572
13388W        W80171  24.788   3.466   2.813
13389W        W80172   5.946  24.650  11.110
13390W        W80173  44.763  33.441  12.073
13391W        W80174   4.224  11.936   4.920
13392W        W80175  27.775  32.953  11.136
13393W        W80176   6.958  39.155  13.388
13394W        W80177  19.171  16.884   1.871
13395W        W80178  37.234  11.776   4.721
13396W        W80179   9.348  25.450   4.252
13397W        W80180   3.761   9.328   3.555
13398W        W80181  33.052  24.637  11.094
13399W        W80182  34.061  40.298  14.721
13400W        W80183  38.169   1.096  13.576
13401W        W80184   0.567   6.396   3.263
13402W        W80185  31.448   2.742  12.988
13403W        W80186  16.146  20.644  14.547
13404W        W80187   8.700   3.830   1.702
13405W        W80188  16.242   1.473  10.577
13406W        W80189  35.233  31.730   2.748
13407W        W80190  44.631  10.877  13.415
13408W        W80191   4.233  21.982  12.903
13409W        W80192  10.248  33.746   0.015
13410W        W80193   8.160  37.450  11.214
13411W        W80194   7.348  26.535  13.058
13412W        W80195  14.079  36.259   3.579
13413W        W80196  40.451  39.570   1.393
13414W        W80197  30.913  35.975  13.828
13415W        W80198  24.969  32.476  12.445
13416W        W80199  24.439  29.422  11.030
13417W        W80200  25.234  30.950   0.917
13418W        W80201  39.782  35.199   3.780
13419W        W80202  40.373  42.899   1.473
13420W        W80203  27.197  42.389  12.890
13421W        W80204   3.441   5.688   2.300
13422W        W80205   7.357   8.168   4.761
13423W        W80206  11.850  12.966  10.489
13424W        W80207   5.998   7.464   2.286
13425W        W80208  30.616  41.771   3.373
13426W        W80209  25.753   0.938   3.667
13427W        W80210  39.866  20.486   3.593
13428W        W80211  17.945  18.939  13.382
13429W        W80212  21.691  20.023  12.572
13430W        W80213  23.578  11.745  10.703
13431W        W80214   9.945  42.503   3.668
13432W        W80215  22.185  40.440   4.112
13433W        W80216  15.604   0.847  12.062
13434W        W80217  15.529  39.467   1.226
13435W        W80218   9.851  37.560  13.458
13436W        W80219  17.462  28.605  13.476
13437W        W80220   6.708  17.166  14.817
13438W        W80221   4.694  34.972  13.795
13439W        W80222   1.726  26.745  12.560
13440W        W80223  38.882   4.210  10.251
13441W        W80224  35.436  44.416  12.086
13442W        W80225   5.149  38.458   2.014
13443W        W80226   7.848  40.115   1.736
13444W        W80227   9.633  11.638  11.006
13445W        W80228  19.243  38.799  12.958
13446W        W80229   7.627  31.509  13.890
13447W        W80230  27.882  38.445   2.489
13448W        W80231  37.450   1.317  11.619
13449W        W80232  35.800  21.016  14.736
13450W        W80233  14.276  41.257   1.805
13451W        W80234  30.620  19.412  13.776
13452W        W80235  16.007  37.883  12.026
13453W        W80236   4.632  39.226   0.430
13454W        W80237   1.124  41.938   1.322
13455W        W80238  42.433  43.616  13.045
13456W        W80239   6.848  37.856  14.527
13457W        W80240  23.653  10.376  10.124
13458W        W80241  21.069  43.032  10.602
13459W        W80242  38.418  30.446  12.952
13460W        W80243  13.650  42.973  14.026
13461W        W80244   5.162  26.471   2.691
13462W        W80245   7.611  41.078  11.142
13463W        W80246  19.248  20.579   2.075
13464W        W80247  28.499  12.718  11.667
13465W        W80248  15.140   2.291  14.708
13466W        W80249  21.050   9.429  11.188
13467W        W80250  18.035   0.744  11.443
13468W        W80251   5.755  25.079  11.390
13469W        W80252  16.828  35.084   5.135
13470W        W80253  25.007  19.994   4.769
13471W        W80254  24.514  27.151   0.312
13472W        W80255  35.993  29.871   0.477
13473W        W80256  33.819  37.124  12.433
13474W        W80257  37.484   7.042  13.771
13475W        W80258   9.734  44.753  11.539
13476W        W80259  33.839  28.131   3.344
13477W        W80260  40.748   6.360  10.646
13478W        W80261  11.828  44.262  14.488
13479W        W80262  36.425  26.453   2.662
13480W        W80263  21.519  24.052  12.101
13481W        W80264  27.770  13.179  10.703
13482W        W80265  38.478   1.372  12.644
13483W        W80266  34.101  25.517   4.738
13484W        W80267   4.435  26.018   4.320
13485W        W80268  40.486  11.813   1.877
13486W        W80269   6.342  23.549   1.001
13487W        W80270  38.406  20.168  14.743
13488W        W80271  35.186   5.007   3.154
13489W        W80272  34.548   8.936  10.281
13490W        W80273  37.113   8.904  12.461
13491W        W80274   2.603  16.796   0.682
13492W        W80275  28.040   0.816  10.587
13493W        W80276  32.509  10.363  10.560
13494W        W80277  33.526  43.347   0.850
13495W        W80278   8.288   5.455   3.277
13496W        W80279  16.110  16.828   1.680
13497W        W80280  16.955  16.045   3.226
13498W        W80281  21.434  25.535   0.176
13499W        W80282  30.045  38.429   4.134
13500W        W80283  20.717  23.884  11.209
13501W        W80284  34.452  32.584  13.941
13502W        W80285  36.941  35.428   1.762
13503W        W80286  13.293   1.440   1.504
13504W        W80287  42.918  10.894  12.932
13505W        W80288   7.612  27.042   0.961
13506W        W80289  40.967  25.639   0.860
13507W        W80290   3.453  28.197  13.487
13508W        W80291  40.916  20.729   1.180
13509W        W80292  27.431  37.090  11.651
13510W        W80293  16.476  30.098   1.234
13511W        W80294  32.100  17.341  13.729
13512W        W80295  22.190  36.685   1.781
13513W        W80296   0.679  12.996   9.792
13514W        W80297   0.363  15.446  10.715
13515W        W80298  31.538  32.072   4.906
13516W        W80299  15.579  43.583   3.419
13517W        W80300   1.339  23.143  13.705
13518W        W80301  10.427   0.649  11.130
13519W        W80302  10.694  13.314  12.041
13520W        W80303  13.562  12.578   2.077
13521W        W80304  38.044  43.803   1.056
13522W        W80305  14.693  42.500   3.770
13523W        W80306  13.696   7.269   4.697
13524W        W80307  42.801   3.757   4.222
13525W        W80308  18.255  13.780  11.589
13526W        W80309  14.595  29.213   3.390
13527W        W80310  29.356   9.701   3.624
13528W        W80311   6.404   6.425  10.758
13529W        W80312   1.618   2.762  12.618
13530W        W80313   2.079  40.808   0.587
13531W        W80314  19.102  23.607   4.620
13532W        W80315   9.222  31.055  14.485
13533W        W80316   4.649  33.886  14.734
13534W        W80317  21.316   4.944   3.792
13535W        W80318   0.423  21.245   0.863
13536W        W80319  35.308  33.470  12.462
13537W        W80320  12.723  41.037  12.029
13538W        W80321  36.454   6.920   0.449
13539W        W80322  18.061  22.176   2.109
13540W        W80323   6.683  17.502   1.459
13541W        W80324   4.136  12.084  13.463
13542W        W80325   2.731  21.133   0.587
13543W        W80326  35.518  22.359  13.608
13544W        W80327  31.214  35.818  14.962
13545W        W80328  25.163  23.719  13.096
13546W        W80329  35.578  25.518   2.694
13547W        W80330  12.348  44.265   4.072
13548W        W80331  39.609   2.383   0.042
13549W        W80332  41.765  12.366   4.630
13550W        W80333  30.548  28.416   2.756
13551W        W80334  30.490   4.178   0.925
13552W        W80335  27.775  35.714   1.400
13553W        W80336  20.310  17.048   3.193
13554W        W80337  10.173   1.115  11.118
13555W        W80338  37.901  12.243   4.773
13556W        W80339  11.123  25.142   3.298
13557W        W80340  35.462  40.593  12.377
13558W        W80341   4.448  23.516   2.115
13559W        W80342  40.345  16.645  12.428
13560W        W80343   5.866  22.657  14.905
13561W        W80344  40.220  11.278   4.069
13562W        W80345  44.030  32.459   1.278
13563W        W80346   2.030  28.278   2.423
13564W        W80347   8.573  27.951  11.103
13565W        W80348  24.065  32.619   2.437
13566W        W80349  40.445  29.873  12.839
13567W        W80350  12.341  23.100   1.528
13568W        W80351  27.613  21.191  12.204
13569W        W80352  15.011  34.000   5.532
13570W        W80353   3.841   5.122   0.061
13571W        W80354  29.621  28.904   2.766
13572W        W80355  33.996   3.369  11.745
13573W        W80356  29.751  20.108  10.665
13574W        W80357  24.624  39.815  10.895
13575W        W80358  40.844  11.430  11.160
13576W        W80359  26.991  17.923   1.548
13577W        W80360   0.287  25.053  13.805
13578W        W80361  21.490   5.013  14.056
13579W        W80362  19.295  12.135   5.254
13580W        W80363   1.148  17.770   1.382
13581W        W80364  30.407   7.911  13.909
13582W        W80365  14.181   3.403   0.624
13583W        W80366  43.173  41.363  12.987
13584W        W80367  40.011  44.463  14.331
13585W        W80368   2.804  22.088   1.432
13586W        W80369  28.943  17.548   3.409
13587W        W80370  13.611  18.554  12.300
13588W        W80371  31.998   8.915   4.321
13589W        W80372  29.897   4.807   1.836
13590W        W80373  29.443  42.846   1.907
13591W        W80374  22.476  10.346  10.681
13592W        W80375  37.955  32.427   4.830
13593W        W80376  10.062  11.329   1.811
13594W        W80377  14.753   8.190  14.052
13595W        W80378  19.299  24.628   2.846
13596W        W80379   9.882  11.524  11.440
13597W        W80380   4.144  29.718   0.635
13598W        W80381  30.780  26.658   3.618
13599W        W80382  10.627  37.842   4.661
13600W        W80383  39.037  14.290   1.201
13601W        W80384  36.009  14.785   0.276
13602W        W80385  21.194  28.506  13.438
13603W        W80386   2.947   6.214  12.168
13604W        W80387  41.360  42.192   3.710
13605W        W80388  17.268  10.847   0.475
13606W        W80389  19.678  12.065  12.529
13607W        W80390   8.351  29.026  14.287
13608W        W80391  25.717   3.781   0.469
13609W        W80392  13.302  22.799  14.390
13610W        W80393  35.156  33.588  14.582
13611W        W80394  26.877  10.312   2.504
13612W        W80395   3.717  30.421  13.430
13613W        W80396   9.971  20.944  12.165
13614W        W80397   9.225  43.011  12.549
13615W        W80398   8.865  18.663   2.802
13616W        W80399  13.869  44.364  14.003
13617W        W80400  36.987  21.796  14.703
13618W        W80401   7.248   3.815   3.247
13619W        W80402  15.735  40.914   4.525
13620W        W80403  19.670  32.192   2.504
13621W        W80404  31.003  14.229   4.132
13622W        W80405   0.747  20.951  11.609
13623W        W80406  22.010  23.363   0.883
13624W        W80407  28.099  42.221   0.659
13625W        W80408  31.089  17.522   0.032
13626W        W80409  28.053  30.184   2.199
13627W        W80410  18.829   6.892  13.266
13628W        W80411  26.654   8.899   3.679
13629W        W80412  27.999   5.550   1.406
13630W        W80413  26.210  23.062   0.810
13631W        W80414  37.500   3.461   3.206
13632W        W80415  10.848  21.589   1.744
13633W        W80416  29.989  26.463  11.446
13634W        W80417   3.330  18.236   3.287
13635W        W80418   9.205   6.966  13.039
13636W        W80419  20.633  35.602   4.159
13637W        W80420  22.338  33.509   2.641
13638W        W80421  28.858   4.095   4.127
13639W        W80422   8.298  36.421   0.808
13640W        W80423  41.687  21.078  10.305
13641W        W80424  15.620  23.398  14.915
13642W        W80425  41.851  44.508  14.035
13643W        W80426  42.802  16.165  12.133
13644W        W80427  28.042  23.171   0.459
13645W        W80428  24.437   6.919   3.690
13646W        W80429  21.781  37.978   2.888
13647W        W80430  32.645  23.605  10.445
13648W        W80431   7.811  12.289   4.583
13649W        W80432  26.236   9.806   3.650
13650W        W80433  23.387  12.329  11.532
13651W        W80434   5.434  44.493  14.349
13652W        W80435  21.098  27.204   3.790
13653W        W80436  18.408  25.813   3.666
13654W        W80437  36.802  42.888   2.365
13655W        W80438   0.207  33.153  14.023
13656W        W80439  30.534   1.959  12.861
13657W        W80440   1.136  27.688  11.078
13658W        W80441   4.843  35.624   1.231
13659W        W80442   0.004  41.420  13.320
13660W        W80443   4.224  34.095   4.246
13661W        W80444  11.133   1.831   1.911
13662W        W80445  27.318  41.813   0.930
13663W        W80446  24.384  31.932   3.293
13664W        W80447  27.384  24.002   3.253
13665W        W80448  27.274  44.931   1.669
13666W        W80449  24.789   4.264   3.855
13667W        W80450   2.971  25.184   2.713
13668W        W80451  34.865  35.076   3.143
13669W        W80452   7.083  12.184  12.415
13670W        W80453  36.756  19.297  12.634
13671W        W80454  13.116  11.399   0.879
13672W        W80455  20.232  27.515   3.559
13673W        W80456  14.151   5.854  11.832
13674W        W80457  33.474  12.478   3.690
13675W        W80458  42.570   7.081   3.239
13676W        W80459  41.390  26.744   1.741
13677W        W80460  44.841  10.301   3.925
13678W        W80461  33.200  17.443   2.332
13679W        W80462   8.817  18.202   3.078
13680W        W80463  12.293  33.608   4.211
13681W        W80464  19.232  16.797   0.300
13682W        W80465  36.795  38.481  12.537
13683W        W80466  44.528   7.842   1.066
13684W        W80467  20.152  19.946   5.031
13685W        W80468  31.100  15.620   4.613
13686W        W80469  30.920   5.640   0.308
13687W        W80470  25.692  31.527   0.401
13688W        W80471  26.449  21.728  11.553
13689W        W80472  10.478  39.021  12.023
13690W        W80473  41.184   2.930  12.941
13691W        W80474  12.402  17.463   1.910
13692W        W80475   3.166   3.951  13.896
13693W        W80476  34.846  21.223  14.074
13694W        W80477  36.497  19.685   3.994
13695W        W80478   2.467  25.088   1.443
13696W        W80479  42.758  22.752   2.282
13697W        W80480  15.331  43.696  14.915
13698W        W80481  24.038   8.651   2.729
13699W        W80482  30.846  15.887  10.993
13700W        W80483  20.580   9.166  13.536
13701W        W80484  15.661  25.740  11.097
13702W        W80485  28.629  23.128  14.756
13703W        W80486  10.259  12.987  11.878
13704W        W80487   7.218  41.212  12.262
13705W        W80488  38.035  32.404   2.775
13706W        W80489  23.882   5.919  14.412
13707W        W80490  38.837  22.215  11.662
13708W        W80491  28.013   7.902  14.715
13709W        W80492  31.121   7.088   4.136
13710W        W80493  12.420  42.759  10.955
13711W        W80494  12.678  21.278  11.048
13712W        W80495  27.498   9.378   3.781
13713W        W80496  20.135  23.949  13.513
13714W        W80497  37.436  17.787   1.944
13715W        W80498   5.356  43.168  14.905
13716W        W80499  43.549  17.156  10.612
13717W        W80500   2.362  44.754   3.322
13718W        W80501  19.978  37.469  10.884
13719W        W80502   6.061  28.155   0.473
13720W        W80503  42.860  22.010   0.384
13721W        W80504  38.788  39.951   2.853
13722W        W80505  29.373  27.688   1.197
13723W        W80506  17.279  25.604   2.865
13724W        W80507  25.696  42.795  14.174
13725W        W80508  12.817   5.204   2.074
13726W        W80509  41.302   0.866   4.171
13727W        W80510  26.928  39.902   3.654
13728W        W80511  25.175   4.755   1.821
13729W        W80512  15.155  38.949  11.152
13730W        W80513  19.065  13.709  11.137
13731W        W80514   9.800  19.294  13.853
13732W        W80515  24.937   8.356  12.582
13733W        W80516  20.041  26.555  13.341
13734W        W80517  20.755   1.994   1.409
13735W        W80518  21.088  42.640  14.543
13736W        W80519   0.357  27.414   0.732
13737W        W80520  13.672  14.317   2.219
13738W        W80521  42.725   1.231  14.362
13739W        W80522   2.329  41.767   3.125
13740W        W80523   4.808  31.108  14.924
13741W        W80524  25.031  24.215  12.737
13742W        W80525  14.878  19.967  12.071
13743W        W80526   0.795  14.354  13.549
13744W        W80527   5.806  31.500  13.739
13745W        W80528  26.128  16.054   0.508
13746W        W80529  15.438  26.940  13.468
13747W        W80530  10.867  18.651  12.585
13748W        W80531  13.878  35.037   1.163
13749W        W80532   8.824  35.092  13.460
13750W        W80533  15.774  12.734  14.539
13751W        W80534  19.203  14.220  13.846
13752W        W80535   1.513  37.868  14.485
13753W        W80536  13.821  16.483   2.529
13754W        W80537   8.265  40.261   3.629
13755W        W80538  31.474   5.918   1.832
13756W        W80539   7.267  21.259   4.004
13757W        W80540  12.076  16.186   1.281
13758W        W80541  27.350  12.715  13.464
13759W        W80542  29.980   7.397   1.334
13760W        W80543  12.857   7.774  12.870
13761W        W80544  12.599  10.064  12.895
13762W        W80545  43.003  28.410  13.526
13763W        W80546   0.361  30.693   2.218
13764W        W80547  40.402  23.258   0.898
13765W        W80548  10.841   8.852   2.690
13766W        W80549   1.417  40.921  11.973
13767W        W80550  38.324   8.294  13.020
13768W        W80551  35.613  31.398  13.545
13769W        W80552  40.908  22.508  12.206
13770W        W80553  37.626  13.693  10.751
13771W        W80554  43.380   6.197   1.826
13772W        W80555  43.765  10.811   3.347
13773W        W80556  31.403  37.402  11.566
13774W        W80557  17.996  20.658  14.002
13775W        W80558  23.381   5.399  13.042
13776W        W80559   8.229   8.923  12.388
13777W        W80560  20.907  18.111   0.529
13778W        W80561  33.963  41.463  10.697
13779W        W80562  16.048   8.889   2.401
13780W        W80563  44.994  25.160  12.607
13781W        W80564  41.251   0.661   0.242
13782W        W80565  38.362  36.336   1.749
13783W        W80566  42.433  38.015  13.955
13784W        W80567   5.317   6.565   4.075
13785W        W80568   6.983   0.265   2.103
13786W        W80569  37.672  40.304  11.513
13787W        W80570  42.398  24.982   4.622
13788W        W80571  39.499   1.063   1.156
13789W        W80572  15.156   4.650   3.228
13790W        W80573  30.247  28.058  13.451
13791W        W80574  42.235   7.140  12.316
13792W        W80575  25.041  16.913  11.686
13793W        W80576  11.201  40.990   4.228
13794W        W80577   4.957  31.358   2.290
13795W        W80578  17.582  33.813   1.792
13796W        W80579  42.611  41.534   2.709
13797W        W80580  30.282  24.339  12.939
13798W        W80581  35.542  16.706   0.397
13799W        W80582  41.095  14.596  12.323
13800W        W80583   0.384  35.265   2.169
13801W        W80584  42.367  41.458  14.302
13802W        W80585  11.098  33.359   1.251
13803W        W80586   2.892   8.680   1.421
13804W        W80587  28.501  35.559  11.295
13805W        W80588  23.962  17.847   5.038
13806W        W80589  20.281  33.137   3.289
13807W        W80590  39.862  43.946  10.724
13808W        W80591  44.905  27.729   1.863
13809W        W80592   0.087   3.186   2.218
13810W        W80593  24.759  42.278  13.490
13811W        W80594  34.589  15.330  13.747
13812W        W80595  36.067  18.161  12.615
13813W        W80596  19.192  18.742  13.590
13814W        W80597  24.129  29.525  11.846
13815W        W80598  38.095  19.756  14.346
13816W        W80599  17.937  27.780  11.150
13817W        W80600  11.882  40.798  12.768
13818W        W80601  11.882  25.781  11.644
13819W        W80602  27.125  39.611  13.417
13820W        W80603   9.178   8.450  14.169
13821W        W80604  11.813  26.411  12.886
13822W        W80605  18.137  43.273  10.699
13823W        W80606  43.782   9.261  13.104
13824W        W80607  18.175  23.440  10.703
13825W        W80608  33.578  33.195  11.489
13826W        W80609  15.898   5.228  11.528
13827W        W80610  10.054  17.723  12.979
13828W        W80611   1.322  22.262  11.101
13829W        W80612  41.301  39.533  12.812
13830W        W80613  20.009  41.001   2.774
13831W        W80614  44.345  44.309  12.166
13832W        W80615  35.095  20.788  12.890
13833W        W80616  34.880  21.920  12.400
13834W        W80617  39.095  41.236   1.846
13835W        W80618  15.626  30.618  14.925
13836W        W80619  32.921  14.169  13.078
13837W        W80620  43.823  28.947  12.378
13838W        W80621  28.185  26.981  12.580
13839W        W80622  11.565  43.418  14.322
13840W        W80623  35.367   5.011  14.862
13841W        W80624  16.686  24.984   3.853
13842W        W80625  40.075  20.221  14.364
13843W        W80626  34.863  16.980   2.835
13844W        W80627  38.802  22.026  10.248
13845W        W80628  30.870  17.262   1.283
13846W        W80629   9.712  39.907  13.193
13847W        W80630  13.798  42.834  12.485
13848W        W80631  15.468   6.171  12.638
13849W        W80632  36.592  32.801  12.572
13850W        W80633  42.031  31.841  14.521
13851W        W80634  33.179  19.898  14.996
13852W        W80635  19.132  44.040  11.197
13853W        W80636   4.907  44.840  12.038
13854W        W80637  35.078  32.360  11.556
13855W        W80638  30.650  42.312  10.899
13856W        W80639  24.231   6.388   2.383
13857W        W80640  11.859   2.103   4.518
13858W        W80641   9.548  39.050  13.840
13859W        W80642  44.950   4.662   1.090
13860W        W80643  12.509  34.400  12.071
13861W        W80644  33.220  17.759  10.879
13862W        W80645  13.709  19.515  12.440
13863W        W80646  22.932  21.143   0.931
13864W        W80647  44.931  18.804  13.415
13865W        W80648  20.255  31.419  14.408
13866W        W80649   4.878   5.466  11.215
13867W        W80650   1.276   7.334  13.517
13868W        W80651  11.747  23.670   4.213
13869W        W80652  42.616  22.068   3.067
13870W        W80653   6.651  41.830  14.072
13871W        W80654  22.042  30.154   4.199
13872W        W80655  17.798   4.145  11.972
13873W        W80656  13.593   5.113   4.079
13874W        W80657  32.865  34.638  13.723
13875W        W80658  13.386   7.623   3.704
13876W        W80659  43.721   7.228  12.137
13877W        W80660   2.722   3.257  11.599
13878W        W80661  40.455   4.638   2.406
13879W        W80662  42.512  32.418  10.302
13880W        W80663   8.938  38.695  12.960
13881W        W80664  42.891  28.364  11.607
13882W        W80665  14.831  26.240   3.270
13883W        W80666   1.692  16.275  12.536
13884W        W80667   5.988   6.834   1.444
13885W        W80668  33.007   2.361  11.383
13886W        W80669  29.558  23.196   3.725
13887W        W80670  38.879   3.527   1.338
13888W        W80671  23.262  31.718   0.397
13889W        W80672  11.174  26.470   5.017
13890W        W80673  41.250   3.511   3.771
13891W        W80674   7.622   1.936  12.591
13892W        W80675  36.131  23.618  12.408
13893W        W80676  35.307  20.314   5.446
13894W        W80677   8.932  29.459  12.606
13895W        W80678  34.276   6.286  12.458
13896W        W80679  35.050  37.634  14.482
13897W        W80680  21.058  33.891  12.567
13898W        W80681   9.256   3.501   2.303
13899W        W80682  16.147   6.972  11.522
13900W        W80683  26.443   9.180  11.421
13901W        W80684  37.561  30.963  11.655
13902W        W80685  42.285  35.434  14.558
13903W        W80686  26.173  27.488   1.778
13904W        W80687  32.662  10.058  12.456
13905W        W80688  35.611   8.688  13.519
13906W        W80689  44.115  43.805   4.072
13907W        W80690  22.891  34.680   0.750
13908W        W80691   0.094  22.961   2.860
13909W        W80692  19.517   4.181   5.081
13910W        W80693   3.783  14.628  13.392
13911W        W80694  22.708  10.829  12.954
13912W        W80695   1.563  30.788  14.803
13913W        W80696  21.548  15.186   4.294
13914W        W80697  33.952  12.290  12.619
13915W        W80698  10.395  26.278   5.098
13916W        W80699   7.928  12.449   4.109
13917W        W80700  35.478  12.530  13.839
13918W        W80701   0.864  42.054   1.735
13919W        W80702   7.846  42.519  13.939
13920W        W80703  17.179  19.230  12.485
13921W        W80704  10.989  37.055   1.114
13922W        W80705  25.979  12.703  14.733
13923W        W80706   1.812   9.559   1.291
13924W        W80707   7.926  15.216   3.045
13925W        W80708  41.565  31.199  11.965
13926W        W80709   9.458  38.917  11.891
13927W        W80710  32.617   7.128  11.602
13928W        W80711  15.688  38.005   5.012
13929W        W80712   2.880  23.206   4.329
13930W        W80713  13.337  19.910  12.426
13931W        W80714  26.552  32.527  10.835
13932W        W80715   3.162  22.190   0.911
13933W        W80716  36.624  44.782   4.699
13934W        W80717  21.116  29.940  12.855
13935W        W80718  34.454  35.743  10.848
13936W        W80719  29.429  16.282  13.075
13937W        W80720  35.294  39.634   1.859
13938W        W80721  27.477  39.216  11.120
13939W        W80722  42.757   7.829   1.375
13940W        W80723   2.487  23.140   0.852
13941W        W80724   6.642   9.138  11.926
13942W        W80725  20.582   6.398   3.821
13943W        W80726   6.716   0.745   0.960
13944W        W80727   5.224  41.075  10.752
13945W        W80728  41.062  22.466  13.681
13946W        W80729  36.325  14.973   4.908
13947W        W80730  34.154  10.946  12.979
13948W        W80731  22.264  25.458   0.788
13949W        W80732  14.164   3.056  12.894
13950W        W80733   9.612  41.539  14.576
13951W        W80734   8.613  31.051  10.696
13952W        W80735  36.250  27.186  14.616
13953W        W80736  41.757  31.028  14.332
13954W        W80737  15.624  26.731   2.251
13955W        W80738  21.518  10.936  12.086
13956W        W80739  20.979   5.122  14.055
13957W        W80740   5.084  37.216  10.805
13958W        W80741  11.783  12.448  10.560
13959W        W80742  21.180   4.411   0.242
13960W        W80743  36.144  41.911   4.266
13961W        W80744  28.727   1.237  13.870
13962W        W80745  21.112  25.774  14.829
13963W        W80746  12.504  11.237  13.717
13964W        W80747  16.734  37.903  11.477
13965W        W80748  20.567   9.642  10.779
13966W        W80749  34.534  19.968  13.747
13967W        W80750  39.329  18.413  11.156
13968W        W80751   3.634  29.328   4.972
13969W        W80752  15.531   6.665   4.853
13970W        W80753   7.904  36.538  14.127
13971W        W80754  37.554  41.303   3.492
13972W        W80755  11.004  33.603  10.322
13973W        W80756  38.749  39.866  13.441
13974W        W80757  36.628   2.082  12.461
13975W        W80758  33.399  12.083  14.840
13976W        W80759   8.212  40.428   3.101
13977W        W80760  23.098  26.461  11.735
13978W        W80761   9.901  37.497  12.414
13979W        W80762  27.998  16.038  11.864
13980W        W80763  35.144  12.785   4.629
13981W        W80764  43.260   4.152   0.323
13982W        W80765  29.474  25.477   1.699
13983W        W80766  33.558  26.580   4.333
13984W        W80767  44.414  34.847   0.798
13985W        W80768   2.786  29.573   1.956
13986W        W80769   0.371  36.344   1.291
13987W        W80770   9.906  10.754   3.578
13988W        W80771  36.017  12.177   0.224
13989W        W80772  38.903  14.129   4.516
13990W        W80773  24.056  42.027   1.377
13991W        W80774   0.764   8.734  13.895
13992W        W80775  25.676   3.810   5.000
13993W        W80776  15.382  26.595   4.326
13994W        W80777  18.709  32.542   2.806
13995W        W80778  12.496  14.881   3.294
13996W        W80779   0.401   0.465  14.401
13997W        W80780   5.766  35.880  12.315
13998W        W80781  29.659  28.053  12.353
13999W        W80782  26.119  13.572  11.137
14000W        W80783  14.863  22.643   4.838
14001W        W80784  31.002  23.561   0.880
14002W        W80785   3.394   4.476   0.770
14003W        W80786  32.725  36.028  14.129
14004W        W80787  17.293  43.258  14.383
14005W        W80788  33.070  41.965  10.734
14006W        W80789  32.985  23.990  10.616
14007W        W80790  41.864  30.545  14.994
14008W        W80791  15.210  19.604   3.234
14009W        W80792   2.258   0.379  14.993
14010W        W80793  23.829   9.335   4.684
14011W        W80794  16.530  14.885  13.393
14012W        W80795  43.980  26.734   0.201
14013W        W80796  15.205  16.839  11.049
14014W        W80797  22.503   1.142   3.859
14015W        W80798  22.045  37.898   0.005
14016W        W80799  36.961  12.639  10.796
14017W        W80800  11.487  29.949  11.105
14018W        W80801   1.858  34.075   3.210
14019W        W80802  31.440   6.522  11.554
14020W        W80803  18.749   1.030  11.062
14021W        W80804  14.726  32.728   2.474
14022W        W80805   6.504  28.563  12.128
14023W        W80806   2.255  26.594   5.073
14024W        W80807   5.617  37.553  14.190
14025W        W80808  29.643  33.872  10.724
14026W        W80809   2.423  19.626   1.718
14027W        W80810   6.216  28.530  13.954
14028W        W80811  12.928  12.789  11.081
14029W        W80812   6.146  34.667  11.685
14030W        W80813  18.091   3.922  11.175
14031W        W80814   3.808  16.382   1.022
14032W        W80815  11.817   3.425   2.843
14033W        W80816  10.183  22.359  14.344
14034W        W80817   0.523  41.950   4.551
14035W        W80818  29.395  22.656   3.046
14036W        W80819   4.094  10.315  12.022
14037W        W80820  20.203   6.541   4.138
14038W        W80821  18.271  22.899   1.424
14039W        W80822   3.159  22.135   3.641
14040W        W80823  16.174  11.745   1.919
14041W        W80824   8.372  26.758   0.146
14042W        W80825   8.266  22.291   0.796
14043W        W80826  17.608  28.184  11.138
14044W        W80827   6.147  40.952   2.400
14045W        W80828  27.661  30.421   3.272
14046W        W80829  21.209  39.370   2.379
14047W        W80830  30.400  16.123   2.702
14048W        W80831  37.105  37.494   1.411
14049W        W80832  43.352  39.011  12.492
14050W        W80833  32.546  36.005  14.969
14051W        W80834  32.404   9.779   1.926
14052W        W80835  41.208  19.995   4.282
14053W        W80836  19.613  19.174  13.178
14054W        W80837   6.935  11.196  14.443
14055W        W80838   9.855  15.863   0.383
14056W        W80839  16.249  11.906  13.537
14057W        W80840   8.186  11.334   2.019
14058W        W80841  28.991  14.840   4.216
14059W        W80842  21.773   9.907  14.398
14060W        W80843  32.916  10.326   3.204
14061W        W80844  19.738  21.665   1.782
14062W        W80845  15.396  22.234   1.293
14063W        W80846  14.248   9.774   4.387
14064W        W80847  42.015  23.816  10.259
14065W        W80848  42.581  28.060  14.862
14066W        W80849  44.955  41.860  13.580
14067W        W80850  23.037   7.720  13.848
14068W        W80851  35.001  23.266   4.075
14069W        W80852  20.991  15.675  14.829
14070W        W80853  26.905  10.619  14.898
14071W        W80854  17.592  29.865   1.934
14072W        W80855  21.136  19.530  13.458
14073W        W80856   0.821  32.058   3.151
14074W        W80857  43.386  28.139  13.829
14075W        W80858  12.886   2.450   3.219
14076W        W80859  19.833  13.514   2.891
14077W        W80860  26.932  17.068   2.717
14078W        W80861  41.866  20.642   3.170
14079W        W80862  21.391  20.888   9.826
14080W        W80863  32.095  30.652   4.124
14081W        W80864  34.123  27.983   3.754
14082W        W80865  20.046  20.339  11.933
14083W        W80866  39.245  37.643  10.444
14084W        W80867  30.063   2.746  14.931
14085W        W80868  40.495  34.855  13.479
14086W        W80869   6.916  19.258  11.246
14087W        W80870  42.501  19.248   1.667
14088W        W80871  21.755   9.123  12.468
14089W        W80872  38.724  14.743   1.266
14090W        W80873   9.277  18.953   3.085
14091W        W80874  30.595  16.342   2.263
14092W        W80875  10.602  19.672  12.974
14093W        W80876  13.155  11.406  12.914
14094W        W80877   2.921  20.581  11.995
14095W        W80878  32.659  31.406  14.515
14096W        W80879  14.815  16.893   1.248
14097W        W80880   3.661  18.130   4.583
14098W        W80881  42.079  36.463   4.196
14099W        W80882  10.827   5.285   1.359
14100W        W80883  17.173  43.054   1.858
14101W        W80884  42.856  43.116   1.080
14102W        W80885  37.839  12.005  11.608
14103W        W80886  44.605  29.942   3.857
14104W        W80887  29.013  19.628   3.597
14105W        W80888  25.310  16.631   5.090
14106W        W80889  25.958  18.660  12.525
14107W        W80890  25.095  21.643   0.649
14108W        W80891  16.117   4.346   4.588
14109W        W80892   2.814   7.155   0.358
14110W        W80893  10.444   9.905   3.662
14111W        W80894   3.453   5.258   2.681
14112W        W80895  26.252  15.891  12.461
14113W        W80896  30.950  29.971  12.410
14114W        W80897  30.593   7.886   3.351
14115W        W80898  12.186  11.922  14.469
14116W        W80899  35.357  31.455  11.668
14117W        W80900  44.647   1.609   3.633
14118W        W80901  11.840  34.510   3.297
14119W        W80902  42.288  14.628  14.970
14120W        W80903   9.469   8.810   5.101
14121W        W80904  33.993  19.227  11.057
14122W        W80905  22.531  29.628   2.883
14123W        W80906   8.961  30.946   3.320
14124W        W80907  23.019  29.347  14.276
14125W        W80908  44.402  36.122  14.424
14126W        W80909  31.566   4.963  13.835
14127W        W80910   3.882   0.098   1.895
14128W        W80911  12.832   0.908   3.292
14129W        W80912  34.816   9.155  10.692
14130W        W80913  30.869  28.549   1.423
14131W        W80914   2.384  39.607   4.175
14132W        W80915   4.188  35.473  12.002
14133W        W80916  21.973  40.902  12.954
14134W        W80917  44.370  30.943  11.480
14135W        W80918   7.856   6.634  12.052
14136W        W80919   6.726  13.426  10.457
14137W        W80920  37.451  19.227  11.951
14138W        W80921  24.803  33.781  10.814
14139W        W80922   2.020  42.506  12.026
14140W        W80923  15.560  10.350  11.754
14141W        W80924   6.227   0.350   3.247
14142W        W80925  31.165  41.292  13.885
14143W        W80926  44.538   3.198  13.528
14144W        W80927   3.808   3.361   0.743
14145W        W80928  35.490  14.869   4.150
14146W        W80929  11.607  18.580  14.789
14147W        W80930  34.907  41.914  14.890
14148W        W80931  41.440   3.396  13.009
14149W        W80932  39.742  41.201  11.113
14150W        W80933  13.361   3.010   4.552
14151W        W80934  27.190  16.313   3.074
14152W        W80935  25.056  23.279  12.855
14153W        W80936  38.294  29.997  11.627
14154W        W80937   0.796   9.892  10.973
14155W        W80938  25.104   9.189   4.005
14156W        W80939  30.139  20.823   5.343
14157W        W80940  32.937  38.469   4.818
14158W        W80941   9.083  36.809   0.805
14159W        W80942  38.584   9.866   0.687
14160W        W80943   1.362  29.002  10.447
14161W        W80944  31.121  18.650   0.274
14162W        W80945   0.887  14.311   4.331
14163W        W80946  14.310  22.633   2.182
14164W        W80947   7.009  37.825   0.916
14165W        W80948  44.018  43.322   4.474
14166W        W80949  40.419  17.162  12.572
14167W        W80950  12.421  30.151   0.403
14168W        W80951  32.408  29.399   2.677
14169W        W80952  44.507  14.053  11.086
14170W        W80953  42.539  13.681   1.529
14171W        W80954  16.562   1.265   2.071
14172W        W80955  35.540  38.068   4.544
14173W        W80956  17.507  11.180   4.855
14174W        W80957  14.270  35.013   2.140
14175W        W80958  26.401  32.608   1.332
14176W        W80959  39.029  13.115   1.613
14177W        W80960  33.582   8.468   1.212
14178W        W80961  15.755  43.012  11.597
14179W        W80962  20.609  11.237  11.996
14180W        W80963   1.465  40.986   2.245
14181W        W80964  19.561   7.133   2.104
14182W        W80965  22.671  38.879   4.264
14183W        W80966  37.433  22.263  14.450
14184W        W80967   8.494   9.332  11.579
14185W        W80968  33.124  25.428   2.889
14186W        W80969  39.550  29.856   2.268
14187W        W80970  29.616  36.347   4.752
14188W        W80971   4.157  26.039   1.322
14189W        W80972   8.273  22.737  14.756
14190W        W80973  10.600  25.446  11.541
14191W        W80974  37.866  20.394  13.767
14192W        W80975  28.929  18.386  13.308
14193W        W80976  19.539  16.720   3.218
14194W        W80977   5.448  33.596  10.820
14195W        W80978  18.036  41.293   4.115
14196W        W80979  11.680   2.327  14.507
14197W        W80980  23.388  12.352  10.703
14198W        W80981  20.839  27.884   0.237
14199W        W80982  38.025   7.894   1.429
14200W        W80983  19.934  29.140  11.468
14201W        W80984  30.133  42.912  13.302
14202W        W80985  37.869  43.082   3.484
14203W        W80986  33.463  16.761   3.834
14204W        W80987  31.615  35.953   1.957
14205W        W80988   2.489  28.023  14.431
14206W        W80989  14.206  26.469   4.538
14207W        W80990  41.597   0.856  10.703
14208W        W80991  29.732  18.883  11.204
14209W        W80992   0.112  13.661  10.298
14210W        W80993  39.993  10.332  13.865
14211W        W80994  39.822  37.449   3.694
14212W        W80995  41.891   3.189  10.401
14213W        W80996  22.252  26.976  11.534
14214W        W80997  35.381  33.680   3.780
14215W        W80998  12.335  34.898   3.960
14216W        W80999  13.051  34.494   2.658
14217W        W81000  29.433  42.338   2.129
14218W        W81001  37.318  24.278  11.001
14219W        W81002  23.753  32.194   1.540
14220W        W81003  26.547   9.602  14.917
14221W        W81004   6.228   4.474  10.359
14222W        W81005  22.096  29.405   3.059
14223W        W81006   1.332  39.443  13.946
14224W        W81007   7.806  18.757  12.092
14225W        W81008  10.740   8.630  11.849
14226W        W81009  44.101   8.690  13.315
14227W        W81010  44.080  29.902  12.368
14228W        W81011  31.403  37.518   3.308
14229W        W81012  40.063  11.869  12.548
14230W        W81013   2.697   0.254   3.548
14231W        W81014   0.374  37.281  13.931
14232W        W81015  32.530  31.932   0.932
14233W        W81016  14.202   6.305   2.685
14234W        W81017   1.032  24.195  12.989
14235W        W81018  22.165   4.536  14.384
14236W        W81019  36.441  20.307   0.226
14237W        W81020  20.751   4.940   4.528
14238W        W81021   3.386  39.282  12.010
14239W        W81022  42.700  39.366  11.519
14240W        W81023  37.616   4.271  11.613
14241W        W81024  30.194  25.254  12.097
14242W        W81025   1.530  31.135  12.142
14243W        W81026  44.959  17.719   3.343
14244W        W81027  34.378   1.198  12.981
14245W        W81028  16.105   9.611  12.404
14246W        W81029  35.326  39.454  14.766
14247W        W81030  23.763   7.932  11.550
14248W        W81031  31.893   2.807   3.144
14249W        W81032  11.859  13.772  14.478
14250W        W81033  23.066   1.607  10.619
14251W        W81034  25.674   0.809  11.085
14252W        W81035  24.268  19.578  10.888
14253W        W81036  18.154  21.207   4.441
14254W        W81037  31.654   7.444  11.646
14255W        W81038   6.257   5.692  12.507
14256W        W81039   2.014  10.188   0.299
14257W        W81040  43.393  36.050  13.903
14258W        W81041  25.210  13.862  11.675
14259W        W81042   1.772  26.445  14.300
14260W        W81043  37.326  22.768   0.391
14261W        W81044  12.013  25.950  12.085
14262W        W81045  37.778  38.374   2.781
14263W        W81046  17.285  30.006  12.967
14264W        W81047   6.286   5.854  13.778
14265W        W81048  22.215   6.022   3.651
14266W        W81049  35.544  19.170  13.487
14267W        W81050   6.981  28.621  13.865
14268W        W81051  38.390  25.962   2.915
14269W        W81052  43.926  24.938  14.885
14270W        W81053  37.103   5.910  12.417
14271W        W81054  18.845  29.639   1.604
14272W        W81055  21.340  24.757  12.405
14273W        W81056  13.136  37.456   3.663
14274W        W81057  12.628  16.475   3.728
14275W        W81058  43.698  30.493   0.991
14276W        W81059  38.053  39.580   1.776
14277W        W81060  40.667  37.509   4.073
14278W        W81061  13.724  10.671  11.650
14279W        W81062   7.951   4.918  12.037
14280W        W81063   1.718  13.724  12.906
14281W        W81064  37.475  13.790  14.432
14282W        W81065   3.000   5.883  14.257
14283W        W81066  11.845  33.174   2.602
14284W        W81067  44.273  41.755   0.406
14285W        W81068  13.786   3.862   4.936
14286W        W81069  15.241  38.977   5.207
14287W        W81070  29.396  14.943   3.536
14288W        W81071  19.769  24.093  14.330
14289W        W81072   9.615  11.569   4.110
14290W        W81073  28.180  11.615  14.655
14291W        W81074   4.298   5.277  10.944
14292W        W81075  17.999  17.215   4.520
14293W        W81076  23.046  25.290   2.803
14294W        W81077   6.930  10.866   1.230
14295W        W81078  22.970   7.576  13.365
14296W        W81079  40.454  30.849   2.296
14297W        W81080  26.614  27.621  11.645
14298W        W81081  13.619   4.815   3.224
14299W        W81082  33.397  13.627  11.021
14300W        W81083   9.239  12.137  11.429
14301W        W81084  17.783  14.318  13.366
14302W        W81085  22.751  22.593  13.437
14303W        W81086  11.799  16.682  14.749
14304W        W81087  26.713  41.424   3.085
14305W        W81088  38.528  10.616   2.432
14306W        W81089  19.688  38.338  12.151
14307W        W81090  25.531  28.572  14.883
14308W        W81091   7.214  20.041   3.462
14309W        W81092  36.444  25.109   4.962
14310W        W81093   3.794   5.747  10.408
14311W        W81094  24.906  26.997   4.137
14312W        W81095  40.916  25.609  13.569
14313W        W81096   5.528   7.604  11.079
14314W        W81097   2.210  36.935   1.872
14315W        W81098   7.782   4.910  13.791
14316W        W81099  11.665   5.021  10.167
14317W        W81100  29.195  43.408  12.501
14318W        W81101  44.456  43.102   2.393
14319W        W81102  43.269   0.847  11.529
14320W        W81103  36.012  44.849   0.849
14321W        W81104  24.780  13.784  13.022
14322W        W81105  40.727  35.352  13.491
14323W        W81106  30.752  28.944  10.496
14324W        W81107  13.193   7.486   5.518
14325W        W81108  34.381  22.225  13.697
14326W        W81109  23.729  20.129  11.115
14327W        W81110  29.932  12.744   2.180
14328W        W81111  34.467  35.588   3.773
14329W        W81112  13.062  25.409  13.977
14330W        W81113  10.418  44.349   2.329
14331W        W81114  39.396   5.162   4.754
14332W        W81115   3.399  32.032   2.839
14333W        W81116  39.587  31.623   3.078
14334W        W81117  18.946  42.373   4.898
14335W        W81118  27.493   3.544   2.150
14336W        W81119  29.231  10.549  13.458
14337W        W81120  28.279  14.380  14.973
14338W        W81121  38.884  41.067  14.136
14339W        W81122  22.203  25.046   3.921
14340W        W81123  27.456  44.211  12.027
14341W        W81124  41.433  39.746   0.036
14342W        W81125   2.414   7.321  14.799
14343W        W81126  19.585  27.478   1.756
14344W        W81127  42.400  12.625   2.285
14345W        W81128  18.843  18.281   1.275
14346W        W81129  36.947  32.408   4.676
14347W        W81130   4.565  36.660   4.055
14348W        W81131  17.142  22.124   1.230
14349W        W81132  31.932  38.588   3.809
14350W        W81133   9.505  23.568  14.881
14351W        W81134  33.146  12.308  13.998
14352W        W81135  22.135  43.535  14.721
14353W        W81136  24.176   4.255  11.828
14354W        W81137  44.599  35.017   3.183
14355W        W81138  18.749   6.672  12.820
14356W        W81139  23.084  37.226   3.881
14357W        W81140  44.334  25.800  12.020
14358W        W81141  31.379  11.876   4.877
14359W        W81142  22.169   0.759   1.839
14360W        W81143   0.734  38.865  13.483
14361W        W81144  21.688   4.522  14.045
14362W        W81145  38.412  24.060  11.590
14363W        W81146   1.692  40.615  12.333
14364W        W81147   6.806  34.580  10.664
14365W        W81148  37.577   0.677  10.941
14366W        W81149  13.708  44.361   4.571
14367W        W81150   6.231   3.104   3.551
14368W        W81151  15.814  20.556  10.647
14369W        W81152  21.548  17.053  13.741
14370W        W81153   4.878   1.399   2.818
14371W        W81154  42.060   6.286  14.909
14372W        W81155  29.467  22.271   2.129
14373W        W81156  18.089   2.840  12.952
14374W        W81157   5.891  40.036  13.585
14375W        W81158   7.775  38.930  14.533
14376W        W81159  39.612  22.494  11.229
14377W        W81160   6.644  30.975   3.505
14378W        W81161  27.615  14.038  12.523
14379W        W81162   1.617   6.103   0.578
14380W        W81163  41.362   2.492   4.032
14381W        W81164   8.218  11.535  14.727
14382W        W81165  12.893  26.946   3.143
14383W        W81166  37.973  13.268  10.591
14384W        W81167   9.265  23.168  13.652
14385W        W81168  21.538   2.676  14.270
14386W        W81169  36.939  10.056   0.377
14387W        W81170  38.817   0.970  12.108
14388W        W81171  11.825  43.359  11.673
14389W        W81172  20.051  22.244   4.196
14390W        W81173  38.539   2.981   3.537
14391W        W81174  30.917  19.514  12.399
14392W        W81175  39.798   9.466   2.745
14393W        W81176  12.727  31.375  11.474
14394W        W81177  37.275  36.620  12.988
14395W        W81178  22.081  42.617  13.720
14396W        W81179   4.490  30.928  12.001
14397W        W81180  28.641   2.911   3.191
14398W        W81181   8.799  21.594   4.618
14399W        W81182  23.768  24.707   0.369
14400W        W81183  17.241  43.708  13.501
14401W        W81184  22.304   8.907  13.951
14402W        W81185  12.858   3.059   4.638
14403W        W81186  24.553   7.562  10.985
14404W        W81187   1.396  37.289   3.320
14405W        W81188  19.794  22.560  12.951
14406W        W81189  34.343  36.414   2.925
14407W        W81190  11.665  26.937   1.176
14408W        W81191   0.116  40.442  11.780
14409W        W81192  26.686   6.438   3.202
14410W        W81193  15.138  27.926   4.520
14411W        W81194  14.915  10.672   4.666
14412W        W81195  24.335  16.345  11.118
14413W        W81196  15.674  17.146   0.990
14414W        W81197  43.947  29.553  11.552
14415W        W81198  26.439  13.044   1.925
14416W        W81199  30.721  39.229   2.281
14417W        W81200  26.245   2.566   2.046
14418W        W81201  38.129  29.624  13.903
14419W        W81202  27.353   0.313  10.860
14420W        W81203  41.380  39.574  10.718
14421W        W81204  15.533  12.830   4.191
14422W        W81205  24.133  36.060   0.906
14423W        W81206  28.856  11.148  12.336
14424W        W81207   8.866   7.974   3.164
14425W        W81208   9.888   9.799   2.671
14426W        W81209   0.436  15.623   4.251
14427W        W81210  36.313  43.215   3.688
14428W        W81211  37.465   5.733  11.188
14429W        W81212  44.388  33.326  12.456
14430W        W81213  34.851   8.962   9.870
14431W        W81214   2.341  23.772   1.408
14432W        W81215  38.386  17.652  13.082
14433W        W81216   7.273  24.184   3.407
14434W        W81217   9.513  25.070   1.230
14435W        W81218  41.327  19.980   1.317
14436W        W81219  13.365   7.764  12.892
14437W        W81220  26.685  39.245   4.176
14438W        W81221   2.454  19.908  10.357
14439W        W81222  37.415  33.992   0.302
14440W        W81223  13.333  23.035   5.051
14441W        W81224  25.457  25.105   2.900
14442W        W81225  19.495  23.247   1.910
14443W        W81226   5.411  10.611   2.309
14444W        W81227  15.584  21.988  12.440
14445W        W81228  40.473  38.265   2.868
14446W        W81229  25.118   5.224  12.387
14447W        W81230  14.482  34.611  11.592
14448W        W81231  14.824  24.014  11.977
14449W        W81232  42.755  26.077  13.406
14450W        W81233  28.122  36.077   3.663
14451W        W81234  40.102  12.648   2.274
14452W        W81235  13.122  12.760   2.376
14453W        W81236  43.053  30.125   3.366
14454W        W81237   7.780   7.699  13.210
14455W        W81238  10.128  29.063  13.390
14456W        W81239  21.022  33.801   4.173
14457W        W81240  44.565   8.737  10.210
14458W        W81241  27.843  20.077  13.874
14459W        W81242  22.060   7.316   3.806
14460W        W81243  16.123  21.003   4.593
14461W        W81244  10.871  38.500  10.668
14462W        W81245  34.758  41.822  13.009
14463W        W81246  33.717   9.423   2.634
14464W        W81247  28.166  12.423  11.185
14465W        W81248  31.546  10.900  12.565
14466W        W81249  24.686  30.618   4.627
14467W        W81250  18.083  18.243  14.799
14468W        W81251   5.257   5.464   2.575
14469W        W81252   8.938  29.701  14.379
14470W        W81253  36.187  23.429  10.237
14471W        W81254   0.540  13.865   3.645
14472W        W81255  25.047  16.286   2.232
14473W        W81256   6.221   5.912   2.305
14474W        W81257   2.744  25.171  13.072
14475W        W81258  38.529  28.001  13.342
14476W        W81259  23.007  40.379  14.780
14477W        W81260  38.346  15.590  12.574
14478W        W81261  42.275  24.674   1.774
14479W        W81262  31.799  36.392   2.303
14480W        W81263  17.348   5.702  11.027
14481W        W81264  22.103  18.756   2.304
14482W        W81265   7.101  24.920  11.114
14483W        W81266   3.688  40.326   1.558
14484W        W81267  35.838  38.285   2.730
14485W        W81268  25.613  22.732   4.563
14486W        W81269  18.655  11.428   3.671
14487W        W81270   6.916  18.829   0.056
14488W        W81271  41.685  33.125  14.791
14489W        W81272   3.053  41.516   4.619
14490W        W81273  35.382  21.366  13.416
14491W        W81274   7.161  32.654   3.194
14492W        W81275  20.189  31.158  14.868
14493W        W81276  43.757  13.838   2.730
14494W        W81277  18.922   6.122   4.176
14495W        W81278   6.260  25.697  11.952
14496W        W81279  20.566  21.134   3.137
14497W        W81280   5.821  10.915  12.166
14498W        W81281  15.825  12.222  10.757
14499W        W81282  27.418  20.156   1.889
14500W        W81283  18.505  33.683  11.149
14501W        W81284   2.430   2.371   1.486
14502W        W81285   2.312  24.699   2.171
14503W        W81286  23.035   4.459   3.153
14504W        W81287   7.407  34.824  13.249
14505W        W81288   0.328   5.116  10.971
14506W        W81289  30.433  43.972   4.079
14507W        W81290  35.300  35.556  11.883
14508W        W81291  17.155   2.463  12.387
14509W        W81292   0.652  16.390   9.840
14510W        W81293  14.525  27.887  11.197
14511W        W81294  11.714  33.568   0.853
14512W        W81295  18.220  42.035   4.613
14513W        W81296  33.516  13.570   4.627
14514W        W81297  44.510  14.029   0.193
14515W        W81298  32.386  25.551   1.731
14516W        W81299  11.704  41.889  13.752
14517W        W81300  44.915  35.127   4.112
14518W        W81301  28.461  10.823  12.839
14519W        W81302  13.736  15.128   3.148
14520W        W81303  44.820  40.788  10.951
14521W        W81304  12.646  44.424   3.107
14522W        W81305  27.105  23.185  14.363
14523W        W81306  21.242  31.904   1.720
14524W        W81307   7.898  28.995   1.941
14525W        W81308  25.006  42.763   2.184
14526W        W81309  13.650  33.340   2.705
14527W        W81310  34.456  16.582   1.436
14528W        W81311  14.577  25.936   4.561
14529W        W81312  22.295  18.052   3.780
14530W        W81313   5.837   9.123   4.862
14531W        W81314  33.971  32.609  14.437
14532W        W81315  42.663  38.388  12.978
14533W        W81316  12.956  32.695   0.486
14534W        W81317  25.897  40.978   2.158
14535W        W81318  22.625  21.706  11.661
14536W        W81319  26.081  37.098   3.131
14537W        W81320   8.394  31.873  14.941
14538W        W81321  34.332  13.631  12.501
14539W        W81322  24.416  42.389   1.482
14540W        W81323  27.154  37.839  13.872
14541W        W81324  31.230  33.593   0.532
14542W        W81325  31.083  27.364  11.941
14543W        W81326  28.126  12.645   4.954
14544W        W81327   0.152   1.320   1.172
14545W        W81328  21.738  24.552  12.113
14546W        W81329  30.655   9.652  11.234
14547W        W81330  26.511   8.405  13.377
14548W        W81331  11.315  36.879  11.949
14549W        W81332  22.811   7.692  11.313
14550W        W81333   2.222  41.823  11.139
14551W        W81334  26.496  37.067  12.486
14552W        W81335  17.376  25.659  10.176
14553W        W81336  43.890  34.076  11.486
14554W        W81337  12.281  31.694  12.349
14555W        W81338  36.648   8.636  12.436
14556W        W81339  35.652   1.686  11.099
14557W        W81340  35.659   6.285  12.959
14558W        W81341  26.051  36.658  14.263
14559W        W81342   8.201  42.598   4.227
14560W        W81343  10.823  41.053  12.481
14561W        W81344   0.530  29.376   0.494
14562W        W81345   8.912  23.110   3.038
14563W        W81346  42.579  11.099   0.758
14564W        W81347  36.530  13.580   1.652
14565W        W81348  34.788  35.467  14.361
14566W        W81349   9.261  21.450   3.744
14567W        W81350  11.135  38.863   0.827
14568W        W81351  19.241  23.107   0.454
14569W        W81352  22.255  41.448   4.104
14570W        W81353  41.255  18.804   3.040
14571W        W81354  44.697  39.413   2.660
14572W        W81355  43.419   2.317  14.985
14573W        W81356  26.999  20.768   1.330
14574W        W81357  25.144  39.057   2.200
14575W        W81358  11.496  27.683  13.024
14576W        W81359  22.529  23.252  14.342
14577W        W81360  10.544  41.832  12.025
14578W        W81361  34.551   7.932  14.812
14579W        W81362  24.179  34.737   1.241
14580W        W81363   4.168  39.993  13.071
14581W        W81364  33.492  38.102   2.334
14582W        W81365   3.814  34.516  12.091
14583W        W81366  40.506  32.801   1.276
14584W        W81367   7.887  16.061   1.346
14585W        W81368   5.250  20.884  12.021
14586W        W81369  40.806   1.443  13.541
14587W        W81370  22.685  20.041   3.180
14588W        W81371  26.767  10.404  10.116
14589W        W81372  21.030  44.035  11.661
14590W        W81373  16.409   5.008  12.212
14591W        W81374  22.300  15.180  13.479
14592W        W81375  22.455  14.156  10.214
14593W        W81376  25.458  24.439   2.214
14594W        W81377  16.423  35.139  11.122
14595W        W81378  39.231  33.999  10.474
14596W        W81379   7.774  23.519   0.808
14597W        W81380   3.301  16.221   2.801
14598W        W81381  39.982   2.340   3.257
14599W        W81382  22.399  44.317   4.775
14600W        W81383  16.628  32.578   3.273
14601W        W81384  34.729  43.005   0.732
14602W        W81385   4.436  28.899   2.740
14603W        W81386  33.380  41.540   1.760
14604W        W81387   8.239  42.434   3.736
14605W        W81388  13.663  22.709   3.273
14606W        W81389  26.114  11.572   1.628
14607W        W81390  39.898  28.109   4.758
14608W        W81391  12.035  26.493  13.922
14609W        W81392  11.284  10.901   3.860
14610W        W81393   2.993  11.730  12.437
14611W        W81394  39.699  27.610   2.750
14612W        W81395   6.593   8.936  12.605
14613W        W81396  37.834  43.204  11.870
14614W        W81397  24.646   8.838  10.258
14615W        W81398   3.634  28.830   4.853
14616W        W81399  12.298  20.906   1.979
14617W        W81400  16.476   1.850   3.834
14618W        W81401   8.510   2.713  11.973
14619W        W81402  26.068  14.006   0.534
14620W        W81403  30.732  31.143   4.805
14621W        W81404  12.460  44.360  13.647
14622W        W81405   9.767  13.579   1.355
14623W        W81406   2.772  28.643   4.142
14624W        W81407  22.261   0.207   1.867
14625W        W81408  44.799  36.353   1.899
14626W        W81409  37.815   9.377   3.002
14627W        W81410   3.094  14.643  13.367
14628W        W81411  20.191  18.794   0.759
14629W        W81412  14.819  21.160   2.603
14630W        W81413  40.885  24.951  11.388
14631W        W81414  32.217  38.465  12.138
14632W        W81415  13.782  40.571  11.208
14633W        W81416  44.261  16.453   0.908
14634W        W81417  40.307   0.981  11.102
14635W        W81418  32.972   5.152   0.739
14636W        W81419  23.572  26.313  11.548
14637W        W81420  22.410   2.806  11.730
14638W        W81421  38.958  25.185   4.606
14639W        W81422  22.314  38.917  10.568
14640W        W81423   4.880  27.716   1.832
14641W        W81424  32.667  34.239   2.288
14642W        W81425  27.109  43.881  13.792
14643W        W81426  10.140  37.856  14.019
14644W        W81427   0.337  14.131  10.260
14645W        W81428  30.739  20.266   4.988
14646W        W81429  20.081  11.116  14.484
14647W        W81430  14.127  37.514   3.874
14648W        W81431  41.155  40.284   1.947
14649W        W81432  16.214  44.072   1.846
14650W        W81433   6.581  12.256  12.375
14651W        W81434  38.640  29.593  11.552
14652W        W81435  14.032  12.668  14.945
14653W        W81436  13.518  38.555  10.477
14654W        W81437  24.604  28.937  14.296
14655W        W81438  19.121  43.984   0.809
14656W        W81439  15.849  41.095  10.591
14657W        W81440  17.752  40.019  10.384
14658W        W81441  25.120  34.169  12.851
14659W        W81442   6.373  43.525  11.955
14660W        W81443  26.428  21.764   0.652
14661W        W81444   5.168  21.017  11.142
14662W        W81445  13.656   1.045   0.341
14663W        W81446  25.984  31.533  14.986
14664W        W81447   0.751  25.571  10.826
14665W        W81448  11.277   0.506   3.613
14666W        W81449  27.543  10.322   4.808
14667W        W81450  14.760  25.649   2.132
14668W        W81451  15.699  21.622   2.365
14669W        W81452  38.884  16.612  10.507
14670W        W81453  32.347  40.564  12.439
14671W        W81454  12.839  29.859   3.187
14672W        W81455  37.115   7.391  11.844
14673W        W81456  10.427  10.829  13.982
14674W        W81457  34.097  33.599   1.697
14675W        W81458  27.607   4.700  10.983
14676W        W81459   9.285  28.579   2.351
14677W        W81460  37.636  19.995   2.146
14678W        W81461  32.576  30.967  11.937
14679W        W81462   0.215  22.438   2.816
14680W        W81463  44.526  41.488  11.030
14681W        W81464  41.123   4.182   2.752
14682W        W81465   1.312  37.072   4.038
14683W        W81466  35.013  38.291   3.752
14684W        W81467   5.286  20.564   2.755
14685W        W81468   9.192  33.165  12.465
14686W        W81469  33.994  32.350   3.282
14687W        W81470  14.158  21.103   3.782
14688W        W81471   2.917  39.492  12.019
14689W        W81472  20.560  21.246  13.093
14690W        W81473  44.658  38.822   3.765
14691W        W81474  26.567  17.304   1.435
14692W        W81475  16.025  37.636  11.125
14693W        W81476  28.473  26.079   2.793
14694W        W81477  22.595   1.353   1.941
14695W        W81478  44.731  31.063   0.356
14696W        W81479  25.633  39.555   2.667
14697W        W81480  21.387  33.035  14.450
14698W        W81481  25.641   7.703  11.647
14699W        W81482  13.380  17.704   4.434
14700W        W81483  33.872  18.785  12.500
14701W        W81484   3.263  10.620   3.500
14702W        W81485  36.146  39.750  11.251
14703W        W81486  26.413  34.948  12.358
14704W        W81487  13.593  27.325  13.992
14705W        W81488  37.087   3.440  14.771
14706W        W81489  40.827  12.524  10.250
14707W        W81490  22.202   1.789  12.779
14708W        W81491  20.851   4.234   2.770
14709W        W81492  31.081  28.763  12.952
14710W        W81493  12.610   5.569  13.861
14711W        W81494   9.734  37.347   1.374
14712W        W81495   2.783  19.575   4.213
14713W        W81496  20.543  14.149   5.010
14714W        W81497   2.280  40.046  13.851
14715W        W81498  16.231  28.868  13.786
14716W        W81499  10.539   1.939   1.950
14717W        W81500  43.008  23.990   0.368
14718W        W81501   4.650  23.513   3.606
14719W        W81502  24.150   1.087  13.085
14720W        W81503  10.212   1.910  12.643
14721W        W81504  44.214  32.696   3.038
14722W        W81505  40.293   3.282  12.951
14723W        W81506  28.990  16.984   0.337
14724W        W81507   5.918  38.523  13.818
14725W        W81508   9.869  10.821   4.543
14726W        W81509  22.762  39.452   2.713
14727W        W81510  10.026  20.139   2.243
14728W        W81511   7.384  34.646   0.280
14729W        W81512  13.887  15.778  11.708
14730W        W81513  19.248   2.717  12.641
14731W        W81514  29.056  20.596  11.478
14732W        W81515  20.712  28.374   1.669
14733W        W81516  17.559  44.730   4.056
14734W        W81517  36.884  34.311   3.880
14735W        W81518  26.521  43.184   0.955
14736W        W81519  18.224  24.131   0.105
14737W        W81520  36.579   1.251   4.145
14738W        W81521  35.487  42.218  11.429
14739W        W81522  34.442  33.892   3.384
14740W        W81523  19.601  26.022   4.163
14741W        W81524  12.588  22.469   4.440
14742W        W81525  14.731  12.146   1.206
14743W        W81526  36.023  25.708  14.883
14744W        W81527  24.884  23.705   4.128
14745W        W81528   4.861  31.229   0.452
14746W        W81529   9.310   6.259  12.487
14747W        W81530  26.951  21.714   0.697
14748W        W81531  41.330  31.885  13.970
14749W        W81532  37.136  37.062   1.718
14750W        W81533  12.885  15.618  11.552
14751W        W81534  17.721  40.914  13.471
14752W        W81535  13.561   0.572   2.807
14753W        W81536  21.517  43.309  14.941
14754W        W81537  18.643  10.176  14.363
14755W        W81538   1.645  41.700  12.361
14756W        W81539  10.202  23.492   4.201
14757W        W81540  34.055   9.855  12.036
14758W        W81541  42.068  29.366   4.335
14759W        W81542  16.119  14.150   1.967
14760W        W81543  14.803  23.642  13.734
14761W        W81544  19.693  41.470   3.691
14762W        W81545  10.400  22.532  12.973
14763W        W81546   1.742  22.205   3.946
14764W        W81547  36.981  19.673  12.351
14765W        W81548  24.238  18.260   4.891
14766W        W81549  14.084  26.797   0.970
14767W        W81550  27.064  44.018   1.186
14768W        W81551  21.502  24.665   5.438
14769W        W81552  11.142  41.339  10.926
14770W        W81553  35.147  15.084  11.027
14771W        W81554  32.900  21.044  14.377
14772W        W81555  44.319   3.388  13.940
14773W        W81556  42.531  29.128   0.387
14774W        W81557   5.143  40.375   4.101
14775W        W81558   9.720  36.062   0.705
14776W        W81559   2.352  18.814  14.370
14777W        W81560  16.253  14.449  13.440
14778W        W81561  27.662   5.527   2.361
14779W        W81562  16.087  34.746  11.130
14780W        W81563  30.990  10.146   0.738
14781W        W81564  27.743  15.491   4.652
14782W        W81565  41.547  27.834   2.857
14783W        W81566   0.468  38.404  12.851
14784W        W81567  31.870  35.996  14.340
14785W        W81568  21.722   8.182  11.058
14786W        W81569  18.643  33.148  13.782
14787W        W81570  41.940   7.641  13.348
14788W        W81571  30.492   1.696  10.720
14789W        W81572   9.997  10.830   1.652
14790W        W81573  28.908  30.225   1.874
14791W        W81574   7.329  33.591  14.107
14792W        W81575  42.547   3.959   2.756
14793W        W81576   5.865  33.134   1.597
14794W        W81577  39.966   8.447  10.476
14795W        W81578  35.754   3.209   2.519
14796W        W81579  25.574   8.251  10.941
14797W        W81580  36.958   0.356   0.844
14798W        W81581  27.092  28.626   4.934
14799W        W81582  42.911  13.905   3.116
14800W        W81583   6.240  33.931  10.553
14801W        W81584   1.236  12.875   3.642
14802W        W81585  10.683  33.141   2.132
14803W        W81586  41.367  18.692   4.979
14804W        W81587  42.974   4.323   4.947
14805W        W81588  42.537   2.819  13.481
14806W        W81589  12.453  28.147  10.934
14807W        W81590  10.670  38.094   1.817
14808W        W81591   7.956  15.589  11.646
14809W        W81592   3.430  25.278   1.748
14810W        W81593  42.820   2.199   0.654
14811W        W81594  38.548  33.746  12.481
14812W        W81595   5.239   6.651  10.604
14813W        W81596  34.303  13.179   2.503
14814W        W81597  41.248   1.771   4.254
14815W        W81598  19.182  18.015  12.890
14816W        W81599   5.889  31.364   0.928
14817W        W81600  36.453   2.687  14.205
14818W        W81601   3.733  20.574  14.808
14819W        W81602   7.133  18.226   1.732
14820W        W81603  39.827  17.104  14.833
14821W        W81604  21.191  13.897  12.583
14822W        W81605   5.129  24.019  12.105
14823W        W81606   2.296   6.719  10.454
14824W        W81607  10.731   9.380   4.149
14825W        W81608   1.414  16.113   4.655
14826W        W81609   6.447  16.722  11.827
14827W        W81610   9.701  35.089   0.459
14828W        W81611  37.339  38.795   0.416
14829W        W81612  13.133   8.773  11.197
14830W        W81613  37.285  39.916   0.772
14831W        W81614   5.426  25.993  14.366
14832W        W81615  33.174   6.158   2.263
14833W        W81616  36.587  23.076  10.218
14834W        W81617   0.435   4.478   4.631
14835W        W81618   3.405  26.066   3.937
14836W        W81619  26.410  44.857   1.359
14837W        W81620  10.164  12.822  14.746
14838W        W81621  10.624  28.444   2.687
14839W        W81622  11.740  26.120   4.488
14840W        W81623   9.619  14.781   1.986
14841W        W81624  23.233  15.053   1.333
14842W        W81625  36.886   0.892   4.390
14843W        W81626  18.274  16.360  14.860
14844W        W81627   2.606  42.865  10.011
14845W        W81628  24.335   6.467  13.235
14846W        W81629   5.819  28.669  11.153
14847W        W81630   4.698  43.085  11.915
14848W        W81631  23.629   5.864   5.092
14849W        W81632  21.040  35.535  13.956
14850W        W81633  13.199  44.284  13.485
14851W        W81634  12.634   5.128   1.212
14852W        W81635  40.006   9.687   4.669
14853W        W81636  34.313  35.579   0.353
14854W        W81637  17.084  37.452   3.767
14855W        W81638  15.369   2.790   1.965
14856W        W81639  43.324   2.176   0.480
14857W        W81640   6.110   6.214  14.089
14858W        W81641   5.958  36.978  10.403
14859W        W81642  18.728  30.630   3.119
14860W        W81643  11.040   9.083  12.744
14861W        W81644   2.043  15.819  10.697
14862W        W81645  12.395  43.531  13.030
14863W        W81646   6.636  36.824  12.085
14864W        W81647  19.042  33.360  11.158
14865W        W81648  36.520  31.557   4.419
14866W        W81649  17.585  41.213  13.919
14867W        W81650  27.617  29.619   4.846
14868W        W81651  43.021  21.935   2.791
14869W        W81652  27.363  22.708   4.726
14870W        W81653   0.614   6.845   4.262
14871W        W81654  23.663   5.515  11.240
14872W        W81655  29.481   2.009  11.152
14873W        W81656   2.398  32.536   2.506
14874W        W81657  37.532  18.285   3.545
14875W        W81658  36.046  19.054   4.066
14876W        W81659   0.898   1.299   1.871
14877W        W81660   3.491   0.055   2.264
14878W        W81661  15.876  33.518  12.000
14879W        W81662  27.424   5.382   4.350
14880W        W81663   9.433  37.650   3.720
14881W        W81664  36.920   5.800  12.881
14882W        W81665   4.891  10.831  14.938
14883W        W81666  36.654  16.681  14.649
14884W        W81667  17.350  22.532   2.324
14885W        W81668  13.630  40.063   4.304
14886W        W81669   8.912  32.052  14.902
14887W        W81670   3.489  37.120   1.424
14888W        W81671   2.466   6.383  14.822
14889W        W81672  22.655  31.124   0.780
14890W        W81673  13.114   9.455  11.969
14891W        W81674  18.816  16.625   1.152
14892W        W81675  19.002  28.673   1.883
14893W        W81676  44.192  32.833   2.154
14894W        W81677   4.331  11.269   2.376
14895W        W81678  32.297  20.521  14.899
14896W        W81679   4.370  23.181   1.720
14897W        W81680  25.658  35.380  12.474
14898W        W81681   0.752  19.714  14.976
14899W        W81682   7.684  16.822  14.396
14900W        W81683  36.166  31.025  12.848
14901W        W81684  19.012  16.823   3.200
14902W        W81685   6.719  16.739   2.254
14903W        W81686  29.996  36.193  14.215
14904W        W81687  21.367   0.014  11.524
14905W        W81688  27.479  32.132   1.349
14906W        W81689   1.872  15.500   3.190
14907W        W81690  17.839  25.448  11.573
14908W        W81691  15.486   4.258   0.017
14909W        W81692   8.648  38.729  13.788
14910W        W81693  31.012  33.827  13.392
14911W        W81694  41.011  22.497  14.866
14912W        W81695  36.291  18.229  13.072
14913W        W81696  30.376   3.967   0.469
14914W        W81697  42.191  17.110  14.405
14915W        W81698  44.967  11.854   1.027
14916W        W81699  42.014  16.228   5.458
14917W        W81700  21.661   5.724  13.259
14918W        W81701   3.650   5.077  13.481
14919W        W81702  22.830  37.367  14.351
14920W        W81703  23.831  36.150  13.278
14921W        W81704  41.949   1.696   4.108
14922W        W81705  13.547  42.031  13.857
14923W        W81706  30.894  34.612  14.038
14924W        W81707  19.034  16.044   2.837
14925W        W81708  22.570   3.741   2.903
14926W        W81709   9.268  31.900   4.181
14927W        W81710  30.087  16.255  11.869
14928W        W81711  36.799  18.578  11.867
14929W        W81712   0.202  18.282   4.661
14930W        W81713   4.902  28.528  14.953
14931W        W81714  40.989  13.636   0.003
14932W        W81715  22.683  36.326  11.216
14933W        W81716  32.617  19.156  11.198
14934W        W81717  33.817  20.334   3.719
14935W        W81718  10.578  11.378   1.903
14936W        W81719  25.527  16.311   0.948
14937W        W81720  15.970   1.034   4.657
14938W        W81721   9.824  28.979  10.825
14939W        W81722  21.472  36.389  11.649
14940W        W81723   4.237  36.016  13.243
14941W        W81724  38.424  17.721  10.262
14942W        W81725   6.214  42.168  12.770
14943W        W81726   0.317  35.582  10.627
14944W        W81727  42.236  26.111  13.515
14945W        W81728  13.722  15.741   2.858
14946W        W81729  23.705  32.383   2.758
14947W        W81730  38.552  38.093   3.259
14948W        W81731  21.212  41.307   4.155
14949W        W81732  27.230  44.928  11.180
14950W        W81733  23.005  35.062   4.256
14951W        W81734   9.105  14.539  13.803
14952W        W81735  38.851  12.385  14.245
14953W        W81736  44.425   7.320   1.788
14954W        W81737  24.611   5.903   3.704
14955W        W81738  34.575   2.505   4.885
14956W        W81739  15.375  28.972  11.550
14957W        W81740  35.672  36.500   3.669
14958W        W81741   4.339  14.986  12.949
14959W        W81742   6.707   6.360   3.266
14960W        W81743  36.580  22.757  11.473
14961W        W81744  41.368  28.426  11.626
14962W        W81745  11.719   1.753   2.183
14963W        W81746   8.912   8.522  14.678
14964W        W81747  13.738  30.607  12.434
14965W        W81748  26.247   7.233   3.809
14966W        W81749  19.564  25.563  13.105
14967W        W81750  13.179  15.078   4.744
14968W        W81751  32.658   8.172  13.349
14969W        W81752   7.719  10.738   3.392
14970W        W81753  21.305  30.059   0.308
14971W        W81754   6.062  26.580   1.251
14972W        W81755   3.366  26.719  11.313
14973W        W81756  24.975  18.798   2.252
14974W        W81757   6.483  41.560   3.591
14975W        W81758  35.437  27.144   3.685
14976W        W81759   5.283   6.843   3.637
14977W        W81760   3.287   9.816  13.979
14978W        W81761  10.290  38.516   2.844
14979W        W81762   9.717  11.072   0.829
14980W        W81763  10.790  29.709   1.685
14981W        W81764   5.736   9.853  14.052
14982W        W81765  37.991  44.446   4.766
14983W        W81766  29.005  15.716  14.028
14984W        W81767  25.044  40.306   1.343
14985W        W81768  12.298  22.056  11.670
14986W        W81769  33.373  33.107  10.522
14987W        W81770  23.126  17.828  13.896
14988W        W81771  29.331  41.445   3.564
14989W        W81772  17.165  23.857  12.137
14990W        W81773  39.859  14.226   1.553
14991W        W81774  39.817   2.962  13.082
14992W        W81775  11.937  34.936   2.241
14993W        W81776  32.978  31.104   3.814
14994W        W81777  11.239  40.020   0.724
14995W        W81778  42.093  30.592  11.091
14996W        W81779  29.459   7.475   2.780
14997W        W81780   3.332  31.486  11.010
14998W        W81781  18.329  15.727  14.212
14999W        W81782  23.524   3.839  12.111
15000W        W81783  37.315  41.819  14.336
15001W        W81784  15.767   7.911   4.115
15002W        W81785  17.839  30.903  13.830
15003W        W81786  18.061  37.546   4.538
15004W        W81787  16.681  33.350  10.606
15005W        W81788  25.058   4.212  11.161
15006W        W81789  22.893  26.978  11.186
15007W        W81790  38.488  41.053  11.554
15008W        W81791   7.775   2.411   3.236
15009W        W81792  29.923  17.631  11.028
15010W        W81793   5.391  27.507  13.603
15011W        W81794  41.361  20.996  13.083
15012W        W81795  41.862  31.528  14.139
15013W        W81796  15.510  11.018   1.806
15014W        W81797  20.510  34.835  10.696
15015W        W81798  14.111  36.375  14.311
15016W        W81799  16.088  18.315   0.701
15017W        W81800  34.337  35.527   4.529
15018W        W81801  29.981   3.896   3.060
15019W        W81802  34.033   1.227   4.698
15020W        W81803   8.283  25.596   3.817
15021W        W81804  22.317  38.915   2.249
15022W        W81805  37.436  24.665  14.941
15023W        W81806  34.334  13.208   1.414
15024W        W81807  42.284  17.264   3.365
15025W        W81808   5.511  22.585   2.758
15026W        W81809  35.858   0.940   3.666
15027W        W81810  31.608   0.798   0.524
15028W        W81811   1.960  12.740  14.846
15029W        W81812  32.141  29.062   0.334
15030W        W81813  24.043  20.456  11.468
15031W        W81814  16.321   0.708  11.075
15032W        W81815  21.143   2.166  14.143
15033W        W81816   1.138  27.567   1.267
15034W        W81817  44.311   8.875  11.824
15035W        W81818  31.012  29.628  13.517
15036W        W81819  14.137  16.118   2.840
15037W        W81820  38.628  44.743  10.393
15038W        W81821  41.994  29.252  11.598
15039W        W81822  37.007  36.919  10.717
15040W        W81823  39.475   8.399  11.575
15041W        W81824  29.402  33.805   3.857
15042W        W81825  23.689   6.418  11.512
15043W        W81826  32.186   0.649  11.103
15044W        W81827  22.141  15.400   1.670
15045W        W81828  42.963  44.890  12.127
15046W        W81829  21.691  21.606  11.731
15047W        W81830  24.642  37.881  13.875
15048W        W81831  32.090  34.274   2.868
15049W        W81832  32.879  18.315   1.402
15050W        W81833   3.200   6.865  12.541
15051W        W81834   9.672  17.090   1.198
15052W        W81835  35.993   7.961   0.915
15053W        W81836  31.733  28.452  13.422
15054W        W81837  28.840  39.368   1.626
15055W        W81838   2.678  23.135  11.660
15056W        W81839  36.935  39.057   0.248
15057W        W81840  44.001  21.133   3.111
15058W        W81841  19.947  21.166  14.688
15059W        W81842  19.670  11.533  11.940
15060W        W81843  16.210  14.668  12.463
15061W        W81844  32.507  22.960  14.858
15062W        W81845   3.852  10.723  14.528
15063W        W81846  12.687  16.329  12.067
15064W        W81847   2.522  33.872   2.228
15065W        W81848  43.876  27.052  11.566
15066W        W81849  37.401  16.811   0.085
15067W        W81850  35.131   6.035  11.161
15068W        W81851  19.562  27.027  13.913
15069W        W81852  32.643  15.793  10.607
15070W        W81853  42.660  14.992   4.939
15071W        W81854  14.652   0.660   3.603
15072W        W81855  21.363  23.159  10.964
15073W        W81856  16.811  32.083   1.365
15074W        W81857   9.270   5.819  14.441
15075W        W81858   6.257   2.274   2.527
15076W        W81859  15.613  27.968  12.268
15077W        W81860  18.325  19.223   1.091
15078W        W81861   3.700  44.321  10.785
15079W        W81862  13.799  33.894  14.976
15080W        W81863  40.108  25.163   1.602
15081W        W81864  30.928  26.165   4.187
15082W        W81865   3.090  41.967   0.302
15083W        W81866  15.694   6.450  10.972
15084W        W81867   3.185   7.607  14.311
15085W        W81868  41.639  27.988  12.479
15086W        W81869  43.537  16.232  13.816
15087W        W81870  25.536  32.466   0.262
15088W        W81871   2.361  21.360   2.227
15089W        W81872  13.259  21.251   3.645
15090W        W81873  29.083   9.295  12.808
15091W        W81874   8.853  28.533   4.438
15092W        W81875   2.877  28.988  13.061
15093W        W81876  22.833  24.125   2.159
15094W        W81877  23.640  38.054   2.460
15095W        W81878   4.777  27.359   0.488
15096W        W81879  40.035  37.456   2.807
15097W        W81880  20.939  16.253  12.791
15098W        W81881  13.308  34.728  13.569
15099W        W81882  13.761   1.716  12.205
15100W        W81883  33.854   8.930   3.693
15101W        W81884   4.349  42.112  10.719
15102W        W81885  39.878   6.195  11.707
15103W        W81886  36.129   9.702   0.736
15104W        W81887  13.090   0.167   3.931
15105W        W81888   5.002  25.246  14.119
15106W        W81889  39.959  20.777  13.117
15107W        W81890  14.790   8.831  11.919
15108W        W81891   5.153  34.435   1.383
15109W        W81892  25.486  21.565   4.225
15110W        W81893   1.480   6.245   3.373
15111W        W81894  26.845  17.141   4.117
15112W        W81895  34.654  17.340  11.083
15113W        W81896  13.405   4.697   5.005
15114W        W81897  11.935  17.451  12.440
15115W        W81898   9.004   2.153   3.096
15116W        W81899   3.246   5.259  10.961
15117W        W81900  31.093  12.006  11.905
15118W        W81901  32.412   8.165   4.913
15119W        W81902  12.926  28.172  11.133
15120W        W81903  27.785  15.499   1.749
15121W        W81904  27.241   7.306   3.820
15122W        W81905   0.959  29.519   4.176
15123W        W81906  10.184  13.021  12.403
15124W        W81907   2.928  21.305   2.940
15125W        W81908  26.271   6.106   3.059
15126W        W81909  10.147  41.310  13.202
15127W        W81910  27.871  28.664  10.929
15128W        W81911  38.403  29.109   1.217
15129W        W81912  42.487  13.164   1.745
15130W        W81913  27.419  12.751   3.113
15131W        W81914  31.807  39.462  11.973
15132W        W81915  44.087  23.249   2.840
15133W        W81916  14.687   4.830   3.126
15134W        W81917  42.268  10.895   1.541
15135W        W81918   0.302  31.539  12.810
15136W        W81919  17.718  15.279  14.093
15137W        W81920  28.650  21.446  13.105
15138W        W81921  38.787  29.319  11.062
15139W        W81922  35.470   4.435   0.000
15140W        W81923  32.110  18.509  12.159
15141W        W81924   9.381  34.995   2.723
15142W        W81925  37.346   4.462   1.276
15143W        W81926  19.641  22.731  13.828
15144W        W81927   1.482  41.571   4.700
15145W        W81928   9.133   2.862   0.898
15146W        W81929  29.151  39.070  14.902
15147W        W81930   4.735  12.109  12.591
15148W        W81931  34.114  42.260  11.926
15149W        W81932  33.606  32.851  10.083
15150W        W81933  18.804  24.224   0.858
15151W        W81934  16.660  17.094  12.086
15152W        W81935  18.717  24.222   0.328
15153W        W81936   1.657   5.377  12.070
15154W        W81937  11.781   9.411   4.503
15155W        W81938  28.206  22.927  13.063
15156W        W81939  30.693  23.269   4.299
15157W        W81940  44.566  35.126  14.795
15158W        W81941  17.659  39.934   0.466
15159W        W81942  25.490  18.965  11.602
15160W        W81943   9.537   0.834   2.410
15161W        W81944  15.496  41.385   4.215
15162W        W81945  15.048  21.708   1.819
15163W        W81946  30.001  36.336  11.562
15164W        W81947  17.711   6.937  10.716
15165W        W81948  22.962  11.317  14.600
15166W        W81949  14.430  12.272   2.488
15167W        W81950  28.649   9.817   4.378
15168W        W81951   4.843  44.882  14.515
15169W        W81952  17.179   8.454   3.644
15170W        W81953  44.743  10.401  13.571
15171W        W81954  32.470  36.255  10.799
15172W        W81955  12.291  35.376  14.084
15173W        W81956  38.211  41.342  11.208
15174W        W81957  28.189  25.389  14.877
15175W        W81958  26.979  13.604   0.869
15176W        W81959   9.077  27.841  10.974
15177W        W81960  28.717  33.330  12.612
15178W        W81961  38.002   6.444  11.146
15179W        W81962   7.625   6.491   4.299
15180W        W81963  27.179   3.649   3.744
15181W        W81964  44.001  23.505   1.357
15182W        W81965  27.909   4.943  12.517
15183W        W81966  32.591  41.360   3.410
15184W        W81967  23.993   0.307  10.495
15185W        W81968  22.973  33.708   3.977
15186W        W81969   1.260  27.552   0.772
15187W        W81970  27.633  18.118  10.426
15188W        W81971   7.961   9.487   0.510
15189W        W81972  36.533   6.855  11.872
15190W        W81973  13.627  23.526  14.509
15191W        W81974  14.496  21.029   2.224
15192W        W81975  26.049  19.155   4.561
15193W        W81976  35.040  30.620   4.131
15194W        W81977  21.656  24.382  14.740
15195W        W81978  41.099  35.580   4.221
15196W        W81979  25.729  22.707  12.857
15197W        W81980  27.103  16.602  14.415
15198W        W81981  13.578  32.378   1.675
15199W        W81982  41.533  40.912   3.230
15200W        W81983  28.203  17.340  12.604
15201W        W81984  43.001   3.362  11.180
15202W        W81985  43.838  32.979   4.144
15203W        W81986  27.929  29.957  13.537
15204W        W81987  24.550  18.740   3.650
15205W        W81988  36.341  32.859  12.080
15206W        W81989  22.359  16.485   2.750
15207W        W81990   0.719  28.211   3.726
15208W        W81991  14.370  29.526   0.296
15209W        W81992   1.228  36.699  11.670
15210W        W81993  30.453  41.321   4.564
15211W        W81994   6.587   5.038  14.365
15212W        W81995   9.094  32.087  12.504
15213W        W81996  27.536   8.179  14.386
15214W        W81997   9.027  39.917  11.990
15215W        W81998  24.902  44.383  11.092
15216W        W81999   1.464  43.348  13.094
15217W        W82000  13.745  10.693  13.779
15218W        W82001  35.353  16.689  11.220
15219W        W82002  20.551  31.492   1.250
15220W        W82003   0.639  32.602   0.966
15221W        W82004  11.657  44.197  11.500
15222W        W82005   7.839  26.284  13.085
15223W        W82006  24.532  13.607  12.555
15224W        W82007   8.966  18.754  13.143
15225W        W82008  24.766  11.101  13.871
15226W        W82009   4.684   7.170   2.501
15227W        W82010   8.338  42.881  14.635
15228W        W82011   6.633  18.430  11.148
15229W        W82012   0.742  33.821  12.839
15230W        W82013  31.379  17.594   3.275
15231W        W82014  30.048  27.621   2.409
15232W        W82015  18.790  30.462  10.648
15233W        W82016  11.866  10.940  14.352
15234W        W82017  16.763   2.817  14.601
15235W        W82018  38.774  34.490   0.791
15236W        W82019  15.807  17.754   1.743
15237W        W82020  14.900  22.147   2.688
15238W        W82021  27.706  43.538  12.619
15239W        W82022  12.249   5.644  12.092
15240W        W82023  38.499  40.746   3.730
15241W        W82024  12.635  24.223   1.135
15242W        W82025  43.377   1.839  13.705
15243W        W82026   0.767  16.307   2.949
15244W        W82027  27.143  14.633  11.938
15245W        W82028   2.803  22.679   4.759
15246W        W82029  23.638  41.876   4.044
15247W        W82030  29.466   8.673  14.934
15248W        W82031  22.028   5.139  12.526
15249W        W82032   3.304  39.781  14.357
15250W        W82033  42.891   3.720  13.117
15251W        W82034  33.085  24.733  12.945
15252W        W82035  24.578  12.474  14.309
15253W        W82036   6.366  39.479   3.646
15254W        W82037  35.803  34.200   4.186
15255W        W82038   1.722  20.128  12.641
15256W        W82039  25.442  17.720  12.598
15257W        W82040  25.719   7.729  14.379
15258W        W82041  34.667  34.588   3.665
15259W        W82042   4.365  39.425  10.926
15260W        W82043  13.605  25.544  12.400
15261W        W82044   8.761  41.409  13.022
15262W        W82045  34.652   0.393   0.773
15263W        W82046  11.844   4.451  11.230
15264W        W82047  20.193   8.715   0.647
15265W        W82048  23.238   9.352   3.353
15266W        W82049  32.890  30.976   4.299
15267W        W82050  17.665  31.528   2.899
15268W        W82051  31.915   5.594  11.001
15269W        W82052   5.169   5.745  12.361
15270W        W82053  15.354  42.986   1.594
15271W        W82054  39.484  44.738  14.779
15272W        W82055  24.008  20.325  14.302
15273W        W82056  33.485   7.345   1.728
15274W        W82057  22.613  40.989   2.321
15275W        W82058  13.781  31.058  12.210
15276W        W82059  23.638   8.898   2.963
15277W        W82060   4.261  43.743  13.941
15278W        W82061  41.761   5.898  11.135
15279W        W82062  15.936  26.707   3.148
15280W        W82063  25.678  43.772   3.636
15281W        W82064  36.226   9.801  11.651
15282W        W82065  35.063  17.715  11.037
15283W        W82066  26.115  10.792  14.048
15284W        W82067  31.307   8.799   1.068
15285W        W82068  31.635  13.551  14.810
15286W        W82069  13.128  20.108  13.721
15287W        W82070  26.985  20.064  12.860
15288W        W82071  34.660  10.683   2.913
15289W        W82072  18.565   0.769  10.652
15290W        W82073  29.598  32.767   1.767
15291W        W82074  23.041  35.156  14.451
15292W        W82075  27.098  40.914   0.642
15293W        W82076  36.414   0.325   2.721
15294W        W82077  26.606  21.489   2.366
15295W        W82078  25.447  26.784  14.274
15296W        W82079  18.091   5.101  13.956
15297W        W82080  24.686  27.099  14.261
15298W        W82081  28.660   0.174   4.071
15299W        W82082  37.663  19.998   3.139
15300W        W82083  34.511  39.185   4.147
15301W        W82084  27.080  43.409   5.151
15302W        W82085  35.924  23.771  14.453
15303W        W82086   6.315  21.486  12.616
15304W        W82087  36.420  24.801  10.529
15305W        W82088   8.791  27.636   4.323
15306W        W82089  32.425  42.525  14.254
15307W        W82090  34.451  22.692  12.934
15308W        W82091  40.432  32.321   0.358
15309W        W82092  33.444  38.764   3.510
15310W        W82093  16.743  40.158   0.518
15311W        W82094  29.000  19.773  11.667
15312W        W82095   1.341   2.279   2.231
15313W        W82096  35.362   0.745  12.468
15314W        W82097  11.241   9.342  13.621
15315W        W82098  15.852  42.462  13.323
15316W        W82099  28.446  24.671   1.204
15317W        W82100  20.915  35.491  11.533
15318W        W82101   1.257  23.752   2.283
15319W        W82102  44.342  28.441   3.725
15320W        W82103  14.167  21.971  12.483
15321W        W82104   9.540  21.498  13.650
15322W        W82105  25.664  17.309  14.998
15323W        W82106  23.556  30.050  11.618
15324W        W82107   8.754  27.862  11.932
15325W        W82108  25.066  20.117   0.765
15326W        W82109   3.571  17.418   2.042
15327W        W82110  15.728   1.908   2.647
15328W        W82111  36.792   6.143   3.685
15329W        W82112  25.773  35.196  14.747
15330W        W82113  39.427  10.277  11.157
15331W        W82114  13.744  27.600   0.161
15332W        W82115   9.465  42.296   0.469
15333W        W82116  28.513  31.884  10.461
15334W        W82117  43.726  21.150  14.377
15335W        W82118   2.134  28.528   2.886
15336W        W82119  16.111   1.738  11.942
15337W        W82120  31.132  38.716   2.742
15338W        W82121   4.864  16.902   2.409
15339W        W82122  21.699  35.914  10.396
15340W        W82123  29.215  24.716   2.356
15341W        W82124  27.431  20.987   1.561
15342W        W82125  38.101  10.017   1.299
15343W        W82126  33.909  25.768  12.879
15344W        W82127  12.179   8.925   5.486
15345W        W82128  35.471   6.200  11.542
15346W        W82129   2.196  38.536   2.736
15347W        W82130   8.764  30.127  11.435
15348W        W82131  16.727   7.389   1.826
15349W        W82132  17.051   4.890   1.780
15350W        W82133  26.463  44.170   5.018
15351W        W82134   3.447  44.854  11.031
15352W        W82135  23.228  28.866   2.759
15353W        W82136  42.790  11.187   3.510
15354W        W82137  25.089   3.223   2.460
15355W        W82138  23.577  29.695   3.656
15356W        W82139   0.700  32.223   0.388
15357W        W82140  15.067  36.941   2.845
15358W        W82141  14.700   7.972   4.230
15359W        W82142  41.904  40.482   1.054
15360W        W82143  12.782   5.148  13.570
15361W        W82144  33.337  34.125   1.608
15362W        W82145  14.841  26.499   0.035
15363W        W82146  32.233  34.345   1.867
15364W        W82147   8.591  26.119   2.239
15365W        W82148  42.486   0.967   1.398
15366W        W82149  18.551   6.734  11.553
15367W        W82150  20.317   3.414   2.772
15368W        W82151  20.039  24.274   4.146
15369W        W82152  10.161  32.607  11.980
15370W        W82153  29.356  27.063   0.491
15371W        W82154  27.682  34.083  13.083
15372W        W82155   9.345  16.923  12.882
15373W        W82156  16.092   3.856   2.012
15374W        W82157  35.258   7.207  14.809
15375W        W82158  11.170   2.427   4.810
15376W        W82159  17.987  13.372   2.807
15377W        W82160  43.336   7.435  13.432
15378W        W82161  34.837  35.590  12.079
15379W        W82162  16.059  12.855   4.223
15380W        W82163  34.422  25.453  13.115
15381W        W82164  37.972  33.304   2.978
15382W        W82165  23.522  28.913   2.256
15383W        W82166  20.648   9.920   1.148
15384W        W82167  17.545   4.038  11.514
15385W        W82168  38.593   9.926  13.496
15386W        W82169  30.349  11.658  13.046
15387W        W82170  17.237   7.521   1.809
15388W        W82171   1.726  39.047  13.559
15389W        W82172  14.100   2.320   5.266
15390W        W82173   5.810  43.145   0.746
15391W        W82174  17.274  18.482  11.952
15392W        W82175  19.632   6.714   0.038
15393W        W82176   6.728  32.360   0.352
15394W        W82177  30.234  20.301  10.603
15395W        W82178  28.569   6.708  14.396
15396W        W82179  36.797  42.277  11.323
15397W        W82180  42.533  43.315   3.170
15398W        W82181  14.547   8.776   1.613
15399W        W82182  44.811  17.725   2.845
15400W        W82183  22.832  13.657   4.566
15401W        W82184   4.934   6.679   4.426
15402W        W82185  22.161  20.970  13.000
15403W        W82186  17.666  19.764  13.583
15404W        W82187  24.724  19.277  14.580
15405W        W82188   7.343  22.772   0.971
15406W        W82189  29.592   4.163   0.943
15407W        W82190  23.659  15.989   3.654
15408W        W82191  41.351  12.054   3.631
15409W        W82192  15.284  14.729   4.664
15410W        W82193  20.040   2.473   9.785
15411W        W82194  26.680  30.153   1.582
15412W        W82195  12.731  34.284  11.615
15413W        W82196  22.090  20.993   4.445
15414W        W82197  15.077   0.390   1.983
15415W        W82198  38.853  26.131   2.687
15416W        W82199  42.108  14.885   0.857
15417W        W82200  33.661  35.173   1.258
15418W        W82201   3.945  13.347   3.931
15419W        W82202  41.958  16.905  13.979
15420W        W82203  44.387  27.884   3.792
15421W        W82204  25.434  19.188  12.927
15422W        W82205  12.016  11.735   0.753
15423W        W82206   7.781   1.964   4.140
15424W        W82207  40.306  20.409   4.284
15425W        W82208  42.245  25.102  11.512
15426W        W82209  28.541  33.789  10.755
15427W        W82210  14.579  12.632   2.137
15428W        W82211  40.560  18.017   3.216
15429W        W82212  32.679  31.432   0.815
15430W        W82213  34.788   0.787  11.199
15431W        W82214   6.402  10.915  11.115
15432W        W82215  39.385  34.064  11.899
15433W        W82216  18.303  26.644  12.811
15434W        W82217   3.704  31.136  10.939
15435W        W82218   8.084  26.264   5.102
15436W        W82219  22.093  18.697   1.172
15437W        W82220  29.001   2.904  13.913
15438W        W82221  14.653  27.463   0.764
15439W        W82222  37.612   2.142  13.498
15440W        W82223   4.370   3.965   0.295
15441W        W82224  12.389  10.666  11.149
15442W        W82225   9.094  37.386   4.116
15443W        W82226  26.055  17.604   1.368
15444W        W82227   8.229   1.280   2.855
15445W        W82228   9.644   8.820  13.125
15446W        W82229  11.251  22.678  12.574
15447W        W82230   3.661  10.933  13.989
15448W        W82231  12.167  23.558   1.707
15449W        W82232  20.717  24.217  14.700
15450W        W82233  22.814  35.054  13.464
15451W        W82234  11.291  33.894   1.286
15452W        W82235  13.360   6.423  13.396
15453W        W82236  28.106  33.572  14.686
15454W        W82237   0.386  22.664  12.563
15455W        W82238  18.455  34.620  13.028
15456W        W82239  32.951   0.306  12.488
15457W        W82240   5.868   8.470  12.592
15458W        W82241  26.607  22.754  14.984
15459W        W82242  35.029  26.539   1.604
15460W        W82243  37.892   8.039   4.538
15461W        W82244   1.998  31.363  13.139
15462W        W82245  20.095  12.792  13.065
15463W        W82246  39.267  21.593  11.723
15464W        W82247  29.248  20.250  14.403
15465W        W82248  19.311   6.435  14.576
15466W        W82249   6.168  41.775  14.298
15467W        W82250  30.968  25.488   0.968
15468W        W82251  31.362  39.744  11.914
15469W        W82252  24.080  14.583  12.843
15470W        W82253   7.728  23.413   4.595
15471W        W82254  19.346  24.003  13.069
15472W        W82255  13.657  44.745  11.061
15473W        W82256   9.708   9.593  12.016
15474W        W82257  33.887  23.113   2.829
15475W        W82258  24.476   7.368   2.311
15476W        W82259  44.677  12.844   2.694
15477W        W82260   1.425   3.218  12.397
15478W        W82261   1.694  40.777   4.544
15479W        W82262   9.593  38.861  10.948
15480W        W82263  24.228   7.243  13.531
15481W        W82264  33.144  24.929   2.164
15482W        W82265   7.241  37.813   3.149
15483W        W82266  11.898  10.681   0.050
15484W        W82267  24.092   4.674  14.321
15485W        W82268  18.488   6.192  10.396
15486W        W82269  38.048  26.803   4.072
15487W        W82270  44.611   6.096   1.287
15488W        W82271  23.413   2.285  13.155
15489W        W82272  44.812  18.665   0.572
15490W        W82273  24.790  31.186   1.782
15491W        W82274  18.755   4.679  11.289
15492W        W82275  42.483  21.512   1.783
15493W        W82276  10.208  20.060  14.187
15494W        W82277  37.961  13.092   3.130
15495W        W82278  25.777  21.217  14.135
15496W        W82279  43.944  26.657  11.210
15497W        W82280  38.265  14.287   3.499
15498W        W82281  28.609  30.101  12.911
15499W        W82282  16.738   2.347   3.194
15500W        W82283   9.354  14.843  13.443
15501W        W82284   4.417   0.948  12.877
15502W        W82285  22.443   6.282  13.094
15503W        W82286  32.477  15.641   4.722
15504W        W82287  31.533   1.597   1.942
15505W        W82288   6.048  41.840   2.740
15506W        W82289  34.577  25.291  10.608
15507W        W82290  22.973  14.066  11.092
15508W        W82291  19.997  25.561   0.432
15509W        W82292  29.804  33.018  14.480
15510W        W82293   8.848   4.612  12.050
15511W        W82294  13.270  38.380   2.766
15512W        W82295  29.504  25.643  13.468
15513W        W82296  31.470  34.010  14.120
15514W        W82297  37.790  33.078   1.960
15515W        W82298  21.923  18.255   5.064
15516W        W82299   1.476  21.846  12.564
15517W        W82300   5.693  30.648  12.414
15518W        W82301   6.836  16.032   4.090
15519W        W82302  24.257  14.720   3.831
15520W        W82303  15.593  42.908   0.890
15521W        W82304   6.853  17.338  12.874
15522W        W82305  35.922  38.740  10.427
15523W        W82306  30.115   2.975   0.417
15524W        W82307  31.867   2.010  13.496
15525W        W82308   8.770   6.835  10.518
15526W        W82309  11.256  31.644  13.880
15527W        W82310  27.922  17.440  12.178
15528W        W82311  15.046  33.126  11.232
15529W        W82312  12.827  13.705   2.338
15530W        W82313  22.298  21.039   1.883
15531W        W82314  14.768  35.139  10.774
15532W        W82315   4.931  14.758  12.084
15533W        W82316  35.311   9.170   9.998
15534W        W82317  15.885   3.440   4.555
15535W        W82318   4.293   3.947   2.835
15536W        W82319  34.563  28.739   3.524
15537W        W82320  25.126  23.544   5.537
15538W        W82321  21.304  19.512   1.813
15539W        W82322  10.906  38.353   3.400
15540W        W82323  30.225   8.769  13.955
15541W        W82324   3.969  22.998  14.362
15542W        W82325  31.485  42.795  13.390
15543W        W82326   8.226  37.079  11.922
15544W        W82327   9.234  38.023  10.949
15545W        W82328  41.616   6.133   1.411
15546W        W82329   1.006  11.322   4.215
15547W        W82330  41.142   0.261   2.313
15548W        W82331   7.674   7.633   5.232
15549W        W82332  18.236   8.845  11.926
15550W        W82333  23.671  43.346  14.979
15551W        W82334  29.205   2.811   4.408
15552W        W82335   7.976   8.677   0.788
15553W        W82336   9.858   9.116  11.060
15554W        W82337  15.139  39.544   0.253
15555W        W82338   2.681  13.689   0.347
15556W        W82339  36.959   7.611  11.010
15557W        W82340  36.310  31.716   3.601
15558W        W82341  32.177  12.333   3.836
15559W        W82342   5.213  20.333   0.691
15560W        W82343   0.874   5.916  13.091
15561W        W82344  40.593  28.502   4.599
15562W        W82345   6.666  37.359   2.194
15563W        W82346   0.548   2.003   1.481
15564W        W82347  11.142  28.708  14.776
15565W        W82348  35.834  14.913   5.102
15566W        W82349  19.175  10.314  10.681
15567W        W82350  20.186  40.403  13.424
15568W        W82351  19.478  37.826  11.063
15569W        W82352  14.052  10.871  12.926
15570W        W82353  24.983  40.817  11.555
15571W        W82354  33.982  39.309  11.451
15572W        W82355   3.209  30.428   0.116
15573W        W82356  39.446  32.853  14.572
15574W        W82357  18.314  32.921  13.437
15575W        W82358  17.361  16.768   1.380
15576W        W82359  34.353   0.281   0.354
15577W        W82360  21.766   4.702   3.747
15578W        W82361  18.804  37.311   2.908
15579W        W82362  10.118  34.960  14.391
15580W        W82363  36.617  39.486  10.497
15581W        W82364  14.216  41.438  12.459
15582W        W82365  35.445  42.438   0.344
15583W        W82366  12.870  12.906   3.309
15584W        W82367  35.061  19.774  13.100
15585W        W82368  20.124   0.166  14.925
15586W        W82369  15.763  34.331  11.973
15587W        W82370  36.351   1.417  13.949
15588W        W82371  28.231  44.006   2.219
15589W        W82372  15.359  22.739   1.361
15590W        W82373  32.500  38.572   2.556
15591W        W82374  39.759  39.924  13.340
15592W        W82375  16.590  27.208  14.772
15593W        W82376  17.551   4.321  12.642
15594W        W82377   3.624   0.252   3.099
15595W        W82378  33.911  30.173  10.703
15596W        W82379  20.366  14.170   3.169
15597W        W82380  21.102  22.147  12.820
15598W        W82381  12.878  33.069   1.767
15599W        W82382  27.655  11.288   2.638
15600W        W82383  10.622   5.722  11.536
15601W        W82384  26.458  32.479   4.998
15602W        W82385   6.051  16.023  14.966
15603W        W82386  36.409  39.886   2.890
15604W        W82387  33.644  12.116  13.896
15605W        W82388   7.402  43.698  14.654
15606W        W82389  27.935  15.550  11.035
15607W        W82390  20.737   6.816   0.877
15608W        W82391  33.495  11.995   3.557
15609W        W82392  15.155   3.008   0.431
15610W        W82393  37.011  39.323   2.453
15611W        W82394  40.941  25.247  10.583
15612W        W82395  16.340  30.848   1.753
15613W        W82396  11.570  42.563  12.488
15614W        W82397   5.161  33.472   1.174
15615W        W82398   6.918  35.840   2.237
15616W        W82399  43.826   5.105   3.314
15617W        W82400   0.845   6.716   2.246
15618W        W82401  26.259  31.963  11.159
15619W        W82402  19.544  13.928  12.909
15620W        W82403  17.275  17.111  12.676
15621W        W82404  19.583  36.175   0.683
15622W        W82405  37.127  25.203   1.839
15623W        W82406  25.670  26.458  13.035
15624W        W82407   5.636  12.067   1.376
15625W        W82408  11.458  16.472  11.684
15626W        W82409  27.453   4.313   2.737
15627W        W82410   2.026  14.651  12.008
15628W        W82411  35.950  35.000   3.340
15629W        W82412  21.579  38.265  12.769
15630W        W82413  15.982  14.936  10.721
15631W        W82414   7.657   6.858   0.946
15632W        W82415  38.929  10.397  12.328
15633W        W82416  23.611  25.962  13.976
15634W        W82417  26.115   1.849   4.914
15635W        W82418   4.251  12.593  13.444
15636W        W82419  43.053   3.841   2.645
15637W        W82420  17.597  11.303   0.477
15638W        W82421  27.659   7.166   0.065
15639W        W82422   1.529  19.096   0.699
15640W        W82423  38.866  44.923   0.496
15641W        W82424  44.007   2.124   3.445
15642W        W82425  25.082  12.506   2.448
15643W        W82426  35.804  37.887  10.986
15644W        W82427  44.270  29.466   0.438
15645W        W82428  27.608  44.784   1.304
15646W        W82429  34.028   8.449  11.963
15647W        W82430  43.364  28.009   4.518
15648W        W82431  31.715  26.649  13.850
15649W        W82432  16.646  25.181   2.420
15650W        W82433  38.446   5.977  13.484
15651W        W82434  21.223  16.269   2.273
15652W        W82435  42.784  39.608   4.228
15653W        W82436  16.382  16.043  11.051
15654W        W82437  38.724  28.882   3.482
15655W        W82438  36.362  33.048   0.048
15656W        W82439  19.169  20.478   1.539
15657W        W82440  32.917   1.961   2.204
15658W        W82441   5.592  43.889  10.800
15659W        W82442  26.619  18.778  14.299
15660W        W82443  17.780  12.250   2.297
15661W        W82444  22.171  26.013  13.009
15662W        W82445  27.725  25.589  14.769
15663W        W82446  19.987  30.638   2.804
15664W        W82447   6.934   0.916  12.145
15665W        W82448  36.095  42.775   4.366
15666W        W82449  30.863   6.870  12.586
15667W        W82450  17.154   3.526  11.158
15668W        W82451  16.600  10.888  14.308
15669W        W82452  41.988  43.545  10.722
15670W        W82453   8.245  41.097  13.846
15671W        W82454  18.400   0.987  12.253
15672W        W82455  43.185  30.697   2.172
15673W        W82456  24.046  31.944   3.689
15674W        W82457  30.205  36.182  12.009
15675W        W82458   5.220   8.789   0.894
15676W        W82459  38.149   7.452  11.929
15677W        W82460  35.472  32.455  12.675
15678W        W82461  25.190  44.833  10.422
15679W        W82462  18.118  40.889   1.173
15680W        W82463  12.619  22.974   4.480
15681W        W82464  17.092  27.789   0.745
15682W        W82465  40.387  28.673  11.514
15683W        W82466  15.571  17.274  12.914
15684W        W82467  32.664  38.098   3.282
15685W        W82468  27.106  26.369   2.783
15686W        W82469  22.918   1.047   4.127
15687W        W82470  20.678  43.564  12.515
15688W        W82471  30.461  38.784   2.247
15689W        W82472  35.052   8.755   0.236
15690W        W82473   4.253  13.468  14.510
15691W        W82474  40.264  37.270  14.134
15692W        W82475   5.506  39.650   4.523
15693W        W82476  19.160  10.782   3.196
15694W        W82477   0.951   6.500  11.485
15695W        W82478  29.440   7.694  13.891
15696W        W82479   7.151  24.709   2.319
15697W        W82480  27.545  32.159  10.890
15698W        W82481  42.531  43.295   3.680
15699W        W82482  17.982  37.848   9.861
15700W        W82483  28.653   1.213   3.225
15701W        W82484  24.021  17.138  12.002
15702W        W82485   9.683  21.869   2.799
15703W        W82486  27.565  36.991   4.144
15704W        W82487  23.543  33.121   3.424
15705W        W82488  32.455   0.354  11.492
15706W        W82489  18.926  40.537   4.817
15707W        W82490  20.398  16.528   4.802
15708W        W82491  40.312  43.799  10.509
15709W        W82492   5.384  24.110   3.857
15710W        W82493  33.629  34.433  10.040
15711W        W82494  19.566   9.170   2.811
15712W        W82495  24.686   4.550  13.513
15713W        W82496  12.247  32.532   1.414
15714W        W82497  32.912   6.814   1.485
15715W        W82498  21.551  25.713   1.934
15716W        W82499  34.271  44.735  13.094
15717W        W82500  36.401  11.203   4.231
15718W        W82501  29.554  24.748   0.015
15719W        W82502   9.633  23.624  14.369
15720W        W82503  34.581  12.080  13.399
15721W        W82504  39.218  38.408  10.659
15722W        W82505  32.384  30.871  12.882
15723W        W82506   4.991  14.120   0.369
15724W        W82507   5.371   9.214  10.763
15725W        W82508  40.047  35.286  11.653
15726W        W82509  10.841  38.917   1.429
15727W        W82510  29.060  38.191   4.725
15728W        W82511  12.357   7.890  11.710
15729W        W82512  34.169  15.967   3.661
15730W        W82513  36.503  43.319   4.170
15731W        W82514  24.300  22.513  13.047
15732W        W82515  39.543   9.855   4.583
15733W        W82516  23.188   6.715   2.419
15734W        W82517  31.634  18.656  10.843
15735W        W82518  29.132  10.271  12.779
15736W        W82519   7.839  29.666   3.657
15737W        W82520  31.937   5.924  10.603
15738W        W82521  19.357   8.654   3.375
15739W        W82522  28.489  40.290  13.086
15740W        W82523  23.788  28.932  10.495
15741W        W82524  21.053  12.587   0.994
15742W        W82525   8.838  40.713   4.875
15743W        W82526  34.538  30.000  14.858
15744W        W82527  13.591  23.565  11.564
15745W        W82528  11.330   0.226  13.117
15746W        W82529  11.847  27.433  11.489
15747W        W82530  33.924  15.978   0.039
15748W        W82531  23.977  13.256   0.044
15749W        W82532  40.118  38.502   4.947
15750W        W82533   1.166  35.624  12.018
15751W        W82534  23.178  29.223   0.655
15752W        W82535   5.134  43.918  10.558
15753W        W82536  32.284  19.722   4.176
15754W        W82537  39.627  24.062   1.721
15755W        W82538  15.668   5.033  11.124
15756W        W82539   5.178  38.049  11.237
15757W        W82540   3.720  30.110  12.044
15758W        W82541  38.009  27.387  14.308
15759W        W82542  19.478  26.497  10.866
15760W        W82543  21.621  20.954  10.529
15761W        W82544  42.982  27.613   3.678
15762W        W82545   0.205  17.322   0.788
15763W        W82546  17.149  30.381   1.785
15764W        W82547  43.914  21.063  14.885
15765W        W82548  43.269  19.753   5.079
15766W        W82549  35.530  17.105   1.177
15767W        W82550  34.443   6.146  13.368
15768W        W82551  21.473  11.731  11.280
15769W        W82552  29.015  30.826   3.857
15770W        W82553  36.389  35.061  11.608
15771W        W82554  13.808  33.025   4.626
15772W        W82555  30.313  40.502   3.641
15773W        W82556  18.188  20.889   1.857
15774W        W82557  26.619  11.259   0.246
15775W        W82558  32.393  17.543   1.309
15776W        W82559  21.290  32.574   0.371
15777W        W82560  22.297   8.770  12.202
15778W        W82561   0.733  36.467  12.173
15779W        W82562  15.642  38.783   1.935
15780W        W82563   0.303   5.386   2.534
15781W        W82564   3.872   6.245   3.127
15782W        W82565  44.241  24.481   1.938
15783W        W82566  28.044  17.802   2.946
15784W        W82567  25.857  19.532  12.412
15785W        W82568  30.154  21.288   4.093
15786W        W82569  20.054  42.700  12.911
15787W        W82570  25.427   5.298  11.985
15788W        W82571   0.047  19.530   4.515
15789W        W82572  29.659  42.420   5.103
15790W        W82573  30.085  20.966  12.948
15791W        W82574  43.301   1.293   3.886
15792W        W82575  41.269  35.098  12.361
15793W        W82576  39.864  34.032  12.144
15794W        W82577  11.805  40.398  13.943
15795W        W82578   9.850  41.589   2.004
15796W        W82579  15.104  42.700  14.830
15797W        W82580  20.065   4.930  10.821
15798W        W82581  32.923  29.456  14.434
15799W        W82582   1.486  34.469  11.502
15800W        W82583  33.130  19.558   9.624
15801W        W82584  31.612  17.016   0.814
15802W        W82585  29.385  29.926  10.719
15803W        W82586   4.463  36.134  14.780
15804W        W82587   8.217   2.358   2.908
15805W        W82588  29.567   1.270  13.439
15806W        W82589  44.393   3.934   4.581
15807W        W82590  26.098   9.330   1.406
15808W        W82591  37.654  39.434  10.514
15809W        W82592  41.735   9.722  11.473
15810W        W82593  33.444  27.971  11.893
15811W        W82594  39.069  44.421   3.717
15812W        W82595  14.368  28.176   3.152
15813W        W82596  14.123  40.354  13.192
15814W        W82597  18.887  28.354  12.941
15815W        W82598  34.438  19.082   3.538
15816W        W82599  36.674  39.367   4.275
15817W        W82600  20.289  24.549   3.801
15818W        W82601  24.407  36.423  12.983
15819W        W82602  27.839  32.980  12.500
15820W        W82603  31.199   0.824   0.216
15821W        W82604  32.231  20.103   3.231
15822W        W82605  21.122   3.983   3.577
15823W        W82606   5.897  10.837   3.608
15824W        W82607  18.295   3.446  14.326
15825W        W82608  11.190   6.069  14.309
15826W        W82609  23.775  42.482  14.758
15827W        W82610   0.826  13.072  14.981
15828W        W82611  27.639  33.556   3.254
15829W        W82612  28.669  39.600  10.589
15830W        W82613  41.391  19.044  14.429
15831W        W82614   7.609  20.681  14.505
15832W        W82615  17.115  39.709   4.989
15833W        W82616  42.050   4.955   4.219
15834W        W82617  17.267  29.128  13.499
15835W        W82618  25.253   3.457   5.116
15836W        W82619  22.651  26.155  11.597
15837W        W82620  39.956  30.087   2.831
15838W        W82621  38.703  10.703  10.567
15839W        W82622  18.674  20.632  11.568
15840W        W82623  35.372  25.395   1.710
15841W        W82624  15.651  21.228  11.284
15842W        W82625  33.594  42.000  14.270
15843W        W82626  20.157   7.720   2.430
15844W        W82627  33.786   1.398   4.214
15845W        W82628  32.484  31.088   1.194
15846W        W82629  26.465  32.810   4.070
15847W        W82630   8.383  32.866   1.504
15848W        W82631  41.747  26.068  14.498
15849W        W82632  30.531   7.704  10.640
15850W        W82633  30.487  32.203  14.766
15851W        W82634  30.004  35.800   3.291
15852W        W82635  41.267  20.470  13.087
15853W        W82636  28.240  15.813   1.721
15854W        W82637  37.815   3.220   3.592
15855W        W82638  31.000  32.622   2.952
15856W        W82639  40.587  14.278  12.162
15857W        W82640   9.432   5.248  14.922
15858W        W82641   3.471  44.771  12.424
15859W        W82642   2.379  39.190   9.948
15860W        W82643  12.753  13.261  11.228
15861W        W82644  32.161  36.005   3.185
15862W        W82645   3.228  33.478   3.249
15863W        W82646  16.259  36.343   4.677
15864W        W82647  10.736   4.024   4.532
15865W        W82648   6.275  21.478   4.040
15866W        W82649  34.866  12.639  14.890
15867W        W82650  13.155  44.806   0.952
15868W        W82651   1.332  15.082   0.942
15869W        W82652   9.645  19.832   3.814
15870W        W82653  43.840   1.477  13.008
15871W        W82654   1.384  43.301  11.104
15872W        W82655  36.472   1.567  12.515
15873W        W82656   7.128  41.869   0.923
15874W        W82657   6.579  26.641  11.927
15875W        W82658  12.776   9.669   0.284
15876W        W82659  35.559  13.588   2.399
15877W        W82660  16.111  37.864   1.920
15878W        W82661  38.847   0.945   4.399
15879W        W82662  14.717  28.549  14.225
15880W        W82663  12.251  17.163   2.690
15881W        W82664  41.524  19.333   3.291
15882W        W82665   9.746  34.597  13.506
15883W        W82666  43.049  15.212   1.454
15884W        W82667  35.090  28.075   3.815
15885W        W82668  33.377  36.560   2.706
15886W        W82669   8.766  11.922   2.281
15887W        W82670  20.995  18.232  14.782
15888W        W82671   0.429   1.445  12.520
15889W        W82672  39.679   7.081  11.108
15890W        W82673  19.733  37.324   2.883
15891W        W82674   4.944  29.432  12.351
15892W        W82675  34.449   7.638  12.509
15893W        W82676  32.243  37.320   0.821
15894W        W82677  12.821   0.743  10.755
15895W        W82678  25.752  31.525  11.991
15896W        W82679  42.823   5.448   3.703
15897W        W82680   0.070   8.221   0.401
15898W        W82681  28.540   1.363  13.325
15899W        W82682  14.283  17.546   0.481
15900W        W82683   6.856  18.332  14.260
15901W        W82684  37.375   4.449   1.783
15902W        W82685  18.204   7.828  12.047
15903W        W82686  28.983  31.976  10.689
15904W        W82687  12.759  31.906   4.148
15905W        W82688  28.605  15.244   4.218
15906W        W82689  22.065   9.300  13.718
15907W        W82690   1.186  34.793  12.341
15908W        W82691  13.071  13.370   1.728
15909W        W82692  21.465   7.265  12.627
15910W        W82693   1.535   2.256   1.353
15911W        W82694  12.304  13.126   2.197
15912W        W82695  19.071  10.315  11.598
15913W        W82696  27.941  18.840   4.513
15914W        W82697  25.410  39.281  13.880
15915W        W82698  19.539  21.740   0.739
15916W        W82699  16.069  16.721  12.639
15917W        W82700  13.880  19.998   2.873
15918W        W82701  40.447  18.512   4.137
15919W        W82702  10.140  43.898   2.320
15920W        W82703  23.530  31.544  11.477
15921W        W82704  35.571  15.411  12.205
15922W        W82705  27.167  24.226   3.655
15923W        W82706  43.577   7.405  12.609
15924W        W82707  38.746  12.402   1.162
15925W        W82708   7.441   7.313  13.430
15926W        W82709  12.229  35.847   1.823
15927W        W82710  35.631  14.128   3.762
15928W        W82711  24.496  39.537  11.481
15929W        W82712  12.834  31.583  14.386
15930W        W82713  32.070  35.032   1.295
15931W        W82714   1.304  25.299   4.029
15932W        W82715  31.298  11.948   0.447
15933W        W82716   1.282  27.395  12.043
15934W        W82717  17.136   0.649  14.878
15935W        W82718  30.533  19.581  10.149
15936W        W82719  32.547  35.096  11.419
15937W        W82720  38.107  44.956   4.659
15938W        W82721  41.563  27.913  11.365
15939W        W82722  39.309   4.437   1.362
15940W        W82723  42.384   9.513   3.803
15941W        W82724   1.951  34.998  12.097
15942W        W82725  21.675  34.865   0.407
15943W        W82726  23.886  39.527   3.358
15944W        W82727  21.321  18.186   1.370
15945W        W82728  41.801  35.095  12.400
15946W        W82729  32.507  43.017   3.353
15947W        W82730  35.127   3.321   2.484
15948W        W82731   8.075  18.824   3.554
15949W        W82732  17.776  24.650  11.353
15950W        W82733  35.876  33.370   3.802
15951W        W82734   0.734  17.600  10.503
15952W        W82735   6.223  43.324  14.835
15953W        W82736  22.584  43.499   0.857
15954W        W82737   5.041  28.715   1.157
15955W        W82738  40.635  27.553  11.081
15956W        W82739  41.179  33.066  14.790
15957W        W82740  25.493   4.802  11.824
15958W        W82741   7.681  39.366  10.639
15959W        W82742   2.972   1.846  10.709
15960W        W82743  29.672  10.718  11.100
15961W        W82744  29.060  33.130   2.223
15962W        W82745   3.131  41.985   2.716
15963W        W82746  25.116  41.433  13.986
15964W        W82747  16.161  25.664  11.161
15965W        W82748   7.899  10.528   2.489
15966W        W82749   5.049  21.599   3.930
15967W        W82750  31.554   7.279   0.226
15968W        W82751  13.805  10.737  10.651
15969W        W82752  10.930  15.291   2.834
15970W        W82753   4.637   8.104  12.051
15971W        W82754   0.995  15.243  13.754
15972W        W82755  14.701  41.702  14.910
15973W        W82756  42.816  31.567  13.200
15974W        W82757  42.982  17.014  14.819
15975W        W82758  42.155   6.820  12.893
15976W        W82759   1.721  20.781  13.329
15977W        W82760  12.790  42.423  14.306
15978W        W82761  39.838   6.515  14.010
15979W        W82762   1.239  32.307   4.443
15980W        W82763  24.524  29.084   0.210
15981W        W82764  24.063  22.213  13.419
15982W        W82765   2.037  13.652   4.097
15983W        W82766  24.166  10.692  14.413
15984W        W82767  28.909   5.876  14.239
15985W        W82768  32.804  31.430  11.987
15986W        W82769  37.921   6.760  11.588
15987W        W82770  13.688  44.722   3.165
15988W        W82771  27.077  24.237  14.262
15989W        W82772  29.515  30.685   4.608
15990W        W82773  19.119  18.958  14.084
15991W        W82774   3.994   1.566  13.498
15992W        W82775  15.733  13.608   3.212
15993W        W82776  30.448  26.104   2.300
15994W        W82777   0.331  24.048   1.881
15995W        W82778  16.200  14.351  11.115
15996W        W82779   9.173  38.865  11.409
15997W        W82780  32.599  18.949   0.320
15998W        W82781  32.638  21.524   1.139
15999W        W82782  23.039  15.607   2.187
16000W        W82783  38.396  44.847  12.473
16001W        W82784  31.646  33.984   4.306
16002W        W82785  32.569  44.677  12.712
16003W        W82786  11.540   0.223  14.805
16004W        W82787  10.708  26.697   1.927
16005W        W82788   3.706  12.958  11.083
16006W        W82789  14.898  23.545   2.412
16007W        W82790   1.555   9.044  10.093
16008W        W82791  26.537  26.293  11.145
16009W        W82792   5.758  30.064  11.102
16010W        W82793  21.037  43.371   4.522
16011W        W82794  14.700  33.356   1.664
16012W        W82795  28.472   0.427  12.477
16013W        W82796  40.282  28.538  10.548
16014W        W82797  37.686  13.434  11.562
16015W        W82798  34.588  31.076  14.485
16016W        W82799  26.168  40.940   1.351
16017W        W82800  21.266  12.614   3.380
16018W        W82801  33.645  19.516  13.501
16019W        W82802  33.848  31.024  12.639
16020W        W82803   8.707  33.426  12.509
16021W        W82804  26.634   1.553   0.549
16022W        W82805   1.292  40.764   2.672
16023W        W82806  32.983  19.293   0.394
16024W        W82807   5.193   7.925   3.724
16025W        W82808   8.516  29.020   2.778
16026W        W82809  30.009  29.163  10.729
16027W        W82810  25.321  15.069  14.956
16028W        W82811  34.928  35.889  11.594
16029W        W82812  14.335  10.031  14.815
16030W        W82813  26.038   1.298  13.001
16031W        W82814   0.815   7.611   2.991
16032W        W82815  12.450  33.979  14.717
16033W        W82816   1.562   0.441   1.199
16034W        W82817  22.003  10.576  13.925
16035W        W82818   1.581  13.480  12.439
16036W        W82819   5.729  34.369  11.580
16037W        W82820   9.903   2.544   1.806
16038W        W82821   3.014   8.730   0.359
16039W        W82822   6.120  39.785  11.932
16040W        W82823  18.996   7.202   1.012
16041W        W82824  21.161  43.435  13.883
16042W        W82825   5.683  19.128  13.726
16043W        W82826  33.365  34.012  10.438
16044W        W82827  18.053  43.104   3.706
16045W        W82828  37.452  29.553  11.712
16046W        W82829  33.604  34.472   0.495
16047W        W82830  44.624  42.253  12.638
16048W        W82831  17.630  23.430  14.686
16049W        W82832  29.457   3.352  10.838
16050W        W82833   5.953  23.792  12.477
16051W        W82834  27.623  18.017  14.615
16052W        W82835  34.091  18.177  14.404
16053W        W82836  22.026  44.532   1.376
16054W        W82837  27.871  19.171  11.155
16055W        W82838  20.015  27.994  13.758
16056W        W82839   3.310  27.093  10.642
16057W        W82840   0.068   7.340  10.273
16058W        W82841  30.533  34.964   0.741
16059W        W82842  13.213  32.517   3.550
16060W        W82843  28.936  14.257   3.107
16061W        W82844  28.517  18.184   3.552
16062W        W82845  15.731  18.185   2.017
16063W        W82846  24.447  40.895   1.754
16064W        W82847  12.223  15.610  14.414
16065W        W82848  12.690  16.296   2.451
16066W        W82849  23.230  24.407   1.935
16067W        W82850  37.903  12.134   4.237
16068W        W82851  42.575  29.903  13.930
16069W        W82852  21.060  10.081  11.965
16070W        W82853  42.957  29.338  13.469
16071W        W82854  15.097  14.361  14.564
16072W        W82855  10.214  25.557   4.751
16073W        W82856  15.153  42.917  10.983
16074W        W82857  26.090  16.098   4.710
16075W        W82858  22.286  38.783   1.115
16076W        W82859  43.678   0.285   1.932
16077W        W82860  25.136   8.936   2.218
16078W        W82861  33.526   6.663  13.878
16079W        W82862  22.074  41.565   1.248
16080W        W82863  28.149  31.347   4.657
16081W        W82864  23.625   3.041   0.596
16082W        W82865   9.227  37.297   0.730
16083W        W82866  30.858  42.544   4.590
16084W        W82867   4.217  32.431  14.562
16085W        W82868  15.527   3.249   3.169
16086W        W82869  43.059   0.238   3.596
16087W        W82870   1.266   9.802   1.973
16088W        W82871  28.616  40.047  12.615
16089W        W82872  35.809  18.043  12.198
16090W        W82873  20.603  15.183  12.159
16091W        W82874  19.775  36.843   1.109
16092W        W82875  10.254  39.310   1.805
16093W        W82876  14.921  13.003   0.415
16094W        W82877  13.995  38.387  10.339
16095W        W82878  29.403  15.308   2.319
16096W        W82879  29.588  10.551   0.432
16097W        W82880  28.086  27.469  13.333
16098W        W82881  32.147  29.724  11.106
16099W        W82882  29.397   6.811  12.547
16100W        W82883  33.057  21.797  13.848
16101W        W82884   2.279  44.483  10.752
16102W        W82885  34.674  19.533  12.495
16103W        W82886   5.127  25.507   4.634
16104W        W82887  22.619  15.292   4.155
16105W        W82888  14.812  44.756  13.884
16106W        W82889   0.902  33.078   5.151
16107W        W82890  23.628  37.925   3.885
16108W        W82891  39.042  32.141  14.354
16109W        W82892  37.612   1.171  11.122
16110W        W82893  12.698  43.661   4.602
16111W        W82894  43.250   9.340   4.009
16112W        W82895   3.432  10.750  11.791
16113W        W82896  37.070  16.365  14.518
16114W        W82897   1.258  15.108   1.511
16115W        W82898  13.711  38.537   1.877
16116W        W82899  30.923   9.342  10.928
16117W        W82900  35.158  19.497   2.310
16118W        W82901   1.317  38.087   0.372
16119W        W82902  34.561  44.733   4.623
16120W        W82903  14.699  37.592  10.960
16121W        W82904  14.206  13.724  12.808
16122W        W82905  13.818  20.931  11.084
16123W        W82906  16.683  17.237   0.205
16124W        W82907  23.247   1.927   4.522
16125W        W82908  17.313  16.608  12.876
16126W        W82909  34.646  15.114  11.528
16127W        W82910  34.563  30.107   4.215
16128W        W82911  30.089  23.329   2.777
16129W        W82912  12.436  15.385   3.371
16130W        W82913  33.116  27.668   2.317
16131W        W82914  26.960  17.316   0.284
16132W        W82915  20.644  30.491  14.549
16133W        W82916  31.444  14.949   4.189
16134W        W82917  41.475  10.713  11.958
16135W        W82918  20.464  33.155  14.898
16136W        W82919  35.668  13.952  11.962
16137W        W82920  19.579  28.975  10.686
16138W        W82921  29.735  19.223   3.857
16139W        W82922  31.700  10.291   2.363
16140W        W82923   9.231  35.133  10.329
16141W        W82924  38.842  40.348  14.856
16142W        W82925   3.038   4.833  14.838
16143W        W82926   2.400  24.951   2.845
16144W        W82927  44.033  44.849   1.769
16145W        W82928  12.249  20.184   2.591
16146W        W82929  29.113  38.885   3.634
16147W        W82930  22.738  24.689  10.131
16148W        W82931  13.308  23.723   3.654
16149W        W82932  36.577  25.148   1.863
16150W        W82933   0.989  38.553  14.891
16151W        W82934  18.238  12.188  14.864
16152W        W82935  31.887  44.258   1.194
16153W        W82936  15.166  30.470   3.289
16154W        W82937  20.119  10.524   3.194
16155W        W82938   2.790  34.791  14.126
16156W        W82939  34.486   1.983  11.632
16157W        W82940  25.759   1.774  11.201
16158W        W82941  31.433   4.977   1.303
16159W        W82942  24.979   3.361  12.982
16160W        W82943  34.401  23.064   1.910
16161W        W82944  24.564  31.663   1.579
16162W        W82945  34.979  19.754   1.865
16163W        W82946   7.324   0.701   4.506
16164W        W82947  10.708  20.382  13.531
16165W        W82948  40.240  25.502   3.392
16166W        W82949  23.607  17.809  11.633
16167W        W82950   3.284  40.360  10.702
16168W        W82951   1.467  40.062  11.970
16169W        W82952  39.468  21.226   2.203
16170W        W82953   7.899  41.683  13.761
16171W        W82954   0.570   5.399   1.267
16172W        W82955   1.351  39.737   1.735
16173W        W82956  28.432   4.678  14.008
16174W        W82957   5.404  14.164  10.719
16175W        W82958   7.628  28.207  11.663
16176W        W82959  15.234  18.245  12.114
16177W        W82960  32.015   3.265   3.348
16178W        W82961  13.894  15.933   0.128
16179W        W82962  35.085   4.073  14.879
16180W        W82963  38.825  27.404  12.585
16181W        W82964  42.709  38.811  14.365
16182W        W82965  34.003   0.386  14.935
16183W        W82966  31.263  21.585   2.291
16184W        W82967   4.824   4.504   1.216
16185W        W82968   7.753  12.219  14.841
16186W        W82969  16.780  41.846  13.824
16187W        W82970  42.491  34.528  14.741
16188W        W82971  34.538  35.374  13.524
16189W        W82972   9.049   7.816   2.691
16190W        W82973  40.058   6.928  14.303
16191W        W82974  23.098   1.792  10.141
16192W        W82975  36.972  31.382   2.053
16193W        W82976  27.093  30.093   2.431
16194W        W82977  28.412  37.878  12.604
16195W        W82978  40.183   5.448   4.403
16196W        W82979  11.667  31.047  11.638
16197W        W82980   0.659  26.932  13.945
16198W        W82981  44.455  19.781  13.958
16199W        W82982   2.774  38.589   1.306
16200W        W82983  44.291  22.164   4.050
16201W        W82984  43.685   4.254  11.940
16202W        W82985  36.809  21.112  13.307
16203W        W82986  21.657  34.075  13.342
16204W        W82987  10.125  19.837   2.635
16205W        W82988   5.797  35.279  14.370
16206W        W82989  30.411  31.164  13.902
16207W        W82990  16.621  20.461   4.557
16208W        W82991  27.051  12.052  10.516
16209W        W82992   1.649  33.279   3.717
16210W        W82993  34.950  16.501  14.305
16211W        W82994  44.714  19.165  11.212
16212W        W82995  10.676   2.987   1.669
16213W        W82996  18.508  16.155  11.964
16214W        W82997  30.891  13.871  12.464
16215W        W82998  34.127   0.903   2.212
16216W        W82999  44.868  43.163  14.190
16217W        W83000  39.309  24.055  14.509
16218W        W83001   0.065  15.539   0.314
16219W        W83002  21.782  18.231   1.582
16220W        W83003  20.231  37.897   0.350
16221W        W83004  23.571  23.593   1.404
16222W        W83005  28.174  39.972   4.932
16223W        W83006  28.934   2.367   4.618
16224W        W83007   3.905   0.337  10.700
16225W        W83008  36.343  17.053   2.841
16226W        W83009   7.456  40.345   4.575
16227W        W83010   6.976  20.959   2.744
16228W        W83011  11.771   9.801   1.335
16229W        W83012  23.287  30.925   1.483
16230W        W83013  36.126  30.438  14.810
16231W        W83014  12.994  14.797   1.169
16232W        W83015  23.630  31.852   0.065
16233W        W83016  21.318  19.953   4.362
16234W        W83017  39.387  43.344  10.806
16235W        W83018  41.600  40.514  13.451
16236W        W83019  42.785   6.475  11.642
16237W        W83020  20.172   9.895   4.296
16238W        W83021  42.324  37.190   1.746
16239W        W83022  22.700  12.421   1.097
16240W        W83023  28.959  16.520  13.004
16241W        W83024  10.317  16.726   3.787
16242W        W83025  44.811  12.406  11.570
16243W        W83026  38.546  10.901  14.775
16244W        W83027   7.592  42.470  11.131
16245W        W83028   0.428  30.470   1.740
16246W        W83029  37.489  22.239   0.480
16247W        W83030   7.810  20.989  13.128
16248W        W83031  16.540  27.949  12.502
16249W        W83032  38.263  20.620  14.477
16250W        W83033  27.586   2.006   4.546
16251W        W83034   1.453  17.034   1.909
16252W        W83035  25.973  38.451   4.959
16253W        W83036   3.184  24.741   3.675
16254W        W83037  22.515  35.488  13.411
16255W        W83038  18.103   0.037   2.342
16256W        W83039  13.988  39.737   4.990
16257W        W83040  13.175  25.410   1.608
16258W        W83041  10.743  29.068   5.198
16259W        W83042  17.813  38.333   0.269
16260W        W83043  10.649  33.993   4.100
16261W        W83044  11.849   3.457   2.267
16262W        W83045  38.617   1.791  14.310
16263W        W83046   4.883  33.061   2.500
16264W        W83047   4.185  18.286   2.296
16265W        W83048  15.584  36.058   4.074
16266W        W83049  43.380   3.542  12.012
16267W        W83050  18.729  11.897   2.776
16268W        W83051   9.950   8.707   0.555
16269W        W83052  39.300  26.628   2.792
16270W        W83053  44.200  33.981   3.831
16271W        W83054  21.035  21.811   2.815
16272W        W83055  43.212  23.784   2.099
16273W        W83056  33.999  21.959  12.647
16274W        W83057  15.606  10.161  12.571
16275W        W83058  28.941  32.458  13.007
16276W        W83059   0.782  13.204   3.701
16277W        W83060  41.685  37.028  13.635
16278W        W83061  16.682  10.350   2.686
16279W        W83062   2.928  43.839   4.333
16280W        W83063  38.092  29.169   0.656
16281W        W83064  42.354  12.794  14.801
16282W        W83065  32.797  29.577   2.398
16283W        W83066  29.682  11.841   3.647
16284W        W83067  35.124  36.671  13.514
16285W        W83068  21.148  36.908   1.287
16286W        W83069   6.984  39.526   1.898
16287W        W83070   3.899  30.896  13.517
16288W        W83071   7.249  10.229  11.878
16289W        W83072  40.970   0.072  12.992
16290W        W83073  35.402  14.910  12.861
16291W        W83074   0.594  12.702  11.040
16292W        W83075  39.029  25.210  14.542
16293W        W83076   3.689   7.308   0.747
16294W        W83077  31.043   4.185  11.985
16295W        W83078  21.724  33.624  13.607
16296W        W83079  26.662  31.043   2.134
16297W        W83080  23.991   5.398  11.611
16298W        W83081  25.636  31.059   0.624
16299W        W83082  43.494  21.262   0.803
16300W        W83083  40.709  30.864   1.668
16301W        W83084  33.965  17.091  13.083
16302W        W83085  26.932  10.793   2.218
16303W        W83086  19.295  41.805  14.971
16304W        W83087  38.516   7.747   0.266
16305W        W83088  42.006   9.106  14.869
16306W        W83089  36.040  30.075   4.506
16307W        W83090  33.307  17.056  12.381
16308W        W83091  26.938  40.415   3.606
16309W        W83092   6.277  29.697   4.082
16310W        W83093  38.530  15.786   3.480
16311W        W83094  10.312  43.056  13.359
16312W        W83095  30.588  10.416   0.987
16313W        W83096  35.315  35.339  14.332
16314W        W83097  20.028  16.544   2.952
16315W        W83098  21.722   5.590   2.817
16316W        W83099  12.867   5.269  10.784
16317W        W83100   7.025   3.604  11.099
16318W        W83101  21.580  10.756   0.471
16319W        W83102   6.652   3.339   1.265
16320W        W83103   6.206  42.173  13.336
16321W        W83104  17.890  23.209  14.290
16322W        W83105   9.741  31.641   4.021
16323W        W83106  40.788  28.201   3.216
16324W        W83107  12.363  39.329   1.487
16325W        W83108  29.462  26.202  14.463
16326W        W83109   2.340  24.171  10.612
16327W        W83110  12.683  34.915   4.319
16328W        W83111  31.516  25.634  10.685
16329W        W83112  14.963   3.609  12.950
16330W        W83113   4.365   0.387  13.950
16331W        W83114   6.265   1.828  14.104
16332W        W83115  11.190  21.143   2.675
16333W        W83116  35.939  31.754  14.752
16334W        W83117  39.824  13.706   0.921
16335W        W83118  16.923  26.159   1.922
16336W        W83119   6.875  37.470   2.681
16337W        W83120  38.835  31.439  11.582
16338W        W83121  25.982  36.965   3.686
16339W        W83122  11.517   2.983   4.752
16340W        W83123  27.337  17.279   4.172
16341W        W83124  13.064  44.153   4.267
16342W        W83125  39.790   9.479   5.085
16343W        W83126  35.648  39.161   0.048
16344W        W83127   7.182  18.189   2.243
16345W        W83128   2.357  16.056   4.621
16346W        W83129  29.987   3.823   0.796
16347W        W83130  13.533  26.670   3.738
16348W        W83131  43.911  36.042  13.165
16349W        W83132  30.850  15.790   4.202
16350W        W83133  37.323  13.008  13.836
16351W        W83134   3.303  23.077  13.024
16352W        W83135  36.900  41.673   3.117
16353W        W83136  39.023  40.443  11.178
16354W        W83137   3.231  25.193   2.242
16355W        W83138  21.258  18.481  14.398
16356W        W83139  41.988  24.923   0.742
16357W        W83140  41.989  40.861   4.167
16358W        W83141   9.285  38.760  13.406
16359W        W83142  17.099  10.063  10.415
16360W        W83143  12.197  14.235   4.090
16361W        W83144  11.633   2.778   1.714
16362W        W83145  36.850  44.448   2.922
16363W        W83146  13.109   8.881  13.366
16364W        W83147  31.022  21.100   5.130
16365W        W83148   1.124  31.522   0.066
16366W        W83149  35.015  37.343   4.760
16367W        W83150   3.695  31.866  11.067
16368W        W83151  35.268  13.142   1.754
16369W        W83152  32.296  40.443   0.650
16370W        W83153   4.179  39.495   0.371
16371W        W83154  10.223   7.304  12.621
16372W        W83155  43.298  20.202  12.921
16373W        W83156  33.824  15.781  13.317
16374W        W83157  37.642  34.161  14.297
16375W        W83158  44.953  29.492  11.521
16376W        W83159  24.054  15.657   3.694
16377W        W83160   7.787  12.720   3.683
16378W        W83161   1.449   7.956   1.847
16379W        W83162  11.616  12.420   3.166
16380W        W83163   1.715  32.141  12.140
16381W        W83164  28.655  37.043   0.720
16382W        W83165   9.732   2.073  12.461
16383W        W83166   0.496  23.175   2.595
16384W        W83167  27.544   6.409   3.156
16385W        W83168  24.892  23.669  12.060
16386W        W83169  25.939   9.128  11.681
16387W        W83170  36.094  31.089  11.965
16388W        W83171  39.894  32.075   2.420
16389W        W83172  19.073  33.040  10.741
16390W        W83173  43.031  14.483  13.816
16391W        W83174  44.861  43.171   0.924
16392W        W83175  15.661  29.925   2.667
16393W        W83176  28.863  33.626   1.654
16394W        W83177  41.856  41.866  13.319
16395W        W83178  26.503  27.377   3.277
16396W        W83179  10.870   7.132  11.988
16397W        W83180  38.770   0.769  14.131
16398W        W83181  41.752  17.700   0.828
16399W        W83182  35.502   5.654  14.256
16400W        W83183  25.586  14.055  13.895
16401W        W83184   3.713  41.196   1.860
16402W        W83185  35.015  29.711   1.128
16403W        W83186  10.191  21.701   3.597
16404W        W83187  19.979   1.470   2.786
16405W        W83188   3.380  33.663   0.803
16406W        W83189  34.080   3.377  13.454
16407W        W83190   8.604   1.463   2.561
16408W        W83191  13.647  40.793   3.273
16409W        W83192   0.754   6.147  10.541
16410W        W83193  22.962   8.626   3.738
16411W        W83194  32.134  36.714  14.847
16412W        W83195   0.919  10.393  11.090
16413W        W83196   1.566   6.307   2.346
16414W        W83197  16.758  39.588  11.035
16415W        W83198  18.080   2.679   1.888
16416W        W83199  18.285   0.872   1.919
16417W        W83200   0.362  15.738  14.032
16418W        W83201  15.072  37.424  10.645
16419W        W83202  16.723  35.473   3.447
16420W        W83203  29.687  26.968   4.671
16421W        W83204  31.178  25.932   4.610
16422W        W83205  20.679   7.895  11.053
16423W        W83206  26.700  32.688   3.594
16424W        W83207  29.208   8.628  13.862
16425W        W83208  11.821  22.431   0.558
16426W        W83209  35.587  12.839  12.285
16427W        W83210   2.024  37.030  14.859
16428W        W83211   1.349  17.302   0.429
16429W        W83212  15.105  19.841   2.416
16430W        W83213  21.492  34.577  13.888
16431W        W83214  15.256   7.179   1.580
16432W        W83215   3.000  34.018   0.692
16433W        W83216  27.852  39.597  10.298
16434W        W83217  25.078  35.516   3.094
16435W        W83218   7.858  30.401   4.461
16436W        W83219  14.376  18.997   0.837
16437W        W83220  40.529   3.110   0.984
16438W        W83221   7.375  37.344  11.651
16439W        W83222   3.637  30.571  12.662
16440W        W83223  20.224  19.820   2.712
16441W        W83224  14.707  34.102   2.128
16442W        W83225  13.834  38.453  14.865
16443W        W83226  20.234  44.043  13.568
16444W        W83227  30.983  39.323   0.053
16445W        W83228  29.176  31.054   1.631
16446W        W83229  41.388  22.686   4.683
16447W        W83230   6.220  16.853  10.324
16448W        W83231  15.702  12.346   0.701
16449W        W83232   9.015  18.211   2.602
16450W        W83233  14.062  33.414   2.350
16451W        W83234   3.369  38.774  14.088
16452W        W83235   3.713  38.999   4.884
16453W        W83236  34.517  31.541  11.451
16454W        W83237  29.819  35.098   2.379
16455W        W83238  19.251   7.735   2.420
16456W        W83239   1.570  28.103   1.913
16457W        W83240  42.468  20.054  14.007
16458W        W83241   1.465  19.628  11.858
16459W        W83242  20.872  21.980   2.343
16460W        W83243   4.191  39.089  14.421
16461W        W83244  28.974  29.532   4.638
16462W        W83245  39.460  32.984   3.597
16463W        W83246  39.794  34.643   2.662
16464W        W83247  24.243  22.826   0.914
16465W        W83248  15.747   0.460   4.091
16466W        W83249   3.344  32.972  10.648
16467W        W83250  36.143  13.242  13.106
16468W        W83251  23.229  11.698  14.377
16469W        W83252  31.928   8.890  14.428
16470W        W83253  14.287  14.440  14.231
16471W        W83254  26.064   0.509   2.132
16472W        W83255   8.458  18.703   1.017
16473W        W83256  36.054  12.138   1.615
16474W        W83257   8.893  38.885   1.747
16475W        W83258  10.090  33.656   2.929
16476W        W83259   0.041   3.889  14.028
16477W        W83260  34.072   1.705   4.526
16478W        W83261  43.916   6.014   4.127
16479W        W83262  27.858  36.922   1.680
16480W        W83263  35.160   8.947   1.125
16481W        W83264  36.554   3.840  13.904
16482W        W83265  39.802   1.213  12.930
16483W        W83266  26.415  15.970  10.537
16484W        W83267  18.729  24.420  11.161
16485W        W83268  26.624   0.465   0.987
16486W        W83269   5.572  35.054  12.035
16487W        W83270   2.482  41.481   3.774
16488W        W83271  44.995   6.168   4.146
16489W        W83272  12.638   9.160   3.191
16490W        W83273  25.542  24.009  14.029
16491W        W83274  15.900  10.417  12.141
16492W        W83275  16.758  15.052   2.965
16493W        W83276  14.140  25.774   1.565
16494W        W83277  43.015  26.276  14.930
16495W        W83278  24.551  23.626  14.899
16496W        W83279  27.604  15.659   5.119
16497W        W83280  21.997  12.102   4.533
16498W        W83281  35.962   0.966   2.605
16499W        W83282   8.480   6.370   4.166
16500W        W83283  19.785  10.874  13.893
16501W        W83284   9.303  42.947   3.082
16502W        W83285  30.460  41.318   3.608
16503W        W83286   8.324  27.013  14.309
16504W        W83287  26.790  13.734   1.937
16505W        W83288  16.224   3.843   4.466
16506W        W83289  36.929  13.773   3.818
16507W        W83290  35.430  27.752   2.121
16508W        W83291  26.696  36.997   0.863
16509W        W83292  23.145  13.492  12.796
16510W        W83293  16.457   4.340  14.733
16511W        W83294  31.773   6.343   1.608
16512W        W83295  25.220  16.708   1.994
16513W        W83296  31.145  30.546   4.697
16514W        W83297  39.121  43.696  11.970
16515W        W83298  24.185  10.984  12.324
16516W        W83299  34.399  14.803   4.191
16517W        W83300   5.848  42.753   0.359
16518W        W83301   1.259  20.952  13.528
16519W        W83302  24.399   7.095  11.149
16520W        W83303  18.809  11.950   5.108
16521W        W83304  44.441   8.136  14.838
16522W        W83305  27.962  41.455   4.701
16523W        W83306   6.295  39.924   4.625
16524W        W83307  19.589  35.455  10.888
16525W        W83308   6.335  39.906  13.303
16526W        W83309   5.478  12.062  14.310
16527W        W83310  40.420  22.489   1.352
16528W        W83311  28.910  13.966  12.703
16529W        W83312  35.373   0.289  10.789
16530W        W83313   3.500   0.561   3.515
16531W        W83314  39.146  37.275   1.227
16532W        W83315  42.944  44.396   1.476
16533W        W83316  26.709  35.642  13.942
16534W        W83317  38.406  11.591   1.410
16535W        W83318   7.387  25.667  13.624
16536W        W83319  28.579  28.548   4.032
16537W        W83320  31.444   7.824  10.660
16538W        W83321  42.244  33.178  14.360
16539W        W83322   6.322  11.019  12.988
16540W        W83323  35.162  43.085   2.565
16541W        W83324  32.696  26.010   3.635
16542W        W83325  26.870  32.404   1.425
16543W        W83326  10.695  18.601  13.894
16544W        W83327  37.340  19.729   0.441
16545W        W83328  20.109  26.742   0.895
16546W        W83329  28.254   6.235  13.833
16547W        W83330  29.095  11.389   0.441
16548W        W83331   7.195  12.709  12.475
16549W        W83332  23.417  41.363  13.095
16550W        W83333  18.299  19.901  11.105
16551W        W83334  41.686  26.062  13.614
16552W        W83335  23.546  32.191  10.895
16553W        W83336  21.278  36.862  13.397
16554W        W83337   9.936  27.603  14.347
16555W        W83338  35.257  17.657  14.019
16556W        W83339  40.415  19.080  13.404
16557W        W83340  38.039  38.943  10.155
16558W        W83341   3.702  41.602   0.979
16559W        W83342  17.023  24.441  14.327
16560W        W83343  39.611   1.513   0.355
16561W        W83344  26.092  35.585  13.364
16562W        W83345  25.667  11.278   1.680
16563W        W83346  44.023  11.210   1.721
16564W        W83347  10.385   3.246   2.645
16565W        W83348  37.214  25.592  12.447
16566W        W83349  14.298  29.399   1.223
16567W        W83350  12.787  27.226  11.105
16568W        W83351  41.955  37.793  13.980
16569W        W83352  33.662   5.224   2.002
16570W        W83353  22.159  16.867  14.892
16571W        W83354  17.031   5.312  10.690
16572W        W83355  36.071  42.490  14.956
16573W        W83356  16.223   3.924  14.511
16574W        W83357  37.650  20.046  13.461
16575W        W83358  24.268  27.653   3.993
16576W        W83359  19.271  35.468   1.598
16577W        W83360  39.854  28.989   4.828
16578W        W83361  43.149  40.167   2.571
16579W        W83362  40.247  28.153   2.301
16580W        W83363  22.162  11.648   4.371
16581W        W83364  24.412  34.596  11.109
16582W        W83365  31.039  35.316   4.997
16583W        W83366   3.864  25.482  10.524
16584W        W83367  41.350  41.735  11.178
16585W        W83368  44.587  24.908   3.599
16586W        W83369  10.587  35.369   3.151
16587W        W83370  34.440   6.833  13.225
16588W        W83371  39.156  15.101   4.575
16589W        W83372   1.658  25.227   1.814
16590W        W83373  14.425   6.894  14.817
16591W        W83374   3.553   6.200   2.317
16592W        W83375   0.054   6.482  13.788
16593W        W83376  33.894  31.043  10.713
16594W        W83377  19.094  38.372   4.603
16595W        W83378  43.954  39.506  11.001
16596W        W83379   3.441  25.741  10.676
16597W        W83380  24.971  12.765   4.573
16598W        W83381  16.296   7.322   0.863
16599W        W83382  11.829  31.897   3.355
16600W        W83383  14.348  18.732   4.117
16601W        W83384  42.699   5.729   4.155
16602W        W83385  34.460  22.829  14.321
16603W        W83386  40.373  31.326   2.539
16604W        W83387  31.636  26.623   3.405
16605W        W83388  15.132  39.412   2.487
16606W        W83389  30.635  15.523  11.992
16607W        W83390  44.777  42.340   3.409
16608W        W83391  43.411  39.785   4.455
16609W        W83392  29.221  39.816  11.867
16610W        W83393  15.073  15.063  12.423
16611W        W83394   8.843  33.750  11.246
16612W        W83395  23.755  34.481  14.360
16613W        W83396   9.071  15.518   0.780
16614W        W83397  25.723   5.466  14.525
16615W        W83398  37.430  25.695   1.938
16616W        W83399  27.690   1.546   4.798
16617W        W83400  13.359  26.665   4.312
16618W        W83401   3.287   4.197   4.263
16619W        W83402  43.781  27.963   2.212
16620W        W83403  20.376  26.432   2.652
16621W        W83404  35.654  29.138   1.412
16622W        W83405  31.729  44.255  11.104
16623W        W83406  30.658  38.042  14.511
16624W        W83407  18.071  16.734  14.362
16625W        W83408  27.182  31.883  12.923
16626W        W83409  43.946  36.980   1.424
16627W        W83410  14.029  43.403   2.041
16628W        W83411  19.431   8.864  13.460
16629W        W83412  35.530  31.407   1.795
16630W        W83413  43.806  33.689  11.810
16631W        W83414  42.774  38.790   3.644
16632W        W83415   3.761  20.693   1.421
16633W        W83416   4.190   6.960   1.547
16634W        W83417  20.847  25.692   1.452
16635W        W83418  25.680  30.055   2.774
16636W        W83419  40.341   1.706  13.860
16637W        W83420  20.219   3.981  12.952
16638W        W83421  21.040  43.160   2.864
16639W        W83422  38.386  39.789  14.387
16640W        W83423  18.140   9.899   1.746
16641W        W83424  31.700  29.991  13.397
16642W        W83425  15.307  20.521  10.772
16643W        W83426  24.083  15.577  11.946
16644W        W83427  24.265  18.654   2.930
16645W        W83428  22.516   5.954   1.247
16646W        W83429  26.240   6.687  14.298
16647W        W83430  12.170  14.712   0.826
16648W        W83431  11.670   4.664   0.168
16649W        W83432  29.023  13.628   4.295
16650W        W83433  12.143   5.499  12.915
16651W        W83434  12.665   5.074  14.080
16652W        W83435   9.726  43.111  11.221
16653W        W83436  30.244  29.136  14.537
16654W        W83437  40.311   7.813   1.697
16655W        W83438  11.276   0.281   4.094
16656W        W83439   5.739  27.604   3.206
16657W        W83440  24.337   1.585   2.395
16658W        W83441  34.875  38.702  14.186
16659W        W83442   3.370  28.939   1.273
16660W        W83443  40.616   0.908   1.735
16661W        W83444  18.375  32.361  13.473
16662W        W83445  26.667  32.614  12.930
16663W        W83446  44.952  27.171   3.740
16664W        W83447   0.500  19.418  10.773
16665W        W83448   0.278  35.049  11.545
16666W        W83449   5.339  42.083  11.605
16667W        W83450   1.803  33.813  10.671
16668W        W83451  10.529  17.160   0.465
16669W        W83452  22.181   8.394  10.901
16670W        W83453  21.860  28.497   1.207
16671W        W83454  20.182  30.540  11.132
16672W        W83455   7.448   8.874  14.017
16673W        W83456   5.779  17.264   4.375
16674W        W83457  30.428  26.569   4.016
16675W        W83458  19.116  19.487  12.105
16676W        W83459  11.320   3.386   0.439
16677W        W83460  15.699  10.055  10.332
16678W        W83461  39.441  12.761   1.449
16679W        W83462  14.626  15.538  13.867
16680W        W83463  22.960   4.991   1.163
16681W        W83464  34.005  25.072   3.841
16682W        W83465   4.402  36.617   3.198
16683W        W83466  21.313  10.665  14.978
16684W        W83467  12.945   8.841   3.549
16685W        W83468  24.051   7.437   3.186
16686W        W83469  41.995  41.470   0.832
16687W        W83470  19.530  33.716   2.755
16688W        W83471  15.436  43.709  12.574
16689W        W83472  14.750  39.929   3.010
16690W        W83473  26.486  38.756  11.940
16691W        W83474  12.106  39.630   3.346
16692W        W83475  14.258  41.342   1.217
16693W        W83476  26.271  26.144  10.176
16694W        W83477  41.882  18.906  13.159
16695W        W83478  32.581   6.630  14.925
16696W        W83479  29.066  16.663   1.046
16697W        W83480  12.095  14.843   1.880
16698W        W83481  27.586  11.173  10.730
16699W        W83482  34.169  27.208  10.690
16700W        W83483  23.120  11.235   2.109
16701W        W83484  10.921  29.427   2.666
16702W        W83485   5.884  42.894  12.892
16703W        W83486  35.229  11.209   1.791
16704W        W83487  21.109  17.469  13.397
16705W        W83488   1.287  36.076   0.377
16706W        W83489   7.750  22.801   3.893
16707W        W83490  30.135  17.662   2.083
16708W        W83491  31.945  34.948   3.990
16709W        W83492  25.777   6.406   0.147
16710W        W83493  25.156  32.748   3.655
16711W        W83494   7.384  20.244  12.813
16712W        W83495  38.513   8.040  14.532
16713W        W83496  38.660  20.694   4.843
16714W        W83497   5.488  25.116   0.868
16715W        W83498  37.020  34.962  12.931
16716W        W83499  29.449   2.334   3.597
16717W        W83500  43.965  11.536  10.423
16718W        W83501  23.009  10.127   2.855
16719W        W83502  19.590  31.604   0.789
16720W        W83503  37.619   0.948   0.542
16721W        W83504  32.936  10.030   1.854
16722W        W83505   9.401  33.096   2.870
16723W        W83506  18.768  12.892  11.967
16724W        W83507  13.355  32.548   4.364
16725W        W83508  11.936  30.977  12.593
16726W        W83509   0.530  25.946   1.687
16727W        W83510   3.817  44.935  12.036
16728W        W83511  30.017  38.443  12.567
16729W        W83512  14.513  31.525   2.330
16730W        W83513  30.943  36.474  13.960
16731W        W83514  31.163  44.314  12.047
16732W        W83515  41.248  11.792   1.339
16733W        W83516   4.575  21.555   0.965
16734W        W83517  10.530   5.774   9.813
16735W        W83518   2.311  10.629   0.443
16736W        W83519  40.178  25.509   2.547
16737W        W83520   1.981  23.449  12.978
16738W        W83521   8.254  34.822   4.833
16739W        W83522   0.539  34.782  11.141
16740W        W83523  40.744  41.390  12.627
16741W        W83524  20.818  38.242   2.797
16742W        W83525   9.696  41.050  13.394
16743W        W83526   3.208   4.378   4.746
16744W        W83527  17.662  31.947  14.528
16745W        W83528  11.357  31.603  11.144
16746W        W83529  39.341  15.153   1.558
16747W        W83530   3.635  18.308   2.331
16748W        W83531  16.216  17.090  14.824
16749W        W83532  23.067  37.613   4.214
16750W        W83533   8.242  20.993   2.251
16751W        W83534  44.781  44.486   4.723
16752W        W83535  40.566  14.394  14.789
16753W        W83536  14.696  32.458   3.848
16754W        W83537  39.317  25.750   0.192
16755W        W83538   7.172  10.279  13.322
16756W        W83539  17.687  33.018  11.102
16757W        W83540  16.081  28.371   4.588
16758W        W83541  41.823  20.478  14.806
16759W        W83542  37.766  23.131   2.685
16760W        W83543  17.279  44.178  13.154
16761W        W83544  13.228   8.923   4.141
16762W        W83545   0.824  19.763  13.101
16763W        W83546  36.065  20.772  13.998
16764W        W83547  18.093  30.041   0.213
16765W        W83548   2.375  41.040   4.029
16766W        W83549  42.109   6.767  10.684
16767W        W83550  22.037  10.256   1.253
16768W        W83551   6.954   1.979  13.335
16769W        W83552  21.155   7.910   3.243
16770W        W83553   7.346  33.054   1.197
16771W        W83554  19.520   7.465  14.862
16772W        W83555   2.245  35.658   1.316
16773W        W83556  19.265   4.250  12.973
16774W        W83557   9.293  18.209   1.052
16775W        W83558  40.275  44.296  12.520
16776W        W83559   3.909  36.342   1.939
16777W        W83560   1.709  21.818  11.419
16778W        W83561   6.769  29.103   2.272
16779W        W83562  29.800  38.930   4.166
16780W        W83563  32.375  10.288   3.150
16781W        W83564  40.739  41.934   2.997
16782W        W83565  32.126   6.622   3.849
16783W        W83566  21.239  31.941  11.100
16784W        W83567  44.926  29.508  13.985
16785W        W83568  24.418  38.465  14.667
16786W        W83569  15.596  11.238  12.848
16787W        W83570   4.718   1.409  14.599
16788W        W83571   4.512  40.275   9.943
16789W        W83572  43.948  37.582  12.898
16790W        W83573  10.362  32.579  13.287
16791W        W83574  31.467  15.330  12.439
16792W        W83575  19.123  17.786   0.428
16793W        W83576  28.700   8.352  13.591
16794W        W83577  24.062   6.947   4.660
16795W        W83578  29.481  12.729  12.375
16796W        W83579  41.894  37.277  14.047
16797W        W83580   5.661   3.580   2.432
16798W        W83581  37.600  22.552  13.392
16799W        W83582  18.053  38.369  14.818
16800W        W83583  35.979  41.533  12.939
16801W        W83584  12.419  30.420  11.030
16802W        W83585  37.164  39.258   4.243
16803W        W83586  30.465  44.674  11.495
16804W        W83587  10.804   1.750   1.526
16805W        W83588  10.925  25.733  11.995
16806W        W83589   0.245   6.858  14.976
16807W        W83590   8.239   3.599   3.715
16808W        W83591  40.582  28.560  11.993
16809W        W83592  40.301  16.747  13.357
16810W        W83593  14.054  32.990  11.121
16811W        W83594  29.001  32.631   4.143
16812W        W83595   5.978  14.317   3.147
16813W        W83596  44.265  10.162   0.683
16814W        W83597   0.271   3.213   0.887
16815W        W83598  38.829  33.702  13.292
16816W        W83599   3.432  39.469  10.973
16817W        W83600  14.311  23.697   4.126
16818W        W83601  23.473  27.642  14.804
16819W        W83602   7.499  35.814   0.790
16820W        W83603  40.367  30.391  12.901
16821W        W83604  15.055  36.883  12.026
16822W        W83605  21.433   0.907   1.315
16823W        W83606  25.702  33.403   2.827
16824W        W83607  28.976  12.197   0.802
16825W        W83608   3.241  23.195  13.896
16826W        W83609  40.969   5.351  10.374
16827W        W83610  34.032  26.015   2.751
16828W        W83611  41.123  37.167   0.432
16829W        W83612  25.507  16.736  11.841
16830W        W83613   5.302  17.586   2.814
16831W        W83614  33.623  34.467  10.559
16832W        W83615  12.329   8.899   0.453
16833W        W83616  27.507   9.211  10.946
16834W        W83617  30.468  39.946  13.594
16835W        W83618  34.528  28.649   1.809
16836W        W83619   8.191   1.781   1.740
16837W        W83620  17.031  25.573  13.375
16838W        W83621  17.855  13.859  14.239
16839W        W83622  34.601  12.625  10.914
16840W        W83623  17.790  28.829  14.365
16841W        W83624  36.900  14.324  12.924
16842W        W83625  29.874   3.284  11.214
16843W        W83626  10.787  15.552  11.700
16844W        W83627  41.531  21.996   0.013
16845W        W83628  39.233  41.273  11.153
16846W        W83629  29.338  16.636   4.639
16847W        W83630  31.750   6.619  11.130
16848W        W83631  11.583   1.799   1.639
16849W        W83632  13.590   4.012  13.735
16850W        W83633  35.455  12.654   1.785
16851W        W83634  38.961  17.539   2.067
16852W        W83635  30.630  39.984   3.685
16853W        W83636  18.771  37.012   4.683
16854W        W83637  43.017  19.598  13.480
16855W        W83638  29.725  23.460   1.157
16856W        W83639  24.802   8.292   0.644
16857W        W83640  10.912   0.190   0.734
16858W        W83641  39.889  22.570  11.877
16859W        W83642  18.880  27.946  10.796
16860W        W83643  12.567  31.652  13.476
16861W        W83644  16.099   6.079   2.957
16862W        W83645  41.232  13.820   1.972
16863W        W83646  33.286  22.080  12.425
16864W        W83647  24.754  32.130  13.789
16865W        W83648  20.705   7.101   1.316
16866W        W83649  36.045  27.940   0.480
16867W        W83650  21.123  16.548  11.203
16868W        W83651  37.986  33.556   3.918
16869W        W83652   8.828   8.783   2.808
16870W        W83653  37.469  38.394  13.526
16871W        W83654  28.960   3.374  14.807
16872W        W83655  12.888   6.840   1.720
16873W        W83656  34.898  38.883  11.760
16874W        W83657  35.744   4.791  12.474
16875W        W83658   0.398   5.656  12.354
16876W        W83659  17.549  18.365  12.623
16877W        W83660  23.682  36.298  14.038
16878W        W83661   6.482   0.497   3.685
16879W        W83662  15.033  31.596   3.845
16880W        W83663  29.159  32.187  14.425
16881W        W83664  35.914  24.955  12.133
16882W        W83665  13.837  39.949   2.460
16883W        W83666   4.318  40.583  10.737
16884W        W83667  17.663  36.613   3.033
16885W        W83668  27.180  25.066  11.030
16886W        W83669  25.432  31.039  10.984
16887W        W83670  23.797  40.552  11.428
16888W        W83671  11.981  36.427   0.387
16889W        W83672  30.316  28.520   2.285
16890W        W83673  17.136  39.594   1.069
16891W        W83674  40.295   5.958  11.970
16892W        W83675  41.951  12.965  11.574
16893W        W83676  13.072   5.478   2.879
16894W        W83677  44.031  17.912  14.741
16895W        W83678   4.910  37.026  14.450
16896W        W83679   1.031  18.505   3.159
16897W        W83680  40.065  15.842  11.560
16898W        W83681  42.715  28.426  14.525
16899W        W83682  40.211   9.193  12.088
16900W        W83683  33.968  35.574  10.809
16901W        W83684   6.935  35.223   3.862
16902W        W83685  34.426  19.681   0.252
16903W        W83686  20.569  41.889  11.240
16904W        W83687  44.800  13.271  10.114
16905W        W83688  43.525  13.093  11.612
16906W        W83689  20.936  18.732  12.443
16907W        W83690   7.367  24.030  14.190
16908W        W83691  33.919  24.628   2.498
16909W        W83692  34.968  43.456  13.138
16910W        W83693  23.250  25.431   3.284
16911W        W83694  23.201  36.610  10.746
16912W        W83695  15.176  36.586  13.828
16913W        W83696  41.710  29.537  14.445
16914W        W83697  36.365  37.524  13.864
16915W        W83698  11.894   2.933   2.654
16916W        W83699  16.515   9.849   2.702
16917W        W83700  38.776   6.758   1.508
16918W        W83701  17.151  10.814   2.344
16919W        W83702  41.864  23.966  12.153
16920W        W83703   7.155  26.679  10.740
16921W        W83704  40.130  44.442   1.947
16922W        W83705  39.554  26.675  12.862
16923W        W83706   5.017   8.349  12.388
16924W        W83707  27.755  38.873   1.364
16925W        W83708  27.601   4.460   3.690
16926W        W83709  11.984  21.504  10.219
16927W        W83710  37.122  41.537   0.333
16928W        W83711  17.741  42.679   0.102
16929W        W83712  21.354  26.417  13.307
16930W        W83713  42.145  43.955   2.047
16931W        W83714  33.406  41.472   0.298
16932W        W83715   1.203  32.183   2.771
16933W        W83716   5.477  28.536  10.763
16934W        W83717  38.334   9.420   2.894
16935W        W83718  30.545  12.950   3.650
16936W        W83719  39.819   5.763   1.871
16937W        W83720  20.105  32.890  14.106
16938W        W83721  30.432  42.813  11.626
16939W        W83722   0.964  17.772   3.626
16940W        W83723  30.521  30.913  13.401
16941W        W83724  13.761  25.246   1.950
16942W        W83725  32.211  33.445   0.275
16943W        W83726  34.981  26.399   3.106
16944W        W83727  37.244  11.403   0.482
16945W        W83728  33.965  26.536   1.461
16946W        W83729  27.059   3.489  12.845
16947W        W83730  13.386  29.642   2.016
16948W        W83731  17.821   6.717  14.250
16949W        W83732  21.559  20.642   3.850
16950W        W83733  38.871  11.846  12.392
16951W        W83734  26.773  43.254  11.542
16952W        W83735  22.506  13.862  14.836
16953W        W83736   5.834  44.955  11.618
16954W        W83737   9.241  24.973   0.760
16955W        W83738  28.012   9.648   0.495
16956W        W83739  33.904  28.032  12.965
16957W        W83740   2.289  21.220  13.044
16958W        W83741  39.926  11.138   1.327
16959W        W83742  29.722   5.585   1.304
16960W        W83743   5.271  32.112   1.244
16961W        W83744  32.693  18.688   5.407
16962W        W83745  23.498  41.122   2.776
16963W        W83746  35.349   3.937   1.283
16964W        W83747  29.594  22.738   0.014
16965W        W83748  14.832  19.129  12.098
16966W        W83749   8.353   5.805   2.899
16967W        W83750  20.846  35.383   3.691
16968W        W83751  28.426  38.496  13.720
16969W        W83752  17.876  29.615   0.005
16970W        W83753   0.084  37.847   2.281
16971W        W83754  15.285  33.987   0.177
16972W        W83755  28.324  28.168   1.821
16973W        W83756  32.903  42.901   2.350
16974W        W83757  27.262  13.389   3.650
16975W        W83758  10.907  42.973  13.356
16976W        W83759   4.932  32.060  14.853
16977W        W83760   4.468   0.136   0.435
16978W        W83761  40.565  17.037   4.117
16979W        W83762  16.686  30.530   4.730
16980W        W83763   3.767  10.870  13.092
16981W        W83764  29.013  20.796  14.034
16982W        W83765  13.389  24.621   1.268
16983W        W83766  41.581  16.628  11.125
16984W        W83767  44.139   5.712  12.951
16985W        W83768   1.302  44.973   4.026
16986W        W83769   0.151  26.908  13.960
16987W        W83770  38.994   4.955   5.038
16988W        W83771  16.257  19.193   0.733
16989W        W83772  22.725  27.522   2.851
16990W        W83773  38.579  43.544   4.081
16991W        W83774   3.880   8.941  11.075
16992W        W83775  34.080  22.333   3.226
16993W        W83776  28.609  39.589   0.272
16994W        W83777   9.984  40.995  11.995
16995W        W83778  37.507  33.212  14.613
16996W        W83779   9.702  19.520   3.288
16997W        W83780  42.462   9.786  11.962
16998W        W83781  38.109  11.273   0.642
16999W        W83782  15.257  38.444   2.762
17000W        W83783  42.560  42.859  14.701
17001W        W83784  44.924  20.220  14.914
17002W        W83785  37.711  39.857   2.085
17003W        W83786  19.577  29.545  11.526
17004W        W83787  17.189  38.627  13.958
17005W        W83788  23.282   1.924   0.226
17006W        W83789  32.701  23.097  13.849
17007W        W83790  38.440   0.982   4.052
17008W        W83791  22.459  20.361  10.728
17009W        W83792  25.598  10.854   4.592
17010W        W83793  35.243  10.280   0.857
17011W        W83794  13.829  12.926   1.782
17012W        W83795  31.485   5.861   4.573
17013W        W83796  31.648   8.619  14.061
17014W        W83797  38.742  29.885  12.475
17015W        W83798  39.929  40.313   1.332
17016W        W83799  42.067  44.437   2.279
17017W        W83800  25.909  21.303  12.287
17018W        W83801  12.754  41.880  10.653
17019W        W83802  23.616  28.539  13.776
17020W        W83803  18.613  35.640   1.172
17021W        W83804  38.017  16.220  10.702
17022W        W83805  20.119  13.209   1.497
17023W        W83806   9.143  21.070  13.812
17024W        W83807  13.189  10.982  10.152
17025W        W83808  21.579   5.435  12.425
17026W        W83809  26.070  30.837  14.297
17027W        W83810  42.305  25.720  13.109
17028W        W83811  44.434   5.189   4.992
17029W        W83812  27.852   8.229   0.530
17030W        W83813  42.940  19.588   3.911
17031W        W83814  15.910  18.659   1.858
17032W        W83815   0.321  10.057   0.361
17033W        W83816  27.182  21.055  11.949
17034W        W83817   0.317   9.840  12.503
17035W        W83818  29.134  22.615  14.294
17036W        W83819  13.273   6.249   0.877
17037W        W83820   7.964  17.722  11.167
17038W        W83821  13.113   7.519   4.162
17039W        W83822  11.734  10.405   1.009
17040W        W83823   4.762  16.076  13.833
17041W        W83824  34.833   0.912   1.279
17042W        W83825   4.190  10.683   0.701
17043W        W83826  14.737   8.387  13.309
17044W        W83827  29.472   4.236   2.862
17045W        W83828  44.302  20.816   2.836
17046W        W83829  43.394  21.446  12.984
17047W        W83830  28.524   0.049  11.658
17048W        W83831  10.111  32.415  10.569
17049W        W83832  33.012   8.925  13.880
17050W        W83833  42.346   3.220  12.798
17051W        W83834  20.111   6.239  12.580
17052W        W83835  31.853   2.388  11.357
17053W        W83836  21.192  14.190   1.931
17054W        W83837  35.490  23.231  13.577
17055W        W83838  10.722   3.974  11.012
17056W        W83839  39.902  30.407   3.246
17057W        W83840  33.222  17.484   1.411
17058W        W83841   7.906  36.093   0.949
17059W        W83842  32.566  25.815   2.210
17060W        W83843  24.386  44.427   2.808
17061W        W83844  26.679  33.470   1.957
17062W        W83845  20.242  43.728   0.412
17063W        W83846  37.970  29.700   1.401
17064W        W83847  18.155  22.863  14.569
17065W        W83848   1.865  36.375   1.252
17066W        W83849   4.456   9.050   4.765
17067W        W83850  16.621  35.954  11.810
17068W        W83851  44.162  31.595   0.882
17069W        W83852  38.916  30.608  12.973
17070W        W83853  38.894  22.917  12.935
17071W        W83854   4.413  40.054   2.573
17072W        W83855  26.284   4.797   2.203
17073W        W83856  10.794  42.742  14.483
17074W        W83857  16.554   2.371  14.777
17075W        W83858  29.255  15.327   4.773
17076W        W83859   2.879  30.651  14.282
17077W        W83860  42.926  25.775  10.848
17078W        W83861  37.509  22.431  12.588
17079W        W83862   6.122  21.068   1.298
17080W        W83863  36.068  22.477   3.809
17081W        W83864  21.705  34.592   2.203
17082W        W83865  37.009  13.309  14.889
17083W        W83866  23.445  13.655   3.317
17084W        W83867   5.198   8.830  14.348
17085W        W83868   2.223  38.609   1.316
17086W        W83869   5.781  29.970  14.752
17087W        W83870  32.806  20.216   0.750
17088W        W83871  13.102   7.172   9.752
17089W        W83872  14.570  34.912  13.364
17090W        W83873  33.303   8.290  11.765
17091W        W83874  37.666  43.478   3.179
17092W        W83875   2.163   1.759  13.375
17093W        W83876   4.920  19.518   0.829
17094W        W83877  41.300  19.119   2.182
17095W        W83878  30.929  44.830  14.342
17096W        W83879  14.855  20.678   2.354
17097W        W83880   3.185  36.108   0.330
17098W        W83881  43.318  29.176   2.960
17099W        W83882   0.286  35.523   3.527
17100W        W83883   0.508  33.892   2.210
17101W        W83884  43.703  29.041  13.782
17102W        W83885  32.699  22.236   4.515
17103W        W83886   7.742  35.387   4.319
17104W        W83887  26.621  28.905  13.933
17105W        W83888  27.150  16.829   4.381
17106W        W83889   8.766  44.519   3.714
17107W        W83890  22.755  39.386  11.197
17108W        W83891   0.963  39.456   0.354
17109W        W83892  13.272  21.556   2.125
17110W        W83893  43.453  42.455   2.630
17111W        W83894  10.869  17.063  11.156
17112W        W83895  32.657  30.448   2.518
17113W        W83896   9.186  23.362  14.464
17114W        W83897  16.697  25.490   4.122
17115W        W83898  12.200  13.272   0.080
17116W        W83899  12.853  42.731  13.376
17117W        W83900  21.783   6.326  11.610
17118W        W83901  37.300  16.800  11.942
17119W        W83902  43.496  44.149  12.978
17120W        W83903  10.165  30.867   0.715
17121W        W83904  40.286   4.705  10.698
17122W        W83905  33.096  19.915  10.886
17123W        W83906  37.091  37.536  12.308
17124W        W83907  35.812  32.377  12.273
17125W        W83908  42.027  32.452   4.097
17126W        W83909  14.028  38.353   0.331
17127W        W83910  26.820   4.421   0.781
17128W        W83911  39.960  37.552  12.166
17129W        W83912  37.853  20.064   0.842
17130W        W83913   0.072  26.570   3.213
17131W        W83914  21.062  40.833   0.426
17132W        W83915  14.182  29.859   2.689
17133W        W83916  30.608   8.167  11.556
17134W        W83917  41.638   1.736   3.333
17135W        W83918  29.559  20.748   0.924
17136W        W83919  39.515  40.053   3.240
17137W        W83920  42.541   3.482   4.934
17138W        W83921  42.044  16.165  13.520
17139W        W83922   5.663   2.810  10.610
17140W        W83923  40.988   7.840  10.725
17141W        W83924  21.252   8.413   3.179
17142W        W83925  10.387   1.557  14.288
17143W        W83926  43.756   5.349  12.017
17144W        W83927  29.988  32.214   3.653
17145W        W83928  26.460  10.284  11.944
17146W        W83929  11.788  19.964  14.798
17147W        W83930  13.571  40.865  10.812
17148W        W83931  29.514  39.514   0.280
17149W        W83932  38.675   5.713  12.621
17150W        W83933   3.681  26.692  13.455
17151W        W83934   1.443  32.329  12.574
17152W        W83935  39.476   8.385  10.677
17153W        W83936  42.101   1.420   0.343
17154W        W83937  39.534  29.628  10.956
17155W        W83938  42.410   1.686   1.682
17156W        W83939  38.089  30.591   1.391
17157W        W83940  36.971   4.959  11.593
17158W        W83941  24.439   8.442  12.456
17159W        W83942   6.378   2.791   2.623
17160W        W83943  34.090  18.104  13.054
17161W        W83944  39.584  10.589   5.116
17162W        W83945  14.602  34.336  14.850
17163W        W83946  28.634   9.804  13.820
17164W        W83947   6.711   7.467  14.225
17165W        W83948  34.066   8.257  11.132
17166W        W83949  31.343  19.100   4.811
17167W        W83950  30.001   8.925   1.347
17168W        W83951  41.465  16.196  11.874
17169W        W83952  39.042  30.561  13.477
17170W        W83953   7.753  32.042   1.914
17171W        W83954  27.128   4.660   2.551
17172W        W83955  23.953  34.025   0.523
17173W        W83956   1.844  20.923   0.712
17174W        W83957   8.260  44.786  13.529
17175W        W83958  24.909  43.316  12.688
17176W        W83959  21.099  38.948   1.356
17177W        W83960  34.218  39.832   1.119
17178W        W83961  39.409  21.773  12.581
17179W        W83962  37.075  12.697  12.539
17180W        W83963  37.442  40.561   4.998
17181W        W83964  14.916   8.826   0.317
17182W        W83965  33.214  24.179   3.633
17183W        W83966   6.411  12.632  10.223
17184W        W83967  38.094  38.270  12.853
17185W        W83968  28.768  11.078   2.839
17186W        W83969  19.777  35.365   3.873
17187W        W83970  37.138  15.760  12.076
17188W        W83971  21.721  29.178  11.624
17189W        W83972   9.258  12.429  11.009
17190W        W83973  27.495  39.490  11.546
17191W        W83974  28.978  13.746   3.285
17192W        W83975   0.962  24.032   2.863
17193W        W83976  38.978  41.322  10.662
17194W        W83977  22.559  11.018  14.444
17195W        W83978  26.907  13.533  12.465
17196W        W83979   0.993  13.915   2.874
17197W        W83980   6.450   7.273  13.418
17198W        W83981  32.078  44.350   2.679
17199W        W83982  36.039  37.337   0.572
17200W        W83983  19.165  28.484   3.325
17201W        W83984  14.319  34.356  12.956
17202W        W83985  39.313  11.544  10.726
17203W        W83986  18.842  37.826   2.831
17204W        W83987  41.525  18.318  11.622
17205W        W83988  41.400  38.767   2.332
17206W        W83989   9.672  43.510   0.836
17207W        W83990  38.623  35.553   0.357
17208W        W83991   5.295   9.733  14.328
17209W        W83992   0.448  34.169   0.789
17210W        W83993  44.065  33.966   3.335
17211W        W83994  42.718  31.155  14.219
17212W        W83995  10.898   8.129  11.803
17213W        W83996  38.512  12.698  12.336
17214W        W83997   3.964  44.900   3.254
17215W        W83998   4.200  29.967  12.096
17216W        W83999  44.990   3.324  13.317
17217W        W84000  42.998  10.799   3.764
17218W        W84001  32.451  25.570  14.377
17219W        W84002   9.371  32.898  10.452
17220W        W84003  20.668  14.391  11.605
17221W        W84004  18.771   0.967   4.609
17222W        W84005  24.766  13.039   4.189
17223W        W84006   8.637  44.206   4.107
17224W        W84007  10.939  23.939   2.762
17225W        W84008  40.435  13.290   1.753
17226W        W84009   9.751  38.941  11.454
17227W        W84010  28.598   2.771  14.841
17228W        W84011  42.048   3.693   4.915
17229W        W84012  41.419  12.663   0.749
17230W        W84013   9.326  30.939   0.346
17231W        W84014  34.743   6.374  11.138
17232W        W84015  32.455  42.678  11.824
17233W        W84016  33.086  35.273  13.754
17234W        W84017   6.486  41.202   3.213
17235W        W84018  16.159  43.036  13.548
17236W        W84019  27.594  42.259   0.488
17237W        W84020  15.750  40.892  12.055
17238W        W84021  30.655  40.788  14.470
17239W        W84022  12.182  20.298   4.078
17240W        W84023   5.308  32.369  11.151
17241W        W84024  37.085   5.968   1.375
17242W        W84025  11.697  22.971   0.628
17243W        W84026  13.786  12.779  13.040
17244W        W84027  33.949  25.622   1.815
17245W        W84028  16.855   9.649   3.257
17246W        W84029  42.297  22.504   0.010
17247W        W84030  41.386  11.395   2.680
17248W        W84031  27.516  42.514   4.128
17249W        W84032  44.008   1.496   0.286
17250W        W84033  14.658  30.827  13.372
17251W        W84034  28.412   5.739   0.251
17252W        W84035  35.428  31.860   5.157
17253W        W84036  12.917  16.229   2.903
17254W        W84037   2.434  26.911  14.028
17255W        W84038   8.887  23.730   1.207
17256W        W84039  13.576  22.274   2.025
17257W        W84040  10.258   2.459  13.326
17258W        W84041  11.134  17.990   2.524
17259W        W84042  36.759  20.012  10.810
17260W        W84043  35.310   7.580  12.482
17261W        W84044  18.705   3.698   0.238
17262W        W84045  37.370   2.190  11.184
17263W        W84046  25.714   3.372  12.446
17264W        W84047  30.476  12.957  12.439
17265W        W84048   5.630  35.406   3.815
17266W        W84049  13.213  14.828   4.251
17267W        W84050  20.816   8.695   3.055
17268W        W84051  19.259  34.045   2.430
17269W        W84052   4.919  30.207   1.249
17270W        W84053   2.797  25.224  10.797
17271W        W84054  26.254   5.256   2.451
17272W        W84055  20.443  34.589  14.989
17273W        W84056  23.729  10.255  14.734
17274W        W84057  25.018  13.335  13.784
17275W        W84058  23.299  18.230   1.152
17276W        W84059  22.224  39.583   1.718
17277W        W84060  14.471  27.158  14.069
17278W        W84061  29.602  18.599  14.827
17279W        W84062  32.347  22.217  11.169
17280W        W84063  19.061  40.967   4.178
17281W        W84064   2.901  24.315   2.615
17282W        W84065  37.778  24.012   5.062
17283W        W84066  31.869  27.136  13.941
17284W        W84067   6.708  24.767  12.825
17285W        W84068   5.737  39.504  10.816
17286W        W84069  20.032  30.118   1.785
17287W        W84070  12.351   7.725   1.741
17288W        W84071   3.823  33.005   0.956
17289W        W84072  30.483  24.435  12.071
17290W        W84073   4.296  26.697   4.611
17291W        W84074   3.159   9.092  11.094
17292W        W84075  23.722   1.905  13.543
17293W        W84076  11.920  19.892   9.877
17294W        W84077   9.346   7.730   3.108
17295W        W84078  15.818  25.152  11.047
17296W        W84079  16.818  22.071   0.817
17297W        W84080  27.441  31.823  14.057
17298W        W84081   1.695  17.824  10.497
17299W        W84082   6.290   8.885   3.539
17300W        W84083  22.066  15.667   1.226
17301W        W84084   9.189  34.895   0.674
17302W        W84085  26.687   8.782  13.664
17303W        W84086   4.699  44.971  13.088
17304W        W84087  39.853   5.001  10.722
17305W        W84088  19.093  42.793   4.639
17306W        W84089   3.931  11.015   4.201
17307W        W84090  14.571  35.348  12.436
17308W        W84091  28.044   9.597   4.970
17309W        W84092  11.154  35.706   4.443
17310W        W84093  37.446  14.590   3.733
17311W        W84094  27.983  21.313   4.996
17312W        W84095  35.585  35.788   2.358
17313W        W84096  22.253   0.915   1.051
17314W        W84097  39.579  21.281  10.283
17315W        W84098   0.462   8.227   1.832
17316W        W84099  16.738  25.168  14.710
17317W        W84100  27.917  27.913  13.088
17318W        W84101  43.941  39.895   2.447
17319W        W84102   7.776  41.805  10.695
17320W        W84103  18.169  34.008  14.995
17321W        W84104  37.753  20.626  14.588
17322W        W84105  33.305  18.519   1.161
17323W        W84106  11.910  41.085  14.446
17324W        W84107  28.879   2.880   2.328
17325W        W84108  18.266  34.588   1.777
17326W        W84109  38.105  42.842  12.146
17327W        W84110  31.515  36.283  10.751
17328W        W84111  30.741  30.557   4.103
17329W        W84112  19.977  10.727   3.812
17330W        W84113  35.124  41.303   3.713
17331W        W84114  11.930  33.798   4.530
17332W        W84115   3.279  31.118  13.527
17333W        W84116  10.695  25.261   2.226
17334W        W84117  24.267  19.719  10.399
17335W        W84118  44.845  32.603  11.120
17336W        W84119  34.435  36.629   3.778
17337W        W84120  28.925  13.085  14.035
17338W        W84121   6.999  27.091   3.297
17339W        W84122   8.481   4.458  12.370
17340W        W84123  13.854  35.980   5.479
17341W        W84124  39.525  43.765   1.762
17342W        W84125  14.747  34.716   1.230
17343W        W84126  31.692   1.500   0.023
17344W        W84127  24.612  13.215   1.944
17345W        W84128  21.224  28.990  14.544
17346W        W84129  36.083  11.676  10.758
17347W        W84130  21.560  36.905  12.964
17348W        W84131  10.810  21.597  12.685
17349W        W84132  29.126  41.009   2.633
17350W        W84133  42.089   5.724  12.499
17351W        W84134   0.638  32.506   3.363
17352W        W84135  20.155  29.210   5.051
17353W        W84136  10.228  38.598   0.080
17354W        W84137  32.647  14.840  10.594
17355W        W84138  11.648   2.031   3.523
17356W        W84139  42.659   4.883   2.065
17357W        W84140  28.038  32.074   3.459
17358W        W84141   7.701   9.729  11.503
17359W        W84142  41.488  29.150  12.137
17360W        W84143  35.593  32.676   1.331
17361W        W84144  21.750  38.549   1.720
17362W        W84145  31.533   9.608   0.833
17363W        W84146  18.661  10.654   1.266
17364W        W84147  23.536  20.271  11.578
17365W        W84148  24.048  21.013   3.649
17366W        W84149  28.681  11.071  11.086
17367W        W84150  34.344  12.573  13.375
17368W        W84151  17.263  25.241  13.960
17369W        W84152  32.556  19.426  13.007
17370W        W84153  15.110  30.301  11.507
17371W        W84154  30.305  28.937  13.274
17372W        W84155   5.311  12.634  10.650
17373W        W84156  29.831  28.200  11.879
17374W        W84157   4.924  17.906   4.138
17375W        W84158  15.461  24.683  13.110
17376W        W84159  17.008  35.420   2.484
17377W        W84160   1.372  39.952  10.724
17378W        W84161  31.099  20.922   2.717
17379W        W84162  10.805   0.559   3.163
17380W        W84163  36.067  16.785  12.972
17381W        W84164  39.061  28.849   0.726
17382W        W84165   2.852  35.389   1.008
17383W        W84166  25.172   1.176   0.731
17384W        W84167  14.717  41.945  12.986
17385W        W84168  44.305   2.812   5.058
17386W        W84169   9.770   3.694   2.344
17387W        W84170  24.164  23.134   2.420
17388W        W84171  12.812  29.134  14.859
17389W        W84172  29.931  21.274  14.190
17390W        W84173  11.145  22.458  12.124
17391W        W84174  17.567   4.519  11.693
17392W        W84175  13.221  40.998  13.920
17393W        W84176   2.026  39.572   3.191
17394W        W84177  42.745  19.033  13.248
17395W        W84178   7.027   5.719   0.579
17396W        W84179  23.094   9.378   0.462
17397W        W84180   2.056  17.980  12.791
17398W        W84181  32.346  35.848  14.513
17399W        W84182  25.612  29.070  13.989
17400W        W84183  38.323  33.741  11.549
17401W        W84184   1.390  16.132  14.032
17402W        W84185  43.911  27.390   1.291
17403W        W84186   0.911  24.066   4.545
17404W        W84187  10.367   1.050   2.670
17405W        W84188   4.774  13.051   4.001
17406W        W84189  22.053  13.305  11.472
17407W        W84190  43.499  35.116   4.071
17408W        W84191  42.989  24.038  12.058
17409W        W84192  16.678  18.615  12.507
17410W        W84193  15.033  33.093   0.210
17411W        W84194   2.781  14.843   0.873
17412W        W84195  23.770   3.443   2.706
17413W        W84196   3.491  40.086  14.750
17414W        W84197  36.402   4.650   2.740
17415W        W84198  42.857  38.294   3.764
17416W        W84199  10.337  22.965   4.157
17417W        W84200  25.947  32.478   2.138
17418W        W84201  10.863  35.793   3.265
17419W        W84202  20.298   3.649  12.073
17420W        W84203  32.622  29.564   3.595
17421W        W84204  31.357   8.095  11.102
17422W        W84205   1.185  31.198   1.454
17423W        W84206  23.622  43.062  12.003
17424W        W84207  32.466  40.283   1.431
17425W        W84208  20.831  40.498  11.961
17426W        W84209  22.381   8.519  10.456
17427W        W84210  28.478   6.535  14.927
17428W        W84211  12.037  22.141  13.159
17429W        W84212   0.240  34.138  11.779
17430W        W84213   3.003   2.484   4.592
17431W        W84214  32.140  27.891   4.609
17432W        W84215  20.488  22.944   2.277
17433W        W84216  30.198   1.389   3.285
17434W        W84217   6.206  38.347   4.016
17435W        W84218  42.207  10.157   1.329
17436W        W84219  21.999  13.078   2.380
17437W        W84220  31.935  32.355   3.742
17438W        W84221  36.613  29.089  14.320
17439W        W84222  42.761  29.906  11.208
17440W        W84223  11.067   9.898   0.923
17441W        W84224   0.872  27.703   2.886
17442W        W84225  30.404  41.008   2.145
17443W        W84226  35.427  25.197  11.468
17444W        W84227  19.603  32.086   1.001
17445W        W84228  26.603  42.077  10.570
17446W        W84229   9.868  18.052  10.045
17447W        W84230  22.008  39.532  14.029
17448W        W84231  28.605  19.195  10.606
17449W        W84232  17.251  39.326   3.071
17450W        W84233   8.109  24.649   4.252
17451W        W84234  13.504  19.136  11.499
17452W        W84235  25.219  27.547  10.494
17453W        W84236   7.235  16.860   3.105
17454W        W84237  31.371  15.152  13.529
17455W        W84238  44.966  27.173   0.389
17456W        W84239  33.979  24.716  12.875
17457W        W84240  31.188  38.431  10.690
17458W        W84241  21.620  15.896  11.100
17459W        W84242  41.589   4.857   3.172
17460W        W84243  36.590  12.521  12.654
17461W        W84244  43.817  18.298   1.010
17462W        W84245  39.931  16.825  10.533
17463W        W84246  16.339  28.056   0.082
17464W        W84247  19.533   2.804  11.572
17465W        W84248  16.855  22.771   1.229
17466W        W84249  25.605  28.239   1.722
17467W        W84250   0.376  38.910   3.677
17468W        W84251   0.704  21.717  13.439
17469W        W84252   7.781   9.821   3.327
17470W        W84253  15.376  29.874  11.423
17471W        W84254  22.798  30.741  13.986
17472W        W84255  18.723   2.774   2.285
17473W        W84256   3.213  29.004   3.417
17474W        W84257  18.005   5.820   0.554
17475W        W84258   2.059  33.454   2.777
17476W        W84259  21.721  28.755  14.383
17477W        W84260  15.592  14.567   3.526
17478W        W84261  14.319  40.763   2.758
17479W        W84262  26.034  24.164   4.640
17480W        W84263  31.606  37.370   3.756
17481W        W84264  39.559  33.609   0.538
17482W        W84265  21.653  22.092   3.417
17483W        W84266  42.291   9.784   3.123
17484W        W84267  15.183  18.071   4.344
17485W        W84268  29.314  36.180   0.008
17486W        W84269   9.645   8.194   1.958
17487W        W84270   4.911  14.593  13.422
17488W        W84271  10.133  44.527   2.744
17489W        W84272  36.397  10.708   2.981
17490W        W84273  23.505  18.217  14.999
17491W        W84274  10.244  13.862  13.423
17492W        W84275  15.709   5.767   4.708
17493W        W84276  15.184  10.731   2.915
17494W        W84277   1.046  18.370   5.071
17495W        W84278  12.696  42.946   3.222
17496W        W84279  32.120  36.775   2.377
17497W        W84280   8.841  42.446   1.281
17498W        W84281   6.582   5.817  11.156
17499W        W84282  37.406  12.344   2.100
17500W        W84283  34.002  34.157   2.685
17501W        W84284   8.841  28.247   3.655
17502W        W84285  18.629  40.628  12.873
17503W        W84286  29.902   9.402   3.692
17504W        W84287   7.848  30.292  13.488
17505W        W84288  14.282  10.021  10.575
17506W        W84289  35.306   9.672  10.090
17507W        W84290  25.322  18.560   1.900
17508W        W84291   6.565  28.747   3.688
17509W        W84292   1.985  28.947  12.107
17510W        W84293  28.595  30.390  10.885
17511W        W84294  15.220   6.665   0.899
17512W        W84295  29.308  14.118   5.248
17513W        W84296  44.329  18.300   4.136
17514W        W84297   8.789  19.475   0.737
17515W        W84298  24.142  17.861   4.559
17516W        W84299  24.567   6.023  13.312
17517W        W84300  10.710   9.615   2.099
17518W        W84301   4.209  14.222  12.262
17519W        W84302  39.767   1.889   4.024
17520W        W84303   6.236  16.652   4.964
17521W        W84304   5.865  18.616   0.992
17522W        W84305  18.531  32.665  12.027
17523W        W84306   7.707  44.901  12.169
17524W        W84307  27.675  27.190   0.098
17525W        W84308   1.994  12.405   0.583
17526W        W84309  27.043  15.895  13.435
17527W        W84310   4.604   7.843   2.929
17528W        W84311  28.531  30.393   2.214
17529W        W84312  29.595  26.190   0.519
17530W        W84313  15.474  44.203  13.194
17531W        W84314   4.352  35.416   1.269
17532W        W84315  35.567  44.253   0.115
17533W        W84316   0.326   1.355   2.336
17534W        W84317  10.528  14.549  13.890
17535W        W84318  36.203  30.150  14.362
17536W        W84319  35.319  15.766  11.406
17537W        W84320  33.542  37.148   0.923
17538W        W84321   2.249  37.444   1.890
17539W        W84322  16.055  13.495  11.607
17540W        W84323   5.178   1.322  14.371
17541W        W84324   6.861  34.698   3.712
17542W        W84325   1.795  38.051  12.139
17543W        W84326  16.205  34.563   1.672
17544W        W84327   9.439  16.565  12.164
17545W        W84328  29.978  38.665  12.120
17546W        W84329   9.914  37.014  13.569
17547W        W84330  34.450  31.218   4.833
17548W        W84331   1.760  15.243   2.761
17549W        W84332   2.978  33.543   0.483
17550W        W84333  33.915  39.472  12.546
17551W        W84334  22.983  31.862  12.537
17552W        W84335   5.789  35.529   1.155
17553W        W84336   6.098   4.427   3.982
17554W        W84337  17.302  29.896  11.916
17555W        W84338  40.957  43.538   1.178
17556W        W84339  26.239   9.342   0.226
17557W        W84340  38.055  29.091  14.762
17558W        W84341  21.988  18.629  14.750
17559W        W84342   0.902  18.280  14.845
17560W        W84343  16.169   8.586   0.286
17561W        W84344   6.096  17.147  11.781
17562W        W84345  44.464  18.574   2.455
17563W        W84346   1.436  10.688  13.836
17564W        W84347  12.753  16.601   3.249
17565W        W84348  33.921  10.230   1.417
17566W        W84349  35.857  33.005  12.117
17567W        W84350  26.000  18.859  11.588
17568W        W84351  19.117  11.312   1.200
17569W        W84352  17.658   3.784   1.314
17570W        W84353  17.554   6.339  14.506
17571W        W84354   8.682  41.856   4.543
17572W        W84355   7.654  37.054  12.306
17573W        W84356  44.863  11.250  12.082
17574W        W84357   0.380  27.874  11.332
17575W        W84358  11.301  17.254  14.967
17576W        W84359   1.947  16.574  13.407
17577W        W84360  34.388  24.586   2.296
17578W        W84361   3.853   9.650  13.853
17579W        W84362  43.902  36.339  14.363
17580W        W84363   4.718   6.877  10.532
17581W        W84364  12.730  37.160   0.764
17582W        W84365  43.900  26.532  10.210
17583W        W84366  15.304  21.778  13.182
17584W        W84367   3.174  44.414  10.877
17585W        W84368   5.180  42.276  12.486
17586W        W84369  19.501  32.541   3.128
17587W        W84370  43.275   9.694  13.866
17588W        W84371  40.823  28.690   1.838
17589W        W84372  34.806  39.491  14.769
17590W        W84373   5.363   6.117   2.298
17591W        W84374   9.754  30.917  12.609
17592W        W84375  19.018   6.403   3.719
17593W        W84376   1.704  26.933   1.370
17594W        W84377  30.576  23.581   3.890
17595W        W84378   6.799  37.626  13.323
17596W        W84379  21.840   8.404   3.103
17597W        W84380  10.703  32.395  12.825
17598W        W84381  13.110  18.699  14.888
17599W        W84382  16.231  26.963  12.166
17600W        W84383  38.030   9.662  14.947
17601W        W84384  12.608   7.977  12.468
17602W        W84385   7.146  16.753  13.832
17603W        W84386  40.909  33.806   1.824
17604W        W84387  10.871  21.170   0.776
17605W        W84388   6.385  24.817  10.310
17606W        W84389  36.463  22.774   3.622
17607W        W84390  15.050  16.860   2.408
17608W        W84391  38.831  29.213   4.219
17609W        W84392  33.538  38.204  13.329
17610W        W84393  13.176   6.534   4.785
17611W        W84394  43.360  24.845  14.706
17612W        W84395  19.035  32.927   0.790
17613W        W84396  10.141  23.105  12.892
17614W        W84397   3.008  39.082   1.393
17615W        W84398  39.441   3.947   1.489
17616W        W84399  13.946  24.111   3.181
17617W        W84400  31.574  25.759  13.284
17618W        W84401  29.688  41.837   3.957
17619W        W84402  20.150  16.298   4.346
17620W        W84403   0.422   2.630   4.496
17621W        W84404  28.959  22.617   3.878
17622W        W84405  11.792  41.844  11.762
17623W        W84406  11.383  16.744   2.262
17624W        W84407  40.509  32.843   0.394
17625W        W84408  32.178  30.925   2.352
17626W        W84409  25.743   7.938   3.658
17627W        W84410  13.077  20.651   0.029
17628W        W84411  34.949   9.462   9.751
17629W        W84412  34.075  27.107   0.747
17630W        W84413  28.523  28.572   4.747
17631W        W84414  16.038  34.521   2.243
17632W        W84415  25.333   5.162  14.022
17633W        W84416  23.223   7.601   4.942
17634W        W84417  19.730  34.811   0.341
17635W        W84418  42.935  18.650   0.358
17636W        W84419  42.732   2.360  14.651
17637W        W84420  23.193  29.340   1.819
17638W        W84421  12.324  16.132  11.190
17639W        W84422  37.091   3.341  11.636
17640W        W84423  22.805  44.973  13.623
17641W        W84424  26.935   2.455   0.322
17642W        W84425  40.311  44.501  11.720
17643W        W84426  25.458  10.226  11.490
17644W        W84427  33.464  30.428   1.306
17645W        W84428  37.405  26.164   4.559
17646W        W84429  25.219  22.164  10.318
17647W        W84430   1.689  25.986   2.311
17648W        W84431  35.091  16.132   2.769
17649W        W84432   0.439  13.911  10.742
17650W        W84433   2.725  21.640   1.946
17651W        W84434   1.314  38.006   3.305
17652W        W84435  21.994  43.931   3.188
17653W        W84436  41.165  10.615   2.436
17654W        W84437  20.012  24.571  14.356
17655W        W84438   5.939  11.302   4.727
17656W        W84439  34.575  25.408   3.261
17657W        W84440   2.772  31.962  13.950
17658W        W84441   7.676  20.168  13.763
17659W        W84442  35.546  43.860   4.473
17660W        W84443   0.196  15.946  12.511
17661W        W84444  30.499  19.527   4.054
17662W        W84445   8.636   4.836   4.533
17663W        W84446   5.911  43.870   2.346
17664W        W84447  32.653  28.077  12.326
17665W        W84448  16.710  34.449  10.638
17666W        W84449  27.703  42.379  13.366
17667W        W84450  21.963  29.353  11.155
17668W        W84451  39.345   9.790  11.345
17669W        W84452   3.290  32.657   0.720
17670W        W84453   0.863  36.489   1.179
17671W        W84454  41.287  32.163   0.771
17672W        W84455  30.875  26.816  13.931
17673W        W84456  16.083  16.776  14.408
17674W        W84457  33.349  27.616   3.937
17675W        W84458   6.357  35.905  14.847
17676W        W84459  37.944  34.080   4.164
17677W        W84460   0.756  36.279  14.416
17678W        W84461  42.385  29.584  10.460
17679W        W84462  10.406  24.174   2.684
17680W        W84463  33.125  43.906  12.930
17681W        W84464  21.454   5.982   3.268
17682W        W84465   4.569  20.708  12.632
17683W        W84466  15.664  20.099  14.318
17684W        W84467   1.450  31.518   3.450
17685W        W84468   5.577   7.866   1.694
17686W        W84469  36.881  36.910  13.874
17687W        W84470  43.730  43.787   3.602
17688W        W84471   9.621  17.591   1.314
17689W        W84472  21.460   0.504   0.515
17690W        W84473   5.909  21.668  10.657
17691W        W84474  37.397  12.832   3.224
17692W        W84475  31.308  18.469   2.230
17693W        W84476  11.861  28.440   3.179
17694W        W84477  35.490  19.330   4.120
17695W        W84478  29.551  35.576  12.901
17696W        W84479  18.607  12.424   1.889
17697W        W84480  40.140   8.270  14.939
17698W        W84481  21.471  22.133   1.699
17699W        W84482  26.467  16.028   0.901
17700W        W84483  14.560  27.173   1.227
17701W        W84484  17.302  23.622  10.856
17702W        W84485   5.489  40.924  13.327
17703W        W84486  20.630  22.471  11.012
17704W        W84487  13.172  15.750   1.976
17705W        W84488  42.151  21.119   1.837
17706W        W84489  27.494  39.161  11.959
17707W        W84490  33.854   6.262   3.578
17708W        W84491  30.677   9.315  14.528
17709W        W84492  32.330  24.207   3.177
17710W        W84493  17.062   8.313   1.295
17711W        W84494  39.804  16.168   4.637
17712W        W84495  36.770  38.819  13.949
17713W        W84496  24.000  17.031   2.269
17714W        W84497  38.897   6.464  13.979
17715W        W84498  21.115  43.863   4.618
17716W        W84499  23.946   4.331   0.712
17717W        W84500  37.139  28.975  12.539
17718W        W84501   0.390  14.609   5.454
17719W        W84502   1.675   6.607   4.128
17720W        W84503   2.786  42.456   1.890
17721W        W84504  27.605  34.302  12.226
17722W        W84505   9.291   7.969  14.003
17723W        W84506  15.400  18.333  11.632
17724W        W84507  31.098   2.487  12.410
17725W        W84508  33.185   5.860  14.075
17726W        W84509  26.601  20.548  11.290
17727W        W84510  41.247  31.574  11.447
17728W        W84511   1.142  26.561   2.294
17729W        W84512  24.735  14.337  11.908
17730W        W84513  26.872  39.434  12.941
17731W        W84514  33.605  15.654   2.768
17732W        W84515  37.872  25.390  12.778
17733W        W84516   8.273   6.048  14.892
17734W        W84517  18.083   3.295  12.444
17735W        W84518  39.334  16.258  12.631
17736W        W84519  16.184   7.676   1.985
17737W        W84520  17.043  38.852  12.273
17738W        W84521   0.474  13.093  12.919
17739W        W84522  10.370  32.755  14.890
17740W        W84523   8.355  12.093   0.273
17741W        W84524   8.972  28.706  10.829
17742W        W84525  37.962  10.889   0.324
17743W        W84526  11.170  30.605   3.258
17744W        W84527  19.373  27.243  12.549
17745W        W84528  19.092   8.747  11.999
17746W        W84529  11.173  39.389  11.615
17747W        W84530  33.312  15.150   1.111
17748W        W84531   5.239  16.383  10.804
17749W        W84532  39.514  43.483  13.573
17750W        W84533  21.893  40.390  13.044
17751W        W84534  26.282  37.959   0.839
17752W        W84535  34.881  31.891  10.579
17753W        W84536  22.149  17.561   4.663
17754W        W84537  15.132  26.179  13.978
17755W        W84538   4.347  41.014   1.208
17756W        W84539  31.924  39.094  13.449
17757W        W84540  13.205   3.631  12.455
17758W        W84541  24.929  10.864   1.585
17759W        W84542   4.143   4.745   2.188
17760W        W84543   5.662   8.706  11.593
17761W        W84544   9.680  30.421  12.436
17762W        W84545   8.714   6.221   1.335
17763W        W84546  14.796  25.896  10.698
17764W        W84547   9.648  15.928  14.463
17765W        W84548  23.158  35.826   2.137
17766W        W84549   7.182  29.917   3.943
17767W        W84550  19.022   0.733  13.487
17768W        W84551  13.161  36.524   0.007
17769W        W84552  24.152  44.401  11.548
17770W        W84553  19.793   3.363   2.799
17771W        W84554   5.362  35.601  11.132
17772W        W84555  34.385  36.362   1.944
17773W        W84556  25.330  31.632  13.990
17774W        W84557  32.786  22.776   3.233
17775W        W84558  43.903  15.340  13.496
17776W        W84559  34.011  31.547  11.504
17777W        W84560  23.562  17.100  14.786
17778W        W84561  17.003  19.422   4.546
17779W        W84562  43.030  12.494  13.578
17780W        W84563  25.194  14.097  10.643
17781W        W84564  18.001  31.077   2.233
17782W        W84565  12.367   9.741  13.840
17783W        W84566   4.359  36.681  11.061
17784W        W84567  30.328  17.637  13.338
17785W        W84568  12.251  14.757   4.181
17786W        W84569  26.259  39.752   0.354
17787W        W84570  26.505  34.159   3.315
17788W        W84571  18.610  29.184   0.259
17789W        W84572  20.251   5.791   3.644
17790W        W84573  39.442   5.274  14.793
17791W        W84574  16.623  15.723  13.776
17792W        W84575   9.386  36.793   4.052
17793W        W84576  18.418  28.884   3.692
17794W        W84577  25.051  25.121  14.169
17795W        W84578  32.046   0.928  10.679
17796W        W84579  26.492  19.827   0.831
17797W        W84580  22.567  21.188  10.442
17798W        W84581   7.182  15.788   3.208
17799W        W84582  23.027  31.621  10.457
17800W        W84583  18.593   6.925   1.886
17801W        W84584  24.978  25.442   1.274
17802W        W84585  17.861  19.833   4.456
17803W        W84586   5.201  10.405  14.985
17804W        W84587  40.493  20.562   1.427
17805W        W84588  29.448  18.816   4.795
17806W        W84589  29.706  22.849  10.313
17807W        W84590   0.038  23.740   3.232
17808W        W84591  26.411  25.247  13.883
17809W        W84592  28.035  36.840  14.800
17810W        W84593   5.067   4.454   0.433
17811W        W84594  30.336  12.260   0.179
17812W        W84595  39.430  38.929   1.776
17813W        W84596  38.590  32.084  14.581
17814W        W84597  39.996  19.094   4.130
17815W        W84598  13.670  21.290  13.109
17816W        W84599  15.553  24.314   0.944
17817W        W84600  40.035  26.215  10.698
17818W        W84601  36.942  44.447  12.007
17819W        W84602   0.868  13.422   2.774
17820W        W84603   6.091  33.526   0.660
17821W        W84604  12.224  22.806   2.260
17822W        W84605  36.108  26.148  11.100
17823W        W84606  24.711   6.678   1.905
17824W        W84607  38.958  41.897  13.052
17825W        W84608  30.652  16.695   0.425
17826W        W84609  34.125   2.323  14.968
17827W        W84610  30.482   3.362   5.054
17828W        W84611  29.944  33.397   0.809
17829W        W84612  34.011  39.339   4.671
17830W        W84613   5.885   9.868   4.121
17831W        W84614  25.187  38.819  14.050
17832W        W84615   7.862  31.420  12.391
17833W        W84616  33.138  32.433   4.201
17834W        W84617  22.549  24.248   1.721
17835W        W84618   2.723  26.928  12.497
17836W        W84619  27.034   5.676   4.563
17837W        W84620  13.884  18.135   4.445
17838W        W84621  18.202   6.714  12.467
17839W        W84622  27.095  13.565  11.071
17840W        W84623  23.303  11.814  11.558
17841W        W84624  34.989  44.484   0.880
17842W        W84625  17.132  44.057  10.884
17843W        W84626   2.803  29.913   3.691
17844W        W84627  44.360  31.440  10.597
17845W        W84628  11.415  33.836   3.644
17846W        W84629  26.158   8.622   0.867
17847W        W84630  43.236  16.009  12.418
17848W        W84631  17.504   2.648   2.665
17849W        W84632  21.264   3.964  13.390
17850W        W84633  24.591  21.632  10.632
17851W        W84634  14.015  28.639   4.001
17852W        W84635  28.003  37.344  14.889
17853W        W84636  42.301  31.718  12.981
17854W        W84637  27.823  20.471  10.288
17855W        W84638  28.761   5.980  11.595
17856W        W84639  17.270  23.866   0.437
17857W        W84640  33.460  18.275   2.185
17858W        W84641  12.447  24.769  14.940
17859W        W84642  37.135  16.875  14.584
17860W        W84643  22.548  10.172  12.410
17861W        W84644  23.525   5.618  11.721
17862W        W84645   8.916   4.825  13.946
17863W        W84646  31.008  24.664  14.779
17864W        W84647  33.524  12.523  10.781
17865W        W84648   1.507  12.018   3.710
17866W        W84649  19.109  22.924  12.482
17867W        W84650  27.106  24.652  11.936
17868W        W84651  26.203  42.979   1.379
17869W        W84652  42.296   2.066  14.495
17870W        W84653  34.065  37.534   2.492
17871W        W84654  10.300   1.631  11.173
17872W        W84655  35.975  23.230  11.420
17873W        W84656  30.023  26.155  13.798
17874W        W84657  23.348   2.872  11.979
17875W        W84658  40.894  30.360   1.033
17876W        W84659   3.698  43.134  11.623
17877W        W84660  38.798  41.018   1.262
17878W        W84661  32.987   5.022   2.401
17879W        W84662  10.764  18.803   0.372
17880W        W84663   1.958  30.032  13.439
17881W        W84664  10.106  35.719   4.101
17882W        W84665   7.485   8.827  11.803
17883W        W84666  19.563  24.396  13.910
17884W        W84667  13.333  10.077   0.834
17885W        W84668   3.614  32.476   3.034
17886W        W84669   8.871  12.524  10.222
17887W        W84670   6.945  16.197  13.483
17888W        W84671   9.647  11.252   3.670
17889W        W84672   7.707  23.135   1.183
17890W        W84673   5.125  31.207   3.148
17891W        W84674  34.021   7.026   1.885
17892W        W84675   2.465  19.996  11.648
17893W        W84676  28.699  16.707  11.047
17894W        W84677   1.007  19.754  10.703
17895W        W84678  41.338  31.992  14.905
17896W        W84679  19.632  29.232   1.410
17897W        W84680  12.861   0.948   2.372
17898W        W84681  30.016  15.112   0.937
17899W        W84682  33.067  34.953  12.827
17900W        W84683   7.765   8.238  13.860
17901W        W84684  19.069  44.801   1.425
17902W        W84685   8.412  43.944   3.347
17903W        W84686  35.224  29.387  11.577
17904W        W84687  28.449  44.065   0.764
17905W        W84688  10.297   6.304   5.439
17906W        W84689  17.432  39.823   1.491
17907W        W84690  35.590  28.100  11.169
17908W        W84691  41.100   8.834   2.865
17909W        W84692  18.123  23.091   2.647
17910W        W84693  41.955  36.286   2.735
17911W        W84694   2.278  20.954   1.281
17912W        W84695  40.686   8.283  13.843
17913W        W84696  11.940  21.106  13.031
17914W        W84697  41.729  42.720   1.380
17915W        W84698  25.178   3.650  14.817
17916W        W84699  21.620  43.276   0.978
17917W        W84700  41.026  42.258   4.103
17918W        W84701  13.451  23.641  12.438
17919W        W84702  39.257  11.827  13.853
17920W        W84703  43.390  15.066   0.053
17921W        W84704  31.379  23.728  10.272
17922W        W84705  26.201  39.950  13.426
17923W        W84706  11.202  20.632  11.993
17924W        W84707  21.563   5.783   2.377
17925W        W84708  42.798   8.627  12.502
17926W        W84709  20.239  42.513  13.363
17927W        W84710  39.254  40.063  12.434
17928W        W84711  30.494   7.192   1.357
17929W        W84712   3.930   0.217  13.683
17930W        W84713  26.590  24.680   1.494
17931W        W84714   6.653  36.282   2.375
17932W        W84715   6.242   0.041   3.686
17933W        W84716  11.272  42.349  12.096
17934W        W84717  42.029   2.413  11.099
17935W        W84718  26.220  11.858  11.548
17936W        W84719  18.344  12.694  14.921
17937W        W84720   3.720  22.992   1.327
17938W        W84721   7.919  37.264  13.640
17939W        W84722  11.943  22.914  11.581
17940W        W84723  18.911  39.915  12.469
17941W        W84724  17.288  42.015   1.732
17942W        W84725  44.870   9.671  11.130
17943W        W84726  30.140  17.748  14.324
17944W        W84727  31.963  42.048  11.215
17945W        W84728  44.695  24.675   2.095
17946W        W84729   9.583  37.450  10.665
17947W        W84730  14.293   7.218  12.619
17948W        W84731  13.215  22.729   2.609
17949W        W84732   0.888   6.027  13.600
17950W        W84733   6.125  31.804   4.424
17951W        W84734   2.485  30.250  14.703
17952W        W84735  14.298  11.907   2.860
17953W        W84736  19.170   5.949  14.475
17954W        W84737  44.616  15.804   4.190
17955W        W84738  27.214   8.938   3.713
17956W        W84739  24.946  34.031  11.538
17957W        W84740  20.444  31.285   4.769
17958W        W84741  30.029  32.371   4.168
17959W        W84742  35.363  22.939  14.471
17960W        W84743  20.921  27.656   1.376
17961W        W84744  40.987  17.205   3.856
17962W        W84745  37.546  28.710  11.235
17963W        W84746   1.460  16.789  10.693
17964W        W84747   7.131   0.830  11.191
17965W        W84748   1.020  18.496  12.031
17966W        W84749  34.044   4.794   1.290
17967W        W84750  37.423  10.185  10.405
17968W        W84751  21.568  41.989  12.144
17969W        W84752   2.062  28.642  13.338
17970W        W84753  36.869   6.200   5.004
17971W        W84754  42.458  11.244   5.069
17972W        W84755  23.174  32.081  10.161
17973W        W84756   9.494  30.529   1.210
17974W        W84757  11.262  19.804   0.994
17975W        W84758  36.398  19.411  12.001
17976W        W84759  44.938  44.007  11.884
17977W        W84760  16.710  42.820  13.704
17978W        W84761  42.083   1.412   4.882
17979W        W84762   9.814  41.118   1.747
17980W        W84763  43.590  42.036  11.714
17981W        W84764  28.718  20.593  13.121
17982W        W84765  20.575   1.818  11.581
17983W        W84766  16.382  28.192  12.951
17984W        W84767  20.261  14.678   2.983
17985W        W84768   1.992   3.805  10.800
17986W        W84769  17.090  37.319  10.601
17987W        W84770   6.763  41.418  13.471
17988W        W84771  18.198  37.047  11.103
17989W        W84772  31.957  11.072   3.226
17990W        W84773  36.634  39.208   5.087
17991W        W84774   1.845  24.756   1.959
17992W        W84775   0.016  35.394  14.306
17993W        W84776  36.429   7.942   0.331
17994W        W84777  22.246  29.224   1.560
17995W        W84778  19.420   0.184  11.894
17996W        W84779  14.175  24.430  14.380
17997W        W84780  40.541   3.418  10.365
17998W        W84781  37.577  18.145  13.567
17999W        W84782  37.050  20.485   3.681
18000W        W84783   5.883  23.637   0.494
18001W        W84784  39.293  26.522  11.439
18002W        W84785  38.539  23.485   0.046
18003W        W84786  32.712  13.310  11.675
18004W        W84787  21.041   6.251   1.684
18005W        W84788  25.497  17.063   2.256
18006W        W84789  43.152   4.665   2.198
18007W        W84790  32.819  23.551   1.389
18008W        W84791   6.255  33.228  11.435
18009W        W84792   8.787   0.031  12.611
18010W        W84793  15.396  19.591  10.550
18011W        W84794  11.225  25.482   2.263
18012W        W84795  31.059  23.191   2.614
18013W        W84796   0.734  15.205  12.845
18014W        W84797   6.375  30.397  10.645
18015W        W84798  37.642   8.898  10.519
18016W        W84799   0.033  15.326   2.881
18017W        W84800  21.519   8.348   0.332
18018W        W84801  40.786  28.034  10.939
18019W        W84802  15.241   6.673   1.420
18020W        W84803   2.933  16.060  10.444
18021W        W84804   9.729  28.365   0.235
18022W        W84805  32.857  34.132   3.776
18023W        W84806   3.316  11.710  12.973
18024W        W84807  30.188  18.033   4.549
18025W        W84808  12.306  31.446   0.544
18026W        W84809  37.510  35.253  11.077
18027W        W84810   8.289  39.456  12.902
18028W        W84811   5.275  42.573  12.914
18029W        W84812  22.679   5.713   0.797
18030W        W84813   7.129  34.643   4.201
18031W        W84814  38.579  17.203   2.204
18032W        W84815  12.771   7.708   2.869
18033W        W84816  27.617   1.395  14.875
18034W        W84817  24.525  37.122  14.298
18035W        W84818  20.621  34.540  12.010
18036W        W84819  23.051  14.290  12.446
18037W        W84820  16.620  43.131   0.064
18038W        W84821  23.947  16.788  11.133
18039W        W84822   7.595  31.120   3.671
18040W        W84823  32.839  36.399  12.913
18041W        W84824  12.172  12.436  12.632
18042W        W84825  25.742   4.362  13.882
18043W        W84826  24.615  13.041  12.566
18044W        W84827  33.176  31.515  14.401
18045W        W84828  10.486   5.348   3.691
18046W        W84829  22.483  11.179  11.070
18047W        W84830  23.492  29.518   1.298
18048W        W84831  25.670  14.749   2.739
18049W        W84832   7.733   7.839   1.095
18050W        W84833   7.973  43.804   3.651
18051W        W84834  22.153  36.133   2.710
18052W        W84835  20.990  36.367  12.422
18053W        W84836  25.411  42.153   1.314
18054W        W84837  44.104   9.624  12.876
18055W        W84838  12.574  41.664  12.848
18056W        W84839  11.091   7.788   2.668
18057W        W84840  33.434  33.446  14.352
18058W        W84841  11.712  22.814   2.465
18059W        W84842  37.152  18.544   3.327
18060W        W84843  21.156   4.946   0.149
18061W        W84844  44.899   6.213  12.164
18062W        W84845  35.790  10.516   4.854
18063W        W84846  20.285  33.567   1.665
18064W        W84847  30.597  21.480   3.912
18065W        W84848  42.027   3.316   3.145
18066W        W84849  38.399  21.601  12.994
18067W        W84850   0.037  25.023   0.742
18068W        W84851  29.440  28.589   1.213
18069W        W84852  19.141  37.296  13.030
18070W        W84853  10.331  12.307  10.709
18071W        W84854  22.719  25.487  14.019
18072W        W84855  40.509  33.278  11.106
18073W        W84856  34.022  15.578  14.483
18074W        W84857  13.959   0.059  11.724
18075W        W84858  10.245  27.485  14.765
18076W        W84859  39.556   0.695   4.053
18077W        W84860  34.653  18.719   4.166
18078W        W84861  40.857  44.563   2.715
18079W        W84862  11.160  38.376   3.858
18080W        W84863   6.883  15.335   1.282
18081W        W84864  37.014   0.385  14.412
18082W        W84865  17.684  37.959  10.285
18083W        W84866  26.773  12.631   1.926
18084W        W84867  39.544   2.381  13.538
18085W        W84868   9.142  29.751  12.242
18086W        W84869  29.111  30.094  14.462
18087W        W84870   1.366  26.013   4.956
18088W        W84871  26.402  22.541  13.417
18089W        W84872  36.985  32.163   3.816
18090W        W84873  23.522  40.375   3.123
18091W        W84874   7.271  29.053  12.043
18092W        W84875  33.152  27.558  11.980
18093W        W84876  28.607  29.281  14.604
18094W        W84877   0.228   1.953   3.539
18095W        W84878  34.376  32.542  12.955
18096W        W84879  30.154  15.199  12.144
18097W        W84880   7.653  24.628   2.183
18098W        W84881  28.105  33.995   1.909
18099W        W84882   8.448  12.560   4.096
18100W        W84883   0.581  38.377  10.973
18101W        W84884  14.915   7.490   4.299
18102W        W84885  42.676  20.263   2.323
18103W        W84886  35.924   0.417   5.018
18104W        W84887   0.497  16.671  10.509
18105W        W84888  40.440  41.405  13.342
18106W        W84889  31.584  39.312   1.298
18107W        W84890  12.034  37.906   4.018
18108W        W84891   3.659  34.401   1.741
18109W        W84892  26.941  19.459  14.781
18110W        W84893   5.034  35.386  13.914
18111W        W84894  29.926  20.464  11.000
18112W        W84895  13.744  36.002   2.869
18113W        W84896  14.918  36.830   3.732
18114W        W84897  37.553  30.675  14.441
18115W        W84898  43.846  37.088  12.647
18116W        W84899  15.256   6.150  14.740
18117W        W84900   7.539   0.244  13.918
18118W        W84901  37.988  19.995  12.325
18119W        W84902  17.550  10.855  14.198
18120W        W84903  17.353   4.773   2.202
18121W        W84904  27.732   7.235   4.748
18122W        W84905   4.255   8.246  13.031
18123W        W84906  27.858  43.982   0.030
18124W        W84907  34.501  13.836  10.864
18125W        W84908   9.517  44.333  14.462
18126W        W84909   7.168  29.959  12.931
18127W        W84910   9.606   0.146  10.601
18128W        W84911  27.308   2.386  10.638
18129W        W84912  14.129  38.614   4.625
18130W        W84913  23.239  28.012   2.474
18131W        W84914  18.529  26.966  11.062
18132W        W84915  25.188  28.913   4.171
18133W        W84916   3.305   0.753  12.047
18134W        W84917  36.529   4.768   1.397
18135W        W84918  37.578   6.872   1.937
18136W        W84919  23.480  18.097   2.040
18137W        W84920  19.653  42.528   1.889
18138W        W84921   2.611   5.316  12.654
18139W        W84922  24.331   6.886  12.340
18140W        W84923   4.290   9.837   4.838
18141W        W84924  43.095  28.085   9.508
18142W        W84925   3.168  31.837  14.926
18143W        W84926   8.447  19.580   1.719
18144W        W84927  44.823   2.824  13.326
18145W        W84928  43.307  28.724   2.722
18146W        W84929  21.231  34.133  14.011
18147W        W84930  25.604  35.195  11.997
18148W        W84931  22.879  35.517   0.422
18149W        W84932   0.833  20.200   2.184
18150W        W84933  22.652  27.359   0.055
18151W        W84934  40.868   3.360  13.109
18152W        W84935  14.621  15.312  11.172
18153W        W84936  24.225  10.162  14.561
18154W        W84937  40.279   8.639   0.867
18155W        W84938   7.971  14.676  13.789
18156W        W84939  20.571  40.257   0.996
18157W        W84940  12.797  25.583  12.145
18158W        W84941  22.353  39.155   1.478
18159W        W84942  10.954  28.951  11.567
18160W        W84943  38.119  31.671   2.647
18161W        W84944  36.385  30.438   1.901
18162W        W84945  39.934  34.137  14.408
18163W        W84946  32.623  36.005   1.407
18164W        W84947  11.724  24.548   1.712
18165W        W84948   9.229   3.889  11.867
18166W        W84949  15.726  44.089   3.315
18167W        W84950  15.550  23.116   2.216
18168W        W84951   9.253  38.729   2.412
18169W        W84952  24.607  42.936   2.465
18170W        W84953  31.378   0.083   4.641
18171W        W84954  44.040   2.400  11.087
18172W        W84955  42.845   1.811   2.468
18173W        W84956  25.564  36.619   0.909
18174W        W84957   6.228  29.724  14.845
18175W        W84958  21.604  13.281   1.488
18176W        W84959   0.068  21.267  12.036
18177W        W84960  28.497  30.987   2.675
18178W        W84961  16.212  21.704   3.332
18179W        W84962  36.821  25.213  11.199
18180W        W84963  22.190  23.694  12.517
18181W        W84964  43.551  16.800   5.392
18182W        W84965  29.443  31.445  11.574
18183W        W84966  17.241  44.757   0.916
18184W        W84967  44.185  19.030  12.900
18185W        W84968  25.699  37.291  12.028
18186W        W84969  23.056  44.535  14.394
18187W        W84970  32.834  36.390   4.502
18188W        W84971  38.043  16.012  11.166
18189W        W84972  11.237  31.251  14.853
18190W        W84973   8.767  41.300  13.980
18191W        W84974   4.370  17.605  14.769
18192W        W84975  41.220  21.245  12.618
18193W        W84976  29.717  35.013  11.651
18194W        W84977  39.786   7.709   3.290
18195W        W84978  15.398  21.405   2.797
18196W        W84979  13.858  35.522  10.471
18197W        W84980  31.378  41.470   1.442
18198W        W84981   0.431  33.827   4.010
18199W        W84982   3.680  35.387  12.022
18200W        W84983  33.896  16.065   2.721
18201W        W84984  12.660  21.582   0.723
18202W        W84985  32.895   7.291   0.448
18203W        W84986   7.939  21.805   2.063
18204W        W84987   3.364  21.504   3.149
18205W        W84988  21.286   2.008   1.321
18206W        W84989   4.779  35.963  11.990
18207W        W84990  44.166  13.166   5.425
18208W        W84991  43.214   2.083   2.703
18209W        W84992  39.524   1.712   2.350
18210W        W84993  26.147  36.527   2.259
18211W        W84994  34.008  34.097  14.359
18212W        W84995   2.393  38.129   1.232
18213W        W84996   9.488   3.338  10.740
18214W        W84997  12.557  20.019   1.723
18215W        W84998   8.354  15.701   2.407
18216W        W84999  17.614  40.950   4.179
18217W        W85000  28.594  44.237  13.536
18218W        W85001  34.421   8.988  13.966
18219W        W85002   5.900  10.356   4.358
18220W        W85003  30.514  25.226   0.960
18221W        W85004  42.461  27.945  12.231
18222W        W85005  10.774  40.979   3.402
18223W        W85006   4.541  19.881   0.292
18224W        W85007  10.834   4.835  14.788
18225W        W85008  11.712   4.270   0.497
18226W        W85009   4.232  41.630  10.941
18227W        W85010  14.593  39.544   3.297
18228W        W85011  25.503   3.804   2.383
18229W        W85012  18.148   4.211   3.897
18230W        W85013  15.197  42.565   0.799
18231W        W85014  13.698  27.401  11.617
18232W        W85015  36.481  20.482  12.955
18233W        W85016  12.619  17.083   3.054
18234W        W85017  13.637   6.756   4.582
18235W        W85018   0.220   4.323   0.710
18236W        W85019   6.789   6.952   4.656
18237W        W85020  32.850  19.482  14.525
18238W        W85021  22.606  21.052   4.249
18239W        W85022  20.368  13.655   4.811
18240W        W85023   8.156  39.209   3.771
18241W        W85024  19.173  23.222  12.894
18242W        W85025  17.641  14.826  12.484
18243W        W85026   0.756  12.279   4.190
18244W        W85027  38.790   4.647   3.636
18245W        W85028  22.016  25.647   5.046
18246W        W85029  39.334  22.221  13.856
18247W        W85030  26.367  38.518   2.379
18248W        W85031   7.264  17.216   1.712
18249W        W85032  32.977  18.552  13.625
18250W        W85033  36.963  35.236   1.246
18251W        W85034  41.832  31.460   2.280
18252W        W85035  17.161  40.471   0.494
18253W        W85036  42.496  30.454   1.697
18254W        W85037   7.018   6.770  11.231
18255W        W85038  37.068  16.790   2.727
18256W        W85039   4.515  41.345   2.827
18257W        W85040  23.378   3.283  12.957
18258W        W85041   7.259  22.777  11.685
18259W        W85042  11.250  21.497  14.787
18260W        W85043  19.502  12.754   1.822
18261W        W85044  36.008  26.418  12.657
18262W        W85045  35.183  22.328   4.624
18263W        W85046  29.633  30.524   3.245
18264W        W85047   2.311  28.656   4.801
18265W        W85048  43.724  39.115   4.165
18266W        W85049  30.205  19.871   9.850
18267W        W85050  39.081   2.409   1.500
18268W        W85051  24.000  25.056  12.328
18269W        W85052  19.601  17.765   0.248
18270W        W85053  39.636  22.708  14.393
18271W        W85054  17.341  12.144   0.666
18272W        W85055  18.353  13.121  13.980
18273W        W85056   6.215   6.239   0.383
18274W        W85057  21.260   2.338   4.002
18275W        W85058  37.965  35.411  10.394
18276W        W85059  19.664  32.008   2.974
18277W        W85060   0.492  10.112  10.595
18278W        W85061  11.520  25.210   2.710
18279W        W85062  15.095   5.925  11.438
18280W        W85063  11.934   2.492  11.973
18281W        W85064  32.658  16.846   1.838
18282W        W85065  37.528  15.145  12.835
18283W        W85066  17.594   3.534   0.843
18284W        W85067  28.623  18.961   1.682
18285W        W85068  31.757  19.631  14.892
18286W        W85069  11.402  33.420  14.548
18287W        W85070  30.085  32.089   0.443
18288W        W85071  35.086  39.318  11.980
18289W        W85072  21.283  14.068  11.580
18290W        W85073  30.622   7.935  14.429
18291W        W85074  17.749   9.917  13.853
18292W        W85075  34.926   6.657   4.027
18293W        W85076  25.327  38.781   2.592
18294W        W85077  26.039  18.530  10.683
18295W        W85078  31.345  39.600   0.906
18296W        W85079  38.424  25.982  14.807
18297W        W85080  16.768  23.274   1.148
18298W        W85081  11.774  25.116   1.686
18299W        W85082  16.480  18.500  13.475
18300W        W85083  44.519   9.362  11.941
18301W        W85084  23.062  41.814  13.504
18302W        W85085  13.685  20.632   1.296
18303W        W85086   2.494  14.980   3.758
18304W        W85087  32.468  26.016  12.978
18305W        W85088  38.057  36.916  11.871
18306W        W85089  33.950   9.608   3.090
18307W        W85090  22.662  28.154  12.075
18308W        W85091  33.640  20.676  14.360
18309W        W85092  15.396  30.855  14.371
18310W        W85093  24.523  39.866  10.384
18311W        W85094  43.011  34.491   0.739
18312W        W85095  18.084   5.432   3.214
18313W        W85096   6.246  33.198   4.175
18314W        W85097  11.176  12.337  13.468
18315W        W85098  39.609   9.314   4.624
18316W        W85099  35.401  25.730   2.230
18317W        W85100   5.629  41.326  14.918
18318W        W85101   9.805  15.607   1.259
18319W        W85102  10.562  30.074   1.985
18320W        W85103  25.509  24.701   0.713
18321W        W85104  42.968  14.194  10.550
18322W        W85105  10.411  19.646  12.475
18323W        W85106  26.542  43.494  13.308
18324W        W85107  42.876  35.987   1.801
18325W        W85108   5.632   1.350   4.703
18326W        W85109  15.619   6.254   3.302
18327W        W85110   8.742  18.635   0.193
18328W        W85111   8.774  33.514   1.080
18329W        W85112   0.196  19.842   1.353
18330W        W85113  17.163  40.075   3.694
18331W        W85114  38.559   0.672   4.952
18332W        W85115   8.378   7.237   0.783
18333W        W85116  35.667  21.378  10.236
18334W        W85117  11.464  13.969   1.417
18335W        W85118   0.752  41.410   2.727
18336W        W85119   7.119   2.198  12.881
18337W        W85120   1.925  39.236  12.704
18338W        W85121  20.081  19.724   4.569
18339W        W85122  13.612   1.503   4.106
18340W        W85123  33.380  27.605  10.644
18341W        W85124  10.747  44.318  13.597
18342W        W85125  20.191  17.192   3.670
18343W        W85126  29.654  25.732   0.754
18344W        W85127  26.918  23.896   1.558
18345W        W85128  42.682   6.419   3.865
18346W        W85129   6.749   5.992   4.715
18347W        W85130  24.990  35.031   2.213
18348W        W85131  39.508  30.359   2.351
18349W        W85132  38.357  25.102  10.599
18350W        W85133  41.227   4.834   2.714
18351W        W85134  17.857  35.818  10.218
18352W        W85135  14.350  38.344  14.774
18353W        W85136   7.195  27.680  13.002
18354W        W85137  30.556  26.229  11.412
18355W        W85138  16.746  36.629   0.170
18356W        W85139   0.918  14.080   3.353
18357W        W85140  23.065  36.311  12.048
18358W        W85141  11.232  33.281   2.127
18359W        W85142  20.443   8.685   2.641
18360W        W85143   1.948   9.867   1.678
18361W        W85144  25.285  28.124  10.177
18362W        W85145  14.521   9.768   0.222
18363W        W85146  32.648  21.214  13.102
18364W        W85147  25.969  15.888   0.989
18365W        W85148  28.948  21.176   0.337
18366W        W85149   2.242  19.430   1.277
18367W        W85150  39.019  41.531   0.276
18368W        W85151   0.384   3.215  10.581
18369W        W85152  18.143   2.398   3.257
18370W        W85153  19.904  39.073   2.257
18371W        W85154  15.125  30.626  14.791
18372W        W85155  29.628   8.928   3.289
18373W        W85156   0.279  20.780  12.002
18374W        W85157  44.443  42.533   5.066
18375W        W85158  29.465  33.557  12.051
18376W        W85159  13.555  19.738  12.002
18377W        W85160   5.109  29.052  12.940
18378W        W85161  25.493  40.993   2.467
18379W        W85162  43.889  10.196   2.812
18380W        W85163  11.256  40.370  12.929
18381W        W85164   8.891  38.244  14.983
18382W        W85165  38.588  17.649  13.942
18383W        W85166  20.940  11.281   0.850
18384W        W85167   7.275  33.984   2.161
18385W        W85168  26.374  42.578   9.813
18386W        W85169  18.463   1.438  12.978
18387W        W85170  34.472  33.118  13.996
18388W        W85171  26.577  20.194  14.063
18389W        W85172  44.079  29.701   0.850
18390W        W85173  26.139  13.178  14.908
18391W        W85174  27.636  40.706  12.105
18392W        W85175  12.201  13.663  13.266
18393W        W85176  41.091  41.644  13.936
18394W        W85177   3.944   5.743  12.887
18395W        W85178  13.756  28.946   3.448
18396W        W85179   7.915   4.628  11.557
18397W        W85180  28.100  28.394  12.570
18398W        W85181  29.833  20.574   5.024
18399W        W85182  42.971  25.479  12.671
18400W        W85183  39.553  15.262   3.122
18401W        W85184  12.739  34.821  14.836
18402W        W85185  17.378   6.969  14.229
18403W        W85186  33.619   2.399  13.571
18404W        W85187  38.508  37.150  11.997
18405W        W85188  22.255  40.878  12.070
18406W        W85189  38.523   6.502   0.071
18407W        W85190  16.284  34.667   1.107
18408W        W85191  24.345  43.328   3.316
18409W        W85192   2.845  10.131   2.376
18410W        W85193  12.806   7.023  10.665
18411W        W85194   5.061   8.398  13.784
18412W        W85195  28.067  16.316   4.175
18413W        W85196   4.840  40.269  11.490
18414W        W85197  18.518  40.992   0.378
18415W        W85198  18.279  18.531  13.286
18416W        W85199  33.780  44.871  12.999
18417W        W85200  23.117  26.153  11.332
18418W        W85201  39.996   5.503  10.707
18419W        W85202  12.110  38.320   0.473
18420W        W85203  30.063  12.813  14.095
18421W        W85204  42.747  22.643  13.556
18422W        W85205   3.852   5.516   4.098
18423W        W85206  23.999  33.443  12.548
18424W        W85207  33.169  28.061   1.969
18425W        W85208  42.448  37.877   3.324
18426W        W85209  28.713  38.023   2.012
18427W        W85210  12.760   1.090  13.687
18428W        W85211  23.468  31.601  13.778
18429W        W85212   4.201  25.115   3.295
18430W        W85213   4.819  33.584  12.543
18431W        W85214  39.909  32.107   0.442
18432W        W85215   9.325  34.538  12.180
18433W        W85216  41.522  36.576   2.722
18434W        W85217  18.343  17.072   2.338
18435W        W85218  41.236  29.999   1.777
18436W        W85219  42.849  44.862   3.869
18437W        W85220  35.076   4.302   4.676
18438W        W85221  23.086  40.106  11.643
18439W        W85222  31.586  10.603   0.950
18440W        W85223   1.839  37.846  11.213
18441W        W85224   9.667  19.589   0.348
18442W        W85225  31.660  32.065   2.001
18443W        W85226  43.774  33.070   3.576
18444W        W85227   9.111  44.397   1.719
18445W        W85228  32.403  15.661   4.198
18446W        W85229   4.801  31.589   1.860
18447W        W85230  37.318  17.048  12.785
18448W        W85231  31.345  20.510  13.905
18449W        W85232   4.932  17.654   3.681
18450W        W85233  21.139   9.671   1.895
18451W        W85234  43.031  42.919  13.361
18452W        W85235   1.740   8.367   3.163
18453W        W85236   6.322  13.561   4.691
18454W        W85237  30.323  43.469   4.084
18455W        W85238  23.342  31.916   2.375
18456W        W85239   5.697  33.086  12.894
18457W        W85240  12.548  43.375  11.663
18458W        W85241  41.101  41.165  14.127
18459W        W85242  32.880  36.958  11.597
18460W        W85243  17.146  27.697  12.912
18461W        W85244   8.946   2.913   1.721
18462W        W85245  19.617  19.906   4.631
18463W        W85246  22.724  44.900  10.222
18464W        W85247  11.330  28.990   1.909
18465W        W85248  43.615  18.796   3.755
18466W        W85249  10.544  27.623   1.635
18467W        W85250  36.161  32.526   4.060
18468W        W85251  39.022   4.956  12.870
18469W        W85252  29.070   7.605  12.850
18470W        W85253  36.520  33.141  12.960
18471W        W85254   0.940  12.149  11.331
18472W        W85255  30.567  41.271  10.707
18473W        W85256  33.924  26.702  11.455
18474W        W85257   8.812  30.073   0.381
18475W        W85258   3.804  12.231   5.034
18476W        W85259  38.868  31.634  14.484
18477W        W85260  10.030  18.368  11.754
18478W        W85261  30.387  12.081  10.669
18479W        W85262  16.832  21.286   0.414
18480W        W85263  25.444  12.864  12.007
18481W        W85264  38.001  27.761   3.243
18482W        W85265  43.801  40.775   0.432
18483W        W85266   4.274  44.796   1.730
18484W        W85267  40.086  22.705  13.255
18485W        W85268   9.409  12.889   2.259
18486W        W85269  34.734  15.080   0.436
18487W        W85270  42.007  35.025  14.381
18488W        W85271  11.511  14.375   9.789
18489W        W85272  10.781  32.515  11.318
18490W        W85273  36.587  13.136   0.803
18491W        W85274  34.848  33.662  11.159
18492W        W85275   4.883  30.964  12.431
18493W        W85276  26.004  20.196  11.748
18494W        W85277  19.130  44.837  14.934
18495W        W85278  17.167   7.865   2.199
18496W        W85279  29.542  25.093  10.376
18497W        W85280  12.279  29.126   2.050
18498W        W85281  26.540  30.801   0.991
18499W        W85282  11.779  19.924  13.462
18500W        W85283  21.124  35.865   4.345
18501W        W85284  39.547  25.661  12.028
18502W        W85285  18.359   0.318  12.860
18503W        W85286  32.642  27.089  11.626
18504W        W85287  36.668  43.867  11.928
18505W        W85288  32.635  40.724   3.939
18506W        W85289  19.863  16.786  11.120
18507W        W85290  11.172  37.561  14.523
18508W        W85291   1.977  28.332   1.448
18509W        W85292   0.099   7.789  11.624
18510W        W85293  22.031  17.790   1.269
18511W        W85294  24.611  25.740   0.359
18512W        W85295   1.422  19.310   4.151
18513W        W85296  39.411  20.567   3.347
18514W        W85297  10.625  12.765   2.878
18515W        W85298   1.505  36.952  13.989
18516W        W85299  22.941  39.441  10.695
18517W        W85300  32.678  20.304   3.432
18518W        W85301  30.985  20.226   3.642
18519W        W85302  33.427   5.327   0.604
18520W        W85303   9.663   3.841   4.616
18521W        W85304  18.142  17.547  12.339
18522W        W85305  10.234   0.683   0.452
18523W        W85306  43.382   5.239  11.153
18524W        W85307  21.016  43.425   5.025
18525W        W85308  12.999  36.848   0.423
18526W        W85309  17.021   4.315   3.302
18527W        W85310  13.678  13.204   3.412
18528W        W85311  31.632  33.473   3.611
18529W        W85312  24.541  20.554   0.012
18530W        W85313   2.241   5.894   1.468
18531W        W85314   4.708  12.649   0.490
18532W        W85315   2.475   8.330  14.274
18533W        W85316   7.910   3.497   0.682
18534W        W85317  31.128   8.726  14.801
18535W        W85318  38.452  11.983   4.779
18536W        W85319  27.997  20.394   1.239
18537W        W85320  10.755  32.021  12.154
18538W        W85321  26.516  31.831   2.586
18539W        W85322  37.986   7.661   4.897
18540W        W85323   0.071  38.115   0.948
18541W        W85324  38.743  27.512   2.773
18542W        W85325   2.782   7.258   1.250
18543W        W85326  31.545  23.322  14.576
18544W        W85327  40.431   5.701   4.041
18545W        W85328  28.189  35.402  13.805
18546W        W85329  19.265  23.077   3.322
18547W        W85330  44.968  37.609  13.717
18548W        W85331  24.674  12.556  11.651
18549W        W85332   7.764  43.274   0.894
18550W        W85333  37.017  28.991   1.883
18551W        W85334  17.224  16.782  11.910
18552W        W85335  34.364   5.248  13.347
18553W        W85336  29.161  39.842  13.906
18554W        W85337  43.009  42.785  11.580
18555W        W85338  11.717  26.182   3.624
18556W        W85339   6.499  15.884  11.899
18557W        W85340  26.629  28.271   2.838
18558W        W85341  23.052   0.452   4.699
18559W        W85342  17.788  12.348  13.636
18560W        W85343  18.273  16.660   1.723
18561W        W85344  17.716  18.685   0.361
18562W        W85345  37.096  13.635  10.764
18563W        W85346  37.808  39.456  11.434
18564W        W85347   1.530  20.873   2.337
18565W        W85348  23.143  39.072   1.858
18566W        W85349  29.934  33.672   2.237
18567W        W85350  42.282  32.544   2.715
18568W        W85351  33.405  15.798   5.124
18569W        W85352  28.304  33.101  14.442
18570W        W85353  26.343  18.580  13.469
18571W        W85354   6.419  24.585   2.825
18572W        W85355  43.018  21.283   0.985
18573W        W85356  30.908   9.629  12.863
18574W        W85357   2.968   8.188   0.356
18575W        W85358  35.676  25.096  13.609
18576W        W85359   5.497  23.901   1.761
18577W        W85360   1.871  22.554  14.846
18578W        W85361  23.124  29.010  14.672
18579W        W85362  28.439   6.838   2.881
18580W        W85363  24.215  44.333  12.908
18581W        W85364  20.793   2.846   1.009
18582W        W85365  18.148  15.186  11.651
18583W        W85366  21.474   9.156  14.082
18584W        W85367  29.834  17.464  13.267
18585W        W85368  37.522  18.930   0.882
18586W        W85369   2.878  37.293  12.644
18587W        W85370  18.685  30.670   4.119
18588W        W85371  37.001   6.420   0.091
18589W        W85372  18.390  36.978  11.614
18590W        W85373  36.450  35.603   3.712
18591W        W85374  26.931  31.042  10.621
18592W        W85375  15.148  38.079  13.788
18593W        W85376   5.567  26.882  14.287
18594W        W85377  24.603  36.687   0.775
18595W        W85378   8.138  22.001   3.718
18596W        W85379  10.029  27.367   0.231
18597W        W85380   0.450  14.883   3.645
18598W        W85381  24.980  20.050   0.242
18599W        W85382  37.476  14.932  11.562
18600W        W85383  27.616  10.818  13.175
18601W        W85384   4.846  11.658   1.404
18602W        W85385   7.331  42.647   1.815
18603W        W85386  22.993  33.939  11.638
18604W        W85387  28.152  28.922   4.662
18605W        W85388  12.712  30.848   3.260
18606W        W85389  33.889  10.580   3.211
18607W        W85390  29.916  26.454   2.058
18608W        W85391   8.382  21.618  14.715
18609W        W85392  34.916  33.942  11.632
18610W        W85393  18.706  42.899   0.878
18611W        W85394  41.826  29.193  14.047
18612W        W85395   1.688  21.330   4.994
18613W        W85396   7.347  18.194   3.231
18614W        W85397  41.473  26.949   1.193
18615W        W85398   4.392  10.752   1.157
18616W        W85399   8.199  33.711  10.565
18617W        W85400   8.216   4.504   2.336
18618W        W85401  37.597  24.412  11.930
18619W        W85402   7.624  15.152  14.946
18620W        W85403  17.092  41.256   9.864
18621W        W85404  44.895   2.073   4.519
18622W        W85405  14.224  32.968  12.465
18623W        W85406  18.854  32.760  11.130
18624W        W85407  13.545  26.710   1.830
18625W        W85408  25.792  44.438  14.963
18626W        W85409  31.184   8.430   0.286
18627W        W85410  14.633   6.247   9.948
18628W        W85411  10.209  25.135   2.451
18629W        W85412   4.224  34.044  11.149
18630W        W85413  18.355   4.873   2.200
18631W        W85414  16.213  13.101  12.463
18632W        W85415  44.956  42.893   0.515
18633W        W85416  37.895  24.771   1.803
18634W        W85417  11.231  17.449  11.293
18635W        W85418   8.172  21.065   0.408
18636W        W85419  30.763  15.892  12.969
18637W        W85420  17.319   3.498   0.395
18638W        W85421  23.025  10.333  10.736
18639W        W85422  31.136  39.555   1.391
18640W        W85423   3.607  34.196  14.524
18641W        W85424  26.936   4.016   4.079
18642W        W85425  38.657   7.402  12.011
18643W        W85426  32.196  36.779  13.828
18644W        W85427  43.623  30.210  12.820
18645W        W85428   4.700   7.143   4.526
18646W        W85429   0.035  27.460  11.670
18647W        W85430  39.778  11.896  13.864
18648W        W85431  26.856  41.889  12.036
18649W        W85432  19.796   8.945  14.003
18650W        W85433  31.929  42.474  14.093
18651W        W85434   5.369   8.419   3.743
18652W        W85435  23.803  28.434  12.866
18653W        W85436   7.981  18.231   0.423
18654W        W85437  24.683   5.385   3.662
18655W        W85438   6.110  24.806  12.565
18656W        W85439  33.456  35.326   2.196
18657W        W85440  39.150  35.494  13.114
18658W        W85441   2.282  32.144  11.228
18659W        W85442  29.508  24.130  11.254
18660W        W85443   1.436  14.862   2.292
18661W        W85444   3.123  26.108  14.411
18662W        W85445  14.786  13.574  11.103
18663W        W85446   3.399  42.410   2.669
18664W        W85447  28.245  31.511  12.933
18665W        W85448  42.891  33.704  12.654
18666W        W85449  28.624  29.671  14.994
18667W        W85450  21.514  20.250  12.103
18668W        W85451   9.163  27.865  13.558
18669W        W85452   3.863  39.479   2.200
18670W        W85453  24.176  40.337  12.299
18671W        W85454  34.896  41.987   0.975
18672W        W85455  30.639  43.621   4.502
18673W        W85456  22.155  37.945   3.268
18674W        W85457  43.588  35.624   1.269
18675W        W85458  41.956  26.600   2.525
18676W        W85459  43.050  10.379  12.968
18677W        W85460  21.999  24.136   4.191
18678W        W85461  18.562   3.176  12.455
18679W        W85462   7.820   5.531  11.206
18680W        W85463  18.579  15.378   2.351
18681W        W85464  29.161   4.840   0.071
18682W        W85465   1.566   1.061  13.414
18683W        W85466  23.819  35.038  12.318
18684W        W85467   4.769  33.679   3.107
18685W        W85468   5.950  20.199   2.221
18686W        W85469   1.275   7.427  12.182
18687W        W85470  27.347  18.458   2.807
18688W        W85471  25.393  21.176   0.202
18689W        W85472  25.613  18.214   3.098
18690W        W85473   6.622   3.448   3.796
18691W        W85474  35.305  13.344   4.148
18692W        W85475   5.379   3.549   3.160
18693W        W85476   0.310  10.361  12.318
18694W        W85477  18.177  19.630  11.518
18695W        W85478   5.724  19.663  14.353
18696W        W85479  10.252  17.078   5.030
18697W        W85480  32.152  34.888   2.213
18698W        W85481  34.759  23.605  14.516
18699W        W85482  41.834   3.383   1.043
18700W        W85483  31.234   8.854  13.845
18701W        W85484  33.322  24.950   2.902
18702W        W85485   4.386  28.925  14.489
18703W        W85486   6.693   7.208   3.814
18704W        W85487  37.776   4.776   1.929
18705W        W85488  30.078  13.562  14.325
18706W        W85489  16.658  30.600   2.439
18707W        W85490  26.742  21.049   2.661
18708W        W85491   3.314  41.550   1.971
18709W        W85492   7.929  39.690  13.177
18710W        W85493  26.076  28.255  12.369
18711W        W85494  26.199  11.711  13.241
18712W        W85495  10.960  34.883   1.393
18713W        W85496  41.074  39.306  14.324
18714W        W85497  25.298  15.225  11.450
18715W        W85498  18.136  13.580  13.865
18716W        W85499  15.388  19.095  14.953
18717W        W85500  38.528  21.779  13.484
18718W        W85501   7.148  44.740   4.127
18719W        W85502  36.802   9.950   4.530
18720W        W85503  24.998  32.404   1.010
18721W        W85504  27.228  14.289  13.085
18722W        W85505   9.744  42.968   0.732
18723W        W85506  32.931  17.058   1.382
18724W        W85507  12.562  21.973  14.504
18725W        W85508  16.532  18.128   3.255
18726W        W85509  29.916  25.117   2.214
18727W        W85510  42.342   3.995   2.230
18728W        W85511  33.076  19.040   5.414
18729W        W85512  26.059  33.190   0.722
18730W        W85513  19.985  18.253   4.166
18731W        W85514  16.868  22.087  12.557
18732W        W85515   3.732  28.565  10.293
18733W        W85516  24.962  38.261   4.142
18734W        W85517   6.816  24.144   1.715
18735W        W85518  29.842  24.236  13.176
18736W        W85519  12.125  33.008  13.599
18737W        W85520  26.513  38.954   3.596
18738W        W85521   6.449  39.044  13.320
18739W        W85522  31.097   4.692  12.081
18740W        W85523  28.061  38.382   4.015
18741W        W85524  29.125  19.662   1.695
18742W        W85525   5.831  27.555   4.769
18743W        W85526  23.551  32.345  10.408
18744W        W85527   3.327   4.123   1.774
18745W        W85528   4.051  22.728  11.606
18746W        W85529  13.823  24.192  11.996
18747W        W85530  13.307  35.494  14.990
18748W        W85531   5.226  36.559   4.229
18749W        W85532   8.848  17.537   1.918
18750W        W85533  29.477  34.590  11.348
18751W        W85534  40.826  33.487  14.490
18752W        W85535  13.110  15.771   0.250
18753W        W85536  28.930  22.193  12.922
18754W        W85537  20.242  42.433   4.065
18755W        W85538  31.062  41.820   1.700
18756W        W85539   4.280  19.280   0.768
18757W        W85540   3.786  13.336  11.830
18758W        W85541  33.581   0.450   1.754
18759W        W85542   7.002   7.993  13.769
18760W        W85543   3.380  18.583   4.668
18761W        W85544   4.937   8.187  12.913
18762W        W85545  14.217  11.700  12.523
18763W        W85546  17.306   3.860   1.717
18764W        W85547  10.585  23.915   1.321
18765W        W85548  13.430  16.447  10.970
18766W        W85549   2.955  30.699   4.070
18767W        W85550  42.683  11.649   3.339
18768W        W85551  33.472   2.951   2.737
18769W        W85552  29.878  13.184   2.441
18770W        W85553   1.173  21.938  11.484
18771W        W85554  13.193  28.976   2.578
18772W        W85555  41.260   6.219   2.848
18773W        W85556   3.902  10.488  14.057
18774W        W85557  40.737  34.928  14.025
18775W        W85558  35.947  11.788   2.675
18776W        W85559  43.000  20.785  12.581
18777W        W85560   9.312  14.326   1.437
18778W        W85561  16.704   9.785  13.932
18779W        W85562  39.607   8.444   1.696
18780W        W85563   4.388  37.092  14.735
18781W        W85564  15.264   7.155   3.097
18782W        W85565  10.140  24.244   4.475
18783W        W85566  29.191   6.234   1.228
18784W        W85567  27.047   1.934   3.633
18785W        W85568  19.174   2.722   0.958
18786W        W85569  16.304  17.677  14.611
18787W        W85570  34.303   7.681  12.995
18788W        W85571  26.090  28.823  14.262
18789W        W85572   0.414  36.578   0.362
18790W        W85573   8.788   6.132  12.110
18791W        W85574   4.109  32.020  13.691
18792W        W85575  14.239  19.648   2.732
18793W        W85576  35.380  31.654   1.345
18794W        W85577   7.716  26.579  10.750
18795W        W85578   5.795  37.797   2.633
18796W        W85579   5.313  33.586  11.793
18797W        W85580  15.415  41.410  11.423
18798W        W85581  44.965   1.177  12.603
18799W        W85582  30.431  26.164  14.378
18800W        W85583  20.775  20.720  12.440
18801W        W85584  28.024   0.731  11.492
18802W        W85585  27.988  28.743  14.305
18803W        W85586   3.239  18.815   4.222
18804W        W85587   1.309  38.884   4.559
18805W        W85588   5.824   7.967   4.186
18806W        W85589   4.302   2.871  11.363
18807W        W85590  41.957  14.585  12.021
18808W        W85591  11.647  38.956  11.606
18809W        W85592  15.532  29.344  12.967
18810W        W85593  19.163  21.549  14.004
18811W        W85594   8.384  37.010  11.025
18812W        W85595  19.322  14.242   3.353
18813W        W85596  18.349   0.805  14.751
18814W        W85597   1.624  14.532  13.407
18815W        W85598  30.160  43.346   3.098
18816W        W85599   4.450   9.150  13.555
18817W        W85600  10.304  37.685   2.413
18818W        W85601   7.014   9.334   3.803
18819W        W85602  21.995  12.590   1.640
18820W        W85603  40.528  44.805   0.924
18821W        W85604  21.085  31.354   2.854
18822W        W85605   2.439  22.404   4.324
18823W        W85606   5.789  13.385  13.474
18824W        W85607  27.980   5.392   0.113
18825W        W85608   7.407  15.981  12.391
18826W        W85609  18.021  35.334  10.059
18827W        W85610  41.805  30.659  10.632
18828W        W85611  28.431  29.486   1.253
18829W        W85612  20.142  29.413   2.265
18830W        W85613  41.359  39.456   0.469
18831W        W85614  34.918  32.960   3.742
18832W        W85615  40.440  22.602  11.078
18833W        W85616  30.034   4.333   0.710
18834W        W85617   9.789  24.649  14.380
18835W        W85618  16.680  12.713   2.944
18836W        W85619   7.708  39.923   4.861
18837W        W85620  22.435   1.083   1.504
18838W        W85621  21.930  36.407   3.124
18839W        W85622  24.210  41.576   2.315
18840W        W85623   0.344  10.590  11.561
18841W        W85624  38.080  36.417   4.278
18842W        W85625  27.601  36.803   4.706
18843W        W85626  25.611  32.000  13.788
18844W        W85627  35.374  33.147   0.272
18845W        W85628  10.436  34.931   1.365
18846W        W85629  21.915  28.649   3.279
18847W        W85630  10.619  43.202   1.886
18848W        W85631  19.410  19.199  13.674
18849W        W85632  22.046  33.416  10.636
18850W        W85633   3.254  30.394   3.196
18851W        W85634  30.414  20.275   3.534
18852W        W85635  14.771   7.801  11.226
18853W        W85636  11.744  15.932  12.278
18854W        W85637   6.137   2.170  14.482
18855W        W85638  36.561  43.387   4.695
18856W        W85639  14.956  25.378  10.679
18857W        W85640  36.074  16.799   0.351
18858W        W85641  40.131  15.383  14.475
18859W        W85642  18.458  41.398  14.785
18860W        W85643  29.362  37.762   0.849
18861W        W85644  10.162   0.059   2.723
18862W        W85645  21.255  17.671   2.341
18863W        W85646  39.001   6.950  11.423
18864W        W85647   2.922  16.361   1.499
18865W        W85648  16.312  20.122  14.138
18866W        W85649  18.972   1.915  12.996
18867W        W85650  41.111  41.543  11.627
18868W        W85651   7.821  37.892   4.471
18869W        W85652  14.254   2.546   4.662
18870W        W85653  35.023  25.401   1.290
18871W        W85654   0.261   0.694   4.603
18872W        W85655  44.953  16.773  10.486
18873W        W85656  15.504  37.387  12.592
18874W        W85657  15.852  25.410  13.056
18875W        W85658  34.473   2.490  12.497
18876W        W85659  23.027  22.863  11.888
18877W        W85660   0.383  31.579   1.862
18878W        W85661   9.670  15.181  10.987
18879W        W85662   3.471  12.812  10.212
18880W        W85663  22.769   5.608  12.954
18881W        W85664  15.400  40.964  14.676
18882W        W85665  29.556  40.335  11.680
18883W        W85666   6.592  33.584   0.912
18884W        W85667  27.594  13.133  13.793
18885W        W85668  37.695  31.599   2.353
18886W        W85669   1.427   0.353   2.599
18887W        W85670  13.804   1.370  13.992
18888W        W85671  38.903  18.985   2.832
18889W        W85672  26.427  12.320   1.384
18890W        W85673  26.036  23.180  13.890
18891W        W85674  17.293   8.594   0.936
18892W        W85675   9.195  43.404   3.335
18893W        W85676  24.720  37.501   0.240
18894W        W85677  24.580   9.135   1.239
18895W        W85678   9.124  35.134   4.705
18896W        W85679  23.246  42.351  10.433
18897W        W85680   5.624   3.379   1.317
18898W        W85681  20.853  11.490  11.073
18899W        W85682  14.270  38.798   0.061
18900W        W85683  37.590  21.536   2.702
18901W        W85684  21.802  25.750   4.601
18902W        W85685  32.904  40.931   0.827
18903W        W85686  31.032  36.848  14.950
18904W        W85687  41.459  19.700   0.892
18905W        W85688   6.467  11.813   0.897
18906W        W85689   0.003   2.287   1.741
18907W        W85690   5.936  10.698  14.074
18908W        W85691   1.849  17.829   1.778
18909W        W85692   6.841  14.831   4.543
18910W        W85693  10.930   6.666  12.177
18911W        W85694  28.665  26.009   1.846
18912W        W85695  19.170   0.675  12.490
18913W        W85696  35.637  28.085  12.583
18914W        W85697  31.576   5.557  10.009
18915W        W85698  20.288  35.073  13.824
18916W        W85699  17.655  10.745   2.188
18917W        W85700  43.040  43.702  13.340
18918W        W85701  19.480   0.977   5.108
18919W        W85702   6.263  14.161  13.423
18920W        W85703  18.269   0.052  12.336
18921W        W85704   7.251   2.969   0.501
18922W        W85705  15.671  37.435  13.894
18923W        W85706  40.966  27.598  13.074
18924W        W85707  20.537   0.135  14.277
18925W        W85708  12.598  24.634   4.332
18926W        W85709  26.890  21.811   1.214
18927W        W85710   5.694   0.618  13.835
18928W        W85711  33.386  15.693   3.245
18929W        W85712  25.039  22.606   1.343
18930W        W85713  16.032  35.565  13.375
18931W        W85714  39.486  42.885  11.950
18932W        W85715   5.891   9.827   3.596
18933W        W85716  34.005   0.094  13.431
18934W        W85717   5.235  36.902   3.711
18935W        W85718   8.468  18.104   4.546
18936W        W85719  28.125  14.944   4.067
18937W        W85720  29.047   8.656   3.325
18938W        W85721   2.864  13.405   2.934
18939W        W85722  25.745  11.346  10.849
18940W        W85723   7.872  14.274   0.049
18941W        W85724  32.907   4.768  14.534
18942W        W85725   8.590  16.172   2.383
18943W        W85726   5.728   7.368   1.829
18944W        W85727   1.382  33.737   3.795
18945W        W85728  11.040  27.014   0.372
18946W        W85729  27.154  28.127   3.711
18947W        W85730  29.975  25.684   4.736
18948W        W85731  14.738   6.357  11.937
18949W        W85732  14.770  40.312  11.897
18950W        W85733   2.392  27.802   0.194
18951W        W85734  38.912   8.026   1.897
18952W        W85735   8.441  18.659   5.014
18953W        W85736  36.379  32.449   1.690
18954W        W85737   7.258   0.384   0.318
18955W        W85738  18.013  26.980  13.957
18956W        W85739  38.151  27.008   2.254
18957W        W85740   0.180  20.349   4.890
18958W        W85741   7.760   5.277   1.712
18959W        W85742  22.869  27.104   3.897
18960W        W85743   6.845  31.059  11.093
18961W        W85744  41.404   2.442   1.268
18962W        W85745   6.339   8.321  11.952
18963W        W85746  17.024  44.808   2.844
18964W        W85747  21.791   5.806  11.930
18965W        W85748  39.977  34.683   3.586
18966W        W85749  25.730  38.853  10.656
18967W        W85750  15.309  38.191   0.067
18968W        W85751  10.271   7.453   2.309
18969W        W85752  25.092  19.167  14.221
18970W        W85753   7.620  29.365  12.280
18971W        W85754   9.853  20.346  11.355
18972W        W85755  38.859  30.901  12.485
18973W        W85756   2.297   2.744  12.193
18974W        W85757   7.876  25.511  12.011
18975W        W85758  29.916  17.964  13.345
18976W        W85759  34.891  16.874   1.622
18977W        W85760   8.386  42.298   2.412
18978W        W85761   7.818   0.797   2.420
18979W        W85762  22.261  41.318   2.146
18980W        W85763  15.772  23.096  13.515
18981W        W85764  38.728  22.172   2.744
18982W        W85765  14.035  38.368   3.244
18983W        W85766  19.630  36.586  12.903
18984W        W85767  19.182  10.668  13.520
18985W        W85768   4.570  43.753   2.855
18986W        W85769  19.041   9.232  14.328
18987W        W85770   2.282  33.658   1.772
18988W        W85771  11.297   6.570  14.323
18989W        W85772  34.628  11.151  11.578
18990W        W85773  40.768   0.025   1.370
18991W        W85774  12.085  20.087  12.888
18992W        W85775   2.945  43.074   1.911
18993W        W85776  24.737  29.084   2.842
18994W        W85777  21.423  19.058   3.587
18995W        W85778   7.095  40.883  11.120
18996W        W85779  22.126  35.003  13.985
18997W        W85780  29.100  18.674   2.670
18998W        W85781  28.785  13.298  13.175
18999W        W85782  25.408  29.182   0.472
19000W        W85783   5.408  11.655   1.160
19001W        W85784  30.156   1.883   3.096
19002W        W85785  34.180  38.923   2.793
19003W        W85786  30.271  24.090   1.769
19004W        W85787  33.816  16.053   1.706
19005W        W85788  26.496  25.141   3.359
19006W        W85789   6.008  42.254  14.400
19007W        W85790   1.085  32.415  14.981
19008W        W85791  32.392  24.961  10.686
19009W        W85792  29.953  10.324   1.856
19010W        W85793  40.293  23.648   5.015
19011W        W85794  22.095  31.370   2.667
19012W        W85795  36.358  42.010   4.921
19013W        W85796  40.159  40.246   0.868
19014W        W85797  18.779   6.486   2.868
19015W        W85798  35.418  31.131  12.486
19016W        W85799  34.501  11.783   4.090
19017W        W85800  11.340  31.914   3.205
19018W        W85801  32.442  20.806  12.868
19019W        W85802  21.214   2.710  11.954
19020W        W85803  33.349  23.084   2.797
19021W        W85804  26.433  41.556  14.519
19022W        W85805   6.681  39.454  11.127
19023W        W85806  44.861  18.228  14.812
19024W        W85807  29.669   7.129  11.564
19025W        W85808  13.161  14.376   4.020
19026W        W85809   3.237  35.766  11.166
19027W        W85810  44.547  18.749   4.222
19028W        W85811  15.549   2.466  11.659
19029W        W85812   3.679   2.902  14.993
19030W        W85813   1.002  22.930  14.299
19031W        W85814  24.363  29.975  13.505
19032W        W85815   6.725  44.201  14.919
19033W        W85816   2.967  35.815  14.953
19034W        W85817  36.514  25.231   0.761
19035W        W85818   2.831  31.228  13.269
19036W        W85819   9.210  25.333   2.778
19037W        W85820  15.803  21.919  10.612
19038W        W85821  27.084   8.239  12.617
19039W        W85822  14.740   7.190   1.417
19040W        W85823  17.150   6.875   1.751
19041W        W85824  39.802   5.963   0.380
19042W        W85825  39.410  37.714  13.145
19043W        W85826   9.170  37.549  13.107
19044W        W85827   2.981  39.480  14.688
19045W        W85828   7.843  28.577  13.775
19046W        W85829  15.623   5.459  14.985
19047W        W85830  42.102  44.721  14.437
19048W        W85831  38.270  43.274   2.499
19049W        W85832  26.977   9.993  13.578
19050W        W85833  19.599  40.464  12.150
19051W        W85834  44.882  36.533   4.244
19052W        W85835  25.582   2.793  14.306
19053W        W85836  33.513  39.483   2.482
19054W        W85837  39.511  17.189  14.395
19055W        W85838  35.536  11.724  12.344
19056W        W85839  12.358  15.587  10.330
19057W        W85840  44.892  44.853  14.364
19058W        W85841  29.647  26.150  13.458
19059W        W85842   0.265   2.877  11.160
19060W        W85843   5.381  18.392  13.745
19061W        W85844   2.509  42.945   1.258
19062W        W85845  27.588  39.903  14.230
19063W        W85846   3.734  11.901   0.720
19064W        W85847   8.810  22.539   0.949
19065W        W85848  24.681  18.598  13.598
19066W        W85849  26.117  20.502  12.169
19067W        W85850  27.624   4.212  14.726
19068W        W85851  14.306   4.837   1.844
19069W        W85852  18.689  12.809  14.216
19070W        W85853  40.303   5.074   4.732
19071W        W85854  15.990   9.861  11.143
19072W        W85855  22.925  42.318   3.850
19073W        W85856  33.856  19.388   2.034
19074W        W85857  38.602  36.570   2.342
19075W        W85858  43.302  27.502  10.868
19076W        W85859   3.723  42.463  12.321
19077W        W85860  33.880  42.449  14.359
19078W        W85861  19.495  17.338   1.326
19079W        W85862  18.628  42.841   4.349
19080W        W85863  15.420  37.508  13.073
19081W        W85864  40.566   6.381   0.448
19082W        W85865  14.180  24.940  11.491
19083W        W85866  41.244  40.555  12.060
19084W        W85867  30.627  42.932   2.838
19085W        W85868  32.406   8.149   2.297
19086W        W85869  36.107  28.412   0.291
19087W        W85870  33.700  43.741   3.307
19088W        W85871  26.747  36.057  12.229
19089W        W85872  25.539  27.978   5.507
19090W        W85873   9.386  17.603  12.086
19091W        W85874  17.141   9.369   1.338
19092W        W85875  18.676  29.371  12.489
19093W        W85876  15.691  38.564   0.035
19094W        W85877   1.951   0.266  12.119
19095W        W85878  42.995  41.049   4.063
19096W        W85879  22.268   6.369   2.226
19097W        W85880  40.469  11.356  14.425
19098W        W85881  31.987  28.488   1.591
19099W        W85882  32.441  37.342  10.767
19100W        W85883   0.230  10.824   4.610
19101W        W85884  30.609  44.980  13.975
19102W        W85885   8.229  43.560   0.878
19103W        W85886   9.711  22.541   4.439
19104W        W85887   1.485   3.583   1.694
19105W        W85888  19.648  10.205  14.533
19106W        W85889  25.138  15.953  13.451
19107W        W85890  31.024   4.664   2.709
19108W        W85891   6.903  29.548   0.494
19109W        W85892  12.171   3.881   1.432
19110W        W85893  19.412  13.665   1.948
19111W        W85894  26.725   0.907  10.942
19112W        W85895  27.076  13.639  14.230
19113W        W85896  35.642   0.742  14.940
19114W        W85897  42.788  42.819   0.241
19115W        W85898  30.124  10.625   0.813
19116W        W85899  39.115  16.885   0.746
19117W        W85900  43.154  31.270   0.960
19118W        W85901  15.111   9.582   0.836
19119W        W85902  13.738  22.395  14.873
19120W        W85903  11.449  43.739  13.918
19121W        W85904  32.983  43.108   4.433
19122W        W85905  23.934   6.200   4.075
19123W        W85906  17.549  43.284  13.919
19124W        W85907   3.091   4.350  11.668
19125W        W85908  44.031  17.085   3.218
19126W        W85909  20.485  19.226  10.941
19127W        W85910  38.895  36.581  12.591
19128W        W85911  24.989   3.697   2.300
19129W        W85912  21.547  12.422   0.336
19130W        W85913  28.392  42.061   2.202
19131W        W85914  41.812  30.939   0.777
19132W        W85915   5.698  16.140  10.797
19133W        W85916  20.279  30.392   2.440
19134W        W85917  19.132  24.132  14.071
19135W        W85918  16.236  11.980   1.461
19136W        W85919   4.407  35.838  10.710
19137W        W85920  35.054  44.351   2.262
19138W        W85921  22.410  26.951   3.682
19139W        W85922  26.663  30.073  14.175
19140W        W85923  17.116  17.816  11.015
19141W        W85924  24.314  38.853   2.826
19142W        W85925  14.657  29.191   2.368
19143W        W85926  30.144  32.942  11.586
19144W        W85927  10.787  11.084   2.333
19145W        W85928  39.308  37.884   2.737
19146W        W85929   5.297  25.263  13.670
19147W        W85930  22.620  17.840   1.941
19148W        W85931   5.823   9.716  11.079
19149W        W85932  28.715  32.405  13.520
19150W        W85933  19.985  40.811  12.057
19151W        W85934  33.568  21.421  13.766
19152W        W85935  37.349   0.769  13.631
19153W        W85936  32.089  13.801  14.383
19154W        W85937  41.568  24.496   0.025
19155W        W85938  18.143   1.701  10.618
19156W        W85939  33.905  19.230   2.688
19157W        W85940   9.252  28.936  14.029
19158W        W85941  32.859   8.921   0.231
19159W        W85942   5.981  23.254   2.749
19160W        W85943  24.501  14.718  13.125
19161W        W85944  10.624  20.491   2.892
19162W        W85945  18.124  43.864  11.528
19163W        W85946   3.930  42.727   1.204
19164W        W85947  13.351   7.819   2.616
19165W        W85948  42.381   0.974   0.159
19166W        W85949  42.592  12.520  11.494
19167W        W85950  22.290  41.926  12.929
19168W        W85951  30.971   2.308   0.888
19169W        W85952  13.514  19.750  13.729
19170W        W85953  35.768  19.852  10.305
19171W        W85954  34.996  42.099   2.909
19172W        W85955   1.733   8.132  11.092
19173W        W85956   0.408  14.064  13.305
19174W        W85957  18.403  30.224  13.809
19175W        W85958  24.533  39.898   3.581
19176W        W85959  18.443  25.029   4.598
19177W        W85960  19.597   7.388  10.839
19178W        W85961  28.992  20.734   0.076
19179W        W85962  15.334  20.602   0.889
19180W        W85963  24.627  14.791  14.611
19181W        W85964   2.771   7.403   2.158
19182W        W85965  27.703  27.706   4.309
19183W        W85966  32.435  32.508   1.827
19184W        W85967   0.922  39.099  13.920
19185W        W85968   8.655  32.380   3.640
19186W        W85969  31.114   3.517   3.205
19187W        W85970  15.373  19.698   1.966
19188W        W85971  24.904  32.064   1.448
19189W        W85972  23.536  19.166   2.700
19190W        W85973  40.372   5.451  14.533
19191W        W85974  42.100  36.708   1.933
19192W        W85975  15.297   5.072   2.469
19193W        W85976  11.359  15.603   2.814
19194W        W85977   4.042  34.064  14.258
19195W        W85978  27.609  41.280   3.466
19196W        W85979   3.386  30.117   1.791
19197W        W85980   8.795   0.531   4.858
19198W        W85981  35.875  41.300   2.473
19199W        W85982  13.519  22.108  14.470
19200W        W85983  27.816  18.275   0.899
19201W        W85984  13.236  20.201  10.707
19202W        W85985  17.769  18.573  13.055
19203W        W85986  36.600  15.402   2.406
19204W        W85987  33.857   1.532  11.268
19205W        W85988  36.387  22.161   2.802
19206W        W85989  12.599  38.137   0.505
19207W        W85990   3.672  10.882   4.613
19208W        W85991  18.187  32.451  11.157
19209W        W85992  13.648  40.356  13.430
19210W        W85993  31.813  36.421   3.196
19211W        W85994  20.271  34.653   1.410
19212W        W85995  38.788  38.833   0.992
19213W        W85996  43.594  41.533  11.505
19214W        W85997  34.998  30.920  14.188
19215W        W85998  30.919   1.190   3.831
19216W        W85999  38.926  18.388  11.486
19217W        W86000  26.635  21.436  10.709
19218W        W86001  20.786  11.854   4.109
19219W        W86002  14.721  28.711   4.700
19220W        W86003   3.721  34.418   1.159
19221W        W86004  32.540  21.664  13.387
19222W        W86005   9.565  25.421  13.002
19223W        W86006  37.273  19.076   2.738
19224W        W86007  23.459  21.520   3.222
19225W        W86008   3.905  15.085  10.726
19226W        W86009  17.528   2.447  13.504
19227W        W86010  42.860  30.405   4.564
19228W        W86011  29.008   1.258  12.008
19229W        W86012  24.788  39.964  13.463
19230W        W86013   2.881  18.593   0.726
19231W        W86014   3.531  18.709  14.840
19232W        W86015  32.580  41.011  11.495
19233W        W86016  42.802  22.406   3.842
19234W        W86017  15.267  40.923  13.820
19235W        W86018  20.073  33.699  12.049
19236W        W86019   6.275   2.273  11.501
19237W        W86020  33.447  11.143   1.453
19238W        W86021  42.323   2.761  13.005
19239W        W86022  35.417  36.032   4.295
19240W        W86023   4.789  24.531  13.844
19241W        W86024  32.401  12.038  13.622
19242W        W86025  18.592  44.977   1.275
19243W        W86026  39.836   3.507  12.948
19244W        W86027   6.233  41.570  10.394
19245W        W86028  11.278   7.924  12.072
19246W        W86029  24.486  43.245  10.164
19247W        W86030   9.291  32.165   3.738
19248W        W86031  29.939  24.801  12.090
19249W        W86032  37.506  21.031   1.794
19250W        W86033  22.508  30.636  11.065
19251W        W86034  10.321  32.859   0.818
19252W        W86035   3.485  37.825   1.131
19253W        W86036  23.078  42.363  13.526
19254W        W86037  31.061  34.944   0.301
19255W        W86038   2.182  39.298  13.580
19256W        W86039   4.628  22.011   1.229
19257W        W86040  13.398   2.730   1.161
19258W        W86041   8.332  43.083  12.015
19259W        W86042  32.086  37.818   2.285
19260W        W86043  43.475  16.313   3.288
19261W        W86044   8.356  34.588  11.212
19262W        W86045   4.896  40.516   5.050
19263W        W86046  41.031  34.560  12.445
19264W        W86047  28.450  30.622  13.034
19265W        W86048  16.927   7.255  14.291
19266W        W86049  42.801  31.992   0.995
19267W        W86050  42.244  18.060  14.488
19268W        W86051  14.877  13.207  12.365
19269W        W86052  26.469  19.217  12.039
19270W        W86053  18.278  32.520   1.988
19271W        W86054  36.577  14.340   3.157
19272W        W86055  11.255  28.562  11.892
19273W        W86056  25.988  41.233   3.136
19274W        W86057  43.266  25.967   4.066
19275W        W86058  18.091  15.087  12.481
19276W        W86059  22.257  30.608   4.269
19277W        W86060  20.023  38.755   1.872
19278W        W86061  20.050   9.759   1.925
19279W        W86062  31.868  10.349  11.189
19280W        W86063  41.259  42.785   1.156
19281W        W86064   9.718  24.136  14.462
19282W        W86065  11.728   9.897  10.270
19283W        W86066   0.388  23.613  14.306
19284W        W86067  36.327   0.906  11.092
19285W        W86068  41.814  38.076   1.814
19286W        W86069  35.920  17.231  13.849
19287W        W86070  43.360  15.528  12.578
19288W        W86071  21.038  37.884  13.996
19289W        W86072  31.940  23.461  12.149
19290W        W86073  24.359  22.632   0.024
19291W        W86074  18.282  12.679  12.929
19292W        W86075  30.996  29.681  10.663
19293W        W86076   8.779  25.602   4.895
19294W        W86077  24.151  44.942  10.158
19295W        W86078  20.263  12.245   2.179
19296W        W86079  17.675  19.291  13.777
19297W        W86080  35.107   6.751  14.611
19298W        W86081   4.846  37.271   9.841
19299W        W86082  26.650  32.143   3.600
19300W        W86083  30.480  10.808  14.690
19301W        W86084   1.508  42.292  14.426
19302W        W86085  29.788  11.101   2.892
19303W        W86086  10.862  35.243  11.671
19304W        W86087  21.624   1.426  11.586
19305W        W86088  22.690   7.947  10.287
19306W        W86089  33.596  17.354   1.737
19307W        W86090   7.327  38.821   3.212
19308W        W86091   8.060  15.291   2.533
19309W        W86092   2.194  36.060   2.548
19310W        W86093  30.027  42.940  11.925
19311W        W86094  29.103  26.531  13.045
19312W        W86095  26.716  32.209  11.230
19313W        W86096  12.635  10.429   3.203
19314W        W86097  11.196  11.721   5.039
19315W        W86098  36.745  31.704  14.767
19316W        W86099  25.686  31.793  14.624
19317W        W86100  43.550   2.900   3.202
19318W        W86101   3.443  16.963  10.530
19319W        W86102  36.526  36.595  13.440
19320W        W86103  26.064  19.229   0.259
19321W        W86104  11.249  13.138   1.401
19322W        W86105  37.156  31.159  12.994
19323W        W86106   4.255  33.067  12.028
19324W        W86107  17.040  16.849   3.623
19325W        W86108  40.541  24.027   4.117
19326W        W86109  38.952  30.223   0.367
19327W        W86110  42.939  39.121   3.234
19328W        W86111  29.338   0.716   4.127
19329W        W86112  39.907  38.845  14.859
19330W        W86113  27.622  41.224  11.961
19331W        W86114  29.945  24.514   0.859
19332W        W86115   4.281  34.607   4.283
19333W        W86116  25.264   4.797   2.369
19334W        W86117  21.170   5.897  10.194
19335W        W86118  12.813  17.786  11.573
19336W        W86119  36.804   7.550  10.520
19337W        W86120  33.464  19.049  13.636
19338W        W86121   3.720  26.543  11.641
19339W        W86122  22.024   0.063   1.298
19340W        W86123  27.951   7.586   4.032
19341W        W86124  20.191  43.252   3.561
19342W        W86125   7.888  33.083   2.870
19343W        W86126   1.667   2.898   1.369
19344W        W86127   0.509  29.581   1.013
19345W        W86128  21.513   2.189  10.555
19346W        W86129  27.561  27.084  14.567
19347W        W86130  24.681  41.834   3.268
19348W        W86131   1.732  29.682  11.244
19349W        W86132  37.467  10.758   1.442
19350W        W86133  39.469  40.805   2.848
19351W        W86134   0.061   9.222  11.287
19352W        W86135  33.696   3.936   1.841
19353W        W86136  33.587  19.538   1.207
19354W        W86137  38.345  23.579  13.870
19355W        W86138  25.226  15.047  11.936
19356W        W86139   0.888   2.404  11.985
19357W        W86140  31.037   7.821   2.241
19358W        W86141   1.311   0.693  11.995
19359W        W86142  15.073   7.156  13.077
19360W        W86143  11.239  20.224   3.154
19361W        W86144   4.293  27.690   4.561
19362W        W86145  33.853   6.814  14.700
19363W        W86146  20.775  13.933   2.819
19364W        W86147  33.228  44.839   3.304
19365W        W86148  39.236  12.363   0.429
19366W        W86149  24.413   7.302   1.295
19367W        W86150  16.551  13.593  11.417
19368W        W86151  20.229  12.540  13.532
19369W        W86152  43.873   0.634  11.172
19370W        W86153  10.547   2.454   1.214
19371W        W86154  43.804   2.808   2.715
19372W        W86155  35.519  14.796   1.454
19373W        W86156  41.761  31.430  11.552
19374W        W86157  11.230   6.161  12.822
19375W        W86158  21.302  36.774  12.518
19376W        W86159   6.655  29.950  10.615
19377W        W86160  40.392  30.923  13.327
19378W        W86161  15.835  36.261  10.244
19379W        W86162   3.886  12.187   1.768
19380W        W86163   4.837  20.281   3.665
19381W        W86164  43.559  22.628   1.903
19382W        W86165   6.905  19.781  14.877
19383W        W86166   8.267  11.442  11.077
19384W        W86167  24.929  10.268   3.442
19385W        W86168  16.504  13.088   3.698
19386W        W86169   9.241   2.867   0.059
19387W        W86170  31.130  25.027   3.427
19388W        W86171  27.925  10.015  12.081
19389W        W86172  35.004   2.475   3.710
19390W        W86173  44.020  24.861  11.048
19391W        W86174  37.860   7.758  13.377
19392W        W86175  14.799  32.441   4.407
19393W        W86176  43.794  43.982   1.227
19394W        W86177  25.273   7.345   3.817
19395W        W86178  19.746   7.362   4.039
19396W        W86179   6.236  18.292  10.848
19397W        W86180  13.554  38.078   4.980
19398W        W86181   0.452  36.181  13.413
19399W        W86182  36.671  39.812  11.206
19400W        W86183  38.258  15.655   1.479
19401W        W86184  27.436   2.557  11.223
19402W        W86185  10.385   4.344   0.801
19403W        W86186   9.086  11.332   4.436
19404W        W86187   2.701   0.038  14.409
19405W        W86188  11.743  12.093  12.699
19406W        W86189  32.578  40.804   1.454
19407W        W86190  20.078  17.629  10.513
19408W        W86191  33.880  34.482   1.365
19409W        W86192  28.549  40.830   3.455
19410W        W86193   1.658  24.723  12.525
19411W        W86194  42.989   4.527  13.434
19412W        W86195  44.989  43.064   3.220
19413W        W86196   7.806  15.185   1.708
19414W        W86197  19.600   3.962  14.757
19415W        W86198  20.464  16.801   2.783
19416W        W86199  39.522  29.136   0.811
19417W        W86200  13.145  41.295  14.877
19418W        W86201  39.553  17.291  12.135
19419W        W86202  41.606  42.889  11.090
19420W        W86203  43.218  15.874  13.990
19421W        W86204  13.229  31.634  11.160
19422W        W86205  23.313  43.252   2.271
19423W        W86206  36.503   0.863   1.946
19424W        W86207   5.347  43.721   3.215
19425W        W86208  41.452  41.147  11.561
19426W        W86209  20.507  21.695   2.806
19427W        W86210   8.932  28.075   1.314
19428W        W86211  28.017  14.658   1.695
19429W        W86212  14.266  15.212   1.318
19430W        W86213  28.887  28.640  14.436
19431W        W86214  43.065   0.752  10.531
19432W        W86215  37.952  42.140   3.192
19433W        W86216  19.366   2.210   4.956
19434W        W86217  27.216   2.477   1.636
19435W        W86218   1.351   0.696  12.525
19436W        W86219  22.801   7.763   4.693
19437W        W86220  12.892  32.466  13.228
19438W        W86221   6.941  17.253  13.834
19439W        W86222  13.382  14.799   0.386
19440W        W86223  36.263  12.790   2.849
19441W        W86224   9.864  21.134  11.709
19442W        W86225  13.444  16.899   2.850
19443W        W86226  13.682  15.239  11.162
19444W        W86227  22.300  25.569   4.618
19445W        W86228  19.766  11.550   5.035
19446W        W86229  27.888  42.224   2.204
19447W        W86230  30.070  37.246   3.230
19448W        W86231  21.199  28.158  10.187
19449W        W86232  26.586   5.699  10.445
19450W        W86233  37.555  42.284  14.267
19451W        W86234  23.659   2.179   3.780
19452W        W86235   5.260  18.306   4.344
19453W        W86236  15.649  25.970   3.747
19454W        W86237   5.510  40.798  14.945
19455W        W86238   2.313  10.923  14.372
19456W        W86239   6.820  14.342  10.916
19457W        W86240  10.762  31.999   0.028
19458W        W86241  10.811  32.477   2.875
19459W        W86242  19.809   3.226  11.607
19460W        W86243  29.028  14.642   3.710
19461W        W86244  44.862   6.724  12.233
19462W        W86245  32.043  15.085  14.886
19463W        W86246  14.043  40.488   3.371
19464W        W86247  13.837  39.608   4.495
19465W        W86248  13.022  43.033   0.838
19466W        W86249  15.128  27.988   3.636
19467W        W86250  27.947  37.557   3.349
19468W        W86251  43.506  32.497  12.187
19469W        W86252  36.556  42.837   3.972
19470W        W86253  14.052  11.334   0.802
19471W        W86254   1.913   4.798  14.232
19472W        W86255  37.745  27.049   3.677
19473W        W86256   8.008  24.631   1.782
19474W        W86257  27.547   8.727  14.202
19475W        W86258  28.221  16.755  11.382
19476W        W86259   7.823  22.403  14.830
19477W        W86260  24.701  31.588   0.442
19478W        W86261  38.958  12.577   1.597
19479W        W86262  15.578  29.615  10.405
19480W        W86263   0.080  23.019   3.744
19481W        W86264  12.181   6.296   3.301
19482W        W86265  42.888  10.789   2.859
19483W        W86266  31.892  22.029  12.126
19484W        W86267  26.629  23.626   2.439
19485W        W86268  21.624  30.045  12.818
19486W        W86269  35.171  35.788  14.564
19487W        W86270  24.353   3.615  11.056
19488W        W86271   7.646   6.425   0.276
19489W        W86272   6.299  27.021  10.566
19490W        W86273   5.031   7.929  10.205
19491W        W86274  35.849   4.890  13.438
19492W        W86275  38.960  15.743   3.152
19493W        W86276  19.993   3.722   1.375
19494W        W86277  43.237  10.820   3.286
19495W        W86278   4.580  28.181   3.652
19496W        W86279   3.482  34.743   2.855
19497W        W86280  14.618   9.374   0.856
19498W        W86281  14.190   5.897   4.401
19499W        W86282   1.553  13.794   3.796
19500W        W86283  27.181  42.480   5.803
19501W        W86284  31.381  21.951  12.879
19502W        W86285  31.565  40.482  14.000
19503W        W86286  14.647   5.904  10.676
19504W        W86287  25.511  32.938  10.793
19505W        W86288  22.004  39.788   4.078
19506W        W86289  22.743  26.834  13.331
19507W        W86290  20.037  36.265  12.824
19508W        W86291  25.853  14.426   1.805
19509W        W86292  39.845  28.048  13.873
19510W        W86293  21.737  15.101   1.836
19511W        W86294  42.290  24.107  11.888
19512W        W86295  20.018  42.193  12.978
19513W        W86296  39.950  38.858   2.972
19514W        W86297  38.582  17.258   0.438
19515W        W86298  44.637   3.705   3.245
19516W        W86299  20.729   1.524   4.507
19517W        W86300  40.830  22.985   3.591
19518W        W86301   6.189  38.699  11.493
19519W        W86302  27.023   2.901   0.744
19520W        W86303   9.617  32.793   3.291
19521W        W86304  14.339  31.454   0.398
19522W        W86305  13.646  40.343   2.163
19523W        W86306  20.751   6.591  12.670
19524W        W86307  35.436  19.970  13.915
19525W        W86308  40.568  14.071   0.427
19526W        W86309   5.738  18.036  14.957
19527W        W86310  17.621  22.529  12.865
19528W        W86311  16.376  12.782  13.275
19529W        W86312   4.706  20.135   1.912
19530W        W86313  20.993  44.680  12.951
19531W        W86314   8.407  38.568  13.060
19532W        W86315  28.172  41.142   2.163
19533W        W86316  44.974  39.027  13.934
19534W        W86317  35.483  29.951   1.143
19535W        W86318   3.928  17.508  13.046
19536W        W86319  35.503  19.255  11.995
19537W        W86320  21.192  26.912  14.493
19538W        W86321  22.547  32.996  13.287
19539W        W86322  23.208   7.944   2.134
19540W        W86323   1.369  25.947  12.957
19541W        W86324   7.146   9.694  14.556
19542W        W86325   4.333  40.319   3.851
19543W        W86326  35.011  34.968   4.549
19544W        W86327   5.202  25.068   0.430
19545W        W86328  18.881   6.774   1.460
19546W        W86329  44.803  24.587  11.773
19547W        W86330  11.166   2.881  13.487
19548W        W86331  36.682  28.808   1.389
19549W        W86332  11.776  33.856  12.001
19550W        W86333  18.325   7.207   3.237
19551W        W86334  37.580  26.223   0.573
19552W        W86335  24.977  28.675  11.386
19553W        W86336  17.849   6.907  12.794
19554W        W86337  13.008  32.963   4.619
19555W        W86338  11.411   5.298   0.951
19556W        W86339  36.100  44.565   1.269
19557W        W86340  27.212  34.952   0.244
19558W        W86341  41.805  19.794  13.749
19559W        W86342  11.815  29.496  13.587
19560W        W86343  38.367   9.287   4.270
19561W        W86344  34.228  44.492  14.794
19562W        W86345  22.669  34.320  10.114
19563W        W86346  39.620   0.945  12.399
19564W        W86347  20.721   0.306   5.094
19565W        W86348  17.085   0.949  12.518
19566W        W86349   3.505  32.439  10.679
19567W        W86350  19.800  10.876   4.292
19568W        W86351  22.227  27.511   3.128
19569W        W86352  37.775  42.885   0.422
19570W        W86353  26.269  27.631   4.311
19571W        W86354  23.563  32.084   1.047
19572W        W86355  24.165  39.621   4.564
19573W        W86356  16.011  14.924  13.279
19574W        W86357  36.999   6.443  12.158
19575W        W86358  28.685  40.975   5.488
19576W        W86359   6.357   4.145   3.618
19577W        W86360  11.507  22.899  13.427
19578W        W86361  40.812  40.381   3.275
19579W        W86362  23.679  37.053  11.230
19580W        W86363  36.238  23.534  11.078
19581W        W86364  23.620  18.556   1.827
19582W        W86365  17.908  37.906   0.937
19583W        W86366  33.419   2.817  13.289
19584W        W86367  32.368  28.205   3.285
19585W        W86368   7.893  29.566   5.033
19586W        W86369   0.544   2.409  11.091
19587W        W86370   8.493  24.441   2.717
19588W        W86371  13.363  37.051  13.521
19589W        W86372  17.954  11.345  12.533
19590W        W86373  19.563  18.644  10.449
19591W        W86374   1.475   3.832  10.740
19592W        W86375  43.380   0.698   1.801
19593W        W86376  42.599  18.166  14.864
19594W        W86377   9.207  13.792  10.662
19595W        W86378  31.554  34.413  14.874
19596W        W86379   6.137  19.876   0.512
19597W        W86380  12.766  32.607  10.705
19598W        W86381  37.278   0.762   2.932
19599W        W86382  40.087  15.763   0.866
19600W        W86383  23.061  30.358   3.247
19601W        W86384  15.304  38.345   1.812
19602W        W86385   1.309  11.867   3.227
19603W        W86386  17.666  40.984  14.374
19604W        W86387   7.853  25.275  14.304
19605W        W86388  16.362  29.125  12.468
19606W        W86389  38.722  27.802   0.805
19607W        W86390  16.559  11.224   0.420
19608W        W86391  11.819   1.971   4.021
19609W        W86392  10.163  12.823  10.887
19610W        W86393  10.556  30.351  11.117
19611W        W86394  31.627   9.317   4.935
19612W        W86395  42.067  22.362   2.729
19613W        W86396   0.055  24.004   4.246
19614W        W86397   4.064  39.056  12.076
19615W        W86398   9.328  28.440  14.306
19616W        W86399  42.491  42.333  10.722
19617W        W86400   1.012   9.227  13.897
19618W        W86401  33.519  15.293  12.167
19619W        W86402  34.517  34.123  12.479
19620W        W86403   0.953  31.051   5.110
19621W        W86404  21.551  39.041   0.240
19622W        W86405  37.242   8.167   0.296
19623W        W86406   1.433  11.354   3.326
19624W        W86407  16.177  31.084  12.365
19625W        W86408  32.670  42.212  11.827
19626W        W86409  28.592   5.204   3.737
19627W        W86410   4.396  37.666  11.032
19628W        W86411  11.666   8.891   0.802
19629W        W86412  20.290  35.776  14.491
19630W        W86413  44.811  23.818  12.171
19631W        W86414   3.033  33.322   2.811
19632W        W86415  34.129   4.896  13.653
19633W        W86416  43.772  25.981   1.426
19634W        W86417  23.073  22.144   3.601
19635W        W86418  33.440  40.441   4.264
19636W        W86419  13.619  20.261  13.833
19637W        W86420  33.226  23.820   3.261
19638W        W86421   2.253  41.292   3.359
19639W        W86422  27.080  14.325  12.374
19640W        W86423  17.092  32.310  11.911
19641W        W86424  25.504  29.367  10.743
19642W        W86425  32.065  24.992  11.077
19643W        W86426   8.911  44.413  12.437
19644W        W86427  34.829  37.790  12.096
19645W        W86428  44.241  24.241  12.490
19646W        W86429  27.873  38.037  11.710
19647W        W86430  30.672  44.620   4.257
19648W        W86431  14.577  23.748  13.277
19649W        W86432  44.424  32.552  13.062
19650W        W86433  29.115  10.344   0.278
19651W        W86434  22.118  41.383   2.631
19652W        W86435  28.461   6.610   3.806
19653W        W86436  41.801  23.526   0.839
19654W        W86437  15.988  25.141   4.284
19655W        W86438  10.438  19.263   1.105
19656W        W86439  28.091  31.331  14.028
19657W        W86440  13.671   7.978   1.834
19658W        W86441   6.495  40.790  13.322
19659W        W86442  27.460  18.028  11.630
19660W        W86443   1.106  31.243   3.162
19661W        W86444  13.723  41.288   3.197
19662W        W86445  38.741  32.811   4.179
19663W        W86446  39.436  35.058  12.872
19664W        W86447  11.869   9.785   2.656
19665W        W86448  26.009   8.962   0.483
19666W        W86449  11.404  22.049   4.172
19667W        W86450  40.227   5.660   3.577
19668W        W86451  32.523  21.996   0.193
19669W        W86452  28.838  36.304  11.880
19670W        W86453  24.760  13.068   0.947
19671W        W86454   1.360  22.862   1.015
19672W        W86455   3.145  31.909  10.203
19673W        W86456  30.659  23.103  14.279
19674W        W86457  33.821  17.988  13.490
19675W        W86458  12.816  23.268   0.508
19676W        W86459  42.505  27.604   3.882
19677W        W86460  29.599   7.794  11.154
19678W        W86461  10.015   6.366  11.152
19679W        W86462   5.508  41.768  12.481
19680W        W86463  12.656  38.892  11.436
19681W        W86464  12.157  37.565   1.036
19682W        W86465  20.595  42.890  10.753
19683W        W86466  28.065  43.519  10.678
19684W        W86467  13.113  33.924  11.618
19685W        W86468  24.096  28.382   2.742
19686W        W86469  32.565  27.557   2.317
19687W        W86470  28.510  39.091   4.257
19688W        W86471  21.829  19.171   1.094
19689W        W86472  42.357  18.777   4.099
19690W        W86473   3.848  14.348  11.893
19691W        W86474  15.108  14.747  13.751
19692W        W86475  27.253  14.779   0.257
19693W        W86476  34.880  40.508   1.227
19694W        W86477  36.763  25.358  12.598
19695W        W86478   0.282  33.872  12.628
19696W        W86479   3.742  41.452   3.311
19697W        W86480  29.413  10.715  12.966
19698W        W86481  21.476  33.562  12.517
19699W        W86482  27.931  28.131   9.900
19700W        W86483   3.476  16.714   1.241
19701W        W86484  29.054  32.510  10.708
19702W        W86485   1.963  18.794   3.614
19703W        W86486  25.523   5.210  15.000
19704W        W86487  44.789  29.039   4.419
19705W        W86488  13.111   3.637   1.493
19706W        W86489  19.163  15.560  14.487
19707W        W86490   4.167  39.568   1.299
19708W        W86491  33.897  27.362   4.160
19709W        W86492   4.830   3.236  10.727
19710W        W86493   3.955  23.306   1.003
19711W        W86494  10.873   1.735   4.557
19712W        W86495  43.281  30.012   2.641
19713W        W86496  32.480   7.001   0.286
19714W        W86497  12.564  19.192   4.203
19715W        W86498  15.013  39.062  12.462
19716W        W86499  26.678  33.140   2.392
19717W        W86500  22.245   6.174   3.071
19718W        W86501  39.011   7.193   1.383
19719W        W86502   6.872  15.293  12.611
19720W        W86503   3.344  35.108  13.403
19721W        W86504  23.610   1.160  11.810
19722W        W86505  22.181  33.835  14.981
19723W        W86506  12.193   9.144   5.016
19724W        W86507  41.813  17.262   4.609
19725W        W86508  10.339  43.914  12.590
19726W        W86509   5.194  30.653  11.556
19727W        W86510  40.839   1.144   0.046
19728W        W86511   0.381   0.561   1.720
19729W        W86512  11.182  30.329   4.616
19730W        W86513  15.147   4.704  13.456
19731W        W86514   0.912  10.793   4.139
19732W        W86515   4.501   0.925  10.871
19733W        W86516  43.108   3.261  13.100
19734W        W86517  35.056   8.884  10.338
19735W        W86518  28.678  14.635   1.502
19736W        W86519  28.634  40.910  11.110
19737W        W86520  25.018  21.306  10.742
19738W        W86521   6.839  10.392   1.393
19739W        W86522   3.227  43.324  12.490
19740W        W86523  13.947  24.504  13.567
19741W        W86524   3.733  19.165  14.912
19742W        W86525   4.499  32.946   4.419
19743W        W86526  44.454  29.908  11.978
19744W        W86527  26.719  21.472  14.388
19745W        W86528  26.884  23.002  12.654
19746W        W86529  36.353  36.300  10.278
19747W        W86530  16.962   0.076  14.053
19748W        W86531  27.125  43.805   3.204
19749W        W86532  19.474   1.505   1.286
19750W        W86533   0.788  20.683  12.070
19751W        W86534  35.942  32.526  14.020
19752W        W86535   3.955  22.658  14.841
19753W        W86536  34.005  31.386  14.999
19754W        W86537  24.690  23.092   9.947
19755W        W86538  10.733  24.675  14.395
19756W        W86539  29.967  36.562   4.377
19757W        W86540  26.490   6.875   0.806
19758W        W86541  26.261  43.853  14.117
19759W        W86542   9.571  28.316  12.323
19760W        W86543   8.591  23.900  13.227
19761W        W86544  19.211  11.455  13.240
19762W        W86545  33.922   7.057   3.231
19763W        W86546  17.094  23.033   3.340
19764W        W86547  33.525   9.157  13.953
19765W        W86548   4.346  26.578  10.815
19766W        W86549   8.758  20.250   4.641
19767W        W86550   4.347  22.677  13.534
19768W        W86551   9.384  33.156   3.591
19769W        W86552  37.655  19.762  12.824
19770W        W86553  18.126  43.844  10.658
19771W        W86554  28.069  36.476  11.944
19772W        W86555  12.059   5.841  11.608
19773W        W86556  28.043   0.951  14.288
19774W        W86557  18.620   7.162  11.183
19775W        W86558  18.350  12.097  11.603
19776W        W86559  39.063   1.704  14.866
19777W        W86560  31.675   0.416  11.951
19778W        W86561   0.911  14.178   4.837
19779W        W86562  36.243   3.374  14.763
19780W        W86563   8.697  23.099  10.686
19781W        W86564  32.854  44.329   2.323
19782W        W86565   1.315  39.107   3.585
19783W        W86566  14.527   1.964  13.964
19784W        W86567   3.013  10.143  13.110
19785W        W86568  13.191  44.067  12.594
19786W        W86569  24.574  33.265  10.928
19787W        W86570  31.019  24.063   1.007
19788W        W86571  40.231  12.290   1.858
19789W        W86572  10.325  27.593   4.519
19790W        W86573  26.711  43.946   0.502
19791W        W86574  41.078  11.834  12.446
19792W        W86575  41.026  22.190  10.589
19793W        W86576  40.779   1.528  13.021
19794W        W86577  35.082  41.343  12.976
19795W        W86578  38.657  32.793  10.666
19796W        W86579  10.209  42.822  11.995
19797W        W86580  44.198  24.174  10.672
19798W        W86581  19.770  19.064   3.754
19799W        W86582  14.132  44.436   4.074
19800W        W86583  18.219  36.364   4.905
19801W        W86584   3.872  32.014   3.698
19802W        W86585   1.754  40.810  14.873
19803W        W86586  41.586  38.249  12.550
19804W        W86587   9.312  33.096  11.404
19805W        W86588  39.457   4.267   0.349
19806W        W86589  35.371  13.869  12.903
19807W        W86590  24.774  42.656   2.907
19808W        W86591  32.546  39.474   3.408
19809W        W86592  26.716  16.307  10.278
19810W        W86593   6.252  21.820  13.954
19811W        W86594   6.188   5.408   0.453
19812W        W86595  18.733  36.834   4.195
19813W        W86596   0.679   0.956   1.182
19814W        W86597  44.713  38.001   3.238
19815W        W86598   9.215  13.713   3.597
19816W        W86599   4.927   1.377   5.039
19817W        W86600  27.409  16.097  11.049
19818W        W86601  12.856  15.102   3.586
19819W        W86602   5.882  17.238   0.470
19820W        W86603  17.051  42.033   2.248
19821W        W86604  43.831  19.051  11.153
19822W        W86605  36.551  15.135  14.876
19823W        W86606  23.103   2.851   0.376
19824W        W86607  13.068  35.251   4.237
19825W        W86608   2.306  15.187  12.381
19826W        W86609  29.699  27.094  10.913
19827W        W86610  33.069  18.283   0.346
19828W        W86611  20.954  34.606  14.827
19829W        W86612  35.036  32.405   2.455
19830W        W86613  33.893   3.427  13.980
19831W        W86614  11.869  43.865  13.645
19832W        W86615  17.043  13.532  11.126
19833W        W86616  35.928   8.911  14.925
19834W        W86617  41.049  32.151   0.318
19835W        W86618  39.586   7.094  14.338
19836W        W86619   4.557   6.122   5.030
19837W        W86620  31.669   4.167  12.968
19838W        W86621  43.106  39.142  13.038
19839W        W86622  29.557  32.730  13.793
19840W        W86623   7.208  11.573   0.337
19841W        W86624  31.023  11.757   4.026
19842W        W86625  18.645  25.797  10.396
19843W        W86626  15.622  13.762   1.378
19844W        W86627  44.733   6.675  14.131
19845W        W86628  33.766  23.802   3.183
19846W        W86629   4.065  40.291  11.068
19847W        W86630  16.851  42.818  10.499
19848W        W86631  44.957  28.285  13.435
19849W        W86632  30.594  24.550  10.904
19850W        W86633  32.057  13.209  12.820
19851W        W86634  28.942  26.194  11.063
19852W        W86635  32.159   0.924  11.607
19853W        W86636   1.543   5.527   2.428
19854W        W86637  43.174  21.816   0.803
19855W        W86638  24.088   6.757  13.583
19856W        W86639   1.763  42.970  11.941
19857W        W86640  12.419  36.138   3.123
19858W        W86641   8.957  43.694  10.706
19859W        W86642   2.750  28.229  13.998
19860W        W86643  25.987  43.468   0.292
19861W        W86644  10.311  11.775  13.363
19862W        W86645  23.553  36.956   2.127
19863W        W86646   4.445  19.177  10.338
19864W        W86647  16.254  10.612  10.699
19865W        W86648  39.160  40.357  13.018
19866W        W86649  16.263  40.776  10.711
19867W        W86650  44.193  35.912   2.280
19868W        W86651  31.526  25.213  12.082
19869W        W86652  43.733  18.278   2.403
19870W        W86653   9.365   6.987  12.096
19871W        W86654   1.948  11.746   0.244
19872W        W86655  39.446  43.283  12.706
19873W        W86656  38.257   8.600   9.940
19874W        W86657  10.211  40.409   1.233
19875W        W86658  19.555  19.600  11.416
19876W        W86659  38.529  42.380  14.411
19877W        W86660   5.631  24.091   0.429
19878W        W86661  24.242  22.298   0.860
19879W        W86662  28.438  28.406   0.298
19880W        W86663  39.175  39.768   0.759
19881W        W86664  40.108  36.486   2.331
19882W        W86665  23.584  42.809   1.515
19883W        W86666  24.267   1.811   3.620
19884W        W86667  42.026  24.412  12.359
19885W        W86668  34.626  37.576   3.878
19886W        W86669  43.996  42.459   4.455
19887W        W86670  34.418   1.715  12.976
19888W        W86671  12.386  12.086  13.913
19889W        W86672  44.495  18.496   0.962
19890W        W86673  20.799  31.400  10.894
19891W        W86674  15.742   0.922  13.907
19892W        W86675  19.926  23.797  11.561
19893W        W86676   3.750   9.927  12.108
19894W        W86677  41.263   5.276   0.045
19895W        W86678   9.323   2.470   2.211
19896W        W86679  29.627   4.459  11.961
19897W        W86680  30.117  40.017   3.669
19898W        W86681  31.431   7.086  14.353
19899W        W86682  19.694  23.043  12.063
19900W        W86683  29.046  30.443  12.260
19901W        W86684  35.580   0.718   0.669
19902W        W86685  17.796  10.934   2.655
19903W        W86686   7.921  40.158   4.456
19904W        W86687   4.255  26.041  13.424
19905W        W86688  24.523  23.950   1.497
19906W        W86689   0.599  21.921  10.727
19907W        W86690  32.500   1.801   0.281
19908W        W86691   6.236  13.159   1.659
19909W        W86692  17.799  13.754   0.676
19910W        W86693   3.998  26.571   4.207
19911W        W86694  41.849  34.604   3.345
19912W        W86695  21.286  42.433  11.060
19913W        W86696  31.333  13.504   1.148
19914W        W86697  14.239   7.415  13.979
19915W        W86698  24.497  20.611  10.673
19916W        W86699  33.001  37.336   2.301
19917W        W86700  39.787  38.942  12.090
19918W        W86701  27.384  42.724  12.539
19919W        W86702  33.582  27.680   3.252
19920W        W86703  40.559  11.534   4.784
19921W        W86704  27.959  28.105   4.687
19922W        W86705  44.210  35.826   4.420
19923W        W86706  19.177  43.282  13.057
19924W        W86707  30.230   6.299   4.741
19925W        W86708  30.891  10.723  11.559
19926W        W86709   0.014   8.785  11.012
19927W        W86710  26.813   5.600  12.577
19928W        W86711  32.086  13.338  11.078
19929W        W86712  26.246  43.508  10.235
19930W        W86713  10.211  40.917  13.527
19931W        W86714  38.928   7.793  12.310
19932W        W86715  41.528  36.460   0.797
19933W        W86716  11.195  31.193   1.808
19934W        W86717  43.825  32.940  10.746
19935W        W86718  30.936  24.013   2.315
19936W        W86719   0.760  27.057   0.823
19937W        W86720   9.617  44.597   0.719
19938W        W86721  41.885  14.390   1.831
19939W        W86722  27.028   5.776   1.137
19940W        W86723   6.815  41.455  12.505
19941W        W86724  29.884  41.282   4.549
19942W        W86725  38.017   8.339   1.757
19943W        W86726  20.627  14.667   0.794
19944W        W86727  32.022  18.468  10.243
19945W        W86728  21.673  39.515   0.990
19946W        W86729   9.798  14.424  10.361
19947W        W86730  12.610  32.423  14.017
19948W        W86731  10.661  15.153  12.583
19949W        W86732   5.372   9.795  10.872
19950W        W86733  28.637   1.041   1.488
19951W        W86734  29.842   4.031   2.581
19952W        W86735  23.844   9.575  12.940
19953W        W86736  28.936  19.793   1.222
19954W        W86737  23.386  22.499  14.992
19955W        W86738  37.990  44.484   1.697
19956W        W86739  25.710  27.232  11.197
19957W        W86740  28.119   3.744   3.171
19958W        W86741  13.804  33.467   1.765
19959W        W86742   5.926   2.452  10.916
19960W        W86743  36.578   2.478  11.699
19961W        W86744  16.365  23.016   0.859
19962W        W86745  40.416  36.667   0.492
19963W        W86746  36.077  35.436   1.186
19964W        W86747  27.152  15.688  12.033
19965W        W86748  24.163   0.919   4.098
19966W        W86749  18.104  20.590  12.715
19967W        W86750  10.641   6.647   9.893
19968W        W86751  11.099  15.885  11.457
19969W        W86752  37.679   8.967  12.038
19970W        W86753   8.678  42.012  13.854
19971W        W86754   5.014  12.080   3.713
19972W        W86755  30.972   7.446  13.415
19973W        W86756  39.949   4.655  11.093
19974W        W86757  25.915  31.332   1.726
19975W        W86758   6.479  35.083   3.647
19976W        W86759  28.372  13.879  14.837
19977W        W86760  16.619  19.011  13.408
19978W        W86761  11.831  29.627   4.674
19979W        W86762   4.342  43.979  14.392
19980W        W86763  41.474   1.995  11.786
19981W        W86764   0.508  44.809  10.714
19982W        W86765  36.145  32.391  10.857
19983W        W86766   9.639   9.258   1.855
19984W        W86767   4.274  11.532  13.043
19985W        W86768  25.956  21.793   1.893
19986W        W86769  26.283   0.750   2.580
19987W        W86770  33.827   8.757   1.982
19988W        W86771  38.540  24.493  14.761
19989W        W86772  30.843   9.864   0.317
19990W        W86773  14.322   8.228  13.591
19991W        W86774  32.586  24.119  10.318
19992W        W86775   9.700  23.453   4.072
19993W        W86776  11.656  13.818  10.434
19994W        W86777  17.283  23.039   2.347
19995W        W86778   8.608  29.724   4.063
19996W        W86779   2.408  13.717  11.129
19997W        W86780  40.803   7.948   3.752
19998W        W86781  20.706   1.322  10.242
19999W        W86782   5.195  21.936  11.086
20000W        W86783  21.758   6.126  14.931
20001W        W86784  44.209  24.911   0.353
20002W        W86785  41.497  11.131  13.815
20003W        W86786  22.605  40.610  13.558
20004W        W86787  32.425  19.500  11.512
20005W        W86788   8.447  36.049  11.143
20006W        W86789  34.585  25.524  11.926
20007W        W86790  13.062  21.949   0.830
20008W        W86791   3.250   4.828  11.735
20009W        W86792  21.755  37.620  13.329
20010W        W86793  20.700  22.537  13.768
20011W        W86794  42.879  37.074  11.468
20012W        W86795  42.005  34.807  12.763
20013W        W86796  30.270  32.763  12.596
20014W        W86797  23.493  12.399   0.937
20015W        W86798  18.213  42.050   1.930
20016W        W86799  44.838  41.227  10.705
20017W        W86800  15.791  44.216   2.806
20018W        W86801  42.633  19.970  11.437
20019W        W86802  38.958  18.628  13.209
20020W        W86803  24.985  11.303   0.877
20021W        W86804   9.868  32.926  12.968
20022W        W86805  26.161  40.007   2.274
20023W        W86806  20.465  31.832   3.345
20024W        W86807  35.563  16.970   3.389
20025W        W86808  39.946  32.267  14.948
20026W        W86809  35.853   6.261  14.990
20027W        W86810   8.165  40.579  13.899
20028W        W86811  11.132  13.598  12.019
20029W        W86812  43.724  44.801   1.270
20030W        W86813   6.945   6.176  12.035
20031W        W86814  44.909  40.864  13.518
20032W        W86815  27.788  24.980   1.471
20033W        W86816  12.730  10.771   1.409
20034W        W86817  16.689  16.625   3.104
20035W        W86818  31.306   1.174   2.850
20036W        W86819  42.258  34.442  13.024
20037W        W86820  39.199   8.901   4.658
20038W        W86821   5.781  22.263  11.880
20039W        W86822  39.657  22.139  12.849
20040W        W86823   4.328  10.219  10.722
20041W        W86824  34.886  24.483   0.351
20042W        W86825  33.322  34.675   3.270
20043W        W86826  30.924  42.796   5.177
20044W        W86827  23.507   1.257   4.687
20045W        W86828  30.241  43.277   4.557
20046W        W86829  22.543  40.329   1.166
20047W        W86830  10.585  11.973  11.665
20048W        W86831  26.495  36.214  11.452
20049W        W86832  31.930  42.090  10.716
20050W        W86833  34.691  14.527  12.584
20051W        W86834   6.425  40.412   4.660
20052W        W86835  22.523  29.505  14.230
20053W        W86836  35.732  20.119   5.687
20054W        W86837  26.948  20.966  10.628
20055W        W86838   5.746   4.779  14.938
20056W        W86839  36.830  25.547   1.607
20057W        W86840   2.210  22.977  13.622
20058W        W86841  39.074  30.165  12.753
20059W        W86842  43.985  42.045  14.003
20060W        W86843  14.250  39.971   3.685
20061W        W86844  41.823  28.513   3.646
20062W        W86845  17.077  35.197   2.030
20063W        W86846   1.880  22.102  11.865
20064W        W86847  30.824  31.030   2.393
20065W        W86848   7.716  29.062  13.017
20066W        W86849  10.334  34.146  11.133
20067W        W86850  37.038  20.186  12.084
20068W        W86851  27.150   2.302   3.249
20069W        W86852   3.959  35.745   2.988
20070W        W86853  37.030  35.335  11.290
20071W        W86854  37.460  35.167   2.018
20072W        W86855  33.360  21.547  14.216
20073W        W86856  10.278  10.709   0.046
20074W        W86857   3.460  42.015   0.669
20075W        W86858  18.926  29.993   3.779
20076W        W86859  35.966   2.953   4.364
20077W        W86860  16.878  31.896   3.727
20078W        W86861   3.970  24.377  14.544
20079W        W86862  22.361  37.993   3.760
20080W        W86863   5.217  37.566  13.865
20081W        W86864   2.593  38.335  11.459
20082W        W86865  43.757  30.519   3.896
20083W        W86866  30.331   6.497  14.076
20084W        W86867  38.659  10.341   3.227
20085W        W86868   7.782  43.567   0.467
20086W        W86869  41.340   9.849   4.366
20087W        W86870   3.454  23.563  12.939
20088W        W86871  44.726  21.789  11.528
20089W        W86872   9.679  36.060   0.188
20090W        W86873   3.098   1.986   3.207
20091W        W86874  10.696  16.629   4.354
20092W        W86875   7.316  25.664   1.396
20093W        W86876  19.705  23.578   2.865
20094W        W86877  37.957   4.055  11.963
20095W        W86878   1.234  13.744   4.702
20096W        W86879  42.393  21.043  12.927
20097W        W86880  14.590  32.204   0.216
20098W        W86881  25.917  28.678   3.351
20099W        W86882  10.809  29.118  14.035
20100W        W86883  43.998  18.089  12.962
20101W        W86884  38.346   8.691  14.010
20102W        W86885  28.884  43.897   0.993
20103W        W86886  35.324  27.407   1.769
20104W        W86887  22.276  40.592  10.660
20105W        W86888   6.130   1.291   4.597
20106W        W86889  24.349   6.406   0.087
20107W        W86890  31.082  22.826  12.322
20108W        W86891  40.567  43.416   0.355
20109W        W86892  20.045  17.204  14.932
20110W        W86893   0.961  10.320   4.377
20111W        W86894  21.421   5.318  11.923
20112W        W86895   3.577  26.669   0.870
20113W        W86896  26.787  15.413  11.612
20114W        W86897  42.396  40.408   4.885
20115W        W86898  12.734   4.366  11.347
20116W        W86899  27.864  16.219   0.843
20117W        W86900  35.966  39.942   1.261
20118W        W86901  19.852  39.287  12.294
20119W        W86902  34.056  32.390  12.010
20120W        W86903  11.328  14.062  11.134
20121W        W86904  39.820  44.285  12.969
20122W        W86905  34.893  32.926   0.353
20123W        W86906  22.737   1.228   3.417
20124W        W86907   3.333  41.540   2.482
20125W        W86908   1.697  37.364   0.040
20126W        W86909  38.377  33.718   2.608
20127W        W86910  24.140  44.767   3.172
20128W        W86911  26.450  36.558   0.932
20129W        W86912  39.850  37.451  12.676
20130W        W86913  39.946  31.174  13.397
20131W        W86914  11.679   9.461   3.083
20132W        W86915  26.068  19.354   1.785
20133W        W86916  14.840  15.701   1.769
20134W        W86917   2.797  15.136   3.332
20135W        W86918   7.253  21.501   2.150
20136W        W86919  15.510   4.253   2.445
20137W        W86920  10.437   6.315   0.842
20138W        W86921  42.425   6.625   3.478
20139W        W86922  38.506  33.597  11.027
20140W        W86923  27.687  25.614   4.279
20141W        W86924  40.865  19.239  14.491
20142W        W86925  34.947  27.629  11.679
20143W        W86926  37.124  36.101   0.865
20144W        W86927  17.905  26.599  12.447
20145W        W86928  26.225  11.136   2.718
20146W        W86929  18.864   1.669   3.454
20147W        W86930  28.089  37.183  10.740
20148W        W86931  21.190  19.945   1.180
20149W        W86932  30.237  20.033  14.296
20150W        W86933  38.915  24.184  11.616
20151W        W86934   8.265   4.011  12.155
20152W        W86935  13.214  11.619   2.084
20153W        W86936   3.354  17.155  11.521
20154W        W86937  39.026  21.490   4.496
20155W        W86938  24.038  37.737   2.263
20156W        W86939  37.388  35.594  14.287
20157W        W86940  37.871   4.405   1.285
20158W        W86941  39.925   0.162   0.399
20159W        W86942   2.325  15.244   3.157
20160W        W86943  18.110  12.028  13.415
20161W        W86944  11.080  25.743   1.800
20162W        W86945  44.751  41.754  12.629
20163W        W86946  30.299  36.475   0.456
20164W        W86947  43.335  17.018   2.873
20165W        W86948  27.866  44.329  11.693
20166W        W86949  17.837  23.743   3.183
20167W        W86950   4.907  32.432  11.741
20168W        W86951  25.448  16.898  13.224
20169W        W86952   8.148  29.926  14.300
20170W        W86953  44.438  20.230  12.543
20171W        W86954  39.312   3.964   3.302
20172W        W86955  23.976  37.199   0.157
20173W        W86956  40.918  11.734  11.580
20174W        W86957   0.653  27.531  11.072
20175W        W86958   7.264  24.100   3.896
20176W        W86959  35.892  10.403   4.310
20177W        W86960  18.657  43.276  13.307
20178W        W86961  11.568   5.668   2.805
20179W        W86962  10.858  12.234   4.339
20180W        W86963  35.508   2.536   1.888
20181W        W86964  38.682  27.602  14.439
20182W        W86965  31.618   8.098  14.096
20183W        W86966   8.260   7.012  10.476
20184W        W86967   3.515  40.271   4.858
20185W        W86968  23.418   5.030  10.369
20186W        W86969  17.718  36.556  14.000
20187W        W86970  23.046   3.125  12.288
20188W        W86971   6.691  32.631  11.851
20189W        W86972  24.429  15.247   3.593
20190W        W86973  42.044  22.608   0.459
20191W        W86974  22.678  34.712   5.185
20192W        W86975  42.284  29.762  13.076
20193W        W86976  25.068  11.134  14.288
20194W        W86977  21.210  30.640  10.571
20195W        W86978  35.300  32.831  12.970
20196W        W86979  28.173  14.075  12.173
20197W        W86980  32.602  38.448   3.966
20198W        W86981  13.147  23.487  13.742
20199W        W86982   0.757  40.730   0.666
20200W        W86983   3.116  27.928   3.241
20201W        W86984   9.761  24.792   2.457
20202W        W86985  17.641  21.778   4.669
20203W        W86986   1.527  34.436  12.524
20204W        W86987  21.258  25.077  10.236
20205W        W86988  16.137  28.400  11.158
20206W        W86989   7.454  19.568  11.589
20207W        W86990  29.667  27.139  13.478
20208W        W86991   5.954  30.202   2.198
20209W        W86992  11.209   3.924   1.298
20210W        W86993   0.085  14.101   2.779
20211W        W86994   4.715  43.352   4.232
20212W        W86995  17.106  19.456   0.952
20213W        W86996  21.578  44.160  13.513
20214W        W86997   3.532  44.990   3.621
20215W        W86998  33.587  12.795   2.108
20216W        W86999  29.119   2.834  14.991
20217W        W87000   7.237  36.026   0.392
20218W        W87001  38.322   4.236  12.939
20219W        W87002  37.888  14.542   4.585
20220W        W87003  21.320  24.531   3.707
20221W        W87004  43.322  19.381  11.232
20222W        W87005  44.278  16.890  10.100
20223W        W87006   8.259  12.766  12.373
20224W        W87007   9.215  44.753   2.750
20225W        W87008  20.686   9.263  11.673
20226W        W87009  33.403   4.521   0.287
20227W        W87010   3.264   9.403   1.253
20228W        W87011   9.408  28.805  13.059
20229W        W87012  22.244  31.485  14.457
20230W        W87013  35.465   9.631  12.435
20231W        W87014  26.502  22.812  10.610
20232W        W87015  40.739   7.432   3.380
20233W        W87016  26.083  24.497  13.258
20234W        W87017  15.593  22.589   1.785
20235W        W87018   0.624  21.109  10.321
20236W        W87019  12.206  44.834  13.535
20237W        W87020   0.387  32.994  13.191
20238W        W87021   2.848  28.917  12.545
20239W        W87022  19.825  19.556  12.911
20240W        W87023  34.152  39.798   0.289
20241W        W87024  38.010  26.385  14.218
20242W        W87025   2.272  41.582   0.396
20243W        W87026  27.558  38.119   2.114
20244W        W87027  11.632  44.923   1.858
20245W        W87028  11.952  12.424  14.495
20246W        W87029  38.867  12.576   3.265
20247W        W87030  22.566   0.850  11.167
20248W        W87031  23.302  14.763  12.432
20249W        W87032   0.953   1.122   3.351
20250W        W87033  13.572  20.247   2.552
20251W        W87034  44.090   1.955  10.532
20252W        W87035  10.006  35.142   4.038
20253W        W87036  34.470  40.077   2.656
20254W        W87037  12.574  19.601  14.838
20255W        W87038  13.338  32.567  11.281
20256W        W87039  29.902  12.450   0.411
20257W        W87040   4.526  30.501   4.712
20258W        W87041  37.272  17.658  11.051
20259W        W87042  21.509   9.265   3.460
20260W        W87043   3.589  13.876  14.002
20261W        W87044  30.591  24.086  14.190
20262W        W87045   7.160  36.932  12.180
20263W        W87046  24.530  20.780   0.498
20264W        W87047  23.832   1.401   4.287
20265W        W87048   9.033   7.386  12.145
20266W        W87049  37.575  18.235   0.259
20267W        W87050  32.339   1.610  13.828
20268W        W87051  44.216  21.188  12.579
20269W        W87052   4.528  32.422   1.954
20270W        W87053  38.936  44.292   2.718
20271W        W87054   0.293  20.822   1.652
20272W        W87055   9.311  27.041  12.018
20273W        W87056  40.862  32.610   0.129
20274W        W87057  36.150  27.432  11.633
20275W        W87058   0.478  23.180  13.426
20276W        W87059  12.481  26.732  13.980
20277W        W87060   1.992   8.602  11.142
20278W        W87061   2.863  14.564   3.680
20279W        W87062   2.398  20.714  13.870
20280W        W87063   4.808  29.471  13.908
20281W        W87064  22.995  21.640   1.573
20282W        W87065   3.964  19.035  12.387
20283W        W87066  24.412  38.541  10.807
20284W        W87067  40.268  22.793   1.770
20285W        W87068  32.377  17.841  12.927
20286W        W87069   2.991  10.260  14.076
20287W        W87070  13.259  36.750   2.743
20288W        W87071  13.619  15.333  14.079
20289W        W87072  29.046  25.293  13.502
20290W        W87073   8.457  16.355  12.631
20291W        W87074   3.809  32.873  10.804
20292W        W87075  37.821   4.234  13.089
20293W        W87076  25.048  37.109   4.654
20294W        W87077  27.152  22.826  13.071
20295W        W87078   1.884  31.184  10.477
20296W        W87079  44.061  34.929   3.285
20297W        W87080   1.473   2.013   4.062
20298W        W87081  34.734  26.069   0.279
20299W        W87082  42.541  30.272  14.339
20300W        W87083  24.675  39.404   3.678
20301W        W87084  11.937  26.848   3.231
20302W        W87085  29.996   2.749   2.300
20303W        W87086  24.176  21.970  10.579
20304W        W87087  19.231  13.423  14.792
20305W        W87088   4.617  42.477   9.893
20306W        W87089  16.956  24.542  12.481
20307W        W87090  38.078   3.507  13.372
20308W        W87091  28.178  33.071   0.764
20309W        W87092  10.697  31.685   0.429
20310W        W87093  33.430   1.352   0.464
20311W        W87094   2.460   6.203   1.844
20312W        W87095  23.242   2.382   3.535
20313W        W87096   7.219   4.362  11.609
20314W        W87097   5.430  17.172   1.718
20315W        W87098  38.908  26.078  12.490
20316W        W87099  17.623  12.180  10.265
20317W        W87100   9.710   1.369  11.157
20318W        W87101  18.245  28.670  10.754
20319W        W87102   8.846  26.231   2.892
20320W        W87103   9.064  32.361   3.309
20321W        W87104  16.658   8.714  11.571
20322W        W87105  14.334  26.263   3.289
20323W        W87106   4.441  13.581  13.405
20324W        W87107  21.603  43.942   2.868
20325W        W87108  11.930   2.755   1.258
20326W        W87109  29.633   3.609   3.907
20327W        W87110  22.505  38.367   3.339
20328W        W87111  32.431  25.715  12.015
20329W        W87112  17.239   4.270  14.511
20330W        W87113  28.690  37.160  12.060
20331W        W87114   9.375  22.582  12.128
20332W        W87115  12.251  31.610   1.878
20333W        W87116  26.433  22.497  11.002
20334W        W87117  18.846  32.016  13.849
20335W        W87118  41.085   8.338   2.672
20336W        W87119  14.884   6.122  13.994
20337W        W87120  22.069   6.728   0.388
20338W        W87121  14.571  32.965  11.129
20339W        W87122  21.732  20.318   3.178
20340W        W87123  18.550  31.823  14.319
20341W        W87124  37.006  25.570   3.217
20342W        W87125  34.916   5.567   1.060
20343W        W87126  20.533  11.858   3.263
20344W        W87127   3.843   7.452  14.462
20345W        W87128   7.946  43.006   1.337
20346W        W87129  43.040  37.547  10.719
20347W        W87130  36.490  36.584   0.032
20348W        W87131   4.548  20.329   3.228
20349W        W87132  14.015  23.247  13.820
20350W        W87133   5.422  29.459  13.021
20351W        W87134  41.525  35.576  14.975
20352W        W87135  35.127  38.737   0.931
20353W        W87136  39.508   7.642  12.032
20354W        W87137  22.922  31.588   0.835
20355W        W87138  37.962  11.334   1.540
20356W        W87139  41.788  21.891  10.757
20357W        W87140  34.722   3.272   9.878
20358W        W87141  37.000   1.756  12.275
20359W        W87142   7.740  43.334  10.919
20360W        W87143  41.909   5.633   2.885
20361W        W87144  40.599  34.008  14.871
20362W        W87145  30.475  22.204   0.416
20363W        W87146  40.016  32.634   0.292
20364W        W87147  27.714  42.041   4.024
20365W        W87148  34.814  39.836  13.026
20366W        W87149  39.773  16.650  11.020
20367W        W87150  24.499  32.957   4.219
20368W        W87151  12.821  22.764  11.669
20369W        W87152  24.048   2.486   0.491
20370W        W87153  33.587  42.728   5.044
20371W        W87154   0.405   6.932   2.925
20372W        W87155  13.706  16.319   4.224
20373W        W87156  12.098   3.220   4.240
20374W        W87157  30.987  31.520   3.652
20375W        W87158  42.376  30.733  14.162
20376W        W87159  20.052  18.171  14.375
20377W        W87160   7.151  16.593   1.030
20378W        W87161  36.479  12.555   5.005
20379W        W87162  43.067  31.912   0.021
20380W        W87163  39.884  30.674   0.835
20381W        W87164   4.276   8.463  11.738
20382W        W87165  38.240  17.276   3.380
20383W        W87166   8.385  32.647  14.403
20384W        W87167   1.271   1.911   3.592
20385W        W87168  25.486  11.241   0.653
20386W        W87169  19.258  31.045  13.408
20387W        W87170  38.352  12.564   0.856
20388W        W87171  31.899  27.852   0.997
20389W        W87172  20.255   6.255   4.570
20390W        W87173  32.158  34.844   0.369
20391W        W87174  29.066  19.299  11.911
20392W        W87175  25.488  29.934   3.829
20393W        W87176  19.825  37.685  11.423
20394W        W87177  39.838  14.266  12.623
20395W        W87178  35.370   6.388  13.369
20396W        W87179  17.932  19.041   1.966
20397W        W87180   8.403  40.450  13.467
20398W        W87181  24.186   4.280  10.896
20399W        W87182  25.939  28.692  11.402
20400W        W87183  12.807   4.841  13.160
20401W        W87184  28.176   1.069  14.800
20402W        W87185  26.208  21.096  14.552
20403W        W87186  10.789  40.601   1.801
20404W        W87187  42.622   0.932  10.823
20405W        W87188  26.175  24.496   5.056
20406W        W87189  24.597  42.391   3.307
20407W        W87190  11.434   5.976   2.250
20408W        W87191  44.779  43.310   3.769
20409W        W87192  16.577   4.840  11.242
20410W        W87193  35.637   9.120   1.327
20411W        W87194  21.258  33.857  12.093
20412W        W87195   3.872  42.208   4.582
20413W        W87196  31.046   9.196  11.401
20414W        W87197  44.814  23.260  13.847
20415W        W87198  44.831  26.393   2.099
20416W        W87199  30.767  35.276  11.516
20417W        W87200   5.481  27.291  10.741
20418W        W87201  22.482  11.119   0.967
20419W        W87202  10.332  13.745  14.312
20420W        W87203  38.671  22.676   3.398
20421W        W87204   5.200  36.125  12.979
20422W        W87205   8.173  13.020  14.933
20423W        W87206  43.203  22.513   4.708
20424W        W87207   8.764   0.420  14.542
20425W        W87208  15.342   2.544  12.591
20426W        W87209  38.230   5.811   0.351
20427W        W87210  15.799  10.473   4.205
20428W        W87211   4.463   5.342   2.927
20429W        W87212  10.026  20.727   9.975
20430W        W87213  35.913  38.405   2.219
20431W        W87214  41.385   4.297  11.120
20432W        W87215  36.634  36.200   3.115
20433W        W87216  20.216  28.603   0.448
20434W        W87217  42.002   7.392  11.948
20435W        W87218  20.014  30.579  12.864
20436W        W87219  36.017  30.941   2.948
20437W        W87220  41.438  26.026   3.047
20438W        W87221   2.401   4.142  14.534
20439W        W87222  37.905  18.544  10.807
20440W        W87223  38.588  24.434  14.244
20441W        W87224  28.066  14.869  14.805
20442W        W87225  28.077  31.626   3.164
20443W        W87226  43.410  24.062   1.681
20444W        W87227  31.622   4.409   0.071
20445W        W87228  40.838  13.715   2.405
20446W        W87229  29.841  12.630   3.101
20447W        W87230  22.900  40.517  13.124
20448W        W87231  13.069  20.032   3.208
20449W        W87232  22.754  43.638  13.466
20450W        W87233  35.598   9.293  12.047
20451W        W87234  11.219  41.561   1.226
20452W        W87235  37.562  20.577   2.725
20453W        W87236  25.441  29.976  11.573
20454W        W87237  44.307  18.682  10.552
20455W        W87238  14.153  27.584  14.825
20456W        W87239  42.490  21.127   4.910
20457W        W87240  16.684  24.141   3.810
20458W        W87241  43.510   0.190  13.519
20459W        W87242  11.967  42.463   1.405
20460W        W87243  26.477  37.034   4.711
20461W        W87244  35.445  35.301   2.340
20462W        W87245  10.228  26.243   3.212
20463W        W87246  16.490  34.461   2.771
20464W        W87247  25.731  26.574  14.654
20465W        W87248  42.723  20.713   0.503
20466W        W87249  18.469  27.590   0.733
20467W        W87250  24.163  31.428   1.322
20468W        W87251  32.598  14.575  11.043
20469W        W87252  20.373  18.734  14.255
20470W        W87253  34.556  24.520  13.951
20471W        W87254  28.454   8.373  12.655
20472W        W87255  12.712  18.750  10.527
20473W        W87256  13.805  21.399  14.973
20474W        W87257  34.637  43.137  14.078
20475W        W87258  42.831  11.612  12.132
20476W        W87259  37.543  14.313  13.442
20477W        W87260  31.150  33.173  10.727
20478W        W87261  20.045  22.631  14.881
20479W        W87262  41.995  13.603  12.148
20480W        W87263   6.054  41.477  11.230
20481W        W87264  15.776   5.200   1.736
20482W        W87265  43.803   8.368   2.378
20483W        W87266  35.360  33.699   4.810
20484W        W87267  36.893  12.568  13.121
20485W        W87268  38.991  12.654  11.504
20486W        W87269  15.809  43.886  11.542
20487W        W87270   7.384  40.126  10.204
20488W        W87271  36.729   5.628   1.253
20489W        W87272  43.617  36.269  14.883
20490W        W87273  18.200  16.201   0.606
20491W        W87274  42.577  16.007  10.277
20492W        W87275  15.265  13.262  13.989
20493W        W87276  24.918  37.705   0.680
20494W        W87277  23.152  24.472  11.042
20495W        W87278  16.196  22.988   3.710
20496W        W87279  38.384  13.740  13.991
20497W        W87280  40.270  17.658  13.320
20498W        W87281   0.386  22.597   3.677
20499W        W87282  44.167  11.868  14.290
20500W        W87283  14.580  16.044  10.641
20501W        W87284  11.743  18.540   4.313
20502W        W87285  11.160  28.497  11.387
20503W        W87286  17.555  31.395   1.637
20504W        W87287  12.650  15.954   2.049
20505W        W87288   7.683  37.531  12.110
20506W        W87289  19.112  18.287   0.624
20507W        W87290  21.738  42.372  11.530
20508W        W87291  21.276  10.333   3.840
20509W        W87292   2.086  19.976  11.300
20510W        W87293   1.780   2.788  10.908
20511W        W87294   0.722  40.041  14.411
20512W        W87295  30.919  34.028  11.916
20513W        W87296  34.102  20.093   0.188
20514W        W87297  42.518   9.397   0.905
20515W        W87298  33.937  14.175  14.058
20516W        W87299  41.933  15.173   0.376
20517W        W87300  37.530   1.970   0.593
20518W        W87301   3.735   7.124   2.255
20519W        W87302  21.274  20.813  12.525
20520W        W87303  39.910  37.227   1.340
20521W        W87304  15.176  42.067  11.850
20522W        W87305  30.048  33.829   0.432
20523W        W87306  42.461  25.040   4.093
20524W        W87307   9.624   1.469   4.025
20525W        W87308  33.635  42.433  11.965
20526W        W87309  19.533  22.443   1.484
20527W        W87310   8.378  15.311   1.197
20528W        W87311  18.599   8.886   0.727
20529W        W87312  21.168  28.067  14.028
20530W        W87313   3.205  35.154   2.163
20531W        W87314   1.517  19.194   2.705
20532W        W87315  28.270  10.797  13.314
20533W        W87316   3.365  40.790  14.189
20534W        W87317  13.758   0.366  12.082
20535W        W87318  37.915  40.043   0.195
20536W        W87319  27.005  41.934   3.729
20537W        W87320  11.181  18.227  12.575
20538W        W87321  42.364  11.813  14.579
20539W        W87322  20.488   6.169   3.352
20540W        W87323  38.769  40.809  11.885
20541W        W87324  27.560  37.531   2.586
20542W        W87325  25.646  18.476   0.375
20543W        W87326  22.742  13.710   2.805
20544W        W87327   8.283  40.602   4.061
20545W        W87328  28.364  27.382   0.268
20546W        W87329   4.136  30.532   2.181
20547W        W87330  22.588   6.025  10.866
20548W        W87331  16.876  14.164   3.142
20549W        W87332  37.281   5.189   0.682
20550W        W87333  11.891  31.065  13.566
20551W        W87334  40.042   8.773   4.195
20552W        W87335  34.165  13.175  11.422
20553W        W87336  34.882  25.971  14.384
20554W        W87337   5.542  11.218  13.942
20555W        W87338  13.112  18.667  12.112
20556W        W87339  11.343  39.861  11.507
20557W        W87340  12.767   9.284   0.919
20558W        W87341  35.281  19.043   0.673
20559W        W87342   9.319  16.061   4.036
20560W        W87343   5.704  39.361   1.299
20561W        W87344  37.828  17.125   0.979
20562W        W87345   4.412  33.344   2.395
20563W        W87346   8.636  13.123  14.252
20564W        W87347  16.706   1.286  12.397
20565W        W87348   0.167   9.874   2.851
20566W        W87349  42.213  17.849  11.946
20567W        W87350   0.484  32.521  11.967
20568W        W87351  34.447  30.568   4.464
20569W        W87352  30.635   2.997   0.372
20570W        W87353  40.877  41.945   0.718
20571W        W87354  41.744  15.883   1.773
20572W        W87355  17.689  12.574   3.169
20573W        W87356  20.449  12.091  14.409
20574W        W87357   6.552  39.408   4.439
20575W        W87358  13.297  44.560   0.512
20576W        W87359  12.644   2.910   3.193
20577W        W87360  20.179   4.946  12.986
20578W        W87361  34.675  22.675   2.777
20579W        W87362   6.573  16.619   1.717
20580W        W87363  34.485   5.839   1.900
20581W        W87364  10.194  39.796   1.960
20582W        W87365  19.125   9.380   2.662
20583W        W87366  36.974  43.094  10.447
20584W        W87367  40.140  43.811  13.918
20585W        W87368  17.121  12.518  11.085
20586W        W87369  22.178  25.350  10.169
20587W        W87370  18.452  15.049  11.266
20588W        W87371  21.874  15.254   2.868
20589W        W87372   2.004   2.657  13.124
20590W        W87373  40.276  42.356   2.305
20591W        W87374  38.020  38.141  11.394
20592W        W87375  19.061  39.127   1.751
20593W        W87376  29.924   6.591   1.726
20594W        W87377  17.733  37.921  14.447
20595W        W87378  21.089   5.229  12.327
20596W        W87379   5.397  16.228  11.679
20597W        W87380  33.881  15.078  11.131
20598W        W87381  22.548   7.996   4.229
20599W        W87382   1.802   0.162  12.605
20600W        W87383  22.439  13.464  14.528
20601W        W87384   8.221   5.350   2.341
20602W        W87385  14.024  32.442   1.406
20603W        W87386  17.291  15.792  14.487
20604W        W87387  11.670  40.441  12.505
20605W        W87388  28.544  33.446   3.366
20606W        W87389  17.787  39.556  10.029
20607W        W87390  43.232   9.215   0.201
20608W        W87391  30.997  18.542   3.147
20609W        W87392  34.979   9.505  14.642
20610W        W87393  21.157  25.098  10.764
20611W        W87394  15.249  39.016  12.989
20612W        W87395  41.612  28.388  14.067
20613W        W87396  13.319   2.979   2.188
20614W        W87397  29.608  22.926  13.007
20615W        W87398  11.228  10.390   0.833
20616W        W87399  25.999  12.676  14.221
20617W        W87400  16.090   4.784  12.541
20618W        W87401  30.040  10.587  12.359
20619W        W87402  37.067  33.409   4.354
20620W        W87403  10.349  18.225   0.936
20621W        W87404  27.041  36.166   2.487
20622W        W87405  35.355  23.065  12.887
20623W        W87406  40.812  22.777  14.052
20624W        W87407   1.896  15.156  14.936
20625W        W87408  10.698  27.050  10.084
20626W        W87409  31.969  33.851  13.411
20627W        W87410  38.975  33.488  12.300
20628W        W87411   1.966  13.517   3.575
20629W        W87412  15.086   8.407  14.463
20630W        W87413  29.494  24.970  12.329
20631W        W87414   3.335  32.635  14.364
20632W        W87415   7.786  32.114  13.593
20633W        W87416  28.431  21.504   0.963
20634W        W87417   3.490  42.877  12.582
20635W        W87418  26.275  20.772   2.779
20636W        W87419   5.436   4.918   0.425
20637W        W87420  18.174  36.408  14.233
20638W        W87421  15.648  13.268   1.591
20639W        W87422  13.367  26.928  13.756
20640W        W87423  40.227  19.554   1.796
20641W        W87424  26.656  22.179  14.137
20642W        W87425   4.073   9.687  12.442
20643W        W87426  35.110   5.880   4.647
20644W        W87427  30.509  11.264   4.592
20645W        W87428  43.948  12.147   2.193
20646W        W87429   0.351  12.631   4.128
20647W        W87430  22.058   1.456   1.336
20648W        W87431  30.689  30.371  11.171
20649W        W87432  25.402  27.663  11.114
20650W        W87433  22.051   2.437  14.037
20651W        W87434  22.130  26.569  12.970
20652W        W87435  29.612  10.651   2.611
20653W        W87436   1.557   4.628  11.042
20654W        W87437  30.668  36.446   0.085
20655W        W87438  31.837  38.135   1.978
20656W        W87439  40.528   7.354  12.935
20657W        W87440  17.249  40.485  10.657
20658W        W87441  12.966  41.762   9.851
20659W        W87442  33.086   9.538   1.833
20660W        W87443  26.213   8.177   2.202
20661W        W87444  44.373   6.703  11.171
20662W        W87445  40.765  21.778  10.764
20663W        W87446  44.218   9.420  14.564
20664W        W87447  20.070  13.859  13.035
20665W        W87448   8.599  12.281   1.359
20666W        W87449  33.464  12.033  10.144
20667W        W87450  26.840  15.637   5.123
20668W        W87451  11.149  41.937   4.186
20669W        W87452  39.466  21.723   4.667
20670W        W87453  36.777  17.727  11.999
20671W        W87454   9.815  17.582  11.515
20672W        W87455  39.587  39.829  14.824
20673W        W87456  40.503  16.750  12.895
20674W        W87457  13.282  40.721  11.224
20675W        W87458   2.578  12.700  13.983
20676W        W87459  33.851  37.175   4.100
20677W        W87460  40.964   8.542   1.367
20678W        W87461  20.659  30.232   5.091
20679W        W87462  34.538  14.388   1.845
20680W        W87463  44.337  42.487   3.705
20681W        W87464  20.339   8.567   4.338
20682W        W87465  22.216  25.048  11.405
20683W        W87466  44.824   8.205   2.815
20684W        W87467  28.690  21.947   3.213
20685W        W87468  26.808  26.187  11.559
20686W        W87469  38.570  37.106   4.573
20687W        W87470  28.565  31.557   5.001
20688W        W87471  32.730  21.477   3.574
20689W        W87472  19.546   9.270  12.542
20690W        W87473  25.553  14.344  14.334
20691W        W87474  21.730  28.595   0.282
20692W        W87475   0.936   7.623  10.609
20693W        W87476   1.876   7.431  14.773
20694W        W87477  10.040  27.076   3.699
20695W        W87478  16.314   4.474  12.872
20696W        W87479  13.368  39.370  13.931
20697W        W87480   2.303  16.076   3.735
20698W        W87481  10.114   1.904  11.597
20699W        W87482  23.295   8.154   0.844
20700W        W87483   0.329  18.968   2.351
20701W        W87484  32.820  28.591   0.840
20702W        W87485   5.677  41.743   0.572
20703W        W87486   8.285  30.820   2.374
20704W        W87487   0.830  34.443  10.387
20705W        W87488  40.521  16.281  13.441
20706W        W87489   7.018  34.614   2.736
20707W        W87490   7.238   9.165   2.117
20708W        W87491  40.162   0.266   9.948
20709W        W87492   8.497  33.028  12.267
20710W        W87493  12.672   6.970  11.475
20711W        W87494  38.972  40.239   3.301
20712W        W87495  14.553  26.277  11.726
20713W        W87496  38.028   3.345  14.779
20714W        W87497  30.826  31.265  11.067
20715W        W87498  10.526   0.409  14.903
20716W        W87499  26.177  42.125   3.930
20717W        W87500  16.973  44.313   4.530
20718W        W87501  22.073  12.431   4.904
20719W        W87502  17.573  25.936   1.696
20720W        W87503  26.249  20.714  13.008
20721W        W87504  20.151  36.534   1.239
20722W        W87505  18.516   5.720   3.251
20723W        W87506  22.100  18.143  11.997
20724W        W87507  28.524  41.404   2.744
20725W        W87508  20.703   1.214   4.100
20726W        W87509   5.679  28.595   2.883
20727W        W87510   8.770  16.998   1.818
20728W        W87511  26.176  16.699   2.211
20729W        W87512   1.911  22.318   3.473
20730W        W87513  38.594   9.328  13.963
20731W        W87514  35.455  19.328  11.073
20732W        W87515   4.864  14.111   2.839
20733W        W87516  22.427  14.237   0.198
20734W        W87517  19.021  28.504   2.824
20735W        W87518  38.129  10.268   0.818
20736W        W87519  24.001  38.734   2.430
20737W        W87520  36.708   2.289  13.936
20738W        W87521  33.006   6.413  10.464
20739W        W87522  24.290  13.670   1.443
20740W        W87523  25.227   0.401   3.249
20741W        W87524  33.935   0.323  11.702
20742W        W87525  28.169  20.716   1.825
20743W        W87526  43.622  17.598  11.123
20744W        W87527  14.080  11.660  13.908
20745W        W87528  15.167  15.183  14.513
20746W        W87529  35.009  17.667   3.732
20747W        W87530   1.528  16.541   1.437
20748W        W87531  30.621  25.333   1.828
20749W        W87532  39.837   4.672   3.739
20750W        W87533  19.851   2.402   2.696
20751W        W87534  43.686  29.976   2.239
20752W        W87535   7.855  23.263   0.206
20753W        W87536  22.175  44.408  12.854
20754W        W87537  19.299  25.496  11.723
20755W        W87538   4.649  39.131   3.290
20756W        W87539  15.655  14.734   0.741
20757W        W87540  36.305  11.840   0.665
20758W        W87541  22.390  23.632  13.419
20759W        W87542  40.483  10.609  13.413
20760W        W87543  21.547   4.202   0.548
20761W        W87544  28.026   7.735   3.150
20762W        W87545   9.758   3.555   1.843
20763W        W87546   0.194  28.602   0.870
20764W        W87547  10.407  36.831   1.792
20765W        W87548  13.889  41.292  10.775
20766W        W87549  40.663  25.009  14.235
20767W        W87550  38.004  20.349   4.392
20768W        W87551  17.468  11.180  12.667
20769W        W87552  22.284   0.237  13.812
20770W        W87553  26.554  23.982  14.138
20771W        W87554  12.598  25.135  10.670
20772W        W87555   1.480  32.071   1.754
20773W        W87556   4.122  38.152  14.062
20774W        W87557  14.361  35.676  12.030
20775W        W87558  44.396  14.547  10.738
20776W        W87559  43.578  27.902   4.043
20777W        W87560  21.355   7.745  11.558
20778W        W87561  19.192  36.429   2.761
20779W        W87562   0.271  17.506   3.971
20780W        W87563  28.699  32.116   0.168
20781W        W87564  16.175  20.837  13.808
20782W        W87565  28.418  35.486  12.195
20783W        W87566  24.316  20.256  11.953
20784W        W87567  23.856  11.287  10.749
20785W        W87568   4.871  34.500   9.845
20786W        W87569  42.321  35.963   0.601
20787W        W87570  33.128  41.906  14.035
20788W        W87571  30.305  38.427  14.457
20789W        W87572  33.403  38.588   2.479
20790W        W87573  13.773  28.889  11.693
20791W        W87574  35.009  35.885   4.602
20792W        W87575  24.196  19.770   1.739
20793W        W87576  10.470  34.470  12.952
20794W        W87577  11.937   1.699   2.678
20795W        W87578  21.822  21.142  14.832
20796W        W87579  26.187  29.005   1.702
20797W        W87580  14.529   9.222   3.155
20798W        W87581  11.674  20.091   4.394
20799W        W87582   2.916  39.603  13.670
20800W        W87583  16.322  31.523  13.532
20801W        W87584  24.252  44.889  10.730
20802W        W87585  15.306  36.945  12.495
20803W        W87586  18.862  12.294   9.837
20804W        W87587  38.370  20.690  11.245
20805W        W87588  28.381  28.693   1.237
20806W        W87589  19.243  10.968  13.955
20807W        W87590  20.340   1.057  14.099
20808W        W87591  26.135   5.199  12.894
20809W        W87592  41.164  36.354  13.939
20810W        W87593  37.110  23.271  11.119
20811W        W87594  29.986  12.308  10.894
20812W        W87595  27.762  24.811   9.954
20813W        W87596  29.010   0.056  13.456
20814W        W87597  37.473  36.150   1.756
20815W        W87598  44.478   6.314   4.129
20816W        W87599   0.296  37.639   0.850
20817W        W87600  41.468  27.672   3.348
20818W        W87601  19.782   0.362  13.991
20819W        W87602   4.450   4.296  12.077
20820W        W87603   3.978  33.385   0.136
20821W        W87604  33.382   6.385   3.274
20822W        W87605  14.158   4.578  10.666
20823W        W87606  25.691  26.823   1.809
20824W        W87607   7.478  23.043   4.326
20825W        W87608  17.373  13.121  12.354
20826W        W87609  18.245  20.439  13.190
20827W        W87610   4.490   4.029  10.442
20828W        W87611  30.760  36.972  11.940
20829W        W87612   2.318  41.189   1.702
20830W        W87613  26.310  10.839  13.520
20831W        W87614  12.377  44.411  12.665
20832W        W87615  28.178  38.838  14.904
20833W        W87616   7.313  36.666  14.292
20834W        W87617  27.945  29.520   9.802
20835W        W87618  11.633  10.224  14.885
20836W        W87619   7.472  23.582   4.108
20837W        W87620  38.708  13.674  12.481
20838W        W87621  17.284  24.741  11.168
20839W        W87622   7.402   2.264   0.820
20840W        W87623  43.258   0.473   4.288
20841W        W87624  20.175   1.708  13.462
20842W        W87625  22.175  41.859  14.282
20843W        W87626  41.934  41.757   1.707
20844W        W87627  26.862  43.375  12.918
20845W        W87628  30.088  37.459  14.286
20846W        W87629  35.613   1.460   4.185
20847W        W87630   4.973  43.484   4.668
20848W        W87631  36.872  40.577  12.449
20849W        W87632  22.620  43.783  10.749
20850W        W87633  43.377  20.463  13.414
20851W        W87634  13.521  38.868  10.884
20852W        W87635  10.292  33.736  13.982
20853W        W87636  19.608  27.062  13.000
20854W        W87637  44.791  41.567  12.071
20855W        W87638  40.402  29.946   0.653
20856W        W87639  27.462  30.983  10.628
20857W        W87640  42.272  13.820   2.821
20858W        W87641  14.805   1.068  11.562
20859W        W87642   4.116  22.021  11.049
20860W        W87643  16.272   5.917  14.525
20861W        W87644  17.247  37.861  13.401
20862W        W87645  36.996   8.257  11.619
20863W        W87646  12.337  18.201   0.685
20864W        W87647  42.526  24.803  13.137
20865W        W87648   6.332  40.496   3.752
20866W        W87649  18.202   1.990  12.054
20867W        W87650  11.905  23.285   2.369
20868W        W87651   7.194  23.551   1.638
20869W        W87652  37.277  41.713   4.935
20870W        W87653   8.151  39.925   3.249
20871W        W87654  39.377  14.694   4.360
20872W        W87655  34.004  42.500   3.733
20873W        W87656  28.491  37.446  13.022
20874W        W87657  30.165   0.317   4.032
20875W        W87658   3.454   0.923   0.401
20876W        W87659   7.014  17.999   2.705
20877W        W87660  38.933   5.315   2.430
20878W        W87661   9.941  36.807   3.209
20879W        W87662  31.272  42.867  14.480
20880W        W87663  15.719  35.114   0.620
20881W        W87664  28.070  11.918  11.136
20882W        W87665  19.601  28.721   1.322
20883W        W87666  20.079  23.695  13.071
20884W        W87667  28.989  30.933  12.106
20885W        W87668   5.685  38.042  13.985
20886W        W87669  22.600  39.146  12.557
20887W        W87670  38.931  27.881  11.700
20888W        W87671  44.913  14.272  13.285
20889W        W87672  36.265  35.582  11.619
20890W        W87673  36.482  35.321   2.018
20891W        W87674  37.956  18.358  11.378
20892W        W87675   5.460  44.343  12.011
20893W        W87676  14.520  37.400   1.114
20894W        W87677  36.787  19.301   2.701
20895W        W87678  33.570   0.547  14.007
20896W        W87679   6.486  14.254   3.077
20897W        W87680  32.862  16.273  12.394
20898W        W87681  25.133  19.537   5.136
20899W        W87682   0.736  23.589  12.560
20900W        W87683  14.454  24.949  11.917
20901W        W87684  39.801  23.047   1.859
20902W        W87685  33.544   5.165   1.090
20903W        W87686  13.165  33.859   3.338
20904W        W87687  36.410  43.704   3.818
20905W        W87688  10.022  33.030   0.422
20906W        W87689  44.218  25.176  11.390
20907W        W87690  23.222   9.861   1.347
20908W        W87691  17.708  21.889   1.859
20909W        W87692  24.233  35.454  13.534
20910W        W87693  30.610  23.521  13.901
20911W        W87694   9.744   7.149   1.639
20912W        W87695  15.293  38.477   3.643
20913W        W87696  16.341  36.318   1.803
20914W        W87697   2.813   9.182   1.363
20915W        W87698  26.438  20.097   2.121
20916W        W87699   5.543   2.150   0.816
20917W        W87700  39.625  23.091   1.063
20918W        W87701  17.314  28.399   2.264
20919W        W87702  27.138   6.381   3.460
20920W        W87703  13.807   6.626  14.021
20921W        W87704  11.713   7.180  14.980
20922W        W87705   1.801  12.308  10.632
20923W        W87706   0.509  33.378  12.582
20924W        W87707   3.391  37.389   3.412
20925W        W87708   5.288  32.926   0.337
20926W        W87709  31.721  13.223   1.350
20927W        W87710  35.783  16.021  13.434
20928W        W87711   4.198  44.570   1.230
20929W        W87712  21.164  19.191  14.852
20930W        W87713  31.546  38.512  13.738
20931W        W87714   4.632  44.300   1.317
20932W        W87715  31.695  25.982   1.265
20933W        W87716  43.221  22.550  12.113
20934W        W87717  21.622  34.481   1.694
20935W        W87718  28.458  41.106  11.535
20936W        W87719  34.600  20.836  13.136
20937W        W87720  10.029  23.561  14.750
20938W        W87721  32.880  43.972   4.611
20939W        W87722  27.601  34.470   2.873
20940W        W87723   5.838  37.611  13.719
20941W        W87724  17.390  36.942   3.776
20942W        W87725   3.029  19.573   3.118
20943W        W87726  13.024   3.334   1.911
20944W        W87727  35.621  21.306   2.545
20945W        W87728   2.977  10.599  14.469
20946W        W87729  44.199  28.994  13.154
20947W        W87730  29.414  21.957  11.146
20948W        W87731  40.354  26.451  12.438
20949W        W87732  14.912  28.116   0.573
20950W        W87733  32.985  12.226  12.980
20951W        W87734  15.767  41.525  14.322
20952W        W87735   7.064  28.649  14.879
20953W        W87736  15.163   1.492  14.306
20954W        W87737  18.775  19.718   1.765
20955W        W87738  30.563  20.230   2.213
20956W        W87739  41.989   7.795  13.842
20957W        W87740  17.198   0.930  11.965
20958W        W87741  11.694  19.129   2.720
20959W        W87742   3.737  28.255   9.845
20960W        W87743   7.225  14.824   3.354
20961W        W87744   7.242   3.478  11.672
20962W        W87745   7.407  41.012   1.224
20963W        W87746  39.827  31.639  11.842
20964W        W87747  18.998  22.038  13.900
20965W        W87748  34.450   6.989   2.232
20966W        W87749  35.517   1.489   2.122
20967W        W87750  31.177  31.858   3.304
20968W        W87751  20.036   5.409  10.549
20969W        W87752   3.584  35.657   3.353
20970W        W87753  13.272  24.733   2.927
20971W        W87754  22.595  33.993   2.663
20972W        W87755  34.948  10.263   0.425
20973W        W87756  27.672  25.123   0.005
20974W        W87757  35.403   1.434   1.070
20975W        W87758  28.009  28.869  13.455
20976W        W87759  15.734  43.767   4.386
20977W        W87760  31.513  14.528  12.150
20978W        W87761  31.405  38.425  11.470
20979W        W87762   9.316  35.381   3.667
20980W        W87763  13.427  21.580   1.191
20981W        W87764  43.545  28.477  13.467
20982W        W87765  10.423  35.393  14.428
20983W        W87766  16.534  20.108   4.924
20984W        W87767  16.010  18.648   3.620
20985W        W87768  16.759   2.809   0.981
20986W        W87769  25.640   0.459  14.328
20987W        W87770   9.584  21.622   3.269
20988W        W87771  15.743  42.016  14.468
20989W        W87772   7.593  28.669   2.857
20990W        W87773  19.829  13.602   4.772
20991W        W87774  19.306  43.934   1.864
20992W        W87775  38.287  38.868  13.503
20993W        W87776  10.428   9.693  12.548
20994W        W87777   7.330  12.842  13.891
20995W        W87778   8.248  33.436   3.099
20996W        W87779  38.594  41.543  11.625
20997W        W87780   3.888  33.966   1.981
20998W        W87781  41.083   4.870   1.204
20999W        W87782  16.969   6.674   2.811
21000W        W87783  29.966  29.503   4.511
21001W        W87784   1.115  15.096   3.675
21002W        W87785  37.011  13.750  14.184
21003W        W87786  19.596  40.391   1.381
21004W        W87787  26.965  23.511  10.001
21005W        W87788  12.893  28.457   3.238
21006W        W87789  43.041  32.547  13.747
21007W        W87790  17.034  14.665   0.488
21008W        W87791  36.351  24.920   2.528
21009W        W87792  31.902   5.885  13.996
21010W        W87793  22.633  33.797   1.775
21011W        W87794  39.355  11.861   0.333
21012W        W87795  29.504  11.048   3.835
21013W        W87796  39.131  13.187  14.813
21014W        W87797  41.818   2.878  11.266
21015W        W87798  23.712  17.546   3.834
21016W        W87799  19.037  35.453   4.222
21017W        W87800  22.236  35.941   3.902
21018W        W87801   7.670  11.261   3.273
21019W        W87802   7.374  35.818  13.896
21020W        W87803  24.675  43.168   4.662
21021W        W87804  19.233  23.101   4.567
21022W        W87805  26.948  16.222  11.726
21023W        W87806  14.267   2.880   2.295
21024W        W87807  42.777  30.849   1.867
21025W        W87808  20.981  25.654   0.376
21026W        W87809  43.685   6.664  12.984
21027W        W87810   7.111  33.147   4.658
21028W        W87811  17.137  23.149  13.794
21029W        W87812  34.266  29.227  12.111
21030W        W87813   3.443  16.244  10.608
21031W        W87814  38.537  44.818  14.881
21032W        W87815   4.607  35.091  11.167
21033W        W87816  44.598  24.012  10.969
21034W        W87817   7.641  18.270   1.741
21035W        W87818  16.491   7.247   2.276
21036W        W87819  13.586  44.289   5.091
21037W        W87820  17.534   9.297  11.421
21038W        W87821   4.806  28.075   0.891
21039W        W87822  11.634  44.219  13.940
21040W        W87823  28.142  26.108   4.521
21041W        W87824  19.745  41.474  14.205
21042W        W87825  34.787   5.976   2.298
21043W        W87826  41.582   6.758   2.299
21044W        W87827  14.805  38.503   4.151
21045W        W87828   7.024  24.754   0.070
21046W        W87829   2.673  15.195   4.212
21047W        W87830  26.609  30.534  14.429
21048W        W87831   3.612  27.213  13.477
21049W        W87832  12.882   7.837   2.385
21050W        W87833   6.860  30.929   0.900
21051W        W87834  37.481  17.137  12.289
21052W        W87835  25.118  24.007  11.726
21053W        W87836   8.809  27.515   2.235
21054W        W87837  28.211  23.185   2.671
21055W        W87838  40.845  39.491   3.800
21056W        W87839   8.402   0.215   1.478
21057W        W87840  23.791   5.680   1.854
21058W        W87841  19.633  44.054  11.582
21059W        W87842  27.959   4.202   3.960
21060W        W87843  35.782  44.739  10.513
21061W        W87844   7.402   2.164  14.882
21062W        W87845  40.070  29.024  10.689
21063W        W87846   2.701  15.632   4.503
21064W        W87847  19.476  38.579   0.001
21065W        W87848   2.400  38.249   4.570
21066W        W87849  15.332  27.564  11.542
21067W        W87850  38.990  10.942   2.483
21068W        W87851  39.460  18.690   4.335
21069W        W87852  42.463  27.145  13.273
21070W        W87853  23.594  14.136   3.229
21071W        W87854  25.724  24.011   4.170
21072W        W87855  18.636  31.425  13.358
21073W        W87856  34.560   9.650  13.358
21074W        W87857   1.916  18.768   3.125
21075W        W87858  22.052   5.942   2.598
21076W        W87859  10.185  21.257  14.929
21077W        W87860  25.737  15.199  13.119
21078W        W87861   8.177  35.317  12.439
21079W        W87862  43.977   6.112   3.242
21080W        W87863  30.144   3.778   1.728
21081W        W87864  34.885  14.281   4.497
21082W        W87865   1.208  12.387   3.948
21083W        W87866  36.831  43.260   2.771
21084W        W87867  26.207  30.962   3.784
21085W        W87868  16.176  36.116  12.003
21086W        W87869  15.592  15.199  14.956
21087W        W87870  16.771  14.066  12.896
21088W        W87871  33.016  31.005  14.406
21089W        W87872   3.319  30.967  12.647
21090W        W87873  34.952  16.661  12.991
21091W        W87874  27.586   9.886  11.304
21092W        W87875   4.257   1.508   3.861
21093W        W87876  15.358  34.697   0.813
21094W        W87877  42.497  33.026   4.650
21095W        W87878  15.551  40.476  13.809
21096W        W87879  30.413   8.937   1.003
21097W        W87880  12.289  41.036  12.956
21098W        W87881  37.069  19.015  14.162
21099W        W87882   3.217  32.568  11.982
21100W        W87883  17.231  44.305   2.737
21101W        W87884  40.756  15.363  10.331
21102W        W87885   9.460  22.612   2.428
21103W        W87886  41.006  13.170  14.749
21104W        W87887  40.056  43.397   0.390
21105W        W87888  34.895  21.658  13.384
21106W        W87889   9.217  37.336   1.244
21107W        W87890  23.657  34.965  13.161
21108W        W87891  42.996   3.071  13.568
21109W        W87892  21.962  17.698  14.750
21110W        W87893  28.865  16.238  11.208
21111W        W87894  12.208  38.424   4.753
21112W        W87895  13.322  22.424  11.130
21113W        W87896  23.143  32.143   3.663
21114W        W87897  39.998  17.469  11.597
21115W        W87898   2.823  38.590   3.650
21116W        W87899  19.156  13.937   1.588
21117W        W87900   9.855  43.371  13.934
21118W        W87901  19.086  34.486  11.361
21119W        W87902  43.581   1.694   2.785
21120W        W87903   2.393  13.100   2.767
21121W        W87904  17.025  20.962   1.288
21122W        W87905  14.853  14.626   4.908
21123W        W87906  42.694  31.460   0.923
21124W        W87907  43.393  36.657   1.135
21125W        W87908  13.566  36.521  12.439
21126W        W87909  13.604  36.567   1.737
21127W        W87910   4.954   3.613   3.480
21128W        W87911  26.217  44.376  10.207
21129W        W87912  24.104  35.941  12.859
21130W        W87913  26.488  17.226  14.207
21131W        W87914  37.586  20.318   3.655
21132W        W87915   4.318  32.238  12.470
21133W        W87916  35.316  33.490  14.023
21134W        W87917  23.686  21.273  11.815
21135W        W87918  44.233  44.376   5.321
21136W        W87919  10.285  31.834   4.021
21137W        W87920  33.152   9.299   0.474
21138W        W87921  11.200  18.709   1.422
21139W        W87922   6.641  44.800  12.120
21140W        W87923  20.645  35.988  12.391
21141W        W87924   4.282   6.682  13.533
21142W        W87925  27.950  34.050   1.415
21143W        W87926  29.613  12.726  14.364
21144W        W87927  20.137  24.998  13.515
21145W        W87928  17.312  30.673   4.085
21146W        W87929  15.534  24.182   0.016
21147W        W87930   3.685  21.292   4.564
21148W        W87931  13.744  28.581  10.475
21149W        W87932  41.620  29.902   2.689
21150W        W87933  41.960  27.562   4.580
21151W        W87934   4.797  19.141   2.311
21152W        W87935  17.684  39.324  13.539
21153W        W87936   9.905  29.421   2.736
21154W        W87937  25.399  13.378   2.769
21155W        W87938   2.325  19.943   5.065
21156W        W87939  35.917  40.793  11.169
21157W        W87940  39.015   5.266  13.941
21158W        W87941  22.228  41.597  10.870
21159W        W87942  36.937  41.308   1.724
21160W        W87943  18.085  31.695   0.979
21161W        W87944   3.680  11.917  13.278
21162W        W87945  43.648  28.974  10.748
21163W        W87946  35.097  44.388  13.932
21164W        W87947  21.774  21.494  14.449
21165W        W87948  34.819  20.023  12.522
21166W        W87949  42.811   4.672   4.597
21167W        W87950  26.050  34.016   2.273
21168W        W87951  37.954  17.965   1.151
21169W        W87952  10.824  26.556  10.071
21170W        W87953  12.536  39.997  10.172
21171W        W87954  12.232  18.192   1.586
21172W        W87955  27.661   6.221  14.075
21173W        W87956  12.725  43.890  12.802
21174W        W87957  28.378  38.337   3.610
21175W        W87958  40.684  40.438  12.540
21176W        W87959  34.980  14.574  14.682
21177W        W87960  14.217  22.478  14.137
21178W        W87961  13.305  35.138   2.388
21179W        W87962  33.092  25.445   3.721
21180W        W87963  43.231  40.508  11.528
21181W        W87964   2.716   4.173  13.376
21182W        W87965   6.944  16.207  14.909
21183W        W87966  44.036   2.510  11.924
21184W        W87967   5.954  19.518  13.902
21185W        W87968  20.798  33.393  14.381
21186W        W87969  38.966   6.721   4.247
21187W        W87970  18.309  14.618  14.898
21188W        W87971  18.141  42.130  12.039
21189W        W87972  25.647   6.982   2.285
21190W        W87973  21.594  43.497   0.446
21191W        W87974   8.811  32.877   3.660
21192W        W87975  16.333   5.799  11.210
21193W        W87976  41.086  25.630   2.867
21194W        W87977  25.288  28.074  12.011
21195W        W87978   4.882  25.021   2.081
21196W        W87979  41.100  28.247  13.320
21197W        W87980  23.427   0.360   0.123
21198W        W87981   0.902  16.311  11.412
21199W        W87982  24.731  41.514   2.363
21200W        W87983  17.804   5.621  11.447
21201W        W87984  22.436  26.518  14.370
21202W        W87985  44.421   9.553  13.362
21203W        W87986  29.028  29.617  11.301
21204W        W87987  32.416   5.468   0.234
21205W        W87988  34.788  35.409   4.718
21206W        W87989  20.866  35.848   2.420
21207W        W87990   5.240  20.837   0.978
21208W        W87991  13.248  12.298   2.865
21209W        W87992  14.338  23.238   1.076
21210W        W87993  10.778   2.131  13.210
21211W        W87994  11.551   6.342   1.167
21212W        W87995  11.459  15.364   4.080
21213W        W87996   3.198   0.331  11.121
21214W        W87997   9.802  35.951  12.826
21215W        W87998  42.018  39.489   4.604
21216W        W87999   1.345  34.289   0.867
21217W        W88000  28.789  33.093   4.252
21218W        W88001  42.442  30.879   3.234
21219W        W88002   3.734  16.300  11.403
21220W        W88003  37.467   0.446   3.304
21221W        W88004  41.428  40.977  13.255
21222W        W88005   9.242  29.018  11.207
21223W        W88006  16.847  13.040  13.073
21224W        W88007  10.750  44.461  11.674
21225W        W88008  30.528  37.309   2.398
21226W        W88009  28.894   6.755  12.515
21227W        W88010   5.319  42.418  12.008
21228W        W88011  30.914  26.494  13.473
21229W        W88012  43.687  17.316   5.338
21230W        W88013  16.254  29.883  13.886
21231W        W88014   6.947  22.196  12.606
21232W        W88015  15.093  37.246  14.868
21233W        W88016  17.761  31.913  12.048
21234W        W88017   4.888  22.583  14.951
21235W        W88018  43.406   0.791   3.825
21236W        W88019  41.774  35.493  14.516
21237W        W88020  41.530   4.897   4.141
21238W        W88021  24.306  24.197   5.431
21239W        W88022  38.527   5.006   4.730
21240W        W88023  13.645  26.191   1.690
21241W        W88024  25.553  30.119   0.310
21242W        W88025  22.538   6.448   0.284
21243W        W88026  18.551  37.154   1.056
21244W        W88027   6.402  42.367  11.012
21245W        W88028  22.168  10.685  14.421
21246W        W88029   7.690  10.560  13.331
21247W        W88030  37.836  22.004  11.983
21248W        W88031  19.987  38.422  13.523
21249W        W88032  40.159  44.419   0.755
21250W        W88033  30.851  41.833  14.867
21251W        W88034  12.048  36.377  11.126
21252W        W88035  23.762   1.842   4.552
21253W        W88036   8.156  31.427   0.324
21254W        W88037   4.690  22.798   0.406
21255W        W88038   6.172  35.509   3.076
21256W        W88039  42.465  13.495  10.878
21257W        W88040  28.740  29.684   2.747
21258W        W88041  24.726   2.763   3.150
21259W        W88042  36.858   8.356   3.116
21260W        W88043  13.975  20.502   2.796
21261W        W88044  29.981  26.472   0.251
21262W        W88045   5.649  33.386   2.509
21263W        W88046   2.782  10.536  13.601
21264W        W88047   4.667  35.073   4.652
21265W        W88048  12.210  29.064   3.571
21266W        W88049  37.982  42.012   2.297
21267W        W88050  33.774   8.209  11.565
21268W        W88051   3.360  21.055  11.703
21269W        W88052   5.142  31.163  11.506
21270W        W88053  20.845   9.589  12.578
21271W        W88054  24.153  16.358  12.484
21272W        W88055  16.838  30.212  13.759
21273W        W88056   9.057  41.030   2.243
21274W        W88057  13.240  13.236   2.563
21275W        W88058  35.592   9.771   2.974
21276W        W88059  28.951  18.502  11.560
21277W        W88060  36.540  25.567   1.170
21278W        W88061  40.296  39.746   3.737
21279W        W88062  41.022  15.443   4.757
21280W        W88063  13.366  12.735   4.465
21281W        W88064  43.718  24.519   1.904
21282W        W88065  24.862  14.123  13.396
21283W        W88066  26.518  15.087  10.863
21284W        W88067  24.540  31.901   2.424
21285W        W88068  33.907  23.490   0.392
21286W        W88069   7.078   3.849   2.416
21287W        W88070  11.269   0.302   1.246
21288W        W88071  37.180  27.044   2.280
21289W        W88072  43.320  41.534  12.433
21290W        W88073   1.273  17.148   4.527
21291W        W88074  22.483  18.238   2.289
21292W        W88075  24.098  29.318  11.393
21293W        W88076  32.132  17.902   5.237
21294W        W88077  22.764  34.039  10.633
21295W        W88078  27.568  33.394  10.778
21296W        W88079  20.152  34.048   3.676
21297W        W88080  42.846  26.410   2.584
21298W        W88081  42.822  43.744  11.508
21299W        W88082  15.068  27.741  12.864
21300W        W88083   0.075  42.490  12.495
21301W        W88084  20.369   2.705   5.459
21302W        W88085  41.024   2.085   1.466
21303W        W88086   3.044  21.611  12.126
21304W        W88087  31.591  34.909   4.349
21305W        W88088  32.075   9.404   0.462
21306W        W88089  19.006   7.140   0.454
21307W        W88090  27.605  23.281  10.586
21308W        W88091  33.609  33.199   1.176
21309W        W88092   6.243  38.745   2.594
21310W        W88093  13.054  24.185  11.635
21311W        W88094  21.224  27.752   2.284
21312W        W88095   5.434  21.219  13.802
21313W        W88096  12.880  21.984   1.454
21314W        W88097   7.722   5.342  14.457
21315W        W88098  23.497  40.544   1.635
21316W        W88099   2.917  38.546  14.903
21317W        W88100  32.668  26.339   0.024
21318W        W88101  33.828   4.710  14.028
21319W        W88102  19.803  35.840   3.660
21320W        W88103   5.474  41.376   4.360
21321W        W88104   8.335  35.126   0.579
21322W        W88105  24.076  16.486   3.295
21323W        W88106  40.542  37.588   0.909
21324W        W88107  25.979  37.107  13.394
21325W        W88108  15.505  13.707   4.621
21326W        W88109   5.913  20.735  14.993
21327W        W88110  23.597  22.298   0.460
21328W        W88111   0.471  19.782   3.295
21329W        W88112  35.955   8.257  13.911
21330W        W88113  27.636  37.838   3.625
21331W        W88114  28.179  39.345   2.827
21332W        W88115  28.844  19.778   4.060
21333W        W88116  42.813   3.425   1.818
21334W        W88117  20.973  38.085   0.831
21335W        W88118  39.553  11.245  12.087
21336W        W88119   2.220  13.866   0.845
21337W        W88120   0.082   6.845  12.891
21338W        W88121   1.033   7.473  13.052
21339W        W88122  22.490   6.836   1.126
21340W        W88123  21.585  11.273  11.018
21341W        W88124  12.078   8.397  14.920
21342W        W88125  40.558  17.622  12.361
21343W        W88126  42.734   7.656  12.782
21344W        W88127  34.602  23.553   4.623
21345W        W88128  39.932  11.860   4.037
21346W        W88129  35.292  36.583  12.865
21347W        W88130  14.105  33.567   2.848
21348W        W88131  24.297  31.062   3.360
21349W        W88132  21.290  18.262  13.918
21350W        W88133   3.314  39.425   2.207
21351W        W88134  14.144  22.009  11.280
21352W        W88135  23.454  10.790   1.777
21353W        W88136  16.742  11.558   4.051
21354W        W88137  39.330  26.592  12.376
21355W        W88138   7.317  40.414   3.267
21356W        W88139   2.756   5.429   4.231
21357W        W88140   3.939   7.176  11.592
21358W        W88141   5.803  30.114  14.255
21359W        W88142  14.837  26.612   1.363
21360W        W88143  31.584   6.915   3.292
21361W        W88144  37.074  42.877   4.202
21362W        W88145  27.418   7.061   0.490
21363W        W88146  44.984  17.647   2.184
21364W        W88147  38.489  23.689  14.580
21365W        W88148  38.025  34.995   0.891
21366W        W88149   4.810  31.888   3.656
21367W        W88150  15.804  32.961   4.589
21368W        W88151  13.031  32.926  11.064
21369W        W88152  37.604  37.444  13.162
21370W        W88153  37.857  33.093   4.092
21371W        W88154  22.328   0.684  10.209
21372W        W88155   7.253  22.985  14.940
21373W        W88156   9.913  10.591  13.048
21374W        W88157  30.696  10.407  14.428
21375W        W88158  13.565  19.129   4.181
21376W        W88159  19.988  38.784  14.942
21377W        W88160   4.753  34.734   2.914
21378W        W88161  28.500  31.729   0.479
21379W        W88162   2.822  42.274   2.384
21380W        W88163  31.621   7.223   0.763
21381W        W88164  37.105   8.804   3.237
21382W        W88165  23.533  37.382   5.017
21383W        W88166  33.588  15.738  14.744
21384W        W88167   6.956  35.964   0.822
21385W        W88168  13.371  34.790  14.127
21386W        W88169  34.564  42.399   2.787
21387W        W88170   6.635   2.592  13.042
21388W        W88171   0.814  12.174   3.683
21389W        W88172  26.209  28.527  11.828
21390W        W88173  16.611  13.696  10.397
21391W        W88174  24.438  12.115  13.371
21392W        W88175  17.119   7.817  11.670
21393W        W88176  23.253   5.212   3.586
21394W        W88177  11.560  39.722   0.437
21395W        W88178   6.150  33.324   2.290
21396W        W88179  22.682  11.931  10.034
21397W        W88180  15.724  40.746   0.916
21398W        W88181   2.600   7.250  12.092
21399W        W88182   1.217  44.936  12.967
21400W        W88183  12.581  38.906  13.918
21401W        W88184  32.160   7.302   2.551
21402W        W88185  32.868  44.319  12.449
21403W        W88186  18.210  13.208   1.788
21404W        W88187  38.344  36.502  14.445
21405W        W88188  31.590  41.268  13.520
21406W        W88189  36.799   0.754   0.446
21407W        W88190  38.425   1.950   3.588
21408W        W88191  15.039   7.259  11.932
21409W        W88192  36.592   0.315   2.230
21410W        W88193  31.490  44.793   0.776
21411W        W88194  44.261  11.635   3.319
21412W        W88195  27.738  34.496  11.729
21413W        W88196   3.412  14.060  12.849
21414W        W88197   4.980  40.984   3.728
21415W        W88198  26.605   6.301  14.819
21416W        W88199  35.829   9.588   1.164
21417W        W88200   2.383  40.195  12.066
21418W        W88201  20.284  22.818  11.676
21419W        W88202   0.281  27.047  13.412
21420W        W88203  28.882  13.226   3.994
21421W        W88204  13.298  13.622  13.811
21422W        W88205  32.728  37.887  12.647
21423W        W88206  38.806  26.575  12.390
21424W        W88207  31.715  38.849  14.967
21425W        W88208  24.278  42.797   2.875
21426W        W88209  35.032  20.492  12.441
21427W        W88210  11.673   4.458   3.759
21428W        W88211  13.477  18.689   3.943
21429W        W88212  30.582  30.085   2.646
21430W        W88213  11.234  30.642   1.776
21431W        W88214  27.657  35.485  14.928
21432W        W88215  28.805  38.218   2.502
21433W        W88216  13.920   5.479  10.809
21434W        W88217  12.523  17.732  13.876
21435W        W88218  25.482  39.104  12.376
21436W        W88219  20.117  31.778  10.338
21437W        W88220  19.009  38.000  12.522
21438W        W88221  27.102  26.601  13.069
21439W        W88222  32.943  44.091   3.740
21440W        W88223   4.297   9.355   1.318
21441W        W88224  28.971   4.530   4.375
21442W        W88225   9.936  37.445   0.296
21443W        W88226  34.084  38.798   3.761
21444W        W88227  43.880  11.109  11.217
21445W        W88228   7.709  24.192   1.693
21446W        W88229  40.362  25.605   1.683
21447W        W88230  39.500   7.701   2.360
21448W        W88231   3.009  21.196   3.720
21449W        W88232  36.851  39.063  11.470
21450W        W88233  18.286  16.835   4.667
21451W        W88234  40.793  28.423  13.689
21452W        W88235   8.692  31.758  14.527
21453W        W88236  29.943  38.714   3.327
21454W        W88237  20.152  21.581  14.376
21455W        W88238  41.264  21.097   2.772
21456W        W88239  36.955  14.744  14.222
21457W        W88240  13.503  31.683   3.815
21458W        W88241  21.179  14.680   1.713
21459W        W88242  20.760  43.988  10.539
21460W        W88243  17.669  24.976  13.062
21461W        W88244  36.418   8.366   1.295
21462W        W88245  17.169  11.183  13.977
21463W        W88246  25.446  42.593  13.775
21464W        W88247  23.094  21.262   1.915
21465W        W88248  42.311   7.073   3.702
21466W        W88249  19.768  22.529   1.952
21467W        W88250   4.876  43.820  12.216
21468W        W88251  31.691  20.012  10.446
21469W        W88252   9.222  30.623  12.602
21470W        W88253  18.681  28.905  11.566
21471W        W88254  17.478  13.420   2.829
21472W        W88255  32.083  16.086   4.301
21473W        W88256   7.782   9.174   3.019
21474W        W88257  26.622   8.252   1.066
21475W        W88258  14.885   2.907   0.851
21476W        W88259  39.057  39.969  11.418
21477W        W88260   5.220  27.058   3.904
21478W        W88261  26.701  30.425  13.569
21479W        W88262   0.316  13.158  11.010
21480W        W88263   0.853  35.282  14.505
21481W        W88264  21.619  28.673  11.700
21482W        W88265  12.286  39.552   4.113
21483W        W88266  26.483  22.658  11.498
21484W        W88267   5.421   9.732   1.753
21485W        W88268  16.363   4.363  11.143
21486W        W88269  41.209  41.345  12.436
21487W        W88270  17.262  37.983   0.141
21488W        W88271   0.221  19.679   1.865
21489W        W88272  35.535  19.627   1.192
21490W        W88273   5.649  38.454   1.774
21491W        W88274  14.875  21.146  13.959
21492W        W88275  34.507   2.004  13.397
21493W        W88276  37.741   2.325  13.965
21494W        W88277  11.458  37.804  11.015
21495W        W88278   8.354  29.490   2.681
21496W        W88279   7.245  11.328  13.406
21497W        W88280  11.437  44.325   1.204
21498W        W88281  34.943  37.773  12.787
21499W        W88282  22.214  35.382   2.151
21500W        W88283   6.434   0.278   4.580
21501W        W88284  16.754   9.848  10.784
21502W        W88285  15.228   4.034   4.560
21503W        W88286  24.049  24.265   0.302
21504W        W88287   2.892  44.448   3.074
21505W        W88288   7.712  43.338   3.595
21506W        W88289   8.305  26.425  12.354
21507W        W88290   0.380  27.695   2.105
21508W        W88291   3.210  32.901  12.975
21509W        W88292  38.231  44.862   3.764
21510W        W88293  14.309   0.227   4.011
21511W        W88294  10.281  17.972   2.433
21512W        W88295  22.216   1.876   9.837
21513W        W88296  34.433  23.703   0.445
21514W        W88297  22.498  42.275  14.384
21515W        W88298  26.339   8.151   0.227
21516W        W88299  24.070   3.956  11.349
21517W        W88300  34.840   8.694  13.997
21518W        W88301   5.972  22.831   0.377
21519W        W88302  33.874  16.097   4.067
21520W        W88303   7.198  35.672  11.100
21521W        W88304   8.209   9.228   5.404
21522W        W88305  36.990  40.226   1.752
21523W        W88306  11.442   7.422  13.907
21524W        W88307  13.292  29.146  12.845
21525W        W88308  31.984  36.943  10.632
21526W        W88309  13.744  33.356  11.396
21527W        W88310  26.978   7.843  14.051
21528W        W88311  34.250   7.257  14.698
21529W        W88312  25.631   6.605   1.938
21530W        W88313   7.186   5.007   2.775
21531W        W88314  30.010  34.129   1.927
21532W        W88315  33.060   8.382   0.432
21533W        W88316   2.745   1.732   3.659
21534W        W88317  41.402  31.376  13.963
21535W        W88318  15.312  43.938  13.603
21536W        W88319  22.868  19.509  14.887
21537W        W88320  27.935  26.923   2.741
21538W        W88321  28.069  33.970   0.524
21539W        W88322  19.545   1.994  14.928
21540W        W88323  18.043   0.389   1.870
21541W        W88324  44.282   9.929   3.324
21542W        W88325  39.560  18.737   4.868
21543W        W88326   8.587  27.654  14.005
21544W        W88327  12.370  33.872   1.971
21545W        W88328   4.334   7.984   4.058
21546W        W88329  22.738  26.534  12.313
21547W        W88330   8.247  23.595  12.379
21548W        W88331   2.547   1.995   4.113
21549W        W88332  29.562  28.133   0.999
21550W        W88333  10.866  26.217  11.111
21551W        W88334  34.068  37.984  12.619
21552W        W88335  12.713  17.170   2.402
21553W        W88336  44.819  29.691  11.087
21554W        W88337   6.243  36.244  10.531
21555W        W88338   5.206  19.021  13.994
21556W        W88339   9.177  30.809   4.146
21557W        W88340  40.496  27.694  12.917
21558W        W88341  28.641  30.577  13.845
21559W        W88342   1.163  25.103  13.537
21560W        W88343  37.941  42.043   3.710
21561W        W88344  24.070  40.461   4.231
21562W        W88345  39.043  20.276  13.030
21563W        W88346  24.835  16.429   0.832
21564W        W88347   6.383  30.132   0.578
21565W        W88348  10.144  14.142   0.242
21566W        W88349  17.398  43.813   0.477
21567W        W88350  13.860  35.830  12.120
21568W        W88351  43.511  27.357   1.626
21569W        W88352  40.288  22.723   3.074
21570W        W88353  43.538  11.838  11.207
21571W        W88354   1.854  15.157   0.875
21572W        W88355  35.976  17.107   2.482
21573W        W88356   1.719   4.127  11.131
21574W        W88357  13.910  42.516   4.242
21575W        W88358  22.730  39.583  11.993
21576W        W88359  33.560   0.479   3.897
21577W        W88360  15.247  11.088  13.871
21578W        W88361  28.406   6.196  13.017
21579W        W88362  10.053  33.116  14.444
21580W        W88363  32.595   5.888   1.122
21581W        W88364  29.409  19.735  13.029
21582W        W88365  44.829  33.129   0.524
21583W        W88366  38.105  21.447  13.448
21584W        W88367  16.521  23.264  11.843
21585W        W88368  29.453  35.181   3.715
21586W        W88369  40.825  14.496  11.362
21587W        W88370  33.789   9.937  11.503
21588W        W88371   2.727   8.010   3.377
21589W        W88372  29.325   1.419   4.679
21590W        W88373   3.897  26.065   4.188
21591W        W88374   9.136   0.599  14.891
21592W        W88375  15.745  24.033  11.139
21593W        W88376  20.640   2.760   2.360
21594W        W88377  23.636  38.855   0.781
21595W        W88378  38.510  15.409  14.902
21596W        W88379   9.625  34.817  10.555
21597W        W88380  15.763  20.688   4.401
21598W        W88381  44.080  22.742   0.380
21599W        W88382  13.331  11.216  12.441
21600W        W88383  30.565  36.820  14.711
21601W        W88384  36.474  24.528  10.957
21602W        W88385  24.003  32.063   4.234
21603W        W88386  29.498  16.353   0.424
21604W        W88387  34.503   7.621  14.406
21605W        W88388  18.234  29.685  14.451
21606W        W88389  44.228  20.570   0.075
21607W        W88390  26.435  40.322  14.506
21608W        W88391   4.945  16.569  13.526
21609W        W88392  42.347  33.922   1.891
21610W        W88393   2.928  37.566   2.219
21611W        W88394   5.390   7.220   0.476
21612W        W88395  41.121  38.334  12.107
21613W        W88396  24.364   8.789  12.068
21614W        W88397  44.895  38.139  14.977
21615W        W88398  22.612  15.225   1.423
21616W        W88399  29.440   8.176   2.262
21617W        W88400  28.551  11.770   2.401
21618W        W88401  25.751  27.383  12.098
21619W        W88402  35.573  36.952   0.700
21620W        W88403   4.974  33.408   0.396
21621W        W88404  42.813  33.676  14.502
21622W        W88405  11.333  13.761  14.736
21623W        W88406   1.833  33.413  14.579
21624W        W88407   2.397  43.576  10.608
21625W        W88408  38.992  24.281  14.969
21626W        W88409  21.830  29.979   0.344
21627W        W88410   8.791  43.682   3.125
21628W        W88411  34.630  32.079   0.732
21629W        W88412  13.074  25.130   2.648
21630W        W88413  13.713   6.814  10.656
21631W        W88414  24.353  42.055   2.417
21632W        W88415  39.071   7.695   1.293
21633W        W88416   0.015   7.201   5.009
21634W        W88417  17.594  24.950   3.947
21635W        W88418  25.569  34.788   0.016
21636W        W88419  40.724  43.075  13.934
21637W        W88420  42.549   4.784   4.154
21638W        W88421  19.021  37.388  14.415
21639W        W88422   8.244  10.209   3.902
21640W        W88423  15.979  35.983   4.453
21641W        W88424  13.706  34.675   3.198
21642W        W88425  14.913   0.885  10.883
21643W        W88426  35.959  42.930  11.716
21644W        W88427  19.976  21.018   1.776
21645W        W88428  21.261  30.911  13.812
21646W        W88429  35.569  22.746   3.087
21647W        W88430   4.816   8.608  11.112
21648W        W88431   4.164  43.068   4.831
21649W        W88432  30.611  12.210  14.732
21650W        W88433  36.455  41.505   4.116
21651W        W88434   3.660  10.747   2.045
21652W        W88435  31.939  35.364   2.163
21653W        W88436  30.898  10.082  14.823
21654W        W88437  30.978  23.241  12.998
21655W        W88438   3.268  17.438   0.251
21656W        W88439  19.132  15.234   3.651
21657W        W88440  38.091  42.786   1.651
21658W        W88441  19.591  41.111  11.546
21659W        W88442   7.742  16.310  13.006
21660W        W88443  35.955  33.134  14.726
21661W        W88444  12.139   0.309   2.899
21662W        W88445  16.328  32.582   1.718
21663W        W88446  10.797  42.398   2.295
21664W        W88447  11.909  27.386   0.308
21665W        W88448  29.972  14.739  12.828
21666W        W88449  21.105   8.143  13.859
21667W        W88450  12.076  33.949  14.372
21668W        W88451  14.457   1.031   5.004
21669W        W88452   9.450  35.472  10.674
21670W        W88453  10.074   5.257  13.565
21671W        W88454   1.807   7.752  13.931
21672W        W88455   6.811   7.150  13.801
21673W        W88456  32.992  18.642   1.802
21674W        W88457  20.847  32.196   2.610
21675W        W88458  20.194   5.618  14.454
21676W        W88459  37.625  14.766   4.974
21677W        W88460  14.206  28.139  14.600
21678W        W88461   9.188  40.530   3.207
21679W        W88462  16.544  34.787  13.577
21680W        W88463  24.686  11.608  12.337
21681W        W88464  23.512  43.272  12.611
21682W        W88465  40.323  37.839   3.747
21683W        W88466   0.425  40.821   1.631
21684W        W88467  22.819  44.101  11.617
21685W        W88468  29.712  14.750  10.700
21686W        W88469  15.779  17.094  12.457
21687W        W88470   6.957  28.730   3.334
21688W        W88471   4.263   2.796  14.561
21689W        W88472   2.365  25.881  13.981
21690W        W88473  11.833  26.615   2.762
21691W        W88474  35.855  15.029  11.984
21692W        W88475   6.744  24.903  10.729
21693W        W88476  17.616   7.888   1.780
21694W        W88477  19.783  34.239  13.604
21695W        W88478  13.290  43.164  12.454
21696W        W88479  28.094   5.959  11.132
21697W        W88480   8.144  38.073  12.004
21698W        W88481  40.259  13.536   3.806
21699W        W88482  35.600   6.707  11.630
21700W        W88483  40.128   4.353   2.716
21701W        W88484  36.620  18.671   0.997
21702W        W88485  43.193  19.759   0.524
21703W        W88486  40.932  14.724  14.973
21704W        W88487  42.842  37.871  14.760
21705W        W88488  18.401  20.954   5.281
21706W        W88489   6.335  28.726  11.160
21707W        W88490  14.128  15.093  13.475
21708W        W88491  27.675  10.093  14.738
21709W        W88492  36.159   2.435   3.735
21710W        W88493  32.807  43.942  13.467
21711W        W88494  21.257  31.175   4.906
21712W        W88495   2.143  28.488  12.296
21713W        W88496   1.159   7.124  14.977
21714W        W88497  37.644  27.756   4.205
21715W        W88498   6.513  27.343   4.007
21716W        W88499  13.360  14.783   3.747
21717W        W88500  24.110  39.346   1.258
21718W        W88501   7.850  44.999   0.730
21719W        W88502  38.797   2.859   1.460
21720W        W88503  17.582  28.543  11.984
21721W        W88504  33.462  20.909  12.213
21722W        W88505  19.263  27.203  14.314
21723W        W88506   6.618  27.110   1.771
21724W        W88507  20.316   0.494  10.693
21725W        W88508  38.545  12.754  10.645
21726W        W88509   4.418  16.334   1.778
21727W        W88510  44.797  24.176  13.872
21728W        W88511  23.045  27.988  13.328
21729W        W88512  34.948   1.150  12.496
21730W        W88513  23.684  36.347  10.715
21731W        W88514   1.807   6.685  11.194
21732W        W88515  22.111  42.930   0.516
21733W        W88516  42.441  14.118   0.226
21734W        W88517   7.375  21.679  14.395
21735W        W88518  24.948  38.018   3.231
21736W        W88519   3.038  44.379  13.948
21737W        W88520  27.278  28.069  11.998
21738W        W88521  15.837  13.812   0.814
21739W        W88522  19.431  36.477  11.538
21740W        W88523  40.531  27.864   0.828
21741W        W88524  11.270  41.885   3.677
21742W        W88525  41.201  21.538  13.780
21743W        W88526  36.271  29.219  13.025
21744W        W88527  22.612  14.699  11.438
21745W        W88528  32.078   5.485   2.233
21746W        W88529  32.988   7.337   1.408
21747W        W88530  33.198  17.406   3.162
21748W        W88531   6.763  18.724   3.419
21749W        W88532  26.683   5.939  13.903
21750W        W88533  38.674   4.423  14.720
21751W        W88534   1.751  37.439  13.979
21752W        W88535  26.697  44.903   4.225
21753W        W88536  34.623   4.297  13.273
21754W        W88537   9.358  27.434   2.200
21755W        W88538  42.269  37.079   1.232
21756W        W88539  29.507  11.368  14.720
21757W        W88540  10.897  15.258  12.126
21758W        W88541  11.181  25.575   3.612
21759W        W88542  26.862   6.437  10.735
21760W        W88543  25.141  39.983   0.941
21761W        W88544  30.018   0.015   0.322
21762W        W88545   1.205  43.518   4.985
21763W        W88546   7.361  37.890   4.222
21764W        W88547  28.421  39.385  13.774
21765W        W88548  27.443  16.104  11.854
21766W        W88549  39.500  35.525  14.939
21767W        W88550  40.502  15.913  11.278
21768W        W88551  11.852   8.929  14.288
21769W        W88552  22.772  30.633  12.939
21770W        W88553   7.263   5.923  12.851
21771W        W88554  15.311  34.517   1.684
21772W        W88555  35.350  13.856   4.179
21773W        W88556  26.144  18.740   0.407
21774W        W88557  39.128  15.604  10.241
21775W        W88558   4.721  40.705  13.851
21776W        W88559  12.464  34.969  13.785
21777W        W88560  40.336  23.247  14.878
21778W        W88561  29.539  14.911   4.520
21779W        W88562  29.450  38.359   4.415
21780W        W88563  32.903  35.355   0.473
21781W        W88564  41.954   6.484   1.589
21782W        W88565  25.696   9.501  12.082
21783W        W88566  26.063  44.048  11.151
21784W        W88567  24.728  26.473   3.251
21785W        W88568  33.792  18.639   1.298
21786W        W88569  12.794  14.845   2.876
21787W        W88570  16.730   9.345   1.800
21788W        W88571   0.645  19.085  11.337
21789W        W88572   4.184  25.579  14.225
21790W        W88573   2.027   0.839  11.501
21791W        W88574  10.739  20.206   3.282
21792W        W88575   4.415  26.378  13.788
21793W        W88576  42.725  28.050   2.249
21794W        W88577  30.437   9.246  12.107
21795W        W88578  39.075   4.822   2.308
21796W        W88579   4.399  39.561   2.290
21797W        W88580   5.635  29.909  10.634
21798W        W88581  20.275  32.188  11.265
21799W        W88582   4.983   3.847   3.960
21800W        W88583  31.824  19.125   0.951
21801W        W88584  27.889   2.749  13.148
21802W        W88585  14.135  24.047   2.290
21803W        W88586   0.826  26.408  14.421
21804W        W88587  18.066  37.070   4.716
21805W        W88588  15.828  16.669  11.853
21806W        W88589  33.407  34.924  10.728
21807W        W88590  39.740  43.468  13.108
21808W        W88591  20.468  23.109  13.957
21809W        W88592  11.729  26.241  11.479
21810W        W88593   2.022  44.975  10.665
21811W        W88594  33.071  17.524  14.591
21812W        W88595  24.731   0.981   0.984
21813W        W88596  22.967  16.174  10.852
21814W        W88597  43.405   3.232   3.595
21815W        W88598  24.823  22.780  11.750
21816W        W88599  22.492  13.037  10.530
21817W        W88600   0.527  36.603   3.393
21818W        W88601  30.851  24.083  12.106
21819W        W88602  12.525   3.950  12.518
21820W        W88603   7.512   8.433   3.831
21821W        W88604  33.951  35.944   0.704
21822W        W88605  29.582   1.767  13.282
21823W        W88606   2.272  36.594  14.126
21824W        W88607   6.440  36.027   0.852
21825W        W88608  25.899  43.391   1.299
21826W        W88609  41.052  12.778   0.393
21827W        W88610  39.349  21.058  14.426
21828W        W88611  14.583  23.012   2.558
21829W        W88612   9.655   1.389   0.820
21830W        W88613  41.001   9.570   1.387
21831W        W88614   7.812   1.390  11.253
21832W        W88615  35.575  42.009  11.971
21833W        W88616  16.486  13.213   2.839
21834W        W88617  22.686  18.763   4.045
21835W        W88618  14.225  31.176   0.820
21836W        W88619  17.278   0.876   3.721
21837W        W88620  12.625  34.029  14.200
21838W        W88621   1.939  20.232  11.708
21839W        W88622   1.498   3.828   0.797
21840W        W88623  40.884  16.290  14.954
21841W        W88624  23.841  44.517  10.054
21842W        W88625   8.382   0.559  13.905
21843W        W88626   3.046  30.172   4.069
21844W        W88627  12.378  32.882  14.034
21845W        W88628  34.602  41.162  14.875
21846W        W88629  14.772  40.028   1.696
21847W        W88630  27.948  13.489  11.063
21848W        W88631   8.221   1.382  14.442
21849W        W88632  40.694  17.470  11.904
21850W        W88633  20.036   5.420   0.499
21851W        W88634  41.718  35.836  12.023
21852W        W88635   3.461  18.143   2.795
21853W        W88636  14.673  37.094  11.711
21854W        W88637  12.719  21.232   2.909
21855W        W88638   1.457  30.164   3.613
21856W        W88639  18.751  16.163   4.085
21857W        W88640   6.904   8.408   1.534
21858W        W88641  14.241   5.080  10.749
21859W        W88642  34.088  10.796  10.066
21860W        W88643  44.584  22.704   0.432
21861W        W88644  30.084  20.619   0.882
21862W        W88645  44.951   7.661   1.315
21863W        W88646   2.784  38.821   1.782
21864W        W88647  42.510  39.557   1.224
21865W        W88648  29.434  19.726   2.465
21866W        W88649   5.328  19.879  13.207
21867W        W88650  33.358  16.261   3.640
21868W        W88651  13.455  10.200  14.992
21869W        W88652  33.089   7.161  13.275
21870W        W88653  33.351  17.766  13.258
21871W        W88654   8.682  27.273   3.958
21872W        W88655  13.916   4.008  11.466
21873W        W88656  11.943  20.971   3.240
21874W        W88657  39.398   7.355  11.558
21875W        W88658  43.374   1.021   3.362
21876W        W88659  44.017  32.083  11.239
21877W        W88660  15.537  14.699   1.258
21878W        W88661  28.483  33.763   3.784
21879W        W88662  21.728  42.793   0.811
21880W        W88663  22.798  19.087   4.729
21881W        W88664  23.664   2.392   1.785
21882W        W88665  21.319  35.883  11.572
21883W        W88666  36.846  21.662  12.931
21884W        W88667  36.929  41.807  11.175
21885W        W88668   9.824  32.630   0.745
21886W        W88669  22.204  19.464  11.471
21887W        W88670   9.818  35.029   2.986
21888W        W88671  32.979  22.584  14.900
21889W        W88672  35.960  43.926   3.666
21890W        W88673   2.268  41.416  14.834
21891W        W88674  16.344  16.295   3.311
21892W        W88675  28.199  14.916   3.538
21893W        W88676  23.513  18.507  14.166
21894W        W88677  24.256  37.638  12.219
21895W        W88678  22.383  21.619   3.071
21896W        W88679   5.027  41.805  12.636
21897W        W88680  37.271   7.454  13.968
21898W        W88681  29.386  13.769  12.669
21899W        W88682   8.202  36.529   1.318
21900W        W88683  36.967  17.589  14.739
21901W        W88684  24.088   4.706  13.012
21902W        W88685  27.609   1.175   3.623
21903W        W88686   9.111  36.214   1.402
21904W        W88687   3.995  11.341  13.947
21905W        W88688  39.566  44.484  13.406
21906W        W88689  16.006  27.036  12.606
21907W        W88690  34.714  30.845  12.418
21908W        W88691  29.558   6.904   4.399
21909W        W88692  36.578  30.081   0.716
21910W        W88693   3.895   2.452  13.839
21911W        W88694  26.404  40.819  12.452
21912W        W88695  34.641  18.869  12.912
21913W        W88696  32.081   1.448  11.611
21914W        W88697  36.357  36.415  12.959
21915W        W88698  14.316  15.181   3.890
21916W        W88699  13.288  27.484   1.465
21917W        W88700   4.632   2.174  13.349
21918W        W88701  32.380  44.776   3.715
21919W        W88702  11.200  15.186  12.679
21920W        W88703   4.885  38.009  14.390
21921W        W88704  16.725  31.437  12.824
21922W        W88705  34.985  28.147  14.509
21923W        W88706  14.645  37.999  12.911
21924W        W88707  35.444  25.064   4.099
21925W        W88708  37.826  12.607   0.922
21926W        W88709  26.129  41.972  13.452
21927W        W88710  13.935   4.079  10.636
21928W        W88711  29.924   8.388   3.730
21929W        W88712  18.659  12.860   2.851
21930W        W88713  13.165  36.009  10.616
21931W        W88714  43.220  16.483   4.165
21932W        W88715  12.413  38.243   1.840
21933W        W88716  20.927  28.890  13.107
21934W        W88717  24.445  21.154   3.263
21935W        W88718  41.984  33.441  12.374
21936W        W88719  20.346  28.757   1.007
21937W        W88720  18.130  22.734   0.061
21938W        W88721  16.070   0.618  11.523
21939W        W88722   1.591  31.849  12.549
21940W        W88723  37.834   6.809  13.465
21941W        W88724  22.698  16.581  11.634
21942W        W88725  12.736  27.451  14.292
21943W        W88726   3.114  38.224  11.288
21944W        W88727   1.684  20.830  11.126
21945W        W88728   3.725  31.579   1.938
21946W        W88729  18.029  12.158   3.166
21947W        W88730  13.628  41.340   3.717
21948W        W88731  31.139   7.965  14.324
21949W        W88732  17.677   1.861  11.460
21950W        W88733  20.968  32.373   0.741
21951W        W88734  33.520   7.690  10.657
21952W        W88735  19.146  32.400   0.869
21953W        W88736  30.405  11.229  10.852
21954W        W88737  38.498  19.235   0.755
21955W        W88738  44.651   1.224  11.689
21956W        W88739  27.113   9.131  12.047
21957W        W88740  19.097  40.398  13.433
21958W        W88741  20.267  15.863   4.058
21959W        W88742  31.410   4.435   1.794
21960W        W88743   1.719  14.037   4.213
21961W        W88744  37.556  28.041  13.310
21962W        W88745  41.712   7.727  12.890
21963W        W88746   6.852  26.334  12.971
21964W        W88747  36.444  19.691   3.357
21965W        W88748  18.508  41.039  13.916
21966W        W88749  17.511  42.686   5.223
21967W        W88750  29.194  41.263   1.516
21968W        W88751   9.437  26.316   1.776
21969W        W88752  39.857   9.698  14.564
21970W        W88753  17.697   8.552   4.983
21971W        W88754  11.054  39.117  12.195
21972W        W88755  24.175  43.450  14.990
21973W        W88756   9.222  11.239   3.949
21974W        W88757  29.092  42.749  10.403
21975W        W88758   5.152   5.143   2.156
21976W        W88759  29.169  40.600  12.530
21977W        W88760  34.749  26.229  13.941
21978W        W88761   6.051  26.231  11.401
21979W        W88762   0.469   5.764   2.844
21980W        W88763  28.237  23.103  13.550
21981W        W88764  19.541   2.798  10.254
21982W        W88765  18.213  30.012   0.713
21983W        W88766   0.970  36.437   3.618
21984W        W88767  11.421  11.885   4.603
21985W        W88768  24.567  12.632  10.619
21986W        W88769  39.445  36.366  11.569
21987W        W88770  10.272  15.149   1.663
21988W        W88771  12.322  23.321   2.670
21989W        W88772  37.387  20.145   1.730
21990W        W88773  34.527  11.387  14.238
21991W        W88774  29.007  33.817  12.588
21992W        W88775  33.594  37.909  12.311
21993W        W88776   8.217  29.248  12.108
21994W        W88777  10.248   4.209   4.748
21995W        W88778  21.569  17.391   1.195
21996W        W88779   1.525   8.570  10.289
21997W        W88780  27.067  42.966   2.230
21998W        W88781  27.692  28.803  13.861
21999W        W88782  18.244  17.822   0.841
22000W        W88783  22.812  12.898  11.479
22001W        W88784  20.471  18.071   3.263
22002W        W88785  10.822  39.530  14.039
22003W        W88786  22.025  24.192   2.709
22004W        W88787  17.691  19.780   2.447
22005W        W88788  19.165  11.206   2.928
22006W        W88789  27.775  22.956   0.856
22007W        W88790  17.106  25.172   1.771
22008W        W88791  27.017  17.381   1.704
22009W        W88792  43.586  18.914  13.393
22010W        W88793  36.190  25.336  13.952
22011W        W88794  44.567  23.078   3.571
22012W        W88795  31.109   6.261   4.527
22013W        W88796  25.295  34.921   2.872
22014W        W88797   5.748  31.839  10.686
22015W        W88798  32.085  37.350   5.119
22016W        W88799  36.819  10.801   3.295
22017W        W88800   9.755  36.497  11.508
22018W        W88801  42.130   8.186   2.677
22019W        W88802  17.746  29.966  11.622
22020W        W88803   6.815   0.418   3.120
22021W        W88804  40.580  35.839  11.169
22022W        W88805  22.947  27.455  10.973
22023W        W88806  22.202   6.259  12.322
22024W        W88807   8.358  22.734   1.107
22025W        W88808   7.751  20.748   0.444
22026W        W88809  17.199  29.442   3.624
22027W        W88810  41.489   0.294   3.618
22028W        W88811  33.016  30.451  11.604
22029W        W88812  12.260  33.430   3.709
22030W        W88813   3.312  24.566  13.407
22031W        W88814  11.736  17.822  12.090
22032W        W88815   2.350  35.485  11.553
22033W        W88816  42.909  15.420   4.782
22034W        W88817  13.359  23.550   4.512
22035W        W88818  19.481  30.574   4.038
22036W        W88819   6.890   4.770   3.906
22037W        W88820  22.018  24.603  13.458
22038W        W88821  29.095  30.136  12.676
22039W        W88822   4.734  37.469  14.716
22040W        W88823  30.441  19.273  12.599
22041W        W88824   7.754  41.063  12.480
22042W        W88825   1.503  36.084  14.052
22043W        W88826  26.960  29.042  10.645
22044W        W88827  16.100  35.520   4.685
22045W        W88828   1.520  18.250   2.891
22046W        W88829  17.293  12.100  11.531
22047W        W88830  19.119  16.986  11.715
22048W        W88831  13.585   2.178  12.327
22049W        W88832   9.896  22.633  12.972
22050W        W88833  36.573  43.416  10.582
22051W        W88834  31.642  12.774  10.727
22052W        W88835  24.306  16.731   1.239
22053W        W88836   1.937  41.290   3.816
22054W        W88837  21.632  35.614   4.228
22055W        W88838  31.493  14.093  10.907
22056W        W88839  27.187  25.428  11.527
22057W        W88840  25.715  21.796  12.897
22058W        W88841  38.574   4.710  12.958
22059W        W88842  37.561  38.705   1.797
22060W        W88843  38.905   1.650   1.883
22061W        W88844  25.626  28.765   1.667
22062W        W88845   0.568  11.214  13.521
22063W        W88846  41.343   1.279   4.497
22064W        W88847   6.404  21.031  10.351
22065W        W88848  32.576   3.816   1.813
22066W        W88849   2.693  23.184   4.839
22067W        W88850  37.884  26.635   0.744
22068W        W88851   4.046  41.239   3.676
22069W        W88852  25.011   9.269  11.363
22070W        W88853   0.449  18.094  11.156
22071W        W88854  19.162   1.896  11.239
22072W        W88855   1.939  32.149  10.852
22073W        W88856  37.406  22.333   3.740
22074W        W88857  44.109  34.762  13.446
22075W        W88858  17.038  34.606  12.585
22076W        W88859   5.867   4.529   0.856
22077W        W88860   4.469  23.989   0.863
22078W        W88861   1.393   3.232  14.725
22079W        W88862  40.868  20.782  14.215
22080W        W88863  10.752  25.274   0.337
22081W        W88864  17.139  15.326   2.164
22082W        W88865  32.506  29.040   3.689
22083W        W88866  27.269  14.539   4.972
22084W        W88867  30.159  22.565   4.204
22085W        W88868  30.811  32.526  11.285
22086W        W88869  26.001   3.463  10.658
22087W        W88870  39.988  44.381   4.484
22088W        W88871  27.220  38.574   3.667
22089W        W88872  39.526   5.750  13.820
22090W        W88873  37.476  24.535  13.331
22091W        W88874   6.287  31.157  14.482
22092W        W88875   7.950  16.844  12.042
22093W        W88876  23.728  30.325  14.369
22094W        W88877  44.502   3.477  10.642
22095W        W88878  27.815  13.820   0.287
22096W        W88879  17.018   1.890  14.401
22097W        W88880  35.728  18.072  13.928
22098W        W88881   2.492  17.256   9.970
22099W        W88882  36.490  14.796  14.446
22100W        W88883  10.818  44.575   3.385
22101W        W88884  15.766  39.896  13.161
22102W        W88885  27.450  11.358  14.377
22103W        W88886  37.845   7.020  12.073
22104W        W88887  10.371  22.443   4.129
22105W        W88888   8.492   6.706   1.367
22106W        W88889  18.919  31.900   1.755
22107W        W88890  31.433   6.376   1.222
22108W        W88891   0.475  26.700  12.082
22109W        W88892   9.231  39.474  12.167
22110W        W88893  31.093   7.360   2.819
22111W        W88894  27.251   1.320  13.911
22112W        W88895  20.576  18.464  14.959
22113W        W88896  34.379   0.227  10.807
22114W        W88897  10.370  35.139   3.603
22115W        W88898   7.359  22.941  12.138
22116W        W88899  23.467   5.996  11.327
22117W        W88900  29.328  40.125   0.913
22118W        W88901  17.714  36.706   1.953
22119W        W88902  28.619  43.396   1.721
22120W        W88903  38.242  33.432  14.802
22121W        W88904  21.149  19.097   4.475
22122W        W88905  17.051  41.411   3.362
22123W        W88906  17.395  36.041   1.778
22124W        W88907  15.927  27.116  13.394
22125W        W88908  12.292  38.088   0.933
22126W        W88909  37.496  13.319   3.256
22127W        W88910  29.738   0.889  11.543
22128W        W88911  10.334   4.742   2.908
22129W        W88912  42.266  10.192   4.241
22130W        W88913   1.366  18.534   4.682
22131W        W88914  28.299   7.717   1.167
22132W        W88915  40.419   3.293   5.285
22133W        W88916  38.070  36.272  11.050
22134W        W88917   1.675  32.967  13.757
22135W        W88918  42.823  35.758  13.780
22136W        W88919  19.233   3.714   1.924
22137W        W88920   3.478  16.715   3.174
22138W        W88921   6.384  27.546   1.859
22139W        W88922  41.982  23.702  13.936
22140W        W88923  15.708  18.736   3.187
22141W        W88924  35.594  22.236  12.021
22142W        W88925  25.518  37.503   5.045
22143W        W88926  22.425  35.659   1.741
22144W        W88927  24.223  40.324  14.531
22145W        W88928  25.998  22.659   3.729
22146W        W88929  11.591  17.902  13.806
22147W        W88930  38.560  44.787  10.923
22148W        W88931  16.403  39.825  14.405
22149W        W88932   2.178  33.086  11.219
22150W        W88933   2.904  31.676  10.792
22151W        W88934  41.803  33.552   1.328
22152W        W88935   5.836  42.639   0.894
22153W        W88936  30.889  41.971  12.130
22154W        W88937  12.990  44.806  11.584
22155W        W88938  26.442  38.855  13.534
22156W        W88939   9.190  41.334  11.196
22157W        W88940  21.200  25.682  13.888
22158W        W88941  20.966   9.382   2.298
22159W        W88942  34.953  34.177  11.173
22160W        W88943  21.932  10.302   2.902
22161W        W88944  39.796  30.872   4.582
22162W        W88945  36.109   5.826   4.688
22163W        W88946  43.192   6.267   3.701
22164W        W88947   5.278  32.056  11.556
22165W        W88948  29.935  20.822  10.262
22166W        W88949  41.066  15.294  10.760
22167W        W88950  39.327  25.276   2.289
22168W        W88951  35.353  20.200  11.596
22169W        W88952  20.250  35.394   0.857
22170W        W88953  37.822   3.802   0.543
22171W        W88954  43.779  37.035   3.877
22172W        W88955  19.269  42.113  10.827
22173W        W88956  36.809  11.674   1.766
22174W        W88957  16.788  31.497  13.334
22175W        W88958  17.682  31.615  13.364
22176W        W88959  20.601  38.664   4.574
22177W        W88960   3.197   5.768  13.190
22178W        W88961  11.146  43.378   0.884
22179W        W88962  12.291  31.006  14.838
22180W        W88963  10.364  16.711   2.433
22181W        W88964   3.961  36.227  11.881
22182W        W88965  39.752  33.193  14.836
22183W        W88966  29.584  43.347   1.938
22184W        W88967  13.634  36.023  12.585
22185W        W88968   4.703  41.911  14.483
22186W        W88969  22.811  19.702  14.375
22187W        W88970   3.281  25.482  14.462
22188W        W88971   5.250  22.597   3.749
22189W        W88972  11.372   2.325  11.994
22190W        W88973  43.766  15.245  12.100
22191W        W88974  24.332   5.449  13.960
22192W        W88975  23.496  39.338  11.583
22193W        W88976  39.302   1.250   0.021
22194W        W88977  18.834  42.208  11.682
22195W        W88978  18.016  41.245   1.561
22196W        W88979   6.710   9.897   1.274
22197W        W88980  43.505  12.576   3.775
22198W        W88981   5.311  26.838  13.795
22199W        W88982  32.120  13.280  14.485
22200W        W88983  22.046  27.780   4.527
22201W        W88984   6.463   6.356  14.457
22202W        W88985  35.874  20.267   3.416
22203W        W88986  22.758  44.470  13.801
22204W        W88987   5.667  11.246  14.813
22205W        W88988   4.389  19.717  11.194
22206W        W88989  14.278  44.837   4.367
22207W        W88990  26.467  37.050  14.960
22208W        W88991   1.645  22.842  14.455
22209W        W88992  32.777  28.063   0.451
22210W        W88993  34.433  24.707   1.351
22211W        W88994   9.734  12.302   3.728
22212W        W88995  24.007  20.113   2.603
22213W        W88996  39.396  33.917  12.384
22214W        W88997  17.438  37.828  13.957
22215W        W88998  25.913  20.704  11.553
22216W        W88999   4.707   8.935   4.312
22217W        W89000  37.387   9.645  12.857
22218W        W89001   5.169   8.188   1.755
22219W        W89002   7.413  44.891   1.023
22220W        W89003   3.423  10.172   0.837
22221W        W89004  38.005  20.892   0.401
22222W        W89005   4.294  36.986   1.848
22223W        W89006  43.406   7.957   3.138
22224W        W89007  43.592  27.644   0.947
22225W        W89008  17.447  31.672  14.922
22226W        W89009  19.291  27.642   3.952
22227W        W89010   7.813   8.427   0.246
22228W        W89011   9.131  38.433   1.863
22229W        W89012   1.891  24.605   2.469
22230W        W89013   2.487  32.522   1.023
22231W        W89014  12.438  39.314  11.267
22232W        W89015  16.619   4.990   4.625
22233W        W89016   6.909   0.725   2.343
22234W        W89017  39.659  32.180  13.327
22235W        W89018   2.918  37.491   0.729
22236W        W89019   2.147  13.291  11.085
22237W        W89020  24.836  35.514   1.281
22238W        W89021   0.781   3.267   0.833
22239W        W89022  38.562  36.216  10.949
22240W        W89023  29.231  43.022   4.561
22241W        W89024   1.297  34.684  14.536
22242W        W89025  19.174  21.137  13.082
22243W        W89026   5.154  23.220   2.366
22244W        W89027  11.907   9.957   1.804
22245W        W89028  39.880   6.175   2.814
22246W        W89029  32.611  42.811   0.704
22247W        W89030  20.738  36.350   2.800
22248W        W89031  23.509  24.247   0.299
22249W        W89032  28.132   3.537  14.838
22250W        W89033  32.943  16.093   1.390
22251W        W89034  19.719  28.601   4.617
22252W        W89035   8.849  17.521  14.279
22253W        W89036   4.909   1.844   2.207
22254W        W89037  26.525   0.200  12.433
22255W        W89038  22.490   1.363   1.039
22256W        W89039   4.210  31.872  12.925
22257W        W89040  17.225  12.144  12.889
22258W        W89041  10.377  31.506   2.085
22259W        W89042   2.400  44.290   3.077
22260W        W89043   4.692   6.804  11.945
22261W        W89044  21.229  37.159   1.764
22262W        W89045  37.876  26.965   4.540
22263W        W89046  29.451  37.021   4.336
22264W        W89047  24.276  28.942   2.659
22265W        W89048  12.317   7.401  11.964
22266W        W89049   3.769  27.716   3.928
22267W        W89050  18.894  12.934   3.778
22268W        W89051  19.851  40.383   0.355
22269W        W89052  19.252   3.739   0.944
22270W        W89053  21.301  31.624  13.459
22271W        W89054   4.302  26.160   0.826
22272W        W89055  30.074  22.870   1.876
22273W        W89056  33.404   2.686  14.903
22274W        W89057  24.384  39.522   3.269
22275W        W89058  11.844   8.094  11.206
22276W        W89059   1.250   1.440   4.148
22277W        W89060  21.677  36.653  14.029
22278W        W89061  15.575  30.971   2.903
22279W        W89062   2.519  10.164   0.294
22280W        W89063  38.524   0.705   0.004
22281W        W89064   1.393   7.358  14.570
22282W        W89065  11.663   7.259   1.478
22283W        W89066   6.499  15.128   3.222
22284W        W89067   4.342  31.193  13.663
22285W        W89068  43.219  39.213  11.186
22286W        W89069  13.253  23.521  12.898
22287W        W89070   4.426   4.811  10.680
22288W        W89071   3.944  31.523  13.744
22289W        W89072  34.062   6.781  13.802
22290W        W89073  12.302   3.938  13.345
22291W        W89074  43.758  26.405   1.004
22292W        W89075   0.945  33.962  14.937
22293W        W89076  17.187  36.371   0.121
22294W        W89077   1.262  14.811  10.705
22295W        W89078  32.406  40.872   3.230
22296W        W89079  37.333  42.502   0.882
22297W        W89080  34.098  22.707   1.009
22298W        W89081   0.762  33.111  13.963
22299W        W89082  33.519  14.261   1.227
22300W        W89083  40.387  13.251  12.533
22301W        W89084   5.231  12.624   3.112
22302W        W89085   4.767  13.100   0.168
22303W        W89086  40.817  18.620   2.823
22304W        W89087  41.761  27.904   4.128
22305W        W89088  27.710   1.910  13.043
22306W        W89089  15.580  16.984  10.666
22307W        W89090  12.309  35.932  11.147
22308W        W89091  39.986  29.631   2.510
22309W        W89092   3.868  44.821  10.729
22310W        W89093   9.746   8.959  13.922
22311W        W89094  39.983  15.259   3.407
22312W        W89095   8.798  20.609  10.965
22313W        W89096  28.729  28.459  10.900
22314W        W89097  27.078   5.960  14.883
22315W        W89098  12.894  14.218   0.421
22316W        W89099  30.847  38.430  12.047
22317W        W89100  30.600  30.904  14.306
22318W        W89101  32.759  14.982  13.396
22319W        W89102  17.043  33.141   3.811
22320W        W89103  10.775  27.308  13.547
22321W        W89104  41.517  27.548  10.951
22322W        W89105  15.042  19.491  14.293
22323W        W89106   4.887  44.832   0.451
22324W        W89107   4.780  35.342   4.113
22325W        W89108  38.105  11.243  12.490
22326W        W89109  42.898   8.803   0.322
22327W        W89110  24.009  42.261  12.020
22328W        W89111  38.041  39.755   1.282
22329W        W89112  15.046  30.140   0.685
22330W        W89113  10.464  12.739   0.865
22331W        W89114  30.723  26.354  14.772
22332W        W89115  25.141  11.498  12.049
22333W        W89116  20.334  36.033  13.928
22334W        W89117  39.572  40.648  13.877
22335W        W89118  12.569  42.355  10.683
22336W        W89119   1.373  15.568   2.818
22337W        W89120  39.048  21.644  10.492
22338W        W89121  18.155   4.736   0.794
22339W        W89122  13.268  29.460  14.782
22340W        W89123  40.870  31.965  12.008
22341W        W89124  37.588  31.597   1.387
22342W        W89125  23.038   7.297   4.573
22343W        W89126  24.085  33.396  13.872
22344W        W89127  44.280  37.886  12.514
22345W        W89128  25.789  38.711   4.050
22346W        W89129  30.640   4.540  11.889
22347W        W89130  12.565  12.330  11.634
22348W        W89131  42.552  17.610   2.206
22349W        W89132   0.899  36.697   2.131
22350W        W89133  29.624  42.589  13.276
22351W        W89134   8.333  32.127  11.475
22352W        W89135   9.107   1.513   0.050
22353W        W89136  35.534   5.286   4.534
22354W        W89137   5.185  43.991  11.094
22355W        W89138   6.282   9.176   4.544
22356W        W89139  16.816  19.309  13.016
22357W        W89140  24.609  32.312  11.135
22358W        W89141  41.290  30.507  11.607
22359W        W89142  21.160  11.612   0.220
22360W        W89143   8.341   5.835   1.229
22361W        W89144  44.506   9.829  14.397
22362W        W89145  37.706  39.300   4.124
22363W        W89146  24.332  12.937  14.241
22364W        W89147  38.308   1.185  14.995
22365W        W89148  14.153   5.459  13.875
22366W        W89149  42.940  31.038  14.680
22367W        W89150  22.994  12.120   4.740
22368W        W89151  22.203  23.383   3.704
22369W        W89152  15.046   5.962  12.342
22370W        W89153  23.052  30.179  11.526
22371W        W89154   1.922   4.834   2.846
22372W        W89155  37.623   7.654  11.515
22373W        W89156   9.878  27.060  13.762
22374W        W89157  21.794  18.809   3.285
22375W        W89158  43.460  20.505  11.628
22376W        W89159  40.961  38.275   1.177
22377W        W89160   4.317  31.623  13.384
22378W        W89161   7.704  39.977  11.931
22379W        W89162  23.149  14.305   2.427
22380W        W89163   7.433   3.265   0.932
22381W        W89164  13.499  14.645  14.707
22382W        W89165   9.989  34.572  11.024
22383W        W89166  16.322   1.049  11.475
22384W        W89167  30.554  11.753   1.643
22385W        W89168  19.586  33.474   0.699
22386W        W89169  14.563   4.919  14.522
22387W        W89170  35.159  31.147   0.913
22388W        W89171  32.990  11.085   1.739
22389W        W89172  32.398   5.846   0.647
22390W        W89173  27.067  33.507  11.643
22391W        W89174  25.500  15.406   1.192
22392W        W89175  17.868  20.280  12.030
22393W        W89176  25.222   0.843  11.977
22394W        W89177  15.601  20.416   0.480
22395W        W89178  33.601  15.673   0.301
22396W        W89179  24.427  13.420  14.411
22397W        W89180   4.921  13.146   1.703
22398W        W89181   3.553   3.894   3.767
22399W        W89182   8.154  20.665   4.581
22400W        W89183  16.373  20.095   2.762
22401W        W89184   0.465  17.025   4.029
22402W        W89185  30.134  22.592  13.694
22403W        W89186  25.020  15.114  10.703
22404W        W89187   8.899  37.218  11.601
22405W        W89188   0.978  41.698   4.571
22406W        W89189  11.304  27.001   0.818
22407W        W89190  28.220  32.586   1.716
22408W        W89191  31.255  43.312   3.299
22409W        W89192  37.288  19.983   0.905
22410W        W89193  10.256  23.267  11.515
22411W        W89194   9.019  14.685  11.482
22412W        W89195  39.250  18.607   0.538
22413W        W89196   2.423  13.084   1.289
22414W        W89197  40.360  40.534  12.139
22415W        W89198   3.442  42.446  10.681
22416W        W89199   0.086  25.000   2.854
22417W        W89200  37.314   5.298  10.972
22418W        W89201  19.101  22.828   2.912
22419W        W89202   2.496  41.328  14.361
22420W        W89203  12.267  36.018   4.502
22421W        W89204  13.670  32.834   1.280
22422W        W89205   5.956  13.719  12.942
22423W        W89206  22.003   2.114  13.147
22424W        W89207  31.933  39.638   1.785
22425W        W89208   9.251   0.328  14.382
22426W        W89209  29.766  15.552  14.563
22427W        W89210  35.108   9.726  13.297
22428W        W89211  13.316   4.030  12.087
22429W        W89212   0.809  11.403   0.352
22430W        W89213  22.127  28.148   3.915
22431W        W89214  20.088  17.168   4.180
22432W        W89215  21.697  16.592  13.880
22433W        W89216  37.170   2.448   4.519
22434W        W89217  39.998  24.395   2.864
22435W        W89218  31.657  18.083   4.906
22436W        W89219  28.584  42.898   3.897
22437W        W89220  40.634   1.803   3.752
22438W        W89221  32.180  38.479  10.169
22439W        W89222  40.039  20.208   1.828
22440W        W89223  12.375  43.136  11.268
22441W        W89224  23.919  35.424  13.061
22442W        W89225  22.330  33.422   0.891
22443W        W89226  30.969   9.806  13.343
22444W        W89227   3.167  41.650  11.641
22445W        W89228  23.526  25.949  14.877
22446W        W89229  31.392  33.976  11.540
22447W        W89230  14.190  43.892  10.700
22448W        W89231   6.514  38.551  11.128
22449W        W89232   1.015  29.755   2.678
22450W        W89233   2.855  14.865  12.406
22451W        W89234  21.999  27.669  10.582
22452W        W89235  32.672   2.692  12.413
22453W        W89236  28.234  35.519  12.976
22454W        W89237  25.392  23.651   4.270
22455W        W89238   4.773  36.854  13.939
22456W        W89239  32.673  12.327   3.781
22457W        W89240  41.362  28.887   2.743
22458W        W89241  23.635  10.257  13.850
22459W        W89242  32.975  32.488  14.375
22460W        W89243   6.763  15.188  13.574
22461W        W89244  32.431  42.435  13.311
22462W        W89245  31.279  34.606   2.250
22463W        W89246  32.318  16.602  14.788
22464W        W89247  20.125  27.226  13.102
22465W        W89248  20.814  36.942  11.562
22466W        W89249   4.960  42.806   0.398
22467W        W89250  30.365  20.680   2.408
22468W        W89251  39.046  21.740   1.279
22469W        W89252   8.151  41.188  11.189
22470W        W89253   3.408   0.235  11.975
22471W        W89254  22.700  10.101   3.281
22472W        W89255  39.681  43.466   3.544
22473W        W89256  37.375   6.399  14.408
22474W        W89257  41.922  27.934  12.044
22475W        W89258  18.282   0.369   1.424
22476W        W89259  37.188   6.886   2.408
22477W        W89260   5.698  33.900  11.365
22478W        W89261  19.669  28.355  13.534
22479W        W89262  29.453   8.096   3.853
22480W        W89263  44.014  41.749  11.735
22481W        W89264  32.973  21.940  13.345
22482W        W89265  35.146  17.565   2.346
22483W        W89266   1.337  44.428   4.069
22484W        W89267  42.788  37.378   2.161
22485W        W89268  18.446  22.012  11.437
22486W        W89269  17.256  28.025  14.984
22487W        W89270  33.365  23.974   4.080
22488W        W89271  43.940   6.829  10.460
22489W        W89272  35.604  34.652   4.473
22490W        W89273  35.590  30.011   1.668
22491W        W89274  20.610  24.483   3.294
22492W        W89275  15.108  39.863   1.117
22493W        W89276   3.868  25.275  12.520
22494W        W89277  42.757  42.004   2.890
22495W        W89278   5.933  29.382   1.147
22496W        W89279  41.871  16.975   2.655
22497W        W89280   6.802  11.703   4.140
22498W        W89281   2.688   0.360  11.103
22499W        W89282  28.155  42.401   1.144
22500W        W89283  30.966  32.857   4.281
22501W        W89284  17.331  14.565   1.681
22502W        W89285   7.311   0.538   3.241
22503W        W89286  12.252   1.427  14.758
22504W        W89287  30.944   3.658   1.090
22505W        W89288  19.806  41.782  14.955
22506W        W89289  42.819  20.182  14.722
22507W        W89290  18.606  24.570  13.023
22508W        W89291   9.311  20.351  13.025
22509W        W89292  35.378  30.344   3.339
22510W        W89293  10.893   7.257  11.455
22511W        W89294   5.000  10.250  11.519
22512W        W89295  23.731   9.178   3.385
22513W        W89296  14.610  30.501  10.589
22514W        W89297  20.025   1.867  11.105
22515W        W89298   6.304  44.244   4.191
22516W        W89299  36.072  41.243   1.982
22517W        W89300   1.845  42.500   3.354
22518W        W89301  31.192  40.973  13.411
22519W        W89302   2.221   7.342   2.746
22520W        W89303  39.374  44.918  14.312
22521W        W89304  17.030  40.797   1.456
22522W        W89305   7.461  11.317   4.647
22523W        W89306  18.527  43.505   1.691
22524W        W89307  18.494   4.368  12.498
22525W        W89308  34.366  43.297  14.488
22526W        W89309  38.995  35.408  14.974
22527W        W89310  18.131  42.079   3.711
22528W        W89311  35.982  34.388  11.210
22529W        W89312   6.459   7.293   2.408
22530W        W89313  35.389  37.033  11.734
22531W        W89314  21.119  15.081   4.045
22532W        W89315  44.352  28.983   2.484
22533W        W89316  26.258  29.173   2.784
22534W        W89317   9.944  11.466  12.532
22535W        W89318  41.082  29.288  13.475
22536W        W89319  41.269  12.092   4.672
22537W        W89320  44.183  22.588  11.920
22538W        W89321  30.828  16.412   2.752
22539W        W89322  40.308  16.540  14.239
22540W        W89323  21.461   7.708  12.346
22541W        W89324  20.738   3.701  13.092
22542W        W89325   5.813   2.829   4.969
22543W        W89326  18.267  33.846   3.876
22544W        W89327  12.533   5.778   4.750
22545W        W89328   1.411  17.546   1.857
22546W        W89329  38.478  29.020   2.200
22547W        W89330  37.992  39.388   4.540
22548W        W89331  23.576  21.266   0.376
22549W        W89332  15.871  19.552  12.085
22550W        W89333  24.037   6.458   4.522
22551W        W89334  38.975   0.261   2.931
22552W        W89335  42.859  37.753  12.096
22553W        W89336  36.526  17.276  12.075
22554W        W89337  29.195  30.464   4.223
22555W        W89338  37.808   4.829  10.387
22556W        W89339  20.096  41.288  11.538
22557W        W89340  29.624  20.710  10.655
22558W        W89341   1.462   9.226   4.117
22559W        W89342   0.400  35.528  14.619
22560W        W89343  31.427  23.207   2.202
22561W        W89344   0.650  18.200   3.792
22562W        W89345  18.268  34.562   0.861
22563W        W89346  36.581  13.427   3.406
22564W        W89347  29.390   0.658   0.412
22565W        W89348  29.312   5.880  14.556
22566W        W89349  14.709  39.226  11.080
22567W        W89350  22.025  44.821   4.195
22568W        W89351   2.768  39.035  14.792
22569W        W89352  17.215  44.417   3.647
22570W        W89353  10.517  39.925  12.089
22571W        W89354  44.755  22.733  13.056
22572W        W89355  14.494  39.070  12.267
22573W        W89356  28.669  35.402  14.827
22574W        W89357   7.762  12.191   3.666
22575W        W89358   6.354  24.266  14.922
22576W        W89359   2.252   5.797   2.806
22577W        W89360  37.983  32.723  11.110
22578W        W89361  21.978   9.363   1.394
22579W        W89362  37.836  24.229  14.235
22580W        W89363  29.243   5.289  11.553
22581W        W89364   7.497  27.255  14.974
22582W        W89365  14.383  31.934  12.386
22583W        W89366  39.263  14.306  13.063
22584W        W89367   7.858  21.024  12.432
22585W        W89368  10.600  20.867  13.631
22586W        W89369  28.865  40.594  14.834
22587W        W89370  22.749   7.769  12.906
22588W        W89371   2.526  17.176  13.284
22589W        W89372   7.430  29.936   3.444
22590W        W89373  17.640   8.584  12.614
22591W        W89374   4.690  24.224   0.422
22592W        W89375   0.535  34.336   1.270
22593W        W89376  33.298  19.541   4.185
22594W        W89377  13.822  23.132  11.684
22595W        W89378  35.796  41.862  14.327
22596W        W89379  30.130   5.888   1.257
22597W        W89380   6.623  23.914  10.299
22598W        W89381   4.187  10.350  14.751
22599W        W89382   4.483  33.408  13.983
22600W        W89383  24.030  24.637  11.445
22601W        W89384  43.486  21.691  12.523
22602W        W89385   5.714  30.725   0.813
22603W        W89386  14.734  11.825   4.237
22604W        W89387  30.609   0.801  11.571
22605W        W89388  27.419  31.217  11.618
22606W        W89389  19.873  29.623   1.892
22607W        W89390   7.217  15.707  12.788
22608W        W89391   5.630  14.396  13.504
22609W        W89392  37.289  31.794   2.124
22610W        W89393  29.035  20.814  11.942
22611W        W89394  21.684  44.949   4.779
22612W        W89395  38.752  44.244   2.194
22613W        W89396  16.739  25.556   4.637
22614W        W89397   3.869  23.878  10.779
22615W        W89398  32.102   9.349   1.972
22616W        W89399   9.473  16.971  13.821
22617W        W89400   1.329  27.118   3.116
22618W        W89401  44.916  41.178   0.931
22619W        W89402  31.033  20.013  11.604
22620W        W89403  17.992  13.708   2.405
22621W        W89404  16.515  30.418  12.676
22622W        W89405   3.724   2.778   1.413
22623W        W89406  28.879  39.457  12.028
22624W        W89407  11.740  17.232   2.854
22625W        W89408  21.051  17.551   4.654
22626W        W89409  44.337  31.752  14.872
22627W        W89410  35.510   7.798   0.952
22628W        W89411  22.514  32.470  11.370
22629W        W89412  10.376   0.065   0.891
22630W        W89413  24.252   9.141   0.739
22631W        W89414  25.977  12.151  14.323
22632W        W89415  31.619  16.576   3.188
22633W        W89416  40.983  41.879   1.291
22634W        W89417   2.046  44.481  13.900
22635W        W89418  33.118  20.541   2.172
22636W        W89419  20.041  10.814  14.944
22637W        W89420  24.206  34.240   1.415
22638W        W89421   0.282  22.197  14.382
22639W        W89422  43.596  31.944   3.730
22640W        W89423  13.255  34.091   0.392
22641W        W89424  18.714  23.195  14.525
22642W        W89425  15.656  17.578  13.827
22643W        W89426  18.512  42.026   3.332
22644W        W89427   1.488   6.889   0.417
22645W        W89428  43.141  43.976  12.469
22646W        W89429  16.472  38.157  11.128
22647W        W89430  38.739  17.151  13.915
22648W        W89431  10.628   8.579   3.147
22649W        W89432   6.251  25.067  10.751
22650W        W89433  36.622  24.447  11.432
22651W        W89434  22.471  21.908  12.907
22652W        W89435   4.730  21.042   0.877
22653W        W89436  36.100  22.042   5.033
22654W        W89437  17.129  17.940  13.017
22655W        W89438  29.887  20.352   4.215
22656W        W89439   4.945  16.134   4.437
22657W        W89440  33.014  42.520  13.305
22658W        W89441  16.556   9.457  11.660
22659W        W89442  36.141  21.557  11.028
22660W        W89443  43.588   8.807  12.924
22661W        W89444  13.260  31.060  12.209
22662W        W89445   8.420   4.305  14.231
22663W        W89446  14.860  43.340  10.985
22664W        W89447  21.438  30.925  11.805
22665W        W89448   2.128  15.666   4.968
22666W        W89449  35.453  31.363   3.186
22667W        W89450  37.177   6.505   3.680
22668W        W89451  18.484   3.747  11.460
22669W        W89452  33.575  27.131   0.867
22670W        W89453  31.400   2.455   4.358
22671W        W89454  34.602  26.288  11.366
22672W        W89455  24.226  29.083  12.156
22673W        W89456  12.031  30.768  11.885
22674W        W89457  38.575  27.736  10.570
22675W        W89458  11.702  40.474   4.091
22676W        W89459  27.151  35.465  12.386
22677W        W89460   8.329  30.050   0.671
22678W        W89461  12.129  21.979   1.806
22679W        W89462  21.531  23.645  11.771
22680W        W89463  20.083  31.422   0.954
22681W        W89464  25.551  14.575  13.865
22682W        W89465  14.880  22.062   4.055
22683W        W89466   5.290  31.928   2.883
22684W        W89467   7.719  20.505  10.708
22685W        W89468  19.833  32.189   1.480
22686W        W89469  29.527  38.724   0.741
22687W        W89470  30.622  23.752  10.513
22688W        W89471  10.755  40.294  13.030
22689W        W89472  40.272  27.190  13.966
22690W        W89473   4.376  26.154   2.346
22691W        W89474  22.025  41.779   2.297
22692W        W89475  25.208  24.739  13.436
22693W        W89476  35.560  39.913  14.701
22694W        W89477   1.343  31.325   4.864
22695W        W89478  16.703   9.929  11.822
22696W        W89479  15.634  37.037  11.635
22697W        W89480  14.388  43.045  10.529
22698W        W89481  16.715  29.450  14.462
22699W        W89482  12.310   6.778   3.113
22700W        W89483  39.940  39.435  14.750
22701W        W89484  21.747  33.123   4.256
22702W        W89485  35.338  25.128   4.628
22703W        W89486   8.308  41.918  13.510
22704W        W89487  41.418  41.410  12.935
22705W        W89488  37.574  15.276   4.239
22706W        W89489   8.426  27.446  13.049
22707W        W89490  39.025   0.770   3.033
22708W        W89491   1.913  22.764   3.787
22709W        W89492   1.265  23.569   3.747
22710W        W89493   1.255  11.197  13.964
22711W        W89494  28.648  22.272   4.105
22712W        W89495   0.749  37.162   2.334
22713W        W89496  19.898  10.317  10.221
22714W        W89497  34.169  14.125   1.032
22715W        W89498  12.752   0.213   0.292
22716W        W89499  20.016  18.017   1.617
22717W        W89500  23.377  16.336   2.776
22718W        W89501  42.349  30.124   2.123
22719W        W89502   1.123  30.241  11.406
22720W        W89503  28.146  13.744   2.098
22721W        W89504  18.608  21.561   0.116
22722W        W89505  24.120  28.603  10.767
22723W        W89506   7.864  40.319   3.971
22724W        W89507  44.333  11.221  10.952
22725W        W89508  38.539  14.592  12.455
22726W        W89509  15.829  16.724  14.868
22727W        W89510   1.714  23.827  11.175
22728W        W89511  44.601  16.224  11.669
22729W        W89512  28.567  36.811  14.837
22730W        W89513   0.744  38.877   3.328
22731W        W89514  22.952  12.591  14.400
22732W        W89515   3.660  39.028  11.174
22733W        W89516  39.091  42.360   4.094
22734W        W89517  39.515  23.375   0.096
22735W        W89518  26.057  13.307  11.573
22736W        W89519  28.185   4.810   2.869
22737W        W89520  23.464  15.644  14.962
22738W        W89521  37.055  10.395  14.021
22739W        W89522  31.447  19.629   0.313
22740W        W89523  16.233  21.570  14.992
22741W        W89524   4.656  41.348  12.481
22742W        W89525   3.988  26.388   3.352
22743W        W89526  42.000  43.987   0.427
22744W        W89527  34.916  42.468  11.599
22745W        W89528  34.525   2.936   1.240
22746W        W89529  38.486  43.974   2.678
22747W        W89530  23.019   5.924   1.416
22748W        W89531  32.500  38.452   0.012
22749W        W89532  10.085  38.860   1.984
22750W        W89533   1.188  34.618   0.489
22751W        W89534  36.245   5.237  13.546
22752W        W89535  18.529  41.281   1.656
22753W        W89536  12.302  27.712  14.150
22754W        W89537  31.706  12.269   1.373
22755W        W89538   2.415   6.107  11.556
22756W        W89539  23.373  43.430  11.227
22757W        W89540  11.651  24.345  11.126
22758W        W89541  24.564  19.836   3.661
22759W        W89542  22.263  39.464   2.915
22760W        W89543  29.205  44.314   4.111
22761W        W89544  29.472  26.633   0.250
22762W        W89545  40.561  34.401  11.544
22763W        W89546  19.712  26.054  12.730
22764W        W89547  30.986  13.794   2.942
22765W        W89548  36.045  40.842   0.732
22766W        W89549   9.169  35.134   1.946
22767W        W89550   8.949  10.225  14.325
22768W        W89551   5.935  32.407   0.567
22769W        W89552   6.661  26.234  14.974
22770W        W89553  21.430   6.784  13.874
22771W        W89554  37.175   9.937   1.696
22772W        W89555  14.001  18.708  11.160
22773W        W89556  40.797  11.584   4.075
22774W        W89557  34.151  37.577  10.681
22775W        W89558  11.517  28.968   0.042
22776W        W89559   8.584  41.850   1.788
22777W        W89560   1.891  23.064  11.380
22778W        W89561  16.409  37.797   3.244
22779W        W89562  32.671  37.642  13.106
22780W        W89563  32.416  10.627  13.364
22781W        W89564  35.977  39.536   0.226
22782W        W89565  23.962  14.396   0.068
22783W        W89566  12.643  28.000   3.307
22784W        W89567  26.951   8.100  12.131
22785W        W89568  18.446  19.031  13.343
22786W        W89569  18.738  11.553  12.361
22787W        W89570  10.332   0.288   3.173
22788W        W89571  18.833  23.722   2.935
22789W        W89572  21.665   8.348  12.052
22790W        W89573   8.740  24.103  14.181
22791W        W89574  31.936  18.951  13.382
22792W        W89575  43.801  22.234  11.512
22793W        W89576   2.227  11.070   2.771
22794W        W89577  35.001  23.655   3.199
22795W        W89578   4.200  37.198   2.780
22796W        W89579  36.348  15.723  12.557
22797W        W89580  23.966  15.581  12.807
22798W        W89581   6.489  33.916  11.091
22799W        W89582   4.253  32.402   1.501
22800W        W89583  14.690   9.660  14.289
22801W        W89584  36.909  41.606   4.593
22802W        W89585  16.629  13.704   3.090
22803W        W89586   9.546  27.620  10.984
22804W        W89587  25.741  44.879   0.965
22805W        W89588  22.628   0.953   0.722
22806W        W89589  42.464  13.389  12.764
22807W        W89590  28.994   1.979  14.490
22808W        W89591   1.172  13.858   4.169
22809W        W89592  29.502   6.356  11.971
22810W        W89593  36.358  10.220  14.561
22811W        W89594  43.797  16.242  11.022
22812W        W89595  37.460  21.733  14.436
22813W        W89596  22.633  42.282   0.754
22814W        W89597  24.187  10.401  13.001
22815W        W89598   5.716  36.524  11.728
22816W        W89599  31.445  39.356   0.306
22817W        W89600  38.868  20.197  14.478
22818W        W89601  19.057  35.350  10.833
22819W        W89602   4.458  28.154   1.767
22820W        W89603  27.758  20.594  12.043
22821W        W89604  38.921  34.345   2.789
22822W        W89605  39.936   5.503  14.041
22823W        W89606  23.082  34.140  14.496
22824W        W89607  21.157   5.963  14.346
22825W        W89608   9.158  36.890  14.233
22826W        W89609  35.438  20.493   2.174
22827W        W89610  15.975  15.240  12.842
22828W        W89611  39.037  28.383  13.818
22829W        W89612   5.315  24.742   1.573
22830W        W89613   5.253  40.563  11.563
22831W        W89614  11.513  14.192   0.515
22832W        W89615  28.542  23.721  12.909
22833W        W89616  40.785   3.022   2.033
22834W        W89617  11.563  11.709  11.464
22835W        W89618  28.821  18.251   1.019
22836W        W89619   2.959   8.175   1.471
22837W        W89620   4.226  38.224   1.247
22838W        W89621  31.893  32.467   0.016
22839W        W89622  43.025  32.956  14.051
22840W        W89623  15.560  22.041   4.889
22841W        W89624   8.600   9.865  11.547
22842W        W89625  25.607   2.378  14.002
22843W        W89626  15.881  17.660   4.277
22844W        W89627  13.839  29.666   2.311
22845W        W89628  32.626  20.033   2.912
22846W        W89629  37.214   0.823  14.116
22847W        W89630  37.889  44.300  10.572
22848W        W89631  23.308  39.298  12.529
22849W        W89632   8.896  25.691   4.168
22850W        W89633   4.952  19.036  10.311
22851W        W89634  25.781  31.035   0.133
22852W        W89635   7.167   6.857   3.268
22853W        W89636  37.012  22.488  12.360
22854W        W89637  38.217  44.114   1.425
22855W        W89638   8.685  26.641  10.617
22856W        W89639  35.874  21.072   0.324
22857W        W89640  22.565  23.947   1.278
22858W        W89641  34.456  32.092   2.250
22859W        W89642  17.680  16.401  10.308
22860W        W89643  38.009  10.674  14.816
22861W        W89644  26.318  32.968  14.403
22862W        W89645   0.992  10.654   1.185
22863W        W89646  42.080   3.844  12.546
22864W        W89647  26.598   3.955   0.892
22865W        W89648   1.738   6.653   3.238
22866W        W89649   0.606  24.442   3.746
22867W        W89650  23.817  18.311   4.550
22868W        W89651  23.319  30.760   4.700
22869W        W89652  42.681  24.468   1.957
22870W        W89653  15.294  26.035   0.876
22871W        W89654  16.842   5.453   1.914
22872W        W89655  42.226   6.892   1.791
22873W        W89656  29.548   5.041   5.194
22874W        W89657  36.346  27.660  12.049
22875W        W89658  19.816   9.618   1.027
22876W        W89659  29.454  38.248   0.905
22877W        W89660  28.154   3.900   0.846
22878W        W89661  32.090  33.007  12.826
22879W        W89662  30.520   3.258   1.891
22880W        W89663  20.482  19.552   4.862
22881W        W89664  28.890  12.757   3.226
22882W        W89665  35.811   2.058   0.023
22883W        W89666  17.223  23.181   2.857
22884W        W89667  32.481   4.239  11.970
22885W        W89668   6.338  19.296   3.475
22886W        W89669  14.213  22.972  10.934
22887W        W89670  36.555   5.837   3.071
22888W        W89671  42.868  29.035   2.643
22889W        W89672  10.146  28.981   4.503
22890W        W89673  23.527  36.493   3.310
22891W        W89674  36.540  12.342   4.540
22892W        W89675   3.890  17.847   2.205
22893W        W89676   8.780  12.649  12.145
22894W        W89677  35.327  43.257   0.914
22895W        W89678  31.088  35.590  12.020
22896W        W89679  18.285  23.885  10.436
22897W        W89680   4.233  32.112  14.166
22898W        W89681  18.354  34.519  14.284
22899W        W89682   5.893  21.219   2.326
22900W        W89683   5.855  16.604  10.600
22901W        W89684  40.018  27.588   4.644
22902W        W89685   9.198  19.739   2.225
22903W        W89686  17.807  17.669  14.335
22904W        W89687  18.598   8.728  13.556
22905W        W89688  39.205   6.346   0.765
22906W        W89689   1.195  18.727   0.499
22907W        W89690  22.200  38.399  12.593
22908W        W89691  38.519  34.079  14.294
22909W        W89692  26.391  10.713  14.898
22910W        W89693  40.187   0.723   4.676
22911W        W89694  10.177  10.729  11.756
22912W        W89695  25.543  37.930   0.031
22913W        W89696  17.325  14.364   0.208
22914W        W89697  14.621   8.653  13.749
22915W        W89698  31.850  19.116   4.722
22916W        W89699  10.666   4.635  13.982
22917W        W89700   4.732  11.351   4.099
22918W        W89701   9.951  20.170  10.555
22919W        W89702  30.410  38.565   1.753
22920W        W89703  23.486  42.094   2.735
22921W        W89704  30.000  20.008  13.841
22922W        W89705  21.084  22.059  13.844
22923W        W89706  33.906  39.613   0.766
22924W        W89707   5.325  14.711  11.729
22925W        W89708  31.909   8.150   3.159
22926W        W89709  30.551  41.647   1.585
22927W        W89710  10.454  39.312  12.453
22928W        W89711  17.112  44.969   1.368
22929W        W89712   3.524  20.608  12.585
22930W        W89713  19.962  33.442   3.012
22931W        W89714  11.138   8.362  14.955
22932W        W89715  27.971  35.421  12.022
22933W        W89716  41.899   9.931   2.795
22934W        W89717  43.449  31.717  11.611
22935W        W89718   1.543  15.169  10.925
22936W        W89719   6.458  19.923   0.095
22937W        W89720  32.617  32.560  11.557
22938W        W89721  26.712  40.011  12.574
22939W        W89722   3.018  41.457  11.181
22940W        W89723  24.407  40.456   2.809
22941W        W89724  14.150  26.366   2.811
22942W        W89725  31.464  34.847   4.849
22943W        W89726   8.405  16.616   1.762
22944W        W89727  38.559  29.116  10.511
22945W        W89728   5.639  29.036  10.831
22946W        W89729  36.745  35.378  13.009
22947W        W89730  29.243  33.285   4.011
22948W        W89731  39.890  19.118   3.630
22949W        W89732   3.598  39.862   0.213
22950W        W89733   7.836  19.456  12.957
22951W        W89734   2.844  11.850   2.637
22952W        W89735  13.265   7.772   1.587
22953W        W89736  38.297  30.709  12.517
22954W        W89737  21.838   9.657  13.427
22955W        W89738  40.304  28.777   0.976
22956W        W89739   1.232   5.892   0.277
22957W        W89740  44.453  12.778  10.839
22958W        W89741  14.760  41.438   1.884
22959W        W89742  16.303   6.436  14.580
22960W        W89743   7.711  22.661   2.950
22961W        W89744  37.128  42.081   3.370
22962W        W89745  11.838  18.510   2.149
22963W        W89746   0.957  29.518  10.905
22964W        W89747  27.644  17.226  14.771
22965W        W89748  40.595  23.250   2.269
22966W        W89749  37.038  24.952   1.001
22967W        W89750  29.034   5.014   2.656
22968W        W89751   5.193  24.477  11.580
22969W        W89752   0.967  19.670  10.186
22970W        W89753  43.405  11.334  11.172
22971W        W89754  10.919  15.087   3.674
22972W        W89755  10.578  35.917   2.328
22973W        W89756  40.302  21.311  12.410
22974W        W89757  35.633  31.378   1.001
22975W        W89758  36.680  36.968   4.235
22976W        W89759  12.353  40.386  10.491
22977W        W89760  24.755  23.191   0.896
22978W        W89761  26.068  24.386   4.176
22979W        W89762  17.856   4.732  11.301
22980W        W89763   4.281  27.200   3.668
22981W        W89764  44.760   7.717   3.503
22982W        W89765  27.033  14.730  12.911
22983W        W89766  30.633  31.006  10.631
22984W        W89767  40.454  35.091   2.778
22985W        W89768  25.756  30.476  14.936
22986W        W89769  34.112  10.222   4.180
22987W        W89770   4.892  30.601  11.971
22988W        W89771   9.218  31.656  12.787
22989W        W89772   8.187  37.060  10.539
22990W        W89773  26.154   8.234   3.371
22991W        W89774   0.947  36.546  10.783
22992W        W89775  27.940  35.387   0.453
22993W        W89776  25.649  17.319  10.143
22994W        W89777  38.578  29.826  14.535
22995W        W89778  29.168  40.419   1.314
22996W        W89779  22.312  15.712   4.253
22997W        W89780  40.440   0.903   0.272
22998W        W89781  43.976  18.666   4.186
22999W        W89782   9.851   3.061   1.735
23000W        W89783  28.967  40.491   0.820
23001W        W89784   9.673  37.493  12.940
23002W        W89785   3.857   1.240  13.126
23003W        W89786  44.443  29.161  11.172
23004W        W89787  15.033  31.038  11.177
23005W        W89788   6.641  22.214  12.185
23006W        W89789  22.599  29.649   0.686
23007W        W89790  44.276  44.158  13.390
23008W        W89791  15.669  37.079  14.424
23009W        W89792  17.079  11.660  11.981
23010W        W89793   2.909  39.082   2.212
23011W        W89794  19.949  23.247  11.168
23012W        W89795  42.544  14.262  10.257
23013W        W89796  20.185  22.286   0.741
23014W        W89797  24.076  41.922   4.319
23015W        W89798  35.917  39.849   2.701
23016W        W89799  40.462   7.488  11.940
23017W        W89800  30.568  38.120  13.598
23018W        W89801  10.625  34.930  14.319
23019W        W89802  26.251  10.671   1.759
23020W        W89803  33.379  30.942   4.089
23021W        W89804  44.821  32.627   0.509
23022W        W89805  17.759  34.182   4.607
23023W        W89806  26.653  20.828   3.757
23024W        W89807  10.297  30.592  10.362
23025W        W89808  17.860  43.482  12.972
23026W        W89809   6.723  44.244  13.549
23027W        W89810  13.700   1.645  14.450
23028W        W89811  31.252  38.476   3.178
23029W        W89812  37.242  38.796   4.485
23030W        W89813  35.821  37.633  12.455
23031W        W89814  30.198  41.049  14.285
23032W        W89815  37.923  25.536  14.336
23033W        W89816   6.160  30.406  14.010
23034W        W89817  18.769  13.825   3.713
23035W        W89818   6.885  15.998   2.727
23036W        W89819  42.852  32.380  14.924
23037W        W89820  18.129  30.142  12.327
23038W        W89821  37.050  37.346   3.651
23039W        W89822   0.874  17.467  12.225
23040W        W89823  14.242  32.907   2.326
23041W        W89824  18.707  30.625  13.955
23042W        W89825  26.503  29.148   3.672
23043W        W89826  25.539  10.682   1.000
23044W        W89827   2.905  29.212  12.084
23045W        W89828  10.781   2.340   0.296
23046W        W89829  34.900  28.298  12.891
23047W        W89830  18.294  44.063  11.101
23048W        W89831  24.068  21.669   4.583
23049W        W89832  20.573   9.217  14.455
23050W        W89833  10.683  38.791   3.221
23051W        W89834  24.195  41.045   2.214
23052W        W89835  38.441  40.865  11.085
23053W        W89836  22.598  36.855   0.049
23054W        W89837  37.349  41.916  10.892
23055W        W89838  11.854  22.253   0.049
23056W        W89839  31.678  24.808  13.467
23057W        W89840  31.006  15.244   4.230
23058W        W89841   1.258  41.310   2.643
23059W        W89842  22.185  31.481   4.208
23060W        W89843   9.426   6.447   2.341
23061W        W89844  31.571  14.555  10.698
23062W        W89845   9.100  27.408   3.631
23063W        W89846  12.405  13.119  13.920
23064W        W89847  41.065   4.285  12.976
23065W        W89848  16.067   4.384  13.352
23066W        W89849   1.605  19.531   0.413
23067W        W89850  40.803  17.271   0.110
23068W        W89851  24.286  17.697  13.367
23069W        W89852  32.206  38.752  11.483
23070W        W89853  19.154  41.811   3.662
23071W        W89854  21.161   3.423  13.337
23072W        W89855  27.928  32.553   2.177
23073W        W89856  24.191  38.259  14.198
23074W        W89857  43.372  12.113  12.558
23075W        W89858   6.681  18.582  13.330
23076W        W89859  25.382  26.896  12.996
23077W        W89860  22.223  14.364  11.446
23078W        W89861  24.513  28.552   2.394
23079W        W89862  24.620  15.548   3.203
23080W        W89863  38.581  29.496   0.380
23081W        W89864  16.830  28.908  12.578
23082W        W89865   5.855  41.686   4.916
23083W        W89866   5.810  24.611  12.979
23084W        W89867   2.478  17.615   4.648
23085W        W89868  31.895  24.015   0.702
23086W        W89869  20.413  14.603   1.258
23087W        W89870   2.595  28.587  13.266
23088W        W89871  34.584  10.774  10.228
23089W        W89872  21.711  42.723  12.916
23090W        W89873  15.745  10.249   4.675
23091W        W89874   8.373  40.352  12.088
23092W        W89875  10.133  35.188   2.133
23093W        W89876  32.109  21.738  14.969
23094W        W89877  13.722  12.792  10.566
23095W        W89878  20.738  15.649  13.014
23096W        W89879  29.101  31.135   0.449
23097W        W89880  22.548  29.691  13.199
23098W        W89881  44.263   5.284   3.069
23099W        W89882  16.307  15.756  12.388
23100W        W89883  27.717  14.833  13.001
23101W        W89884  38.823  35.883  10.670
23102W        W89885  25.555  31.850  12.790
23103W        W89886  23.328  27.711  14.255
23104W        W89887  25.936  29.091  10.623
23105W        W89888  25.906   5.441  12.351
23106W        W89889  30.795  22.972   4.690
23107W        W89890  37.892   0.134   3.440
23108W        W89891  15.251  20.324  12.030
23109W        W89892  18.156  26.443   4.256
23110W        W89893  35.144   5.824   3.657
23111W        W89894  44.041  13.085  10.706
23112W        W89895  31.645  40.971   2.726
23113W        W89896  34.133  13.172  10.590
23114W        W89897  12.645  27.493   2.372
23115W        W89898  15.633  29.952  14.352
23116W        W89899  32.113  35.843  13.380
23117W        W89900  27.933  14.745   0.706
23118W        W89901   6.376  36.449  12.474
23119W        W89902  30.607  11.401   2.305
23120W        W89903  29.174  30.112  13.554
23121W        W89904  12.200  20.827   4.434
23122W        W89905  10.857  32.142  11.666
23123W        W89906  26.008  30.882  12.601
23124W        W89907  26.722  38.990  11.561
23125W        W89908  20.069   1.883  11.610
23126W        W89909  27.993  42.834  11.063
23127W        W89910  42.824   4.760   1.206
23128W        W89911  34.934   1.188  14.333
23129W        W89912   6.682  43.392   2.137
23130W        W89913  29.062  27.283   0.851
23131W        W89914  31.395  42.534  12.940
23132W        W89915  41.922  44.530   1.310
23133W        W89916  18.663  32.127   3.239
23134W        W89917  22.574  23.029  12.064
23135W        W89918  23.049   3.925   5.548
23136W        W89919   1.052   5.008   3.100
23137W        W89920   9.477  21.222  10.488
23138W        W89921  19.111  13.726  13.122
23139W        W89922  31.158  23.222  10.744
23140W        W89923  37.835   7.761  10.029
23141W        W89924   3.408   0.510   2.554
23142W        W89925   3.503  44.462   4.292
23143W        W89926  34.234   6.108   2.252
23144W        W89927  39.000   6.509  11.716
23145W        W89928  33.048  22.771   1.296
23146W        W89929  10.456  11.211  14.349
23147W        W89930  26.067   4.861   3.186
23148W        W89931  26.209  37.565   3.340
23149W        W89932   3.658  15.685  11.778
23150W        W89933  22.513   5.848  11.368
23151W        W89934  28.742  33.874   4.595
23152W        W89935  11.507  41.238  10.556
23153W        W89936  41.292  19.974   2.263
23154W        W89937  14.838  32.954   4.606
23155W        W89938   5.801  26.738   3.422
23156W        W89939   6.636   4.033  11.119
23157W        W89940   7.461  42.926   4.628
23158W        W89941  32.494  13.276   2.333
23159W        W89942  15.727   4.983   2.786
23160W        W89943   4.977  42.037   3.313
23161W        W89944  11.832  33.109  14.834
23162W        W89945  14.306   9.749   2.263
23163W        W89946  44.017   9.292  14.109
23164W        W89947  15.370  24.019   1.333
23165W        W89948   4.751  35.489   0.728
23166W        W89949  23.419  22.533  11.918
23167W        W89950  30.494  13.666   3.166
23168W        W89951  32.425  28.040   2.200
23169W        W89952  38.560  31.654   0.034
23170W        W89953  13.203   8.659   1.112
23171W        W89954   2.024  20.588   0.161
23172W        W89955   8.986  37.987  13.286
23173W        W89956  33.134  39.075  14.324
23174W        W89957  17.639  38.942   1.698
23175W        W89958  26.800  12.590   4.525
23176W        W89959  36.320  18.278   0.843
23177W        W89960  19.708  27.994   1.842
23178W        W89961   7.766  22.739  10.981
23179W        W89962  36.648   3.221   0.037
23180W        W89963  24.481  11.961   4.293
23181W        W89964  42.586  43.809   3.314
23182W        W89965   1.327  18.266   1.293
23183W        W89966  28.462  10.835   4.592
23184W        W89967   7.910  18.268   1.301
23185W        W89968  34.088  28.207  14.497
23186W        W89969   9.642  38.246   4.130
23187W        W89970  22.788  43.934  13.048
23188W        W89971   1.471  28.497   1.613
23189W        W89972  39.816  35.694  10.820
23190W        W89973  32.262   4.220  11.517
23191W        W89974  35.810   0.198   1.843
23192W        W89975  23.119  33.452   1.347
23193W        W89976  19.120  24.643  13.987
23194W        W89977  41.118  41.970  14.730
23195W        W89978  40.743  18.176  11.148
23196W        W89979  32.967   5.066   1.540
23197W        W89980  43.882  32.022   3.233
23198W        W89981  12.787  10.804  12.537
23199W        W89982  35.957  18.575   3.817
23200W        W89983  29.492  12.417  10.689
23201W        W89984  23.220  34.703  13.078
23202W        W89985   4.409  33.124  13.363
23203W        W89986   5.441   6.725   0.315
23204W        W89987  31.861  27.507  10.486
23205W        W89988   8.897  10.246   3.155
23206W        W89989  42.747  37.472  13.565
23207W        W89990   5.568  37.603  11.472
23208W        W89991  40.979   3.900  13.320
23209W        W89992  12.673  21.131  14.973
23210W        W89993   7.260  43.829  11.420
23211W        W89994   0.848  30.908   2.242
23212W        W89995  43.741  19.120   1.792
23213W        W89996  38.869  26.484   4.581
23214W        W89997  38.882  16.041   4.786
23215W        W89998  26.462  25.119  13.365
23216W        W89999  28.760   4.777   0.436
23217W        W90000   5.302  25.547   4.136
23218W        W90001  34.332  34.029   1.868
23219W        W90002  32.211  10.167  13.501
23220W        W90003  30.878  22.738   1.606
23221W        W90004  38.808  43.403   1.916
23222W        W90005  31.068  13.774  14.483
23223W        W90006  32.012  12.176   2.809
23224W        W90007  37.036  31.221   1.565
23225W        W90008   5.841  16.280  11.289
23226W        W90009  28.711  10.582  13.504
23227W        W90010   1.761   0.907  14.575
23228W        W90011  27.736   0.376   2.786
23229W        W90012   8.701  30.675  13.979
23230W        W90013  13.055  12.414   3.326
23231W        W90014   6.562  42.589  11.492
23232W        W90015   8.380  22.235   2.873
23233W        W90016   7.696  19.226   4.916
23234W        W90017  21.575  38.518  14.505
23235W        W90018  34.546  18.350  12.974
23236W        W90019  39.811  17.729  12.010
23237W        W90020  22.783  26.721   3.441
23238W        W90021  21.217  34.291   4.147
23239W        W90022  44.751   2.133   3.634
23240W        W90023  10.260  24.275  13.412
23241W        W90024  33.692   5.763  14.836
23242W        W90025  40.436  22.191   2.312
23243W        W90026  35.018  24.610   3.073
23244W        W90027  23.127  14.765  13.795
23245W        W90028   3.983   9.170  10.626
23246W        W90029  43.572   1.412  13.472
23247W        W90030   2.160  35.199   2.104
23248W        W90031   5.471  25.958   1.384
23249W        W90032   7.397  40.608   4.133
23250W        W90033  13.122  23.093   2.196
23251W        W90034  16.574  44.379   1.667
23252W        W90035  22.454  36.468  14.419
23253W        W90036   0.435  25.916   2.434
23254W        W90037   0.201  27.303  12.978
23255W        W90038   6.918  31.434   0.849
23256W        W90039  32.270   5.946   0.158
23257W        W90040  11.217  32.236   1.730
23258W        W90041   2.420  29.353   0.269
23259W        W90042  36.547  38.615   3.690
23260W        W90043  19.092  28.081   3.644
23261W        W90044  27.119  32.994   3.724
23262W        W90045   4.405  21.754   1.896
23263W        W90046  15.689  42.836   1.944
23264W        W90047  11.859  13.870   2.391
23265W        W90048   9.421  39.495  14.080
23266W        W90049   4.249  41.446   1.739
23267W        W90050   5.652   0.814   1.812
23268W        W90051   2.502  28.167   2.199
23269W        W90052   3.516   8.298  12.500
23270W        W90053  42.785  16.146  12.633
23271W        W90054  35.875  39.432  11.561
23272W        W90055   0.760  14.994  11.882
23273W        W90056  10.140  34.573   1.147
23274W        W90057  28.126  41.154  14.759
23275W        W90058  11.376   8.920   3.728
23276W        W90059   6.870   8.379   2.500
23277W        W90060  33.058  37.068   0.769
23278W        W90061   7.555   8.807   3.343
23279W        W90062  16.399   7.364  10.726
23280W        W90063  17.585  30.649  13.456
23281W        W90064  35.538  33.693   0.361
23282W        W90065  25.030   9.268  11.864
23283W        W90066  26.948  28.425   4.086
23284W        W90067  43.522  22.624  11.190
23285W        W90068  39.459  31.496   1.948
23286W        W90069  29.461  19.849   4.786
23287W        W90070  25.123   3.881   2.772
23288W        W90071  29.071  33.417   2.666
23289W        W90072  38.193  17.530   2.270
23290W        W90073   3.689  43.000   5.037
23291W        W90074  11.637  42.316   4.904
23292W        W90075  23.423   7.710  14.475
23293W        W90076  19.200  20.217  11.399
23294W        W90077  32.998  28.920  10.615
23295W        W90078  24.045  12.926   0.438
23296W        W90079  37.160  21.444   0.733
23297W        W90080   1.195  25.926   2.396
23298W        W90081  30.498   6.173  11.543
23299W        W90082  17.360   1.258  13.065
23300W        W90083  11.997  16.783   2.943
23301W        W90084   6.043  36.648   3.725
23302W        W90085  14.413  43.240   2.341
23303W        W90086  20.076  37.256  12.907
23304W        W90087  24.416  39.019   2.338
23305W        W90088  42.481  44.830  13.045
23306W        W90089  37.575  24.723  10.978
23307W        W90090  10.707   9.593   3.335
23308W        W90091  37.814  11.414  14.305
23309W        W90092  32.269   5.415   1.755
23310W        W90093  23.110  44.465   2.609
23311W        W90094  22.125  38.409  14.817
23312W        W90095  10.324   3.377  11.090
23313W        W90096   9.301  23.198   3.817
23314W        W90097  27.471   2.290  13.771
23315W        W90098  38.546  34.899   4.139
23316W        W90099  36.658   2.178   1.653
23317W        W90100   8.745  37.682   2.303
23318W        W90101  44.442  32.271  14.765
23319W        W90102  27.698   2.401   3.192
23320W        W90103  12.158   2.370  14.712
23321W        W90104  44.165  34.595  13.991
23322W        W90105  34.908  30.055  10.626
23323W        W90106  21.592   3.182  14.389
23324W        W90107  31.773  21.267  13.952
23325W        W90108  11.834  10.550   0.526
23326W        W90109   2.725  16.065   4.225
23327W        W90110  16.304   0.971  10.652
23328W        W90111  12.083  39.127  11.878
23329W        W90112  43.406  18.861   0.317
23330W        W90113  35.370  12.171  10.735
23331W        W90114  30.988  30.792  11.181
23332W        W90115  29.185  34.807   4.099
23333W        W90116  12.905   2.801   1.928
23334W        W90117  36.782  26.089   2.480
23335W        W90118  14.892  34.936   0.770
23336W        W90119  10.821  23.973   1.778
23337W        W90120  20.568  10.476   2.850
23338W        W90121   7.344  11.158  11.873
23339W        W90122  37.622  40.887  14.877
23340W        W90123  14.335  31.404  12.480
23341W        W90124   7.446   0.423  11.228
23342W        W90125  12.898  32.006  11.975
23343W        W90126  10.911   2.016  11.986
23344W        W90127   3.760  11.409  13.047
23345W        W90128  40.937   2.981  13.872
23346W        W90129   3.271  27.708  11.176
23347W        W90130   6.720  11.354   0.963
23348W        W90131  14.276   1.161   4.441
23349W        W90132  17.060  39.472  14.121
23350W        W90133  36.461  15.550   1.639
23351W        W90134  30.132   7.982  14.723
23352W        W90135  26.646   5.413  13.750
23353W        W90136   2.450  32.109  14.329
23354W        W90137  40.801  40.778   4.569
23355W        W90138  17.114  12.212  10.110
23356W        W90139   6.734   8.964   4.926
23357W        W90140  32.638   5.236  10.665
23358W        W90141   5.410  34.741  11.083
23359W        W90142  15.746  19.271   0.721
23360W        W90143  34.949  18.258   1.469
23361W        W90144  30.583   9.965   3.300
23362W        W90145  13.085  42.885  12.032
23363W        W90146  26.603  43.756  14.514
23364W        W90147   3.451  37.487   0.047
23365W        W90148  24.211  11.489  12.162
23366W        W90149  30.596   8.273   2.732
23367W        W90150  44.158   1.949  14.776
23368W        W90151  43.651  10.684  10.034
23369W        W90152  23.576  19.412   2.247
23370W        W90153  36.825  42.438  11.822
23371W        W90154  21.491  42.921  10.891
23372W        W90155  39.540  34.417  10.534
23373W        W90156  11.624  42.628   2.779
23374W        W90157  35.374  27.808  13.855
23375W        W90158   5.495   0.344  11.648
23376W        W90159  25.218  10.834  10.425
23377W        W90160  17.566  30.406   0.834
23378W        W90161  38.906  17.625   3.803
23379W        W90162   3.951  15.635  12.606
23380W        W90163  29.974   4.826   0.494
23381W        W90164  30.476  21.339  14.930
23382W        W90165   1.222   4.835   0.371
23383W        W90166  41.696  26.644  12.510
23384W        W90167  37.856   3.833  11.524
23385W        W90168  10.473  27.183  11.058
23386W        W90169  19.587   3.129   3.690
23387W        W90170  42.324   1.982  10.870
23388W        W90171  30.508  40.689  13.968
23389W        W90172  31.121  30.509   3.676
23390W        W90173   0.218   4.310  12.966
23391W        W90174  11.143   8.987   1.761
23392W        W90175  19.571  18.222  14.243
23393W        W90176  19.278  28.121   0.771
23394W        W90177  29.721  30.744   2.768
23395W        W90178  28.875  15.574   2.945
23396W        W90179  28.671  41.432  11.097
23397W        W90180  21.620  32.015   0.207
23398W        W90181  34.835  12.184  10.760
23399W        W90182   7.788  23.263   2.178
23400W        W90183  22.330  32.621   2.866
23401W        W90184  10.646  15.889   1.696
23402W        W90185   1.990  15.030  11.131
23403W        W90186  37.992   0.928   1.415
23404W        W90187  29.161  22.479  12.542
23405W        W90188  15.388  33.491   2.224
23406W        W90189  33.931  43.665   2.055
23407W        W90190   6.684  35.500   2.570
23408W        W90191  16.052  33.694   1.187
23409W        W90192  44.255  22.253   1.825
23410W        W90193  22.738  41.083  11.949
23411W        W90194  35.080  29.086   0.324
23412W        W90195   4.799  13.103   2.611
23413W        W90196  13.433  23.332  11.997
23414W        W90197  21.621  44.680  10.628
23415W        W90198  31.818  22.403   3.236
23416W        W90199  13.132  27.967  11.994
23417W        W90200  10.269  31.327   1.619
23418W        W90201  14.019  12.272  14.223
23419W        W90202  41.476  41.800   1.427
23420W        W90203  27.123  11.368  13.821
23421W        W90204   5.995  35.115   3.401
23422W        W90205   8.908  17.371  11.211
23423W        W90206  32.023  40.492   1.207
23424W        W90207   3.282   6.607   2.119
23425W        W90208  23.748  31.233  11.075
23426W        W90209  40.298   6.149  11.426
23427W        W90210  30.101  36.176   4.708
23428W        W90211  20.138  10.054   0.829
23429W        W90212  22.470  31.060   3.981
23430W        W90213  27.243   2.859   4.053
23431W        W90214   2.337  25.970   1.772
23432W        W90215  24.557  29.484   3.750
23433W        W90216  19.547  17.087  14.982
23434W        W90217   0.686  10.798  13.177
23435W        W90218  15.607  34.428  12.669
23436W        W90219  14.147  39.549   1.151
23437W        W90220  39.776  24.828   1.398
23438W        W90221  25.670  40.383   0.511
23439W        W90222  43.898  17.459  13.365
23440W        W90223   1.920  12.654   4.200
23441W        W90224  37.529  43.694   0.072
23442W        W90225  34.027  31.983   0.689
23443W        W90226  11.243  24.518  11.443
23444W        W90227  22.619  13.268   3.024
23445W        W90228  40.007  20.968  12.632
23446W        W90229  40.180  35.431  10.460
23447W        W90230   0.175  40.264  10.394
23448W        W90231  14.165  41.456  11.173
23449W        W90232   5.158  11.266  12.979
23450W        W90233   4.696  15.766  14.895
23451W        W90234  25.315  11.209   2.702
23452W        W90235  44.457  31.457   3.774
23453W        W90236   8.801  37.244   4.523
23454W        W90237  44.658  22.216  13.826
23455W        W90238   4.424   3.358   9.978
23456W        W90239  27.677  42.971   2.938
23457W        W90240  18.834  19.559   4.717
23458W        W90241   7.749  41.897  11.547
23459W        W90242  29.984  15.802   1.743
23460W        W90243  31.207   5.368  10.534
23461W        W90244  24.626  44.713   0.338
23462W        W90245  21.674   8.161  12.532
23463W        W90246   1.828  21.472  12.388
23464W        W90247  31.908  33.354  11.059
23465W        W90248   2.141  17.586   0.795
23466W        W90249  33.934  17.069   2.674
23467W        W90250   6.849  40.316  11.877
23468W        W90251  17.565  13.142   5.119
23469W        W90252   9.458  28.632  10.917
23470W        W90253  30.372  40.426   4.570
23471W        W90254  37.333  41.769  10.411
23472W        W90255   7.738  18.781   2.723
23473W        W90256  12.091  41.372   2.694
23474W        W90257  16.697  10.289  11.088
23475W        W90258  19.665  36.329  12.467
23476W        W90259  42.389  42.957  13.394
23477W        W90260  42.481  24.665   3.153
23478W        W90261  29.655  38.518   0.199
23479W        W90262  25.505  37.414  12.980
23480W        W90263  34.911  24.612  13.477
23481W        W90264  27.940  35.461   1.828
23482W        W90265  21.522  37.685  12.433
23483W        W90266  19.039  32.500  10.717
23484W        W90267  34.486  16.358  13.102
23485W        W90268   9.763  31.722   2.572
23486W        W90269  25.256  43.951   2.623
23487W        W90270  41.791  35.542   3.127
23488W        W90271   5.172  42.976  12.128
23489W        W90272   5.305  36.068  14.337
23490W        W90273   9.631  36.890  14.006
23491W        W90274   0.412  13.719   4.887
23492W        W90275   8.350  43.089  12.525
23493W        W90276  39.048  19.016   4.294
23494W        W90277  19.800  18.503   3.459
23495W        W90278  39.757   6.892   0.303
23496W        W90279  32.179  25.051  12.315
23497W        W90280  19.796  12.833   1.335
23498W        W90281   6.445  15.244   0.404
23499W        W90282  26.981   9.684  14.665
23500W        W90283  44.535   3.854  13.994
23501W        W90284  21.810  17.466   1.892
23502W        W90285  17.323  14.181   2.837
23503W        W90286  16.353  42.919  10.731
23504W        W90287  21.822  43.809   3.867
23505W        W90288  16.417  10.731   0.583
23506W        W90289  38.787   5.954  14.475
23507W        W90290  34.039   0.343  12.992
23508W        W90291  17.706  43.890  14.832
23509W        W90292  22.651  25.925   2.612
23510W        W90293   0.405  27.501   1.622
23511W        W90294  28.756  34.920  12.886
23512W        W90295  16.405  13.343   9.727
23513W        W90296  15.366  44.521   3.718
23514W        W90297  22.656  20.091  10.336
23515W        W90298  32.434  25.129   4.094
23516W        W90299  43.013   9.003  11.210
23517W        W90300  44.566   6.230  13.939
23518W        W90301   9.873  35.121  12.519
23519W        W90302  18.747  30.771  12.993
23520W        W90303   0.288  32.852   0.455
23521W        W90304   8.548   5.297   1.364
23522W        W90305  27.719  35.000   0.190
23523W        W90306  22.213  36.162   1.742
23524W        W90307  30.670  26.875  14.797
23525W        W90308   6.690  35.325  14.395
23526W        W90309  35.008  38.381   4.783
23527W        W90310  25.505  21.730   4.712
23528W        W90311  14.361  42.595  11.901
23529W        W90312   3.292  36.361   0.772
23530W        W90313  25.171  21.114   1.091
23531W        W90314  18.118  33.917  12.386
23532W        W90315  30.454  10.888  12.463
23533W        W90316  40.460  33.157  13.880
23534W        W90317  29.350  28.938  12.904
23535W        W90318  25.925  42.035   1.336
23536W        W90319   1.683  27.726  11.173
23537W        W90320  16.040  12.437   1.357
23538W        W90321  37.093  29.908  14.427
23539W        W90322  10.602  30.681   2.591
23540W        W90323   2.903  37.123  14.365
23541W        W90324  25.713  29.048   4.233
23542W        W90325   0.866  30.403  13.667
23543W        W90326  18.844   9.437   3.218
23544W        W90327   1.389   1.499   1.831
23545W        W90328   6.253  19.233   1.452
23546W        W90329   4.225  10.846   3.212
23547W        W90330   6.931  42.287  14.711
23548W        W90331  15.326  42.764   3.055
23549W        W90332  17.689  15.617  12.889
23550W        W90333  44.713  41.558   4.535
23551W        W90334  11.712  13.110   3.972
23552W        W90335  32.097  11.711   4.110
23553W        W90336   1.415   4.839   2.791
23554W        W90337  16.043  31.328  11.926
23555W        W90338  22.718   5.929  13.368
23556W        W90339  21.092  30.402   4.320
23557W        W90340  43.006   4.296   2.940
23558W        W90341   3.143  36.484   2.423
23559W        W90342   7.292  39.614  10.374
23560W        W90343   3.702  37.848   2.974
23561W        W90344  15.175  22.416  14.861
23562W        W90345  38.538  35.323  13.915
23563W        W90346  11.687  35.971   0.262
23564W        W90347  15.309   0.726  14.710
23565W        W90348  31.553  11.963  13.378
23566W        W90349  39.091  28.848  13.543
23567W        W90350  23.996  23.399   9.860
23568W        W90351  26.458  16.980  12.860
23569W        W90352  34.789  25.557   0.332
23570W        W90353  31.005  21.109  13.098
23571W        W90354  26.393  21.544   4.981
23572W        W90355  15.297  31.321  11.629
23573W        W90356  26.173   1.954   3.656
23574W        W90357  28.994   9.224   0.994
23575W        W90358   9.305  24.954   3.098
23576W        W90359   2.717  12.318  13.314
23577W        W90360  26.705  43.359  14.894
23578W        W90361  30.734   2.389   2.231
23579W        W90362   8.819   5.847  10.758
23580W        W90363   1.735  14.229  12.006
23581W        W90364  33.346  40.638   1.942
23582W        W90365  11.225  19.757   4.373
23583W        W90366  24.933  40.925  12.567
23584W        W90367   1.024  28.081  10.737
23585W        W90368   0.364  40.879   2.647
23586W        W90369  34.850   9.710  14.187
23587W        W90370  37.735  39.089   0.217
23588W        W90371   0.407  17.288  11.981
23589W        W90372  16.852  31.043  11.035
23590W        W90373  31.463  39.272  13.375
23591W        W90374   3.410  13.772   1.802
23592W        W90375  37.516   0.240   3.772
23593W        W90376   6.351  28.646   1.382
23594W        W90377  32.031   5.251  14.944
23595W        W90378  17.227  40.782  13.408
23596W        W90379  22.816  19.871  13.512
23597W        W90380  44.421  26.440   0.492
23598W        W90381  41.436  22.995   2.340
23599W        W90382  10.893  17.519   0.425
23600W        W90383   9.453  22.912   2.986
23601W        W90384  35.968  30.572   4.317
23602W        W90385  18.772  40.980  14.895
23603W        W90386   1.917  40.927   3.150
23604W        W90387   5.411   2.238   1.705
23605W        W90388   8.398  11.547   0.217
23606W        W90389  37.570   9.617   1.799
23607W        W90390   1.504  18.042  11.265
23608W        W90391  21.260  33.668  13.002
23609W        W90392  24.192  31.481   4.584
23610W        W90393  33.179   7.879  14.344
23611W        W90394  12.173   9.196  14.588
23612W        W90395  10.157   4.954  12.629
23613W        W90396  17.188   5.400   3.236
23614W        W90397  25.152  32.465   4.115
23615W        W90398  36.518  28.060  14.540
23616W        W90399  17.175  17.161   0.031
23617W        W90400  16.820  20.630   0.838
23618W        W90401   7.738  27.172   0.477
23619W        W90402  20.015  12.818  11.231
23620W        W90403  30.626  26.753   0.953
23621W        W90404  21.270  42.155  14.579
23622W        W90405   7.210  11.599  12.109
23623W        W90406  21.763  14.108   9.402
23624W        W90407  40.368  28.980   4.766
23625W        W90408  23.585   7.387  12.846
23626W        W90409  34.331  12.654   2.662
23627W        W90410  24.052  19.115  12.231
23628W        W90411  30.954  12.860  11.563
23629W        W90412   0.229   7.098   4.556
23630W        W90413  13.357  25.071   3.357
23631W        W90414  34.259  27.155  13.371
23632W        W90415  35.539  31.840  14.440
23633W        W90416  18.517   7.361  12.237
23634W        W90417  38.660  28.593   1.262
23635W        W90418  33.490  15.229  10.721
23636W        W90419  27.125  18.324   3.350
23637W        W90420   9.656  18.780  13.967
23638W        W90421  38.442  39.400  14.800
23639W        W90422  10.577  26.188  12.006
23640W        W90423  20.829  25.780   3.775
23641W        W90424   7.189  19.590   2.801
23642W        W90425  39.706  21.480   0.965
23643W        W90426  44.454   8.928   3.236
23644W        W90427   9.339  42.270   2.416
23645W        W90428   6.538  23.586  14.060
23646W        W90429  12.181  32.708  14.884
23647W        W90430  34.274  16.579  11.504
23648W        W90431  19.572  22.525   3.733
23649W        W90432  15.353   7.920   1.300
23650W        W90433  24.188  28.124  10.980
23651W        W90434  11.630  21.026   1.368
23652W        W90435  36.239   4.693  12.533
23653W        W90436  20.332  44.857  13.350
23654W        W90437  39.904   2.521   2.402
23655W        W90438  31.914   1.370  14.062
23656W        W90439  15.872  13.230  13.898
23657W        W90440  37.875  18.539  14.906
23658W        W90441   3.247  21.001   1.870
23659W        W90442  28.333   5.389   1.756
23660W        W90443  36.979  22.289  13.777
23661W        W90444  11.324   9.693   0.498
23662W        W90445  25.830   4.790  10.541
23663W        W90446  11.600  21.081   0.269
23664W        W90447  41.259   7.233   2.720
23665W        W90448  24.486   6.697   0.890
23666W        W90449  14.811  11.619  11.101
23667W        W90450  20.027   4.356  10.636
23668W        W90451  16.940  25.485  11.675
23669W        W90452  20.937   4.444   4.499
23670W        W90453  13.576  33.955  10.676
23671W        W90454  26.459  16.954   3.851
23672W        W90455  37.300  35.725  11.075
23673W        W90456   5.908  30.877   4.835
23674W        W90457  36.011  22.097   1.966
23675W        W90458   2.003  25.703   4.423
23676W        W90459  40.521  25.680   2.198
23677W        W90460   5.282  44.956  10.458
23678W        W90461  19.003   4.368  12.450
23679W        W90462  15.311  14.519   0.349
23680W        W90463  42.385  16.625  14.183
23681W        W90464  39.390  12.815  14.527
23682W        W90465  37.330  12.921   4.525
23683W        W90466  28.953  11.139   3.722
23684W        W90467  28.377   3.230   0.600
23685W        W90468   9.177  41.419  12.692
23686W        W90469  38.314  29.869   1.835
23687W        W90470  24.671  16.184   1.299
23688W        W90471   0.760  26.016   4.211
23689W        W90472  22.020   6.778   3.054
23690W        W90473  26.244  34.902   0.514
23691W        W90474  42.710  23.024  11.084
23692W        W90475  44.894  28.963   1.225
23693W        W90476  25.470  20.156  11.081
23694W        W90477  33.440  35.862  13.326
23695W        W90478   9.927  42.963  12.423
23696W        W90479  33.635  18.625  13.394
23697W        W90480  35.125  14.228   3.653
23698W        W90481   2.758  19.101   3.195
23699W        W90482   8.486  40.958  12.837
23700W        W90483  33.643  20.907  13.670
23701W        W90484  43.260  20.650  12.087
23702W        W90485  12.902  17.469   3.284
23703W        W90486  26.581  32.700  12.063
23704W        W90487  43.265  37.061   0.811
23705W        W90488  28.548  33.639   2.875
23706W        W90489  34.215   5.752   1.480
23707W        W90490  15.213   2.374   1.137
23708W        W90491   8.901  16.727   3.573
23709W        W90492  19.275   4.284  13.786
23710W        W90493  17.605   7.301   1.329
23711W        W90494  16.130  32.287  11.113
23712W        W90495  14.855  24.317  11.555
23713W        W90496  37.818   0.501   5.058
23714W        W90497  29.513  18.850  13.152
23715W        W90498  18.620  12.613   1.380
23716W        W90499   7.200  21.972  11.074
23717W        W90500  24.915  25.972   3.390
23718W        W90501   2.249  33.062   0.308
23719W        W90502  43.519   3.278  11.106
23720W        W90503  28.407  20.518  11.168
23721W        W90504  33.093  15.541  11.975
23722W        W90505  12.130  41.291   1.774
23723W        W90506  27.935  37.669  12.548
23724W        W90507   4.018  31.442  12.514
23725W        W90508   5.898   2.246   3.771
23726W        W90509  35.993  41.324   0.992
23727W        W90510  31.360  33.615   2.235
23728W        W90511  41.915  19.769   1.158
23729W        W90512   0.923  13.113  14.107
23730W        W90513  41.375   2.472  14.134
23731W        W90514  21.623  24.025  11.071
23732W        W90515  17.070   7.913   4.435
23733W        W90516  20.699  27.901  10.503
23734W        W90517  43.430  27.986   0.597
23735W        W90518  15.039   9.726   2.666
23736W        W90519  22.212  13.892  14.400
23737W        W90520   6.426  35.596   1.676
23738W        W90521  26.691  32.428   1.912
23739W        W90522  41.978  29.469  12.054
23740W        W90523  22.610  28.477   3.169
23741W        W90524  24.790  14.816  12.148
23742W        W90525  28.558  14.809   2.468
23743W        W90526  43.962  34.572   0.804
23744W        W90527   3.900  10.261   0.622
23745W        W90528  16.150   5.260   4.667
23746W        W90529  20.267   4.151   1.336
23747W        W90530  43.263  25.343   3.392
23748W        W90531   7.515  11.844   2.488
23749W        W90532  33.383  23.027   1.840
23750W        W90533  12.738  44.089  13.289
23751W        W90534  19.267  42.395   3.898
23752W        W90535  40.511   8.789   5.042
23753W        W90536  42.920  26.970  11.912
23754W        W90537  17.136  32.901   1.779
23755W        W90538  16.873   8.152  12.820
23756W        W90539  32.600  10.767   2.491
23757W        W90540  11.670  31.398   3.310
23758W        W90541  16.197  12.570  12.452
23759W        W90542   4.189  37.545   1.702
23760W        W90543  12.611   4.166   0.981
23761W        W90544  32.157  16.675  10.478
23762W        W90545  11.664  35.827  13.298
23763W        W90546  31.598  41.485  10.555
23764W        W90547  13.665  25.667   2.866
23765W        W90548  21.186  39.007   4.089
23766W        W90549  28.539  41.873  13.380
23767W        W90550  35.482  15.732   0.417
23768W        W90551  42.288  40.363  11.510
23769W        W90552   1.789  32.810  11.395
23770W        W90553  41.320  37.023  14.943
23771W        W90554  20.243  17.527   2.386
23772W        W90555  26.208  32.578  13.823
23773W        W90556  34.500  43.399   2.730
23774W        W90557   5.958  27.174  10.927
23775W        W90558  39.792  24.497   0.939
23776W        W90559   4.383   6.917  11.476
23777W        W90560   7.995  14.605  10.744
23778W        W90561  19.395  36.156  11.141
23779W        W90562  20.688   6.037   0.261
23780W        W90563   7.372   2.885   1.504
23781W        W90564  13.643  17.915   4.843
23782W        W90565  32.582  35.518   2.730
23783W        W90566  43.819  31.453   2.459
23784W        W90567  42.450   5.392  12.673
23785W        W90568  31.050  12.645   3.183
23786W        W90569  12.860  44.051  13.800
23787W        W90570  13.273  33.979  14.289
23788W        W90571  41.362   4.807   3.637
23789W        W90572  28.976   4.551  12.554
23790W        W90573  30.663  31.564   4.058
23791W        W90574  16.148   1.406   0.713
23792W        W90575   4.981  23.968   1.834
23793W        W90576  26.171  21.099   0.831
23794W        W90577   1.011  21.238  11.933
23795W        W90578   3.859   3.188   3.882
23796W        W90579  32.493   7.039   1.689
23797W        W90580  44.336  31.290  14.599
23798W        W90581  20.858  11.712   2.848
23799W        W90582  19.221   2.668  13.988
23800W        W90583  44.370   8.972  14.340
23801W        W90584  13.088  44.295   0.925
23802W        W90585  27.555  40.854   3.125
23803W        W90586  27.459  12.320  14.317
23804W        W90587   7.774  21.107   3.868
23805W        W90588  21.278  37.903  12.981
23806W        W90589  27.688  42.931   1.187
23807W        W90590  37.078  24.314  14.838
23808W        W90591   9.379   4.708   4.976
23809W        W90592  35.483   5.793  10.146
23810W        W90593   8.966  42.133   3.204
23811W        W90594  27.665   8.190   3.920
23812W        W90595  35.298   8.918  13.913
23813W        W90596  26.542  36.161   4.902
23814W        W90597   5.382  14.784   2.520
23815W        W90598  16.516  12.635   0.429
23816W        W90599  40.483  37.932  10.483
23817W        W90600  27.132   5.510  13.883
23818W        W90601  42.748   2.037  11.598
23819W        W90602  31.948  26.978  12.174
23820W        W90603  39.621  12.068  14.876
23821W        W90604  17.157  25.687   1.910
23822W        W90605   4.781  25.751  10.799
23823W        W90606  23.949   3.213  14.748
23824W        W90607  33.610  20.643   2.402
23825W        W90608  23.812  43.957   3.671
23826W        W90609  12.320  21.808  13.417
23827W        W90610  33.531  32.380   3.612
23828W        W90611  40.824  17.965  13.992
23829W        W90612  20.327  33.063   0.419
23830W        W90613  27.679  15.113   4.253
23831W        W90614  24.979  11.775   1.221
23832W        W90615   9.602   6.701  12.456
23833W        W90616  40.813  28.421  12.467
23834W        W90617   8.315  23.013   0.200
23835W        W90618  42.829  41.229  11.180
23836W        W90619  25.210   7.440  14.963
23837W        W90620  29.048   3.409  13.762
23838W        W90621  27.712   6.404   2.671
23839W        W90622  38.493  33.259  12.358
23840W        W90623  20.615  40.867   0.680
23841W        W90624   0.251  20.759  13.502
23842W        W90625  37.777   5.619  14.417
23843W        W90626  11.309  38.582   5.096
23844W        W90627  14.832   9.665   1.695
23845W        W90628  35.352  41.403   1.669
23846W        W90629  39.357  30.991  14.114
23847W        W90630  35.007  11.228  10.723
23848W        W90631  43.963  44.234   2.375
23849W        W90632  16.634   6.964   3.667
23850W        W90633  44.968  24.815  13.040
23851W        W90634   8.086  10.413   0.316
23852W        W90635   5.150  35.600   3.846
23853W        W90636  22.537  32.957   0.672
23854W        W90637  16.504  40.840  13.000
23855W        W90638  10.174  37.553   1.544
23856W        W90639  44.946  30.954   2.370
23857W        W90640  19.683  31.340  11.956
23858W        W90641  17.201  33.568  13.759
23859W        W90642  32.668  10.755   0.525
23860W        W90643  16.816  41.945   4.061
23861W        W90644  24.565  39.097   1.807
23862W        W90645   0.219  26.908   0.764
23863W        W90646  20.527  25.780  13.314
23864W        W90647   0.637  44.269   2.863
23865W        W90648  26.494  35.373   0.692
23866W        W90649  35.554  36.506  14.926
23867W        W90650  24.544  44.642   3.520
23868W        W90651  14.567  11.315   0.894
23869W        W90652   8.426  41.213   0.696
23870W        W90653  12.833   8.243   0.000
23871W        W90654  31.822   6.397  11.896
23872W        W90655  10.578  37.303   0.109
23873W        W90656  39.869  39.655  13.801
23874W        W90657  16.325  13.804  12.831
23875W        W90658  24.720  44.495   4.345
23876W        W90659   8.675  10.069   3.604
23877W        W90660  26.943  34.484   0.974
23878W        W90661  35.594   1.274   0.001
23879W        W90662   9.350  34.324   2.082
23880W        W90663   9.091  11.731   4.109
23881W        W90664  17.698  29.160   3.289
23882W        W90665  36.279   0.924  12.968
23883W        W90666   5.154  18.690   3.114
23884W        W90667  23.009  29.405  10.989
23885W        W90668  15.686  31.106  13.566
23886W        W90669  12.994  31.120   2.878
23887W        W90670  23.741  18.340  11.505
23888W        W90671  16.572  42.387   1.788
23889W        W90672   5.242  21.170  12.914
23890W        W90673  26.720   2.738  12.459
23891W        W90674  26.476  12.598  13.907
23892W        W90675  31.372  40.515   0.950
23893W        W90676   5.711  29.897  13.789
23894W        W90677  34.062  36.678   4.134
23895W        W90678   7.834  38.677  13.017
23896W        W90679  21.264  26.175  11.600
23897W        W90680  39.565  21.031  12.882
23898W        W90681  36.926  43.869  13.872
23899W        W90682   2.066  26.772  11.121
23900W        W90683   8.718  32.260  14.425
23901W        W90684   5.856  25.475   4.008
23902W        W90685   5.162  34.565  11.538
23903W        W90686  20.486   0.471  14.693
23904W        W90687  43.203   2.642   1.926
23905W        W90688  19.448   4.575  12.550
23906W        W90689  17.686  25.648   4.538
23907W        W90690  22.277   6.965  14.977
23908W        W90691  39.344   1.984   0.239
23909W        W90692  38.819  13.066  10.252
23910W        W90693  31.098  11.605   0.048
23911W        W90694  41.607   8.209   0.718
23912W        W90695  30.019  28.464  12.289
23913W        W90696  24.543   1.898  13.339
23914W        W90697  22.648  36.974   3.768
23915W        W90698  42.674  18.548  13.068
23916W        W90699  32.856   9.697  11.465
23917W        W90700   7.689  43.487   1.383
23918W        W90701   8.190   0.260   0.342
23919W        W90702  42.948  27.894   1.814
23920W        W90703  41.092  21.715  12.912
23921W        W90704  24.942  44.019  14.844
23922W        W90705  23.106   9.641  13.502
23923W        W90706  31.652  41.738  12.535
23924W        W90707  16.693  33.918   2.221
23925W        W90708  24.699  28.279   1.624
23926W        W90709  41.062  40.100  14.958
23927W        W90710  20.767  14.431   4.641
23928W        W90711  23.566  22.238  10.647
23929W        W90712  17.018  26.489  10.626
23930W        W90713  30.975  43.044  12.546
23931W        W90714  29.107   8.713  11.036
23932W        W90715  38.965  22.013  10.850
23933W        W90716  25.209  41.358  14.960
23934W        W90717  27.966  27.178  14.231
23935W        W90718   1.884   6.039   3.618
23936W        W90719   9.751  18.555  12.668
23937W        W90720  10.373   9.409   0.411
23938W        W90721  14.705   8.895   5.201
23939W        W90722  31.188  21.850  10.460
23940W        W90723  26.554  10.566  13.905
23941W        W90724  24.014  29.716   0.595
23942W        W90725   4.734  36.556  14.586
23943W        W90726  31.592  26.140  10.745
23944W        W90727  35.428  36.514  10.484
23945W        W90728   9.457  31.198  14.916
23946W        W90729  21.718  36.927   3.918
23947W        W90730   6.909  34.971   1.821
23948W        W90731   2.048   1.319  14.523
23949W        W90732  24.715  12.804   1.672
23950W        W90733  29.535  10.622  12.458
23951W        W90734  17.806  26.590   3.652
23952W        W90735  33.890  28.682   1.274
23953W        W90736  17.246  24.154  13.457
23954W        W90737   4.360  19.612   4.366
23955W        W90738   4.171  24.038   1.296
23956W        W90739   0.764  37.614   1.294
23957W        W90740  41.451   9.396  12.583
23958W        W90741  32.171  33.597  14.780
23959W        W90742  27.027  38.944   4.374
23960W        W90743   5.261  41.076  11.537
23961W        W90744  21.480   8.493  14.368
23962W        W90745  43.893  14.666   0.703
23963W        W90746  11.204  31.929  13.463
23964W        W90747  40.502  11.276  10.362
23965W        W90748   9.369  29.386   0.373
23966W        W90749  39.975  27.095   3.309
23967W        W90750  19.268  31.827   2.689
23968W        W90751  28.911  17.097   2.329
23969W        W90752  42.300  13.855  11.238
23970W        W90753  24.557  32.133  11.630
23971W        W90754  26.162  39.758  13.923
23972W        W90755   4.457  22.208   2.139
23973W        W90756   7.328   3.619  13.575
23974W        W90757  19.758  44.910  12.191
23975W        W90758   4.379  40.487  11.432
23976W        W90759  33.510  36.885  13.693
23977W        W90760   6.794  30.980  11.953
23978W        W90761  35.034  33.420   0.563
23979W        W90762  29.762  41.676  11.690
23980W        W90763  40.914  44.004   3.616
23981W        W90764   5.424  29.418  12.056
23982W        W90765  26.249   6.941   4.335
23983W        W90766   3.975  43.915   4.574
23984W        W90767  27.036   9.624  12.959
23985W        W90768  13.950  15.637   2.357
23986W        W90769  20.234  27.715   4.040
23987W        W90770  24.525   9.642   3.211
23988W        W90771  39.372  13.267  14.024
23989W        W90772   8.167   3.007  13.795
23990W        W90773   4.186   7.584   0.656
23991W        W90774  27.566   0.917  11.495
23992W        W90775   1.773  27.902   4.521
23993W        W90776  30.717  41.326   4.101
23994W        W90777  15.874   2.479  12.046
23995W        W90778  24.535  34.516  11.969
23996W        W90779  11.071  26.229  11.968
23997W        W90780  22.095  24.102   0.423
23998W        W90781  25.850   8.599  10.016
23999W        W90782  14.707   6.832   4.320
24000W        W90783  40.383  29.497   1.834
24001W        W90784  24.190   0.746   2.201
24002W        W90785  19.608  21.338   3.197
24003W        W90786  17.893   0.895   4.246
24004W        W90787   9.477   7.753   1.746
24005W        W90788   6.365  18.835   1.813
24006W        W90789  39.224  28.028   3.761
24007W        W90790  36.474  26.440  14.424
24008W        W90791  42.486   4.911   3.093
24009W        W90792  17.730  15.152   2.877
24010W        W90793  23.393  41.900  10.179
24011W        W90794  23.098  43.435   4.630
24012W        W90795  34.268  15.732   4.596
24013W        W90796  17.168  11.886   1.548
24014W        W90797  43.472  26.856   3.823
24015W        W90798  36.694  27.179   0.935
24016W        W90799  31.347  41.017   1.784
24017W        W90800   9.891  37.409   3.685
24018W        W90801  18.302  28.391   3.313
24019W        W90802  38.317  38.291  11.004
24020W        W90803  40.197  34.917  12.499
24021W        W90804   2.890  35.298  13.873
24022W        W90805  11.098  24.304  13.542
24023W        W90806  38.119   2.004  13.438
24024W        W90807   1.729   5.754   0.215
24025W        W90808  23.948  42.452   1.668
24026W        W90809  40.068   9.356  13.719
24027W        W90810  43.709  37.153   4.388
24028W        W90811   9.972  34.992   4.572
24029W        W90812  31.311  12.058  11.125
24030W        W90813  43.892  28.181   0.341
24031W        W90814   0.026  33.829  14.783
24032W        W90815  16.095   2.505  10.658
24033W        W90816  37.083  23.989   1.510
24034W        W90817  26.681  31.679  11.125
24035W        W90818  22.199  18.969  11.669
24036W        W90819  29.103  31.392  12.844
24037W        W90820   6.692  44.794  10.673
24038W        W90821   0.371  43.999   1.265
24039W        W90822  20.752   9.178   4.163
24040W        W90823   7.141   3.762   4.430
24041W        W90824  12.900   4.795  11.081
24042W        W90825   3.448  35.238   4.035
24043W        W90826   6.817  20.026  11.991
24044W        W90827  42.278  20.218   4.379
24045W        W90828   1.678  35.870  14.529
24046W        W90829  42.282  42.952   2.330
24047W        W90830  27.302  26.089  11.647
24048W        W90831  11.887   8.972   2.910
24049W        W90832  37.306  25.143  11.035
24050W        W90833  33.420  27.011  12.059
24051W        W90834   4.920  37.614  11.104
24052W        W90835  14.790  14.773  11.839
24053W        W90836  34.840  39.381  12.449
24054W        W90837   1.809   7.696   9.996
24055W        W90838   8.756  28.723  11.295
24056W        W90839  43.050   4.489  10.624
24057W        W90840  28.537  40.551  13.931
24058W        W90841   0.333   4.269   3.143
24059W        W90842  43.828  34.399  10.859
24060W        W90843  12.438  31.599   1.013
24061W        W90844   5.342   5.738  13.796
24062W        W90845  14.261  33.963   0.263
24063W        W90846  30.365  24.114  11.595
24064W        W90847  14.376  22.145   4.119
24065W        W90848  24.316  33.917  10.727
24066W        W90849  42.224  13.733   3.609
24067W        W90850  26.203   3.727  11.593
24068W        W90851   4.257  35.863   3.746
24069W        W90852  30.177  29.075   4.717
24070W        W90853  44.187  31.281   3.384
24071W        W90854   5.542  13.914   2.304
24072W        W90855  19.042  23.176  14.981
24073W        W90856  17.822   9.564   3.367
24074W        W90857  35.214   8.873   1.644
24075W        W90858   2.593  36.014   1.796
24076W        W90859  24.081  26.663   1.225
24077W        W90860  36.600  34.039  11.633
24078W        W90861   0.336  30.629  14.362
24079W        W90862  12.325  32.611  11.496
24080W        W90863  29.924  26.426  14.386
24081W        W90864   9.428  29.892  14.376
24082W        W90865  26.178  41.795  11.619
24083W        W90866   3.323   7.841  10.750
24084W        W90867   6.376  38.950  12.824
24085W        W90868  11.144   6.926   0.687
24086W        W90869   4.289  12.886  14.693
24087W        W90870   2.264  31.843  13.904
24088W        W90871   5.268  26.398   0.045
24089W        W90872  22.946  27.233  12.446
24090W        W90873  22.225  26.879   2.289
24091W        W90874  18.525  34.715  14.810
24092W        W90875  35.138  25.979  12.579
24093W        W90876  44.386  13.759   0.835
24094W        W90877  13.297  15.039   2.860
24095W        W90878  13.751   4.349   3.056
24096W        W90879  38.606   8.199   9.842
24097W        W90880  34.592  10.372  11.040
24098W        W90881   8.616  39.424   3.669
24099W        W90882  16.113   2.343   4.226
24100W        W90883   8.754  42.512   3.734
24101W        W90884   3.719  23.384  10.750
24102W        W90885  24.605  16.655  11.500
24103W        W90886  39.561  25.682  12.928
24104W        W90887  21.452  16.200   2.729
24105W        W90888   3.021   0.230  13.996
24106W        W90889  11.710  33.077  13.297
24107W        W90890  27.105   6.306  11.180
24108W        W90891  32.007   5.629   2.718
24109W        W90892  29.387  19.164  11.481
24110W        W90893  21.471  31.641   4.491
24111W        W90894  39.581  39.134   1.325
24112W        W90895  44.040  25.474  14.883
24113W        W90896  22.565   5.233  12.642
24114W        W90897  26.715   8.132   2.058
24115W        W90898  10.870  37.341  12.086
24116W        W90899   5.279  44.010  14.386
24117W        W90900  34.970  15.190  12.896
24118W        W90901  42.771  33.735   1.266
24119W        W90902   4.461  30.766   2.603
24120W        W90903  35.168  19.405   0.277
24121W        W90904  10.307  15.756   4.594
24122W        W90905  16.225  34.936   2.481
24123W        W90906  25.469  24.486  14.809
24124W        W90907  24.565  28.093   2.165
24125W        W90908  36.977  44.669  11.510
24126W        W90909   2.024  12.075   3.697
24127W        W90910  20.773  27.172   0.289
24128W        W90911   6.486  37.558   5.123
24129W        W90912  20.962  23.128   2.484
24130W        W90913   2.251  41.451  10.693
24131W        W90914  35.691  10.831   3.717
24132W        W90915  30.612  36.964  12.821
24133W        W90916   2.229   5.130  12.349
24134W        W90917   3.687  41.556  11.622
24135W        W90918   9.117  36.521  14.985
24136W        W90919  13.031  11.455  12.060
24137W        W90920   8.729  14.401  12.172
24138W        W90921  10.905  33.834   4.528
24139W        W90922  42.375  44.718   3.702
24140W        W90923  18.246  27.120  11.651
24141W        W90924  22.569  37.860   1.818
24142W        W90925  20.253   5.438  12.945
24143W        W90926  42.523  11.803   1.426
24144W        W90927  34.119  22.628   4.565
24145W        W90928  13.198  28.417  13.541
24146W        W90929  28.014  18.895   1.055
24147W        W90930  39.435  35.419   4.601
24148W        W90931  35.080   4.181  10.198
24149W        W90932   8.154  19.197   1.886
24150W        W90933  29.857  39.485   5.045
24151W        W90934  34.713  20.025   4.061
24152W        W90935  44.157  25.583   3.437
24153W        W90936  22.018  42.589   0.163
24154W        W90937  27.682   6.604  12.889
24155W        W90938   7.208   9.753  11.672
24156W        W90939  22.634   4.421  11.146
24157W        W90940  40.802  29.154   3.229
24158W        W90941  13.581  10.418  12.835
24159W        W90942  21.698  28.706   2.294
24160W        W90943  39.783  44.329  11.599
24161W        W90944  41.399  27.504  14.534
24162W        W90945  31.477  30.080   1.333
24163W        W90946   5.283  16.562   2.378
24164W        W90947  38.089  39.072  11.173
24165W        W90948  43.406  21.246   3.208
24166W        W90949   6.448  20.643   3.712
24167W        W90950  44.499  29.211   1.499
24168W        W90951  32.701  34.021   2.849
24169W        W90952   9.388  33.100   4.517
24170W        W90953  31.083  40.643   4.654
24171W        W90954  10.966  20.522  10.613
24172W        W90955   1.216  32.009  12.142
24173W        W90956  14.747  23.491  12.001
24174W        W90957  19.332   7.515   0.743
24175W        W90958   8.703   5.932   2.193
24176W        W90959  19.700  20.531   0.503
24177W        W90960  26.653  15.485   4.132
24178W        W90961  43.170  24.723   0.666
24179W        W90962   9.809  26.434   1.439
24180W        W90963  44.827   0.191  12.463
24181W        W90964  40.207  29.024  12.798
24182W        W90965  24.222   8.500  13.792
24183W        W90966   6.870  26.468  14.524
24184W        W90967  36.124   5.831   3.726
24185W        W90968   2.609  41.887   4.071
24186W        W90969  40.831  21.579  13.375
24187W        W90970  39.973   2.955   4.410
24188W        W90971  44.896  43.691  14.069
24189W        W90972  20.695  16.027   3.112
24190W        W90973  34.982   3.782  14.414
24191W        W90974  21.293  23.397  10.492
24192W        W90975   8.806  10.292   2.631
24193W        W90976  37.981  19.488  12.483
24194W        W90977  32.982  33.069  11.631
24195W        W90978  26.347   3.752   9.748
24196W        W90979  35.449   8.337  13.145
24197W        W90980  19.598  33.034   4.621
24198W        W90981  14.674  26.494   3.718
24199W        W90982  17.064  19.707  11.168
24200W        W90983  41.623  20.146  13.308
24201W        W90984  11.915  24.264   2.819
24202W        W90985   7.790  44.906   1.982
24203W        W90986  19.928  13.597   2.007
24204W        W90987   8.620  32.217   0.285
24205W        W90988  32.063  39.809   0.741
24206W        W90989   4.824   7.762  11.558
24207W        W90990  39.746   4.912  14.994
24208W        W90991  43.678   3.931  12.656
24209W        W90992  33.011   4.583  12.724
24210W        W90993  15.081   2.743  12.046
24211W        W90994  26.611   7.279   2.557
24212W        W90995  32.276  39.026  13.804
24213W        W90996  25.049  31.451  12.448
24214W        W90997  16.353  39.874   2.293
24215W        W90998  39.901  25.517   0.674
24216W        W90999  34.974  20.377   0.528
24217W        W91000  13.862  41.269   0.258
24218W        W91001  10.671  44.354  10.067
24219W        W91002  32.780  43.462   3.366
24220W        W91003  12.670   9.955  10.730
24221W        W91004   0.578  28.044  12.151
24222W        W91005   2.800   6.494  12.577
24223W        W91006  14.624  12.829  13.070
24224W        W91007  36.024  17.978  14.527
24225W        W91008  25.397  34.936  12.501
24226W        W91009  16.717  17.754   0.695
24227W        W91010  16.096  13.975   0.233
24228W        W91011  36.446  12.372   0.550
24229W        W91012  27.964  22.233   1.750
24230W        W91013  28.454  32.706   4.091
24231W        W91014  19.515  41.612   5.015
24232W        W91015  34.674  34.177   2.244
24233W        W91016   7.918   8.669  14.134
24234W        W91017   0.777  26.554  11.334
24235W        W91018  13.181  29.478   3.241
24236W        W91019  19.036  13.715  13.820
24237W        W91020  17.537  18.055  11.791
24238W        W91021  32.918  42.705  11.643
24239W        W91022  20.116   3.234  13.473
24240W        W91023  22.479   3.525   0.457
24241W        W91024  17.667  28.127  13.596
24242W        W91025   3.264  21.867   4.112
24243W        W91026   5.841   5.864   1.438
24244W        W91027  17.753   3.324   2.188
24245W        W91028   0.242   8.333   0.887
24246W        W91029  31.822   2.660   4.166
24247W        W91030  15.251  38.006   0.551
24248W        W91031  20.085   4.002   2.214
24249W        W91032  32.461  20.789  14.354
24250W        W91033  33.603   3.681  11.459
24251W        W91034   3.718   9.998  14.206
24252W        W91035  31.170  42.699   2.811
24253W        W91036  18.010  19.666   1.338
24254W        W91037  38.584  35.067  13.462
24255W        W91038  31.581   9.447   0.308
24256W        W91039  31.873   9.173  11.226
24257W        W91040  41.495  19.719   4.882
24258W        W91041  13.751  28.922   1.931
24259W        W91042  22.248  39.365  13.535
24260W        W91043  18.687  14.828  13.819
24261W        W91044  27.052  42.314   2.855
24262W        W91045   5.814  36.591   3.267
24263W        W91046  22.787  44.438   1.652
24264W        W91047  11.683  26.104   2.824
24265W        W91048  40.706   9.673  12.504
24266W        W91049  36.932  11.396   4.500
24267W        W91050  41.858  34.245  11.557
24268W        W91051   4.411  30.761   4.276
24269W        W91052  39.161   1.797  12.789
24270W        W91053  35.492  39.070  11.561
24271W        W91054   5.808  34.787  14.521
24272W        W91055   7.450   0.775  12.136
24273W        W91056  41.064  36.900   1.837
24274W        W91057  43.174  19.273  13.068
24275W        W91058  30.076  41.825  12.526
24276W        W91059  27.648  22.068   3.221
24277W        W91060  36.341   5.191   2.734
24278W        W91061  21.798  26.553   0.030
24279W        W91062  42.807  39.976  12.030
24280W        W91063  33.498  12.802   0.629
24281W        W91064   3.728  15.693   2.697
24282W        W91065  16.536  20.150  12.316
24283W        W91066   1.498  21.054  11.925
24284W        W91067   6.464   7.735   4.369
24285W        W91068  38.007   9.188  12.633
24286W        W91069  21.537  32.599   1.416
24287W        W91070   2.606  16.797  12.101
24288W        W91071  19.231  25.293   3.254
24289W        W91072  14.720  16.952  14.892
24290W        W91073  11.250  24.516  10.569
24291W        W91074  39.898  25.179   0.231
24292W        W91075  43.599   1.896  13.229
24293W        W91076  21.089  12.594  10.623
24294W        W91077  14.637  43.240   1.291
24295W        W91078  44.835  13.297  14.783
24296W        W91079  21.510  28.235   2.233
24297W        W91080  22.352  16.371   3.632
24298W        W91081  38.183  41.937   1.836
24299W        W91082  31.042   3.292   1.456
24300W        W91083  37.390   6.545  13.906
24301W        W91084  26.478   1.069   2.938
24302W        W91085  34.850   4.708   2.174
24303W        W91086  28.445  35.680   2.860
24304W        W91087   2.446  21.351   4.505
24305W        W91088  12.090  42.104  10.543
24306W        W91089  31.607  28.917  14.433
24307W        W91090  38.304  42.441   2.249
24308W        W91091  36.522  29.343   2.244
24309W        W91092  29.891  17.182  10.760
24310W        W91093   9.123  29.008   4.445
24311W        W91094  16.431  44.303   4.454
24312W        W91095   7.675  13.606   3.436
24313W        W91096  15.652  14.861  11.560
24314W        W91097  37.050  43.420  12.613
24315W        W91098  14.642   6.388  12.424
24316W        W91099   7.881  43.232  12.596
24317W        W91100   3.664  17.241  12.689
24318W        W91101  18.296  13.844  14.549
24319W        W91102   3.473  33.926   3.265
24320W        W91103  15.119  19.645  10.994
24321W        W91104  23.664   2.774  12.961
24322W        W91105   6.483  23.156  13.030
24323W        W91106  30.999  12.002   5.218
24324W        W91107   6.661  35.071  13.902
24325W        W91108  26.174  40.021  12.123
24326W        W91109  17.066  13.737   2.766
24327W        W91110  30.093  11.398   4.330
24328W        W91111  42.459  37.065  11.143
24329W        W91112  14.123  43.009   1.216
24330W        W91113   6.225  18.550   4.696
24331W        W91114  34.854  40.704   4.096
24332W        W91115  40.395  36.246   3.290
24333W        W91116   1.035   6.195   3.068
24334W        W91117  37.397  12.615   1.222
24335W        W91118  42.768  17.671   0.027
24336W        W91119  34.155   0.372   0.906
24337W        W91120  38.592  13.055   0.835
24338W        W91121  38.411  32.942  13.433
24339W        W91122  36.423  44.451   3.613
24340W        W91123  24.137  12.779  14.949
24341W        W91124   8.286  22.443  10.410
24342W        W91125   7.499  30.575   4.109
24343W        W91126  36.860  20.164  14.889
24344W        W91127   2.394  33.170   1.646
24345W        W91128   6.922  26.987   1.384
24346W        W91129  11.219  23.629   1.788
24347W        W91130  10.240  41.257  12.701
24348W        W91131  35.931  32.091  11.660
24349W        W91132  42.335  20.226   3.367
24350W        W91133  31.029  34.343  11.541
24351W        W91134   3.817  12.133  14.790
24352W        W91135  18.716  18.050   0.828
24353W        W91136  44.360   6.684   4.484
24354W        W91137  23.245  19.616  13.248
24355W        W91138  21.208  19.337   4.980
24356W        W91139  31.858  38.433  11.750
24357W        W91140  31.448  22.089   1.265
24358W        W91141  23.414  23.642  14.501
24359W        W91142  25.452  12.166   4.056
24360W        W91143  21.444  44.806  13.789
24361W        W91144  29.552   1.753  10.709
24362W        W91145  13.716  11.254  10.781
24363W        W91146  40.619   0.140  13.734
24364W        W91147   4.751  10.778   4.434
24365W        W91148  35.556  30.080  12.999
24366W        W91149  37.795  22.013   3.953
24367W        W91150   1.787  25.279   0.300
24368W        W91151  13.494   0.979   1.683
24369W        W91152  38.559  34.965   0.838
24370W        W91153   2.469  35.642   2.798
24371W        W91154   9.747  29.072  12.124
24372W        W91155  21.978  28.914   0.652
24373W        W91156   4.794  19.764   4.932
24374W        W91157  11.790   1.328   1.903
24375W        W91158  30.945   2.596   0.232
24376W        W91159  29.891  27.606  10.700
24377W        W91160  40.855  36.751  14.025
24378W        W91161  34.248  38.602  12.508
24379W        W91162   4.187  41.774   0.808
24380W        W91163  18.042   5.960  11.977
24381W        W91164  14.684   1.315   2.814
24382W        W91165  16.005   5.568   3.813
24383W        W91166  28.161  19.910   1.220
24384W        W91167  17.495  40.472   4.413
24385W        W91168  35.933  42.998  14.897
24386W        W91169   3.130  35.030   3.687
24387W        W91170   6.137   0.368  13.928
24388W        W91171  30.967  22.462   3.280
24389W        W91172  38.352  25.449   2.863
24390W        W91173  44.192   0.255   9.692
24391W        W91174   7.924  31.302   4.897
24392W        W91175  32.225  36.514  10.421
24393W        W91176  33.896  20.235  14.249
24394W        W91177  43.226  20.152   4.720
24395W        W91178  30.083   4.631   1.400
24396W        W91179   6.978  18.183  12.444
24397W        W91180  40.912  21.275   2.320
24398W        W91181   4.313  14.597  14.508
24399W        W91182  21.236  37.536   3.288
24400W        W91183  39.196  39.344   3.565
24401W        W91184  18.025  23.784  13.209
24402W        W91185   6.367  42.502   1.680
24403W        W91186  26.104   1.139  14.839
24404W        W91187  16.021  36.243  13.382
24405W        W91188  32.326  37.586   2.679
24406W        W91189  40.023   9.002   5.007
24407W        W91190  17.548  23.470  12.921
24408W        W91191   8.579   7.622   2.890
24409W        W91192  13.646  37.483   3.661
24410W        W91193  19.622  14.393  13.443
24411W        W91194  44.275   6.818   1.833
24412W        W91195  23.618  20.528   0.025
24413W        W91196  13.186  17.082  14.271
24414W        W91197   3.492   3.251  11.996
24415W        W91198  37.302   9.289   3.201
24416W        W91199  33.379  43.380  14.786
24417W        W91200  32.072  18.739   2.802
24418W        W91201  20.081   1.212   0.943
24419W        W91202   9.345  32.950  12.955
24420W        W91203  12.023  28.924  14.869
24421W        W91204  20.643  14.769   2.602
24422W        W91205   6.431  24.848  11.177
24423W        W91206  20.776  29.142  14.763
24424W        W91207  31.101   3.208   0.461
24425W        W91208   3.662  26.597  14.751
24426W        W91209   5.709   8.580  11.116
24427W        W91210  22.450  27.248   4.174
24428W        W91211  29.174  29.597  13.515
24429W        W91212  17.329  40.406   3.335
24430W        W91213  24.652  27.132   9.741
24431W        W91214  23.488   6.430   0.678
24432W        W91215   1.547   5.598  14.206
24433W        W91216  39.403  12.620  13.354
24434W        W91217  10.213  27.646   1.174
24435W        W91218  10.702  22.250  11.953
24436W        W91219   0.880  20.242  10.712
24437W        W91220   4.926   5.403   1.234
24438W        W91221  26.214  10.673  11.635
24439W        W91222  15.275  32.121  11.979
24440W        W91223  35.099  29.648  12.024
24441W        W91224  44.237   2.851  13.283
24442W        W91225  28.180  28.457   4.373
24443W        W91226  31.610  31.667  10.518
24444W        W91227  37.124  41.931   2.127
24445W        W91228   7.463   6.839  14.942
24446W        W91229   9.867  44.968   0.417
24447W        W91230   1.562  27.709  13.397
24448W        W91231  40.055   2.341   0.542
24449W        W91232   8.693   1.736   3.895
24450W        W91233  18.057  38.293  14.315
24451W        W91234  42.986  43.567   0.342
24452W        W91235  14.252  28.207  11.550
24453W        W91236  16.847  35.468  11.079
24454W        W91237  25.961  11.161  14.381
24455W        W91238  29.459  35.673  14.915
24456W        W91239  28.925  17.961   3.813
24457W        W91240  43.199  40.525  12.811
24458W        W91241  38.982   4.027   1.265
24459W        W91242  16.624   3.211  14.899
24460W        W91243  35.591   3.034   3.326
24461W        W91244  10.187  14.377   1.171
24462W        W91245  32.941  25.713   1.846
24463W        W91246  28.014  23.311  11.701
24464W        W91247  44.336  17.045  12.917
24465W        W91248   5.961  31.425   3.350
24466W        W91249  18.552  15.687   1.559
24467W        W91250  30.938  24.714  12.875
24468W        W91251  32.137  23.636  11.638
24469W        W91252  26.564   0.241   0.546
24470W        W91253  22.109  36.055   0.328
24471W        W91254  29.829   4.220  14.872
24472W        W91255   9.414  20.549   1.696
24473W        W91256  35.470  31.649   0.412
24474W        W91257   8.584  11.017  10.190
24475W        W91258  37.748   5.387   1.330
24476W        W91259  27.045  18.586  13.238
24477W        W91260  36.102  34.972   1.938
24478W        W91261  22.224  19.981  11.675
24479W        W91262  17.916  34.502   2.145
24480W        W91263  21.963  26.678   3.618
24481W        W91264  39.825  19.849  10.714
24482W        W91265  22.182  44.874  13.050
24483W        W91266  20.190  29.917   2.254
24484W        W91267   8.642   6.662  11.918
24485W        W91268  37.202  17.519   2.320
24486W        W91269   7.672  14.092   1.951
24487W        W91270  19.630   1.404   0.802
24488W        W91271  20.147  39.856  13.804
24489W        W91272  42.374  43.058  12.890
24490W        W91273  37.375  20.223  11.653
24491W        W91274   5.697  36.943  14.870
24492W        W91275   7.228   1.975   0.418
24493W        W91276   1.903  35.603   1.718
24494W        W91277   8.447  20.396  14.884
24495W        W91278   7.131  37.888  13.732
24496W        W91279  32.277  39.568  11.169
24497W        W91280  40.403   8.917  14.831
24498W        W91281  42.702  22.023  12.369
24499W        W91282  27.495  14.454   1.865
24500W        W91283  34.683  39.766  11.202
24501W        W91284  43.235  28.222   1.531
24502W        W91285   7.197  43.665  11.891
24503W        W91286   2.767  36.292  12.391
24504W        W91287   5.987   1.682  14.545
24505W        W91288  40.795  34.342  12.019
24506W        W91289  39.077  26.956  12.650
24507W        W91290  31.101  24.685  14.258
24508W        W91291  20.466  40.817  10.661
24509W        W91292   7.359   2.500   4.541
24510W        W91293   5.179  28.447  14.195
24511W        W91294   3.821  18.100   3.183
24512W        W91295  29.114  22.982  14.995
24513W        W91296  21.165  41.059  12.513
24514W        W91297  28.742   1.957   4.156
24515W        W91298  39.060  24.906   3.355
24516W        W91299  42.540  16.488   1.749
24517W        W91300   8.221  23.084  12.517
24518W        W91301  25.727   5.033  10.975
24519W        W91302  12.151  22.144   2.735
24520W        W91303  17.589  19.305  13.276
24521W        W91304  28.456  22.750   3.584
24522W        W91305  30.442  34.422  13.852
24523W        W91306  28.871  26.181  12.663
24524W        W91307  17.575  21.700  11.500
24525W        W91308   9.747  22.164   2.387
24526W        W91309  18.088   2.838  13.503
24527W        W91310  23.727  39.159  11.147
24528W        W91311  30.647   1.452   4.192
24529W        W91312   5.408   8.403   1.338
24530W        W91313  23.694  22.591  14.256
24531W        W91314  35.578  42.357   2.740
24532W        W91315  34.933  40.395   0.270
24533W        W91316  36.931  32.924   4.528
24534W        W91317  17.886  10.439   2.807
24535W        W91318   3.182  13.352  10.984
24536W        W91319  21.297  39.870   0.251
24537W        W91320  14.786   7.744   0.315
24538W        W91321  17.512   7.187   2.410
24539W        W91322  22.612   3.434  11.107
24540W        W91323  44.439   4.229  14.349
24541W        W91324  16.759  38.525   1.454
24542W        W91325  30.855   3.156  12.007
24543W        W91326  12.012  11.628   9.976
24544W        W91327  41.254  15.129   2.250
24545W        W91328  25.785  32.189   3.175
24546W        W91329  43.079  40.842   3.216
24547W        W91330  13.113  29.419  10.701
24548W        W91331  22.204  25.976   4.346
24549W        W91332  26.211  33.332  13.991
24550W        W91333  10.059   2.420  11.521
24551W        W91334   2.497   9.071  11.873
24552W        W91335   0.292  28.232   4.546
24553W        W91336  35.273  41.578  11.018
24554W        W91337  42.769  19.557  13.948
24555W        W91338  15.783  18.022   2.888
24556W        W91339  26.654  26.974  14.771
24557W        W91340  20.073  35.841  13.099
24558W        W91341   5.425   6.382  13.064
24559W        W91342  40.608  30.416  14.457
24560W        W91343  12.614  20.660   3.643
24561W        W91344  37.136  31.726   1.645
24562W        W91345  22.073  35.392  11.954
24563W        W91346  43.369  26.559   2.366
24564W        W91347  25.514   3.242  11.903
24565W        W91348  35.247  36.697   1.392
24566W        W91349  21.242  15.239  14.694
24567W        W91350   2.133  33.646   0.596
24568W        W91351  33.889  23.934   4.142
24569W        W91352  41.253  18.749   3.543
24570W        W91353  23.444  44.899   4.102
24571W        W91354  21.489  15.758  14.820
24572W        W91355  34.643   6.652  11.580
24573W        W91356   6.879  17.507   2.793
24574W        W91357  12.890  25.044   3.126
24575W        W91358  34.874  14.608   2.707
24576W        W91359  24.693  18.052   2.463
24577W        W91360  19.046  15.066  14.382
24578W        W91361  37.508   5.663   2.142
24579W        W91362  25.650   4.639   1.620
24580W        W91363   2.086  23.259   3.782
24581W        W91364   2.651  25.500  11.201
24582W        W91365   3.907   8.940  14.388
24583W        W91366  34.922  44.807   0.479
24584W        W91367  14.122  40.307  12.468
24585W        W91368  12.691  25.746   3.740
24586W        W91369   9.468   6.390   0.681
24587W        W91370  39.607   9.738   1.945
24588W        W91371  23.559  28.189  12.047
24589W        W91372   5.955  32.214  14.751
24590W        W91373  44.998   7.731   0.288
24591W        W91374  23.692  35.617  11.560
24592W        W91375  41.006  42.148  13.689
24593W        W91376  43.085  12.748   0.285
24594W        W91377  11.353  13.317   2.292
24595W        W91378   7.882  36.127   1.884
24596W        W91379  21.626  32.841  11.827
24597W        W91380  10.162   4.672   3.781
24598W        W91381  19.162  38.160   4.144
24599W        W91382  20.504  17.638   4.710
24600W        W91383  13.167  39.883   1.320
24601W        W91384  16.741  26.772   4.296
24602W        W91385  39.148  31.550  11.194
24603W        W91386  25.920  38.377   1.495
24604W        W91387  39.349   6.732  14.026
24605W        W91388  23.381   6.828   3.877
24606W        W91389  40.413  10.305  10.845
24607W        W91390  35.610  25.041  14.551
24608W        W91391   8.878  18.731   3.323
24609W        W91392  37.026   6.437  11.177
24610W        W91393  40.038   4.516  13.760
24611W        W91394  26.992  12.300  11.521
24612W        W91395  21.049  26.981  12.619
24613W        W91396  23.145  18.976  11.506
24614W        W91397  30.402  39.452  13.789
24615W        W91398  30.914  28.056   1.308
24616W        W91399   1.896   9.063  13.421
24617W        W91400  33.166  10.579   3.751
24618W        W91401  17.729  44.217   1.394
24619W        W91402   8.181  29.824   1.847
24620W        W91403  14.839  33.401  14.833
24621W        W91404  20.549   7.680  13.394
24622W        W91405  18.791  38.279   1.967
24623W        W91406  16.842   7.705  14.562
24624W        W91407  41.328   9.637   0.051
24625W        W91408   4.959  25.688   0.800
24626W        W91409  33.302  30.243   2.634
24627W        W91410  18.625  24.082  10.783
24628W        W91411  39.020  43.569   3.810
24629W        W91412  39.315  15.739  12.423
24630W        W91413  29.437  38.271  11.863
24631W        W91414   7.267  35.634   4.403
24632W        W91415  34.042  20.024   1.704
24633W        W91416  40.474  18.097   2.144
24634W        W91417  11.638  42.103   2.730
24635W        W91418  10.126  43.520  14.389
24636W        W91419  29.560  33.184   2.728
24637W        W91420   3.509  36.930   3.180
24638W        W91421  44.809  23.543   3.673
24639W        W91422  21.028  18.638   2.724
24640W        W91423  18.518  26.108   0.002
24641W        W91424  20.689  35.085   0.859
24642W        W91425  44.726   9.632   2.771
24643W        W91426   4.625  32.105   5.171
24644W        W91427  25.973  28.156   4.140
24645W        W91428  31.982  20.957   3.247
24646W        W91429  32.267  37.943  12.408
24647W        W91430  33.980  43.545  10.672
24648W        W91431  28.195  36.817   0.694
24649W        W91432  12.498  37.625   4.172
24650W        W91433  31.923  15.363  14.472
24651W        W91434  19.139  22.555  13.819
24652W        W91435  34.598  34.865   1.462
24653W        W91436  39.013   1.938   2.335
24654W        W91437  31.321  32.016  10.779
24655W        W91438  18.484  43.319   4.184
24656W        W91439  32.090   0.805  14.820
24657W        W91440  15.822  43.822   2.054
24658W        W91441  13.858   6.232  14.810
24659W        W91442  40.868  27.551  12.557
24660W        W91443  44.460  19.160  11.986
24661W        W91444  28.100  29.537  10.888
24662W        W91445  16.858  11.901  14.453
24663W        W91446   1.421  17.743  14.451
24664W        W91447   7.786   5.838   2.637
24665W        W91448  29.024  16.685  14.866
24666W        W91449  42.772  30.546  12.924
24667W        W91450  22.129   9.757   3.644
24668W        W91451  26.468  13.599  11.525
24669W        W91452  21.548  26.903   3.198
24670W        W91453  41.873   0.002   3.810
24671W        W91454  44.625  32.820   0.990
24672W        W91455  32.594  11.444   1.935
24673W        W91456  32.900  20.483  13.503
24674W        W91457  33.623  36.830  11.182
24675W        W91458  30.504  28.014  12.972
24676W        W91459   3.313  36.058  14.217
24677W        W91460  43.217  44.760  13.752
24678W        W91461  36.638  16.064  13.814
24679W        W91462  39.780  36.565   3.742
24680W        W91463   1.683  18.856   4.903
24681W        W91464  36.912  21.038   2.952
24682W        W91465  21.101  41.077  13.048
24683W        W91466  36.317  32.347  12.078
24684W        W91467   2.784  10.731   3.399
24685W        W91468  25.401  13.686   3.176
24686W        W91469  16.715  24.976  13.822
24687W        W91470  30.192  27.587  12.925
24688W        W91471   1.026   3.073   2.473
24689W        W91472   5.905  26.488  14.470
24690W        W91473  20.110  12.277   4.657
24691W        W91474  31.140   4.964   4.615
24692W        W91475   6.388  28.082   3.269
24693W        W91476  34.822  15.601   4.202
24694W        W91477   6.162  17.056  13.049
24695W        W91478   0.470  40.821   4.419
24696W        W91479  31.861   9.765   4.847
24697W        W91480  18.608   5.930  11.964
24698W        W91481   0.854  13.328  12.601
24699W        W91482   1.935  43.238   0.815
24700W        W91483   2.492  32.152   3.183
24701W        W91484  12.305   0.561   0.333
24702W        W91485  42.818  35.398   0.491
24703W        W91486  30.508  16.839  11.086
24704W        W91487  25.026  38.859   1.724
24705W        W91488  21.779  27.352  13.350
24706W        W91489  26.079  14.311   0.954
24707W        W91490   2.847  41.027  12.051
24708W        W91491  16.295  39.303   1.242
24709W        W91492  24.677   9.925   4.441
24710W        W91493   9.828  33.494   0.241
24711W        W91494  22.074  16.513   3.212
24712W        W91495  25.445   6.518   2.923
24713W        W91496  32.140  22.100  11.677
24714W        W91497  28.424  15.267  10.391
24715W        W91498  20.023  11.047   0.965
24716W        W91499  33.260  18.991   4.739
24717W        W91500   2.960   3.005   0.193
24718W        W91501  18.468  38.559  14.167
24719W        W91502  27.045  36.097   3.381
24720W        W91503  36.311   0.256  11.966
24721W        W91504  26.034  20.369  12.674
24722W        W91505   5.796   5.838  13.570
24723W        W91506  41.377  23.104   4.369
24724W        W91507   2.326  38.344  12.395
24725W        W91508  18.325   0.397  14.108
24726W        W91509  10.276  42.562  13.322
24727W        W91510  16.808  19.581  11.633
24728W        W91511  12.328  18.329  14.773
24729W        W91512  36.570  23.109  14.973
24730W        W91513   2.536  37.037  14.008
24731W        W91514  15.655  33.987  14.181
24732W        W91515  38.628  22.820  13.428
24733W        W91516   7.423  29.437   0.520
24734W        W91517   1.980  36.488  14.883
24735W        W91518  37.331   4.726   4.511
24736W        W91519  27.405  30.733  12.505
24737W        W91520  40.357   4.903  12.473
24738W        W91521   4.221  36.488   4.420
24739W        W91522  23.609   6.931  13.453
24740W        W91523  28.376  20.183   0.472
24741W        W91524   7.894  34.331  11.182
24742W        W91525  10.652  23.018  12.931
24743W        W91526  10.157   4.167  10.624
24744W        W91527  31.660  44.691  11.604
24745W        W91528   1.694   5.934   4.855
24746W        W91529  14.016  35.570  11.596
24747W        W91530  12.421   6.310   2.843
24748W        W91531  25.449  11.584   3.333
24749W        W91532  32.880  30.462  13.575
24750W        W91533  16.393  25.649  11.634
24751W        W91534  41.469  29.171   1.132
24752W        W91535  29.452  20.475   1.360
24753W        W91536  20.614  25.905   1.975
24754W        W91537   0.937  14.114  10.978
24755W        W91538  38.776  34.404  14.864
24756W        W91539  42.171  33.438   1.698
24757W        W91540  37.237  40.536   3.864
24758W        W91541  15.801  18.287  14.038
24759W        W91542  14.643   6.279   1.911
24760W        W91543  24.964   8.475  11.663
24761W        W91544  32.934  27.991  12.933
24762W        W91545  15.622  17.666  13.303
24763W        W91546  37.930  19.881  13.865
24764W        W91547  26.226  30.798   0.308
24765W        W91548  14.526  14.072  13.928
24766W        W91549  15.624  43.887  12.055
24767W        W91550  35.445  19.944   0.766
24768W        W91551  40.353  32.329   2.442
24769W        W91552  32.202  43.678  12.390
24770W        W91553  36.549  10.607  14.291
24771W        W91554   3.296  18.353   1.687
24772W        W91555  20.372  16.717  11.092
24773W        W91556   1.277  31.005   0.187
24774W        W91557  31.483  29.108  11.391
24775W        W91558   2.852  13.930   2.867
24776W        W91559  10.769  41.634  11.181
24777W        W91560  22.225   2.292   0.457
24778W        W91561  31.415   8.203   3.135
24779W        W91562  29.020  31.481  13.927
24780W        W91563   8.554  41.242   2.137
24781W        W91564  35.027  31.023  13.469
24782W        W91565  36.541  21.037  13.863
24783W        W91566  16.775  14.590  12.952
24784W        W91567   1.848  17.810  10.976
24785W        W91568  31.598   4.950  14.897
24786W        W91569  29.189   6.050   1.906
24787W        W91570  17.574  36.322  12.408
24788W        W91571   6.189  37.383  14.912
24789W        W91572  13.713  19.283   1.204
24790W        W91573  20.729   3.874   1.861
24791W        W91574  34.652  11.475   3.617
24792W        W91575  27.605  33.527  13.500
24793W        W91576   1.421  19.085  10.761
24794W        W91577  36.588  42.032   1.024
24795W        W91578  28.184   7.185  13.853
24796W        W91579  30.115  41.521   4.154
24797W        W91580  33.236  38.733  14.699
24798W        W91581  34.339  33.895  13.452
24799W        W91582  26.146  23.753  13.872
24800W        W91583  33.535  21.200  12.656
24801W        W91584   1.902   8.018  13.519
24802W        W91585  14.044  44.127  11.587
24803W        W91586   9.325  34.095   2.812
24804W        W91587  11.230  44.856   0.964
24805W        W91588   0.302   5.278  13.790
24806W        W91589  38.000   6.919   3.677
24807W        W91590  10.637   5.847   0.046
24808W        W91591  32.742   8.329   4.073
24809W        W91592   3.420  32.337  11.557
24810W        W91593   3.300  12.113   2.729
24811W        W91594  41.431   0.963  12.195
24812W        W91595  16.044  14.850   1.245
24813W        W91596   6.853  27.723  12.349
24814W        W91597  18.066   5.877   4.401
24815W        W91598  19.736  19.623   2.755
24816W        W91599  44.338  11.902   1.253
24817W        W91600  23.003  20.122   2.645
24818W        W91601  11.724  27.440   2.381
24819W        W91602  18.475  15.306  10.829
24820W        W91603  22.740  12.939  10.973
24821W        W91604  44.791  22.497  14.529
24822W        W91605  35.912   3.835   3.657
24823W        W91606  10.669  14.808   0.882
24824W        W91607  15.793  11.727   1.327
24825W        W91608  43.283  29.652   2.218
24826W        W91609   8.492  38.501   4.204
24827W        W91610  22.816  43.400  11.074
24828W        W91611  19.706  11.386  13.965
24829W        W91612   7.387  13.116   4.549
24830W        W91613  35.251  44.861   2.266
24831W        W91614  17.490  26.914  13.876
24832W        W91615  33.425   4.201  12.802
24833W        W91616  36.275  17.750  12.154
24834W        W91617  44.298  23.500   3.700
24835W        W91618   6.960  44.524  14.589
24836W        W91619  23.150  36.185  11.047
24837W        W91620   6.948  31.998   3.657
24838W        W91621  28.763  28.474  12.131
24839W        W91622  18.676  35.800   4.099
24840W        W91623  17.822  25.801   1.225
24841W        W91624  44.802  26.206  11.533
24842W        W91625  34.690   8.278   2.703
24843W        W91626  18.187  36.475   3.750
24844W        W91627  16.211   7.272  12.030
24845W        W91628  22.223   4.682  11.089
24846W        W91629  40.299  32.512  11.571
24847W        W91630  37.857  32.819   3.180
24848W        W91631  40.772   4.923  11.564
24849W        W91632   0.242   0.522  11.228
24850W        W91633  21.981   4.402   1.992
24851W        W91634  11.259   4.936  10.491
24852W        W91635   1.949  26.748   4.236
24853W        W91636  10.712  30.052  14.505
24854W        W91637  37.700  14.471  11.454
24855W        W91638  27.032  27.484   1.668
24856W        W91639   6.389  20.646  11.885
24857W        W91640  24.254  25.045  14.678
24858W        W91641  44.367   0.343   2.444
24859W        W91642  14.600   6.160   1.396
24860W        W91643  14.768   3.823  11.668
24861W        W91644  15.998  41.599   3.404
24862W        W91645  13.982  40.968  14.423
24863W        W91646  30.028  24.454   3.665
24864W        W91647  20.735  39.129   4.807
24865W        W91648   8.665  42.534   0.097
24866W        W91649   1.299   2.432  13.472
24867W        W91650   6.565  38.361  11.631
24868W        W91651  29.520  12.907   1.449
24869W        W91652   8.682  18.715   1.487
24870W        W91653   9.944   5.300  14.783
24871W        W91654  23.101   1.422   1.694
24872W        W91655  19.369   4.253   0.117
24873W        W91656  38.489  27.059   2.706
24874W        W91657  31.671   3.380  11.156
24875W        W91658  33.270  33.609   2.322
24876W        W91659   3.018  10.286   4.665
24877W        W91660  38.816  30.583  11.409
24878W        W91661   9.599  41.902  13.717
24879W        W91662  39.391  39.536  12.414
24880W        W91663   6.996  41.195   4.791
24881W        W91664  14.252  33.593   1.516
24882W        W91665  39.582  13.296  14.512
24883W        W91666  15.286  26.996  11.864
24884W        W91667  15.574   3.389  11.638
24885W        W91668  29.098  44.423  12.639
24886W        W91669   3.180  10.252   4.168
24887W        W91670  31.501  28.387   4.380
24888W        W91671  39.909  21.734  11.065
24889W        W91672  37.615   0.485  11.616
24890W        W91673  18.217  14.111  14.973
24891W        W91674  23.017  41.964  11.148
24892W        W91675  20.529  39.608   4.218
24893W        W91676  42.573  32.006  13.422
24894W        W91677  34.006   4.613   4.124
24895W        W91678  14.096  25.339   2.877
24896W        W91679  27.647  15.728   1.297
24897W        W91680  13.505  30.813  14.462
24898W        W91681  16.231  22.039  13.801
24899W        W91682  29.101  25.615  13.109
24900W        W91683  27.057  22.280   1.928
24901W        W91684   4.955  39.777  12.882
24902W        W91685  14.626  28.950   1.892
24903W        W91686   9.827  19.803  13.967
24904W        W91687  35.017   7.594   0.948
24905W        W91688  42.412   5.065   1.218
24906W        W91689  19.648  17.585   0.838
24907W        W91690  10.519  30.721  11.846
24908W        W91691  11.766  23.707   1.370
24909W        W91692  11.350  38.592  14.316
24910W        W91693   4.449  36.367  11.901
24911W        W91694  28.058   4.440  11.186
24912W        W91695  12.349  37.712  10.844
24913W        W91696  42.560   2.993  12.384
24914W        W91697  32.155  11.457   4.593
24915W        W91698  26.665  38.965   2.080
24916W        W91699   1.960  31.420  11.536
24917W        W91700  42.068  34.338  12.552
24918W        W91701   4.833   6.335  11.727
24919W        W91702  43.060  22.503   0.384
24920W        W91703  25.193   6.716   1.621
24921W        W91704   1.846  10.610   3.281
24922W        W91705  11.878  15.815   2.345
24923W        W91706   3.755  12.270   3.281
24924W        W91707  11.247  23.201  13.903
24925W        W91708   5.815  15.088   1.992
24926W        W91709  34.224  44.105  13.968
24927W        W91710   3.953  36.311  13.569
24928W        W91711  32.902  32.509  11.113
24929W        W91712  37.105   7.961  10.647
24930W        W91713   8.917  10.422   1.284
24931W        W91714  32.621  25.388   0.898
24932W        W91715  42.354  38.418  14.322
24933W        W91716  40.569  32.323  11.178
24934W        W91717  28.974  20.050   0.380
24935W        W91718  39.603  18.083   2.304
24936W        W91719  32.897  30.494  14.543
24937W        W91720  19.249  43.452   4.087
24938W        W91721  43.959  40.389  11.067
24939W        W91722   3.716  32.989   3.842
24940W        W91723  28.531   7.632   3.886
24941W        W91724  27.473   9.744  11.828
24942W        W91725  31.981  25.781   4.569
24943W        W91726  22.439  25.698   1.670
24944W        W91727  37.796   1.940   4.057
24945W        W91728  27.612  11.119   1.668
24946W        W91729   8.772  31.222   1.183
24947W        W91730   7.270   9.864   3.905
24948W        W91731   6.896  38.040   3.487
24949W        W91732   4.489  38.847  12.510
24950W        W91733  14.740  11.129   4.860
24951W        W91734   6.324  11.838   1.859
24952W        W91735   4.905  42.032  14.946
24953W        W91736  40.863  39.429   2.792
24954W        W91737   6.554  24.466  11.525
24955W        W91738  33.262  35.810  10.455
24956W        W91739  27.638   7.237  13.524
24957W        W91740  14.116  24.552   3.386
24958W        W91741  38.351  40.562   0.970
24959W        W91742  16.275  20.600  10.408
24960W        W91743  23.950   5.545   3.237
24961W        W91744  41.453  24.569  11.639
24962W        W91745  37.297  16.094   3.979
24963W        W91746  32.419  39.068  11.072
24964W        W91747  16.814  24.012   3.113
24965W        W91748  24.659   4.987   4.434
24966W        W91749  27.111  44.915   2.212
24967W        W91750  11.652  40.071   1.325
24968W        W91751  26.325   3.491   1.020
24969W        W91752  28.898  16.340   1.849
24970W        W91753  16.696  43.867   1.728
24971W        W91754   4.854  36.027  10.428
24972W        W91755  35.413  36.939  10.862
24973W        W91756   0.889  35.999  14.895
24974W        W91757  41.824  30.010  12.915
24975W        W91758   3.082   8.330  14.865
24976W        W91759   6.717  41.777   4.322
24977W        W91760  20.738  24.999   2.255
24978W        W91761  15.383   9.188  13.361
24979W        W91762  40.050  38.579  13.069
24980W        W91763  28.015  42.887  13.331
24981W        W91764  12.499  42.919   0.829
24982W        W91765   7.181  31.791   4.057
24983W        W91766  22.304   0.804   2.744
24984W        W91767   6.926  10.837  12.093
24985W        W91768   6.874  44.844   0.820
24986W        W91769  32.963   5.044  14.096
24987W        W91770  39.500   1.051  13.316
24988W        W91771  29.476   6.756  13.880
24989W        W91772  43.729  15.705   4.638
24990W        W91773   2.856  35.095   3.257
24991W        W91774  11.188  41.006   4.750
24992W        W91775  34.527   2.285  11.043
24993W        W91776  22.674   6.592  12.090
24994W        W91777  20.709  17.771  11.908
24995W        W91778   0.766  13.828  14.497
24996W        W91779  32.401  35.908  11.643
24997W        W91780   3.171  24.318   4.539
24998W        W91781  26.963  12.307   3.726
24999W        W91782  34.919   8.902  11.152
25000W        W91783  16.035  25.883  12.921
25001W        W91784  31.087   5.756  14.836
25002W        W91785   5.632  31.559   4.564
25003W        W91786  30.137  35.640   4.702
25004W        W91787  12.841  13.934   3.215
25005W        W91788   1.959  33.416  12.163
25006W        W91789   9.757  37.921   0.528
25007W        W91790  33.074  16.241  12.871
25008W        W91791  37.247  16.349   3.022
25009W        W91792  13.618  12.037  11.587
25010W        W91793  21.790   3.944  13.482
25011W        W91794  19.785  40.149  14.056
25012W        W91795  29.426  25.739   1.236
25013W        W91796  42.623  24.363  11.187
25014W        W91797  35.019   1.991  13.958
25015W        W91798  16.465  23.489  11.396
25016W        W91799  39.118  19.183   2.292
25017W        W91800  33.850  42.900  12.021
25018W        W91801  22.526  30.733  13.411
25019W        W91802  15.112  24.982   4.787
25020W        W91803  23.329  26.680  11.275
25021W        W91804   8.780  10.820  10.671
25022W        W91805  21.563  19.197  13.018
25023W        W91806   9.105  17.341   3.658
25024W        W91807   1.849  42.048   3.091
25025W        W91808   9.190  22.133   0.854
25026W        W91809   1.795  29.016   3.300
25027W        W91810  34.625  14.045  12.403
25028W        W91811  37.931  10.369  14.398
25029W        W91812  23.998  13.358  14.057
25030W        W91813  37.491   7.145  13.244
25031W        W91814   1.243   3.904   0.284
25032W        W91815  42.991   9.532  11.161
25033W        W91816  35.005  44.299  13.425
25034W        W91817  43.772   9.866   3.213
25035W        W91818  18.190   9.300  12.632
25036W        W91819  17.651  42.954  13.535
25037W        W91820  13.066  30.532  14.770
25038W        W91821  14.856  37.706   3.244
25039W        W91822   2.524  10.808   3.831
25040W        W91823  36.693  35.569   4.164
25041W        W91824  27.005  37.793   0.123
25042W        W91825  17.658   4.627   3.220
25043W        W91826   1.807  14.236  10.731
25044W        W91827  38.979  32.737   1.618
25045W        W91828  30.328  21.078   4.530
25046W        W91829  41.657  33.503   3.620
25047W        W91830  23.433   0.334  11.816
25048W        W91831  24.080  41.772   0.916
25049W        W91832  28.461  22.575  11.645
25050W        W91833   7.874  18.708   1.876
25051W        W91834  18.094  20.416   0.216
25052W        W91835  38.305   1.014   2.582
25053W        W91836  40.846  32.016   2.534
25054W        W91837   0.317   1.234  13.893
25055W        W91838  36.628  43.271  11.100
25056W        W91839  27.643  11.434  12.953
25057W        W91840  18.751  29.434   3.695
25058W        W91841  19.268  33.854  11.123
25059W        W91842  12.740  25.563   0.824
25060W        W91843   5.776  12.851  13.413
25061W        W91844  16.186  37.267   3.237
25062W        W91845  18.600  42.362   4.511
25063W        W91846  31.181  15.111   2.498
25064W        W91847   0.864  32.984  12.443
25065W        W91848  26.029  12.718   2.696
25066W        W91849  34.412  30.110  13.921
25067W        W91850  30.057  23.512   0.235
25068W        W91851  44.096  40.374   2.568
25069W        W91852  18.373  31.061  13.892
25070W        W91853  15.142  39.989  10.875
25071W        W91854  11.799  34.468   2.410
25072W        W91855  29.601   8.604   1.370
25073W        W91856  11.219  36.608   2.264
25074W        W91857  17.011  29.500  10.208
25075W        W91858  19.631  35.547   1.963
25076W        W91859  23.470  36.454   4.829
25077W        W91860  29.710   2.866   1.708
25078W        W91861  39.968  33.171   0.999
25079W        W91862  11.393  20.178  10.612
25080W        W91863  24.914   0.861   4.595
25081W        W91864  31.077  20.550  11.630
25082W        W91865  28.992   7.523   4.512
25083W        W91866   7.373  30.472  11.556
25084W        W91867  34.574   4.197   3.467
25085W        W91868  23.633  38.916  12.506
25086W        W91869   3.726  36.385  12.501
25087W        W91870  41.819  20.994  11.989
25088W        W91871  16.236  18.725  10.825
25089W        W91872  24.488  28.691  14.812
25090W        W91873  10.674  21.467   3.693
25091W        W91874  15.245   9.645  12.108
25092W        W91875  32.503  22.727  11.202
25093W        W91876  30.580   1.702  12.265
25094W        W91877   3.442  14.563  11.094
25095W        W91878  44.705  25.053  11.537
25096W        W91879  34.103  27.032   4.657
25097W        W91880  23.945   2.879   1.874
25098W        W91881  23.852  11.236  13.558
25099W        W91882   3.774  31.489   0.771
25100W        W91883  40.818  11.222   1.256
25101W        W91884   0.598  16.494   4.618
25102W        W91885  17.223  42.448   2.542
25103W        W91886  41.756  21.439   3.677
25104W        W91887   3.926   4.263   3.714
25105W        W91888  36.335  44.329   1.646
25106W        W91889  40.082  26.570  12.934
25107W        W91890   6.700   1.991   1.414
25108W        W91891  42.571  43.272   0.434
25109W        W91892   1.026  30.418  14.179
25110W        W91893   3.859  38.616  14.002
25111W        W91894  26.010  27.207   4.048
25112W        W91895   1.584  19.177  11.637
25113W        W91896  17.537   8.758  10.318
25114W        W91897   1.449   8.278  14.587
25115W        W91898  18.634  20.199   1.916
25116W        W91899   7.246  31.454  13.481
25117W        W91900  27.919  15.353   3.805
25118W        W91901  29.555  31.190  14.796
25119W        W91902  27.153  30.465  14.468
25120W        W91903  18.824   6.889   3.701
25121W        W91904  35.823  20.101  12.506
25122W        W91905  35.837  11.358  14.948
25123W        W91906  22.446  17.729   0.897
25124W        W91907  22.938  13.564  11.114
25125W        W91908  34.923  42.384  14.378
25126W        W91909  22.401  39.801  13.744
25127W        W91910  14.093  10.298   3.693
25128W        W91911  40.393  17.483   0.866
25129W        W91912  36.483  12.846  10.892
25130W        W91913   1.469  20.021  13.080
25131W        W91914  33.380  42.707  12.320
25132W        W91915   0.940  23.964  11.136
25133W        W91916  18.218  24.713  11.617
25134W        W91917   2.145  37.552   0.241
25135W        W91918  44.706  24.055  12.589
25136W        W91919  38.126   6.407   2.304
25137W        W91920  20.570   6.886  13.058
25138W        W91921  10.609  28.531  12.412
25139W        W91922  36.116  12.533  11.052
25140W        W91923  14.425  37.073  13.421
25141W        W91924  12.763   2.930  10.427
25142W        W91925  44.758   2.279   0.290
25143W        W91926  17.551  13.132   3.647
25144W        W91927  39.968  43.479   1.706
25145W        W91928  42.102  44.065   1.189
25146W        W91929  40.295  20.110   1.283
25147W        W91930  27.921   6.455  11.208
25148W        W91931  23.276  10.634  10.369
25149W        W91932  16.323  20.345  13.679
25150W        W91933  27.939   4.364   2.960
25151W        W91934   4.145  40.960  12.149
25152W        W91935   9.742   0.735   1.959
25153W        W91936   9.346  20.788   3.161
25154W        W91937  15.337  33.149  10.793
25155W        W91938  42.943  11.312   2.573
25156W        W91939  37.041   8.873  13.351
25157W        W91940  12.786  26.206   1.958
25158W        W91941  13.050  40.907  10.780
25159W        W91942   1.015  32.628   1.462
25160W        W91943  43.997   5.458  10.597
25161W        W91944  31.840  22.787   0.382
25162W        W91945  37.900  25.018   2.266
25163W        W91946  23.525  19.676   1.291
25164W        W91947   5.898  39.386  14.831
25165W        W91948  27.519  43.721  14.079
25166W        W91949  38.310   3.003   3.084
25167W        W91950  22.014   1.398  14.775
25168W        W91951  32.457  30.280   1.255
25169W        W91952  22.629   7.372  13.766
25170W        W91953  16.793   3.250   1.277
25171W        W91954   7.510  35.374  14.166
25172W        W91955  44.471   8.198  13.948
25173W        W91956  12.713  25.527   3.258
25174W        W91957  37.398  36.993  13.316
25175W        W91958  36.019  25.222   3.150
25176W        W91959  41.593  19.710   3.943
25177W        W91960  37.865  37.882  13.087
25178W        W91961  14.216   9.257  12.576
25179W        W91962   0.575  38.562   0.930
25180W        W91963  42.813  24.912   2.807
25181W        W91964  32.451  13.259   0.012
25182W        W91965  23.225  38.822   3.197
25183W        W91966  11.585  25.634   1.855
25184W        W91967  38.453  34.863  14.839
25185W        W91968  34.965  35.665  11.147
25186W        W91969   9.957  34.455  13.023
25187W        W91970  18.624  37.512   1.430
25188W        W91971   1.993   8.354  11.686
25189W        W91972   2.542  31.600  14.447
25190W        W91973   7.725   6.123  13.004
25191W        W91974  16.227  27.058   1.040
25192W        W91975  24.966  29.437   1.272
25193W        W91976  24.641  31.814  14.197
25194W        W91977  14.264  23.688  13.800
25195W        W91978  16.485  17.082  14.289
25196W        W91979  16.541  35.079   0.206
25197W        W91980  43.294  24.689   0.177
25198W        W91981   0.676  26.108   3.668
25199W        W91982  12.090  19.226   4.009
25200W        W91983  32.581  29.331  11.602
25201W        W91984  11.167  43.797  11.152
25202W        W91985  15.276  26.487   3.289
25203W        W91986  40.230  13.148   4.165
25204W        W91987  29.036  29.418  14.854
25205W        W91988   2.532  38.122   0.733
25206W        W91989  13.805   7.184  13.153
25207W        W91990  16.062   8.199  14.399
25208W        W91991  29.946   9.268   0.288
25209W        W91992  28.626  22.533  14.013
25210W        W91993   7.686  14.685  14.716
25211W        W91994   4.418  25.895  13.905
25212W        W91995  36.007  13.176   3.111
25213W        W91996  31.306   8.721   4.855
25214W        W91997  14.114  43.840  12.887
25215W        W91998  21.949  31.035  11.585
25216W        W91999  28.564   8.816  10.987
25217W        W92000  28.551  40.822   1.919
25218W        W92001   6.703  28.933  10.797
25219W        W92002  12.373  22.886  11.874
25220W        W92003   6.235  10.343   1.656
25221W        W92004  13.673  35.180  11.695
25222W        W92005  16.904   6.501   3.688
25223W        W92006  21.045  12.465   4.892
25224W        W92007  35.609  27.957   0.762
25225W        W92008  42.434  43.905  13.970
25226W        W92009  12.762  28.221   4.755
25227W        W92010  41.990  25.497   1.952
25228W        W92011  39.363  15.200  12.571
25229W        W92012   9.581   8.086  12.661
25230W        W92013   5.396  15.032  11.006
25231W        W92014  33.557  32.884   3.617
25232W        W92015  17.274  11.074   2.789
25233W        W92016  37.603  21.422   4.595
25234W        W92017   0.299  37.851   1.326
25235W        W92018   8.204  32.116  12.213
25236W        W92019  32.023  14.529   3.604
25237W        W92020  27.867  14.182  11.230
25238W        W92021  18.657  25.707   4.112
25239W        W92022  22.500   4.915  10.240
25240W        W92023  24.177  32.532  12.986
25241W        W92024  12.382  14.544   4.631
25242W        W92025   2.397  33.759  12.466
25243W        W92026  18.786   0.914   2.793
25244W        W92027  43.316  35.836  14.920
25245W        W92028  32.947  35.935  11.641
25246W        W92029  15.398  28.994   3.139
25247W        W92030   0.540  16.948   1.424
25248W        W92031  41.157   7.116  10.211
25249W        W92032  31.348   2.007  13.310
25250W        W92033  43.562  39.925   1.708
25251W        W92034   1.015  39.055  12.548
25252W        W92035  31.771  24.592   0.469
25253W        W92036  37.494  16.721  11.445
25254W        W92037   8.208  20.470   0.447
25255W        W92038  16.768  20.044  11.404
25256W        W92039   2.703  10.886   0.210
25257W        W92040  37.748  13.340  14.312
25258W        W92041  14.087   4.949   4.078
25259W        W92042  19.963  24.110  10.596
25260W        W92043  18.332   1.190   0.689
25261W        W92044  42.890  18.254   1.244
25262W        W92045  15.523  44.991   0.269
25263W        W92046  20.128  15.702  13.303
25264W        W92047  33.468  27.172  14.396
25265W        W92048   9.538  25.443  14.884
25266W        W92049   0.377  15.844  11.998
25267W        W92050   1.783  27.434  12.982
25268W        W92051  42.901  17.542   9.970
25269W        W92052   8.763  38.285   0.484
25270W        W92053   7.221  18.537   3.594
25271W        W92054  17.650  14.029  12.938
25272W        W92055   5.451  25.617   0.992
25273W        W92056  37.624  38.383  12.207
25274W        W92057  41.325   3.903  14.338
25275W        W92058   5.885  36.764   2.755
25276W        W92059  13.389  21.225   2.729
25277W        W92060   6.532   8.502  10.928
25278W        W92061  14.782  25.503   3.826
25279W        W92062   2.670  21.606   0.285
25280W        W92063  32.817  13.795  12.408
25281W        W92064  39.354  23.967   2.542
25282W        W92065  25.219   8.251   0.956
25283W        W92066  20.491  31.678   0.773
25284W        W92067  38.101  27.532  10.689
25285W        W92068   0.059  18.023   0.491
25286W        W92069  36.932  19.462   1.615
25287W        W92070   6.308  34.031  14.316
25288W        W92071  27.672  40.921   0.656
25289W        W92072  40.449  20.796   3.973
25290W        W92073   1.374  27.455  13.818
25291W        W92074  32.647  12.793   0.735
25292W        W92075  22.314  27.486   1.799
25293W        W92076  17.285  34.355  11.213
25294W        W92077   5.285   7.685  13.423
25295W        W92078  24.245   2.959   2.310
25296W        W92079  38.958  13.349   2.650
25297W        W92080  21.179  25.906   5.068
25298W        W92081  43.457  29.033   0.971
25299W        W92082   2.884  29.951   0.956
25300W        W92083  39.770  21.425  13.785
25301W        W92084  20.287  36.015   3.669
25302W        W92085  16.189  41.869  14.079
25303W        W92086  38.027  10.152   3.889
25304W        W92087  11.736   5.237   2.539
25305W        W92088  17.302  23.032   1.000
25306W        W92089  35.698  18.307   1.904
25307W        W92090  37.164   0.999  10.915
25308W        W92091   4.457  15.416   0.603
25309W        W92092   8.739  10.340  11.693
25310W        W92093  37.864  22.936   3.604
25311W        W92094  30.371  17.100  10.556
25312W        W92095  40.145  16.355   2.903
25313W        W92096   7.248  13.269  13.641
25314W        W92097   4.245   4.276   1.902
25315W        W92098  36.003  36.652  11.601
25316W        W92099  17.797  11.634  13.461
25317W        W92100  25.154   9.947   2.420
25318W        W92101  39.036  19.693   1.228
25319W        W92102   6.460  32.074  11.068
25320W        W92103  12.388  29.097  11.591
25321W        W92104  32.616  32.563   3.288
25322W        W92105  34.127  40.525  12.165
25323W        W92106  15.745  29.834  12.955
25324W        W92107  26.577   2.062   1.988
25325W        W92108  27.361  25.274   3.775
25326W        W92109  27.188  11.833   3.755
25327W        W92110  37.976  35.419  10.915
25328W        W92111  39.300   7.888  10.676
25329W        W92112   7.899  28.175   1.354
25330W        W92113   2.515  41.390  11.128
25331W        W92114  28.133  15.823  10.090
25332W        W92115  31.563  15.928   2.650
25333W        W92116  21.515  14.826   2.926
25334W        W92117   9.865   7.673   0.331
25335W        W92118   3.888   0.904  11.060
25336W        W92119  42.480  12.435   2.817
25337W        W92120  19.909  24.067  11.116
25338W        W92121  18.573  19.658   3.710
25339W        W92122  21.248   1.683  12.219
25340W        W92123  25.477  39.298   4.528
25341W        W92124  10.322  43.998   3.622
25342W        W92125  35.679  11.662   3.109
25343W        W92126  31.002  30.541  13.469
25344W        W92127  12.419  30.476   2.092
25345W        W92128  44.226  27.856  11.214
25346W        W92129  40.803  20.059   3.937
25347W        W92130  37.419  14.613  14.021
25348W        W92131  17.647  20.569  14.987
25349W        W92132  24.076  22.642   2.634
25350W        W92133  33.859  29.620  12.870
25351W        W92134   6.694  20.277  12.423
25352W        W92135   7.742  38.879   3.801
25353W        W92136  14.617  40.529  13.341
25354W        W92137  43.475  43.330   3.649
25355W        W92138  25.027  37.793  14.264
25356W        W92139  40.942  14.637   1.973
25357W        W92140   9.426  17.974   4.796
25358W        W92141  11.157  37.375  13.059
25359W        W92142  25.557  19.280   1.684
25360W        W92143  36.438   1.368   1.740
25361W        W92144   8.617  23.800  12.667
25362W        W92145  36.851  22.993  14.498
25363W        W92146  19.703  13.288   0.471
25364W        W92147  25.667  12.121  12.508
25365W        W92148  21.263  35.957  14.105
25366W        W92149   7.290   1.557   2.443
25367W        W92150   1.403  36.097   3.668
25368W        W92151  31.385  17.963   2.327
25369W        W92152  36.411  18.561  12.297
25370W        W92153  22.467  34.386   0.898
25371W        W92154   4.247   3.744  14.474
25372W        W92155  39.373  41.955  11.734
25373W        W92156   1.669   6.389  12.009
25374W        W92157  21.746  36.086  13.475
25375W        W92158   8.739  40.674  11.617
25376W        W92159  31.474  39.364   3.846
25377W        W92160  36.621   5.273   2.280
25378W        W92161   6.441  42.471  13.705
25379W        W92162  34.435  44.789  11.147
25380W        W92163  20.213  16.056   1.244
25381W        W92164  21.658   3.204  13.000
25382W        W92165   2.758  18.842  13.963
25383W        W92166  40.457  38.943   5.124
25384W        W92167  30.555  36.323  14.592
25385W        W92168  20.665  16.196   4.499
25386W        W92169  31.763   3.791   0.754
25387W        W92170  28.966  27.120   2.732
25388W        W92171  43.163  44.387   1.015
25389W        W92172  17.675  35.035  10.614
25390W        W92173  21.713   7.293   4.491
25391W        W92174  31.389  36.908   4.335
25392W        W92175   9.640  36.331   2.307
25393W        W92176  23.592  16.629  13.015
25394W        W92177  41.714   9.273   0.280
25395W        W92178  13.921  37.846   0.436
25396W        W92179  43.223  22.544  10.765
25397W        W92180  31.034  29.064   4.943
25398W        W92181  35.448  10.632   4.138
25399W        W92182  36.038  39.432   1.218
25400W        W92183  12.122  44.590   1.722
25401W        W92184  40.774  14.121   1.276
25402W        W92185  27.036  17.159  11.247
25403W        W92186  14.559  28.410  12.603
25404W        W92187   4.070   3.996  13.331
25405W        W92188  11.449  15.979  11.827
25406W        W92189  16.035  31.971   3.211
25407W        W92190  23.156  34.739   1.361
25408W        W92191  33.493  44.820   2.571
25409W        W92192   2.800  41.546  11.998
25410W        W92193   3.758  22.180   2.353
25411W        W92194  34.709   8.658   1.581
25412W        W92195  18.971  23.645  14.460
25413W        W92196   4.158   1.535   0.333
25414W        W92197  42.483  11.764   5.021
25415W        W92198  31.829  17.123  14.128
25416W        W92199  23.498  27.061   2.682
25417W        W92200  30.567  24.085  14.717
25418W        W92201  29.891  20.238   9.633
25419W        W92202  43.934  13.469   9.983
25420W        W92203   4.891  41.971   4.606
25421W        W92204  38.584  26.211  13.469
25422W        W92205  34.545  38.530  13.429
25423W        W92206  36.139  21.974  12.700
25424W        W92207  32.711  29.951  11.146
25425W        W92208  24.324  31.165  10.627
25426W        W92209  32.108  43.397   1.750
25427W        W92210  12.656  30.463  11.492
25428W        W92211  39.747  29.147   2.569
25429W        W92212  38.765   0.236  14.074
25430W        W92213   1.892  15.690   1.283
25431W        W92214  44.356   0.190  11.280
25432W        W92215   1.929   4.048   2.399
25433W        W92216  31.233  31.050   4.843
25434W        W92217   3.344  19.859  14.441
25435W        W92218  36.308  33.108   3.199
25436W        W92219  32.086   4.870   1.529
25437W        W92220  43.478  28.629   1.301
25438W        W92221  19.008  41.223  12.925
25439W        W92222  12.902  37.446   3.203
25440W        W92223  11.254  12.308  12.588
25441W        W92224   3.809  24.917   2.316
25442W        W92225  25.548   7.796   1.778
25443W        W92226   6.649  35.570   3.576
25444W        W92227  34.035  18.637   4.131
25445W        W92228   0.904  32.368  12.844
25446W        W92229  31.645   4.200   3.901
25447W        W92230  35.560  43.382   4.246
25448W        W92231   4.545  43.711   3.861
25449W        W92232  20.165  19.626  13.776
25450W        W92233  29.911   9.843  14.467
25451W        W92234  44.784  43.043  10.708
25452W        W92235  25.833  15.630   4.714
25453W        W92236  22.118   4.756  10.565
25454W        W92237  12.565   0.010  14.445
25455W        W92238   2.513   6.733  13.458
25456W        W92239  37.743  43.705  14.204
25457W        W92240  29.316  40.297   1.797
25458W        W92241  22.608  31.319   3.554
25459W        W92242  32.492  14.765  12.038
25460W        W92243  10.823  18.875   4.532
25461W        W92244   6.385  34.517   1.509
25462W        W92245  31.693  35.921   2.990
25463W        W92246   1.375  16.220  14.536
25464W        W92247  36.689  11.644   3.185
25465W        W92248  10.255  19.639  13.346
25466W        W92249  19.164  31.643   3.874
25467W        W92250   9.232  16.330   1.360
25468W        W92251   3.317  33.352  11.585
25469W        W92252   0.348  25.101   3.292
25470W        W92253   1.279  19.544  13.168
25471W        W92254  14.418   4.835  10.292
25472W        W92255  32.095  34.769   2.721
25473W        W92256   8.157  10.316   4.794
25474W        W92257   5.362  12.113   0.902
25475W        W92258  20.794   5.779   0.746
25476W        W92259  34.574   9.458  13.834
25477W        W92260  17.188   0.474  10.964
25478W        W92261  33.196  15.094  12.533
25479W        W92262  40.746  44.983   0.397
25480W        W92263  42.551  15.384   1.462
25481W        W92264  30.761   2.794   1.817
25482W        W92265   0.749   3.985   0.469
25483W        W92266  13.608  21.484  11.063
25484W        W92267   9.638   3.414   3.704
25485W        W92268   5.973  14.151   2.136
25486W        W92269  35.553   2.050   1.688
25487W        W92270  33.047  18.243   4.173
25488W        W92271  26.270  14.715   3.518
25489W        W92272  33.948  22.603  10.175
25490W        W92273  30.499  32.303   3.731
25491W        W92274  40.544  39.539   2.324
25492W        W92275  37.331  14.201  14.777
25493W        W92276  15.057   7.528   0.718
25494W        W92277   6.725  44.284   0.715
25495W        W92278  34.915  25.141   1.717
25496W        W92279  41.854   4.152   0.408
25497W        W92280   7.410  21.227   2.600
25498W        W92281   9.264   5.525   0.426
25499W        W92282  20.799   3.940  12.113
25500W        W92283  12.562  40.734  11.645
25501W        W92284  44.982  41.137   1.809
25502W        W92285   6.324  21.127   3.648
25503W        W92286  20.205   1.511   2.301
25504W        W92287   9.117  38.569   3.471
25505W        W92288   7.310  26.971  11.525
25506W        W92289  20.896  30.429   1.721
25507W        W92290  31.917  14.191   2.186
25508W        W92291  22.924  20.546   4.813
25509W        W92292  22.137  24.228   1.347
25510W        W92293  37.777  17.224  10.740
25511W        W92294  30.594  14.817   4.061
25512W        W92295  33.446  35.855   3.753
25513W        W92296   8.894  41.314   0.900
25514W        W92297  38.237  27.168   3.734
25515W        W92298  33.999  30.521  11.471
25516W        W92299  24.625  25.800  14.437
25517W        W92300  25.268   8.129   4.757
25518W        W92301  25.525  19.976  12.490
25519W        W92302  31.155   0.285   3.953
25520W        W92303   9.550  12.219  12.033
25521W        W92304  41.827  35.219   1.904
25522W        W92305  35.793  23.116  13.190
25523W        W92306  19.954  23.104  14.011
25524W        W92307  38.964  13.088   2.138
25525W        W92308  20.465   8.582   3.531
25526W        W92309  41.787  29.190   2.959
25527W        W92310  15.119  37.738  12.504
25528W        W92311  22.115  25.639   2.586
25529W        W92312  20.106   8.877   1.656
25530W        W92313  19.291  25.764  12.723
25531W        W92314  39.888  35.468   4.344
25532W        W92315   0.353   9.233   4.560
25533W        W92316  33.403  43.485   0.365
25534W        W92317  35.051  17.994   4.159
25535W        W92318  23.375  29.680  14.484
25536W        W92319  20.764  31.015   3.135
25537W        W92320  29.737  41.886   3.462
25538W        W92321   7.146  28.034   1.832
25539W        W92322  23.971  23.201  13.847
25540W        W92323  30.416  36.648  11.693
25541W        W92324  25.728   3.018  13.259
25542W        W92325  35.928  21.313   4.159
25543W        W92326   5.497  15.809  14.539
25544W        W92327   7.949  16.079  10.404
25545W        W92328   3.101  24.054  12.130
25546W        W92329  43.899  12.904   3.139
25547W        W92330  29.133  27.182   4.652
25548W        W92331  13.172  18.115  14.375
25549W        W92332  24.233   2.837  12.991
25550W        W92333   3.516   0.138  14.031
25551W        W92334   5.222  13.759   2.706
25552W        W92335  44.869   7.376  14.807
25553W        W92336   9.925  29.506  13.620
25554W        W92337  13.895  20.819   2.397
25555W        W92338  17.744  12.242  10.757
25556W        W92339   4.692  22.054  13.183
25557W        W92340  25.021  15.579  13.084
25558W        W92341  31.295  21.673  10.943
25559W        W92342  12.851   4.226  14.009
25560W        W92343  14.046  10.375  13.060
25561W        W92344   5.894  27.932  14.407
25562W        W92345  32.814   2.820  10.695
25563W        W92346  13.210  35.131  12.587
25564W        W92347  42.157  35.439   1.401
25565W        W92348   1.345   5.352   0.288
25566W        W92349  37.349   7.870  14.876
25567W        W92350  28.050   6.081   4.304
25568W        W92351  20.691  41.987  11.717
25569W        W92352  31.835  32.941  13.836
25570W        W92353   3.318  36.649   0.318
25571W        W92354  31.611  16.819   2.624
25572W        W92355  29.981  34.277   0.169
25573W        W92356  40.518  43.363   4.668
25574W        W92357  32.708   2.330  13.399
25575W        W92358  14.880  27.442   4.551
25576W        W92359  35.356  36.375   2.925
25577W        W92360  41.713  16.460  14.859
25578W        W92361  20.036  22.113  13.003
25579W        W92362   0.353  42.518   1.392
25580W        W92363  26.455  40.346  13.105
25581W        W92364  33.555  20.712   1.880
25582W        W92365  16.511  41.269   1.328
25583W        W92366  33.442  22.493  10.232
25584W        W92367  17.825  17.070  14.007
25585W        W92368   1.733  31.805  13.077
25586W        W92369  39.563  43.515   1.306
25587W        W92370  30.923  12.567  14.932
25588W        W92371  16.347  19.288   2.607
25589W        W92372  23.134   2.422  11.942
25590W        W92373  26.702   0.886   3.367
25591W        W92374   1.535  42.931   3.338
25592W        W92375   7.438   5.630  11.546
25593W        W92376  18.246  25.622  13.611
25594W        W92377   8.799  23.527  11.016
25595W        W92378  11.098   5.970   4.994
25596W        W92379  17.011   9.946   2.762
25597W        W92380  18.591  32.323  14.204
25598W        W92381  38.060  43.428  12.535
25599W        W92382   0.533  38.087   0.710
25600W        W92383  19.660  15.016   1.061
25601W        W92384  39.532  15.296   3.674
25602W        W92385  33.545  36.663  14.146
25603W        W92386  39.922  44.176   4.003
25604W        W92387  19.049  18.745   1.448
25605W        W92388  41.459   0.008   1.960
25606W        W92389  20.825   0.350  12.980
25607W        W92390  22.179  15.159  14.964
25608W        W92391   3.688  11.841   1.329
25609W        W92392   8.489  22.120  14.860
25610W        W92393   4.361   8.205  13.518
25611W        W92394   0.910  22.918   2.393
25612W        W92395  14.035  26.028  13.125
25613W        W92396  19.444  17.808  11.359
25614W        W92397  33.076  34.422   0.422
25615W        W92398  12.039  43.920  10.757
25616W        W92399  24.538  37.093   4.737
25617W        W92400  43.477   9.297   4.892
25618W        W92401  44.444  33.556   3.232
25619W        W92402  42.328  27.101   3.095
25620W        W92403   7.401  38.360  13.767
25621W        W92404  12.636  17.253  13.562
25622W        W92405   2.334  30.108   3.565
25623W        W92406  25.167  36.526  10.393
25624W        W92407  11.221   9.937   0.046
25625W        W92408   6.738  34.054  10.652
25626W        W92409  44.963   3.390   0.044
25627W        W92410   9.402  12.338  14.960
25628W        W92411  23.333   8.170   2.585
25629W        W92412  29.038  40.697   4.681
25630W        W92413  27.202  20.079  12.394
25631W        W92414  15.354  15.638  14.706
25632W        W92415  38.425  40.084   2.386
25633W        W92416  32.018  37.096  14.547
25634W        W92417  21.062  18.649   1.338
25635W        W92418  31.533  14.660   3.705
25636W        W92419  12.115   8.641   0.915
25637W        W92420  34.146  29.202   4.179
25638W        W92421  41.019  17.082  11.956
25639W        W92422   1.496  18.742   1.446
25640W        W92423  31.529  34.952  14.876
25641W        W92424  13.025   5.900  14.618
25642W        W92425  20.350   1.992  12.034
25643W        W92426  20.111  35.876   3.186
25644W        W92427  42.500  44.848   1.955
25645W        W92428  37.069  25.640  14.916
25646W        W92429  36.591  26.573   4.163
25647W        W92430  17.524  27.015   3.777
25648W        W92431  28.470   1.324  14.329
25649W        W92432  20.254  21.990   3.606
25650W        W92433  14.308  34.500  12.063
25651W        W92434  37.503   6.256  11.077
25652W        W92435  13.957  33.852   2.070
25653W        W92436  24.980   4.813  13.873
25654W        W92437   7.482  30.048  11.164
25655W        W92438   5.285  38.317   4.219
25656W        W92439  43.993  21.650   1.961
25657W        W92440   5.099  24.660   3.250
25658W        W92441  31.459  42.542  13.845
25659W        W92442  11.052   7.802   0.584
25660W        W92443  26.533  23.770   2.909
25661W        W92444  39.135  28.522   2.852
25662W        W92445   6.936  25.494  13.461
25663W        W92446  42.071  18.700  14.901
25664W        W92447   4.197  21.839  13.866
25665W        W92448  39.301  36.418  14.617
25666W        W92449   2.728  11.244   3.613
25667W        W92450   0.262  36.429  14.426
25668W        W92451  16.307  14.351  12.890
25669W        W92452   0.755  26.739  12.585
25670W        W92453  39.019  43.059   1.589
25671W        W92454  38.428   2.444  10.660
25672W        W92455  15.357  30.617  11.182
25673W        W92456  30.910  12.849  13.012
25674W        W92457  11.724  14.094  11.439
25675W        W92458  11.382  33.492   0.400
25676W        W92459   9.730  23.020  10.385
25677W        W92460  25.090  31.456   4.175
25678W        W92461  13.471  32.993  12.479
25679W        W92462  28.429   7.649   0.524
25680W        W92463  43.623   7.248  11.142
25681W        W92464  39.575  13.525   9.693
25682W        W92465  24.518  27.615   2.987
25683W        W92466  14.644  11.501   0.074
25684W        W92467   5.670  15.096   4.258
25685W        W92468   9.244  11.112  11.425
25686W        W92469  10.826   5.340   0.035
25687W        W92470  23.599  23.894  11.507
25688W        W92471  41.304  31.432   3.929
25689W        W92472  40.929  37.368  11.207
25690W        W92473  14.588  27.037  12.932
25691W        W92474   5.448  20.578   0.238
25692W        W92475  36.465  30.476   4.166
25693W        W92476   4.624  14.319   1.331
25694W        W92477  14.635  31.540  10.596
25695W        W92478  17.417  26.560   2.742
25696W        W92479  27.931  21.693   4.209
25697W        W92480   5.566  35.280  13.888
25698W        W92481  40.680  22.706  10.407
25699W        W92482  14.864  11.270  12.548
25700W        W92483  36.019  36.614  12.498
25701W        W92484  10.125  35.568  14.869
25702W        W92485  19.128  21.077  14.934
25703W        W92486   4.939  36.880  11.615
25704W        W92487   1.315  41.466   4.225
25705W        W92488  21.766  18.059   3.718
25706W        W92489  34.926   3.126   0.007
25707W        W92490  23.952  23.931   5.122
25708W        W92491   2.445  14.809   1.316
25709W        W92492   2.061  31.890   4.054
25710W        W92493  20.266  18.520   3.220
25711W        W92494  35.250  21.671  10.316
25712W        W92495  30.083  37.987  11.652
25713W        W92496  32.935  42.260  11.395
25714W        W92497  31.781  19.846   4.205
25715W        W92498  35.990  35.440  11.208
25716W        W92499  10.864  24.122   4.089
25717W        W92500  34.914  27.440  13.970
25718W        W92501  18.141  41.784  12.922
25719W        W92502  38.854  24.456   0.474
25720W        W92503  38.884  32.659   3.342
25721W        W92504   1.050  15.627   3.598
25722W        W92505  22.029  38.421  10.698
25723W        W92506   3.284  35.991   3.603
25724W        W92507  12.706   8.860  13.699
25725W        W92508  28.203  30.884  13.738
25726W        W92509  37.668  27.744  10.143
25727W        W92510  13.686  31.152  13.656
25728W        W92511   9.157  10.692  14.462
25729W        W92512   7.965   3.352   4.741
25730W        W92513  42.365   0.459  10.751
25731W        W92514  26.536  11.355   4.194
25732W        W92515  23.505  34.442  13.462
25733W        W92516  15.636  11.475  14.874
25734W        W92517  31.538  10.200   1.867
25735W        W92518  39.132   9.042   3.308
25736W        W92519  39.449  44.996   0.235
25737W        W92520  37.356  39.576   3.874
25738W        W92521  38.003  30.475   4.695
25739W        W92522  28.233  33.257  11.480
25740W        W92523  13.664  33.428  12.292
25741W        W92524  12.337   0.543   1.384
25742W        W92525   5.491  17.861  12.569
25743W        W92526  34.383  25.966  13.075
25744W        W92527  16.647  26.314  14.337
25745W        W92528   6.247   4.791  13.958
25746W        W92529  20.612  12.362   4.600
25747W        W92530  37.936  26.000   0.066
25748W        W92531  15.828  22.629  10.736
25749W        W92532  35.222  21.170  14.537
25750W        W92533   8.002  30.516   3.988
25751W        W92534  31.767   3.295  14.450
25752W        W92535  28.479  21.978   4.502
25753W        W92536  38.096   5.239   4.537
25754W        W92537  35.421   3.411  10.580
25755W        W92538   1.270   7.051  12.580
25756W        W92539  39.010  18.004   1.187
25757W        W92540  33.809  44.063  13.575
25758W        W92541  23.464  24.226   4.141
25759W        W92542  30.159   8.098   4.145
25760W        W92543  11.773  42.336  11.979
25761W        W92544  23.453  10.381   2.824
25762W        W92545   1.698   8.835   0.407
25763W        W92546  29.012   1.774  11.167
25764W        W92547  23.762  29.574  14.862
25765W        W92548  35.380  42.453  12.779
25766W        W92549  32.545  22.783   4.133
25767W        W92550   8.181  33.916  11.418
25768W        W92551  20.181  17.402   0.831
25769W        W92552  23.041  11.905  10.740
25770W        W92553   0.905   3.275   3.343
25771W        W92554  29.625   8.512   2.614
25772W        W92555  35.610  16.235  11.187
25773W        W92556  37.333  44.046  14.138
25774W        W92557  24.104  43.334   5.238
25775W        W92558  33.009  19.812  12.137
25776W        W92559  18.523  39.286  10.998
25777W        W92560  22.111  27.731   3.585
25778W        W92561  32.459   4.642  14.799
25779W        W92562  19.720  20.051  14.414
25780W        W92563  14.517  34.834  14.811
25781W        W92564   4.687  23.786   4.030
25782W        W92565   5.935  39.018   0.374
25783W        W92566  20.571  21.578  11.407
25784W        W92567  30.920   1.404   0.879
25785W        W92568  31.108  32.358   5.016
25786W        W92569  19.047  35.524   4.877
25787W        W92570  32.295   3.771  11.864
25788W        W92571  33.571  34.182  13.748
25789W        W92572  17.056  29.037  13.020
25790W        W92573   7.794  24.193   2.707
25791W        W92574  12.327  26.665   2.355
25792W        W92575  37.816  36.956   0.018
25793W        W92576  22.034  30.933  13.379
25794W        W92577  43.444  44.025   3.207
25795W        W92578  32.729  34.308   1.734
25796W        W92579  20.177  28.384   3.081
25797W        W92580  18.787  34.466   0.665
25798W        W92581  13.376   6.981  12.045
25799W        W92582  27.587  42.500  10.657
25800W        W92583  20.540   6.804   2.830
25801W        W92584  33.235  44.524   3.715
25802W        W92585   3.736  24.637   2.775
25803W        W92586  25.505  15.047  14.111
25804W        W92587  22.942  37.537  10.279
25805W        W92588   5.923  13.717   1.350
25806W        W92589  21.698  14.588   1.823
25807W        W92590  28.197  27.634  14.348
25808W        W92591   9.727  44.645  13.061
25809W        W92592  12.245  18.555  13.068
25810W        W92593  13.449  43.293   2.266
25811W        W92594  38.014  20.288   4.909
25812W        W92595   2.492   3.809  10.637
25813W        W92596  10.717  28.562   1.332
25814W        W92597  18.640  18.155  14.758
25815W        W92598  18.563  21.552   4.642
25816W        W92599  27.283  28.891   4.146
25817W        W92600  24.255  21.481   3.628
25818W        W92601  19.179   3.699  12.993
25819W        W92602  22.667  15.006   3.694
25820W        W92603  26.613   0.480   2.877
25821W        W92604  20.472  41.807   1.166
25822W        W92605  44.526   4.956   4.537
25823W        W92606   7.627  19.621  13.389
25824W        W92607  31.410  30.847   3.996
25825W        W92608  35.404  17.152  13.896
25826W        W92609  39.326  10.977  14.048
25827W        W92610  14.817   8.713   3.737
25828W        W92611  26.454  10.714  11.133
25829W        W92612  16.202   3.884  11.180
25830W        W92613  22.490  14.173   1.200
25831W        W92614  10.290   4.035  13.124
25832W        W92615  43.605  40.009  12.600
25833W        W92616  29.400  30.252  11.126
25834W        W92617  29.495  42.304  12.847
25835W        W92618  26.076  34.824   1.368
25836W        W92619  42.031   0.380   2.814
25837W        W92620  21.180   7.303   1.219
25838W        W92621  31.097  41.299   2.227
25839W        W92622  26.225  22.033  11.930
25840W        W92623  33.364  28.582   4.031
25841W        W92624  34.330  41.505   2.851
25842W        W92625  20.029  36.920  13.899
25843W        W92626  30.911  20.073   0.918
25844W        W92627  34.394   7.804   2.722
25845W        W92628  37.553  41.916  13.821
25846W        W92629  15.630  19.680  11.004
25847W        W92630  10.749  15.321   0.331
25848W        W92631   7.678  19.437  10.170
25849W        W92632  36.548   4.226   4.106
25850W        W92633  10.470   1.366   1.378
25851W        W92634  39.072  19.478   4.053
25852W        W92635  16.616  23.670  13.357
25853W        W92636   0.309  29.111   0.911
25854W        W92637  39.895  35.389   0.856
25855W        W92638  38.319  33.996  13.348
25856W        W92639  24.983  23.201   4.581
25857W        W92640  40.399  30.488  10.689
25858W        W92641   0.694  24.834  13.526
25859W        W92642  41.515  10.318   1.649
25860W        W92643   4.323   0.956  11.347
25861W        W92644  31.120  25.488  10.994
25862W        W92645  23.523   9.596  14.233
25863W        W92646   0.189  24.590   4.057
25864W        W92647  30.322   4.444  11.019
25865W        W92648  10.869  16.066   2.162
25866W        W92649   6.123  28.908   0.956
25867W        W92650   1.874   5.248  13.970
25868W        W92651  20.482  26.974   1.204
25869W        W92652  29.422  33.046   1.366
25870W        W92653  15.609  13.710   2.310
25871W        W92654   4.636  12.195  13.361
25872W        W92655  25.124  28.741  13.970
25873W        W92656  25.890  22.547  13.549
25874W        W92657  18.001  26.148   3.322
25875W        W92658  18.652  25.626  10.900
25876W        W92659  40.940  33.454  13.970
25877W        W92660  23.315  30.423  10.825
25878W        W92661  10.317   6.303  12.444
25879W        W92662  11.104  23.621  12.342
25880W        W92663  34.826  12.836   1.258
25881W        W92664   3.793   2.508  10.777
25882W        W92665   6.776   1.395   3.207
25883W        W92666  39.474   0.040  12.087
25884W        W92667  20.050  43.873  11.255
25885W        W92668   7.199   2.976  14.501
25886W        W92669  30.944   8.486   1.272
25887W        W92670   4.517  27.423  13.581
25888W        W92671  21.512  44.049  10.045
25889W        W92672  18.311  37.508   0.189
25890W        W92673  42.571  41.421   3.667
25891W        W92674  33.493  10.768  14.814
25892W        W92675  34.293  26.001  11.087
25893W        W92676  18.830  38.479  12.517
25894W        W92677  38.422  42.001   0.942
25895W        W92678  44.887  34.363  14.345
25896W        W92679  28.336  25.631   1.690
25897W        W92680  21.175  12.101   1.017
25898W        W92681  12.677   9.348  13.987
25899W        W92682  14.756   1.469  14.827
25900W        W92683  40.040   5.869  12.430
25901W        W92684  22.511   7.401  14.871
25902W        W92685  29.230  42.237  11.149
25903W        W92686  40.424  34.981  14.438
25904W        W92687  10.766   3.234  13.299
25905W        W92688  11.649   7.196   0.517
25906W        W92689   7.939  43.990   3.159
25907W        W92690  12.811  39.302   1.216
25908W        W92691  22.182  31.458   1.398
25909W        W92692  12.030  31.424   0.014
25910W        W92693  28.117  16.806   0.160
25911W        W92694   9.681  25.947  11.214
25912W        W92695  17.380   4.735  13.251
25913W        W92696  30.503  40.866  12.635
25914W        W92697  36.508  41.082   3.343
25915W        W92698  19.597  39.589   4.124
25916W        W92699  24.537  20.246  14.494
25917W        W92700  39.955  18.757  11.963
25918W        W92701  24.586  10.190  12.011
25919W        W92702  37.096  18.299  13.486
25920W        W92703   2.530  19.080   3.658
25921W        W92704  27.129  32.146   3.389
25922W        W92705  16.400  12.224  14.787
25923W        W92706  23.884  28.374   1.017
25924W        W92707  13.885  11.794   1.920
25925W        W92708   1.868   0.189   4.464
25926W        W92709  17.921  24.118  12.650
25927W        W92710  13.673  15.528  14.887
25928W        W92711  11.210  17.001   2.684
25929W        W92712  39.756  28.970  13.063
25930W        W92713  19.364  18.639  14.471
25931W        W92714   9.169  23.977  12.075
25932W        W92715  35.075  32.463   3.902
25933W        W92716  42.377  12.735  14.212
25934W        W92717   6.279  15.323  10.371
25935W        W92718  13.529  11.010  12.881
25936W        W92719  19.624  44.377   5.187
25937W        W92720  31.283   1.912   1.596
25938W        W92721  37.535  33.485   2.782
25939W        W92722   3.158  30.488  12.869
25940W        W92723  11.451  26.983  10.845
25941W        W92724  23.241  17.271  13.148
25942W        W92725   6.985   0.543   3.643
25943W        W92726  11.376   2.586   0.791
25944W        W92727   7.729  21.007   3.352
25945W        W92728   8.169  22.387  10.924
25946W        W92729  31.188  31.519  10.801
25947W        W92730  42.629  25.948  14.845
25948W        W92731  29.287  11.519   3.666
25949W        W92732  10.865  21.743  10.754
25950W        W92733  35.523  43.356   3.247
25951W        W92734  15.643   3.775   2.306
25952W        W92735  35.324  38.602  11.714
25953W        W92736  29.506  22.372   0.401
25954W        W92737  27.670   5.342   1.012
25955W        W92738  26.360  12.195   0.273
25956W        W92739  17.649   8.302  13.546
25957W        W92740  19.638  36.527  14.773
25958W        W92741  19.158  10.639   0.434
25959W        W92742   9.018  41.990  14.264
25960W        W92743  32.110  39.738  12.278
25961W        W92744   2.320   8.386   0.719
25962W        W92745  23.203   0.133  13.324
25963W        W92746  41.410   4.444  12.139
25964W        W92747  35.818  13.847  10.770
25965W        W92748  10.882  17.086   0.819
25966W        W92749  22.135  14.203  12.590
25967W        W92750  35.043   2.722   0.969
25968W        W92751  21.900   4.559  12.853
25969W        W92752  11.622  44.534  10.289
25970W        W92753  37.279   1.577  14.387
25971W        W92754  16.829  33.145   4.876
25972W        W92755  33.177  36.857   1.606
25973W        W92756  17.369   1.383  12.171
25974W        W92757  11.293  35.073  10.906
25975W        W92758  20.221  13.673   1.292
25976W        W92759   3.248  12.919   1.905
25977W        W92760  11.137  40.069   4.681
25978W        W92761  35.347  34.604   0.423
25979W        W92762  27.589  21.101   4.742
25980W        W92763  39.707   8.874  10.670
25981W        W92764  28.841  11.784  14.513
25982W        W92765  24.450   2.803   1.848
25983W        W92766  31.284  26.905   0.324
25984W        W92767  25.051  34.167   0.322
25985W        W92768  19.456   6.611  14.055
25986W        W92769   3.928  40.367  13.370
25987W        W92770  35.589  36.630  13.294
25988W        W92771  11.260   0.765   2.974
25989W        W92772  40.899   3.135   5.063
25990W        W92773  16.167  34.072  11.181
25991W        W92774  25.382  30.048   0.807
25992W        W92775  18.430  40.780   2.751
25993W        W92776   2.733  41.447   1.952
25994W        W92777   5.983  30.088  12.494
25995W        W92778  21.798  23.884   9.859
25996W        W92779  43.340  23.065   2.709
25997W        W92780   7.452  33.184  13.771
25998W        W92781   0.952  30.040   4.342
25999W        W92782  20.614  12.829   4.175
26000W        W92783  25.132  29.520   0.752
26001W        W92784  33.570   5.142   3.658
26002W        W92785  18.331   6.337  12.827
26003W        W92786  12.172  32.464   3.781
26004W        W92787  31.294  21.426  12.798
26005W        W92788  20.566  18.654  10.717
26006W        W92789  10.763  43.944  11.433
26007W        W92790  15.723  10.638  13.505
26008W        W92791  20.483   1.690   4.061
26009W        W92792  16.488  43.731  13.089
26010W        W92793  13.785  43.404   3.855
26011W        W92794  19.254   5.932   3.692
26012W        W92795  37.977  12.514  11.633
26013W        W92796  14.928   6.978  14.968
26014W        W92797  30.979  35.569  11.132
26015W        W92798  20.362  40.704   3.233
26016W        W92799  38.980  35.869   0.956
26017W        W92800  22.397  27.748  10.922
26018W        W92801  34.969  12.619   0.414
26019W        W92802  14.671  20.674  11.409
26020W        W92803  16.896  32.112   4.190
26021W        W92804   5.477  22.189  11.443
26022W        W92805   1.374   0.597  14.722
26023W        W92806   8.366  21.131   4.723
26024W        W92807   7.215  32.376   2.740
26025W        W92808  27.576  26.379   0.467
26026W        W92809  37.908  43.232   4.832
26027W        W92810  28.996  20.257   1.449
26028W        W92811   1.042  38.215  11.081
26029W        W92812   0.881  13.842  13.389
26030W        W92813  37.428  36.657   1.872
26031W        W92814  29.054  26.661  11.945
26032W        W92815  17.159  34.672  10.841
26033W        W92816  15.724  28.088   1.874
26034W        W92817  23.643  33.151  11.066
26035W        W92818  13.326  30.623   3.592
26036W        W92819  26.083   5.066   0.473
26037W        W92820  39.238   1.404  13.594
26038W        W92821   0.945   4.400   4.932
26039W        W92822  21.949  21.796  10.880
26040W        W92823  36.885  39.376   3.811
26041W        W92824  24.044  15.892  10.072
26042W        W92825  16.989  37.427  14.329
26043W        W92826  19.067  19.027  11.896
26044W        W92827   3.784  35.477   0.554
26045W        W92828  11.284   6.398   1.970
26046W        W92829  17.565  12.027   1.872
26047W        W92830  12.125  31.509  13.791
26048W        W92831  14.271  40.729   1.863
26049W        W92832  16.794   5.983   2.003
26050W        W92833  24.967  36.536  12.069
26051W        W92834  10.420   5.367  12.400
26052W        W92835  12.271   2.802  14.409
26053W        W92836  36.599  33.311   4.631
26054W        W92837  31.234  35.815   2.730
26055W        W92838  35.984  38.917  11.448
26056W        W92839  15.651  29.581   0.731
26057W        W92840   9.629  27.179  11.338
26058W        W92841  26.809  22.760   2.024
26059W        W92842  25.193  41.298   1.391
26060W        W92843  37.573  15.511  10.048
26061W        W92844  28.571  12.343   0.007
26062W        W92845   5.865  23.804  11.601
26063W        W92846   9.229  23.388   1.354
26064W        W92847  43.870  44.963   3.899
26065W        W92848   2.369  14.100   2.875
26066W        W92849  22.070  23.157   2.294
26067W        W92850  38.480  34.318   3.458
26068W        W92851  14.560   8.171  10.849
26069W        W92852  12.605   0.283  11.595
26070W        W92853  28.998  34.083  10.720
26071W        W92854  20.095  21.140   4.058
26072W        W92855  11.572   9.460   5.722
26073W        W92856  18.184  20.037   3.811
26074W        W92857  43.476   1.057   2.195
26075W        W92858   8.156  12.073  11.681
26076W        W92859  23.837  40.115   0.200
26077W        W92860   6.832  20.989   3.869
26078W        W92861  42.996  17.320   0.832
26079W        W92862  35.328  18.043  12.865
26080W        W92863   0.711  34.926   4.538
26081W        W92864  24.604  29.990   3.720
26082W        W92865  37.757  11.667   1.865
26083W        W92866   4.480  42.011   1.382
26084W        W92867  22.411  21.719  11.141
26085W        W92868  38.868  21.191   4.973
26086W        W92869  16.899  22.593   0.386
26087W        W92870  10.498   6.038  13.738
26088W        W92871  32.429   0.438   3.251
26089W        W92872  35.085   0.382  13.930
26090W        W92873   8.364   7.280   2.347
26091W        W92874   2.317   8.260  13.275
26092W        W92875  10.507  13.778   3.616
26093W        W92876  43.062  10.207   9.710
26094W        W92877  44.330  11.116   0.367
26095W        W92878  37.965  15.653   4.657
26096W        W92879  25.525  17.138  11.484
26097W        W92880  33.965   0.878  10.717
26098W        W92881   3.914  19.551   2.697
26099W        W92882   3.619   1.900   0.670
26100W        W92883  11.409  39.650   1.083
26101W        W92884  14.161  38.285   1.778
26102W        W92885  13.793  21.023  11.946
26103W        W92886  35.139  22.204  11.441
26104W        W92887  20.835  17.621   5.117
26105W        W92888  22.036  32.403   1.546
26106W        W92889   2.836  22.693  14.827
26107W        W92890  10.814  11.615  13.447
26108W        W92891  34.665   8.065  14.203
26109W        W92892  18.741  18.377   3.864
26110W        W92893  22.567  16.387  13.947
26111W        W92894  27.316  23.486   3.288
26112W        W92895  38.457  27.908   2.570
26113W        W92896  16.744   4.079  12.000
26114W        W92897  29.173  15.081  11.973
26115W        W92898  20.483  38.491  13.408
26116W        W92899  22.738  27.722  12.385
26117W        W92900  31.956  12.213  11.524
26118W        W92901  39.013   6.349  12.820
26119W        W92902  31.742   6.875   5.608
26120W        W92903  19.207  17.309  14.347
26121W        W92904  16.374   5.149   1.233
26122W        W92905  41.007  34.124   2.208
26123W        W92906  42.935  31.435  10.784
26124W        W92907  24.742   6.535  12.429
26125W        W92908  22.667  38.896   1.859
26126W        W92909  36.510   8.007   4.567
26127W        W92910  27.386   9.141  13.922
26128W        W92911  40.389   4.397   0.871
26129W        W92912  44.506  29.630  14.514
26130W        W92913  36.118   6.861   1.301
26131W        W92914  21.124  10.622  10.586
26132W        W92915  30.123  38.417  13.453
26133W        W92916  43.076  22.177  14.910
26134W        W92917  41.413  15.809  14.146
26135W        W92918   7.195  35.545   2.838
26136W        W92919  35.184   8.984   4.942
26137W        W92920   5.892  31.147  12.381
26138W        W92921   8.739  21.046  12.872
26139W        W92922  25.522  33.580  10.712
26140W        W92923  18.484  10.357  13.892
26141W        W92924  29.093  34.652   1.841
26142W        W92925  11.689  13.466   1.448
26143W        W92926  22.945   8.776   1.781
26144W        W92927   8.869  20.517  12.809
26145W        W92928  29.023   3.618   0.797
26146W        W92929   6.096  21.974   1.210
26147W        W92930  15.071  38.478   2.289
26148W        W92931  10.152  36.485   0.026
26149W        W92932   7.503  32.529   1.814
26150W        W92933  42.106  28.221  12.454
26151W        W92934  35.647  12.323  11.142
26152W        W92935  34.180  27.717  12.553
26153W        W92936  23.638  41.089   4.498
26154W        W92937  43.593   3.468  10.618
26155W        W92938  12.426  29.585   2.282
26156W        W92939   8.158   1.093   3.341
26157W        W92940  12.718  31.373   4.139
26158W        W92941  29.478  19.341   4.818
26159W        W92942  38.488  26.557  12.842
26160W        W92943  18.252  19.932  13.414
26161W        W92944  24.528  23.133   3.613
26162W        W92945  30.928  35.006  11.948
26163W        W92946  39.418  26.581   3.678
26164W        W92947  17.312   3.285  12.995
26165W        W92948  31.141  39.015   4.561
26166W        W92949  34.552  23.173  13.784
26167W        W92950  21.639  20.668   4.374
26168W        W92951  24.087   4.344   4.714
26169W        W92952  25.490   9.185  10.663
26170W        W92953  18.025   1.407   3.539
26171W        W92954  21.184   8.248  11.595
26172W        W92955  10.855  34.411  14.329
26173W        W92956  26.609  40.135   3.296
26174W        W92957  41.684  20.762  13.946
26175W        W92958  22.273  42.942   3.767
26176W        W92959  38.431   2.003   1.640
26177W        W92960  37.057  33.148  13.359
26178W        W92961  20.042  17.862   1.093
26179W        W92962  22.089  13.053  11.941
26180W        W92963  41.992  22.107   2.280
26181W        W92964   0.413  38.825   0.254
26182W        W92965   9.081  13.194   4.281
26183W        W92966  25.501  33.781   2.382
26184W        W92967  44.307  35.118   4.668
26185W        W92968  41.811  29.977   0.695
26186W        W92969  12.354  11.883   1.901
26187W        W92970  13.252  11.840  14.020
26188W        W92971   5.570  41.245   3.126
26189W        W92972  34.004   0.702   4.731
26190W        W92973  20.052   0.244  13.569
26191W        W92974  12.282  35.067  12.495
26192W        W92975  34.662   9.281  12.023
26193W        W92976  15.075  34.469  12.519
26194W        W92977  43.362  37.156  10.711
26195W        W92978  17.337  35.668  11.039
26196W        W92979  25.509   3.318  12.907
26197W        W92980  27.421  10.578  14.785
26198W        W92981  25.955  20.288  11.251
26199W        W92982  44.047  20.749  14.260
26200W        W92983  27.373  20.634  14.472
26201W        W92984   2.139  38.813   2.296
26202W        W92985  40.570  22.532   4.050
26203W        W92986  34.871   8.794  12.114
26204W        W92987  13.416   2.635  12.461
26205W        W92988  43.523   6.932   3.129
26206W        W92989  33.489  25.111   0.939
26207W        W92990   2.692  44.093   0.299
26208W        W92991  31.873  44.386   4.138
26209W        W92992  18.296   6.227  14.751
26210W        W92993  38.386  24.967   2.679
26211W        W92994   2.454  25.644   2.201
26212W        W92995  27.622  10.889  11.164
26213W        W92996  23.631  36.023  11.139
26214W        W92997  44.031   6.247  14.819
26215W        W92998  40.870   5.667   4.968
26216W        W92999   6.078  13.408  12.548
26217W        W93000  39.779  15.918   0.386
26218W        W93001  29.121  32.089  12.161
26219W        W93002  34.860  39.226   0.866
26220W        W93003  11.477  12.897   3.123
26221W        W93004   3.166   9.226  12.336
26222W        W93005  41.572  16.172  13.298
26223W        W93006  22.475  29.332  11.105
26224W        W93007  28.897  38.441   1.713
26225W        W93008   5.935  44.194  12.110
26226W        W93009  42.223   1.418  14.426
26227W        W93010  30.867  44.870   4.691
26228W        W93011  42.364  17.742   4.144
26229W        W93012   7.917  21.236   2.736
26230W        W93013  34.981   2.485  13.783
26231W        W93014  15.668  22.565  13.108
26232W        W93015  26.911  34.271  10.169
26233W        W93016   7.427   9.276  11.566
26234W        W93017  29.877  32.528   0.241
26235W        W93018   3.271   6.277   4.776
26236W        W93019  13.605  31.541  12.938
26237W        W93020   1.409   4.015  14.323
26238W        W93021  21.715  25.252  12.930
26239W        W93022  44.851  12.929  11.566
26240W        W93023   6.534  33.004  14.820
26241W        W93024   4.719  29.091   0.908
26242W        W93025  42.511  42.751   1.179
26243W        W93026  26.994   5.602   0.299
26244W        W93027  36.297   2.221   4.919
26245W        W93028  10.341  34.100   1.207
26246W        W93029  44.813  24.284   1.775
26247W        W93030  20.682  25.617  10.469
26248W        W93031  18.640  27.538   1.686
26249W        W93032   3.947  21.342  11.967
26250W        W93033   1.983  43.373  14.914
26251W        W93034   3.205  17.685  14.003
26252W        W93035   3.853  18.564   3.410
26253W        W93036  13.794  20.077   0.254
26254W        W93037  11.258   9.389   4.724
26255W        W93038  43.887  40.788  10.757
26256W        W93039   4.765  26.220   5.117
26257W        W93040  39.827  10.881   0.368
26258W        W93041  43.297  10.720  12.630
26259W        W93042  37.990  31.416   3.633
26260W        W93043  17.832  13.126  12.134
26261W        W93044  28.257   9.231  12.474
26262W        W93045   4.391   8.223  14.386
26263W        W93046  25.643  14.391   1.290
26264W        W93047  11.192  40.013   0.186
26265W        W93048  40.778  22.963  14.910
26266W        W93049   5.235  42.356  13.397
26267W        W93050  12.207  18.114   2.234
26268W        W93051  40.249  15.839   2.819
26269W        W93052  37.119  44.867   0.798
26270W        W93053  14.111   0.353  13.491
26271W        W93054   5.830  18.642  13.603
26272W        W93055  42.404  10.899  14.267
26273W        W93056  43.797  15.216   3.867
26274W        W93057  41.402   2.241  12.521
26275W        W93058   7.775  26.755   3.844
26276W        W93059   7.721   2.741   0.359
26277W        W93060  18.072  30.103  14.187
26278W        W93061  21.744  26.997   2.210
26279W        W93062   7.812   4.742   3.507
26280W        W93063  15.589  24.673   0.555
26281W        W93064   1.315   2.992   0.979
26282W        W93065  31.027  42.057   3.617
26283W        W93066  37.550  40.746  11.753
26284W        W93067  42.922  28.504   3.863
26285W        W93068  18.346   4.385   1.122
26286W        W93069   9.713  43.854  14.454
26287W        W93070  37.122  13.902  11.989
26288W        W93071  14.706   7.192   4.700
26289W        W93072   9.798  34.470   3.693
26290W        W93073  33.441  25.561   1.712
26291W        W93074  38.396  19.533   3.294
26292W        W93075  25.617   8.287   1.900
26293W        W93076  30.820  26.509   2.361
26294W        W93077   4.233  36.807   3.682
26295W        W93078   9.728  20.512  10.867
26296W        W93079   5.910  21.891  11.528
26297W        W93080  27.217  13.127  14.850
26298W        W93081  30.097  35.429   3.636
26299W        W93082  30.954  28.740  10.939
26300W        W93083  33.076  19.813   2.716
26301W        W93084  35.682  23.675   1.847
26302W        W93085  40.016  17.975  11.534
26303W        W93086  14.272  16.847  11.009
26304W        W93087  44.709   7.067   4.583
26305W        W93088  35.520  26.219   3.795
26306W        W93089  24.179   0.762  10.728
26307W        W93090  22.648  34.630  11.499
26308W        W93091  11.920  32.597  12.675
26309W        W93092  40.485  23.033   0.387
26310W        W93093  10.921  10.259  11.159
26311W        W93094  28.697  23.639  14.901
26312W        W93095  29.201   5.845  12.836
26313W        W93096  24.064  26.466   2.641
26314W        W93097  35.470  33.516   0.839
26315W        W93098  16.170  30.141  14.363
26316W        W93099  26.597  23.608  13.278
26317W        W93100   3.638  10.610  12.662
26318W        W93101   1.793  23.072   2.277
26319W        W93102  43.556  20.042   1.745
26320W        W93103  22.143  12.132   3.598
26321W        W93104   9.239  18.666   4.030
26322W        W93105  15.758  14.767   3.958
26323W        W93106  22.109   0.443   4.098
26324W        W93107   1.290  12.884  11.493
26325W        W93108   3.104  27.267  13.430
26326W        W93109   2.504  12.188   3.789
26327W        W93110   2.214  43.216   4.738
26328W        W93111  16.045  36.495   1.412
26329W        W93112  13.730  35.685   3.268
26330W        W93113  11.834   9.539  11.195
26331W        W93114  14.111   8.783  12.413
26332W        W93115  35.504  24.114   2.052
26333W        W93116   3.385  37.295   3.911
26334W        W93117   0.787  43.522  13.001
26335W        W93118  15.938  14.960   0.349
26336W        W93119  19.631  11.317   1.250
26337W        W93120  42.409  44.787   4.573
26338W        W93121  30.122  20.772   1.431
26339W        W93122  15.272  44.658  10.621
26340W        W93123  28.099   0.826   4.700
26341W        W93124   7.125   8.296  11.530
26342W        W93125  33.478  37.557   2.368
26343W        W93126  33.900  20.447   1.296
26344W        W93127  21.736  16.685   4.705
26345W        W93128  18.160  30.535   1.841
26346W        W93129  22.121  24.549  11.442
26347W        W93130   6.284  19.565   1.039
26348W        W93131  27.910  16.279  13.291
26349W        W93132  30.917  24.000   3.940
26350W        W93133  42.930  13.789  12.075
26351W        W93134  30.927   4.903  11.656
26352W        W93135  21.456  29.424   4.179
26353W        W93136   3.330  27.638   1.022
26354W        W93137  40.430  43.735   1.773
26355W        W93138  28.639  43.236  14.816
26356W        W93139  29.052  21.650   0.112
26357W        W93140  36.466  10.350  10.433
26358W        W93141  20.544  34.022  12.602
26359W        W93142  35.476  23.581  11.564
26360W        W93143  35.585  15.133  10.711
26361W        W93144   4.787  32.537   4.944
26362W        W93145  13.165  30.109   4.604
26363W        W93146  16.744   3.495   3.826
26364W        W93147   1.803  28.200  12.546
26365W        W93148  30.884  19.050   2.827
26366W        W93149   6.793  31.885  10.700
26367W        W93150  17.074   1.705  14.877
26368W        W93151  15.087  29.834   1.683
26369W        W93152  12.105  27.972  10.283
26370W        W93153  42.305   3.288   1.678
26371W        W93154  44.725  14.153   9.601
26372W        W93155  18.647  42.048   0.406
26373W        W93156  37.445   2.717   2.610
26374W        W93157  15.122  13.196  10.588
26375W        W93158  37.905  23.689  14.395
26376W        W93159  17.671  27.269  11.007
26377W        W93160  27.717  34.939  11.398
26378W        W93161   7.800   0.370   4.186
26379W        W93162   8.314  35.903  14.965
26380W        W93163  34.909  23.409  10.715
26381W        W93164  44.678  38.378   4.549
26382W        W93165   7.807  34.393  14.481
26383W        W93166  19.194  39.487  13.571
26384W        W93167   3.296  20.651   2.280
26385W        W93168  32.192  42.553   1.778
26386W        W93169   2.437  36.408  14.593
26387W        W93170  23.582  31.047   2.777
26388W        W93171  31.357  24.267  10.235
26389W        W93172  22.796  26.450  14.733
26390W        W93173  14.699   0.241   2.315
26391W        W93174  38.932  18.534   4.137
26392W        W93175   6.636   0.304   0.648
26393W        W93176  12.325   0.275   2.391
26394W        W93177  14.246   1.002   2.223
26395W        W93178   2.331  19.581   2.844
26396W        W93179  11.373   7.687   1.454
26397W        W93180  15.766  29.685  13.893
26398W        W93181  32.136  12.891   2.172
26399W        W93182  21.686   0.788  13.997
26400W        W93183   7.605  33.402   1.775
26401W        W93184  30.955  37.184   2.621
26402W        W93185  36.936  41.829   0.714
26403W        W93186   8.261  13.726   4.685
26404W        W93187  40.864  12.233  11.595
26405W        W93188  23.041  25.201   0.268
26406W        W93189   8.835  12.383  13.969
26407W        W93190  23.810  42.433  13.225
26408W        W93191  36.004  14.596   2.814
26409W        W93192  28.510  33.161  13.052
26410W        W93193  24.895  44.748   3.886
26411W        W93194  17.340   2.314   3.616
26412W        W93195  19.532   0.930  11.583
26413W        W93196   2.896  11.830   0.160
26414W        W93197  38.632   1.234   2.190
26415W        W93198  23.768  13.603   0.336
26416W        W93199  24.427   0.550   1.765
26417W        W93200  22.546   8.435   1.807
26418W        W93201  12.794   0.847   4.593
26419W        W93202  41.871  21.646   3.212
26420W        W93203  35.155  24.480   1.150
26421W        W93204  18.613  24.399  12.059
26422W        W93205  16.743  41.369   3.768
26423W        W93206   7.041   7.933   1.749
26424W        W93207  43.512   3.879   1.681
26425W        W93208   4.914  32.315   3.303
26426W        W93209  39.859  18.285   4.925
26427W        W93210  27.697  14.125   3.259
26428W        W93211  30.895   1.209   0.398
26429W        W93212  13.632  14.689  12.880
26430W        W93213  33.944  39.886   2.614
26431W        W93214  23.212  18.756  12.443
26432W        W93215  31.385   3.789   3.663
26433W        W93216  41.341  18.619  12.425
26434W        W93217  41.982   6.422   2.316
26435W        W93218   6.239  19.332   0.559
26436W        W93219  14.204  15.626   4.110
26437W        W93220  35.070  16.995  14.313
26438W        W93221  36.455  29.566  12.412
26439W        W93222   0.847  15.206  14.310
26440W        W93223  18.563  32.273   2.351
26441W        W93224  34.886  30.840   2.165
26442W        W93225  26.299  10.465   3.261
26443W        W93226   8.752  28.113   4.151
26444W        W93227   9.401  23.466  10.412
26445W        W93228  11.120  23.912   2.250
26446W        W93229   4.351   0.876   3.108
26447W        W93230  10.958  37.234   0.518
26448W        W93231  33.517  38.006  11.819
26449W        W93232   7.754  41.342  12.015
26450W        W93233   8.737  11.123   0.785
26451W        W93234  29.549  41.671   0.167
26452W        W93235  25.273   8.852  11.513
26453W        W93236   7.257   4.379  10.685
26454W        W93237  39.452  35.516  11.983
26455W        W93238  42.292  43.526   1.786
26456W        W93239  26.403  20.973  10.607
26457W        W93240  31.217  37.196  12.017
26458W        W93241  42.936  26.831  10.642
26459W        W93242  42.286  20.188  14.896
26460W        W93243  20.117   3.952   4.430
26461W        W93244  20.886  42.682  12.771
26462W        W93245  16.079  25.106   2.570
26463W        W93246   5.648  43.222  12.536
26464W        W93247  25.376  30.639  13.997
26465W        W93248  43.429  41.521  14.345
26466W        W93249   5.072  20.713  12.767
26467W        W93250  35.952  34.321   4.690
26468W        W93251  20.263  15.168  14.474
26469W        W93252  31.631   1.802  11.971
26470W        W93253   3.177  27.487   4.571
26471W        W93254   3.470  31.181  14.077
26472W        W93255  13.052  42.063  11.321
26473W        W93256   8.215  39.738   3.721
26474W        W93257  31.536  17.119  14.541
26475W        W93258   7.238  32.976   0.645
26476W        W93259  43.858  36.289   0.364
26477W        W93260  38.467  14.049  13.003
26478W        W93261  15.551  43.723   9.943
26479W        W93262  37.597   9.073   0.525
26480W        W93263  43.550   2.002   4.167
26481W        W93264  16.134  32.783  14.606
26482W        W93265   9.123  40.518   1.818
26483W        W93266  27.513  23.593   2.799
26484W        W93267  25.550  20.038   2.142
26485W        W93268  27.959  16.391  13.812
26486W        W93269  34.724  43.208   0.086
26487W        W93270  23.267   4.265   3.581
26488W        W93271  37.579  40.363  14.940
26489W        W93272  24.794   2.234  11.588
26490W        W93273   5.004  21.648  10.286
26491W        W93274   5.662  40.318  14.807
26492W        W93275  18.677  12.795   0.882
26493W        W93276  12.677  27.651  12.416
26494W        W93277   4.752  32.265   1.361
26495W        W93278   2.796  13.956   4.609
26496W        W93279  23.197  44.768   0.828
26497W        W93280  16.663   0.261   3.064
26498W        W93281  38.946  43.470  10.504
26499W        W93282  16.730   1.604   2.459
26500W        W93283  11.628   4.644   4.256
26501W        W93284   1.364  27.737  14.287
26502W        W93285  33.550   7.136  14.037
26503W        W93286  31.973  14.645  13.903
26504W        W93287  44.910   6.419   1.006
26505W        W93288  15.264  40.355  12.551
26506W        W93289  14.182  42.494  12.375
26507W        W93290  19.631  40.844   0.335
26508W        W93291  18.621  16.284   0.273
26509W        W93292  33.471   7.797  11.694
26510W        W93293  15.249   1.808  11.206
26511W        W93294  41.335  26.232  12.404
26512W        W93295  13.542  16.500   0.897
26513W        W93296  32.842  11.853  14.008
26514W        W93297  37.852  16.504  11.116
26515W        W93298  12.273  30.416  14.738
26516W        W93299  28.339   7.510  11.745
26517W        W93300  32.135   5.798  11.459
26518W        W93301  15.254  29.396   4.503
26519W        W93302  42.160  21.118  12.437
26520W        W93303  31.910  35.954  10.742
26521W        W93304  43.223  15.815   4.734
26522W        W93305  16.748  12.774  10.315
26523W        W93306  21.238  13.681   2.692
26524W        W93307  30.488   4.250  11.470
26525W        W93308  24.311  42.491   2.146
26526W        W93309  40.153   4.260   3.796
26527W        W93310  26.402  28.117   4.525
26528W        W93311  13.812  20.849   4.268
26529W        W93312   6.944  44.800   2.360
26530W        W93313   0.444  12.563  13.216
26531W        W93314  22.241  42.043   1.894
26532W        W93315   6.666  18.064  13.327
26533W        W93316  12.894  12.091   0.780
26534W        W93317  14.823  41.849   4.644
26535W        W93318  41.399  14.188  12.540
26536W        W93319  30.126  40.558  11.006
26537W        W93320   1.820  31.838  14.880
26538W        W93321  14.628  19.840  14.249
26539W        W93322  29.467   7.004  13.423
26540W        W93323  13.661  36.513   3.761
26541W        W93324   7.848  42.741   4.991
26542W        W93325   8.884  14.374   0.556
26543W        W93326  10.678  33.734  10.716
26544W        W93327  24.986  30.197  13.036
26545W        W93328  36.796  28.225   4.121
26546W        W93329  25.270  25.358  11.624
26547W        W93330  31.735  41.890   3.321
26548W        W93331  44.747   0.547  10.677
26549W        W93332  18.104   8.920  14.474
26550W        W93333  14.851  39.072   0.898
26551W        W93334  13.767  36.993  14.053
26552W        W93335  11.984  16.420  12.434
26553W        W93336  23.716  32.341  12.886
26554W        W93337  16.106   6.534  12.746
26555W        W93338  28.377   1.397   3.649
26556W        W93339  37.568  12.645   4.884
26557W        W93340  35.549  36.961   1.747
26558W        W93341   6.746   2.751  14.488
26559W        W93342   6.284   1.712  14.992
26560W        W93343  43.209  28.759   1.719
26561W        W93344  11.211  10.527   4.206
26562W        W93345  15.887  39.858  14.554
26563W        W93346  24.726  33.494   5.187
26564W        W93347  43.787  37.545  13.436
26565W        W93348   0.514  14.288  11.196
26566W        W93349  27.157  16.267   3.631
26567W        W93350  19.309  13.035   1.389
26568W        W93351  21.064   8.898   0.197
26569W        W93352  26.869  38.123  12.609
26570W        W93353  30.905  40.603   0.307
26571W        W93354  36.894  25.192  13.073
26572W        W93355  42.523  19.317  11.859
26573W        W93356  30.537  44.283   0.928
26574W        W93357  41.341  21.022   0.457
26575W        W93358  23.901  33.325  14.794
26576W        W93359   3.340  24.436  10.970
26577W        W93360  43.988  38.080  14.957
26578W        W93361  29.338  43.192   2.390
26579W        W93362  26.924  22.630  11.212
26580W        W93363  34.114   7.507  11.457
26581W        W93364  38.808  42.445   4.515
26582W        W93365  32.067  19.581  11.120
26583W        W93366  32.898  27.123  11.197
26584W        W93367  18.246  10.787  13.723
26585W        W93368  34.942  26.006   2.280
26586W        W93369  22.975   2.313  12.885
26587W        W93370  23.016  38.343   3.235
26588W        W93371  15.927  14.177   4.211
26589W        W93372  23.250  24.568   4.529
26590W        W93373  34.332  24.171   5.039
26591W        W93374  11.385  21.563   0.282
26592W        W93375  37.027  43.049   4.812
26593W        W93376  30.682  27.156  13.538
26594W        W93377  25.888   4.210   0.723
26595W        W93378  33.809  22.594   0.374
26596W        W93379  17.433  27.708  11.165
26597W        W93380  37.298  26.983  12.400
26598W        W93381  40.327  13.358  11.150
26599W        W93382  14.738  24.290   1.824
26600W        W93383  35.508  18.491  13.647
26601W        W93384  19.319  44.994  11.403
26602W        W93385   1.362  10.615  11.849
26603W        W93386  42.702  24.498   3.600
26604W        W93387   0.334  34.080  13.085
26605W        W93388  23.938   8.316   4.631
26606W        W93389   2.705  37.052   1.815
26607W        W93390   1.332  38.511   4.184
26608W        W93391  25.916  12.183   2.625
26609W        W93392  43.877  35.391   3.098
26610W        W93393  32.816  10.688  11.505
26611W        W93394  27.253  18.296  13.796
26612W        W93395  32.060  35.047   3.502
26613W        W93396  25.640   6.077  13.871
26614W        W93397  24.028  12.713   3.291
26615W        W93398  15.933   2.750   0.848
26616W        W93399  18.770  33.966  13.456
26617W        W93400  20.548   0.404  13.477
26618W        W93401  24.270  31.106  11.981
26619W        W93402  14.733  18.224  12.203
26620W        W93403  20.343  44.880   4.055
26621W        W93404  36.832   0.670   2.676
26622W        W93405  31.404  10.141  14.988
26623W        W93406   1.759  44.621  13.486
26624W        W93407  19.282  39.323   3.823
26625W        W93408  19.980  11.883  12.933
26626W        W93409  43.438   7.442   3.153
26627W        W93410  13.474  18.523  13.409
26628W        W93411  19.741  25.065   2.132
26629W        W93412  34.941  17.034  12.097
26630W        W93413   9.644   3.199   4.892
26631W        W93414   9.207  21.114  10.056
26632W        W93415   1.786   6.295  13.733
26633W        W93416  19.708  38.323   0.364
26634W        W93417  36.278  22.925  13.101
26635W        W93418  44.196  32.083   4.466
26636W        W93419  14.829  34.768   2.679
26637W        W93420  40.503  16.537   4.105
26638W        W93421   5.437  43.447  13.371
26639W        W93422  23.178  27.029  11.615
26640W        W93423  38.821  40.134   1.031
26641W        W93424  27.610  20.471   2.903
26642W        W93425  32.285  22.631   3.214
26643W        W93426  43.032  19.214  11.736
26644W        W93427  34.664   1.768   3.269
26645W        W93428  37.805  19.053  14.867
26646W        W93429   4.901  11.936   2.372
26647W        W93430   2.474  19.262   4.552
26648W        W93431  24.721  34.712   1.214
26649W        W93432  31.208  10.312   4.962
26650W        W93433  30.131  37.850   0.332
26651W        W93434  28.260  20.546  12.115
26652W        W93435   5.789  21.582   3.302
26653W        W93436   4.609  17.243   3.652
26654W        W93437  35.782  37.887   2.260
26655W        W93438  25.197   2.041   1.227
26656W        W93439   9.160  33.969   0.742
26657W        W93440  21.072  21.160  12.171
26658W        W93441  28.480  12.834   2.276
26659W        W93442  39.995   2.756   1.399
26660W        W93443  24.688  33.082   3.689
26661W        W93444   0.912  25.324  11.582
26662W        W93445  20.796  11.277  13.971
26663W        W93446   8.665  18.985   4.664
26664W        W93447  38.161   7.474   2.848
26665W        W93448  10.343   9.282  11.125
26666W        W93449  16.090  37.798  13.872
26667W        W93450  37.056  42.769   2.798
26668W        W93451  36.593   1.427   2.225
26669W        W93452  32.629  19.674  11.071
26670W        W93453  21.194  35.274   1.011
26671W        W93454  14.572  29.547   1.745
26672W        W93455  43.048  43.315  13.977
26673W        W93456   1.814   8.309   0.887
26674W        W93457  17.234  40.333   1.506
26675W        W93458   1.473   9.331   9.672
26676W        W93459  42.988  15.112   4.025
26677W        W93460  31.025  13.183   3.687
26678W        W93461  26.561  28.933   3.141
26679W        W93462  15.444  15.729  14.210
26680W        W93463  16.189  11.700   4.736
26681W        W93464  16.199  10.354   2.447
26682W        W93465   3.764  24.833   4.518
26683W        W93466  20.596  41.354  13.996
26684W        W93467  26.772   5.949   2.327
26685W        W93468  13.670  13.876  14.040
26686W        W93469  36.111   3.819   0.075
26687W        W93470  31.503  40.031  13.011
26688W        W93471  16.590  35.366  14.312
26689W        W93472  37.002  27.953  12.394
26690W        W93473  36.919  18.244   1.307
26691W        W93474   3.935  15.577  14.357
26692W        W93475   1.890  14.234  12.841
26693W        W93476  14.467  28.244  12.075
26694W        W93477  36.773  43.005  12.496
26695W        W93478   8.698  41.556  12.515
26696W        W93479  18.276  42.274   0.713
26697W        W93480  34.420  36.098   3.775
26698W        W93481   9.244  26.478   3.147
26699W        W93482  25.159  43.544  14.908
26700W        W93483  13.756  29.119  13.602
26701W        W93484  30.329  19.293  11.278
26702W        W93485  25.493  35.878   4.657
26703W        W93486  25.187  32.166  13.008
26704W        W93487   1.493  15.680  11.502
26705W        W93488  44.830  16.560   3.863
26706W        W93489  29.040  32.608   2.259
26707W        W93490   7.695  26.007   4.219
26708W        W93491  11.608  29.286  10.349
26709W        W93492  24.028   5.322   2.304
26710W        W93493  13.415  37.743   0.295
26711W        W93494  43.350  35.392  12.621
26712W        W93495   3.330   6.374  13.825
26713W        W93496   5.486  30.148  12.422
26714W        W93497  29.672  32.865   0.938
26715W        W93498  30.663   1.428  13.584
26716W        W93499  42.944  21.682  13.143
26717W        W93500  37.772  31.127   0.317
26718W        W93501   7.339  22.932  13.958
26719W        W93502  29.008   5.866  13.738
26720W        W93503  39.228  43.577   3.328
26721W        W93504  43.183   2.356   4.033
26722W        W93505  29.336  11.150   4.646
26723W        W93506  23.400  19.528  14.765
26724W        W93507   2.446  18.528  14.807
26725W        W93508  14.895   0.069   1.580
26726W        W93509  17.073  38.617  14.485
26727W        W93510   6.322  21.289  13.124
26728W        W93511   3.477   8.899   3.122
26729W        W93512  19.075  18.577   2.406
26730W        W93513   4.800   2.697  11.581
26731W        W93514  27.453  39.383   2.247
26732W        W93515  44.109  33.580  14.130
26733W        W93516  20.494  37.374   4.997
26734W        W93517   0.371  32.300   2.925
26735W        W93518  24.600  16.134  11.493
26736W        W93519  43.363   6.595  13.911
26737W        W93520   9.064  15.804  10.750
26738W        W93521  37.556  35.046  13.922
26739W        W93522  36.079  23.464  14.859
26740W        W93523   3.272  16.137  12.556
26741W        W93524  39.453   7.881  11.582
26742W        W93525   5.930  39.851   0.529
26743W        W93526   9.836  39.516   3.587
26744W        W93527  37.652  32.969   1.437
26745W        W93528  30.121  11.422  13.491
26746W        W93529  31.138  35.297  14.922
26747W        W93530  17.220  32.428   4.506
26748W        W93531  29.086  17.616  13.104
26749W        W93532  20.463  14.679   0.301
26750W        W93533  33.198  23.265   9.956
26751W        W93534  15.569  32.395   2.221
26752W        W93535  29.566  28.213  14.398
26753W        W93536  23.133  30.717   1.967
26754W        W93537  39.525  10.405  13.116
26755W        W93538  14.741  29.162   4.446
26756W        W93539  26.655  31.921   1.759
26757W        W93540  36.622  14.669  13.235
26758W        W93541  25.148  11.285   1.365
26759W        W93542  30.537  31.988   1.235
26760W        W93543   9.626  44.398   2.630
26761W        W93544   8.363  11.181   3.741
26762W        W93545  37.426  24.107   0.739
26763W        W93546  21.701  15.392  11.088
26764W        W93547  28.716   2.886   0.350
26765W        W93548  17.781  23.277  11.010
26766W        W93549  23.216   1.483   3.162
26767W        W93550  42.278  34.514  13.737
26768W        W93551  40.421  35.982   2.848
26769W        W93552  41.059  31.729  12.434
26770W        W93553  11.254  38.611   1.307
26771W        W93554  29.734   5.315   1.804
26772W        W93555  16.436  43.707   3.793
26773W        W93556  28.085  34.954  10.602
26774W        W93557  39.330  27.612   0.651
26775W        W93558  25.117  16.823   0.511
26776W        W93559  12.000   3.939   2.362
26777W        W93560  25.849  17.865   4.688
26778W        W93561   7.324  27.072   2.894
26779W        W93562  28.460  34.323  12.471
26780W        W93563  33.451  22.526   1.723
26781W        W93564  12.218   8.158  12.129
26782W        W93565  13.661  15.595   0.963
26783W        W93566  17.699   9.148   3.645
26784W        W93567  24.491  15.293   4.557
26785W        W93568  29.010  33.981   1.290
26786W        W93569  39.017  33.114   0.394
26787W        W93570  29.845  15.814   3.516
26788W        W93571  29.877  14.885   0.481
26789W        W93572  19.443  27.717  14.252
26790W        W93573  21.328  32.660   3.775
26791W        W93574  25.836  44.503   3.182
26792W        W93575  42.335  12.605   5.040
26793W        W93576  28.591  23.438  13.358
26794W        W93577  27.846  26.109  12.654
26795W        W93578  21.023  43.211   3.662
26796W        W93579   9.925  44.969   4.480
26797W        W93580  14.077  12.853  14.082
26798W        W93581  13.303  16.657   1.635
26799W        W93582  36.404  16.739   1.279
26800W        W93583  44.224  38.071  12.996
26801W        W93584  27.115   9.543  11.014
26802W        W93585  37.554  28.669   4.273
26803W        W93586   0.451   5.002   4.800
26804W        W93587  44.084  15.097  13.056
26805W        W93588  25.823  23.183  14.396
26806W        W93589   6.451  34.421   1.016
26807W        W93590  44.137  16.291   2.254
26808W        W93591   2.550   5.851  14.526
26809W        W93592   9.302  19.512   3.642
26810W        W93593  22.710  26.164   1.685
26811W        W93594   3.019   1.278   1.273
26812W        W93595  42.103   6.928   2.288
26813W        W93596  26.200  34.366  14.797
26814W        W93597  18.880  29.120   0.959
26815W        W93598  11.854  14.313  14.715
26816W        W93599  42.908  22.201  11.424
26817W        W93600  23.998   4.888  12.479
26818W        W93601   8.356   9.940   1.960
26819W        W93602  37.071  23.934   4.006
26820W        W93603  14.363  15.628  10.443
26821W        W93604  33.867  20.286   0.806
26822W        W93605  24.161  38.819   0.928
26823W        W93606  36.260  32.080  11.257
26824W        W93607  19.056  44.094   2.765
26825W        W93608  43.428   2.441   4.603
26826W        W93609  15.592   9.768   4.490
26827W        W93610  34.424  10.150   0.414
26828W        W93611  41.445  24.979  10.799
26829W        W93612  17.598  43.040  14.759
26830W        W93613   4.608  37.583   3.507
26831W        W93614   1.212  43.824   1.811
26832W        W93615  34.051  33.539  12.972
26833W        W93616  24.564   5.756   0.716
26834W        W93617  20.053  35.409  11.141
26835W        W93618  36.825  40.330   0.882
26836W        W93619  40.364  25.392  14.401
26837W        W93620  14.071  15.253   1.822
26838W        W93621  13.161   5.450  12.059
26839W        W93622   7.432   0.908   0.412
26840W        W93623   7.343  24.591   3.694
26841W        W93624  34.283  25.719   4.101
26842W        W93625   5.191  26.034  10.886
26843W        W93626   0.823   5.677  12.045
26844W        W93627  19.502  21.952   1.409
26845W        W93628  13.687  37.381   0.548
26846W        W93629  33.661  24.377   4.259
26847W        W93630  21.382  12.142  12.133
26848W        W93631  23.573  16.322   4.916
26849W        W93632  26.136  26.081  13.315
26850W        W93633  42.978  32.442   4.348
26851W        W93634   8.176  41.484   0.315
26852W        W93635   7.796  44.363   4.473
26853W        W93636  21.092  35.348   1.520
26854W        W93637  12.064  14.111  10.589
26855W        W93638  28.104  10.867   3.321
26856W        W93639  30.630   5.374   4.328
26857W        W93640  27.418  10.825   0.296
26858W        W93641  10.744  34.059   0.882
26859W        W93642  26.454   7.699   1.927
26860W        W93643  31.675  21.797   0.752
26861W        W93644  22.081   3.646   3.127
26862W        W93645  32.646  41.308  11.925
26863W        W93646  22.466  40.881  11.571
26864W        W93647  40.405  44.890   1.898
26865W        W93648  30.986  31.401  14.028
26866W        W93649  19.294  40.135  14.756
26867W        W93650  15.260  20.701   1.700
26868W        W93651  26.747   8.106  14.728
26869W        W93652  31.196  30.172  12.827
26870W        W93653  14.319  12.942   3.650
26871W        W93654  29.208  32.604  12.071
26872W        W93655  20.264  25.467  11.717
26873W        W93656  29.391  34.207  13.826
26874W        W93657  16.178  17.748  11.036
26875W        W93658   4.611  17.668   0.261
26876W        W93659  22.729  32.954   2.066
26877W        W93660  44.995  14.628   3.637
26878W        W93661  32.453  25.885   0.896
26879W        W93662  43.014  30.341   0.876
26880W        W93663   7.277  42.588  10.741
26881W        W93664  24.942  28.220  11.646
26882W        W93665  40.925  20.248  11.552
26883W        W93666  32.547  12.285   4.279
26884W        W93667  25.936  17.705   4.172
26885W        W93668  42.384  30.546   0.172
26886W        W93669  41.954   3.670   4.390
26887W        W93670  22.412  26.435   0.406
26888W        W93671  26.160  12.738   3.682
26889W        W93672  34.017  38.458   4.229
26890W        W93673   9.352  33.870  14.042
26891W        W93674   2.084  35.549   3.186
26892W        W93675  30.146   6.209   4.222
26893W        W93676  10.080  22.192   0.937
26894W        W93677  31.860  32.479   4.726
26895W        W93678  28.006  13.453  13.138
26896W        W93679  34.485  38.537   2.619
26897W        W93680  21.965   4.417  13.334
26898W        W93681  22.759  18.435  12.474
26899W        W93682  22.093  34.022   4.466
26900W        W93683   6.901  11.057  13.939
26901W        W93684  35.540  22.091  11.036
26902W        W93685  18.323  13.238   4.087
26903W        W93686  28.568   4.346   4.658
26904W        W93687  30.017  13.363  11.594
26905W        W93688  11.795  11.978  13.529
26906W        W93689  18.778   3.175  12.002
26907W        W93690   0.825  30.152   2.922
26908W        W93691  31.531  28.839  12.568
26909W        W93692  30.453   8.810  10.774
26910W        W93693   8.736  28.011   4.678
26911W        W93694  36.485  13.948   3.542
26912W        W93695  35.565  10.315   2.595
26913W        W93696  12.196  25.071   0.344
26914W        W93697   2.186  22.724  14.449
26915W        W93698   7.123  18.297   4.303
26916W        W93699   0.359  26.380   2.811
26917W        W93700  43.923  16.314   1.303
26918W        W93701  32.130  41.681  10.498
26919W        W93702   3.600   5.898   1.821
26920W        W93703  11.416  21.142  11.656
26921W        W93704  23.140  13.836  11.512
26922W        W93705   7.486  44.041   0.577
26923W        W93706  15.381  22.169  10.855
26924W        W93707  14.904   3.669   4.370
26925W        W93708  42.440  22.962  14.831
26926W        W93709  31.443  11.368  12.408
26927W        W93710  15.128  31.740  10.686
26928W        W93711   6.307   3.340   4.498
26929W        W93712   4.371  36.845   0.225
26930W        W93713  36.489  38.074  14.393
26931W        W93714  42.033  44.392  10.344
26932W        W93715  28.861  35.031  11.984
26933W        W93716   4.825   9.905  13.553
26934W        W93717  15.119  25.175  14.337
26935W        W93718  29.423  24.014  14.430
26936W        W93719   6.260  35.948  12.465
26937W        W93720  24.392  42.410   4.106
26938W        W93721  30.883   2.650  13.778
26939W        W93722   5.921  29.144  12.472
26940W        W93723  29.264  21.046  11.547
26941W        W93724  21.037  17.494  14.340
26942W        W93725   8.940  14.657  10.966
26943W        W93726  32.715   6.903  12.991
26944W        W93727   4.824  11.231  10.570
26945W        W93728   2.935  26.911  11.563
26946W        W93729  28.547  27.626   4.380
26947W        W93730   9.010   4.922   2.338
26948W        W93731  39.064  21.174  13.524
26949W        W93732  18.813  25.366  10.166
26950W        W93733   4.202  13.997   1.335
26951W        W93734  18.678  16.506  13.531
26952W        W93735  18.740   2.224   4.134
26953W        W93736  19.162  22.182  10.757
26954W        W93737  29.387  39.315  13.316
26955W        W93738  16.405  30.167  13.450
26956W        W93739   4.892  12.419   0.944
26957W        W93740  37.872   8.384   2.763
26958W        W93741  33.871  34.797   3.335
26959W        W93742  36.810  36.558  12.071
26960W        W93743  15.079  17.109  11.531
26961W        W93744  12.781  41.290   4.949
26962W        W93745  29.239  18.482   1.219
26963W        W93746  28.627  27.524   0.707
26964W        W93747   2.859  43.081  12.120
26965W        W93748  24.178  24.419  14.464
26966W        W93749  44.788  33.974   4.521
26967W        W93750  29.224  35.184   1.872
26968W        W93751  10.447  15.350   3.752
26969W        W93752  28.517   0.306   0.311
26970W        W93753  40.097   1.869   3.055
26971W        W93754  14.204  31.105  11.924
26972W        W93755  43.527  32.640   0.297
26973W        W93756  10.910  31.505  12.502
26974W        W93757   4.591  38.717  10.367
26975W        W93758  17.295  20.201   3.653
26976W        W93759  13.595   9.221  14.069
26977W        W93760  22.181   1.178  10.563
26978W        W93761   3.478  21.069   2.856
26979W        W93762  10.928  34.439  11.288
26980W        W93763  20.815   7.266  13.369
26981W        W93764  33.730  39.483   3.388
26982W        W93765   2.014   9.324  13.896
26983W        W93766  16.092  27.631  14.271
26984W        W93767  18.618   2.804  12.833
26985W        W93768  20.180  23.124   1.306
26986W        W93769  40.432   3.679   4.456
26987W        W93770  39.378  31.508  11.636
26988W        W93771  27.543   8.703  13.686
26989W        W93772  40.525   3.531   3.209
26990W        W93773  26.575  34.778   4.517
26991W        W93774  19.851  23.562  14.812
26992W        W93775   9.397  17.640   1.805
26993W        W93776  27.700  43.221   2.043
26994W        W93777  19.177  17.213  11.259
26995W        W93778  16.078  11.671  11.647
26996W        W93779   8.752  26.649   3.213
26997W        W93780   5.183  35.612   2.259
26998W        W93781  33.655   8.107  14.828
26999W        W93782   5.806   7.250  11.698
27000W        W93783  38.076  15.519  13.863
27001W        W93784   1.297  12.981  10.604
27002W        W93785  40.806  40.284  14.561
27003W        W93786  40.044  11.595   1.691
27004W        W93787  26.969   3.162   3.696
27005W        W93788  34.411   5.335  11.131
27006W        W93789  39.093   3.005   4.207
27007W        W93790  12.930  10.351   2.379
27008W        W93791  22.182  33.970  10.704
27009W        W93792   5.765   4.448  12.386
27010W        W93793  19.205  12.722  10.684
27011W        W93794   8.113  14.693   1.501
27012W        W93795  35.862   1.900   2.073
27013W        W93796  39.541  29.441   0.342
27014W        W93797  14.064  20.343   4.108
27015W        W93798  37.629  43.689  12.044
27016W        W93799  30.250  29.475  11.048
27017W        W93800   7.666  12.185   3.155
27018W        W93801  20.100  26.238   4.203
27019W        W93802  27.990   8.752   5.267
27020W        W93803   2.197   0.086   2.364
27021W        W93804   4.214  10.158  14.287
27022W        W93805  28.077  29.671  13.025
27023W        W93806   2.928  18.570  11.992
27024W        W93807  30.960  23.285  14.901
27025W        W93808  24.493  23.995   0.291
27026W        W93809   3.817  14.654  14.361
27027W        W93810  29.650  39.272  14.301
27028W        W93811  32.942  20.049  12.598
27029W        W93812  11.164   0.905   1.365
27030W        W93813   8.504  13.759  13.776
27031W        W93814  14.597  20.294  14.525
27032W        W93815   4.877   0.813   1.282
27033W        W93816  41.860  33.982   0.344
27034W        W93817  26.670  40.557  10.906
27035W        W93818   6.239  21.063  12.204
27036W        W93819  29.705  14.566  11.187
27037W        W93820  30.954  19.258  14.580
27038W        W93821  35.491  22.013   0.471
27039W        W93822  29.436  25.839  10.638
27040W        W93823  11.199  10.086  10.744
27041W        W93824  41.165  36.982  13.643
27042W        W93825  35.053  19.724  14.889
27043W        W93826  16.165   9.652   4.037
27044W        W93827  33.154   9.667   0.947
27045W        W93828  16.539  18.102  14.795
27046W        W93829  35.060  25.965   3.758
27047W        W93830  20.841  37.400   4.571
27048W        W93831  40.017  42.509  12.182
27049W        W93832  36.475  18.960  14.963
27050W        W93833  38.720  37.947  14.783
27051W        W93834   9.209  25.357   1.930
27052W        W93835  34.110   9.111   2.781
27053W        W93836  13.049  32.046   2.771
27054W        W93837  27.995  21.299   0.308
27055W        W93838   0.862  37.288  14.477
27056W        W93839  38.098   2.569  12.617
27057W        W93840  11.132  44.211  10.340
27058W        W93841   9.711  36.075   4.152
27059W        W93842  11.756  23.978  14.923
27060W        W93843  44.856  21.559   1.689
27061W        W93844  36.363  33.051  13.818
27062W        W93845  32.230  28.089   1.325
27063W        W93846   7.162  38.980  12.408
27064W        W93847  30.458  21.985   2.206
27065W        W93848  12.684  25.980  11.567
27066W        W93849  39.574  14.861  13.839
27067W        W93850  31.634  43.670  11.580
27068W        W93851   8.672   7.025  13.352
27069W        W93852  28.710  43.519   5.022
27070W        W93853  42.466  31.184  12.152
27071W        W93854  27.678   2.565   1.844
27072W        W93855  13.352  36.629   3.319
27073W        W93856   5.983  36.256   2.700
27074W        W93857  32.320  29.603   4.085
27075W        W93858  10.105  20.948   4.188
27076W        W93859  10.853  39.425   4.073
27077W        W93860  10.705   6.431   4.503
27078W        W93861  14.516   0.858   2.644
27079W        W93862  34.483  17.554  11.506
27080W        W93863   7.202   5.043  13.645
27081W        W93864  42.553  18.531   2.216
27082W        W93865  37.389   3.154  11.243
27083W        W93866  32.042   8.961  12.625
27084W        W93867  22.821   2.742   0.818
27085W        W93868  19.521  42.841   0.476
27086W        W93869   3.483  19.601   4.536
27087W        W93870  16.162  42.353   0.474
27088W        W93871  41.475   3.533   2.432
27089W        W93872  29.099   7.454  13.362
27090W        W93873  24.444  12.600  13.544
27091W        W93874  42.779  29.618   0.394
27092W        W93875  20.319  37.615  11.257
27093W        W93876   6.224  15.223   2.804
27094W        W93877  30.103   1.743   2.279
27095W        W93878  35.989  42.240  13.472
27096W        W93879   9.665  22.977   3.521
27097W        W93880  28.765   9.141  12.425
27098W        W93881  12.733  11.832   3.376
27099W        W93882  35.914  17.680  10.799
27100W        W93883  22.782   5.020   3.526
27101W        W93884  18.735  38.027  13.483
27102W        W93885  42.382  26.471   3.869
27103W        W93886  26.487   3.008   1.888
27104W        W93887   6.470  25.310  14.013
27105W        W93888  11.840   3.863   3.710
27106W        W93889  23.842  14.184   0.922
27107W        W93890  10.253  41.888  14.961
27108W        W93891  33.226  40.830   2.829
27109W        W93892   0.395   3.980   3.593
27110W        W93893  39.992  24.630   2.399
27111W        W93894  27.012  44.241  13.353
27112W        W93895  29.514  18.640  11.607
27113W        W93896  16.342  40.290   4.492
27114W        W93897  29.718   8.395   4.203
27115W        W93898  41.420  17.599  14.513
27116W        W93899  13.243  18.237  12.432
27117W        W93900  25.339   3.027  12.340
27118W        W93901  33.417  23.471  14.941
27119W        W93902   2.697  25.243   3.170
27120W        W93903  34.593   2.342  14.717
27121W        W93904  24.272  43.032   3.791
27122W        W93905  21.673  12.802   4.179
27123W        W93906  12.328  38.408  12.058
27124W        W93907   8.824   2.816  11.585
27125W        W93908  43.871  23.295  11.650
27126W        W93909   4.873  37.399   5.033
27127W        W93910  34.928  16.066  11.852
27128W        W93911  38.637  35.515  12.994
27129W        W93912  21.157  10.814   0.914
27130W        W93913  31.328  10.385   2.696
27131W        W93914  28.747  36.054  14.393
27132W        W93915  38.477   3.463   3.353
27133W        W93916  37.431  40.407  13.380
27134W        W93917  23.813  20.154  12.010
27135W        W93918  34.518  20.810   1.348
27136W        W93919  35.031  39.623   1.268
27137W        W93920   5.713  36.259   1.871
27138W        W93921  21.176  32.982  11.597
27139W        W93922  25.653  22.651   1.906
27140W        W93923  40.859  22.714   1.200
27141W        W93924  28.104  23.395  14.022
27142W        W93925  34.512   8.594  13.610
27143W        W93926  18.728  36.556  13.023
27144W        W93927  41.914   1.668   1.325
27145W        W93928  38.094  30.035   3.614
27146W        W93929   7.717  25.531   3.230
27147W        W93930   1.743  33.885   1.758
27148W        W93931   2.684  34.176  12.836
27149W        W93932  34.650   5.158   9.806
27150W        W93933  43.031  29.179   0.276
27151W        W93934  29.457  39.071  10.190
27152W        W93935   4.463  28.681  12.149
27153W        W93936  23.636  31.455  12.389
27154W        W93937   6.794  16.641   3.264
27155W        W93938  33.585  19.751   1.666
27156W        W93939  40.760  43.501   2.165
27157W        W93940  42.731  11.025   1.264
27158W        W93941  22.434   5.218  13.146
27159W        W93942  17.814  25.985  13.946
27160W        W93943  20.505  21.634   2.240
27161W        W93944   8.396  18.743   1.919
27162W        W93945  19.289  32.998   3.301
27163W        W93946   3.093  15.979   3.242
27164W        W93947  16.116  20.549   2.852
27165W        W93948  42.959  32.066  13.066
27166W        W93949  40.724  23.059   1.812
27167W        W93950  13.550   4.341   1.669
27168W        W93951  33.273  12.421   5.144
27169W        W93952  43.479  25.834  12.149
27170W        W93953  28.278  12.523   2.680
27171W        W93954  10.617  40.028   4.681
27172W        W93955  11.269  25.366  12.397
27173W        W93956  17.799   7.645   4.058
27174W        W93957  26.565  24.297   4.763
27175W        W93958   8.743  19.605  11.979
27176W        W93959  15.514   5.670  11.514
27177W        W93960  39.446  15.300  10.585
27178W        W93961  11.654   4.785  12.548
27179W        W93962  38.946   6.304  10.721
27180W        W93963   9.640  12.086   4.188
27181W        W93964  34.157  29.962  12.099
27182W        W93965  33.588  37.580  11.562
27183W        W93966  43.823  15.666   3.606
27184W        W93967  39.701   2.273   3.703
27185W        W93968   6.096  23.712   1.426
27186W        W93969   0.808  12.918   2.875
27187W        W93970   1.258  10.747   4.541
27188W        W93971  33.590  33.442  10.164
27189W        W93972  16.626  16.027   4.997
27190W        W93973  18.382  10.754  12.989
27191W        W93974   0.811  23.528   2.866
27192W        W93975  24.337  31.972   4.652
27193W        W93976  17.726  29.238  14.689
27194W        W93977  31.893  21.375  10.159
27195W        W93978  35.295  21.722  13.066
27196W        W93979  44.874   0.537   0.577
27197W        W93980  39.340  18.196   4.135
27198W        W93981  25.552  16.745   0.210
27199W        W93982   3.950  33.124  12.489
27200W        W93983  44.053  29.494   2.828
27201W        W93984  32.324  27.042   3.050
27202W        W93985  25.841  33.116   1.832
27203W        W93986  26.750  16.348   3.324
27204W        W93987  26.698   4.536  13.981
27205W        W93988  29.146   2.306   3.172
27206W        W93989   8.461  26.954  12.350
27207W        W93990  35.188   1.897   1.335
27208W        W93991  26.454  38.422   4.775
27209W        W93992   6.304   4.346  11.870
27210W        W93993  14.602  17.309  10.620
27211W        W93994  14.807   6.425   3.446
27212W        W93995  26.013   2.800   4.827
27213W        W93996  41.218   6.291  10.841
27214W        W93997  23.942  27.126  12.571
27215W        W93998   7.393  15.107   0.426
27216W        W93999   5.969   4.276   1.791
27217W        W94000   4.302  11.209  10.637
27218W        W94001  32.722  10.208  13.424
27219W        W94002  39.538  13.876   5.417
27220W        W94003  29.472   3.249   2.773
27221W        W94004  18.316  20.045   0.490
27222W        W94005  23.622   6.283   2.775
27223W        W94006  13.254   9.818   4.584
27224W        W94007  40.326  16.217   1.014
27225W        W94008  17.834  13.128  14.032
27226W        W94009   5.662   9.826   0.388
27227W        W94010  29.022  25.156  12.470
27228W        W94011   2.116  34.547   4.071
27229W        W94012  28.561  41.430   4.267
27230W        W94013  24.682  18.849  14.070
27231W        W94014  16.153  26.118  11.675
27232W        W94015  32.006  14.615   2.610
27233W        W94016  18.005   9.065  13.585
27234W        W94017  27.207   8.268   1.203
27235W        W94018  10.978  16.313  11.827
27236W        W94019  11.895   3.469  12.028
27237W        W94020  19.370  29.922   4.176
27238W        W94021  20.761  12.344  10.910
27239W        W94022  10.342  29.544  11.480
27240W        W94023  22.273  29.639   0.290
27241W        W94024  27.876  41.849  11.935
27242W        W94025  29.488  42.844   3.275
27243W        W94026  41.855  15.252  12.538
27244W        W94027  42.488   7.245  11.879
27245W        W94028  25.185   1.537   1.413
27246W        W94029   9.861   5.728  12.881
27247W        W94030  40.981  17.272   4.386
27248W        W94031  29.374   0.524  11.481
27249W        W94032  29.992  16.459   2.109
27250W        W94033  11.639  29.218  12.588
27251W        W94034   0.762  32.515  13.363
27252W        W94035  18.056  29.951   4.093
27253W        W94036  40.429   7.172   3.759
27254W        W94037   5.501   3.821  11.647
27255W        W94038  17.851  21.075   2.735
27256W        W94039  43.588  11.326   0.783
27257W        W94040  14.983  18.402  14.222
27258W        W94041  32.498  12.228  13.145
27259W        W94042  33.330  28.080   4.221
27260W        W94043   8.249  27.455   2.199
27261W        W94044  13.332   8.269   9.769
27262W        W94045  25.395  34.483   0.724
27263W        W94046  40.467   5.442   0.051
27264W        W94047  14.455  24.217  13.020
27265W        W94048  12.430  38.627   4.208
27266W        W94049  43.161  14.419   3.593
27267W        W94050  25.175  35.854  13.349
27268W        W94051   8.694  13.401   0.236
27269W        W94052  30.666   2.711  14.359
27270W        W94053  33.780  25.816   4.056
27271W        W94054   6.023  27.645  12.279
27272W        W94055   7.222  25.697   3.171
27273W        W94056  23.114   2.512   2.403
27274W        W94057  33.209  31.389   4.294
27275W        W94058   0.436  35.357   1.217
27276W        W94059   1.504  24.068  14.757
27277W        W94060  43.396  42.057  14.368
27278W        W94061  20.443  43.335   0.073
27279W        W94062  15.072  44.933  13.468
27280W        W94063  26.624  24.428  14.941
27281W        W94064  42.612  14.315   9.710
27282W        W94065  11.911  21.527   0.372
27283W        W94066  44.810  29.544   3.599
27284W        W94067  23.965  25.623   1.338
27285W        W94068  41.598  12.094   3.189
27286W        W94069  25.526  13.527  13.849
27287W        W94070  31.089  28.951  11.670
27288W        W94071  14.149  32.043   4.579
27289W        W94072  14.335  41.100  12.057
27290W        W94073  32.422   5.794   4.750
27291W        W94074   2.643  39.902  12.942
27292W        W94075  35.131  28.436  13.837
27293W        W94076  31.392   7.740  12.436
27294W        W94077  38.509  24.018  14.989
27295W        W94078  10.859  21.686   0.183
27296W        W94079  43.962  30.588  10.408
27297W        W94080   6.820  23.946   3.618
27298W        W94081  14.773  31.979   1.150
27299W        W94082   0.270  22.754  11.010
27300W        W94083  25.025  42.429  11.144
27301W        W94084  25.067  32.503   0.001
27302W        W94085   5.381  27.619   1.923
27303W        W94086  13.656  31.091   1.330
27304W        W94087  37.818  15.309   3.781
27305W        W94088  42.291   4.517   0.243
27306W        W94089  18.735  28.568   0.557
27307W        W94090   3.880  21.169  12.978
27308W        W94091  17.998  21.567   2.788
27309W        W94092  22.034   0.264   4.574
27310W        W94093  14.580  29.417  13.438
27311W        W94094   5.228   2.784  14.711
27312W        W94095  32.181  25.774   2.818
27313W        W94096  24.537  32.591   4.929
27314W        W94097   0.216  15.572  13.557
27315W        W94098   8.056   6.402  13.307
27316W        W94099  23.447  21.021   0.909
27317W        W94100  26.527  11.404   1.378
27318W        W94101  15.713  40.387  13.330
27319W        W94102  44.850  40.356   2.141
27320W        W94103  13.949  10.806   3.662
27321W        W94104  12.150  24.074   1.317
27322W        W94105   1.175  16.604  11.882
27323W        W94106  44.975  44.254  14.931
27324W        W94107  24.620   1.334   2.767
27325W        W94108  39.062   5.123  14.452
27326W        W94109  31.507  36.448  11.669
27327W        W94110  32.613   3.519  10.230
27328W        W94111   6.844   6.339  13.477
27329W        W94112  21.961  11.016   0.779
27330W        W94113   2.974  42.268  10.807
27331W        W94114  16.930  16.044  11.095
27332W        W94115  13.272  10.130  13.784
27333W        W94116  25.995  34.060   1.765
27334W        W94117   0.874  25.048  12.632
27335W        W94118  13.159  28.006  10.697
27336W        W94119  12.264  14.891  13.328
27337W        W94120  22.500  12.662   4.739
27338W        W94121  23.050   5.379  10.242
27339W        W94122  40.888   7.818   4.650
27340W        W94123  34.927  26.666   4.994
27341W        W94124  30.493   9.943  10.857
27342W        W94125  23.687  28.021  13.924
27343W        W94126  17.234   2.802  11.391
27344W        W94127  17.680  27.151   1.282
27345W        W94128   6.954  29.964  11.880
27346W        W94129  37.017  18.239   4.537
27347W        W94130  34.996  44.185  14.388
27348W        W94131  37.202  36.873   3.365
27349W        W94132  19.462   0.711  12.043
27350W        W94133  37.744  21.762  10.132
27351W        W94134  18.779  17.086   3.731
27352W        W94135  29.092  41.028  12.877
27353W        W94136   0.304  30.204  13.084
27354W        W94137  35.472  10.099   4.092
27355W        W94138  26.942  11.315  12.375
27356W        W94139  11.217  30.733  13.907
27357W        W94140  33.070   7.774   2.117
27358W        W94141  30.604  10.486   3.280
27359W        W94142  15.765  21.832  10.087
27360W        W94143  13.775  39.018   4.677
27361W        W94144  15.578  12.602  13.525
27362W        W94145   2.164  26.402   4.564
27363W        W94146   8.768  39.062   2.638
27364W        W94147   3.047  39.526   3.119
27365W        W94148  35.858  22.497  11.040
27366W        W94149  17.582  11.703  12.348
27367W        W94150  11.618  17.180  11.571
27368W        W94151  10.956  14.048   1.414
27369W        W94152  10.832   8.831  13.370
27370W        W94153  38.046  17.863  11.444
27371W        W94154  22.084  36.741  11.112
27372W        W94155  19.641  42.241   0.924
27373W        W94156  35.902  43.940  12.809
27374W        W94157  44.867  26.701  11.387
27375W        W94158  29.471  11.013  11.590
27376W        W94159  44.901  37.016  13.759
27377W        W94160  33.875  40.339  13.883
27378W        W94161  31.341   6.482  12.053
27379W        W94162  26.156   1.785  13.084
27380W        W94163  16.390  36.313  13.940
27381W        W94164  40.046  36.510  13.545
27382W        W94165  32.210  29.543   2.225
27383W        W94166  21.979  44.210  11.501
27384W        W94167  22.348   0.890  11.626
27385W        W94168  31.353  41.982  12.986
27386W        W94169  18.363  37.848   3.659
27387W        W94170  42.475  31.230  13.014
27388W        W94171   2.371  13.303   4.228
27389W        W94172  31.721  15.696   1.176
27390W        W94173  44.350   0.642  10.994
27391W        W94174   7.597   9.193  13.611
27392W        W94175  35.470  37.027   4.776
27393W        W94176  38.064  27.622   4.547
27394W        W94177   2.594  42.006   0.413
27395W        W94178  24.277  21.730  11.026
27396W        W94179  35.484  17.115   2.229
27397W        W94180  14.667   4.914   0.347
27398W        W94181  21.671  37.417   1.684
27399W        W94182  39.063  17.851  14.831
27400W        W94183  15.718  25.191   2.168
27401W        W94184  15.718  27.033  12.185
27402W        W94185  25.051  44.504   1.656
27403W        W94186  32.969  17.636  11.299
27404W        W94187   5.489  23.335   3.190
27405W        W94188  28.653   4.760   2.395
27406W        W94189  14.817  38.711   3.685
27407W        W94190  10.807  15.676  10.259
27408W        W94191  21.700   8.214   1.917
27409W        W94192  21.174  41.980   9.940
27410W        W94193  26.980  42.004  12.530
27411W        W94194  25.190  34.565   1.380
27412W        W94195  14.422  29.678  13.027
27413W        W94196   2.399  11.342   3.211
27414W        W94197  35.040  30.038  11.128
27415W        W94198  11.347  30.011   3.420
27416W        W94199  26.475  16.764  13.887
27417W        W94200  23.690  40.873   3.182
27418W        W94201   7.175  18.718   3.055
27419W        W94202   5.273  38.970  14.107
27420W        W94203  39.467  21.441   1.426
27421W        W94204  23.204  22.642   3.598
27422W        W94205   6.264   5.768   4.558
27423W        W94206  19.687  23.406   1.461
27424W        W94207   5.178  34.136   4.209
27425W        W94208  32.576  36.968   4.612
27426W        W94209  23.081   4.820   2.635
27427W        W94210  33.067   5.862   1.346
27428W        W94211   7.907  10.049  12.657
27429W        W94212   2.844  28.496  12.847
27430W        W94213  33.493  20.092   1.248
27431W        W94214  44.298  28.709   4.181
27432W        W94215   9.941   6.552  10.291
27433W        W94216  41.914  11.336   3.422
27434W        W94217   6.835   6.660  12.101
27435W        W94218   8.493  20.996  11.141
27436W        W94219   8.811  37.651   1.211
27437W        W94220  32.027  30.689   0.545
27438W        W94221  34.483  32.982   0.028
27439W        W94222  14.537  37.813   2.829
27440W        W94223  23.622  34.344   4.316
27441W        W94224   0.253  15.102  12.964
27442W        W94225  33.431  44.170  10.932
27443W        W94226  38.626   0.738   1.417
27444W        W94227  13.762   6.153  12.149
27445W        W94228  31.403  15.265   1.254
27446W        W94229  35.626  41.455   0.653
27447W        W94230  33.907  41.969   0.803
27448W        W94231  12.649   2.216  14.753
27449W        W94232  41.219  35.613   2.967
27450W        W94233   3.521  20.618   3.268
27451W        W94234  32.553  41.130   4.404
27452W        W94235  17.305  31.958  10.352
27453W        W94236  21.786  39.018  12.785
27454W        W94237   7.238  36.663   2.254
27455W        W94238   2.730  23.462   1.234
27456W        W94239  26.181   5.338  14.753
27457W        W94240  38.483  28.588  11.595
27458W        W94241  23.155  17.267   2.227
27459W        W94242   3.912  22.347  10.660
27460W        W94243  39.427  11.115   2.700
27461W        W94244  29.534  30.636  13.868
27462W        W94245  26.715   4.962   2.444
27463W        W94246  22.078  19.091  14.188
27464W        W94247  28.042  12.825   4.109
27465W        W94248   4.799  15.067   0.376
27466W        W94249  35.451  40.999   2.473
27467W        W94250  44.237  40.057  14.358
27468W        W94251  19.483  44.833  10.739
27469W        W94252   0.799  12.201  13.106
27470W        W94253   3.079  11.209   0.366
27471W        W94254  39.623   5.309   0.319
27472W        W94255  40.789  34.085  12.532
27473W        W94256  28.009  13.292   4.350
27474W        W94257  38.814  26.164  11.958
27475W        W94258  16.941  37.929   2.299
27476W        W94259  20.929   5.834   1.272
27477W        W94260  23.024  32.159   0.468
27478W        W94261  33.875  30.944   4.233
27479W        W94262  39.607  24.609   4.820
27480W        W94263  27.896   6.861  10.871
27481W        W94264  25.899  42.979   3.803
27482W        W94265   0.504  21.245  11.189
27483W        W94266  39.011  33.267   4.188
27484W        W94267  31.045  32.175   0.377
27485W        W94268  12.565  31.563  11.923
27486W        W94269  23.936  20.708  13.928
27487W        W94270  32.479  14.713  11.532
27488W        W94271   1.822   5.317   0.503
27489W        W94272  36.408   9.878  11.162
27490W        W94273   1.418  18.333   4.198
27491W        W94274  18.883  19.255   2.804
27492W        W94275   7.384   1.743   0.882
27493W        W94276  31.110  36.979   2.154
27494W        W94277  37.140  32.253   3.314
27495W        W94278   3.275  31.333  11.571
27496W        W94279  30.467  39.458   0.791
27497W        W94280  29.241  18.775   3.982
27498W        W94281  24.605  28.607  10.586
27499W        W94282  12.395  40.905  13.470
27500W        W94283  30.147  15.693  12.012
27501W        W94284  34.527   4.150  11.144
27502W        W94285  33.564   6.438   0.465
27503W        W94286  36.156   4.486   4.346
27504W        W94287  37.882  33.630   2.426
27505W        W94288   1.797  41.993  12.831
27506W        W94289   3.924  18.581   0.693
27507W        W94290  43.318   0.813   4.707
27508W        W94291  16.133  36.357   9.818
27509W        W94292   4.430  10.263  12.405
27510W        W94293  28.650   4.867   4.703
27511W        W94294   2.868  19.759   2.656
27512W        W94295  31.927  30.435  13.565
27513W        W94296  12.130  19.195  13.827
27514W        W94297  18.429  30.978  11.467
27515W        W94298  33.154  36.130   2.516
27516W        W94299  40.085   4.621   1.288
27517W        W94300   8.274  19.969  11.169
27518W        W94301  41.377  27.681  12.798
27519W        W94302  15.028  16.147   5.774
27520W        W94303   8.925  29.404  13.482
27521W        W94304  10.222   2.826   1.438
27522W        W94305   2.771  12.837  14.451
27523W        W94306  27.457  25.244  13.056
27524W        W94307  19.590  34.407   2.182
27525W        W94308  12.391  39.444  12.166
27526W        W94309  34.370  43.467   2.233
27527W        W94310  23.273  44.995   4.585
27528W        W94311  24.092  11.105   4.856
27529W        W94312   7.173  38.523   2.800
27530W        W94313  19.640  11.593   3.183
27531W        W94314  28.569  15.777   2.121
27532W        W94315  29.833  37.520  13.416
27533W        W94316   9.585  31.889   1.345
27534W        W94317  19.305   5.620  13.467
27535W        W94318  42.176  32.629  12.122
27536W        W94319  15.214  12.077   0.769
27537W        W94320  14.648   0.792  12.529
27538W        W94321   6.201  10.018   1.255
27539W        W94322  22.636  44.295  10.967
27540W        W94323   8.137   3.996   2.247
27541W        W94324  19.671  13.699  12.425
27542W        W94325  42.324   0.628  13.144
27543W        W94326  26.017  16.395   0.876
27544W        W94327   8.060  23.612  11.410
27545W        W94328  14.595  31.920  14.766
27546W        W94329  37.180  14.478   2.014
27547W        W94330  25.715  36.061  11.563
27548W        W94331  14.075  36.665  12.341
27549W        W94332  13.032  20.507   4.020
27550W        W94333  21.844   1.447  13.848
27551W        W94334  20.482   7.318   2.197
27552W        W94335  14.127   0.378   1.193
27553W        W94336  43.202  31.946   2.269
27554W        W94337  38.031  10.740   2.257
27555W        W94338  27.424  16.403  11.453
27556W        W94339  24.057  26.047   2.291
27557W        W94340   0.035  43.948  14.521
27558W        W94341  39.563  21.608  12.127
27559W        W94342  14.229  22.524  12.438
27560W        W94343   9.669  20.822  11.278
27561W        W94344  19.787   6.349  10.632
27562W        W94345   9.167  13.358   2.174
27563W        W94346   2.346  41.731   1.727
27564W        W94347  11.477  20.681  10.621
27565W        W94348   0.201  16.194   3.701
27566W        W94349  11.648  26.589   0.791
27567W        W94350  39.558  16.211   3.704
27568W        W94351  21.618   3.937   3.252
27569W        W94352   4.383  20.673  10.989
27570W        W94353  28.390  33.756  13.891
27571W        W94354  35.560   3.361  12.424
27572W        W94355  14.183   7.779   3.012
27573W        W94356  27.498   7.757  13.473
27574W        W94357   4.889  36.560  13.051
27575W        W94358  14.866  18.797  11.001
27576W        W94359   6.813  40.781   4.538
27577W        W94360  14.768   0.994  13.909
27578W        W94361   2.388  43.897   4.294
27579W        W94362  29.203  35.505  13.284
27580W        W94363  25.525  18.032   5.128
27581W        W94364  32.963   0.206  14.929
27582W        W94365   3.365  20.774   4.160
27583W        W94366  39.040   3.323  14.623
27584W        W94367  11.781  32.201   2.937
27585W        W94368  34.601   3.238   3.339
27586W        W94369  31.668  43.917  12.877
27587W        W94370   8.752  31.346   4.660
27588W        W94371  14.683  24.936  10.721
27589W        W94372  10.741  28.007   3.692
27590W        W94373  18.924  36.404   0.050
27591W        W94374  22.162  33.672   0.470
27592W        W94375  37.013   3.216   5.132
27593W        W94376  14.163  13.090  11.441
27594W        W94377  38.796  12.849   2.572
27595W        W94378  18.884   3.927  13.834
27596W        W94379  37.849  41.042   1.480
27597W        W94380  19.607  25.976   2.908
27598W        W94381   6.851   6.636   1.215
27599W        W94382  42.452  44.781   0.524
27600W        W94383  12.177  14.640   2.363
27601W        W94384  29.634  17.747   3.639
27602W        W94385  40.089  31.552   4.024
27603W        W94386   7.891  31.915  14.059
27604W        W94387  12.822   2.928  12.667
27605W        W94388   7.145  42.676   1.136
27606W        W94389  27.583   7.265   4.241
27607W        W94390  29.181  18.845  14.957
27608W        W94391  34.164  42.337  11.091
27609W        W94392  44.409  41.959   1.853
27610W        W94393  12.246  39.758  11.104
27611W        W94394  14.311  39.998  11.258
27612W        W94395  27.488  30.545   2.159
27613W        W94396  23.203  23.645  11.668
27614W        W94397  29.328  10.666   1.241
27615W        W94398  28.974  31.100   3.412
27616W        W94399  25.975  21.469  14.886
27617W        W94400  19.473  44.399  13.521
27618W        W94401  28.580  13.217   0.411
27619W        W94402  14.507  14.270   4.730
27620W        W94403  13.995   1.450  12.663
27621W        W94404  17.568  32.152  12.592
27622W        W94405   1.443  23.416   1.032
27623W        W94406  39.884  43.040  13.780
27624W        W94407  31.714  28.036   1.466
27625W        W94408  33.377  15.913  13.848
27626W        W94409  32.153  27.239  11.141
27627W        W94410  23.852   5.277   2.805
27628W        W94411  12.748  14.917   4.052
27629W        W94412  25.672  38.471   2.802
27630W        W94413  12.303  16.768   0.521
27631W        W94414  42.424  42.320   3.113
27632W        W94415  39.299  28.149  12.875
27633W        W94416  22.173  32.037   4.534
27634W        W94417  29.023  27.738  13.511
27635W        W94418  44.394   4.979  12.840
27636W        W94419  30.132  37.594   4.616
27637W        W94420  24.817  29.751   3.313
27638W        W94421  32.412  13.898  13.996
27639W        W94422   6.912  13.781   1.237
27640W        W94423   1.548  22.612   1.445
27641W        W94424  27.204   8.439   3.797
27642W        W94425   6.895  15.685  13.539
27643W        W94426  12.651   2.482  13.739
27644W        W94427  33.394   3.207   2.169
27645W        W94428  26.697  43.682   0.947
27646W        W94429  35.614  31.381   2.686
27647W        W94430  26.930  39.386  13.904
27648W        W94431   8.128  10.895  13.390
27649W        W94432  44.934  19.830  13.474
27650W        W94433   1.398  12.390  11.305
27651W        W94434  35.939  16.635   3.215
27652W        W94435   0.746  29.009   0.115
27653W        W94436  22.668  28.513   1.167
27654W        W94437  42.912  22.159  11.927
27655W        W94438  25.694  40.973   0.357
27656W        W94439  28.061   8.698   4.270
27657W        W94440  29.552  42.086  13.374
27658W        W94441  25.038   1.732  14.392
27659W        W94442  43.434   9.437   3.020
27660W        W94443   0.953  43.530   4.144
27661W        W94444   5.583  10.513   0.331
27662W        W94445  33.872  34.471  11.331
27663W        W94446   7.063  30.517  14.823
27664W        W94447  11.610  35.505   0.847
27665W        W94448  32.081  40.972   4.620
27666W        W94449   4.475  24.239   2.690
27667W        W94450  14.769  31.638  14.316
27668W        W94451   5.280   3.313  10.997
27669W        W94452  39.289   7.784  13.629
27670W        W94453  11.728  31.438   1.752
27671W        W94454  41.489  20.528  14.376
27672W        W94455  14.388  40.610  12.817
27673W        W94456  11.324   0.966   4.464
27674W        W94457  34.412   7.136   0.237
27675W        W94458  35.926  15.053  13.368
27676W        W94459  40.965  17.397  14.642
27677W        W94460  38.962  32.424   2.887
27678W        W94461   0.806  41.508  14.041
27679W        W94462   2.760   5.952   1.484
27680W        W94463  34.206  24.331   4.296
27681W        W94464  18.224   1.713   1.613
27682W        W94465  14.244  29.554  14.280
27683W        W94466  21.928  30.147  14.442
27684W        W94467  16.369   0.974   3.777
27685W        W94468  43.877  11.558  10.948
27686W        W94469   5.234  22.437  10.319
27687W        W94470  16.079  22.028  12.343
27688W        W94471  21.449  38.872  10.181
27689W        W94472   5.444  36.988  11.642
27690W        W94473  24.461  39.565  13.308
27691W        W94474  17.638   8.272   2.839
27692W        W94475  36.003  22.220   4.241
27693W        W94476  22.699   5.792   4.636
27694W        W94477  26.392  42.301   0.218
27695W        W94478  19.916   8.805   0.237
27696W        W94479   8.307  44.615   4.118
27697W        W94480  23.996  22.813   4.330
27698W        W94481  30.227  14.315  11.117
27699W        W94482  17.563  26.993  12.349
27700W        W94483  21.182  11.172  11.284
27701W        W94484  26.534  44.533  14.357
27702W        W94485  18.380  12.837   3.687
27703W        W94486   9.331  18.622  14.323
27704W        W94487  23.137   4.902   5.702
27705W        W94488  35.271  41.421  13.554
27706W        W94489   9.820   6.187   3.345
27707W        W94490  37.001   8.126  11.120
27708W        W94491   5.993  22.737   2.628
27709W        W94492  38.034  34.148   3.280
27710W        W94493  36.836   8.821  13.800
27711W        W94494   6.359  20.740   1.777
27712W        W94495  44.703  17.602  12.864
27713W        W94496  30.188  22.927   3.065
27714W        W94497  12.352  29.409  14.809
27715W        W94498  28.471   5.407  11.959
27716W        W94499  31.576  43.175  11.653
27717W        W94500  37.016   9.491   4.630
27718W        W94501  33.033  40.935   3.556
27719W        W94502  19.892  11.116   4.764
27720W        W94503   1.674  10.225  12.445
27721W        W94504  15.525  23.367  11.054
27722W        W94505  32.893   8.964  10.390
27723W        W94506   1.024  27.144  14.848
27724W        W94507  34.020   8.407   4.468
27725W        W94508  31.574  22.371   4.237
27726W        W94509  24.719  27.873   1.286
27727W        W94510  17.683   1.719   2.948
27728W        W94511  20.809  24.621   3.816
27729W        W94512  42.240   6.934  13.965
27730W        W94513  12.554  13.332   1.783
27731W        W94514  13.725  24.704  14.559
27732W        W94515   4.363   4.510  12.525
27733W        W94516  39.547  42.383  11.988
27734W        W94517  10.660   2.290   3.720
27735W        W94518  21.439  33.441  14.828
27736W        W94519  34.621  20.981   3.325
27737W        W94520  20.816  17.757   1.782
27738W        W94521  28.519   9.312  10.663
27739W        W94522   6.803  35.380   4.418
27740W        W94523   0.308  39.910   3.662
27741W        W94524  26.980  43.041  12.467
27742W        W94525  32.690   9.311   2.743
27743W        W94526  17.863  38.466   1.722
27744W        W94527  24.975  18.138  11.091
27745W        W94528  43.370   8.528  13.317
27746W        W94529   5.362  15.972   1.302
27747W        W94530  39.499  38.370   2.741
27748W        W94531  28.930  14.193  11.520
27749W        W94532   2.306  28.628  12.773
27750W        W94533   4.319  41.537  11.472
27751W        W94534  22.244  31.772  13.246
27752W        W94535  35.927  17.537   0.748
27753W        W94536  12.377   9.750   4.405
27754W        W94537  17.052  18.165   2.363
27755W        W94538  35.558  15.875  12.974
27756W        W94539   5.323  10.260  12.495
27757W        W94540  33.417   8.399  13.386
27758W        W94541  39.230  14.777   1.169
27759W        W94542  35.127   7.747   4.281
27760W        W94543  37.022   6.402   2.332
27761W        W94544  31.526   5.432   2.736
27762W        W94545  31.123  15.046  13.108
27763W        W94546  31.493  36.282   0.336
27764W        W94547  29.865  10.703   3.593
27765W        W94548  26.218  32.772   1.795
27766W        W94549  24.195  38.630  12.089
27767W        W94550  34.604  21.106   0.918
27768W        W94551  12.665  17.139   4.515
27769W        W94552   6.325  43.063  10.680
27770W        W94553   3.477  20.146   4.737
27771W        W94554  17.580  28.444   3.607
27772W        W94555  17.246   5.382   4.108
27773W        W94556   7.288  39.855  13.963
27774W        W94557  23.231  18.683  11.937
27775W        W94558  22.538   8.121  11.145
27776W        W94559   9.125  15.495   2.670
27777W        W94560  37.070  16.071  13.538
27778W        W94561  43.462  18.672   1.768
27779W        W94562  31.591  18.935   2.893
27780W        W94563  35.355  42.333   4.133
27781W        W94564   7.954  31.012  14.908
27782W        W94565  32.821  22.816   0.339
27783W        W94566  15.272  39.613   4.122
27784W        W94567  44.399   2.977  10.517
27785W        W94568  44.276  39.636  14.052
27786W        W94569  26.884  13.217  14.453
27787W        W94570  34.898   9.149  12.491
27788W        W94571  13.238   0.928  14.247
27789W        W94572   1.440  22.727   3.591
27790W        W94573  12.077  15.924  14.007
27791W        W94574   0.737  24.235   0.107
27792W        W94575  19.512  12.406   4.864
27793W        W94576  35.669  20.310  11.211
27794W        W94577  10.372   0.507   3.642
27795W        W94578  44.842   8.712  11.907
27796W        W94579   5.319  10.781   3.686
27797W        W94580  35.922   7.956  14.604
27798W        W94581  15.655  30.591  10.770
27799W        W94582  10.726  39.260  13.176
27800W        W94583  14.610   4.396   2.843
27801W        W94584  20.113  31.869  12.512
27802W        W94585  26.470  19.743   3.849
27803W        W94586  12.009   7.505   0.272
27804W        W94587  38.311  21.265   1.165
27805W        W94588  12.215  32.077  14.032
27806W        W94589  13.778   0.735   1.321
27807W        W94590   6.739  13.325  13.436
27808W        W94591   0.202   1.081   3.295
27809W        W94592  15.701  43.235   3.811
27810W        W94593  31.642  32.941  14.964
27811W        W94594   8.839  30.718  14.491
27812W        W94595  42.640  44.450  12.752
27813W        W94596  31.916  39.885   3.231
27814W        W94597  23.440  26.049   3.629
27815W        W94598   6.875  31.998   0.009
27816W        W94599  37.184  40.326   2.847
27817W        W94600  21.008   8.391   0.201
27818W        W94601  38.473   2.498   1.815
27819W        W94602  42.231  29.822  14.304
27820W        W94603  33.436  31.091   3.580
27821W        W94604  27.989  13.440   0.780
27822W        W94605  10.380   0.748  14.062
27823W        W94606  15.990  39.742  12.722
27824W        W94607   3.932  11.522   1.014
27825W        W94608   5.130  21.273  13.386
27826W        W94609  19.977  15.445   0.385
27827W        W94610  42.654  39.921  13.385
27828W        W94611  15.307  43.259  13.070
27829W        W94612   5.239   5.827  11.142
27830W        W94613   7.914  10.611  14.854
27831W        W94614  34.079  16.518  11.979
27832W        W94615  22.805  37.823   0.352
27833W        W94616  10.862  36.389   3.914
27834W        W94617  40.813  36.892   0.777
27835W        W94618   1.766  24.930  13.772
27836W        W94619  24.570  37.604   2.349
27837W        W94620  28.717  16.189  14.015
27838W        W94621  35.135  34.110   0.330
27839W        W94622  34.303  42.818   0.505
27840W        W94623  15.596   9.629  12.487
27841W        W94624   3.203   6.386   4.260
27842W        W94625   7.153   7.523  13.906
27843W        W94626  21.228   8.279   1.624
27844W        W94627   1.417   1.091   3.683
27845W        W94628  14.362  35.236   5.613
27846W        W94629  35.877  35.175  14.236
27847W        W94630   0.285   3.959   4.493
27848W        W94631  26.906  16.728  10.536
27849W        W94632  35.340  26.211  14.437
27850W        W94633  35.037  15.303   0.799
27851W        W94634  31.931  13.873   0.309
27852W        W94635  23.907   0.449   1.858
27853W        W94636  16.064  44.060  13.952
27854W        W94637  16.384  11.680   3.716
27855W        W94638   0.803  23.404  14.894
27856W        W94639  35.557  12.219  12.561
27857W        W94640  36.842  32.758   0.023
27858W        W94641   3.775  27.094  10.357
27859W        W94642   1.425   0.903  10.674
27860W        W94643  31.000  36.589  14.480
27861W        W94644   1.373  39.125   0.461
27862W        W94645  25.224  30.558  11.040
27863W        W94646  20.382  42.974   3.177
27864W        W94647  13.811  31.004  14.855
27865W        W94648  27.616  23.604  13.320
27866W        W94649  36.677   3.207   0.937
27867W        W94650  20.778  24.224   0.233
27868W        W94651  23.237  13.710   3.777
27869W        W94652   2.867   9.022   4.315
27870W        W94653  31.737  43.913   0.367
27871W        W94654  35.513  23.143   4.488
27872W        W94655  23.706  38.100  14.310
27873W        W94656  42.994  38.852  13.914
27874W        W94657  27.148  30.654   3.223
27875W        W94658  35.670  40.567   2.746
27876W        W94659  17.312   9.528  12.481
27877W        W94660   5.937  24.023   0.860
27878W        W94661  39.953  26.175  13.474
27879W        W94662  11.496  19.114   1.422
27880W        W94663  41.361  32.062   2.682
27881W        W94664  28.785   2.929   3.675
27882W        W94665  23.481  22.156  13.035
27883W        W94666  18.637   4.207   3.096
27884W        W94667  30.117   5.551  14.951
27885W        W94668  31.896  15.514  11.583
27886W        W94669   0.868  25.873   4.735
27887W        W94670   6.855  35.773  14.903
27888W        W94671  43.482   3.305   4.106
27889W        W94672  23.267  31.468   4.137
27890W        W94673   3.499  26.245  11.166
27891W        W94674  17.027  29.362   1.691
27892W        W94675  44.324  28.560  14.037
27893W        W94676   8.427  32.043   2.492
27894W        W94677  32.521  25.607   4.403
27895W        W94678   5.951  41.024   1.723
27896W        W94679  26.501  22.371   1.826
27897W        W94680  30.023   6.753   4.599
27898W        W94681  17.472  13.058  13.240
27899W        W94682  36.821  33.084   2.022
27900W        W94683  40.914   9.614  11.787
27901W        W94684  13.903  26.033   3.154
27902W        W94685  34.383  41.865   1.010
27903W        W94686  32.151  23.739  12.619
27904W        W94687  35.492  38.004   3.085
27905W        W94688  27.648  13.979   1.809
27906W        W94689  18.043  30.090   2.102
27907W        W94690  27.007  24.294   1.145
27908W        W94691  20.524   6.952   1.790
27909W        W94692  41.074   4.074   1.885
27910W        W94693  30.003  34.344  11.443
27911W        W94694  32.640  33.789  11.081
27912W        W94695  15.857  23.968   3.311
27913W        W94696  11.892  12.818   3.417
27914W        W94697  12.896   9.819  12.548
27915W        W94698  36.580  15.709   1.153
27916W        W94699  21.668  23.023   1.489
27917W        W94700  31.962  24.047  14.322
27918W        W94701  19.108  35.724   3.332
27919W        W94702  35.422  43.805  11.524
27920W        W94703  14.083   1.672   4.302
27921W        W94704  43.712  42.881   4.579
27922W        W94705  27.135  21.243  14.814
27923W        W94706   6.398  22.129  11.453
27924W        W94707  22.849  39.957  10.677
27925W        W94708  41.422   9.781  11.910
27926W        W94709   6.318  36.070  11.983
27927W        W94710  23.796  40.813  10.576
27928W        W94711   5.300  36.645  12.028
27929W        W94712   4.865  31.186  11.093
27930W        W94713  24.317  28.466  14.339
27931W        W94714  37.854  10.301  10.687
27932W        W94715  36.019  28.567  13.342
27933W        W94716   2.930  18.062   0.782
27934W        W94717  36.902  16.231   3.660
27935W        W94718  28.061  14.934   3.043
27936W        W94719  44.469  14.795   3.571
27937W        W94720   1.773  14.997  14.379
27938W        W94721  35.842   0.017  11.448
27939W        W94722  32.004  38.836  13.001
27940W        W94723  25.691  30.878  11.992
27941W        W94724  16.157  39.814   0.298
27942W        W94725  11.772   3.985  11.052
27943W        W94726  30.906  25.450  11.463
27944W        W94727  43.769  31.031  10.680
27945W        W94728   7.771  15.731   4.029
27946W        W94729  27.698   7.143  14.563
27947W        W94730  24.150  18.114  13.037
27948W        W94731  35.851   6.320  13.527
27949W        W94732  16.335  15.620   0.823
27950W        W94733  16.041  11.826  14.904
27951W        W94734  12.354  42.576  13.360
27952W        W94735  40.491  17.742   1.319
27953W        W94736  26.449  17.405   0.121
27954W        W94737  19.778  16.626  14.917
27955W        W94738  39.566  40.101  13.877
27956W        W94739   6.440  19.760   3.928
27957W        W94740   6.432  44.498  11.008
27958W        W94741  34.691  36.072  12.016
27959W        W94742  15.193  44.713   4.166
27960W        W94743  31.668   7.339  10.505
27961W        W94744   8.929   4.587   0.350
27962W        W94745  29.925  19.135  12.617
27963W        W94746  29.392  33.190  12.890
27964W        W94747  33.467  38.662   4.821
27965W        W94748   8.797  36.316   0.988
27966W        W94749  22.170  14.860   1.719
27967W        W94750   4.973  24.287  12.526
27968W        W94751  17.778  38.460  11.033
27969W        W94752  42.875  18.475   4.091
27970W        W94753   0.802  44.949  12.580
27971W        W94754  28.912  39.152  14.440
27972W        W94755  25.255   7.559  12.907
27973W        W94756   7.466   0.011   2.376
27974W        W94757  26.618  42.485  12.968
27975W        W94758  43.985  12.718  11.068
27976W        W94759  10.168  39.348   4.602
27977W        W94760  32.036   7.749  11.474
27978W        W94761  29.562  39.896  14.570
27979W        W94762  33.569   0.919   4.141
27980W        W94763  21.205  22.543   0.321
27981W        W94764   7.372  26.884   4.108
27982W        W94765  40.969  17.431   9.839
27983W        W94766  31.133  31.015  10.738
27984W        W94767   0.780  31.567   1.452
27985W        W94768   3.336  16.752   4.030
27986W        W94769   0.533  13.815   1.860
27987W        W94770   4.816  44.890  12.557
27988W        W94771  37.955   0.286   1.723
27989W        W94772   8.237   8.430   4.411
27990W        W94773   1.853  25.705   4.950
27991W        W94774  43.537   8.104  14.724
27992W        W94775  23.311  29.840  11.189
27993W        W94776  25.754  38.324   3.663
27994W        W94777  39.358   6.801   1.254
27995W        W94778   6.744   7.167  14.683
27996W        W94779  36.873   0.144   2.640
27997W        W94780  37.963  29.537   4.401
27998W        W94781  14.124   4.367   2.691
27999W        W94782  11.407  22.499  13.055
28000W        W94783  33.647  30.020  13.560
28001W        W94784  31.733  29.442  11.110
28002W        W94785   2.866  39.419   4.090
28003W        W94786   3.275  33.889  14.800
28004W        W94787   3.956  39.540   3.755
28005W        W94788   7.633  34.451  11.603
28006W        W94789   8.930  15.011  13.692
28007W        W94790  17.498  30.656  12.579
28008W        W94791   9.175   7.995  12.947
28009W        W94792  21.692  29.655   2.225
28010W        W94793  14.128  12.666   4.353
28011W        W94794  19.480  43.983  13.910
28012W        W94795  41.281  35.971  12.319
28013W        W94796  19.131  11.228   4.842
28014W        W94797  39.205   6.249  14.339
28015W        W94798  36.811  22.580  13.273
28016W        W94799  41.494  17.596   3.186
28017W        W94800  37.065   2.175   1.975
28018W        W94801  14.942  32.140  11.589
28019W        W94802  31.161  43.763  13.904
28020W        W94803   9.186   9.806  14.950
28021W        W94804  17.355  43.693  11.191
28022W        W94805  35.096   0.713  14.331
28023W        W94806  35.520  10.676  12.386
28024W        W94807  15.824   4.478   2.827
28025W        W94808   4.771  19.800   9.833
28026W        W94809  10.435   8.292  12.720
28027W        W94810   8.328  13.501   4.217
28028W        W94811  26.944   0.582   0.455
28029W        W94812   6.928  22.666   2.190
28030W        W94813  23.405   9.738   4.201
28031W        W94814  14.475  13.560  12.389
28032W        W94815  27.125   4.195  14.848
28033W        W94816   3.665  27.479  13.963
28034W        W94817  29.971  32.367   2.781
28035W        W94818  31.146  14.338   2.838
28036W        W94819  42.434  31.890  11.056
28037W        W94820  39.284   5.718  14.544
28038W        W94821  15.803  25.034  13.882
28039W        W94822  31.182   9.449  14.409
28040W        W94823  23.672   2.588  12.250
28041W        W94824   4.464  20.022  11.602
28042W        W94825  29.616  28.445  13.904
28043W        W94826  21.037  30.452  10.056
28044W        W94827  35.365  19.961  10.673
28045W        W94828  13.901  10.294  11.981
28046W        W94829  38.087  15.759   3.802
28047W        W94830  43.040  16.052   1.256
28048W        W94831   1.043  19.704  14.536
28049W        W94832  38.246  34.582   0.652
28050W        W94833  24.750  27.253   4.594
28051W        W94834   6.321  23.920  13.043
28052W        W94835  29.635  11.538  11.504
28053W        W94836  44.902  40.894  11.445
28054W        W94837  38.062  18.600   2.893
28055W        W94838  22.227  23.292  14.827
28056W        W94839  34.776  28.759  13.095
28057W        W94840  38.606   7.688  13.692
28058W        W94841  26.637  27.551  12.593
28059W        W94842  36.284  20.203   0.775
28060W        W94843   8.849  37.653  12.523
28061W        W94844  11.725  20.540  12.667
28062W        W94845  16.257  39.592  12.301
28063W        W94846  15.795  14.769   1.709
28064W        W94847   5.055  12.935  14.747
28065W        W94848   9.845  35.397  13.016
28066W        W94849  28.407  44.023  14.914
28067W        W94850  10.375   9.775  13.988
28068W        W94851  19.097  36.505  14.092
28069W        W94852  10.628  22.135   0.502
28070W        W94853  41.411   2.095   3.031
28071W        W94854  40.892  15.360   4.272
28072W        W94855  32.987   5.328  11.869
28073W        W94856  16.842  32.675  11.397
28074W        W94857  22.306  27.222   1.335
28075W        W94858  38.719  27.181   3.582
28076W        W94859  33.625  11.621  14.774
28077W        W94860  39.938  10.175   1.560
28078W        W94861  32.967  16.384   4.546
28079W        W94862  35.870  36.373   2.838
28080W        W94863  39.816   4.217   0.735
28081W        W94864  44.945  13.552   5.098
28082W        W94865  24.256  13.015   0.887
28083W        W94866  37.963  40.801  12.063
28084W        W94867  17.772  11.827   0.781
28085W        W94868  26.287  39.394  13.371
28086W        W94869  32.055  39.377   2.588
28087W        W94870  20.676  11.338  13.076
28088W        W94871  25.792  44.797  11.675
28089W        W94872  13.694  36.995   0.972
28090W        W94873  32.372  19.199   1.823
28091W        W94874  25.265   6.250  10.890
28092W        W94875  30.428  10.273   2.836
28093W        W94876  32.494  11.824   2.306
28094W        W94877   2.990  26.980   4.486
28095W        W94878  42.871  37.813   1.352
28096W        W94879  43.446  29.740   4.086
28097W        W94880  10.863  31.092   0.364
28098W        W94881  26.685  36.470  14.798
28099W        W94882  42.141   3.302  11.959
28100W        W94883  38.572  22.028  14.930
28101W        W94884   5.439  18.116   1.413
28102W        W94885  12.229  39.048   1.895
28103W        W94886  32.818  42.871  10.213
28104W        W94887  16.387   3.867   0.022
28105W        W94888  38.977  17.581   4.348
28106W        W94889   5.604   5.849  11.488
28107W        W94890  19.127  13.231   1.821
28108W        W94891  28.285  37.618  10.078
28109W        W94892   9.807  28.596   4.361
28110W        W94893  31.625  10.736   2.967
28111W        W94894  35.523   7.362   2.650
28112W        W94895  29.289  43.941  13.338
28113W        W94896   0.936  14.313  11.559
28114W        W94897   5.723  23.064  10.851
28115W        W94898  30.062  35.679  14.237
28116W        W94899  25.643  13.752  11.130
28117W        W94900  15.178  23.999   2.339
28118W        W94901   2.787  41.840   1.267
28119W        W94902   6.862  27.337  13.241
28120W        W94903  35.343  43.487  11.928
28121W        W94904   7.747  14.173  10.603
28122W        W94905  10.665  34.897  13.355
28123W        W94906  33.488  17.611  14.252
28124W        W94907  38.789  22.547  12.543
28125W        W94908  44.675  27.637  11.075
28126W        W94909  13.208  40.164   4.619
28127W        W94910  13.686  34.886  13.259
28128W        W94911   9.869  31.993  14.902
28129W        W94912  30.823  20.382   4.106
28130W        W94913  26.666  20.085  12.424
28131W        W94914  24.768  13.662  14.092
28132W        W94915  16.733  38.961   2.387
28133W        W94916  21.871  17.256   0.275
28134W        W94917  22.394  31.977   3.193
28135W        W94918  44.981  22.059   0.804
28136W        W94919  13.527  29.971  14.347
28137W        W94920  25.675  22.962   2.319
28138W        W94921  15.050   9.379  14.537
28139W        W94922  29.978  16.294   3.643
28140W        W94923  27.195   0.742   4.553
28141W        W94924   8.232  39.408   3.278
28142W        W94925  43.860   0.625   3.031
28143W        W94926  20.068  18.701  13.780
28144W        W94927   3.262  38.880  12.979
28145W        W94928  27.725  41.707  12.847
28146W        W94929  21.050  30.168   1.265
28147W        W94930  13.232  20.605  13.828
28148W        W94931  28.653  34.477   3.253
28149W        W94932  33.578  10.803   3.541
28150W        W94933   2.991  44.424  12.991
28151W        W94934  39.487  33.896  14.515
28152W        W94935   8.592   4.202  13.359
28153W        W94936   1.441  31.907   0.866
28154W        W94937  26.178  43.914  11.639
28155W        W94938  16.366   2.783   0.009
28156W        W94939  25.797  28.447  14.456
28157W        W94940  25.596   5.588   1.758
28158W        W94941  42.143  41.592   0.356
28159W        W94942   3.814  37.985   2.488
28160W        W94943   3.210  40.975   4.528
28161W        W94944  41.205   1.515   3.612
28162W        W94945   9.129  33.684  12.388
28163W        W94946  18.078  10.255  13.613
28164W        W94947  14.350  31.823  10.255
28165W        W94948  18.793  32.485   3.689
28166W        W94949  33.838   6.004   3.126
28167W        W94950   2.635  40.437  13.765
28168W        W94951  35.167  27.019  13.582
28169W        W94952  44.900  43.502  12.555
28170W        W94953  27.147  19.493   0.747
28171W        W94954   5.099  29.138  11.648
28172W        W94955   1.907  11.772   4.509
28173W        W94956   4.272  39.557  11.902
28174W        W94957  36.614   5.358  14.473
28175W        W94958  35.291   5.856  10.698
28176W        W94959  38.931  43.995  10.556
28177W        W94960   9.992  22.956   1.967
28178W        W94961   1.373   3.686  11.962
28179W        W94962   8.681   4.599   3.213
28180W        W94963  28.269   8.684   1.863
28181W        W94964  16.739  10.336   4.593
28182W        W94965  17.325  44.553  12.783
28183W        W94966  32.236   2.790   1.893
28184W        W94967  28.547   9.337   0.431
28185W        W94968  18.314  39.849   2.643
28186W        W94969   3.377  42.820   3.466
28187W        W94970  27.001  36.117  11.565
28188W        W94971   0.103  34.956   0.274
28189W        W94972  32.896  30.115  10.704
28190W        W94973  34.975  21.721   1.258
28191W        W94974  29.546   3.627   0.957
28192W        W94975  39.981  30.349  12.135
28193W        W94976   9.780  18.585   3.060
28194W        W94977  35.021   3.312  11.672
28195W        W94978  42.142  44.951   2.452
28196W        W94979   7.722  11.423   4.210
28197W        W94980  44.255  16.630  11.833
28198W        W94981  35.774  29.460  12.927
28199W        W94982  13.427  10.242  13.301
28200W        W94983   3.045  30.455   4.505
28201W        W94984   7.371  28.624  11.746
28202W        W94985  28.596  32.925   2.041
28203W        W94986  12.116  43.767  11.537
28204W        W94987   0.838  29.573  11.419
28205W        W94988  34.501  12.212   2.906
28206W        W94989  40.261   1.921   4.099
28207W        W94990  31.473  20.813  13.501
28208W        W94991  22.637  39.564   2.202
28209W        W94992  35.937  41.781   2.739
28210W        W94993  37.872  21.209   4.987
28211W        W94994   7.179  22.193  14.447
28212W        W94995  42.505  28.650   4.104
28213W        W94996  39.445  36.490  13.103
28214W        W94997  38.369  22.006  11.639
28215W        W94998  17.573   5.088  11.560
28216W        W94999  24.247   5.174   0.266
28217W        W95000  39.458  13.246   2.627
28218W        W95001  33.721  17.213  11.399
28219W        W95002  26.518  34.839  13.693
28220W        W95003  19.964  14.617   4.009
28221W        W95004  36.067  25.163  14.894
28222W        W95005  12.162  39.942   3.761
28223W        W95006   3.227   3.421  13.023
28224W        W95007  23.428  13.573  13.429
28225W        W95008  19.970  26.508   2.969
28226W        W95009  22.080   7.807  12.448
28227W        W95010  43.494   5.904   3.128
28228W        W95011  31.478  11.258   2.726
28229W        W95012  31.030  32.419   2.472
28230W        W95013  17.583  21.074  14.865
28231W        W95014   5.689  20.049  10.710
28232W        W95015  44.328  27.102   0.816
28233W        W95016  30.358   7.480   1.782
28234W        W95017  39.950   5.157  14.473
28235W        W95018  33.684  40.152   4.619
28236W        W95019  43.240   8.918  14.246
28237W        W95020  25.115  28.002   0.952
28238W        W95021  13.402   7.306   2.389
28239W        W95022  14.561   9.585   2.760
28240W        W95023   9.367   6.976   4.040
28241W        W95024  15.317   4.703  12.954
28242W        W95025  44.530  24.164  11.465
28243W        W95026  21.225   3.665  12.326
28244W        W95027  10.890  41.985   1.302
28245W        W95028  44.681  15.354   3.263
28246W        W95029  13.791  21.255  11.490
28247W        W95030  36.510  26.866  13.471
28248W        W95031  27.655  27.218   4.083
28249W        W95032  23.427  38.414  10.719
28250W        W95033  36.802  31.842   2.309
28251W        W95034  44.390  19.479  11.598
28252W        W95035  40.472  29.466   2.371
28253W        W95036  34.066  16.304   2.200
28254W        W95037   0.001  38.937  10.684
28255W        W95038   3.343  44.253  14.353
28256W        W95039  40.484  14.047   2.695
28257W        W95040  21.877  23.096  13.541
28258W        W95041  35.633  28.434   0.562
28259W        W95042  36.976  26.081  12.385
28260W        W95043  10.788  42.445  14.023
28261W        W95044  26.933  28.956  13.449
28262W        W95045  31.983  38.286  12.633
28263W        W95046  16.718  20.783  14.637
28264W        W95047  25.257  42.644   1.230
28265W        W95048  18.653  19.721   2.786
28266W        W95049  18.643  38.897  10.186
28267W        W95050  28.633  22.403   1.002
28268W        W95051  16.045  15.630  11.891
28269W        W95052  36.952  44.334   1.917
28270W        W95053  36.605  26.176  11.018
28271W        W95054   9.178  19.827   2.753
28272W        W95055  14.769  11.338   4.383
28273W        W95056  15.685  35.150  14.329
28274W        W95057   6.179  15.297  12.534
28275W        W95058  26.771   5.370  12.122
28276W        W95059  28.042   3.002   2.736
28277W        W95060  23.736  43.582   2.710
28278W        W95061  25.213  29.995  14.376
28279W        W95062   0.827   0.436   9.807
28280W        W95063   7.107  33.897   0.037
28281W        W95064  34.863  16.040  13.313
28282W        W95065   8.704   1.408  14.287
28283W        W95066  22.436  20.848   4.801
28284W        W95067  41.254  21.568   1.166
28285W        W95068  31.175  39.755   4.568
28286W        W95069  22.275  28.226   1.377
28287W        W95070  43.896  15.857   2.090
28288W        W95071   6.866  17.766   1.002
28289W        W95072  30.036  40.143  12.841
28290W        W95073  27.348  27.459   1.179
28291W        W95074  25.742  40.871  11.997
28292W        W95075  37.103   7.474   3.682
28293W        W95076  33.204  11.074   3.844
28294W        W95077   3.787   0.504  14.994
28295W        W95078  36.381  14.330   0.316
28296W        W95079  26.472  39.327  10.700
28297W        W95080  36.901  39.399   0.699
28298W        W95081  30.230  10.190   2.331
28299W        W95082  13.196  33.561   3.777
28300W        W95083  32.134   3.963   2.367
28301W        W95084   3.818  40.822   2.867
28302W        W95085  35.254  23.155  11.920
28303W        W95086  19.818  30.200   4.089
28304W        W95087   0.244  25.990  10.635
28305W        W95088  16.870  19.871   1.870
28306W        W95089  10.229  42.215  10.706
28307W        W95090  40.367  14.411  11.702
28308W        W95091   7.308  12.323   2.300
28309W        W95092  40.813  31.524   2.729
28310W        W95093   7.698  18.470   3.827
28311W        W95094  10.037  39.512   2.343
28312W        W95095  38.421  31.556  12.874
28313W        W95096  17.269  38.720   3.208
28314W        W95097  14.117   5.380  12.083
28315W        W95098  41.260  44.238   2.677
28316W        W95099  24.151  27.140  14.487
28317W        W95100  16.881  29.519  10.734
28318W        W95101  34.530  24.981  11.000
28319W        W95102  20.185   7.829   1.416
28320W        W95103   1.193  11.177  10.484
28321W        W95104  14.403  11.298   1.391
28322W        W95105   6.457  38.354  14.911
28323W        W95106   0.844  19.671   0.992
28324W        W95107  33.959  32.864  14.907
28325W        W95108   9.306  17.277   4.118
28326W        W95109   9.411  27.540  14.400
28327W        W95110  29.683  21.935   1.693
28328W        W95111  40.363   8.864   1.766
28329W        W95112  20.111  29.509  14.067
28330W        W95113  11.050   1.204   2.814
28331W        W95114  27.721   8.689   3.020
28332W        W95115  35.839  43.407  13.078
28333W        W95116   3.924  39.284  14.833
28334W        W95117  33.094  16.647   1.627
28335W        W95118   3.497  33.591   0.302
28336W        W95119  20.026  16.249  12.725
28337W        W95120   7.761   1.707   2.031
28338W        W95121  34.353  26.573   1.068
28339W        W95122  39.857  26.072  11.977
28340W        W95123  15.805  44.384  12.838
28341W        W95124  34.806  30.485   9.845
28342W        W95125  39.088  34.704  14.499
28343W        W95126   0.927  30.246   1.685
28344W        W95127  26.644  21.100  11.970
28345W        W95128  13.774  29.547  14.481
28346W        W95129  19.516  18.256  12.570
28347W        W95130  23.906  11.159  11.931
28348W        W95131  30.123   1.283   4.180
28349W        W95132  37.748   3.825   4.165
28350W        W95133  42.938  44.892  12.766
28351W        W95134   0.239  17.519  14.080
28352W        W95135  10.296  19.123  13.782
28353W        W95136  33.633   8.608  14.867
28354W        W95137  17.502   3.167  11.113
28355W        W95138  43.407  20.989   2.745
28356W        W95139  29.700  31.950   3.275
28357W        W95140  29.027  11.349   3.223
28358W        W95141  11.221  30.847  11.453
28359W        W95142  41.111   2.468   0.359
28360W        W95143  43.987   6.499  11.488
28361W        W95144  28.114   1.170   3.228
28362W        W95145   9.789   5.814  11.987
28363W        W95146  29.133  12.138  13.726
28364W        W95147  23.392  31.381  10.725
28365W        W95148  38.338  32.139   1.256
28366W        W95149  25.067   5.258   2.195
28367W        W95150  23.178   6.405  11.492
28368W        W95151  24.627  11.179   2.242
28369W        W95152  21.266  22.638   1.681
28370W        W95153  32.930   5.661   4.884
28371W        W95154   5.850  21.241  12.884
28372W        W95155  42.713  16.578  13.436
28373W        W95156  43.925  32.141  13.035
28374W        W95157  15.474  42.191  11.461
28375W        W95158  32.110  30.111   4.096
28376W        W95159   1.377  42.368   1.204
28377W        W95160  12.154   1.011   0.083
28378W        W95161  35.318  39.881   4.106
28379W        W95162  30.004  30.980   0.967
28380W        W95163  36.018  12.375  13.501
28381W        W95164   1.523  27.440  11.567
28382W        W95165  39.062  15.535  13.805
28383W        W95166  36.831  43.719   4.099
28384W        W95167  43.391  26.462  11.011
28385W        W95168  30.490   6.303   2.821
28386W        W95169  15.776  13.578  11.177
28387W        W95170  44.712  30.087  14.375
28388W        W95171  39.770  38.090  13.106
28389W        W95172  40.033   7.459  10.425
28390W        W95173  33.723  19.979  11.725
28391W        W95174  23.290  12.244   0.216
28392W        W95175   9.122  33.924   3.274
28393W        W95176  32.531  31.683  11.621
28394W        W95177  26.934  17.808   3.445
28395W        W95178  31.587  27.554  14.888
28396W        W95179  33.459  24.294  12.502
28397W        W95180   0.883  17.328   1.258
28398W        W95181   6.857   8.107  11.123
28399W        W95182   3.985  42.910  12.600
28400W        W95183  20.058  31.855  11.585
28401W        W95184  13.761   4.763   1.887
28402W        W95185  22.705  44.517  13.293
28403W        W95186  11.576  34.908  13.303
28404W        W95187   2.912   8.230   4.555
28405W        W95188  42.238  36.956  12.476
28406W        W95189   0.817  26.817  13.462
28407W        W95190  21.990   8.725   3.720
28408W        W95191  18.177  10.787   2.147
28409W        W95192  38.022  11.809  12.041
28410W        W95193  36.067  24.526   0.789
28411W        W95194   5.813  44.582   3.152
28412W        W95195  22.067  13.126   3.762
28413W        W95196  29.592   2.321  13.463
28414W        W95197  25.621  11.514  11.629
28415W        W95198  17.125  19.042  10.663
28416W        W95199  29.153  40.979   0.661
28417W        W95200   3.950  44.515   0.386
28418W        W95201  30.424  24.598   2.834
28419W        W95202   7.459   9.379  12.934
28420W        W95203  40.096  30.217   3.696
28421W        W95204  39.898  11.374   2.215
28422W        W95205  31.857  17.916  13.605
28423W        W95206  33.336  30.111  14.507
28424W        W95207   0.521  17.649   2.150
28425W        W95208  23.037  44.068  10.599
28426W        W95209   1.269  35.145  10.716
28427W        W95210   1.315  15.815  10.502
28428W        W95211  21.797  37.603   4.430
28429W        W95212  23.550  36.550  11.157
28430W        W95213  25.658  24.513   1.612
28431W        W95214  25.976  21.449   2.290
28432W        W95215  10.168   9.349   1.902
28433W        W95216   2.794  18.228   1.656
28434W        W95217   2.321  23.724  14.484
28435W        W95218  38.971  21.053   2.239
28436W        W95219  38.516  13.237   2.357
28437W        W95220  44.889   6.701  10.869
28438W        W95221  40.184  14.228   0.126
28439W        W95222   7.837  41.551  14.936
28440W        W95223  29.139  20.612   3.674
28441W        W95224  14.261  37.822  11.086
28442W        W95225  38.869  31.696  12.017
28443W        W95226  17.268  34.022   2.833
28444W        W95227  18.132  17.685   5.240
28445W        W95228   2.654  38.309   0.263
28446W        W95229  35.667   1.985   4.150
28447W        W95230  26.566  44.973   3.083
28448W        W95231   4.941   0.947  11.136
28449W        W95232  12.581  35.977   1.404
28450W        W95233  14.486  16.659   0.288
28451W        W95234  18.586  26.039   2.639
28452W        W95235  39.398  32.128  13.966
28453W        W95236  12.790  42.237   0.301
28454W        W95237  16.203  26.248  13.275
28455W        W95238  12.701  33.002   2.775
28456W        W95239  28.048  38.628  13.415
28457W        W95240  19.143  34.951  12.681
28458W        W95241   9.855  22.226  11.132
28459W        W95242   6.365  12.551   3.714
28460W        W95243  17.261  15.104   0.293
28461W        W95244  41.528   3.361  14.397
28462W        W95245  23.759  21.648  10.912
28463W        W95246  36.072  27.673  12.511
28464W        W95247  41.445  16.791   2.390
28465W        W95248  43.530   1.492  12.549
28466W        W95249  24.851  26.065   2.400
28467W        W95250   2.842  22.581  12.002
28468W        W95251  10.557  25.638  14.847
28469W        W95252  39.802   3.520   0.227
28470W        W95253  28.109  16.973   0.657
28471W        W95254  13.665  12.968   2.459
28472W        W95255  25.072  37.237  12.545
28473W        W95256  37.647  17.657  12.365
28474W        W95257  17.052   4.319  12.505
28475W        W95258  11.133  43.440  13.426
28476W        W95259  18.057  30.459   0.970
28477W        W95260  19.112   5.489  11.544
28478W        W95261   0.336  17.654  10.846
28479W        W95262  23.950  14.936  13.229
28480W        W95263  30.216   4.830   2.245
28481W        W95264   7.390  33.977  13.290
28482W        W95265  38.550   4.685   0.571
28483W        W95266  43.427  14.646  14.767
28484W        W95267  18.221  35.660   4.281
28485W        W95268  25.479  34.071  11.503
28486W        W95269  16.173  19.188   0.215
28487W        W95270  19.885  17.370   0.412
28488W        W95271  43.859   1.478   4.628
28489W        W95272  40.629   6.255  14.473
28490W        W95273  26.831   0.369  14.565
28491W        W95274  16.197  18.185   1.208
28492W        W95275  23.147   5.917   0.591
28493W        W95276  40.812   1.893  13.961
28494W        W95277  17.154  24.377   0.497
28495W        W95278  30.500   4.231  13.453
28496W        W95279  41.080  30.676   4.252
28497W        W95280  19.188  18.453  14.019
28498W        W95281  27.562  43.882   1.014
28499W        W95282  35.865  31.023  13.809
28500W        W95283   8.363   1.778   0.690
28501W        W95284   7.220   7.165   2.270
28502W        W95285  35.848  16.999   0.770
28503W        W95286  40.547   3.257   4.123
28504W        W95287  27.160  19.793   0.284
28505W        W95288  25.033  28.468   2.258
28506W        W95289  14.360  20.958   2.756
28507W        W95290  31.392  28.198  11.930
28508W        W95291   6.391  16.664  13.325
28509W        W95292  11.397  18.296   2.872
28510W        W95293  31.524  32.668   3.622
28511W        W95294   5.956  30.433  12.912
28512W        W95295  24.098  20.227   0.783
28513W        W95296  26.483   3.799  14.364
28514W        W95297  33.473  43.882  11.900
28515W        W95298  36.012  12.727  13.083
28516W        W95299  32.580  40.430   1.906
28517W        W95300  36.386  23.284  14.482
28518W        W95301  14.878  19.120  14.934
28519W        W95302  38.651  35.609   1.291
28520W        W95303  35.165  23.288   2.297
28521W        W95304  37.481  42.541   0.099
28522W        W95305   0.061   3.567   1.814
28523W        W95306  39.581  39.376   4.403
28524W        W95307  16.641  35.950  11.260
28525W        W95308  21.600  26.045   3.184
28526W        W95309  16.575  25.451   0.915
28527W        W95310  36.904   3.961  14.349
28528W        W95311  14.186  12.856  11.900
28529W        W95312  32.882  18.459  12.301
28530W        W95313  39.969   7.424  14.059
28531W        W95314  15.033  18.761  12.917
28532W        W95315  16.152   9.864  13.296
28533W        W95316  15.901  25.935  12.069
28534W        W95317  15.731  11.199  14.442
28535W        W95318  33.421  24.901  10.799
28536W        W95319   8.346  21.697  10.722
28537W        W95320  18.791  12.308  14.026
28538W        W95321  28.243  29.696   2.225
28539W        W95322  20.180  37.875   4.194
28540W        W95323  43.796   2.894  11.697
28541W        W95324  16.831  16.728  13.006
28542W        W95325  29.463  18.148  14.602
28543W        W95326  32.128  19.106  12.342
28544W        W95327   4.895   4.282  13.869
28545W        W95328  14.798  33.961   2.866
28546W        W95329  10.192   1.973  13.174
28547W        W95330  25.647   6.145   1.418
28548W        W95331  37.077   6.976   3.834
28549W        W95332   2.401   4.672  12.166
28550W        W95333  37.788  22.206   2.976
28551W        W95334  20.772  29.286  13.384
28552W        W95335  32.883  23.718  13.915
28553W        W95336   5.874  26.060   0.883
28554W        W95337  20.046  27.613  11.690
28555W        W95338  16.757  40.556   0.169
28556W        W95339  24.154  32.410  11.443
28557W        W95340  44.074  33.181   3.137
28558W        W95341  32.463  16.488   0.291
28559W        W95342  32.723   1.926   3.328
28560W        W95343  17.554  10.407   0.461
28561W        W95344  33.513   2.244  11.581
28562W        W95345  17.054  40.282   4.176
28563W        W95346  44.171  12.302   4.573
28564W        W95347  18.714  12.335  14.981
28565W        W95348  21.025  33.381  12.356
28566W        W95349  43.890  13.931  11.609
28567W        W95350   4.959   4.899   4.614
28568W        W95351  26.184   1.434  13.491
28569W        W95352  36.391  18.599   2.395
28570W        W95353  34.869   0.277  13.466
28571W        W95354  25.395   2.323  13.529
28572W        W95355  17.342   8.272  10.460
28573W        W95356  25.627  20.262  12.082
28574W        W95357  11.595  22.510   3.393
28575W        W95358  17.537  27.309  14.787
28576W        W95359  31.462  40.180   2.912
28577W        W95360  17.027   1.960   5.135
28578W        W95361  17.615  13.587  13.896
28579W        W95362  39.843  23.543  11.580
28580W        W95363  22.474   7.036  11.941
28581W        W95364  35.387  38.037   2.581
28582W        W95365   9.391  19.756   5.294
28583W        W95366  30.073  15.110   3.220
28584W        W95367  23.192   3.703   1.787
28585W        W95368  28.056  33.578   4.081
28586W        W95369   8.370  27.218   4.373
28587W        W95370   5.251   3.267  12.415
28588W        W95371  20.845   9.209  10.764
28589W        W95372  10.618  13.522   3.181
28590W        W95373  39.292  19.286  14.738
28591W        W95374  24.713  44.034   2.697
28592W        W95375  44.090   2.235   2.308
28593W        W95376   8.965   1.955  11.084
28594W        W95377  30.232  40.063   2.867
28595W        W95378   0.886  34.832   3.194
28596W        W95379  11.052  22.611  11.651
28597W        W95380   9.820   0.712  11.934
28598W        W95381  39.333   9.415   1.648
28599W        W95382  14.560  18.014  12.642
28600W        W95383  21.977  14.213  14.948
28601W        W95384   6.412  27.524  10.701
28602W        W95385   2.273  42.283   1.738
28603W        W95386  24.471   8.065  14.405
28604W        W95387  37.372  44.996  11.621
28605W        W95388   1.487  25.738   0.258
28606W        W95389   0.760   3.780  11.284
28607W        W95390  42.595  35.804  11.675
28608W        W95391  24.172   9.280  12.013
28609W        W95392  34.899   3.257   4.273
28610W        W95393   0.210  16.571   1.248
28611W        W95394   9.411  10.731  11.100
28612W        W95395  34.589   3.531  13.496
28613W        W95396  17.183   3.875   2.736
28614W        W95397  11.903   2.695  12.498
28615W        W95398  27.732  37.113  13.971
28616W        W95399  13.223  29.578   4.640
28617W        W95400  41.238  34.267   4.184
28618W        W95401   0.996  18.973  12.519
28619W        W95402  16.244  28.042   3.184
28620W        W95403   2.206  27.035  13.579
28621W        W95404   4.229   6.380   4.129
28622W        W95405   5.740  27.344  11.351
28623W        W95406   6.294  25.196  13.544
28624W        W95407  17.164  31.425  12.080
28625W        W95408  38.445  23.168  13.062
28626W        W95409  23.156  31.818  13.409
28627W        W95410  30.714  29.012   1.225
28628W        W95411   4.610  11.320  11.033
28629W        W95412  27.497  27.461  12.626
28630W        W95413  34.092  40.072  12.502
28631W        W95414  25.550   3.835  12.253
28632W        W95415   5.957  20.617  14.511
28633W        W95416   2.851  32.590   2.287
28634W        W95417  18.092  22.320  11.116
28635W        W95418  12.294  24.620   1.306
28636W        W95419   5.660   0.920   2.696
28637W        W95420  21.815  41.089   0.327
28638W        W95421  28.982  37.887  13.759
28639W        W95422   0.241   7.930  12.109
28640W        W95423  22.120  34.889   2.263
28641W        W95424  13.781   2.456   0.463
28642W        W95425  21.938  30.893   2.650
28643W        W95426  16.987   5.869  11.808
28644W        W95427  15.316  22.368  11.312
28645W        W95428  30.390   8.183   2.277
28646W        W95429   8.952  29.332   2.732
28647W        W95430  19.610  32.139  11.554
28648W        W95431  14.089  42.859   2.133
28649W        W95432   2.723   7.315   4.552
28650W        W95433  11.726  10.192  10.704
28651W        W95434  32.989  11.952   3.690
28652W        W95435  22.006  41.065   0.854
28653W        W95436  20.264  27.634  10.780
28654W        W95437  33.965  22.994   0.091
28655W        W95438  33.412  31.563   2.384
28656W        W95439  41.386  15.145  12.342
28657W        W95440  12.571  36.202   5.219
28658W        W95441  17.310  24.658   2.826
28659W        W95442   8.301   6.526  12.709
28660W        W95443  24.274  18.552  14.085
28661W        W95444  23.677  13.037  10.988
28662W        W95445  14.939   6.777   2.855
28663W        W95446   7.398   8.157   0.775
28664W        W95447  32.380  36.225   3.616
28665W        W95448  28.951  30.731   1.976
28666W        W95449  15.138  10.109   0.831
28667W        W95450  29.083  23.623   2.623
28668W        W95451  11.394  17.597   0.354
28669W        W95452  19.619  20.458   1.252
28670W        W95453   1.305  23.415  10.462
28671W        W95454  39.634  34.126  14.958
28672W        W95455  22.334  42.521   2.169
28673W        W95456  20.671  28.663   2.174
28674W        W95457  11.858  25.444   4.614
28675W        W95458  15.045  33.131   2.371
28676W        W95459  27.239  17.584  11.016
28677W        W95460  21.835  13.794   4.700
28678W        W95461  14.639  20.211   0.991
28679W        W95462  36.568   4.206   4.614
28680W        W95463  30.994  17.613   2.339
28681W        W95464  33.027  31.676  11.544
28682W        W95465  22.287  13.705   0.332
28683W        W95466  29.874  15.822   4.491
28684W        W95467  26.019  26.069  13.837
28685W        W95468  16.907  20.051  14.926
28686W        W95469  22.143  14.349   1.884
28687W        W95470  42.299   5.525   0.288
28688W        W95471  15.597   3.896   3.724
28689W        W95472  41.548  41.397   2.615
28690W        W95473   5.331  12.125   4.246
28691W        W95474  36.922  19.423  11.920
28692W        W95475  15.313   3.821   2.859
28693W        W95476  35.364  39.131   1.791
28694W        W95477  33.908  12.087   1.816
28695W        W95478  25.106  36.842   1.402
28696W        W95479   6.418  23.534  12.656
28697W        W95480  20.239  34.272  14.588
28698W        W95481  25.506  30.119  13.894
28699W        W95482  25.254   9.205   0.043
28700W        W95483  32.491  26.217  12.047
28701W        W95484  16.335  29.076  11.939
28702W        W95485   6.211  17.337  13.475
28703W        W95486  28.578  24.591   4.100
28704W        W95487   2.969  43.545  13.044
28705W        W95488   1.078  22.193  10.144
28706W        W95489  14.638  15.997  10.116
28707W        W95490  19.741  16.878   0.402
28708W        W95491  19.048  35.868   1.363
28709W        W95492  36.371  21.666   1.900
28710W        W95493  28.029  20.512   2.283
28711W        W95494  18.138  31.966   3.258
28712W        W95495  12.164   1.834  13.995
28713W        W95496  37.489  11.040  14.553
28714W        W95497  15.323   3.808  10.648
28715W        W95498  41.071  32.702   3.715
28716W        W95499  28.016   1.768   3.609
28717W        W95500  28.591  30.584  12.075
28718W        W95501  21.675  19.210   0.047
28719W        W95502  20.669   8.696  14.486
28720W        W95503  34.961  25.072   3.310
28721W        W95504  10.313  23.776   1.789
28722W        W95505  39.525  12.009   2.417
28723W        W95506  42.190  38.588   1.161
28724W        W95507   5.217   9.401   1.378
28725W        W95508  19.228  19.143   4.050
28726W        W95509   5.791  33.931  11.850
28727W        W95510  34.785  15.084   1.231
28728W        W95511  31.362  37.040   0.760
28729W        W95512  26.927   5.740  13.433
28730W        W95513   8.247  25.663   4.967
28731W        W95514  14.942  15.627  14.300
28732W        W95515   8.013  27.703  12.857
28733W        W95516  32.559   1.267  11.615
28734W        W95517  18.235   9.569  14.485
28735W        W95518  15.794  11.277   0.860
28736W        W95519  44.506   2.003   0.716
28737W        W95520  13.792  44.042   2.718
28738W        W95521  40.420  23.813   1.000
28739W        W95522   6.035   2.906   3.056
28740W        W95523  38.253  42.610  13.998
28741W        W95524   3.008  44.351   4.155
28742W        W95525   7.758   9.828  10.978
28743W        W95526   7.139  21.135  10.426
28744W        W95527   8.407  11.924  12.488
28745W        W95528  15.667  19.178  10.791
28746W        W95529  15.731   0.178   2.596
28747W        W95530  20.428  25.064   4.665
28748W        W95531  25.453  24.505  13.893
28749W        W95532  29.623  20.961   1.399
28750W        W95533  17.749  20.258   2.255
28751W        W95534  29.431  33.296   0.762
28752W        W95535  33.824   3.745   0.594
28753W        W95536  10.197   6.235   1.662
28754W        W95537   4.820  37.432   4.513
28755W        W95538  30.061   4.357   4.514
28756W        W95539  11.264  13.613   1.732
28757W        W95540  38.263  26.638   0.403
28758W        W95541  18.481  11.801  12.946
28759W        W95542   8.343  17.382   1.306
28760W        W95543   8.792  29.845   4.802
28761W        W95544  33.006  28.188  13.407
28762W        W95545  29.221   1.904   0.471
28763W        W95546  27.884   6.181  13.090
28764W        W95547   9.277  30.011   4.609
28765W        W95548  37.975   9.336   2.500
28766W        W95549  17.495  10.828  13.203
28767W        W95550  22.006  12.394  12.631
28768W        W95551  13.300  13.548   2.162
28769W        W95552  18.589   5.362  10.599
28770W        W95553  30.171  41.761   4.678
28771W        W95554  22.470  31.535  14.948
28772W        W95555  23.517  21.550   1.705
28773W        W95556  23.868   9.198  14.394
28774W        W95557  12.069  27.663   2.739
28775W        W95558  34.125  13.683  14.231
28776W        W95559   9.390   3.341   0.886
28777W        W95560  42.225  10.703   4.197
28778W        W95561   5.967  10.882   1.528
28779W        W95562  28.719  19.159   3.710
28780W        W95563  19.208  43.961  13.432
28781W        W95564  36.493  37.054  11.595
28782W        W95565   1.723   1.719   4.465
28783W        W95566  22.147   7.330  13.978
28784W        W95567   6.325  34.523  14.521
28785W        W95568  27.196  40.194  12.540
28786W        W95569  37.500   2.442   4.934
28787W        W95570  29.714  24.051  12.703
28788W        W95571  35.583   6.637  12.610
28789W        W95572   0.956   5.676   2.945
28790W        W95573  16.148  16.350   0.242
28791W        W95574  32.532   4.263   2.322
28792W        W95575  38.943  37.373  14.935
28793W        W95576   7.319   3.930  10.358
28794W        W95577   2.695  28.940   4.608
28795W        W95578  19.642  37.321   5.288
28796W        W95579   6.914  13.602  11.662
28797W        W95580  34.896  23.786   4.187
28798W        W95581   0.537   3.419   4.506
28799W        W95582  23.687   9.400   2.035
28800W        W95583  16.749  31.965  14.398
28801W        W95584  22.383  23.315   2.668
28802W        W95585  33.446  44.290  14.423
28803W        W95586  14.838   0.675   1.146
28804W        W95587  43.818   1.771   3.768
28805W        W95588  36.680   5.607  12.463
28806W        W95589  42.752  17.218  11.036
28807W        W95590  12.913  43.328   2.234
28808W        W95591   0.046  22.231   4.520
28809W        W95592  11.307  39.374   2.904
28810W        W95593  39.831  12.547  14.758
28811W        W95594  24.134  27.248  13.996
28812W        W95595  38.410  29.452  13.125
28813W        W95596  38.472  21.732   2.482
28814W        W95597  26.918  14.856   2.201
28815W        W95598  20.540  15.850  12.033
28816W        W95599   1.608  23.986  12.123
28817W        W95600  36.849  13.093   0.343
28818W        W95601  36.397  43.939   3.367
28819W        W95602  21.514  36.631   4.291
28820W        W95603  12.118   3.324  11.554
28821W        W95604  12.349  28.057  12.548
28822W        W95605  35.676   2.484  12.535
28823W        W95606  43.927  19.135   2.806
28824W        W95607  39.070  37.594   0.415
28825W        W95608   6.176  36.279   0.465
28826W        W95609  32.654   8.242   2.766
28827W        W95610  19.054  32.111   0.352
28828W        W95611  31.996   3.773  12.649
28829W        W95612  29.997  22.135   4.488
28830W        W95613   1.898  14.293   5.074
28831W        W95614  42.208  18.309   1.862
28832W        W95615   4.857   6.733   3.912
28833W        W95616   5.767  11.439  10.330
28834W        W95617   3.844  15.425  11.098
28835W        W95618  44.078   6.361  10.602
28836W        W95619  35.335  22.785  13.352
28837W        W95620   8.879  30.674  12.994
28838W        W95621   0.166   3.715  12.579
28839W        W95622   9.325  43.832   3.659
28840W        W95623  42.525   7.861   3.651
28841W        W95624  34.395  23.065   4.607
28842W        W95625   7.480   4.299   1.644
28843W        W95626   3.876  11.038   2.394
28844W        W95627  34.450  33.151   4.027
28845W        W95628  30.891  13.417  11.698
28846W        W95629  42.959  35.905  12.010
28847W        W95630   2.682  34.420  14.993
28848W        W95631  19.677  32.203   5.112
28849W        W95632  44.867  35.892  11.677
28850W        W95633   9.629  18.854   4.631
28851W        W95634   2.675   4.892   3.288
28852W        W95635   2.730  32.097   2.182
28853W        W95636  33.370   8.570   2.130
28854W        W95637  29.704  20.644  12.755
28855W        W95638  12.703  23.010   2.496
28856W        W95639  25.455  30.354  12.947
28857W        W95640  38.340  33.114   4.349
28858W        W95641  21.320  22.224  11.360
28859W        W95642   7.730   1.727   2.697
28860W        W95643  22.514  14.621   2.738
28861W        W95644  34.223   8.299   3.230
28862W        W95645  35.714  40.799  12.935
28863W        W95646  18.796  12.118   0.480
28864W        W95647  20.048  21.101   3.133
28865W        W95648  19.418  11.845   1.199
28866W        W95649  43.506  18.090   2.832
28867W        W95650   9.260  36.582  12.740
28868W        W95651   2.713  15.520   0.056
28869W        W95652   9.273  23.817  11.209
28870W        W95653  41.997  41.513  12.046
28871W        W95654  39.859  29.525  14.821
28872W        W95655  14.333  22.587   3.515
28873W        W95656   6.709  39.140   3.884
28874W        W95657  22.053  42.454  14.197
28875W        W95658  12.755  18.331   3.614
28876W        W95659  44.999  38.624   1.029
28877W        W95660  19.720  41.499  12.467
28878W        W95661  15.846  33.418  14.951
28879W        W95662  43.939  36.490   1.643
28880W        W95663   2.892  38.512   2.198
28881W        W95664  35.505   3.644   0.867
28882W        W95665  12.800   6.339   1.765
28883W        W95666  12.891  33.230   0.401
28884W        W95667  36.444  12.921   3.323
28885W        W95668  28.470  43.273  13.526
28886W        W95669   5.215  26.210  13.599
28887W        W95670  43.226  27.308  12.816
28888W        W95671  26.607  15.530  11.125
28889W        W95672  13.787   2.165  14.488
28890W        W95673   2.527  44.813   3.803
28891W        W95674  22.777  19.721   1.870
28892W        W95675  24.156  37.242   2.311
28893W        W95676  24.251  27.559  12.600
28894W        W95677   3.940  21.587  14.558
28895W        W95678  28.395  41.868  11.077
28896W        W95679  25.156  20.696   1.946
28897W        W95680  44.733  18.265   4.929
28898W        W95681  17.133  18.259  11.422
28899W        W95682  37.014  43.746   2.685
28900W        W95683  35.579   4.976   0.324
28901W        W95684   1.930  10.637  12.594
28902W        W95685  26.076  36.758   0.145
28903W        W95686   7.579   8.832   9.979
28904W        W95687  21.713  10.140  12.548
28905W        W95688  35.918  40.844  12.456
28906W        W95689  38.443  43.482  10.678
28907W        W95690  13.666  24.985   2.392
28908W        W95691  24.493  36.137  14.509
28909W        W95692  40.795  19.294  11.444
28910W        W95693  21.064  13.051  14.550
28911W        W95694  35.317  38.364   0.564
28912W        W95695  15.080  34.887  13.471
28913W        W95696  37.360  19.136  13.278
28914W        W95697  40.136  26.739   2.948
28915W        W95698  31.525  23.029  12.064
28916W        W95699  40.532   6.729  14.324
28917W        W95700  35.499  10.821   2.571
28918W        W95701  23.622  15.398  12.075
28919W        W95702  33.881  27.555   1.033
28920W        W95703  27.967  38.655  12.429
28921W        W95704  22.606  41.655   2.751
28922W        W95705   9.335  18.407   5.030
28923W        W95706  11.428  17.248  12.531
28924W        W95707  26.943  31.053  11.583
28925W        W95708  17.477  37.721   3.283
28926W        W95709  30.850  38.596   3.652
28927W        W95710  25.388  33.856  10.280
28928W        W95711  31.019  16.251   1.379
28929W        W95712  13.710  28.412  11.469
28930W        W95713  18.197   2.495  11.994
28931W        W95714  42.205  32.043  13.787
28932W        W95715  12.614  37.352  12.864
28933W        W95716  28.420  24.501  11.260
28934W        W95717   0.378  12.127  13.506
28935W        W95718  37.329  29.399   1.968
28936W        W95719   9.842   0.019   0.947
28937W        W95720  41.760  19.669  14.259
28938W        W95721  13.374  11.964  11.048
28939W        W95722   4.393  11.691  12.034
28940W        W95723  30.904  38.296   1.776
28941W        W95724  28.377  18.152  10.536
28942W        W95725  20.193  38.079  11.464
28943W        W95726  36.441  28.962   3.585
28944W        W95727   8.770  37.062  13.789
28945W        W95728  27.663  15.406  14.739
28946W        W95729   9.844  16.106  13.331
28947W        W95730  35.403  27.458   4.490
28948W        W95731  22.171  13.576  11.886
28949W        W95732  22.074   6.453   3.971
28950W        W95733  23.256  12.381  13.764
28951W        W95734  29.180   1.940  12.916
28952W        W95735  14.505   9.216  14.463
28953W        W95736  42.877  23.064   3.721
28954W        W95737  16.488  13.527   2.091
28955W        W95738  36.485  42.009   2.879
28956W        W95739  43.692  29.540   4.870
28957W        W95740  23.521  11.627   1.385
28958W        W95741   1.670  28.681   2.724
28959W        W95742   4.956   3.175   5.012
28960W        W95743  21.646  12.365  10.731
28961W        W95744  32.513   5.682  12.328
28962W        W95745  21.517  18.496   4.620
28963W        W95746  24.658  35.017  12.010
28964W        W95747  39.131   7.276  14.421
28965W        W95748  26.989  21.149   4.967
28966W        W95749  17.809   9.155   2.510
28967W        W95750  38.189  35.738   1.472
28968W        W95751  27.714   8.832  10.680
28969W        W95752  23.605  23.251   2.537
28970W        W95753  20.772  19.105   0.192
28971W        W95754  39.886  10.328   0.294
28972W        W95755  39.521   8.627   2.235
28973W        W95756  12.272  42.991  13.058
28974W        W95757  35.392  23.967  11.224
28975W        W95758  14.367   6.688  13.400
28976W        W95759  33.683  36.325  11.216
28977W        W95760   8.092  32.929   4.756
28978W        W95761   5.193   4.104   1.871
28979W        W95762   4.738  20.824  11.917
28980W        W95763  14.249   2.946  11.933
28981W        W95764  40.348  35.206  14.917
28982W        W95765  31.471  31.530   4.888
28983W        W95766  22.162  15.726   2.057
28984W        W95767  15.065  30.459  12.854
28985W        W95768  44.199  38.616   4.528
28986W        W95769  27.592  41.247   9.474
28987W        W95770  21.305   1.862  14.524
28988W        W95771  17.147  20.563   0.449
28989W        W95772  29.567  30.117  12.959
28990W        W95773  39.026  24.609   3.784
28991W        W95774  15.365  30.179  14.765
28992W        W95775  29.673   5.816   3.559
28993W        W95776  14.715   2.020  14.839
28994W        W95777   1.669  12.669  13.408
28995W        W95778  32.492  14.567   2.794
28996W        W95779  26.461   5.721  10.968
28997W        W95780  30.632  19.663  11.081
28998W        W95781  11.586   4.683   3.305
28999W        W95782  13.614  40.264   3.179
29000W        W95783  20.706  41.833   1.786
29001W        W95784  11.960  44.359  13.572
29002W        W95785  27.256   0.226   4.606
29003W        W95786  23.443  38.762   3.725
29004W        W95787  26.773  27.921  12.046
29005W        W95788  44.680  39.991   0.314
29006W        W95789  29.845  38.637   4.614
29007W        W95790  22.147  34.926  13.457
29008W        W95791  31.191  43.613  12.490
29009W        W95792  11.841  39.131  13.360
29010W        W95793   7.703   5.072  12.913
29011W        W95794  27.863  14.030  14.808
29012W        W95795  43.699   5.543   0.583
29013W        W95796  22.025  28.722   2.775
29014W        W95797  11.155  19.227  10.978
29015W        W95798  34.148  41.464   0.773
29016W        W95799   4.259  20.074  10.775
29017W        W95800  11.650  17.733  13.026
29018W        W95801  34.026  14.783   4.577
29019W        W95802  25.333  40.447   1.783
29020W        W95803  41.536  40.462  10.812
29021W        W95804   8.173   9.457   1.779
29022W        W95805  12.881  17.064  11.356
29023W        W95806  17.659   1.358  11.712
29024W        W95807   8.186   1.321  11.991
29025W        W95808  40.655   3.996  11.497
29026W        W95809  39.445  31.476   0.826
29027W        W95810  16.354  32.084   4.092
29028W        W95811  42.432  12.808  13.317
29029W        W95812   2.010   3.541  13.678
29030W        W95813  20.031  34.085  11.555
29031W        W95814  42.141  43.737  11.176
29032W        W95815  39.557  20.803  12.426
29033W        W95816   3.874   7.196   4.092
29034W        W95817  19.057  23.261  11.704
29035W        W95818  16.972  25.104   4.514
29036W        W95819  24.031  12.647  12.141
29037W        W95820  41.914  15.390  14.819
29038W        W95821  33.448  29.075   3.853
29039W        W95822  31.100   5.908   2.341
29040W        W95823  20.708  22.049   3.297
29041W        W95824  16.226  31.243  14.456
29042W        W95825  24.665   5.285   1.855
29043W        W95826  39.280   0.717   3.600
29044W        W95827  19.746  15.792   1.223
29045W        W95828  11.818   0.961  14.688
29046W        W95829  18.974  11.892  13.087
29047W        W95830  19.771  37.018   4.560
29048W        W95831   8.873  22.595  10.516
29049W        W95832  27.894  25.055   0.480
29050W        W95833  21.723  10.831   2.209
29051W        W95834   0.184  23.536  10.697
29052W        W95835   7.238  40.310  14.889
29053W        W95836  40.902  19.747  11.667
29054W        W95837  10.264  44.201  10.617
29055W        W95838  36.707  18.091   1.757
29056W        W95839   4.658  28.970  14.932
29057W        W95840   0.193   5.446  11.925
29058W        W95841   3.172  36.821   4.109
29059W        W95842  11.344  18.577   1.897
29060W        W95843  20.281  18.068  14.801
29061W        W95844   8.600   0.924   2.595
29062W        W95845   6.916  30.620   2.591
29063W        W95846  17.850  18.378  13.549
29064W        W95847  26.443  31.630   3.745
29065W        W95848  39.255  26.706   0.420
29066W        W95849  27.193  26.185   3.649
29067W        W95850  28.916  27.562  12.433
29068W        W95851  24.404  22.460   4.370
29069W        W95852  21.470  30.318   4.730
29070W        W95853   5.660   8.914   0.256
29071W        W95854  38.972   3.871  13.767
29072W        W95855  38.887  39.973  12.803
29073W        W95856  38.224  22.222   2.670
29074W        W95857  27.322  29.385  10.826
29075W        W95858  44.431   6.318   0.830
29076W        W95859  14.182  29.099   1.682
29077W        W95860  22.217  31.467   3.182
29078W        W95861  41.744   9.428   1.580
29079W        W95862  31.730   0.640   2.769
29080W        W95863   4.255   2.633   1.322
29081W        W95864  35.475  10.864   0.690
29082W        W95865  44.227   3.314   1.895
29083W        W95866  28.029   1.742  11.604
29084W        W95867  10.997  35.356   4.100
29085W        W95868  17.566  23.967   1.771
29086W        W95869  13.174  16.522  12.051
29087W        W95870  38.988  40.881  10.387
29088W        W95871   2.983  25.790  14.815
29089W        W95872   6.309  31.200   0.338
29090W        W95873  37.440  41.812  11.372
29091W        W95874  16.352  43.254  12.907
29092W        W95875  39.522  43.020   2.276
29093W        W95876  24.582  12.325   1.774
29094W        W95877  18.226  41.118  14.356
29095W        W95878  14.249  12.599   1.746
29096W        W95879  43.394  33.816  12.514
29097W        W95880  28.063  17.292  10.215
29098W        W95881  34.537  19.685   1.492
29099W        W95882   8.303  24.419  14.259
29100W        W95883   2.993   4.901  11.272
29101W        W95884   4.442  43.778  14.860
29102W        W95885  25.767  23.128   3.604
29103W        W95886  36.520  31.710  11.028
29104W        W95887  23.540  41.131  10.908
29105W        W95888   3.723  11.162  13.524
29106W        W95889  31.164  24.575  10.858
29107W        W95890  15.286  25.598   4.219
29108W        W95891  37.370   5.379  13.495
29109W        W95892  21.190  26.533   0.862
29110W        W95893  22.988   8.625   4.536
29111W        W95894  32.814  21.668  12.946
29112W        W95895   1.482  17.197  13.467
29113W        W95896  39.766  32.745   0.741
29114W        W95897   1.664   2.892  11.404
29115W        W95898   7.743  19.805  11.139
29116W        W95899   2.889  36.360   1.530
29117W        W95900  16.688  26.302   3.423
29118W        W95901  40.488  25.058   4.605
29119W        W95902  28.032  44.055  14.554
29120W        W95903  42.995  16.263   4.601
29121W        W95904   3.887  43.388  14.838
29122W        W95905   1.455  21.222   2.734
29123W        W95906   3.889  38.880   1.537
29124W        W95907   3.858  44.970   1.012
29125W        W95908  32.062  35.286   0.843
29126W        W95909  24.794  21.569  13.117
29127W        W95910   8.595  17.242   2.830
29128W        W95911   8.775  24.625   3.745
29129W        W95912  11.119  29.096   1.402
29130W        W95913  15.096  13.702  10.718
29131W        W95914  18.815   7.616   0.594
29132W        W95915  10.612  13.859   2.784
29133W        W95916  23.030  12.642   1.838
29134W        W95917  24.716  35.670  13.460
29135W        W95918  18.515  22.058   4.493
29136W        W95919  29.011  12.933   0.293
29137W        W95920  37.399  11.771  10.943
29138W        W95921  27.560  23.317   0.548
29139W        W95922  36.297  14.870   2.183
29140W        W95923  42.523  12.078  14.999
29141W        W95924  29.460   3.188   3.646
29142W        W95925  18.611  21.123  14.347
29143W        W95926   0.810   5.050  10.761
29144W        W95927  27.088  11.545   2.986
29145W        W95928  37.321   4.212  14.002
29146W        W95929  19.184  17.724   4.062
29147W        W95930   1.866   7.432  12.833
29148W        W95931  26.211  29.061  12.929
29149W        W95932  21.762  22.425  11.266
29150W        W95933  29.383  41.171   2.190
29151W        W95934  11.379  31.691  12.389
29152W        W95935  38.111  23.376  11.150
29153W        W95936   1.137   3.460  11.580
29154W        W95937   7.284  35.880  12.398
29155W        W95938  36.423  15.407  11.753
29156W        W95939  14.876  43.319   2.792
29157W        W95940  12.173  30.938   3.783
29158W        W95941  14.278  10.863  10.936
29159W        W95942  41.415  33.030   2.309
29160W        W95943  36.040  27.645  13.889
29161W        W95944  39.026  13.160  11.472
29162W        W95945  24.209  10.889   0.465
29163W        W95946  14.479  14.809   2.663
29164W        W95947   0.485  22.744   3.140
29165W        W95948  26.873  31.768  14.944
29166W        W95949   0.276  44.874  12.542
29167W        W95950  20.296  42.031   4.556
29168W        W95951  36.066   3.218  11.498
29169W        W95952  14.547  41.803  11.183
29170W        W95953   0.339  39.837   0.709
29171W        W95954   1.302  33.049   1.348
29172W        W95955  42.963  22.329   2.487
29173W        W95956  40.974  30.953  12.579
29174W        W95957  21.169  16.221   3.201
29175W        W95958  41.801  43.618  14.492
29176W        W95959  34.490   2.363   3.857
29177W        W95960  40.437  14.517   3.535
29178W        W95961  20.948  16.117  11.428
29179W        W95962  44.278  33.545  11.964
29180W        W95963  40.320   6.322  12.327
29181W        W95964  11.925   1.397   1.424
29182W        W95965  24.951   4.679  12.509
29183W        W95966  41.879  16.760   4.757
29184W        W95967  15.205  16.599   1.469
29185W        W95968   0.062  23.821  12.954
29186W        W95969  30.211   1.797   4.131
29187W        W95970   5.884  37.946   1.703
29188W        W95971  41.922   5.884   4.682
29189W        W95972  24.259  37.058   0.903
29190W        W95973  18.719  12.732   3.330
29191W        W95974  33.382   1.772  14.796
29192W        W95975  27.903   9.134   1.761
29193W        W95976  12.823   2.840   0.916
29194W        W95977  24.261  32.093  12.068
29195W        W95978  14.567  27.956   0.961
29196W        W95979  32.342   7.418   4.389
29197W        W95980  19.945  36.681  11.553
29198W        W95981  11.338  43.373   1.408
29199W        W95982  32.050  26.512   2.043
29200W        W95983  20.294  24.734  13.928
29201W        W95984  11.733  12.310  11.058
29202W        W95985  24.386   1.058   1.765
29203W        W95986  44.528  37.542  11.182
29204W        W95987  25.206  27.702  12.505
29205W        W95988   4.356  18.844   0.526
29206W        W95989  30.482  11.590  14.269
29207W        W95990  16.598  32.057  11.104
29208W        W95991  30.381  21.789  14.674
29209W        W95992  19.556  14.185   0.265
29210W        W95993  25.957  39.081  11.108
29211W        W95994  36.422  12.105  11.917
29212W        W95995  34.805   5.226  10.639
29213W        W95996  39.021  39.476   2.069
29214W        W95997  34.896  27.030   3.746
29215W        W95998  18.965  30.024   1.945
29216W        W95999  40.430   8.845  12.862
29217W        W96000  15.331  11.839  14.335
29218W        W96001  30.542   3.419  14.063
29219W        W96002  22.177  38.902  12.450
29220W        W96003  29.980  44.289   0.316
29221W        W96004   6.141  10.236  13.331
29222W        W96005  16.671  27.189   3.397
29223W        W96006  23.633  39.667   0.927
29224W        W96007   5.857  27.647   0.242
29225W        W96008  20.167  44.263  14.752
29226W        W96009  28.614  37.348   4.599
29227W        W96010  26.764   7.250  14.852
29228W        W96011  10.144  36.986  14.044
29229W        W96012  21.153  11.711   4.823
29230W        W96013  36.024   6.695  12.367
29231W        W96014  43.904  41.731   1.688
29232W        W96015   9.135  16.559   0.240
29233W        W96016  29.326   5.795  10.414
29234W        W96017  23.549  11.095  11.103
29235W        W96018  26.144   3.200  10.156
29236W        W96019  25.170  40.411  11.838
29237W        W96020  43.777   2.809  13.550
29238W        W96021  39.424  21.165  11.489
29239W        W96022  42.814   4.200  12.090
29240W        W96023  40.045  20.511   0.235
29241W        W96024  41.506  41.842  13.715
29242W        W96025  32.474   9.640  10.109
29243W        W96026  23.763  31.252  11.890
29244W        W96027  12.648  28.970   0.310
29245W        W96028   0.836  40.928   2.858
29246W        W96029  15.023  16.206   1.772
29247W        W96030  36.489  35.491   4.628
29248W        W96031  40.961  25.115  12.753
29249W        W96032  26.611  11.347  11.978
29250W        W96033   8.475   7.959  12.505
29251W        W96034  39.378  43.218   0.913
29252W        W96035  42.779  40.780   3.664
29253W        W96036  21.389  15.242  13.777
29254W        W96037  30.706   9.704   2.861
29255W        W96038  43.182   1.000  14.372
29256W        W96039  35.859   9.757  13.940
29257W        W96040   9.003  14.583  14.707
29258W        W96041  18.135  12.619   5.240
29259W        W96042  12.266  36.345   1.683
29260W        W96043  37.434  24.157  12.350
29261W        W96044  13.512   6.764   2.383
29262W        W96045  22.354   6.888   2.111
29263W        W96046  27.498  19.488   5.148
29264W        W96047  30.837  40.252  13.934
29265W        W96048  43.631   8.263  14.217
29266W        W96049  37.459  39.680   4.383
29267W        W96050  12.838  24.999  14.217
29268W        W96051   3.684  31.087   1.547
29269W        W96052  34.477  44.543   1.088
29270W        W96053  17.780  20.046   0.488
29271W        W96054  14.816  41.216   2.377
29272W        W96055  30.961  21.975   4.634
29273W        W96056  16.158  40.727   4.291
29274W        W96057  28.873  37.486   4.175
29275W        W96058  16.828  27.499  12.526
29276W        W96059  33.412  23.214   0.863
29277W        W96060  18.869  38.428   0.166
29278W        W96061  18.788  39.898  14.113
29279W        W96062  38.906  18.926   3.785
29280W        W96063  34.895  14.287  10.444
29281W        W96064  36.953  30.050   5.031
29282W        W96065   0.308  34.068  14.008
29283W        W96066   1.224   1.920  13.489
29284W        W96067  30.024  39.538   2.781
29285W        W96068   2.481  33.897   3.587
29286W        W96069  41.932  38.871   0.775
29287W        W96070  24.372   5.109   2.733
29288W        W96071  27.510  28.296  11.613
29289W        W96072  18.044  11.285   2.290
29290W        W96073  11.505   9.870   5.382
29291W        W96074  43.009  24.239   0.829
29292W        W96075  20.690  33.097   4.588
29293W        W96076  16.125  20.460   4.728
29294W        W96077  18.784  32.382   1.883
29295W        W96078  37.551  44.739   4.676
29296W        W96079  28.446  11.641  14.194
29297W        W96080  20.601  43.257  14.576
29298W        W96081   6.192  28.565   2.783
29299W        W96082   0.531   7.835  13.827
29300W        W96083   4.320  19.741  14.842
29301W        W96084  19.734  20.622  11.608
29302W        W96085  21.197  23.154  11.860
29303W        W96086  35.383  28.672  12.889
29304W        W96087  32.963   0.865   2.149
29305W        W96088  41.227  37.962   0.749
29306W        W96089  35.574  13.238   2.809
29307W        W96090  24.690  40.593  14.904
29308W        W96091  42.952  32.862  10.630
29309W        W96092  24.260   5.748   4.675
29310W        W96093  43.138   5.790  11.036
29311W        W96094  15.823  28.869   0.818
29312W        W96095  21.580  42.489  12.006
29313W        W96096  41.258  24.758   1.250
29314W        W96097   0.814  43.881  11.605
29315W        W96098  11.914   7.193  14.039
29316W        W96099   2.204  21.430   4.062
29317W        W96100  24.004  21.036   2.253
29318W        W96101   8.292  40.538   1.289
29319W        W96102  37.312  26.092  13.873
29320W        W96103  40.755  25.019  11.893
29321W        W96104   4.259  39.590  14.507
29322W        W96105  18.956  27.720   0.890
29323W        W96106   8.927   0.566  11.017
29324W        W96107  33.427   9.843   3.970
29325W        W96108   5.994   3.734  11.579
29326W        W96109  10.969  20.659   0.895
29327W        W96110  32.097  30.731  14.547
29328W        W96111   0.919  27.936   3.341
29329W        W96112   8.735  19.863   4.271
29330W        W96113   7.847  25.282   3.664
29331W        W96114  21.589  15.838  10.211
29332W        W96115  15.763  33.766  11.065
29333W        W96116  22.715   9.728   0.275
29334W        W96117  11.424  22.034   3.256
29335W        W96118  36.363   1.750   2.686
29336W        W96119   7.247   1.948   1.362
29337W        W96120   5.965  20.111  14.375
29338W        W96121  10.784  29.607   0.235
29339W        W96122   9.630  21.965   1.102
29340W        W96123  38.043  17.367  11.572
29341W        W96124  33.988  24.702   5.595
29342W        W96125  28.519  14.241  12.904
29343W        W96126  27.950   4.436  13.925
29344W        W96127   0.420  15.239   1.253
29345W        W96128  17.769   4.701   1.253
29346W        W96129  27.972  17.711   4.824
29347W        W96130  39.393  24.552  13.811
29348W        W96131  15.847  31.979   4.181
29349W        W96132  30.117   1.832  12.560
29350W        W96133  20.590  12.711  10.536
29351W        W96134   9.292  31.022   1.375
29352W        W96135   5.221  43.230  14.100
29353W        W96136  25.807  23.533  11.184
29354W        W96137  23.046  36.960   4.342
29355W        W96138  35.966  38.782  10.940
29356W        W96139  22.789  14.753   1.230
29357W        W96140  30.029  29.865  13.053
29358W        W96141  41.248  24.766   0.354
29359W        W96142  28.848  43.085  10.770
29360W        W96143  20.122  18.146   2.774
29361W        W96144  39.904  25.700   4.660
29362W        W96145  43.512  30.301  11.112
29363W        W96146  38.780  13.414  11.067
29364W        W96147  25.969  11.515   0.979
29365W        W96148  22.316  12.790   1.266
29366W        W96149  27.114  12.735   1.141
29367W        W96150  37.007   9.514   1.909
29368W        W96151  29.520  41.890   5.835
29369W        W96152   6.893  14.027   1.752
29370W        W96153  37.018  41.106  12.393
29371W        W96154   0.207  16.599  14.940
29372W        W96155  22.046  42.987  14.308
29373W        W96156  38.972  17.940  12.424
29374W        W96157  42.992   5.786   1.415
29375W        W96158  25.180   7.158  11.959
29376W        W96159  23.194  39.756  10.348
29377W        W96160   3.517   6.922   3.146
29378W        W96161  44.010   2.384  13.329
29379W        W96162  36.640  27.144  14.971
29380W        W96163  27.520  29.049   3.643
29381W        W96164  20.456  12.077  13.505
29382W        W96165  35.369  27.656  11.360
29383W        W96166  33.183  34.365  14.039
29384W        W96167   3.251   0.855  11.161
29385W        W96168  43.519  44.306  10.316
29386W        W96169   9.313   1.761  14.391
29387W        W96170   1.566  12.345  13.012
29388W        W96171   6.997  10.945   0.740
29389W        W96172   5.906  37.343  11.183
29390W        W96173   5.088  24.542  14.659
29391W        W96174  43.000  20.791   2.146
29392W        W96175  31.561  22.893  10.802
29393W        W96176  38.303  42.098  12.052
29394W        W96177  32.379  17.852  13.512
29395W        W96178  18.227  33.685   0.423
29396W        W96179  28.835  10.663   2.204
29397W        W96180  17.970  20.728   2.313
29398W        W96181  33.699  34.031  10.831
29399W        W96182  37.437   8.742   3.645
29400W        W96183  38.037  41.652   4.132
29401W        W96184  17.639  10.205  11.149
29402W        W96185  24.951  34.667  12.923
29403W        W96186  28.823  44.870  12.631
29404W        W96187  32.510  31.291   2.178
29405W        W96188  44.869  24.444   4.456
29406W        W96189  22.568   9.766  12.894
29407W        W96190   1.065  18.268   0.319
29408W        W96191  21.001  33.758   0.781
29409W        W96192  34.484  34.359   2.692
29410W        W96193  20.930  31.896   2.153
29411W        W96194  43.990  20.677   4.026
29412W        W96195   5.684  38.326  11.937
29413W        W96196  17.378  23.120  14.280
29414W        W96197   5.447   6.692  13.847
29415W        W96198  38.897  44.752   2.951
29416W        W96199  27.565  25.163   2.282
29417W        W96200  22.061  38.045   4.315
29418W        W96201  25.685   6.836   0.457
29419W        W96202   5.337  29.476  10.716
29420W        W96203  35.632  36.010  14.749
29421W        W96204  23.299  44.248  14.746
29422W        W96205  34.604  43.247   4.882
29423W        W96206  42.422  32.691  14.453
29424W        W96207  29.809  28.353   2.270
29425W        W96208   0.687  13.586   4.046
29426W        W96209   6.710  39.923   4.339
29427W        W96210  44.570  17.581  12.068
29428W        W96211   0.070  20.768  14.341
29429W        W96212   7.644  44.369  13.902
29430W        W96213  37.908  17.525  14.903
29431W        W96214   1.272  31.485   3.935
29432W        W96215  16.905  13.134  11.585
29433W        W96216  30.813   7.208   1.954
29434W        W96217  24.658  20.235   4.301
29435W        W96218  14.240   1.509   4.824
29436W        W96219   3.389  27.217  11.168
29437W        W96220   2.323  40.066   0.259
29438W        W96221  17.129  19.115   3.674
29439W        W96222  24.194  14.388   0.527
29440W        W96223  14.341  10.898   2.696
29441W        W96224  44.575  14.219   2.734
29442W        W96225  18.458   4.207  11.672
29443W        W96226  29.265  42.394   3.157
29444W        W96227  20.725  32.889  13.063
29445W        W96228  13.596  30.325   4.300
29446W        W96229  19.942  38.025   3.760
29447W        W96230  20.263   6.732  12.552
29448W        W96231  43.705  28.569   0.835
29449W        W96232   2.318  27.170  10.915
29450W        W96233  27.280  39.131  13.571
29451W        W96234  20.213   5.113  14.509
29452W        W96235  38.535   4.913  14.352
29453W        W96236  34.104  24.616   2.970
29454W        W96237  18.243  33.621  10.668
29455W        W96238   5.681   2.847   1.280
29456W        W96239  13.374  28.607  14.493
29457W        W96240  36.495  40.204  12.473
29458W        W96241   9.156   6.894   0.835
29459W        W96242  11.621  12.764  11.933
29460W        W96243   6.415  42.871   0.050
29461W        W96244  28.093   0.237  11.459
29462W        W96245  18.874  31.113  14.075
29463W        W96246  10.758  26.045   4.119
29464W        W96247  17.267  22.262   2.769
29465W        W96248  23.172  36.851   1.222
29466W        W96249  26.092  33.584  13.553
29467W        W96250  31.056  35.945   1.135
29468W        W96251  42.264   5.328  13.285
29469W        W96252  15.621  31.546  13.882
29470W        W96253  37.129   9.760  13.346
29471W        W96254   7.246   2.389   3.148
29472W        W96255  14.034  27.157  12.484
29473W        W96256  32.347  36.427   1.499
29474W        W96257  14.805   3.925  12.531
29475W        W96258  35.847  24.122   1.664
29476W        W96259  21.751  25.084  13.967
29477W        W96260  31.079  15.113   3.371
29478W        W96261  12.374  18.642   4.823
29479W        W96262  13.811   0.097  14.453
29480W        W96263  42.973  23.545   3.415
29481W        W96264   0.434   0.336  13.076
29482W        W96265  31.973  17.698   4.750
29483W        W96266  27.233  18.793  12.263
29484W        W96267  10.805   5.013  14.301
29485W        W96268   2.315  27.444  13.863
29486W        W96269  27.714  39.873  13.083
29487W        W96270   1.354  14.218   3.545
29488W        W96271  11.320  36.155  13.461
29489W        W96272  25.203  39.998  13.143
29490W        W96273  43.945  12.069   4.164
29491W        W96274  27.977  16.325   1.661
29492W        W96275  36.117  29.653   4.159
29493W        W96276  24.600  29.730   4.205
29494W        W96277  43.365  42.440  11.469
29495W        W96278  20.769  34.507   2.795
29496W        W96279  31.459  36.273  14.542
29497W        W96280  25.216  13.351   4.219
29498W        W96281  31.087  13.610  13.970
29499W        W96282  21.564  40.246   1.461
29500W        W96283   7.215  39.848   4.585
29501W        W96284  19.535   6.903   2.808
29502W        W96285  39.146  15.835  12.893
29503W        W96286  15.319  39.707  13.380
29504W        W96287  25.187   5.030   3.682
29505W        W96288  31.445  37.502  12.888
29506W        W96289   7.193  11.389  10.700
29507W        W96290  44.289  15.040   3.133
29508W        W96291  24.054   1.769  11.083
29509W        W96292  41.772   7.115  12.529
29510W        W96293   0.304  43.284  12.317
29511W        W96294  30.844  16.401  13.020
29512W        W96295   0.343  44.097   1.795
29513W        W96296  24.811  16.675   1.314
29514W        W96297  42.855   8.748  13.840
29515W        W96298  30.645  44.160   4.506
29516W        W96299   2.785  15.415  11.679
29517W        W96300   2.876  30.927   3.590
29518W        W96301  14.716  19.944   0.556
29519W        W96302  13.153  15.559  12.048
29520W        W96303  14.322  25.450  13.314
29521W        W96304  21.725  35.854   2.771
29522W        W96305  20.254  34.430   2.789
29523W        W96306  42.104   8.708   2.684
29524W        W96307  31.599  35.860  12.086
29525W        W96308  25.660  40.051   0.945
29526W        W96309  34.723  41.921   2.102
29527W        W96310  22.650  41.783  12.546
29528W        W96311   3.177  29.498  11.693
29529W        W96312   2.930  17.433  14.368
29530W        W96313  16.764   4.208  12.912
29531W        W96314  26.903  36.007  14.855
29532W        W96315  31.897  27.962  13.343
29533W        W96316  38.994   4.387   3.230
29534W        W96317  17.911  25.591  12.068
29535W        W96318  30.415  40.781  10.649
29536W        W96319  22.577  40.513   0.629
29537W        W96320  41.731  24.653   3.846
29538W        W96321  42.884  22.643  14.057
29539W        W96322  34.677   3.361   4.796
29540W        W96323  11.641  34.007   4.120
29541W        W96324  24.683  13.070  13.453
29542W        W96325   3.469  39.646   0.713
29543W        W96326  20.722  36.580  14.019
29544W        W96327  40.786  17.774   3.628
29545W        W96328  34.889  31.848  13.820
29546W        W96329  13.276  44.310  14.040
29547W        W96330  29.496   8.308   4.679
29548W        W96331  27.950  39.440  12.200
29549W        W96332  23.428  16.097   1.864
29550W        W96333   8.668   5.947   0.201
29551W        W96334  44.237  35.015  10.119
29552W        W96335   7.899   7.470   1.556
29553W        W96336   8.316  36.972  12.899
29554W        W96337  25.740   9.887   3.733
29555W        W96338   4.196   0.850  14.140
29556W        W96339  22.214  25.985   0.327
29557W        W96340  15.864  11.197  11.526
29558W        W96341  18.245  14.831  12.035
29559W        W96342  30.487  14.265   4.102
29560W        W96343  27.581  16.323   2.329
29561W        W96344   3.958   8.644  10.634
29562W        W96345  38.457  43.353   0.365
29563W        W96346   1.632  30.398   2.290
29564W        W96347  13.666  24.112   3.618
29565W        W96348  34.624  12.253  11.241
29566W        W96349  31.493   3.526   1.850
29567W        W96350  35.465  34.381  13.988
29568W        W96351  16.948  17.716   2.067
29569W        W96352  31.372  37.540  12.382
29570W        W96353  22.094   9.328  14.688
29571W        W96354   7.874   3.374   1.189
29572W        W96355  23.994   7.290   3.948
29573W        W96356   4.331  37.153  13.876
29574W        W96357  12.111   3.282  14.563
29575W        W96358   6.736  11.352  13.028
29576W        W96359  41.161  36.736   3.790
29577W        W96360  20.934   1.900   4.203
29578W        W96361  41.190   0.164  12.509
29579W        W96362   4.796  32.476   4.367
29580W        W96363   9.246  20.176   4.883
29581W        W96364   1.240  24.048  13.839
29582W        W96365  12.213  35.117   4.441
29583W        W96366  21.712  21.102   4.101
29584W        W96367  16.609   3.237  14.326
29585W        W96368  31.849   5.554   4.875
29586W        W96369  14.041  21.720   1.655
29587W        W96370   4.033  17.679   1.184
29588W        W96371  32.979  38.817  10.193
29589W        W96372  16.515  35.872   4.689
29590W        W96373  34.909  34.858   4.052
29591W        W96374  44.247  22.701  13.624
29592W        W96375  27.888   1.662   1.328
29593W        W96376  22.145  12.871   3.317
29594W        W96377  39.799  11.295  11.533
29595W        W96378  19.114   2.933   0.427
29596W        W96379  17.648  18.974   3.227
29597W        W96380  22.463   1.697  12.217
29598W        W96381  22.458  36.367   3.136
29599W        W96382   1.344  32.552  13.501
29600W        W96383   6.864  13.536  12.963
29601W        W96384  38.592  37.546  11.642
29602W        W96385  44.190   0.765  13.618
29603W        W96386   9.371  24.236   0.692
29604W        W96387  26.438  43.076   3.711
29605W        W96388   3.259  34.958  11.515
29606W        W96389   1.054  27.686  13.391
29607W        W96390  37.078  32.633  12.473
29608W        W96391  26.849  12.659  10.942
29609W        W96392  35.873  33.489  14.045
29610W        W96393  13.607  34.089  11.609
29611W        W96394  23.540  37.030  13.585
29612W        W96395  20.116  41.999  10.661
29613W        W96396  24.473   8.280   0.246
29614W        W96397  15.684  26.398   4.711
29615W        W96398  33.888   6.527   3.135
29616W        W96399  36.796   3.113   1.795
29617W        W96400  43.842   0.794   3.501
29618W        W96401  28.459  33.214  13.946
29619W        W96402   1.494  20.542   3.332
29620W        W96403  17.019  21.236  12.836
29621W        W96404  27.321   6.322   2.323
29622W        W96405  31.647  10.714   1.795
29623W        W96406  24.034   6.257   9.753
29624W        W96407  29.006  12.847  12.574
29625W        W96408  27.585  27.775   9.765
29626W        W96409  22.575  10.526  13.368
29627W        W96410   7.843  10.848   0.444
29628W        W96411   5.124  12.090   1.367
29629W        W96412  44.991  13.175  10.575
29630W        W96413  28.094   6.449  14.260
29631W        W96414  24.871  38.301  10.753
29632W        W96415   9.717  10.096   1.003
29633W        W96416  16.059  27.848   4.442
29634W        W96417  19.306  17.905  12.240
29635W        W96418  39.024   1.759  13.285
29636W        W96419  32.971  34.616   2.491
29637W        W96420  24.729   8.323  14.798
29638W        W96421  11.172  14.707   1.976
29639W        W96422  14.042  32.583  11.460
29640W        W96423  31.821  34.019   3.824
29641W        W96424  42.829  28.914  14.319
29642W        W96425  28.762  35.504   3.228
29643W        W96426  22.052  27.008   3.197
29644W        W96427  26.665  30.130   2.123
29645W        W96428   8.126  23.260  14.771
29646W        W96429  14.070  37.850   2.565
29647W        W96430  12.187  34.794  12.012
29648W        W96431  21.890  20.751   1.951
29649W        W96432  29.492  34.850   4.632
29650W        W96433   1.804   9.802  13.157
29651W        W96434  43.224  25.828   3.579
29652W        W96435   6.693  39.647   2.374
29653W        W96436  30.610  15.464  11.164
29654W        W96437  20.711   4.298  10.407
29655W        W96438  28.730  36.039   3.119
29656W        W96439  18.877  31.275   2.263
29657W        W96440   4.797   4.106   3.564
29658W        W96441   2.965  23.298   2.862
29659W        W96442  19.271  29.046  13.387
29660W        W96443  43.763  39.800   1.232
29661W        W96444  19.773  39.348   4.543
29662W        W96445  27.971  31.371  12.500
29663W        W96446  13.788   1.276   4.548
29664W        W96447   7.377  23.039   3.071
29665W        W96448   7.448  11.085  14.455
29666W        W96449   2.034  35.813   4.843
29667W        W96450  44.058  19.121   1.355
29668W        W96451  44.151  42.566   0.393
29669W        W96452   0.646  38.517   4.764
29670W        W96453  15.518  15.931   9.829
29671W        W96454   0.175   7.413  12.030
29672W        W96455  33.448  38.280   2.882
29673W        W96456  25.946  39.543   2.218
29674W        W96457   6.217  18.179   0.274
29675W        W96458  15.875  12.734  10.676
29676W        W96459  26.143  36.134   3.263
29677W        W96460  18.750  36.133   5.001
29678W        W96461  11.788  38.815  12.480
29679W        W96462  26.114   7.387  12.388
29680W        W96463  36.032  12.603  13.957
29681W        W96464   9.007  38.027   1.493
29682W        W96465  43.916   5.864  13.441
29683W        W96466  23.666  29.738  12.057
29684W        W96467   0.886  38.544  12.525
29685W        W96468  44.223  17.506   5.342
29686W        W96469  15.936  20.234  10.242
29687W        W96470  24.444  28.161  14.782
29688W        W96471  26.466  16.433   3.742
29689W        W96472   1.870   7.228   1.243
29690W        W96473  25.809   5.005  14.048
29691W        W96474  38.023   5.567  14.873
29692W        W96475  19.078  43.097   2.663
29693W        W96476   6.791  14.694   3.110
29694W        W96477  18.571  10.347  11.412
29695W        W96478   7.257  27.097  10.453
29696W        W96479   0.957  25.898  14.485
29697W        W96480  14.242   8.290   2.903
29698W        W96481  38.000   7.421   1.221
29699W        W96482   2.397  23.008  11.242
29700W        W96483   1.848  37.354   2.891
29701W        W96484  24.197  24.911  13.349
29702W        W96485  28.921  10.744  10.687
29703W        W96486   5.332  18.533   4.791
29704W        W96487   6.572  31.019   2.590
29705W        W96488  38.462  19.128   0.264
29706W        W96489  10.601  31.910  12.627
29707W        W96490   0.364  21.220   3.694
29708W        W96491  16.239  19.014   3.941
29709W        W96492  18.711  22.026  10.982
29710W        W96493  32.060  24.169   0.235
29711W        W96494   0.723  31.021   1.367
29712W        W96495  40.825  12.887  13.538
29713W        W96496  26.896  42.754  11.556
29714W        W96497  21.577  40.153  12.103
29715W        W96498  39.800  19.201   0.309
29716W        W96499  28.645   9.325  13.549
29717W        W96500  21.105  35.097   0.480
29718W        W96501  40.022  25.654  14.716
29719W        W96502   3.431   8.874   4.137
29720W        W96503  18.024  36.314  10.336
29721W        W96504  37.374  40.080   4.068
29722W        W96505  40.712   3.488   3.686
29723W        W96506  26.648  22.678  13.995
29724W        W96507  43.340  12.587   2.452
29725W        W96508   0.461  39.881   4.176
29726W        W96509  16.305  40.319   0.295
29727W        W96510  21.127  33.909   1.295
29728W        W96511   6.771  12.233   0.931
29729W        W96512  19.811  28.539   1.751
29730W        W96513  31.492  29.954  14.387
29731W        W96514  29.393  35.948   2.303
29732W        W96515  30.967  27.785   0.836
29733W        W96516   3.297  39.443   3.645
29734W        W96517  11.381   4.720  10.971
29735W        W96518  42.444  12.179   5.346
29736W        W96519  33.617  18.926  14.245
29737W        W96520  23.559  24.413  13.967
29738W        W96521  13.757  40.649  10.283
29739W        W96522  21.582  14.141   1.606
29740W        W96523  27.359  31.021   4.653
29741W        W96524  34.263  32.412   0.863
29742W        W96525   9.546  24.000   3.692
29743W        W96526  32.431  22.119   4.938
29744W        W96527   6.356  27.124  11.878
29745W        W96528  19.502  36.477  13.384
29746W        W96529  12.278   9.772   2.080
29747W        W96530  17.631  24.078  14.715
29748W        W96531   9.612  21.757  11.164
29749W        W96532   7.668  25.210  13.828
29750W        W96533  10.313  35.748   2.866
29751W        W96534  32.878  19.150   1.762
29752W        W96535  38.579   6.221  12.568
29753W        W96536  20.502  40.300  10.542
29754W        W96537  27.465  43.207   2.501
29755W        W96538  27.554  22.015   4.167
29756W        W96539  42.447  36.558  11.177
29757W        W96540  14.130  36.393   1.591
29758W        W96541  42.560  18.319  12.636
29759W        W96542   2.315  26.288   1.354
29760W        W96543  26.416  42.933  11.417
29761W        W96544  25.608  18.780   1.515
29762W        W96545  31.692  23.178  13.321
29763W        W96546  28.594  36.859  11.280
29764W        W96547  15.125  22.539  14.346
29765W        W96548   6.243  32.247   0.199
29766W        W96549  37.132  33.122   3.534
29767W        W96550   5.377  23.465   0.319
29768W        W96551  28.262   2.038  14.991
29769W        W96552  11.274  23.935  11.953
29770W        W96553  39.755  41.038   3.688
29771W        W96554  44.059  34.329  14.895
29772W        W96555  34.792  25.832   4.164
29773W        W96556   2.202  18.850  12.973
29774W        W96557  18.575   0.385   1.867
29775W        W96558  18.848   4.765  14.567
29776W        W96559  27.525  21.965   1.881
29777W        W96560   6.889  12.387  11.967
29778W        W96561  20.948  15.711  11.098
29779W        W96562  32.776  22.120  12.441
29780W        W96563  19.389  25.377  14.475
29781W        W96564  16.583  30.934   3.645
29782W        W96565  43.047  40.015  14.903
29783W        W96566   1.463  20.532  12.951
29784W        W96567  30.385  36.001  13.863
29785W        W96568   8.272  32.003   1.991
29786W        W96569  42.940  36.943   4.391
29787W        W96570   9.255  43.245  13.023
29788W        W96571  28.616  29.903  11.395
29789W        W96572  24.618   2.533  12.000
29790W        W96573  40.808  32.536  11.580
29791W        W96574  17.363   7.407  14.549
29792W        W96575  38.299  31.448  11.526
29793W        W96576   9.692   5.537   0.882
29794W        W96577  42.532  39.314   4.660
29795W        W96578   5.990  27.176   4.125
29796W        W96579   7.137  16.653   3.627
29797W        W96580  32.049   4.072  10.514
29798W        W96581  28.532   6.717   0.845
29799W        W96582  39.274  34.489  14.950
29800W        W96583  11.691   8.721  13.824
29801W        W96584  38.489   9.056  14.391
29802W        W96585  37.782  31.009  10.357
29803W        W96586  14.470  38.530  10.573
29804W        W96587   7.400   8.282  11.093
29805W        W96588   2.763   9.325   3.755
29806W        W96589   7.620  10.070  13.090
29807W        W96590   0.247   5.484  14.714
29808W        W96591  14.624  37.709  10.457
29809W        W96592  18.254  24.131  14.021
29810W        W96593  29.121   6.326  12.645
29811W        W96594  28.396  23.726  10.598
29812W        W96595   2.397  28.010   1.216
29813W        W96596  36.686   5.337   3.160
29814W        W96597   2.706  34.999  12.468
29815W        W96598  44.384  31.574   0.380
29816W        W96599  26.411  29.956   0.649
29817W        W96600   1.989  28.064   4.109
29818W        W96601  28.999   7.776   1.264
29819W        W96602  36.007  35.909   4.919
29820W        W96603   3.174  15.550  12.006
29821W        W96604   6.401  20.076   0.924
29822W        W96605   7.906  41.064   2.907
29823W        W96606   8.301  34.621   0.350
29824W        W96607   7.712  34.805  11.211
29825W        W96608   6.253  36.913   2.302
29826W        W96609  23.640   9.806   1.692
29827W        W96610   4.053   0.532   0.426
29828W        W96611  42.335  39.900   4.113
29829W        W96612   1.342  33.883  11.486
29830W        W96613   5.951   8.272   3.768
29831W        W96614  40.882  15.219   0.866
29832W        W96615  15.971  19.140   1.167
29833W        W96616  21.058  30.650   4.893
29834W        W96617  22.986   8.485  14.200
29835W        W96618  23.743   4.940   3.658
29836W        W96619  40.815  21.699   4.693
29837W        W96620  41.554  20.189   3.140
29838W        W96621  11.054  38.925   2.842
29839W        W96622  43.896  38.329   2.938
29840W        W96623  31.136   2.196  14.905
29841W        W96624  16.182  12.059  12.547
29842W        W96625  40.033  42.751   4.108
29843W        W96626  10.743  29.575  14.303
29844W        W96627   6.621  43.562  14.506
29845W        W96628  22.513  17.830   2.912
29846W        W96629  25.038  22.392   2.882
29847W        W96630  39.727   3.189   2.942
29848W        W96631  33.371  38.992  12.063
29849W        W96632  25.455   9.106   1.367
29850W        W96633  15.208  32.027  11.112
29851W        W96634  33.824  44.045   0.612
29852W        W96635  15.409  42.957  14.481
29853W        W96636  19.162   8.167   3.345
29854W        W96637  44.350  40.111   2.201
29855W        W96638  20.751  21.242  12.594
29856W        W96639  33.370   9.800  12.886
29857W        W96640  15.840  27.510  12.387
29858W        W96641   8.895  42.650   3.245
29859W        W96642  13.343  18.845  11.120
29860W        W96643  41.411  22.033   1.391
29861W        W96644  33.560  42.024   4.125
29862W        W96645  19.063  38.931  12.479
29863W        W96646  43.596  35.439  14.037
29864W        W96647   4.910  30.500  13.858
29865W        W96648  11.107  39.465  14.516
29866W        W96649   0.231  19.670  14.892
29867W        W96650  17.790  15.078  12.029
29868W        W96651   5.937  34.382  10.580
29869W        W96652  17.693  31.022   3.182
29870W        W96653  36.513  25.280   4.077
29871W        W96654  27.496  18.579  10.647
29872W        W96655  16.495  42.624  11.429
29873W        W96656  16.251   3.609   4.968
29874W        W96657  24.205  37.461   4.819
29875W        W96658  37.883  44.211  11.408
29876W        W96659  30.045  17.293  14.603
29877W        W96660  21.585  22.668  11.964
29878W        W96661  35.490   0.467  14.524
29879W        W96662  11.726   4.188   1.432
29880W        W96663  32.546   7.192   2.188
29881W        W96664  20.659  22.095  14.629
29882W        W96665   8.820  15.081   1.893
29883W        W96666   7.634  13.840  13.316
29884W        W96667  39.399  31.957  11.032
29885W        W96668  43.415  38.309   4.115
29886W        W96669  29.569  34.035  14.288
29887W        W96670   9.455  10.251  14.276
29888W        W96671  30.316  41.447   2.431
29889W        W96672  16.148   8.750  12.364
29890W        W96673  30.077  17.561   3.151
29891W        W96674   9.743   5.655   0.104
29892W        W96675  26.981  42.833   1.751
29893W        W96676  28.106  39.133   4.601
29894W        W96677  33.403  41.296   1.226
29895W        W96678  14.114   8.221   1.725
29896W        W96679  11.215  19.909  12.775
29897W        W96680   7.421  35.518  10.667
29898W        W96681  29.523  15.789  14.121
29899W        W96682  11.772  10.467   4.541
29900W        W96683  10.399  21.840  11.570
29901W        W96684  28.412  22.016   1.915
29902W        W96685  14.840  19.820  13.288
29903W        W96686  28.288  14.439  11.052
29904W        W96687  41.444  38.098   3.907
29905W        W96688  37.183   0.179   4.632
29906W        W96689  15.336  10.363  13.311
29907W        W96690  24.416  35.994  10.472
29908W        W96691  33.460   1.309  14.508
29909W        W96692  16.799  42.154   2.690
29910W        W96693  42.954  15.815   0.280
29911W        W96694  16.380   3.901   0.538
29912W        W96695  41.473   1.736   0.594
29913W        W96696   7.826  35.130   1.801
29914W        W96697   2.772  14.241   1.845
29915W        W96698  25.468  44.337  12.346
29916W        W96699  32.183   9.129  10.348
29917W        W96700  14.829  11.195  13.520
29918W        W96701   6.871   1.821  14.202
29919W        W96702  14.794  12.222  11.555
29920W        W96703  41.318  39.126   1.464
29921W        W96704  15.326   2.390   3.670
29922W        W96705  18.730  24.927  13.762
29923W        W96706  14.291  35.385   9.763
29924W        W96707  30.279  32.418  12.157
29925W        W96708  43.821  37.679   4.339
29926W        W96709   2.004  33.251  13.417
29927W        W96710  12.572  34.120  10.776
29928W        W96711  31.022  32.842   1.256
29929W        W96712   4.272  32.860   1.241
29930W        W96713  20.589  31.724  10.565
29931W        W96714  37.376  14.677   0.638
29932W        W96715   3.075   8.927   0.982
29933W        W96716  13.323  28.108   4.071
29934W        W96717  24.195  37.310   1.424
29935W        W96718  23.617   2.422  11.751
29936W        W96719   0.784  24.967  10.779
29937W        W96720  23.308  15.977   4.010
29938W        W96721   7.862   5.138  11.532
29939W        W96722  34.811  33.387  12.469
29940W        W96723  33.115  11.377  11.566
29941W        W96724   5.253  13.782  11.600
29942W        W96725   6.651   4.388  13.405
29943W        W96726  35.461   7.506   3.143
29944W        W96727   4.254  30.594   0.895
29945W        W96728  39.696   6.083  14.280
29946W        W96729  37.662   1.896  11.591
29947W        W96730  25.232   6.945   3.204
29948W        W96731  35.528  36.815  13.792
29949W        W96732  19.616  34.364   1.232
29950W        W96733  26.574  33.203  12.081
29951W        W96734  27.549  19.793   0.922
29952W        W96735   3.639  33.436   4.185
29953W        W96736  28.202  18.602  11.159
29954W        W96737  29.673  16.754   2.808
29955W        W96738  17.065  32.515  14.947
29956W        W96739  25.008  43.297  14.484
29957W        W96740  12.155  33.240   4.541
29958W        W96741   4.323  15.861   0.391
29959W        W96742   6.649  11.363  14.900
29960W        W96743  23.924  20.004   3.654
29961W        W96744   4.102  21.125   0.268
29962W        W96745  29.740  14.120   0.258
29963W        W96746   6.972  38.757   4.190
29964W        W96747  38.443  35.304  11.118
29965W        W96748  19.767   5.981   3.708
29966W        W96749  24.905  39.401   3.227
29967W        W96750  43.949  10.818  14.546
29968W        W96751   5.426  23.861  10.752
29969W        W96752  30.130  23.669  11.657
29970W        W96753  44.866  38.542  11.555
29971W        W96754  11.698  30.635   0.475
29972W        W96755  35.501   1.753   3.713
29973W        W96756  29.884  22.788   1.399
29974W        W96757  42.836  18.284  14.406
29975W        W96758  42.974   4.827  11.619
29976W        W96759  10.910  34.105   2.785
29977W        W96760  35.454   2.729   3.705
29978W        W96761  21.537  12.643   0.827
29979W        W96762  15.748  26.519   3.840
29980W        W96763  22.197  20.704  12.542
29981W        W96764  44.186  23.663   4.176
29982W        W96765   0.996  18.429  12.540
29983W        W96766  21.953  19.973  13.081
29984W        W96767  37.494  17.595  13.491
29985W        W96768   6.804  21.910  13.408
29986W        W96769  36.478  14.285  10.155
29987W        W96770  36.901  29.063  13.313
29988W        W96771   0.021  19.218  10.798
29989W        W96772  43.775  18.470  11.164
29990W        W96773  22.722  12.419  12.893
29991W        W96774  43.562  22.949  12.576
29992W        W96775   4.139  14.300   1.745
29993W        W96776  43.150  18.594   3.646
29994W        W96777   5.424   7.361  14.503
29995W        W96778  44.125  21.674   4.063
29996W        W96779  18.512  32.945   0.029
29997W        W96780  35.123   8.566  14.403
29998W        W96781  27.799  30.476  12.735
29999W        W96782  39.866  25.283   1.159
30000W        W96783  16.208  44.763  11.582
30001W        W96784  18.687  23.280   0.377
30002W        W96785  26.089  22.013   4.938
30003W        W96786  39.248  29.025  13.054
30004W        W96787  25.777  11.342   2.808
30005W        W96788  15.595   6.390   1.122
30006W        W96789  20.976   4.872  10.742
30007W        W96790  15.342  17.654   1.483
30008W        W96791  44.440   9.858   1.961
30009W        W96792  29.022  35.343  11.372
30010W        W96793  31.927  43.053  13.346
30011W        W96794  14.401  29.670  11.177
30012W        W96795  33.380  36.656   0.773
30013W        W96796   5.031  38.285   3.244
30014W        W96797  39.238  26.071  11.173
30015W        W96798   9.323   5.343   2.327
30016W        W96799  11.742   0.672  14.231
30017W        W96800  16.103   9.114   4.751
30018W        W96801  16.900  42.997   4.634
30019W        W96802  11.526   6.380   0.244
30020W        W96803  14.235   3.561  11.450
30021W        W96804  19.249  36.908  14.380
30022W        W96805  30.679  30.484   3.183
30023W        W96806  43.213  37.285   3.865
30024W        W96807  11.349  11.274   2.370
30025W        W96808  25.945  23.159   3.114
30026W        W96809   4.931  30.443   4.365
30027W        W96810  17.214  42.335   3.023
30028W        W96811   7.620  17.030  11.551
30029W        W96812  22.142  28.524  13.433
30030W        W96813  17.657   9.248   1.093
30031W        W96814  23.890   5.322  13.033
30032W        W96815   1.323  40.065  12.962
30033W        W96816  35.132  11.075  14.387
30034W        W96817   8.783  39.781   4.847
30035W        W96818  41.710   0.484   0.411
30036W        W96819  24.569  25.292  13.369
30037W        W96820  13.264  28.181   2.341
30038W        W96821  43.401   1.705   1.795
30039W        W96822  13.174   4.843  14.014
30040W        W96823  28.886  37.727  12.436
30041W        W96824   1.891  41.727   0.067
30042W        W96825  27.032  18.127  12.871
30043W        W96826  44.928  39.944  14.866
30044W        W96827  23.196  26.634   3.167
30045W        W96828  11.829   0.223  13.405
30046W        W96829  31.367   2.363   4.869
30047W        W96830  30.031   2.965  12.464
30048W        W96831  26.261  20.161   3.331
30049W        W96832   0.518  43.381   1.511
30050W        W96833  43.949  16.259  12.045
30051W        W96834  24.468  24.781   3.609
30052W        W96835  30.171  43.872   4.514
30053W        W96836  22.190  14.148   2.360
30054W        W96837  41.499   3.768   1.977
30055W        W96838   5.883  27.982  13.003
30056W        W96839   8.768  17.988   2.226
30057W        W96840  42.621  14.685  12.488
30058W        W96841  40.524  44.505   3.285
30059W        W96842  39.629  30.533  11.035
30060W        W96843   9.143  22.805   3.427
30061W        W96844  40.905  19.211   4.587
30062W        W96845  37.783  38.157  10.835
30063W        W96846  24.919  34.850   1.707
30064W        W96847  29.722  31.864   4.150
30065W        W96848  34.473  22.881   9.520
30066W        W96849  37.456  37.532  12.666
30067W        W96850  26.788  38.801   4.939
30068W        W96851  28.000  10.557  12.888
30069W        W96852  33.095  12.736   4.350
30070W        W96853  15.685  18.188  13.094
30071W        W96854  10.833   2.987   2.661
30072W        W96855   8.756  17.351  14.770
30073W        W96856  13.822   2.810  13.481
30074W        W96857   5.693   1.476   3.186
30075W        W96858  26.186  13.278  13.408
30076W        W96859  25.016   9.393   1.280
30077W        W96860   5.207  22.048  12.831
30078W        W96861  35.554  13.038  10.429
30079W        W96862  41.560  39.014  11.478
30080W        W96863  21.281  25.775   2.397
30081W        W96864  26.176  16.321  11.143
30082W        W96865  25.413  14.243  14.854
30083W        W96866  42.347  29.038   2.685
30084W        W96867  44.287   3.350   0.805
30085W        W96868  21.170  16.261   4.697
30086W        W96869  17.141   2.033  12.674
30087W        W96870  29.707  20.130   2.665
30088W        W96871  26.079   5.418   1.523
30089W        W96872  11.171  43.769   0.406
30090W        W96873  13.053  16.664   0.720
30091W        W96874  19.010  10.897   0.892
30092W        W96875   8.337  11.595  11.584
30093W        W96876  30.969  42.305  13.828
30094W        W96877  13.645  27.113   0.949
30095W        W96878  43.430  27.147   2.955
30096W        W96879  35.525   0.774   2.845
30097W        W96880  30.932  10.712   4.105
30098W        W96881  36.815  31.128   4.345
30099W        W96882   0.842  13.316   0.437
30100W        W96883  14.537  23.171   0.462
30101W        W96884  24.251  33.172   0.739
30102W        W96885  25.796  21.968  14.976
30103W        W96886  25.528  12.515  11.565
30104W        W96887   7.122   5.769   1.307
30105W        W96888  30.568  13.620  10.737
30106W        W96889  33.726  15.157   2.723
30107W        W96890  31.490  36.815  10.723
30108W        W96891   8.691  25.939   1.224
30109W        W96892  39.875  17.083  11.298
30110W        W96893  24.984  18.738  14.479
30111W        W96894  33.470  43.527   1.418
30112W        W96895  10.575  13.315  14.198
30113W        W96896  12.317  12.791   3.710
30114W        W96897  12.360  18.227  13.886
30115W        W96898  11.536  31.106   4.855
30116W        W96899   6.827  18.334  14.811
30117W        W96900  37.314   3.863  12.331
30118W        W96901  29.283  13.151   2.740
30119W        W96902   6.977  35.411  12.089
30120W        W96903   1.970  30.438  14.768
30121W        W96904  10.057  12.153  11.988
30122W        W96905  23.747  36.826  14.858
30123W        W96906   3.304  39.142   4.103
30124W        W96907  39.098   3.013  11.956
30125W        W96908  31.067  21.152   9.849
30126W        W96909  39.520  27.053   2.532
30127W        W96910  26.633  38.529   2.808
30128W        W96911  21.786  21.010   3.587
30129W        W96912  38.659  17.525  12.468
30130W        W96913  42.217  21.581   4.723
30131W        W96914  25.522  18.682  12.918
30132W        W96915  10.925   7.222  13.926
30133W        W96916  12.080  10.758   4.828
30134W        W96917   9.313  43.961  12.628
30135W        W96918   6.639   6.239  13.980
30136W        W96919  37.826  10.116  12.838
30137W        W96920  12.753  15.744   2.940
30138W        W96921  14.189  13.899  14.295
30139W        W96922  14.965  40.000   5.044
30140W        W96923   7.200   1.825  10.619
30141W        W96924  19.620   1.208  14.303
30142W        W96925  24.999  19.822  12.535
30143W        W96926  17.779  25.460  12.951
30144W        W96927  26.773  26.398   3.983
30145W        W96928  39.476  28.142   2.768
30146W        W96929  28.952  15.281  14.491
30147W        W96930   3.781  32.094   4.192
30148W        W96931   7.140  38.293   3.928
30149W        W96932   2.217  42.239   0.664
30150W        W96933  23.258   7.353  10.647
30151W        W96934   5.822  38.898  11.163
30152W        W96935   9.865  23.952  13.445
30153W        W96936  33.918   2.311   4.981
30154W        W96937  21.150  33.544   5.121
30155W        W96938  29.034  15.213  13.850
30156W        W96939  11.304  41.344   0.737
30157W        W96940   2.289  14.408   1.919
30158W        W96941  33.793  39.344  14.983
30159W        W96942  10.188  38.004  10.495
30160W        W96943   8.598  42.436  12.875
30161W        W96944   5.349   2.300   2.632
30162W        W96945  22.394  40.542  13.078
30163W        W96946   2.211   3.913   3.274
30164W        W96947  12.253  20.785   0.633
30165W        W96948  43.927   0.971   4.722
30166W        W96949  23.514  21.664   4.585
30167W        W96950   3.227  22.307   1.587
30168W        W96951  26.220  23.146   3.869
30169W        W96952   8.805   4.105  12.095
30170W        W96953   3.386   2.855   4.570
30171W        W96954  31.223   0.762   3.642
30172W        W96955  17.661  36.059  10.641
30173W        W96956  44.860  14.549   1.679
30174W        W96957  11.219  35.895  13.021
30175W        W96958  39.721  18.075  11.112
30176W        W96959  20.264  37.002  13.364
30177W        W96960  32.712  19.573   5.050
30178W        W96961  21.454  43.403  10.634
30179W        W96962  20.192  38.739  13.039
30180W        W96963  23.117  15.556   3.094
30181W        W96964  31.134  22.392  12.573
30182W        W96965  26.424   9.334  13.400
30183W        W96966  13.580  30.021  13.060
30184W        W96967  25.084  33.652  12.775
30185W        W96968  37.512  41.836  13.277
30186W        W96969   3.726  22.813  10.802
30187W        W96970   6.850  27.470  14.261
30188W        W96971  24.080  22.763  13.464
30189W        W96972  30.342  22.933   4.939
30190W        W96973  32.036  34.360   4.187
30191W        W96974   5.685  42.199   2.774
30192W        W96975  24.272  25.229   3.495
30193W        W96976  34.491  36.373  12.377
30194W        W96977  22.254  17.729   3.342
30195W        W96978  25.865   5.250   0.972
30196W        W96979  39.088  23.612  13.419
30197W        W96980  20.778  44.899   3.755
30198W        W96981   2.818  31.109  10.949
30199W        W96982  33.531  31.139   3.035
30200W        W96983   2.249  17.170  11.508
30201W        W96984  41.924   0.177   4.301
30202W        W96985  36.025  17.977  11.738
30203W        W96986   5.679   6.248   0.307
30204W        W96987   6.892  43.044   4.591
30205W        W96988  39.554  19.480   2.288
30206W        W96989  42.959  42.046  13.362
30207W        W96990   9.765   1.878  12.934
30208W        W96991  40.254  15.619  10.354
30209W        W96992  30.575  22.044   2.754
30210W        W96993  27.759  10.534  12.087
30211W        W96994  38.157  40.016  11.027
30212W        W96995  39.123  20.747  14.772
30213W        W96996  21.195  38.010  11.055
30214W        W96997  17.536  26.509  14.256
30215W        W96998  15.294   3.469  13.766
30216W        W96999  33.150   0.773   4.421
30217W        W97000  21.479  12.163   3.169
30218W        W97001  22.201  11.229   0.308
30219W        W97002  17.316  16.840  11.402
30220W        W97003  39.274  22.679  12.624
30221W        W97004  29.306  43.471   2.841
30222W        W97005  20.505  30.691   2.797
30223W        W97006  19.078   2.423  13.536
30224W        W97007  18.570   2.536   4.518
30225W        W97008  18.039   2.702  11.570
30226W        W97009   3.730  35.052   4.702
30227W        W97010  42.797  37.571   5.058
30228W        W97011  37.917  33.931  10.812
30229W        W97012  44.250   1.456  10.415
30230W        W97013  35.067   2.484   5.111
30231W        W97014   3.376  22.407   2.078
30232W        W97015   2.591  24.113  12.074
30233W        W97016  37.479  31.627   4.349
30234W        W97017   9.639  13.816   3.237
30235W        W97018  32.321   5.560  13.857
30236W        W97019   3.413   1.281  12.418
30237W        W97020  30.052  21.426  11.436
30238W        W97021  40.206  22.024   0.388
30239W        W97022  41.747  28.832   0.794
30240W        W97023  35.624   3.737  13.479
30241W        W97024  42.020  17.082   0.380
30242W        W97025   7.721   9.319   5.085
30243W        W97026  16.148  11.756  12.141
30244W        W97027  43.934  41.152   1.804
30245W        W97028   4.210  28.104  10.597
30246W        W97029   0.357  23.577   2.166
30247W        W97030  22.289  11.808  14.001
30248W        W97031  29.232  38.345   0.445
30249W        W97032  21.541  27.091   4.654
30250W        W97033   7.120  12.070  14.576
30251W        W97034   8.629  32.246   1.206
30252W        W97035  38.380  10.594   0.186
30253W        W97036  36.320  24.685   3.430
30254W        W97037  39.482   7.337   0.431
30255W        W97038  12.574  42.819  10.442
30256W        W97039  20.313   0.763   1.877
30257W        W97040   5.871  20.080  11.183
30258W        W97041  21.688   9.133  11.617
30259W        W97042  22.287  39.802   3.312
30260W        W97043  21.025  25.012   2.683
30261W        W97044  18.612  37.421   9.949
30262W        W97045  19.271  35.047   0.259
30263W        W97046  26.110   2.108  10.237
30264W        W97047  21.806  30.460   3.827
30265W        W97048  41.510   5.411  10.659
30266W        W97049  22.102  37.742  11.535
30267W        W97050  39.582   2.425   1.739
30268W        W97051   4.071  22.896   3.241
30269W        W97052   3.323   0.927   2.162
30270W        W97053   7.750  25.687   0.777
30271W        W97054  41.025  31.916   1.688
30272W        W97055  22.376  16.854   3.826
30273W        W97056  12.179  27.574  12.575
30274W        W97057  27.926  30.820   0.414
30275W        W97058   3.851  42.573   0.283
30276W        W97059   0.241   3.458   2.752
30277W        W97060   5.670  40.808   1.316
30278W        W97061  36.984   5.202  12.557
30279W        W97062  40.657   7.902  11.098
30280W        W97063  24.156   2.414   0.004
30281W        W97064   8.662  13.325   2.321
30282W        W97065  37.528  34.459  13.477
30283W        W97066   8.047  17.782   0.072
30284W        W97067  10.630  12.986  10.706
30285W        W97068  20.525   7.355  13.798
30286W        W97069  36.021  13.504   2.187
30287W        W97070  29.146  38.568   3.254
30288W        W97071  11.068  27.209   1.272
30289W        W97072   1.019  25.572   4.355
30290W        W97073  24.143  36.355  12.500
30291W        W97074  41.760  37.095  12.350
30292W        W97075  15.245  24.479   1.993
30293W        W97076   6.649  43.394  12.402
30294W        W97077  41.976  29.977   1.198
30295W        W97078  28.204  34.721  11.591
30296W        W97079  36.267  28.909  11.238
30297W        W97080  16.270  15.547   1.977
30298W        W97081  22.613  23.415   1.401
30299W        W97082  31.127  41.042  14.360
30300W        W97083  22.613  43.238   5.269
30301W        W97084   6.862  26.203   1.876
30302W        W97085  25.434  30.504   2.672
30303W        W97086  35.846  15.904   3.418
30304W        W97087  23.565  38.523   2.649
30305W        W97088  17.441  31.842  14.047
30306W        W97089  25.098  24.199  12.212
30307W        W97090   3.327   3.907  12.819
30308W        W97091  42.207  31.454   3.577
30309W        W97092  23.145  15.345  10.681
30310W        W97093   4.861  23.600   9.845
30311W        W97094  32.945  23.724  12.994
30312W        W97095  34.455  10.849   2.401
30313W        W97096  19.306  26.014   0.397
30314W        W97097  41.481   5.485   0.481
30315W        W97098  39.127  31.900   4.164
30316W        W97099  32.114  22.068   0.928
30317W        W97100  30.791   6.343  14.253
30318W        W97101  16.527  34.215  11.506
30319W        W97102  16.843  19.497   3.277
30320W        W97103   8.307  33.311   1.195
30321W        W97104   2.519  28.543  10.990
30322W        W97105  40.826  22.425   0.773
30323W        W97106  25.693  30.133  11.131
30324W        W97107   8.816  25.147  12.653
30325W        W97108  32.469  43.896  12.027
30326W        W97109   7.077  15.530   2.768
30327W        W97110  42.980   7.746  13.653
30328W        W97111   9.777   3.004   0.856
30329W        W97112   7.038   8.330  10.704
30330W        W97113  36.291   6.326   3.865
30331W        W97114  10.660   6.752   5.179
30332W        W97115  22.696  19.797   0.841
30333W        W97116  44.362  28.861   4.673
30334W        W97117  21.638   2.108   3.705
30335W        W97118  41.549  22.119   3.168
30336W        W97119  19.107   4.712   1.713
30337W        W97120  23.695  19.608   4.029
30338W        W97121  19.837   2.970   9.845
30339W        W97122  42.643  35.144  11.082
30340W        W97123  14.337  14.767   4.200
30341W        W97124  26.104  36.348   2.779
30342W        W97125  40.028  39.385   2.211
30343W        W97126  10.302  22.754   3.663
30344W        W97127  42.756  27.446  11.989
30345W        W97128  40.927  11.698   0.950
30346W        W97129  13.698  18.022   2.099
30347W        W97130  40.878  29.578   5.003
30348W        W97131   1.341  43.779   0.310
30349W        W97132  19.039  10.105   0.317
30350W        W97133  39.387  41.128   0.361
30351W        W97134  13.933  43.905  12.400
30352W        W97135   7.854  23.664   2.834
30353W        W97136  34.449   8.698   2.868
30354W        W97137  34.606  29.160  13.392
30355W        W97138  20.408  15.583   5.143
30356W        W97139  38.464   0.173   2.334
30357W        W97140  33.104  44.616   1.908
30358W        W97141   0.014  23.240  14.323
30359W        W97142  41.600  37.297   0.269
30360W        W97143  16.703  37.716   1.830
30361W        W97144  22.581  29.216  13.411
30362W        W97145  16.882  42.884   0.453
30363W        W97146  18.003  33.833  13.854
30364W        W97147  34.929  24.214  11.153
30365W        W97148  33.152   9.758  12.403
30366W        W97149   0.301   5.956  11.894
30367W        W97150  17.616  17.664  11.154
30368W        W97151  34.437  41.950   4.119
30369W        W97152  11.561  27.036  11.623
30370W        W97153  20.962  26.302  14.717
30371W        W97154   6.759  15.753   0.792
30372W        W97155  13.769  24.976   0.052
30373W        W97156  38.887   9.463  11.042
30374W        W97157   4.650  16.370   0.695
30375W        W97158  33.298  22.268   0.732
30376W        W97159  29.542  41.955   5.302
30377W        W97160  10.668   2.767   4.627
30378W        W97161  26.133  43.892   3.802
30379W        W97162  34.015  27.970  11.907
30380W        W97163  19.743  43.064  11.279
30381W        W97164  22.876  24.409  10.613
30382W        W97165  24.786  26.281  14.538
30383W        W97166  23.052  24.958   3.221
30384W        W97167  38.049  19.500   2.078
30385W        W97168   8.165   3.985   1.740
30386W        W97169  12.044  30.479  10.697
30387W        W97170  39.371   9.045  14.266
30388W        W97171  21.072  16.498   1.020
30389W        W97172  11.886  14.398   4.494
30390W        W97173  11.056  27.689   1.547
30391W        W97174  35.264  32.004   4.060
30392W        W97175  10.128  33.859  10.763
30393W        W97176   9.366  39.957  14.529
30394W        W97177  30.188  25.214   1.379
30395W        W97178  34.321  13.124  13.395
30396W        W97179   1.751  22.325  11.413
30397W        W97180   2.119   5.645  14.308
30398W        W97181  38.800  15.804  10.592
30399W        W97182   4.693  27.543   2.274
30400W        W97183  33.449  39.770  10.633
30401W        W97184  10.736  30.555  12.289
30402W        W97185  31.446  20.095   0.038
30403W        W97186  39.300   7.590   1.794
30404W        W97187  10.144  40.322  11.563
30405W        W97188  16.609  38.772  10.585
30406W        W97189  33.722  28.113  11.505
30407W        W97190   5.470  14.249   4.736
30408W        W97191  42.450  26.696   1.039
30409W        W97192   1.850   7.865   3.144
30410W        W97193   5.436  34.296   1.779
30411W        W97194  37.445  33.896   4.068
30412W        W97195   1.970  41.460  14.310
30413W        W97196  36.785   8.700   2.259
30414W        W97197  40.228   1.462  12.021
30415W        W97198  40.991  25.761  10.731
30416W        W97199  34.464  40.999   0.749
30417W        W97200  15.608  33.421   1.321
30418W        W97201  21.128  20.587   1.885
30419W        W97202  30.434   4.455   4.154
30420W        W97203  18.693  21.125  13.333
30421W        W97204   1.406   8.062  14.104
30422W        W97205  32.598  24.102  12.647
30423W        W97206  22.000  37.458   1.231
30424W        W97207  21.587  36.892   2.663
30425W        W97208  32.538   0.599  13.983
30426W        W97209  40.958  23.151   2.671
30427W        W97210  36.530  29.704  11.912
30428W        W97211  32.606  19.656   1.500
30429W        W97212  43.739  12.771  11.985
30430W        W97213  43.583  25.150   2.507
30431W        W97214  37.713  24.824   3.569
30432W        W97215  16.996  34.339  12.125
30433W        W97216  19.307  17.083   3.536
30434W        W97217  26.705  15.099  12.610
30435W        W97218  25.740  18.224  14.404
30436W        W97219   3.708  31.477  12.065
30437W        W97220  14.816  11.832   1.955
30438W        W97221  17.529  21.447  12.851
30439W        W97222  38.742  38.559   3.088
30440W        W97223  20.251  24.015   3.714
30441W        W97224  13.819  44.858   4.103
30442W        W97225  30.923  24.610  10.369
30443W        W97226  41.235   7.228  11.511
30444W        W97227   6.252  26.700   3.163
30445W        W97228  30.408   5.604   0.386
30446W        W97229  34.587  11.183   2.778
30447W        W97230  12.718  23.321   1.231
30448W        W97231  35.385  21.853  12.264
30449W        W97232  41.902  29.381   3.826
30450W        W97233   9.100   8.947  10.278
30451W        W97234  39.906  25.164   3.817
30452W        W97235   4.445  23.200  12.384
30453W        W97236  11.759  20.662   0.535
30454W        W97237  39.002   3.944   0.328
30455W        W97238  40.827  28.369  11.555
30456W        W97239  44.148   9.364   0.417
30457W        W97240   8.412  30.548   3.694
30458W        W97241  32.921  35.600  12.471
30459W        W97242   9.640  36.513  13.603
30460W        W97243  14.166   3.449  10.583
30461W        W97244  12.452   0.309  14.865
30462W        W97245  33.035   5.284  11.380
30463W        W97246  17.789  35.372   0.009
30464W        W97247   7.210  28.926  14.340
30465W        W97248   1.993  17.705   3.625
30466W        W97249  11.182  16.221   5.010
30467W        W97250  22.005  18.247   2.508
30468W        W97251   2.115  25.325  11.132
30469W        W97252  39.224  10.661  10.424
30470W        W97253   8.881  39.527   1.171
30471W        W97254  29.520   9.106  11.519
30472W        W97255  18.043  10.280   0.446
30473W        W97256  25.745   5.695  14.998
30474W        W97257  27.855  13.128  11.937
30475W        W97258  36.486   6.575   0.047
30476W        W97259  15.651  41.056   0.508
30477W        W97260  14.213  11.396  14.782
30478W        W97261   5.506  16.145   4.589
30479W        W97262   3.884  38.545  11.195
30480W        W97263   9.935  15.069  14.417
30481W        W97264   5.468  30.241   0.106
30482W        W97265  25.024   3.883  14.356
30483W        W97266  36.366  27.677  12.963
30484W        W97267  23.528  16.135  14.783
30485W        W97268  19.677  19.546  14.425
30486W        W97269  29.320  24.046   4.143
30487W        W97270  32.484   6.981   3.082
30488W        W97271  25.522  18.734  14.562
30489W        W97272  17.549  32.533   2.210
30490W        W97273  34.588   5.800   0.136
30491W        W97274  18.581   2.279  12.243
30492W        W97275  27.702  18.679  11.100
30493W        W97276   1.855  16.101  11.075
30494W        W97277  36.610  31.512  10.568
30495W        W97278  20.489   3.970  11.691
30496W        W97279   5.265  28.421  11.237
30497W        W97280  41.098   7.291   1.323
30498W        W97281   8.140  32.002   1.503
30499W        W97282  33.274  13.233   5.029
30500W        W97283  36.942  42.239   2.904
30501W        W97284   8.164  24.182  11.994
30502W        W97285  22.056  33.027   2.694
30503W        W97286   0.952   0.604   4.217
30504W        W97287  42.482  18.084   2.864
30505W        W97288  42.733   4.303   1.475
30506W        W97289  42.870  14.237  12.310
30507W        W97290  33.296  44.714  11.591
30508W        W97291  19.089  40.616  12.102
30509W        W97292  32.281   9.757  12.224
30510W        W97293  29.179  29.378   0.801
30511W        W97294  26.153  44.773  12.023
30512W        W97295  27.642  29.925   1.331
30513W        W97296  39.051  29.281  11.537
30514W        W97297   2.974  44.997  12.120
30515W        W97298  34.620  25.786  10.771
30516W        W97299  32.709  15.628   1.429
30517W        W97300   1.371   9.201   2.136
30518W        W97301  18.109   7.548  14.964
30519W        W97302  20.171   5.955  12.166
30520W        W97303  29.906  42.893  14.704
30521W        W97304  10.160  43.339   4.496
30522W        W97305   9.360  43.004   1.664
30523W        W97306  41.350   8.897   9.758
30524W        W97307   2.428  13.139   0.544
30525W        W97308  28.999  18.080   2.320
30526W        W97309   6.671  37.890   0.001
30527W        W97310  35.837  29.177   3.669
30528W        W97311  19.587  17.303   2.909
30529W        W97312  15.505   8.357   4.174
30530W        W97313  37.436  25.610  14.171
30531W        W97314   2.811   3.714  11.063
30532W        W97315  15.881  10.053   0.644
30533W        W97316   8.870  42.518   2.382
30534W        W97317  15.147   1.472  13.429
30535W        W97318   6.103  35.791   0.319
30536W        W97319  17.248  39.008  14.845
30537W        W97320  43.905  34.733   2.419
30538W        W97321  38.675  16.413   0.454
30539W        W97322   1.827  31.575   0.759
30540W        W97323   7.158   8.006  10.303
30541W        W97324  12.905  29.597  11.135
30542W        W97325  18.361  24.793  13.419
30543W        W97326   7.724  40.082   0.854
30544W        W97327  17.610  39.785   3.635
30545W        W97328  11.673  30.705  11.226
30546W        W97329   0.507  33.419  11.435
30547W        W97330  11.845  22.589   1.978
30548W        W97331  33.094  26.891  14.150
30549W        W97332  12.885  14.667   4.612
30550W        W97333  43.458   9.139   2.390
30551W        W97334   5.868  17.138   1.453
30552W        W97335  39.105  22.666  14.487
30553W        W97336  28.723  31.970   4.586
30554W        W97337  17.134  20.257  11.669
30555W        W97338   3.775  19.518  14.513
30556W        W97339  27.098   8.150   2.407
30557W        W97340  23.623  19.177   1.209
30558W        W97341   6.252  33.688   4.980
30559W        W97342   7.481  28.630  10.746
30560W        W97343   3.528  42.118   3.633
30561W        W97344  29.322  40.362  10.724
30562W        W97345  11.206  28.066  11.687
30563W        W97346  25.542   4.153   1.888
30564W        W97347  25.568  36.091   0.577
30565W        W97348  10.832  33.296  13.497
30566W        W97349  28.950  40.229   4.493
30567W        W97350  12.297  40.128   3.274
30568W        W97351  27.069  20.727  14.906
30569W        W97352  29.662  32.861  10.424
30570W        W97353  36.308  38.879   2.981
30571W        W97354  21.484  42.191   1.357
30572W        W97355  41.835  22.459   4.521
30573W        W97356  23.129  38.555   1.873
30574W        W97357  36.166   3.221   1.660
30575W        W97358  40.403  28.357   0.658
30576W        W97359  20.339  13.465   0.462
30577W        W97360  43.803  21.674  13.745
30578W        W97361  43.387  12.824  11.124
30579W        W97362  44.916   1.668  11.626
30580W        W97363  29.632  42.965  11.098
30581W        W97364  41.543  40.880  14.250
30582W        W97365  33.181   4.735   4.920
30583W        W97366   2.990  15.112   3.798
30584W        W97367  27.207   0.434  11.963
30585W        W97368   1.419  21.612  13.042
30586W        W97369  26.838  37.839  14.634
30587W        W97370  34.556  17.768   1.658
30588W        W97371  12.083  36.893  10.348
30589W        W97372  43.344  42.957   1.814
30590W        W97373  26.565  32.513  14.220
30591W        W97374  22.777  31.813   1.368
30592W        W97375  36.560  34.776  13.716
30593W        W97376  38.250  11.859   1.824
30594W        W97377  40.750  27.006  11.799
30595W        W97378  27.616  34.146   0.250
30596W        W97379  41.807  12.194  10.722
30597W        W97380   9.160  23.476  11.576
30598W        W97381  21.981  30.406   3.331
30599W        W97382  38.934  21.321  11.456
30600W        W97383  23.073  29.969   1.631
30601W        W97384  12.071   4.864   0.446
30602W        W97385  14.468  29.022  14.255
30603W        W97386  40.302  21.579  11.542
30604W        W97387  44.402  24.021   3.716
30605W        W97388  15.701   2.513   2.271
30606W        W97389  20.234   8.543  13.327
30607W        W97390  21.533  26.111  13.853
30608W        W97391  15.971  23.058  11.055
30609W        W97392  16.757  38.993  11.886
30610W        W97393  31.587  22.771  14.488
30611W        W97394  20.606   8.181   3.857
30612W        W97395  26.596   3.312   2.314
30613W        W97396  18.067  19.967   3.238
30614W        W97397  33.605  19.030  10.282
30615W        W97398  20.741  25.602   0.863
30616W        W97399  16.953  22.267  14.454
30617W        W97400  41.500  32.548   4.472
30618W        W97401  16.592  41.341   2.772
30619W        W97402  13.840  38.519   0.875
30620W        W97403  35.566  12.672  10.787
30621W        W97404  25.691   4.310   1.207
30622W        W97405  39.083   0.904  14.507
30623W        W97406   6.967  25.982  14.375
30624W        W97407  11.226  32.179  14.902
30625W        W97408  17.290  30.209   3.173
30626W        W97409   4.561  28.273  13.049
30627W        W97410  43.011  20.823  14.081
30628W        W97411  33.617   4.620  11.221
30629W        W97412  27.644   1.191  10.601
30630W        W97413  21.785  16.768   4.200
30631W        W97414   0.884  14.263   2.485
30632W        W97415  29.166  43.302  14.824
30633W        W97416  38.031  13.842  12.835
30634W        W97417   2.235  44.876   2.834
30635W        W97418  19.581  34.513  11.236
30636W        W97419   3.303  26.245  13.484
30637W        W97420  42.371  11.435   3.714
30638W        W97421  32.574  12.576  14.416
30639W        W97422  42.777  29.994   1.850
30640W        W97423   1.280  36.207  11.533
30641W        W97424   8.734   1.023  13.874
30642W        W97425  26.494  30.892  12.401
30643W        W97426  27.118  37.746   4.646
30644W        W97427  41.367  16.758   4.787
30645W        W97428  16.608  43.754   3.276
30646W        W97429  40.881  34.705   0.998
30647W        W97430  33.465  41.713  14.709
30648W        W97431  12.258  11.059   1.277
30649W        W97432  25.190  27.660  13.288
30650W        W97433  22.822  17.346   4.043
30651W        W97434   4.314  27.964  11.079
30652W        W97435   5.655  22.048  13.161
30653W        W97436  18.604  28.496  12.503
30654W        W97437  31.809  43.384   4.357
30655W        W97438  41.805  27.400  12.772
30656W        W97439  22.693  39.335   4.607
30657W        W97440  26.512  12.840  10.594
30658W        W97441  41.130  10.668  14.847
30659W        W97442  41.010  35.548  12.499
30660W        W97443  17.737  20.638  14.464
30661W        W97444  19.111  12.600  13.046
30662W        W97445  29.571  43.488  10.955
30663W        W97446  14.164  44.788  10.986
30664W        W97447  25.901  17.117  11.907
30665W        W97448  26.602   1.677   3.791
30666W        W97449  26.971  19.145   4.308
30667W        W97450  17.742  41.805   2.799
30668W        W97451  41.323  11.303   0.312
30669W        W97452  26.948   4.124  11.930
30670W        W97453   1.687   3.868   1.290
30671W        W97454  32.148  15.137   0.825
30672W        W97455  14.720   2.170   1.267
30673W        W97456  12.300  42.803   1.636
30674W        W97457  31.138   8.181  14.835
30675W        W97458  13.367   9.331   4.460
30676W        W97459  26.934   7.825   0.956
30677W        W97460   1.505  11.402   4.371
30678W        W97461  26.563  34.956   1.468
30679W        W97462  23.007  14.564  11.120
30680W        W97463  23.636  30.663   3.872
30681W        W97464  21.554  39.292  11.925
30682W        W97465  43.894  43.813   3.106
30683W        W97466  24.492  23.468  13.936
30684W        W97467  22.951  40.573   0.263
30685W        W97468   1.518  18.565  14.774
30686W        W97469  22.039   4.369   0.520
30687W        W97470   1.295  23.248   2.183
30688W        W97471  44.110  32.135  10.667
30689W        W97472   9.660  40.659   3.027
30690W        W97473  32.598  44.570   0.487
30691W        W97474  11.782  29.239   1.924
30692W        W97475  33.387   1.989   1.770
30693W        W97476   7.832  21.362  14.084
30694W        W97477  32.375  10.292  11.053
30695W        W97478  37.746  13.216  11.054
30696W        W97479  11.647  10.670  10.547
30697W        W97480   1.967  29.564  13.731
30698W        W97481  28.961  16.231   4.632
30699W        W97482  40.942  34.022  13.959
30700W        W97483  27.378  43.869  12.420
30701W        W97484  13.628  22.550  10.763
30702W        W97485  34.680  34.360  12.019
30703W        W97486  27.153  40.473  12.088
30704W        W97487  25.754   2.257   3.697
30705W        W97488  38.979  34.993  11.860
30706W        W97489  17.075  12.734  13.966
30707W        W97490  19.503  24.675   0.301
30708W        W97491   9.665  12.605   1.897
30709W        W97492   7.360  24.223   2.394
30710W        W97493  34.979  31.613   0.744
30711W        W97494  38.459  27.962   2.055
30712W        W97495  37.097  17.050  11.513
30713W        W97496  27.188  10.885   0.791
30714W        W97497  11.230  26.648   3.713
30715W        W97498  10.221  13.311   4.501
30716W        W97499  26.115  14.257  10.577
30717W        W97500  39.466  18.675  13.958
30718W        W97501  27.173  22.095   2.882
30719W        W97502  31.409  39.803   3.246
30720W        W97503  36.565   5.753   4.976
30721W        W97504  41.834  38.019  13.487
30722W        W97505  35.084  35.304   3.860
30723W        W97506  41.150   7.052  11.029
30724W        W97507  16.733  33.053   0.956
30725W        W97508  29.061  29.884  13.107
30726W        W97509  33.867  11.139  14.796
30727W        W97510   8.988  19.743   4.708
30728W        W97511  24.027  32.888  12.533
30729W        W97512  26.890  42.549  12.536
30730W        W97513   3.243  12.097   4.274
30731W        W97514   9.258   9.666  10.456
30732W        W97515   9.125  15.773  14.394
30733W        W97516  34.412   9.242   4.247
30734W        W97517  41.393  19.803   3.464
30735W        W97518  12.641  42.853  11.780
30736W        W97519  13.187  21.831  12.220
30737W        W97520  44.244  36.267  12.118
30738W        W97521  25.273   3.984  10.757
30739W        W97522  17.132   8.043   1.720
30740W        W97523  12.502  20.763  11.612
30741W        W97524  33.607  10.301   3.725
30742W        W97525   4.749   4.004   2.142
30743W        W97526   3.690   3.461   4.834
30744W        W97527   8.935   2.608   3.330
30745W        W97528  15.819  42.368   0.072
30746W        W97529  20.799   4.097   0.074
30747W        W97530  21.467  16.194   3.879
30748W        W97531  14.788  23.657   1.873
30749W        W97532  35.374   3.014   1.728
30750W        W97533  24.275  19.537   2.803
30751W        W97534  37.934  36.871   2.726
30752W        W97535  17.293  20.726  11.562
30753W        W97536  21.924  12.840  10.622
30754W        W97537  15.639  31.397   0.641
30755W        W97538  13.594   9.491  11.801
30756W        W97539  36.270  16.314  12.873
30757W        W97540  26.006  18.119   1.401
30758W        W97541  18.503   5.787   1.409
30759W        W97542  15.664  22.608   0.442
30760W        W97543  28.659  35.171  11.010
30761W        W97544  27.043  14.230   3.714
30762W        W97545  29.706   7.487  14.341
30763W        W97546  16.124  16.546   4.014
30764W        W97547  40.352   2.700   4.787
30765W        W97548  41.122  20.518  11.941
30766W        W97549  27.108  34.011  13.017
30767W        W97550  44.202  10.641   0.868
30768W        W97551   2.425  12.086   2.829
30769W        W97552  25.459   7.328   4.304
30770W        W97553  14.655  25.654  12.339
30771W        W97554  15.561  31.470  10.536
30772W        W97555  13.541  39.442   3.230
30773W        W97556   6.949   1.946  14.698
30774W        W97557   3.776  10.597   0.024
30775W        W97558  27.033  13.664  13.722
30776W        W97559  16.640  12.239  11.049
30777W        W97560  37.040  10.413   4.883
30778W        W97561  44.720  28.740   1.703
30779W        W97562  42.095  34.941  11.946
30780W        W97563  32.636  28.031   4.641
30781W        W97564  36.956   2.749  13.042
30782W        W97565  35.998   4.790   1.240
30783W        W97566  17.532  27.624  13.421
30784W        W97567  14.075  28.724  13.744
30785W        W97568  10.004   7.858   2.118
30786W        W97569   5.849  38.860  12.865
30787W        W97570   8.466  11.590   2.544
30788W        W97571  34.506  13.552  11.270
30789W        W97572  33.728  22.178   3.604
30790W        W97573   2.344  43.133   5.371
30791W        W97574  10.735  12.818  14.097
30792W        W97575  23.587   3.949   0.748
30793W        W97576  20.481  43.880  14.950
30794W        W97577  28.886  34.693   2.341
30795W        W97578  40.857  11.384   2.205
30796W        W97579  26.334  19.327  12.890
30797W        W97580   6.837   7.957   1.261
30798W        W97581  18.290  13.162  10.568
30799W        W97582  18.917  14.147   2.431
30800W        W97583  41.128   7.620  10.290
30801W        W97584  28.483  39.969   4.504
30802W        W97585   6.063  21.060   9.950
30803W        W97586  31.470  10.356  10.672
30804W        W97587  10.337  16.250   4.456
30805W        W97588  15.171   5.089  11.199
30806W        W97589  24.436  22.695  12.077
30807W        W97590  18.507   7.244   0.810
30808W        W97591  22.884  39.576  12.492
30809W        W97592   1.783  41.511   2.467
30810W        W97593  10.456  41.149  12.120
30811W        W97594   1.901  38.730  13.941
30812W        W97595  16.108  43.546   3.381
30813W        W97596  39.541  12.071   0.792
30814W        W97597  34.653  41.471   0.843
30815W        W97598  16.653  38.504   4.303
30816W        W97599  21.321  31.480  12.956
30817W        W97600  40.519  15.183  12.433
30818W        W97601   5.155  44.185   1.858
30819W        W97602  35.468  43.048  14.072
30820W        W97603  17.324  13.621   0.520
30821W        W97604   0.395  35.195   3.929
30822W        W97605  43.213  13.423  11.864
30823W        W97606  17.363  11.271  12.193
30824W        W97607  37.595  40.581   4.249
30825W        W97608   0.130  22.130  11.579
30826W        W97609  10.821  14.079   2.351
30827W        W97610  13.270   0.562   1.449
30828W        W97611  21.375   9.289  10.781
30829W        W97612   4.515  44.571  12.287
30830W        W97613  39.886  32.279   0.945
30831W        W97614   5.288  40.853  13.792
30832W        W97615  11.292  36.134  12.563
30833W        W97616   9.585  17.742  14.919
30834W        W97617  26.478   9.188  10.371
30835W        W97618  29.498  30.002   4.033
30836W        W97619  21.187   5.845  13.106
30837W        W97620  21.661  26.720  14.177
30838W        W97621  10.078  37.837  13.040
30839W        W97622   3.443  33.571  12.026
30840W        W97623  18.790   3.627  12.369
30841W        W97624  10.879  35.897   3.770
30842W        W97625  19.196   0.159   4.696
30843W        W97626  41.940   3.352  12.505
30844W        W97627  32.681  33.513  11.681
30845W        W97628   8.920  14.093  14.531
30846W        W97629  23.209  23.621  12.471
30847W        W97630   5.133  37.804  14.823
30848W        W97631  34.532  40.527   3.565
30849W        W97632  12.875  26.713  14.816
30850W        W97633  41.297  18.156   4.964
30851W        W97634  19.731  28.432   4.122
30852W        W97635  40.284   1.397  12.876
30853W        W97636  28.183  22.609  11.178
30854W        W97637  42.877  20.770   0.995
30855W        W97638  32.180  31.552   0.939
30856W        W97639  28.702   9.212   1.407
30857W        W97640  30.631   5.402   3.360
30858W        W97641   2.749  18.652  11.033
30859W        W97642  11.801  27.130   4.377
30860W        W97643  33.597  43.309   1.883
30861W        W97644   7.837  24.324   0.275
30862W        W97645  12.708  39.559   4.404
30863W        W97646   0.262  27.712   4.565
30864W        W97647   1.288   1.219   2.280
30865W        W97648  40.350  36.080  10.255
30866W        W97649   9.388   4.404  10.684
30867W        W97650  17.082  36.254   2.337
30868W        W97651  27.907  11.360  12.474
30869W        W97652   7.688  19.210   3.537
30870W        W97653  39.448  10.073   0.146
30871W        W97654  16.143  33.654   2.356
30872W        W97655  39.882  30.488   4.151
30873W        W97656   9.297  37.996  11.454
30874W        W97657  14.426  40.028   5.034
30875W        W97658   7.656  36.978   2.220
30876W        W97659   3.973  31.665   2.384
30877W        W97660   3.246  20.292   0.900
30878W        W97661  14.161  10.716  13.438
30879W        W97662  36.972   6.971  12.148
30880W        W97663  16.113  35.877  12.501
30881W        W97664  11.393   2.276   1.618
30882W        W97665   5.049  31.158   5.213
30883W        W97666  44.597   3.231  14.338
30884W        W97667   9.593  43.354  14.408
30885W        W97668   2.162  39.135   4.197
30886W        W97669  32.847  38.329  11.489
30887W        W97670  39.844   6.123  11.193
30888W        W97671   0.028  21.019  11.014
30889W        W97672   4.805  42.266  12.019
30890W        W97673  15.216  30.004   1.190
30891W        W97674  37.399  29.850  13.585
30892W        W97675   4.722   0.646  11.512
30893W        W97676   9.966   4.950  14.336
30894W        W97677  39.468  23.228  13.824
30895W        W97678  14.525  18.739  14.250
30896W        W97679  29.202  17.128   3.124
30897W        W97680  29.035  31.755  11.587
30898W        W97681   4.468  36.353   3.639
30899W        W97682  26.538  14.611  11.695
30900W        W97683  22.405  14.927   0.381
30901W        W97684  17.216  17.641  12.557
30902W        W97685   7.153  27.094   2.407
30903W        W97686  31.127  16.135  12.653
30904W        W97687   6.443  14.918   2.456
30905W        W97688  38.370  26.579  11.453
30906W        W97689  10.771  18.050  10.338
30907W        W97690  26.577   5.655   1.436
30908W        W97691  11.253   7.407   0.831
30909W        W97692  18.650  10.774  12.188
30910W        W97693  21.619  42.897  11.385
30911W        W97694  20.699  44.373   2.693
30912W        W97695  26.300  24.869   9.727
30913W        W97696   6.630  26.347   4.940
30914W        W97697  10.419  32.069  13.088
30915W        W97698  22.275  16.658   4.330
30916W        W97699  37.055  21.533   2.776
30917W        W97700  11.571   9.944   0.874
30918W        W97701  29.489  11.482  10.636
30919W        W97702  29.157  13.221  13.560
30920W        W97703  18.759  43.052  12.848
30921W        W97704   2.909  14.605   0.416
30922W        W97705  21.120  24.928  13.310
30923W        W97706  37.272  16.113   4.489
30924W        W97707  38.902  37.591  12.522
30925W        W97708   8.629  22.783  12.492
30926W        W97709   1.746  27.228   0.907
30927W        W97710   8.099  12.256   1.213
30928W        W97711  43.191  10.217   4.623
30929W        W97712   8.484   0.781  12.125
30930W        W97713  16.931  25.882   1.016
30931W        W97714  20.946  26.602  11.141
30932W        W97715  39.009  43.515  12.545
30933W        W97716   0.458  13.697  13.678
30934W        W97717  35.533   8.205   4.803
30935W        W97718  24.237  28.840  13.971
30936W        W97719  42.341  34.575  12.198
30937W        W97720   0.930  10.894  14.457
30938W        W97721  16.594  44.822  10.729
30939W        W97722   4.669  29.969  12.990
30940W        W97723  38.928  21.508  10.976
30941W        W97724  22.193  29.741  11.876
30942W        W97725  24.514  11.570   1.279
30943W        W97726  42.993   6.319   2.245
30944W        W97727   2.431  40.263  14.292
30945W        W97728  33.848  43.435  14.515
30946W        W97729  15.178  30.474   1.476
30947W        W97730  44.970  34.718   2.889
30948W        W97731   9.007   8.770   0.950
30949W        W97732  34.434  44.908   1.930
30950W        W97733   6.361  31.641   0.944
30951W        W97734   8.676  17.233  11.661
30952W        W97735  22.542  22.696  10.250
30953W        W97736  42.356   7.216  14.860
30954W        W97737  30.869  39.287  11.160
30955W        W97738   3.301   3.728   1.366
30956W        W97739   4.910  16.119  11.523
30957W        W97740  32.786  24.614  10.242
30958W        W97741   8.418  40.930   2.995
30959W        W97742  29.234  21.140  13.293
30960W        W97743  21.603  33.340  14.014
30961W        W97744   1.945  36.594  11.947
30962W        W97745  24.991  21.117   0.598
30963W        W97746   3.509   9.410   3.097
30964W        W97747  34.038  21.339  10.420
30965W        W97748  41.858  11.883  14.834
30966W        W97749   1.392  43.226   1.991
30967W        W97750  29.594  14.568  14.110
30968W        W97751  13.598  11.557  11.301
30969W        W97752  27.565  36.446   4.321
30970W        W97753  27.273  17.601   1.260
30971W        W97754   9.746  28.972  14.471
30972W        W97755  40.401  13.824   0.853
30973W        W97756  20.648  29.741  13.585
30974W        W97757  35.823   7.168   2.265
30975W        W97758  22.387   0.296  11.898
30976W        W97759  14.239  17.957   3.609
30977W        W97760  28.821  18.545  14.753
30978W        W97761  38.051  31.212   4.157
30979W        W97762  44.339   9.667  14.991
30980W        W97763  35.912   6.728   3.175
30981W        W97764  13.883  42.886  11.601
30982W        W97765  38.622  23.557  12.540
30983W        W97766  31.151  24.104  13.465
30984W        W97767  24.800  13.764  12.114
30985W        W97768  17.704  23.768  11.151
30986W        W97769  18.702  41.003  12.509
30987W        W97770  27.603  27.416  10.669
30988W        W97771  28.832  42.315  14.969
30989W        W97772  41.041  18.689   2.348
30990W        W97773  34.321   9.901  13.757
30991W        W97774  33.869  18.340  14.910
30992W        W97775  25.275  20.566  13.028
30993W        W97776  24.810  22.245   4.117
30994W        W97777  18.024   5.915   2.871
30995W        W97778   2.863  12.893   2.852
30996W        W97779  40.679  33.083  14.844
30997W        W97780   4.655  34.243  10.946
30998W        W97781  13.342  22.940  11.028
30999W        W97782   7.213  43.518  11.006
31000W        W97783  28.622  12.278   2.392
31001W        W97784   8.766  43.553  11.167
31002W        W97785   9.029  37.939  13.867
31003W        W97786   6.388  22.668   0.013
31004W        W97787   7.154   6.941   3.785
31005W        W97788  22.522  39.615   0.722
31006W        W97789  16.081  22.257   2.026
31007W        W97790  27.350  42.654   3.210
31008W        W97791  25.429   4.183  13.059
31009W        W97792   0.515  10.288  13.959
31010W        W97793   1.224  31.937   3.675
31011W        W97794  37.474  24.785  12.881
31012W        W97795  36.389  12.875   0.379
31013W        W97796  25.435  20.469  11.654
31014W        W97797  40.875  29.976  12.546
31015W        W97798  28.638  12.533   1.030
31016W        W97799  38.856  21.124  12.453
31017W        W97800  34.554  15.791  12.055
31018W        W97801   4.299  38.022  13.087
31019W        W97802  41.982  35.227  11.487
31020W        W97803   2.439  25.001   4.635
31021W        W97804  43.482  40.938   2.893
31022W        W97805  12.640   6.867  13.255
31023W        W97806  43.808  10.632  11.402
31024W        W97807  24.057   5.835  11.028
31025W        W97808  42.476  25.631   0.743
31026W        W97809  26.838  12.261  12.016
31027W        W97810  35.575   9.359  14.891
31028W        W97811  27.225  12.384  12.989
31029W        W97812  44.682  27.936  14.755
31030W        W97813   9.870   0.895   2.799
31031W        W97814  40.800  42.508  11.101
31032W        W97815  24.296   4.394  14.762
31033W        W97816  34.606  40.480   5.101
31034W        W97817  42.532  33.437  12.429
31035W        W97818  15.770  35.360   3.287
31036W        W97819  14.407  29.542   5.012
31037W        W97820  34.969   8.288  12.902
31038W        W97821  20.853  37.604  11.176
31039W        W97822  13.295  12.320   1.037
31040W        W97823  41.510  33.390  12.126
31041W        W97824  14.190  38.785   2.882
31042W        W97825   3.288  20.453   5.122
31043W        W97826  14.613  24.681  11.197
31044W        W97827  30.452  13.780   1.034
31045W        W97828   4.558   9.440   5.111
31046W        W97829  33.981   7.371   0.482
31047W        W97830   1.213  41.847  14.423
31048W        W97831   8.026  20.658  14.999
31049W        W97832  39.989  22.412  12.337
31050W        W97833  18.677  17.337   9.884
31051W        W97834  39.943   3.790  11.434
31052W        W97835  41.875  27.606   3.642
31053W        W97836   2.765   6.775   1.408
31054W        W97837  42.702  23.645   2.976
31055W        W97838  17.773   0.421   0.847
31056W        W97839  27.714  21.616  12.612
31057W        W97840   3.262   5.557   0.801
31058W        W97841  23.592   0.309   1.421
31059W        W97842  21.487   1.815  13.959
31060W        W97843   8.562  11.387   1.408
31061W        W97844  27.499   3.321   4.031
31062W        W97845  31.916   0.464  11.485
31063W        W97846  42.024  17.195  12.319
31064W        W97847  28.440  33.344  10.493
31065W        W97848  31.482  32.915   0.985
31066W        W97849  30.079  41.319  11.959
31067W        W97850  35.788   8.461   2.333
31068W        W97851   4.184  28.668  12.595
31069W        W97852   9.480   4.481  11.575
31070W        W97853  35.401   7.880  12.078
31071W        W97854  32.208   5.467  13.080
31072W        W97855   0.652  28.629  14.416
31073W        W97856  28.118  33.511   0.261
31074W        W97857   2.060  28.025   1.966
31075W        W97858  44.010  26.725  12.989
31076W        W97859   9.888   6.738  14.352
31077W        W97860  43.341   3.557  12.525
31078W        W97861  42.489  16.392   3.120
31079W        W97862  10.664  14.893   1.916
31080W        W97863   5.300  32.499   4.849
31081W        W97864  18.856  26.928   0.259
31082W        W97865  21.618   9.466  11.196
31083W        W97866  17.067  25.137  12.052
31084W        W97867  22.952  15.879   1.763
31085W        W97868   9.323  18.828  12.793
31086W        W97869   1.059  19.492  12.697
31087W        W97870   3.000  44.905   2.194
31088W        W97871  41.087  21.762   2.267
31089W        W97872  23.055  12.600   2.646
31090W        W97873  10.970  23.111   1.166
31091W        W97874  16.619  26.575   1.722
31092W        W97875  34.535  14.883  12.910
31093W        W97876  33.616  24.571  11.158
31094W        W97877  28.366  13.217   3.978
31095W        W97878  27.055  15.162  12.010
31096W        W97879  25.606  22.638   2.787
31097W        W97880  27.690  38.908   2.309
31098W        W97881  23.676  18.193  10.661
31099W        W97882  38.541   9.153  12.797
31100W        W97883   6.431  14.074   0.424
31101W        W97884  18.521  30.191   2.256
31102W        W97885   6.635   1.226   4.609
31103W        W97886  35.913   8.387  14.962
31104W        W97887  10.984  21.766  11.461
31105W        W97888   4.541  20.961   3.956
31106W        W97889  24.789  33.146   2.789
31107W        W97890   4.469  34.046   3.309
31108W        W97891   8.875  16.304   0.630
31109W        W97892  33.331  15.627  14.305
31110W        W97893  22.077   8.888  10.730
31111W        W97894   7.404  17.355   2.183
31112W        W97895  30.622  20.968   5.425
31113W        W97896  37.644  18.636   4.482
31114W        W97897  27.563  18.725   0.875
31115W        W97898  37.455   6.936   9.532
31116W        W97899  30.068  30.193  10.798
31117W        W97900  35.977  40.585  14.336
31118W        W97901  34.658  34.422   1.790
31119W        W97902  12.164   5.781   0.538
31120W        W97903  17.394  23.504   3.243
31121W        W97904  27.549  17.060   4.615
31122W        W97905  28.592  35.097  14.415
31123W        W97906   7.348  34.931   3.808
31124W        W97907  24.125   7.361  10.770
31125W        W97908  18.545  26.752  11.915
31126W        W97909  29.232  23.125   2.809
31127W        W97910  35.639  20.577   3.735
31128W        W97911  10.646  38.197  10.326
31129W        W97912   8.871  11.826   4.566
31130W        W97913   0.743  36.199   4.281
31131W        W97914  40.096  36.535   0.050
31132W        W97915  39.485  36.867  14.402
31133W        W97916  33.297  38.104  13.787
31134W        W97917  15.475   3.288  10.212
31135W        W97918  41.081  25.174  14.524
31136W        W97919  24.524   9.195  11.143
31137W        W97920   9.614   5.231  11.936
31138W        W97921   9.242   6.728  14.937
31139W        W97922  17.864  18.618   4.537
31140W        W97923  31.991  44.064  12.127
31141W        W97924  19.239   6.594   4.144
31142W        W97925  25.692  11.549  13.746
31143W        W97926  20.285  29.014  12.515
31144W        W97927  13.145   4.300  13.584
31145W        W97928  32.569  14.582   0.256
31146W        W97929   6.200   9.350  11.120
31147W        W97930  35.957   6.177   0.502
31148W        W97931  31.869  30.896   1.436
31149W        W97932   1.363  10.002   2.799
31150W        W97933  10.203  28.549   1.307
31151W        W97934  35.865  19.267   1.528
31152W        W97935  10.884  20.594  13.996
31153W        W97936  42.504  35.387   0.901
31154W        W97937  41.395  15.791   4.836
31155W        W97938  12.396  37.862  12.011
31156W        W97939   6.370   5.187  12.441
31157W        W97940   1.035  20.580  14.460
31158W        W97941  36.781  20.124  12.515
31159W        W97942  25.451  38.139  13.409
31160W        W97943  12.042  21.005  10.060
31161W        W97944  24.743  41.957   2.113
31162W        W97945  42.335  17.671  13.737
31163W        W97946  21.682   6.703  11.254
31164W        W97947  12.817  16.130   0.811
31165W        W97948  35.972  16.868  13.471
31166W        W97949  11.231   4.813  11.860
31167W        W97950   8.261  16.955   0.335
31168W        W97951  15.951  31.069  10.706
31169W        W97952  33.898  12.376   2.253
31170W        W97953  18.797  26.596   3.775
31171W        W97954  21.050   3.456   3.658
31172W        W97955  32.585  28.522   3.674
31173W        W97956   0.389  38.351  13.897
31174W        W97957  31.711  25.141  14.851
31175W        W97958  11.993  21.394   1.317
31176W        W97959   8.709  25.381   2.704
31177W        W97960  14.025  28.485  11.900
31178W        W97961   2.906   9.955  14.923
31179W        W97962   2.713  37.953   4.281
31180W        W97963  38.365  17.385   1.733
31181W        W97964  12.088   1.347  10.989
31182W        W97965   9.846  32.746   4.119
31183W        W97966  17.315   8.219  14.906
31184W        W97967  17.630  40.463   0.244
31185W        W97968  30.383   2.346   4.626
31186W        W97969  40.653  28.617   3.509
31187W        W97970  44.974  32.692   1.409
31188W        W97971  36.131  20.125   1.671
31189W        W97972  19.613  32.364  12.012
31190W        W97973  39.021  37.392  12.991
31191W        W97974  20.178  10.300  10.703
31192W        W97975  23.469  12.604  14.490
31193W        W97976  17.863  16.840   1.479
31194W        W97977  10.803  14.396   1.811
31195W        W97978  22.088  24.639   4.266
31196W        W97979  12.816  24.644  10.652
31197W        W97980  14.905  18.298  10.327
31198W        W97981  33.135  26.242  11.616
31199W        W97982  30.205  21.074   0.289
31200W        W97983  32.969  38.901  13.408
31201W        W97984  38.856  18.025   4.113
31202W        W97985  30.436   5.887   0.836
31203W        W97986   5.323  21.404  12.051
31204W        W97987  33.420  11.633  13.755
31205W        W97988  18.302  14.281  13.487
31206W        W97989  39.288  15.154  13.516
31207W        W97990   1.313  41.581  14.868
31208W        W97991   8.331  20.781   0.830
31209W        W97992  28.156  37.863  12.113
31210W        W97993  23.662  43.056   4.480
31211W        W97994  40.980  23.657   1.226
31212W        W97995  17.311   4.861  11.944
31213W        W97996  14.360  18.702   0.402
31214W        W97997  39.627  10.596   4.226
31215W        W97998   6.698   9.558  11.094
31216W        W97999  15.631  13.359   2.693
31217W        W98000  36.188  25.897   2.098
31218W        W98001   3.673  19.664   2.235
31219W        W98002  14.723  41.640  12.514
31220W        W98003  39.834  28.497  13.314
31221W        W98004  36.509  18.663   4.727
31222W        W98005  12.162  16.792   4.433
31223W        W98006  32.396   0.692  12.617
31224W        W98007  23.170  20.736  10.975
31225W        W98008  21.180  44.342   4.967
31226W        W98009   0.033  14.399   3.184
31227W        W98010  14.007  21.723  10.810
31228W        W98011  41.473  15.175   1.769
31229W        W98012  14.815   1.747   0.286
31230W        W98013  41.863   9.086   1.180
31231W        W98014  30.434  23.007   1.526
31232W        W98015  41.882  29.453  12.961
31233W        W98016  27.515  32.773  13.840
31234W        W98017  31.451  33.042  11.756
31235W        W98018  13.675  29.825   4.655
31236W        W98019  15.140  32.274   3.674
31237W        W98020   1.006  10.451   4.875
31238W        W98021   0.978  30.868  13.952
31239W        W98022  37.080  37.070   0.810
31240W        W98023  32.258  35.806  14.015
31241W        W98024  21.080   1.979  13.116
31242W        W98025  34.589  36.178   0.967
31243W        W98026   0.301  39.142  13.522
31244W        W98027  15.726   8.926  10.149
31245W        W98028   4.862  39.507  10.784
31246W        W98029  25.962  39.297   5.027
31247W        W98030  16.828  42.523   2.211
31248W        W98031  36.750   1.910   2.328
31249W        W98032   8.670  39.258  10.719
31250W        W98033   2.008  21.540   4.664
31251W        W98034  44.862  27.034   3.237
31252W        W98035   1.569  13.549   4.301
31253W        W98036  30.991   5.760   1.706
31254W        W98037  19.346  12.085   3.929
31255W        W98038   5.393   3.745  10.726
31256W        W98039  42.749  31.519   3.663
31257W        W98040  41.336  20.503   1.400
31258W        W98041  22.664  44.893   0.826
31259W        W98042  19.535   5.486  12.304
31260W        W98043   3.299  44.766  13.744
31261W        W98044  16.777  20.682   4.113
31262W        W98045  39.840  20.118  13.884
31263W        W98046  23.455  32.585   1.699
31264W        W98047  42.112  29.152  10.774
31265W        W98048  31.583  37.538   5.116
31266W        W98049  38.383   9.247  11.281
31267W        W98050  23.743  32.202  12.078
31268W        W98051  32.504  36.619   2.694
31269W        W98052   8.657  10.665   1.691
31270W        W98053  43.969  26.029  12.404
31271W        W98054  29.463  32.221  13.844
31272W        W98055   4.720  26.758  12.509
31273W        W98056  44.545  16.003   2.104
31274W        W98057  20.687  40.885   1.261
31275W        W98058  27.135  31.975   3.894
31276W        W98059  11.918  37.151   1.275
31277W        W98060  28.874   2.316   2.730
31278W        W98061  42.807  35.859   0.752
31279W        W98062  35.873  30.378   3.575
31280W        W98063  14.456  26.220   4.142
31281W        W98064   8.468   8.328  11.304
31282W        W98065  33.057  33.607   4.691
31283W        W98066  37.552   6.185   1.664
31284W        W98067  39.368  27.936   2.295
31285W        W98068   3.147  33.987  11.982
31286W        W98069  28.403  41.496   3.755
31287W        W98070  19.233   1.634  12.043
31288W        W98071   5.438  25.479  11.628
31289W        W98072  38.810  19.987  11.408
31290W        W98073   0.720  13.306  12.044
31291W        W98074  35.595  33.767  13.074
31292W        W98075  28.481   4.320  14.993
31293W        W98076   6.148  13.363   3.420
31294W        W98077  27.540  21.192  13.601
31295W        W98078  44.506  11.946   0.751
31296W        W98079  23.075  11.802   4.348
31297W        W98080  21.101   3.951   4.560
31298W        W98081   3.683  17.946  14.521
31299W        W98082  35.287  43.585  11.053
31300W        W98083  34.646   0.739  12.057
31301W        W98084  26.537  27.757   0.997
31302W        W98085   4.065  11.717  10.768
31303W        W98086  44.736  25.576  12.226
31304W        W98087  40.086  39.247  11.812
31305W        W98088  15.370  34.988   3.581
31306W        W98089  23.454  11.761  12.632
31307W        W98090   3.470  44.726  14.719
31308W        W98091  22.924  20.102   4.534
31309W        W98092   5.179  22.126  13.353
31310W        W98093  10.900  43.893  13.384
31311W        W98094  41.337   8.285   0.252
31312W        W98095  38.164   1.451   2.255
31313W        W98096  28.604   5.761  11.147
31314W        W98097  32.668  39.275  13.586
31315W        W98098  35.941  16.322   3.702
31316W        W98099  31.809  16.571   1.019
31317W        W98100  12.531  36.600   0.429
31318W        W98101  31.758  33.642  13.874
31319W        W98102  14.286  29.021   0.841
31320W        W98103  39.290  11.312   4.212
31321W        W98104  19.705  10.691  13.380
31322W        W98105  13.205   0.491   0.223
31323W        W98106  44.936  23.038   1.099
31324W        W98107  25.965  31.428   2.679
31325W        W98108  33.898   4.692  14.944
31326W        W98109  27.038  32.148  13.357
31327W        W98110  20.488  37.866  12.237
31328W        W98111  29.413  13.874   2.413
31329W        W98112  41.863  16.163   0.272
31330W        W98113  10.144  19.353   2.803
31331W        W98114  27.061   6.282  12.524
31332W        W98115   7.760  10.873  12.431
31333W        W98116  42.849  33.607  11.632
31334W        W98117  28.462   8.895   0.670
31335W        W98118  15.952  23.189  12.454
31336W        W98119  12.322  44.818   4.486
31337W        W98120   9.896  41.467  13.619
31338W        W98121  17.152  42.787  13.430
31339W        W98122  38.685  41.593   0.703
31340W        W98123   7.837  12.266  12.085
31341W        W98124  28.176  39.203   1.437
31342W        W98125  43.209  44.361   4.741
31343W        W98126  22.332   7.505  12.758
31344W        W98127  32.883  27.568  11.547
31345W        W98128   6.285  15.842   2.192
31346W        W98129  25.230  13.433  12.877
31347W        W98130   7.188  38.835   0.810
31348W        W98131  11.659  41.917  11.281
31349W        W98132  42.722  34.306  13.888
31350W        W98133   5.433   9.845   0.861
31351W        W98134  19.724  20.221   5.031
31352W        W98135   6.649   0.066  12.556
31353W        W98136  40.062  21.803  12.894
31354W        W98137  24.503  43.561   1.247
31355W        W98138   8.543  17.938   1.763
31356W        W98139   7.173  11.804   2.112
31357W        W98140   1.375  32.532  11.498
31358W        W98141  30.192   6.879   0.417
31359W        W98142  36.888   9.400  10.651
31360W        W98143  24.461  15.704   1.309
31361W        W98144  38.001  38.347  11.866
31362W        W98145  42.654   3.271  11.971
31363W        W98146   1.909  33.910  14.721
31364W        W98147  19.599  28.192  14.033
31365W        W98148  23.592  33.181  12.365
31366W        W98149  23.542   8.637   2.511
31367W        W98150  22.557  31.532  11.817
31368W        W98151  37.805  20.917  13.562
31369W        W98152  33.002   6.409  12.721
31370W        W98153  15.441  36.139  14.011
31371W        W98154  38.624   1.802  12.953
31372W        W98155  37.781  22.607  14.309
31373W        W98156  10.811  10.169   4.913
31374W        W98157  18.070  27.613  13.380
31375W        W98158  26.603   1.407  11.642
31376W        W98159  43.298  37.452   2.156
31377W        W98160  22.144  29.994  14.910
31378W        W98161  21.553  29.040  12.093
31379W        W98162  40.673  12.903  14.021
31380W        W98163  22.919   9.904   4.213
31381W        W98164  28.203   3.218   3.188
31382W        W98165   1.411  23.716   0.484
31383W        W98166  26.174  39.327   1.286
31384W        W98167  11.835  13.929  13.497
31385W        W98168   0.812  17.471  11.719
31386W        W98169  12.643  38.837  11.951
31387W        W98170   2.516  20.742   0.292
31388W        W98171  31.448  19.527  12.146
31389W        W98172  40.803  33.450  11.476
31390W        W98173  37.351  20.976  14.542
31391W        W98174  27.367  43.183  12.815
31392W        W98175   6.717  18.020   4.596
31393W        W98176  35.973  11.438   4.756
31394W        W98177  12.222  18.496  11.656
31395W        W98178  24.879   8.957   0.284
31396W        W98179   2.028  32.448   1.245
31397W        W98180  30.204   2.956  11.003
31398W        W98181  25.835   9.907   2.847
31399W        W98182   2.092  34.688   1.848
31400W        W98183  25.013  22.315  12.570
31401W        W98184  36.528   9.764   4.125
31402W        W98185  27.058  39.846   0.677
31403W        W98186  43.037  34.791  11.072
31404W        W98187   0.736  17.294   3.660
31405W        W98188  29.042  40.902   1.160
31406W        W98189  12.312  21.352   3.223
31407W        W98190  32.855  23.410  14.333
31408W        W98191  44.963   2.466  13.887
31409W        W98192   0.757  22.092   1.845
31410W        W98193  22.711  33.872  14.242
31411W        W98194   8.710  21.252  14.523
31412W        W98195   0.276  35.364  12.426
31413W        W98196  18.021  42.570  11.765
31414W        W98197  15.809  15.203   2.955
31415W        W98198   9.712  43.851  13.404
31416W        W98199  16.176  13.859   3.337
31417W        W98200  26.347  35.104   4.170
31418W        W98201  20.091   1.322  14.516
31419W        W98202  12.571  11.880  11.372
31420W        W98203  28.530  23.782   4.413
31421W        W98204  23.688   4.650   4.544
31422W        W98205   6.200   6.206   3.173
31423W        W98206  42.054  40.984  14.323
31424W        W98207  44.451   2.213  13.991
31425W        W98208  33.034  12.187   2.611
31426W        W98209  14.261  13.569  11.543
31427W        W98210  21.260   9.844   3.137
31428W        W98211  35.558   8.607   1.288
31429W        W98212  27.426  21.112   2.073
31430W        W98213   8.802  13.327   3.835
31431W        W98214  30.618  33.559   1.903
31432W        W98215  16.330  37.373   1.918
31433W        W98216   5.838  40.979  13.711
31434W        W98217   8.917   2.660   4.398
31435W        W98218   4.156  38.987  11.131
31436W        W98219  11.780  22.744   0.148
31437W        W98220  30.502  34.057   0.224
31438W        W98221  32.273   6.161  13.775
31439W        W98222  24.985  35.269  14.313
31440W        W98223  44.237  44.461   2.984
31441W        W98224  15.174  17.472  14.080
31442W        W98225  33.949  25.878   2.262
31443W        W98226  25.574  44.500  10.533
31444W        W98227  36.943  42.082  10.624
31445W        W98228  25.750  26.429   9.585
31446W        W98229  19.236  43.302   2.159
31447W        W98230  27.651   9.221  14.383
31448W        W98231  15.842  22.641   3.535
31449W        W98232  20.863  41.500  11.076
31450W        W98233  32.232  12.646   5.131
31451W        W98234  40.627  39.361  13.418
31452W        W98235  18.762  27.141   0.744
31453W        W98236  19.627  39.197   2.668
31454W        W98237  29.033   3.897   4.576
31455W        W98238   4.034  15.855  12.143
31456W        W98239  12.285  11.598   3.217
31457W        W98240   2.705  24.783   3.422
31458W        W98241  25.754   4.253  11.530
31459W        W98242  20.152  17.680   0.097
31460W        W98243  41.603  25.914   2.241
31461W        W98244  26.539  38.445  10.593
31462W        W98245  12.607  44.253  11.825
31463W        W98246  24.045  33.928   2.661
31464W        W98247  18.642  11.654  10.742
31465W        W98248  43.099   6.060  11.526
31466W        W98249  13.306  33.378   3.293
31467W        W98250  42.697  14.535  10.833
31468W        W98251  27.090  33.394  14.511
31469W        W98252  25.923  34.368   3.569
31470W        W98253   0.952  44.874  12.089
31471W        W98254  13.064  22.223   2.723
31472W        W98255  21.764  18.589  12.484
31473W        W98256  34.115  24.630   0.966
31474W        W98257  17.229   4.715   1.314
31475W        W98258   9.227   3.713   3.774
31476W        W98259  24.133  10.346  14.038
31477W        W98260   9.244  12.725  10.586
31478W        W98261  41.604  26.793  13.007
31479W        W98262  15.347  40.102   1.879
31480W        W98263  36.338  37.931   1.239
31481W        W98264  36.597  28.550  12.484
31482W        W98265  23.615  10.830  11.645
31483W        W98266  37.948  38.540  13.274
31484W        W98267  25.497  32.121   2.305
31485W        W98268  10.272  19.320  11.549
31486W        W98269  39.097  34.899   9.991
31487W        W98270  32.394   0.899  10.261
31488W        W98271  30.854   0.779  12.015
31489W        W98272  35.668  21.541   4.586
31490W        W98273   3.160   7.775   3.588
31491W        W98274   3.915  39.846   1.664
31492W        W98275  11.844  33.518   3.992
31493W        W98276  18.089  36.366  10.863
31494W        W98277  34.836  30.889   4.596
31495W        W98278  16.684  22.139  14.910
31496W        W98279  32.435   8.309  14.319
31497W        W98280  32.195  10.105  14.815
31498W        W98281  29.462  31.955  11.458
31499W        W98282   3.903  17.041  10.270
31500W        W98283   2.805  37.835   2.934
31501W        W98284  27.313   3.754  14.585
31502W        W98285  31.997  44.570  13.448
31503W        W98286  29.148   9.466  11.510
31504W        W98287  29.336  34.483  14.403
31505W        W98288  23.654   7.175   0.817
31506W        W98289  22.116  11.986   0.926
31507W        W98290  26.047  22.780  11.238
31508W        W98291  21.509  18.201   4.154
31509W        W98292  43.868  43.809   0.335
31510W        W98293  30.354  39.028  13.071
31511W        W98294   1.789  38.264  12.975
31512W        W98295  14.179  17.709   2.104
31513W        W98296  30.944  44.883  14.855
31514W        W98297  23.322  18.115   4.504
31515W        W98298   7.370   6.191   2.084
31516W        W98299  15.623  20.077  10.644
31517W        W98300  31.237  15.098   4.684
31518W        W98301  11.578  18.232  10.943
31519W        W98302  33.694  31.382   4.435
31520W        W98303   2.534  11.742   0.874
31521W        W98304  17.617  39.818   2.750
31522W        W98305  42.875  37.768   0.265
31523W        W98306  18.177  42.848   3.240
31524W        W98307  41.537  32.363   0.314
31525W        W98308   2.156  24.771   1.159
31526W        W98309   0.473  16.053  11.521
31527W        W98310  34.374   6.328  11.916
31528W        W98311  32.408  36.561  11.229
31529W        W98312   6.250  13.719   1.796
31530W        W98313   1.979  10.295  13.888
31531W        W98314  18.587   3.037   4.481
31532W        W98315  40.542  12.776  12.380
31533W        W98316  14.333  27.122   1.723
31534W        W98317  41.006  19.793   1.772
31535W        W98318   4.998  27.170   4.350
31536W        W98319  25.517  42.103  13.916
31537W        W98320  33.495  19.065  12.235
31538W        W98321   0.741  19.106   0.328
31539W        W98322  44.820   4.993  11.499
31540W        W98323  24.428  44.985  14.000
31541W        W98324  26.638  41.583  11.677
31542W        W98325  37.495  33.517  10.655
31543W        W98326  13.218  26.967  12.278
31544W        W98327   0.932  11.796   1.425
31545W        W98328  22.180  15.205   2.157
31546W        W98329  15.618  17.633   0.773
31547W        W98330  10.724  37.632  11.643
31548W        W98331   5.968  27.455  14.224
31549W        W98332  30.994  43.839  12.053
31550W        W98333  12.141   8.806   3.357
31551W        W98334  31.569   4.559  14.585
31552W        W98335  42.796  36.492   3.254
31553W        W98336  14.259  22.266  12.927
31554W        W98337  44.270  18.396  11.351
31555W        W98338  34.068  23.027   5.026
31556W        W98339  28.569  41.940  14.457
31557W        W98340  27.940  10.787   0.459
31558W        W98341  41.323  10.852  10.612
31559W        W98342   7.299  22.225   2.729
31560W        W98343  43.281   3.262  13.970
31561W        W98344  36.078   5.331  14.393
31562W        W98345  26.953  24.005   4.560
31563W        W98346  31.404   9.705   4.612
31564W        W98347  20.102   0.695   0.016
31565W        W98348  34.036   7.743   1.141
31566W        W98349  31.547  17.617  14.395
31567W        W98350  16.021  26.982   2.451
31568W        W98351  37.387   3.633   5.029
31569W        W98352   9.537  18.302  11.910
31570W        W98353  25.044  15.878  11.500
31571W        W98354  38.075  40.153   3.064
31572W        W98355  14.873  41.357  13.934
31573W        W98356  36.834  16.274   4.173
31574W        W98357  44.931  42.368  11.527
31575W        W98358  30.151  28.312  13.967
31576W        W98359  35.962  42.492   0.477
31577W        W98360  37.479  21.329   3.586
31578W        W98361  37.162  37.815  13.868
31579W        W98362  36.055  19.367   3.209
31580W        W98363   9.432  38.249   2.270
31581W        W98364  43.053  32.406  11.961
31582W        W98365  32.056  34.610  14.807
31583W        W98366  16.736  33.353  13.552
31584W        W98367  39.497   5.305  14.265
31585W        W98368  25.519  34.415  11.101
31586W        W98369   5.713   7.911  14.966
31587W        W98370   7.368  36.951  10.797
31588W        W98371   6.525  32.812  13.552
31589W        W98372  29.352  19.616   0.340
31590W        W98373  10.230   6.913   2.388
31591W        W98374   8.634   6.209   2.690
31592W        W98375  34.997  43.488   2.831
31593W        W98376  30.827   4.881   5.030
31594W        W98377  13.456   1.025  10.259
31595W        W98378  31.390  24.045  11.524
31596W        W98379  43.350  20.134  14.417
31597W        W98380  28.346  37.095   2.982
31598W        W98381  12.286  32.450  14.423
31599W        W98382  30.679   6.227  10.753
31600W        W98383   4.773  20.108  10.636
31601W        W98384  26.777  18.846   5.044
31602W        W98385   3.254  30.291   2.317
31603W        W98386   1.587   7.794   0.454
31604W        W98387   9.072  23.993  12.947
31605W        W98388   8.621  11.698  12.914
31606W        W98389  13.617  37.041   1.964
31607W        W98390  29.204   9.062   1.466
31608W        W98391  14.159   5.810  12.348
31609W        W98392   8.428  16.083   0.387
31610W        W98393  21.073  44.188  13.117
31611W        W98394  23.515   0.730  12.142
31612W        W98395  15.725   4.399   3.668
31613W        W98396  42.044   6.135   0.697
31614W        W98397  29.587  24.489  11.868
31615W        W98398   9.677  12.484  12.474
31616W        W98399  33.849  25.212  11.202
31617W        W98400  20.688  20.291   2.452
31618W        W98401  38.791  35.977   4.189
31619W        W98402   6.037  11.250  11.337
31620W        W98403  39.033  21.643  12.249
31621W        W98404  20.121  24.668   4.843
31622W        W98405  11.603   8.198  14.774
31623W        W98406  21.041   6.684  10.648
31624W        W98407  15.217  43.600  10.337
31625W        W98408  17.392  13.127  13.736
31626W        W98409   8.759  26.165  13.532
31627W        W98410  25.886  33.919   0.356
31628W        W98411  17.490  36.786  10.013
31629W        W98412   2.784  40.720  14.806
31630W        W98413  18.067  36.838   1.443
31631W        W98414   2.750  22.527   3.697
31632W        W98415  41.393  20.214   4.746
31633W        W98416   7.624  33.104   4.603
31634W        W98417  37.581   3.972   1.462
31635W        W98418  40.400  19.041  14.593
31636W        W98419   6.423  44.305   3.257
31637W        W98420  16.633  43.269  13.935
31638W        W98421   1.244  17.695   2.790
31639W        W98422  32.516  31.352  12.866
31640W        W98423  29.184  38.499   9.790
31641W        W98424  19.913  10.741   1.388
31642W        W98425  37.853  33.493   1.327
31643W        W98426   7.610  18.116  13.323
31644W        W98427  14.257   2.253  14.960
31645W        W98428   9.743   0.850  11.041
31646W        W98429  16.214  13.512  14.997
31647W        W98430  36.345  10.717   4.381
31648W        W98431  40.314  43.039   5.055
31649W        W98432  39.636   4.172   3.651
31650W        W98433   8.820  13.013  12.875
31651W        W98434   1.903  25.734  11.618
31652W        W98435   8.688  20.174   3.112
31653W        W98436  18.187  29.146  14.405
31654W        W98437  35.787   1.488  11.585
31655W        W98438  41.734   8.841  14.522
31656W        W98439  30.396  43.473  13.046
31657W        W98440  22.578  24.718   4.053
31658W        W98441   9.157  42.345   4.363
31659W        W98442  31.552  26.453   1.433
31660W        W98443   6.452   6.358   5.235
31661W        W98444  18.144  42.062   0.241
31662W        W98445   8.883  41.938   0.239
31663W        W98446  36.918  20.995  14.257
31664W        W98447  26.390  26.800  11.169
31665W        W98448  43.475  18.725   2.327
31666W        W98449  24.181  33.534  13.049
31667W        W98450  21.754   3.692   0.869
31668W        W98451  30.434  27.680   0.740
31669W        W98452  13.614  20.068   1.739
31670W        W98453  10.830  42.237  11.832
31671W        W98454  32.965  36.251   0.236
31672W        W98455  22.581  33.967   4.255
31673W        W98456  26.620  33.475  11.419
31674W        W98457  31.979  16.197  10.605
31675W        W98458  10.594  34.743  11.601
31676W        W98459   4.647  16.292  12.885
31677W        W98460  29.645  34.587   4.208
31678W        W98461  15.383  12.840   5.145
31679W        W98462  21.675  24.980   3.254
31680W        W98463  30.397  15.299  13.349
31681W        W98464  20.229  27.071  12.424
31682W        W98465  43.776  15.014  13.878
31683W        W98466  23.675  19.984   3.182
31684W        W98467   9.258  19.036  11.514
31685W        W98468  11.355   9.920  12.038
31686W        W98469  31.020  40.887  12.508
31687W        W98470  19.665   6.880   4.203
31688W        W98471  35.504  18.012   0.846
31689W        W98472  44.838  35.615  12.553
31690W        W98473  25.894  41.218   1.714
31691W        W98474  44.950  18.509   1.452
31692W        W98475  21.961  41.835   3.297
31693W        W98476  30.452  35.503  11.151
31694W        W98477  13.896  43.536  14.753
31695W        W98478  22.980  34.506  13.496
31696W        W98479  30.139  10.913  11.197
31697W        W98480  36.948  29.101  10.663
31698W        W98481  27.643  21.905  11.726
31699W        W98482  23.516   2.932  13.445
31700W        W98483  35.627   9.884   0.757
31701W        W98484  19.900  11.986  12.064
31702W        W98485  31.133  16.327   4.067
31703W        W98486  32.358   5.449   3.075
31704W        W98487  14.538   7.324  14.416
31705W        W98488  23.060  41.498  10.253
31706W        W98489   4.300   1.484  12.875
31707W        W98490   0.544  27.976   4.167
31708W        W98491  32.030   9.015   3.286
31709W        W98492  40.585   3.645   2.704
31710W        W98493   0.392  43.357  10.931
31711W        W98494   4.195   5.234   1.903
31712W        W98495  41.935   0.943  12.893
31713W        W98496  31.985  37.014  13.401
31714W        W98497  33.423  37.023  10.711
31715W        W98498   2.012  30.183  14.322
31716W        W98499  44.028  13.178  13.839
31717W        W98500  32.454  23.498  13.007
31718W        W98501  42.651  14.682  11.588
31719W        W98502  16.094   2.550  13.274
31720W        W98503   6.079  28.007   1.821
31721W        W98504  31.908  36.510  13.397
31722W        W98505  40.860  31.079  10.824
31723W        W98506  10.199  10.184  14.975
31724W        W98507  42.838  25.216   3.766
31725W        W98508   1.237   3.401   0.640
31726W        W98509  18.565   6.728   3.282
31727W        W98510   5.759  18.629   0.488
31728W        W98511   4.605  42.938  13.553
31729W        W98512  44.867  28.158  12.927
31730W        W98513  36.792   7.834  11.846
31731W        W98514  19.993   1.384  11.430
31732W        W98515   6.233  38.104   0.345
31733W        W98516  40.952  22.272   2.340
31734W        W98517   5.474  29.594   3.307
31735W        W98518  20.762   4.221   1.462
31736W        W98519  15.826   3.929  13.422
31737W        W98520  11.887  33.227   1.219
31738W        W98521   6.255  32.626  13.149
31739W        W98522  29.456  14.303   1.178
31740W        W98523   0.981  37.523   2.007
31741W        W98524  18.371  17.247   0.435
31742W        W98525  40.798  26.134   3.786
31743W        W98526  42.043  42.787   0.977
31744W        W98527  14.010  11.203  11.203
31745W        W98528  32.025  42.928  11.719
31746W        W98529  40.388  28.644  14.643
31747W        W98530  39.112  43.802  11.459
31748W        W98531  35.347  37.058   4.275
31749W        W98532  38.543  39.916  14.862
31750W        W98533   5.755  11.677  11.491
31751W        W98534  27.170  11.329   0.316
31752W        W98535  44.238  22.831  13.117
31753W        W98536  16.322  18.562  13.984
31754W        W98537   1.281  25.157  11.910
31755W        W98538  30.414  43.351   0.331
31756W        W98539   9.728  30.133   1.452
31757W        W98540  17.564  42.401  14.701
31758W        W98541  20.156  31.065  11.076
31759W        W98542  41.460   0.029   0.078
31760W        W98543  33.518  26.363   1.228
31761W        W98544  26.170  38.407   0.221
31762W        W98545  13.434  29.081  14.036
31763W        W98546   9.817  13.001   4.667
31764W        W98547  25.253   6.964   0.738
31765W        W98548   4.356  24.312  14.957
31766W        W98549  11.133  17.476  12.199
31767W        W98550  10.843  13.864   1.882
31768W        W98551  31.249  23.225   4.529
31769W        W98552  13.378  11.580   3.999
31770W        W98553  43.781  27.576  11.154
31771W        W98554  35.268   5.479  14.687
31772W        W98555  26.396  20.651  14.317
31773W        W98556  16.670  40.282   1.100
31774W        W98557  28.586   3.789  14.884
31775W        W98558  40.812   6.811   0.286
31776W        W98559   8.933  14.588  12.617
31777W        W98560  31.017  29.809   2.478
31778W        W98561   1.082  36.956   0.882
31779W        W98562  37.442  18.424   0.765
31780W        W98563   8.665  41.375   2.651
31781W        W98564  34.636  31.575  10.904
31782W        W98565  42.215  44.912   1.513
31783W        W98566   1.172  36.350   1.828
31784W        W98567  35.397   1.898  10.667
31785W        W98568  19.497  26.495   0.289
31786W        W98569  37.042  18.886  12.824
31787W        W98570  29.138   9.267  13.303
31788W        W98571  24.508  35.874  11.913
31789W        W98572  29.238  16.126  12.100
31790W        W98573   2.371  13.790  13.440
31791W        W98574   2.217  21.135  13.568
31792W        W98575  23.594  42.851   2.369
31793W        W98576   7.223   9.859   3.359
31794W        W98577   0.706  26.173  13.596
31795W        W98578  28.861  13.686  13.537
31796W        W98579  26.119  11.050  10.629
31797W        W98580  21.141  10.253  10.964
31798W        W98581  11.325  35.960   3.078
31799W        W98582  43.320   2.827   4.247
31800W        W98583  19.019   7.341  12.099
31801W        W98584  13.127  19.696   1.027
31802W        W98585  22.264   2.475   1.952
31803W        W98586  26.800  24.281  12.570
31804W        W98587  38.335  28.755   3.180
31805W        W98588  23.152  44.430   3.117
31806W        W98589   5.880  31.618   1.854
31807W        W98590  39.450  29.673  14.305
31808W        W98591  19.572  13.746  11.374
31809W        W98592   1.740  38.778   1.937
31810W        W98593  41.298  22.620   3.232
31811W        W98594  11.258  12.027  10.354
31812W        W98595  25.534  41.357  10.051
31813W        W98596  24.183  14.411   4.243
31814W        W98597  44.234  21.194  14.469
31815W        W98598  18.612  38.042   3.241
31816W        W98599  30.865   6.509  12.240
31817W        W98600  23.471  19.732   3.585
31818W        W98601  18.499  19.176   5.129
31819W        W98602  40.512  25.781  14.888
31820W        W98603   3.931  22.407   3.317
31821W        W98604  30.908  22.760  14.857
31822W        W98605  12.178   0.780   3.088
31823W        W98606  34.173  32.473  13.500
31824W        W98607  20.521  15.198   2.334
31825W        W98608  35.801   9.177  13.347
31826W        W98609  12.704  13.105   4.647
31827W        W98610  37.289  42.375  12.024
31828W        W98611  26.937  23.022   0.342
31829W        W98612  18.111   7.576   0.869
31830W        W98613  30.032  21.277   2.390
31831W        W98614  15.661   5.275   3.564
31832W        W98615   6.751  14.562  11.690
31833W        W98616  25.224  24.852  11.445
31834W        W98617  23.422  14.126   5.056
31835W        W98618  40.403  32.550  14.900
31836W        W98619  36.522  44.313  11.064
31837W        W98620  34.770   2.949  13.814
31838W        W98621  36.815  29.145  14.813
31839W        W98622  15.753   4.719   2.350
31840W        W98623   8.597  40.881   2.488
31841W        W98624  19.608   5.725  11.426
31842W        W98625  20.261  27.140  10.613
31843W        W98626  33.423  32.060  13.493
31844W        W98627  42.244  12.470   3.826
31845W        W98628  18.587   5.485   0.967
31846W        W98629  26.908  40.435  13.847
31847W        W98630  28.617  31.925   1.109
31848W        W98631  36.383  35.568  13.440
31849W        W98632   3.301  34.030   1.656
31850W        W98633  20.263  27.610  14.049
31851W        W98634  39.956  33.585   4.100
31852W        W98635  18.360  35.434  13.525
31853W        W98636   8.641  38.410  14.557
31854W        W98637   4.480  32.038   3.236
31855W        W98638  29.365  44.849   1.780
31856W        W98639  43.311  21.358   1.413
31857W        W98640   9.915  27.555  11.563
31858W        W98641  44.265  24.962  14.391
31859W        W98642   8.919  21.791  13.080
31860W        W98643  16.773  42.656   2.712
31861W        W98644   4.904   9.878  10.715
31862W        W98645  27.160  43.797   0.723
31863W        W98646  27.583  25.687   2.345
31864W        W98647  21.764  37.407  14.292
31865W        W98648  44.058  43.730  13.539
31866W        W98649  13.819  26.243   2.178
31867W        W98650  14.713  11.115   0.444
31868W        W98651  39.408  43.357   2.661
31869W        W98652  11.449  21.117  14.350
31870W        W98653  37.599  24.170  14.733
31871W        W98654  28.396  39.755   3.650
31872W        W98655  16.310  44.945  12.171
31873W        W98656  43.554  34.153  13.505
31874W        W98657  14.146   4.987  11.590
31875W        W98658  17.349  22.877  11.121
31876W        W98659  36.506  31.532  13.912
31877W        W98660  13.719  19.025   4.675
31878W        W98661   2.783  17.653  14.805
31879W        W98662   0.411  27.384   2.604
31880W        W98663  27.193  12.240  14.775
31881W        W98664  43.471  41.096   4.963
31882W        W98665   1.234  26.046   4.394
31883W        W98666  35.145   1.754  11.097
31884W        W98667  25.103   4.813  13.334
31885W        W98668  18.284   8.450  14.357
31886W        W98669  26.422  42.307  13.881
31887W        W98670  15.720  39.743   1.784
31888W        W98671   7.673  40.387   1.271
31889W        W98672  36.941  22.553   1.255
31890W        W98673  33.472  42.309   0.881
31891W        W98674   4.247  25.734   3.068
31892W        W98675  26.421   1.304  11.082
31893W        W98676  10.377  21.666   2.607
31894W        W98677  19.112  36.590  11.137
31895W        W98678  40.491   8.238   4.516
31896W        W98679   3.799  19.201  10.608
31897W        W98680  33.698  22.288   4.525
31898W        W98681   7.298  42.356  12.532
31899W        W98682   0.483  11.816   1.180
31900W        W98683  23.007  19.819  10.633
31901W        W98684   0.759  26.638   3.780
31902W        W98685   0.366  42.332   2.752
31903W        W98686  44.406   5.797   0.912
31904W        W98687  33.337   2.719  11.548
31905W        W98688  40.279  16.387   4.566
31906W        W98689   0.165  14.144   5.524
31907W        W98690  11.079  25.012  11.449
31908W        W98691   8.246  41.575  10.849
31909W        W98692  44.172  35.988   5.009
31910W        W98693  39.021   7.880  12.842
31911W        W98694  28.500   6.510   3.276
31912W        W98695  19.715  26.192  13.805
31913W        W98696   1.507   0.877  11.530
31914W        W98697  44.040  11.371  11.628
31915W        W98698  11.940  19.001   2.275
31916W        W98699   3.843   4.462  11.175
31917W        W98700   7.267  19.654  14.527
31918W        W98701  21.553  13.219  10.544
31919W        W98702  13.397  18.299  11.907
31920W        W98703  37.419  37.406  13.651
31921W        W98704  18.966  10.662   3.657
31922W        W98705  30.450  18.327  12.165
31923W        W98706  16.501  14.223  14.365
31924W        W98707  32.038  29.249  14.430
31925W        W98708   8.337  24.983  12.594
31926W        W98709  26.639   8.789   0.948
31927W        W98710  36.439   6.770   3.194
31928W        W98711  31.963  20.764  13.023
31929W        W98712  31.070  33.318  12.564
31930W        W98713  44.188  30.922  14.246
31931W        W98714   2.643  27.496  14.283
31932W        W98715  41.892  40.569   2.396
31933W        W98716  39.992  24.011  11.405
31934W        W98717  12.830  38.327  14.751
31935W        W98718  20.950  10.374   2.412
31936W        W98719  36.571   8.937   0.337
31937W        W98720  35.391  28.097  12.143
31938W        W98721   8.696  17.180  10.780
31939W        W98722  39.070  23.008   3.286
31940W        W98723  12.873  11.182  10.542
31941W        W98724   7.215  43.965  12.328
31942W        W98725  35.007   5.187   1.411
31943W        W98726  41.550  23.251  12.601
31944W        W98727  10.252  42.277   2.873
31945W        W98728   2.992   0.411  13.044
31946W        W98729  25.799  40.563   1.014
31947W        W98730  13.160  14.590   2.644
31948W        W98731  31.044  27.894   3.090
31949W        W98732  40.033  15.135  14.915
31950W        W98733   8.079  32.409  14.031
31951W        W98734  22.174  15.877   0.762
31952W        W98735  26.828   5.928   0.683
31953W        W98736  21.667  43.021  11.904
31954W        W98737  37.710   2.725  10.600
31955W        W98738  39.836   9.069  11.156
31956W        W98739   2.325  15.766   2.888
31957W        W98740  15.285  27.120   1.821
31958W        W98741   9.024  39.433   2.363
31959W        W98742  37.837  14.769  11.885
31960W        W98743  23.900  38.447  14.647
31961W        W98744  10.214  34.009  12.995
31962W        W98745  23.994  35.938  10.761
31963W        W98746   2.906  36.991   2.289
31964W        W98747  16.962  42.506  14.027
31965W        W98748  13.394  20.999   0.949
31966W        W98749  27.075  10.831  11.284
31967W        W98750   8.926  20.594  14.857
31968W        W98751  44.385  29.740   0.006
31969W        W98752  10.122  20.363   2.726
31970W        W98753  28.173  12.533   1.742
31971W        W98754  14.581  41.812  14.076
31972W        W98755  24.214  26.481   3.143
31973W        W98756  38.806   3.875   3.196
31974W        W98757   6.225  28.093  12.092
31975W        W98758  24.157  27.542  11.732
31976W        W98759   0.965  25.229   3.582
31977W        W98760  27.954  10.393   2.235
31978W        W98761   2.203  41.270   0.842
31979W        W98762  17.181   6.867  10.721
31980W        W98763  33.254  32.032  14.333
31981W        W98764   0.031  39.468  12.323
31982W        W98765  14.861  19.583  10.555
31983W        W98766  21.081  11.210   3.576
31984W        W98767  18.291  13.244   2.296
31985W        W98768  29.213  32.135  13.280
31986W        W98769  19.684  38.185  11.426
31987W        W98770  36.873  21.046  11.226
31988W        W98771  34.463   5.407   4.123
31989W        W98772   1.727  36.787  13.508
31990W        W98773   6.413   6.162   2.721
31991W        W98774  28.962  22.632  10.797
31992W        W98775  43.396  38.462   0.725
31993W        W98776   2.257  23.773   0.415
31994W        W98777   0.725  12.598   0.897
31995W        W98778  26.738  29.037   1.637
31996W        W98779  20.706   0.431  10.360
31997W        W98780   5.980  35.484  14.859
31998W        W98781  28.016  28.921  10.518
31999W        W98782   8.486   1.750  13.356
32000W        W98783  39.842   0.306  11.391
32001W        W98784  21.478  31.052  12.488
32002W        W98785  32.075  18.187  12.616
32003W        W98786  19.625   9.594  10.792
32004W        W98787  18.702  20.073   4.675
32005W        W98788  43.799   3.044   4.407
32006W        W98789  19.348  25.214   2.415
32007W        W98790  22.703  12.644   0.155
32008W        W98791  30.860  30.175   4.465
32009W        W98792  22.496  43.002  11.144
32010W        W98793  31.648   0.990   0.022
32011W        W98794  10.269  16.863  10.219
32012W        W98795   0.239  18.956   0.268
32013W        W98796  41.062  11.602   1.790
32014W        W98797  19.711  40.780   1.044
32015W        W98798  29.833  29.726   3.606
32016W        W98799  41.716   6.668   4.163
32017W        W98800  41.160  43.810   2.325
32018W        W98801  14.124  29.216  12.935
32019W        W98802  10.812   4.663   0.785
32020W        W98803  17.832  11.097   1.856
32021W        W98804  20.523   7.559  10.694
32022W        W98805  31.229  15.760   1.351
32023W        W98806  14.261  31.672   1.913
32024W        W98807  11.925  41.377  12.013
32025W        W98808  18.324  43.978   1.733
32026W        W98809  21.322  40.496  11.817
32027W        W98810  21.014  12.585  11.569
32028W        W98811  29.665  22.249   0.877
32029W        W98812  30.568  29.094  10.945
32030W        W98813  37.469  31.092   1.310
32031W        W98814  23.199  38.007  13.788
32032W        W98815  38.380  32.675   1.135
32033W        W98816  42.299  25.862  11.027
32034W        W98817  43.499  23.215  12.023
32035W        W98818  35.034  11.413   2.676
32036W        W98819  18.607  19.604  13.884
32037W        W98820  38.151  38.404   4.338
32038W        W98821  42.557  22.744   4.132
32039W        W98822  19.158  26.256   5.093
32040W        W98823  19.892  15.241  11.681
32041W        W98824  11.361  25.721   1.355
32042W        W98825   5.746  44.511   4.687
32043W        W98826  37.648   5.929  12.521
32044W        W98827  40.795  12.362   0.211
32045W        W98828  26.548  23.623   0.583
32046W        W98829  22.187  42.289  13.320
32047W        W98830   5.202  41.873  14.354
32048W        W98831  18.310   3.712  13.574
32049W        W98832  21.718   4.081   2.352
32050W        W98833  13.302   0.780  11.553
32051W        W98834  10.691  11.290   4.571
32052W        W98835  17.301  43.882  12.191
32053W        W98836  19.833  19.279  13.969
32054W        W98837  40.217  13.837   1.827
32055W        W98838  13.098  33.993   1.440
32056W        W98839  32.890  29.287   2.818
32057W        W98840  26.525  34.554   0.156
32058W        W98841  42.841  16.073  10.735
32059W        W98842  10.483  15.041  14.088
32060W        W98843  36.471  36.073  13.356
32061W        W98844  44.736  32.634   4.156
32062W        W98845  23.178   1.718  14.297
32063W        W98846  31.699  43.950  10.703
32064W        W98847   8.119  21.120   4.259
32065W        W98848  11.208  25.936  14.887
32066W        W98849  35.860  16.316  14.300
32067W        W98850   4.141  12.881  13.878
32068W        W98851  29.388  19.646   3.971
32069W        W98852  41.580  23.763   1.262
32070W        W98853  11.679  32.073  12.636
32071W        W98854  12.595  30.932  13.044
32072W        W98855  35.308  11.232  14.874
32073W        W98856  42.817  39.324   2.691
32074W        W98857  38.637  40.499  13.082
32075W        W98858  11.676   5.666  14.935
32076W        W98859   7.196  44.525  10.688
32077W        W98860  12.761  34.563  12.926
32078W        W98861   6.445  15.607  13.810
32079W        W98862  41.914   5.429   2.392
32080W        W98863  35.330  25.689  14.407
32081W        W98864  33.730   8.610   4.094
32082W        W98865  32.095  31.361   1.409
32083W        W98866   4.333   7.295   2.861
32084W        W98867  12.951  16.657   0.205
32085W        W98868   5.379  30.069   2.192
32086W        W98869  12.427  41.407  14.873
32087W        W98870  15.016  16.160   3.066
32088W        W98871   0.536  30.249  14.066
32089W        W98872   6.046  19.554   2.013
32090W        W98873  36.332  28.220  14.081
32091W        W98874  32.016  29.422  14.942
32092W        W98875   8.800  15.036  12.353
32093W        W98876   1.880  28.224  13.936
32094W        W98877  24.109  13.556  12.051
32095W        W98878  21.551  38.463  10.498
32096W        W98879   9.181   8.349  11.888
32097W        W98880   7.730   6.519   1.844
32098W        W98881  34.211  17.825  11.175
32099W        W98882  31.734   9.823   1.271
32100W        W98883  30.909  29.680   0.567
32101W        W98884  44.939   7.648  12.445
32102W        W98885  11.275   1.418   0.312
32103W        W98886  26.646  41.400   0.503
32104W        W98887  41.391  41.859   0.920
32105W        W98888  19.508  24.392   1.215
32106W        W98889  12.422  31.000   0.345
32107W        W98890  27.083  10.289  10.521
32108W        W98891   8.604  14.099   1.856
32109W        W98892  32.905  42.600  14.557
32110W        W98893  19.230  24.146   0.412
32111W        W98894  20.952   4.515  14.753
32112W        W98895  20.108  25.519  13.517
32113W        W98896  38.840  44.220   4.676
32114W        W98897  39.004  10.022  11.931
32115W        W98898  37.392   0.804   5.090
32116W        W98899  27.907  32.429  13.910
32117W        W98900   9.817  37.139  14.448
32118W        W98901  27.686  24.336  12.586
32119W        W98902   2.264  26.924  10.450
32120W        W98903  35.243  23.491  11.096
32121W        W98904  39.079  34.137  13.128
32122W        W98905   7.719  13.345  13.443
32123W        W98906  28.366  20.556   0.859
32124W        W98907  13.900  34.107  11.041
32125W        W98908  14.705  39.398   2.800
32126W        W98909  44.446  31.410  13.556
32127W        W98910  20.032  10.305  13.348
32128W        W98911   8.159   2.686  11.110
32129W        W98912  20.625  24.704  11.572
32130W        W98913   8.280  24.033   2.441
32131W        W98914  24.392  27.098   4.249
32132W        W98915   6.276  16.090   4.091
32133W        W98916  38.392  20.172  14.243
32134W        W98917  23.151  40.029  12.604
32135W        W98918  30.476  20.203   4.511
32136W        W98919  38.857  38.079  12.378
32137W        W98920  32.030  41.162   0.803
32138W        W98921  42.999   6.141   4.156
32139W        W98922  22.914   2.919   3.259
32140W        W98923  14.099  15.501  13.847
32141W        W98924  34.619   9.180   1.598
32142W        W98925  27.662  38.470  12.035
32143W        W98926  44.912   0.679  12.507
32144W        W98927  31.871  17.273   0.440
32145W        W98928  11.700  23.096  12.966
32146W        W98929  15.680  35.878   2.568
32147W        W98930  32.333   1.585  11.165
32148W        W98931  33.116  15.076   2.265
32149W        W98932   7.589  29.061  11.644
32150W        W98933  27.485  28.326  13.911
32151W        W98934   0.213   7.247  13.399
32152W        W98935  11.748   5.627   4.124
32153W        W98936  40.334  11.441   1.291
32154W        W98937  17.771   4.297  11.015
32155W        W98938   4.323   5.710  11.211
32156W        W98939  16.088  24.122   1.804
32157W        W98940  20.907  43.544  14.946
32158W        W98941   3.433  16.462   2.256
32159W        W98942  18.337  13.414   1.334
32160W        W98943  34.803  14.744  11.202
32161W        W98944  33.953  27.081   2.298
32162W        W98945  32.674  31.183   1.672
32163W        W98946  19.214  20.640  10.666
32164W        W98947  41.950  42.024  14.509
32165W        W98948  29.544  19.659  10.434
32166W        W98949   8.780  44.913   4.102
32167W        W98950  16.017  37.589  13.417
32168W        W98951   9.609  23.202  14.046
32169W        W98952  33.913  10.843  10.595
32170W        W98953  22.143  18.207  10.737
32171W        W98954   9.204   4.353  11.164
32172W        W98955   1.440   6.682   3.667
32173W        W98956  42.251  26.244  14.404
32174W        W98957  35.603  41.722  11.377
32175W        W98958  15.678  44.334  13.731
32176W        W98959  44.702   4.339  14.800
32177W        W98960  10.148  20.094  11.025
32178W        W98961   9.414  33.579  11.188
32179W        W98962  37.519  26.409   4.105
32180W        W98963  30.455  25.302  12.628
32181W        W98964   3.938  10.493   2.478
32182W        W98965   5.299   2.762  12.293
32183W        W98966  35.401  33.974  14.311
32184W        W98967  39.120  18.815   3.309
32185W        W98968  42.874  22.702   0.847
32186W        W98969   3.672  30.153  12.981
32187W        W98970  18.010  32.419   2.447
32188W        W98971  27.748   9.125   3.394
32189W        W98972  36.779  17.279   2.676
32190W        W98973  24.169   6.301  11.649
32191W        W98974  11.123  14.691   4.555
32192W        W98975  18.632  24.725  10.757
32193W        W98976   6.422  42.465  14.702
32194W        W98977  43.446  30.134   1.255
32195W        W98978  17.053  33.658   4.015
32196W        W98979  14.784  28.159  13.019
32197W        W98980  35.675  38.812  12.034
32198W        W98981  26.997  42.306   3.362
32199W        W98982  24.231  39.048  10.362
32200W        W98983  34.056  24.835   4.320
32201W        W98984  40.914   8.788  13.043
32202W        W98985  13.708  27.905  11.569
32203W        W98986  23.080   0.967   4.615
32204W        W98987  43.993  31.339  12.507
32205W        W98988  17.181  37.320   2.405
32206W        W98989  40.293  42.796  12.542
32207W        W98990  24.887  35.008  12.496
32208W        W98991  34.655  29.222   4.154
32209W        W98992  22.019  34.872  12.084
32210W        W98993  32.588  22.542  14.566
32211W        W98994   7.103   4.336   3.150
32212W        W98995  40.089  40.177   2.658
32213W        W98996  19.268  17.494  13.134
32214W        W98997   1.041   6.915   4.671
32215W        W98998  10.315  33.465   0.453
32216W        W98999  22.793  11.726  13.976
32217W        W99000  26.116  28.039   1.123
32218W        W99001  39.419  20.635   3.869
32219W        W99002  32.133  11.879   4.957
32220W        W99003  20.165  26.018   2.867
32221W        W99004  39.006  17.050  10.778
32222W        W99005  11.596   6.518  12.946
32223W        W99006  13.720  25.286   1.064
32224W        W99007   6.406   0.736  10.161
32225W        W99008  18.225   1.379   2.122
32226W        W99009  33.541  16.687  14.108
32227W        W99010   5.204  10.130   0.457
32228W        W99011  20.550  26.831  12.055
32229W        W99012  19.141   4.466  14.250
32230W        W99013  11.438  27.062   1.608
32231W        W99014  11.008  25.046   3.819
32232W        W99015   9.794  14.673  10.815
32233W        W99016  27.724  11.408  11.190
32234W        W99017   3.223  25.463  13.938
32235W        W99018  25.485  13.181  12.433
32236W        W99019   0.363  33.613   3.411
32237W        W99020  11.036  41.356  14.403
32238W        W99021  38.578  31.000  11.589
32239W        W99022   7.390  34.898   1.640
32240W        W99023  41.286  12.975   3.231
32241W        W99024  38.293  32.878   2.288
32242W        W99025  34.509  35.376   2.770
32243W        W99026   2.610  19.043   1.845
32244W        W99027  10.578   4.919  11.129
32245W        W99028   5.421  20.926   2.381
32246W        W99029  44.410   3.243  12.501
32247W        W99030  16.264  34.639   3.229
32248W        W99031  43.464   3.539   2.554
32249W        W99032  15.312  24.113  10.859
32250W        W99033  38.886  42.732  11.116
32251W        W99034  21.857  35.183  11.285
32252W        W99035  32.644   0.343  12.063
32253W        W99036  18.938  39.505   4.140
32254W        W99037  31.875  36.089  12.469
32255W        W99038   7.265  33.556   1.381
32256W        W99039  37.045  32.368  10.719
32257W        W99040  22.245  11.241   1.766
32258W        W99041  29.397  25.164   2.131
32259W        W99042  25.943   7.910  13.451
32260W        W99043  21.386   3.132  13.879
32261W        W99044  12.305  27.130  11.489
32262W        W99045  28.065  29.656  14.019
32263W        W99046  25.585  17.794  14.799
32264W        W99047   5.496  34.676   0.645
32265W        W99048  30.593  20.493   1.010
32266W        W99049   0.054  11.171  13.557
32267W        W99050  40.011  43.099  12.877
32268W        W99051   1.567  40.895  13.295
32269W        W99052  43.069  43.937   0.754
32270W        W99053  20.279  31.930   1.214
32271W        W99054  14.188   9.783   1.102
32272W        W99055   9.179  20.991   0.365
32273W        W99056  41.393  18.089   4.204
32274W        W99057  19.522  16.304   4.415
32275W        W99058  15.030   4.215  11.366
32276W        W99059  15.503  44.669  13.403
32277W        W99060  16.673   6.916  10.645
32278W        W99061  38.400  30.692  14.842
32279W        W99062  23.189  19.057   2.289
32280W        W99063  26.367  29.007   0.688
32281W        W99064  41.546  26.446   2.181
32282W        W99065  24.445  40.740  12.602
32283W        W99066  37.352  37.081  12.403
32284W        W99067  13.922  28.242  13.824
32285W        W99068  27.606   7.548   0.425
32286W        W99069  19.113  28.623   4.865
32287W        W99070  31.567  18.137  12.816
32288W        W99071  36.153  23.153  13.552
32289W        W99072  23.578  38.026  13.403
32290W        W99073   0.236  13.231   1.332
32291W        W99074  30.653  16.338  11.143
32292W        W99075  15.284   2.024  11.666
32293W        W99076   6.373  24.374  13.981
32294W        W99077  32.468  23.257   0.746
32295W        W99078   1.948  29.423  12.951
32296W        W99079   6.625  30.582  11.032
32297W        W99080   9.726   5.719  10.874
32298W        W99081   6.119  23.831   0.075
32299W        W99082  23.231   5.843   4.702
32300W        W99083  30.705  33.016  12.797
32301W        W99084  12.711  42.205  13.479
32302W        W99085  25.009  13.887  12.583
32303W        W99086   3.517  43.366   0.737
32304W        W99087   5.881   6.167   2.641
32305W        W99088   8.834  30.822   2.858
32306W        W99089  43.075  42.831  14.739
32307W        W99090  34.386  11.745  10.520
32308W        W99091  18.196   8.218   0.401
32309W        W99092  20.475   8.306   2.993
32310W        W99093  16.764  26.187   2.423
32311W        W99094  20.352   1.114   2.647
32312W        W99095  13.852   0.034   3.617
32313W        W99096  37.451  19.223   0.465
32314W        W99097  37.625   3.989  11.079
32315W        W99098  24.581  33.526  12.709
32316W        W99099  33.356  14.753   2.921
32317W        W99100  27.078  25.915   4.062
32318W        W99101  42.990  20.758  11.656
32319W        W99102  36.015   4.285  12.314
32320W        W99103  34.018  21.448  13.352
32321W        W99104   1.438  25.201   0.930
32322W        W99105  22.232   8.853   4.169
32323W        W99106   6.144  43.734   4.147
32324W        W99107  19.954  43.519  10.885
32325W        W99108  41.101  25.668   3.828
32326W        W99109  39.780  15.967  12.550
32327W        W99110  10.429  15.316   4.298
32328W        W99111   4.256  18.450  13.063
32329W        W99112   5.736  39.517  14.344
32330W        W99113  22.478  16.205   4.106
32331W        W99114  43.920  10.859  14.024
32332W        W99115  12.364  23.046   3.126
32333W        W99116  25.477   4.783  13.694
32334W        W99117  29.011  34.634  10.712
32335W        W99118  25.449  35.869   3.813
32336W        W99119  10.441  43.106   0.256
32337W        W99120   2.072  34.225   3.670
32338W        W99121  24.374  29.711  14.402
32339W        W99122  33.507   1.730  11.663
32340W        W99123   5.955  32.177  11.083
32341W        W99124  38.813   9.208   4.820
32342W        W99125  29.340  20.217   2.326
32343W        W99126  13.164  17.605  13.819
32344W        W99127  11.881  17.574  14.478
32345W        W99128  13.285  23.133   1.689
32346W        W99129   6.841  18.449  10.679
32347W        W99130  35.838  22.700  14.406
32348W        W99131  42.592  39.902  11.551
32349W        W99132  42.510  36.765  14.478
32350W        W99133  21.802   6.341   4.497
32351W        W99134  34.015  10.281  10.234
32352W        W99135  32.544   5.664  11.789
32353W        W99136  22.930  16.757   0.387
32354W        W99137  37.972  39.352   2.823
32355W        W99138  16.870   1.891   1.009
32356W        W99139  13.817   4.344   1.233
32357W        W99140   8.717  42.403  12.037
32358W        W99141   8.965  13.019   3.043
32359W        W99142   1.872   9.602   3.318
32360W        W99143  29.939  14.216   5.006
32361W        W99144  37.032   1.515   1.368
32362W        W99145   9.489  42.659   1.301
32363W        W99146  44.110  22.010  10.901
32364W        W99147  34.902   6.761   3.131
32365W        W99148  23.740  39.064  14.280
32366W        W99149   4.520  16.359   3.419
32367W        W99150  21.075  40.053  12.107
32368W        W99151  31.101  33.540   3.657
32369W        W99152   3.640  37.530   1.719
32370W        W99153   5.018  20.545   1.876
32371W        W99154  12.109  44.858   2.619
32372W        W99155  39.004  39.613  10.615
32373W        W99156  38.507  41.534  10.745
32374W        W99157  19.059  12.791   2.100
32375W        W99158   6.135  27.022  11.421
32376W        W99159  14.319  36.152  12.198
32377W        W99160  37.600  21.497  13.472
32378W        W99161  28.079   9.194   0.183
32379W        W99162  10.919  39.396  12.663
32380W        W99163  16.131   3.520   0.764
32381W        W99164  31.915  23.754  14.781
32382W        W99165  25.253  33.621   1.680
32383W        W99166  36.515  44.416   0.335
32384W        W99167  16.837  37.673  13.210
32385W        W99168  26.114  33.637  11.471
32386W        W99169  32.017  42.073   1.818
32387W        W99170  42.350  19.602  10.564
32388W        W99171  18.316  10.347   0.009
32389W        W99172  24.087  14.148   1.380
32390W        W99173  30.408  30.057   4.117
32391W        W99174  16.557  17.996   2.349
32392W        W99175  16.735  18.500  11.644
32393W        W99176  35.062  35.800   4.014
32394W        W99177  21.131  34.433  12.062
32395W        W99178  34.435  15.308  11.988
32396W        W99179  15.896  30.918  13.134
32397W        W99180  21.752  34.965   1.789
32398W        W99181  13.628  20.983   0.373
32399W        W99182  33.041  16.190   0.808
32400W        W99183  36.454  25.612  13.023
32401W        W99184  13.862  16.078   0.908
32402W        W99185  34.333  38.005  13.526
32403W        W99186  39.929  29.891  12.922
32404W        W99187  33.690  26.644   3.175
32405W        W99188  10.209  31.559  13.368
32406W        W99189  22.181  23.933   3.755
32407W        W99190   1.666  15.733   1.753
32408W        W99191  33.674  27.502  11.982
32409W        W99192  30.908  18.292  14.799
32410W        W99193  33.692  11.908  13.409
32411W        W99194  13.188  40.460  12.518
32412W        W99195  42.072  33.091   1.287
32413W        W99196  19.555  28.949   2.650
32414W        W99197  16.178  35.328  11.577
32415W        W99198  25.796  10.184   4.149
32416W        W99199  43.838  44.746   0.517
32417W        W99200  16.198  10.264  10.307
32418W        W99201  30.238  27.473   1.509
32419W        W99202  41.441   4.268  13.331
32420W        W99203   7.494  20.660  11.138
32421W        W99204   8.699  13.849   3.702
32422W        W99205   3.189  16.059  12.062
32423W        W99206  42.990  39.257  14.265
32424W        W99207   2.648  25.159  13.612
32425W        W99208  13.190  37.545  13.615
32426W        W99209  27.096  12.624   4.946
32427W        W99210  42.644  20.948   1.786
32428W        W99211   3.051   0.077   0.383
32429W        W99212  32.933   5.691   0.767
32430W        W99213  14.392   0.858  10.745
32431W        W99214   5.449   6.407   2.771
32432W        W99215  40.430  30.454   1.942
32433W        W99216   8.762  23.011  13.765
32434W        W99217  10.288  12.934   5.098
32435W        W99218  36.602  21.209  12.149
32436W        W99219  42.805   6.252   0.187
32437W        W99220  25.382  14.221   1.745
32438W        W99221  30.981  40.885  14.878
32439W        W99222  18.728  31.377  11.438
32440W        W99223  36.578  39.513  13.111
32441W        W99224   4.692  39.305  14.493
32442W        W99225   9.853  38.424  14.723
32443W        W99226  37.719  17.749   0.320
32444W        W99227  20.211  21.472   1.678
32445W        W99228  29.413   6.948   2.812
32446W        W99229  44.645  17.618   1.804
32447W        W99230  12.833  32.882  11.979
32448W        W99231  15.812  15.903  12.424
32449W        W99232  25.123  18.584  11.435
32450W        W99233  25.925  31.978   1.387
32451W        W99234  44.710  40.266  14.514
32452W        W99235  33.161   1.405   1.814
32453W        W99236   1.798  30.448   4.605
32454W        W99237  16.557  17.192  12.955
32455W        W99238   1.927  38.232  13.887
32456W        W99239  33.812  36.473  13.729
32457W        W99240  14.732  24.698   4.970
32458W        W99241  16.988  37.930  12.358
32459W        W99242  21.172  43.380   2.349
32460W        W99243  27.417  16.554  13.453
32461W        W99244  17.515  37.474  13.584
32462W        W99245  16.241   9.918   1.458
32463W        W99246   8.735  26.137   1.712
32464W        W99247  36.574  20.670   3.672
32465W        W99248  13.701  13.181   4.446
32466W        W99249   0.370  39.884   1.642
32467W        W99250  33.993  25.103   1.187
32468W        W99251  42.678  42.251  12.800
32469W        W99252  34.016  26.984  13.810
32470W        W99253  39.320   6.375   3.762
32471W        W99254  33.127  34.567  14.533
32472W        W99255  16.861   5.223  14.441
32473W        W99256  29.357   8.295  11.227
32474W        W99257  41.063   7.419   0.316
32475W        W99258  24.098   8.310   4.143
32476W        W99259  34.512  30.633  10.611
32477W        W99260  10.866  17.100   3.098
32478W        W99261  33.497  29.214  12.587
32479W        W99262   1.908  14.708   0.258
32480W        W99263  14.729  15.048   3.595
32481W        W99264  20.611  30.484   1.298
32482W        W99265  29.998   3.703   2.217
32483W        W99266   4.234  13.145  12.563
32484W        W99267  43.891  35.009  14.115
32485W        W99268  28.452  15.514   0.861
32486W        W99269  42.300  41.415   4.708
32487W        W99270  35.333  44.173   1.147
32488W        W99271  24.904   3.292   0.798
32489W        W99272   0.702  29.167   4.465
32490W        W99273   8.313  39.570   0.351
32491W        W99274   7.057  41.008  14.557
32492W        W99275  13.266   7.427  10.170
32493W        W99276  38.806  16.686  13.329
32494W        W99277  40.906  23.066   4.093
32495W        W99278   4.222  28.529  11.677
32496W        W99279  13.122  28.979   3.099
32497W        W99280  35.958  15.407   1.655
32498W        W99281  13.641  39.805  13.820
32499W        W99282  27.241  41.854   2.732
32500W        W99283  19.544  16.380   0.355
32501W        W99284  25.512  15.088   3.370
32502W        W99285  39.789  18.620   3.909
32503W        W99286  42.203  22.397  10.894
32504W        W99287   8.858  37.497  14.032
32505W        W99288  39.229  38.718  11.087
32506W        W99289  26.237  10.240   1.389
32507W        W99290  39.385  25.392   3.676
32508W        W99291   6.259   4.986  11.970
32509W        W99292  16.375   1.971   0.829
32510W        W99293  43.751  25.031  14.005
32511W        W99294  31.127  28.550   1.885
32512W        W99295   9.932   0.381  10.951
32513W        W99296  34.866   6.284   4.397
32514W        W99297  38.178  30.503  13.719
32515W        W99298  39.512  20.794  10.602
32516W        W99299  35.666  23.687   2.928
32517W        W99300  15.653   5.395  13.706
32518W        W99301  40.473  20.525   1.940
32519W        W99302   7.243  21.232   0.753
32520W        W99303   5.168  19.586  12.293
32521W        W99304  16.827  18.151   3.706
32522W        W99305  44.190  28.662   0.842
32523W        W99306  14.728   9.704  10.946
32524W        W99307  29.876   7.738  12.606
32525W        W99308  12.820  32.338   3.258
32526W        W99309  43.907  41.265   3.076
32527W        W99310  42.194   6.613   3.945
32528W        W99311  24.098  34.351  13.998
32529W        W99312   4.679  39.640   3.327
32530W        W99313  11.910  32.313  10.298
32531W        W99314  30.915  40.865  10.588
32532W        W99315  11.801  32.531  11.522
32533W        W99316  31.148  37.987   3.275
32534W        W99317  40.104  42.095  13.935
32535W        W99318  21.399  30.127  10.710
32536W        W99319  10.324  18.188  10.591
32537W        W99320  18.653  23.586   2.495
32538W        W99321   2.025  19.683   3.278
32539W        W99322   6.395  28.126   1.426
32540W        W99323  44.895  13.701   2.068
32541W        W99324   0.674  31.961   2.108
32542W        W99325  28.927  15.859  12.447
32543W        W99326   8.830  35.381  12.117
32544W        W99327  32.986  39.483  11.699
32545W        W99328   6.838  27.637   0.849
32546W        W99329   2.955  13.634   2.470
32547W        W99330   9.489  41.351   2.316
32548W        W99331  43.767  17.636   2.851
32549W        W99332  42.695  32.019   2.330
32550W        W99333  44.166  15.811  12.382
32551W        W99334  22.540   0.452   4.606
32552W        W99335  33.132  28.053  10.555
32553W        W99336  36.453  35.043   4.933
32554W        W99337  27.989  18.333   4.458
32555W        W99338  14.147  41.816  11.553
32556W        W99339  44.521  13.314  10.720
32557W        W99340  25.063  10.657  12.551
32558W        W99341   3.523  10.240   4.578
32559W        W99342   9.850   0.536   1.446
32560W        W99343   8.767   3.379   2.456
32561W        W99344  10.349  10.263  13.069
32562W        W99345  32.051  38.832  12.480
32563W        W99346  18.387  26.173   1.964
32564W        W99347  38.315  22.810   0.230
32565W        W99348  43.883  19.654  14.747
32566W        W99349  23.006   4.431   0.303
32567W        W99350  33.315  28.562   3.112
32568W        W99351  39.339  16.632  10.729
32569W        W99352   7.299  24.191   2.905
32570W        W99353  40.383  25.145  10.668
32571W        W99354  14.725  23.640  10.851
32572W        W99355  10.653  43.210   0.976
32573W        W99356  29.015   8.373   3.767
32574W        W99357  32.505  43.938  14.829
32575W        W99358  18.037  40.332   1.017
32576W        W99359  33.732   3.026   4.834
32577W        W99360  40.529  33.856  11.234
32578W        W99361  30.185  14.804  10.493
32579W        W99362  20.483  38.495   1.776
32580W        W99363  14.570  39.146   3.621
32581W        W99364  39.936  27.635   4.117
32582W        W99365  43.263  43.082   0.147
32583W        W99366  13.171  44.514   4.622
32584W        W99367  19.344  12.241  10.739
32585W        W99368  39.191  20.755   4.901
32586W        W99369  36.172  21.718   9.867
32587W        W99370  18.571  41.470  10.266
32588W        W99371  18.777   0.888   3.660
32589W        W99372   3.756  37.035   3.648
32590W        W99373  11.289  33.422   3.382
32591W        W99374  41.522  42.536   4.093
32592W        W99375  30.502  31.064  12.333
32593W        W99376  32.614   4.290   3.676
32594W        W99377  28.744   0.488   2.698
32595W        W99378  40.771   7.587  11.514
32596W        W99379  37.095  34.038  12.898
32597W        W99380  44.301  11.628  11.243
32598W        W99381   2.107  19.368  12.879
32599W        W99382  22.592  35.778  14.007
32600W        W99383  27.517  11.685   4.113
32601W        W99384   3.012  42.471  11.616
32602W        W99385  12.589  36.405  12.316
32603W        W99386  26.741  18.777  11.131
32604W        W99387   1.614  29.514   3.620
32605W        W99388  35.579  41.801  13.339
32606W        W99389  19.499  34.782  14.864
32607W        W99390  28.719   6.204   2.871
32608W        W99391  33.465  44.950  11.173
32609W        W99392  43.008  43.283   3.855
32610W        W99393   3.211  38.320   1.200
32611W        W99394  11.113  34.584  10.825
32612W        W99395  36.500  16.677   4.722
32613W        W99396  36.779  39.010   4.651
32614W        W99397  22.648  40.084  11.886
32615W        W99398   9.830  38.739   4.103
32616W        W99399  19.663  18.383   2.961
32617W        W99400  44.348  24.617  14.792
32618W        W99401  24.792  11.854   1.711
32619W        W99402  34.987  13.107   0.189
32620W        W99403  30.563  33.574   4.380
32621W        W99404  42.125  21.474  12.815
32622W        W99405   6.373  39.876  10.690
32623W        W99406  22.957  13.733   1.835
32624W        W99407  33.392  32.639   0.042
32625W        W99408  33.282   8.286  12.397
32626W        W99409  40.441   9.627   2.261
32627W        W99410  37.321  43.815  11.191
32628W        W99411  17.376   6.776  12.014
32629W        W99412  34.632  42.159  13.446
32630W        W99413  22.221  38.789  11.599
32631W        W99414  44.019   0.454  14.371
32632W        W99415   9.212   2.368   4.703
32633W        W99416  36.794   1.487  11.691
32634W        W99417   9.896  10.138  13.311
32635W        W99418   6.685   2.475   2.303
32636W        W99419  35.002  37.217  14.887
32637W        W99420  11.371  39.293   9.868
32638W        W99421  21.222  10.814   3.278
32639W        W99422   3.441  41.527  13.848
32640W        W99423  28.211   6.471  13.398
32641W        W99424  42.085  33.038  10.540
32642W        W99425  25.605  26.784  13.443
32643W        W99426  12.265  21.719   2.244
32644W        W99427  15.315  32.826  14.211
32645W        W99428  39.665  10.354   2.978
32646W        W99429  33.717  29.456   2.077
32647W        W99430  12.413  20.519   1.639
32648W        W99431  20.495  16.743  14.335
32649W        W99432  41.891  21.180   1.369
32650W        W99433  13.293  25.303  13.505
32651W        W99434  34.837   9.300   2.379
32652W        W99435  16.785  41.596   2.311
32653W        W99436  30.387  19.847   0.310
32654W        W99437  22.749  23.033   2.913
32655W        W99438  19.101   3.249   3.270
32656W        W99439  37.881  44.337   2.952
32657W        W99440   2.124   9.435  12.439
32658W        W99441   9.175   7.142  10.714
32659W        W99442   9.469   4.915  14.454
32660W        W99443  42.348  30.740   1.229
32661W        W99444   6.350   4.710  13.118
32662W        W99445  40.421  10.135   2.351
32663W        W99446  28.443  17.808   3.894
32664W        W99447  22.196  20.993   3.911
32665W        W99448  11.335  44.713  13.057
32666W        W99449   5.914  24.645  13.475
32667W        W99450  36.276   3.882  12.495
32668W        W99451  11.543  12.826   4.936
32669W        W99452   6.303  35.032   0.777
32670W        W99453   5.303  25.220  12.147
32671W        W99454  29.402  43.818   4.052
32672W        W99455  36.459  28.831  13.476
32673W        W99456  33.174  11.720   3.262
32674W        W99457   4.327  34.436   2.949
32675W        W99458  39.493  15.139  14.960
32676W        W99459   5.681  10.210  10.990
32677W        W99460  23.251   7.646  12.012
32678W        W99461  39.507  13.091  13.531
32679W        W99462   7.632  28.020   0.946
32680W        W99463  22.602   1.665  10.330
32681W        W99464  11.272  32.106  12.098
32682W        W99465   1.855  20.136   5.107
32683W        W99466  20.602  20.571  11.954
32684W        W99467  21.783  43.354   4.133
32685W        W99468  22.585  30.739   2.690
32686W        W99469  31.313  39.369   4.931
32687W        W99470   5.178  11.170  12.431
32688W        W99471  41.483   4.939  12.019
32689W        W99472  40.887  34.172   4.576
32690W        W99473  14.715  22.267   0.944
32691W        W99474  28.586  26.611   1.403
32692W        W99475  23.784  15.808   0.347
32693W        W99476  11.424   7.666   2.234
32694W        W99477  11.712   9.645   2.142
32695W        W99478  24.795  34.822  14.598
32696W        W99479  41.896  39.951   1.211
32697W        W99480   8.575  40.851  11.164
32698W        W99481  12.670  14.430   4.181
32699W        W99482   9.050  18.245  12.057
32700W        W99483  27.191  26.193   0.169
32701W        W99484  25.091  15.387   2.924
32702W        W99485  15.522  31.057  10.993
32703W        W99486  32.114  12.785  14.305
32704W        W99487  42.587  12.954   3.099
32705W        W99488  20.135  24.575  11.667
32706W        W99489  16.328  37.745   1.471
32707W        W99490  38.992  11.601  12.816
32708W        W99491  28.214  29.075   1.554
32709W        W99492   4.300  42.473   1.893
32710W        W99493  26.465  10.110  11.069
32711W        W99494  24.629  11.423  14.242
32712W        W99495  38.547  18.223  10.169
32713W        W99496  44.878  38.442   4.059
32714W        W99497  26.986  43.557   0.297
32715W        W99498  39.946  36.407  12.527
32716W        W99499  26.931   9.296  10.582
32717W        W99500  31.534  23.135   3.692
32718W        W99501   5.389  34.484   3.600
32719W        W99502   2.447   2.332  12.517
32720W        W99503  12.318  36.864   1.695
32721W        W99504  22.195  29.558   4.829
32722W        W99505  25.543  40.856  14.356
32723W        W99506  27.521  10.607  13.875
32724W        W99507  18.764   1.464   0.766
32725W        W99508  13.709  35.961  10.711
32726W        W99509   7.775  24.586  14.350
32727W        W99510  30.129  10.719  10.721
32728W        W99511   1.337  31.635  10.439
32729W        W99512  33.068  17.298  13.101
32730W        W99513  11.590  44.835  11.999
32731W        W99514  32.129  38.978   1.259
32732W        W99515  42.565  44.288  14.366
32733W        W99516  41.045   4.952  11.137
32734W        W99517   9.338   5.317  12.361
32735W        W99518  22.870  23.888   3.373
32736W        W99519  26.564  44.808   2.214
32737W        W99520   9.374   0.870  12.174
32738W        W99521  16.584   2.435  11.570
32739W        W99522  32.973  14.958   4.116
32740W        W99523   9.347   7.249   2.354
32741W        W99524  34.267  38.043   1.804
32742W        W99525  24.076  31.959   1.173
32743W        W99526  25.625  22.125  10.782
32744W        W99527  41.335  20.326  11.255
32745W        W99528  21.208  10.175   1.211
32746W        W99529  27.006   4.160   0.367
32747W        W99530   6.094  34.154   3.267
32748W        W99531  30.830  17.124  10.814
32749W        W99532  34.568   3.386  14.759
32750W        W99533  43.403  39.039   1.237
32751W        W99534  13.685  36.808  12.015
32752W        W99535  41.922  33.370   0.836
32753W        W99536   1.296  29.399  11.259
32754W        W99537  26.221  37.285  12.115
32755W        W99538  10.613  27.150   4.551
32756W        W99539   7.782  35.234  12.896
32757W        W99540   1.885  23.595  11.594
32758W        W99541  27.280  12.619  11.236
32759W        W99542  21.141  18.582   4.215
32760W        W99543  28.641  38.896   1.513
32761W        W99544  43.793  19.578  11.217
32762W        W99545   5.755  17.154   3.328
32763W        W99546  13.093  39.521   3.466
32764W        W99547  42.563  17.706  11.564
32765W        W99548  15.308  12.184  11.642
32766W        W99549  17.758  36.442   4.016
32767W        W99550   5.892   0.394   4.588
32768W        W99551  23.998   2.951   0.223
32769W        W99552  27.989   4.753   3.367
32770W        W99553  30.872  16.901   4.915
32771W        W99554  19.569   1.996  12.385
32772W        W99555   1.081   8.949  10.282
32773W        W99556  17.504  40.027   4.103
32774W        W99557  27.931  42.542   0.235
32775W        W99558  30.816  38.551  14.525
32776W        W99559   6.894  22.877   3.008
32777W        W99560  39.920  34.000   1.022
32778W        W99561  32.679  42.948   2.830
32779W        W99562  13.308  36.283   2.932
32780W        W99563  12.559  32.011   2.946
32781W        W99564  19.602  24.171   2.891
32782W        W99565  34.403  21.694   2.862
32783W        W99566  37.893  22.404   3.624
32784W        W99567  42.359   3.010  10.619
32785W        W99568  37.825   7.180  10.649
32786W        W99569  43.623  41.988  14.869
32787W        W99570   3.353  38.242   2.324
32788W        W99571  27.557  23.943  11.154
32789W        W99572  20.423  40.486  11.643
32790W        W99573   0.731  38.054   3.212
32791W        W99574  41.067  39.459   2.303
32792W        W99575  21.512  36.067   3.219
32793W        W99576   0.511  17.725  14.907
32794W        W99577  26.710  42.306   0.646
32795W        W99578  16.597  31.440   3.706
32796W        W99579  10.075  19.095  11.106
32797W        W99580  44.992   5.917   0.947
32798W        W99581  21.481   2.939  13.406
32799W        W99582  27.548  37.740  11.110
32800W        W99583   3.246  33.107   1.672
32801W        W99584  28.621  13.828  12.107
32802W        W99585  40.989  28.117  14.806
32803W        W99586  42.766  26.521   3.078
32804W        W99587  44.957  40.404  12.639
32805W        W99588  15.519   5.155   0.395
32806W        W99589  36.917  16.686   1.353
32807W        W99590  33.551  11.737   5.020
32808W        W99591  24.434  27.093  12.769
32809W        W99592  16.447  29.072   4.024
32810W        W99593   1.006  15.009   0.064
32811W        W99594  23.407  42.423   1.221
32812W        W99595  41.118  40.531   1.056
32813W        W99596   6.969  42.327   0.778
32814W        W99597  13.599  18.505  11.436
32815W        W99598  19.171  33.691  13.199
32816W        W99599  33.623   6.747   3.543
32817W        W99600  24.662  34.580   2.631
32818W        W99601  18.686   2.850   1.179
32819W        W99602  44.819  31.124  11.303
32820W        W99603  23.620  16.232   3.217
32821W        W99604  41.953  18.535   0.378
32822W        W99605  24.083  34.651   3.625
32823W        W99606  28.502   7.786   3.386
32824W        W99607  32.597  27.700   1.361
32825W        W99608  19.586   8.512  11.547
32826W        W99609  17.541   1.428  14.871
32827W        W99610   8.256  18.484   0.073
32828W        W99611  25.007  25.686  11.904
32829W        W99612  15.373  30.622   3.744
32830W        W99613  38.372  42.582   4.221
32831W        W99614  37.721  31.680  14.026
32832W        W99615  18.485  27.974   3.585
32833W        W99616  24.532  17.034   3.170
32834W        W99617  11.304  44.328  11.849
32835W        W99618   0.788  13.106   4.236
32836W        W99619   5.949  39.378   0.777
32837W        W99620  11.135  22.171   1.856
32838W        W99621  20.237  22.918  14.411
32839W        W99622   6.682   2.128   4.810
32840W        W99623  42.137  39.913  13.342
32841W        W99624  24.600   8.262  11.381
32842W        W99625  37.984  23.617  10.725
32843W        W99626  33.129  16.130  11.481
32844W        W99627  39.272  34.728   2.724
32845W        W99628   9.838   9.649   1.264
32846W        W99629  44.105  11.028  13.386
32847W        W99630  28.554  17.094   4.886
32848W        W99631  22.168  40.117   1.766
32849W        W99632  33.368  11.169   4.310
32850W        W99633  11.321  13.917  13.349
32851W        W99634  34.385   6.339   1.789
32852W        W99635  43.845  18.872  14.497
32853W        W99636  36.960  32.895   2.496
32854W        W99637   8.210  22.271   4.202
32855W        W99638  19.722  42.294  13.392
32856W        W99639   7.400  38.287  11.143
32857W        W99640   0.219  23.082   1.525
32858W        W99641  17.648   9.635   2.664
32859W        W99642  41.556  26.592  13.846
32860W        W99643   4.960  31.725   3.206
32861W        W99644  38.963  20.666   0.255
32862W        W99645  16.443  21.794  14.581
32863W        W99646   3.792  14.808   0.292
32864W        W99647  38.574  33.892  14.800
32865W        W99648  36.540   0.410  13.745
32866W        W99649  18.335  13.512   4.646
32867W        W99650  15.700  17.295   3.563
32868W        W99651  39.262  34.018  10.990
32869W        W99652  41.383  26.430  13.386
32870W        W99653  12.550  12.810  11.428
32871W        W99654  33.654  22.142  13.010
32872W        W99655   4.171   5.131   3.941
32873W        W99656  31.938  34.590  12.610
32874W        W99657  43.597  12.427   1.932
32875W        W99658  28.183  28.217   0.797
32876W        W99659  10.140  34.817   1.793
32877W        W99660  14.787  26.527  11.325
32878W        W99661   5.279  35.827  10.685
32879W        W99662  17.077   3.809   0.738
32880W        W99663   4.657  15.836   4.849
32881W        W99664  30.894  43.445  12.877
32882W        W99665  13.151  11.862   3.099
32883W        W99666   8.470  20.490  12.484
32884W        W99667   5.086   5.860   1.406
32885W        W99668  43.515  42.882  11.703
32886W        W99669  12.273  17.910  14.491
32887W        W99670  33.580  17.425  14.728
32888W        W99671  28.047   8.837  14.321
32889W        W99672   7.268  44.024  13.767
32890W        W99673  14.810  32.868  13.908
32891W        W99674  19.702  42.932   3.524
32892W        W99675   6.706  27.657  12.851
32893W        W99676  10.326  32.245  14.949
32894W        W99677  19.169   1.229   1.859
32895W        W99678   5.458  30.126   0.614
32896W        W99679  36.947  27.362   0.375
32897W        W99680  29.527  16.179   3.860
32898W        W99681  41.143  38.007  12.520
32899W        W99682  28.627  42.276  11.905
32900W        W99683  35.562   1.942  11.677
32901W        W99684  25.659  20.423  13.412
32902W        W99685  30.464  28.510  13.599
32903W        W99686  31.083  33.084  12.096
32904W        W99687  22.714  16.615  13.507
32905W        W99688   2.330  27.959   3.753
32906W        W99689  34.921  19.874   0.377
32907W        W99690  25.410  43.087  13.875
32908W        W99691  10.869   0.307  12.880
32909W        W99692  13.353  33.229   4.915
32910W        W99693  37.914  42.652   3.086
32911W        W99694  44.560   5.546   1.333
32912W        W99695   9.313  13.405   3.124
32913W        W99696  18.653  14.724  14.325
32914W        W99697  38.961  13.103   4.561
32915W        W99698  37.937  14.252   1.418
32916W        W99699  28.866   4.314  13.908
32917W        W99700  21.724  34.360  12.914
32918W        W99701   6.579  30.066   4.742
32919W        W99702   1.899  12.574   1.905
32920W        W99703  39.250  33.297   2.328
32921W        W99704   2.606  10.996   2.404
32922W        W99705   1.191  23.169   0.187
32923W        W99706   8.264  28.858   3.196
32924W        W99707  20.023  39.007  10.547
32925W        W99708  34.872  40.551  12.559
32926W        W99709  39.854  14.721  12.004
32927W        W99710  24.911   2.250  13.378
32928W        W99711  33.352  18.247  12.047
32929W        W99712  34.369   3.727  11.876
32930W        W99713  29.200  35.181   3.236
32931W        W99714  38.434   8.000   1.698
32932W        W99715  17.621   6.605  12.455
32933W        W99716  35.594  22.528   3.545
32934W        W99717  20.968  21.543  11.035
32935W        W99718   2.676  19.874  13.351
32936W        W99719  33.344  43.454  12.873
32937W        W99720   9.290  13.048  13.081
32938W        W99721  27.883  28.364   2.011
32939W        W99722  32.632  42.971  11.012
32940W        W99723  42.913  11.330  10.539
32941W        W99724  36.503   2.423  12.931
32942W        W99725   5.019  32.007  11.993
32943W        W99726  14.099   7.696   1.753
32944W        W99727  24.500  31.276  14.060
32945W        W99728   3.891  40.277  11.555
32946W        W99729  25.102  24.067   3.738
32947W        W99730  18.665   0.704  14.355
32948W        W99731   4.853  38.623  12.056
32949W        W99732  10.962  17.541   4.060
32950W        W99733  16.298  12.362  12.942
32951W        W99734  37.755  19.567   4.713
32952W        W99735  21.418  21.576   0.434
32953W        W99736  27.386  24.912   0.403
32954W        W99737   0.010  25.691   3.576
32955W        W99738   1.725  28.177   2.824
32956W        W99739   5.220  35.439   3.343
32957W        W99740  16.692   4.478   1.886
32958W        W99741  44.902  37.853   2.779
32959W        W99742  25.338  40.037  12.155
32960W        W99743  29.687   2.381   0.006
32961W        W99744   1.330  25.018   2.235
32962W        W99745  30.677  20.674   4.506
32963W        W99746  23.699  10.800  14.741
32964W        W99747   8.425   0.894   4.772
32965W        W99748  11.782  31.904  12.170
32966W        W99749  14.881  17.885  13.948
32967W        W99750  30.728  24.122  13.100
32968W        W99751  21.917  30.099  10.647
32969W        W99752  16.900  35.898  10.805
32970W        W99753  26.936  32.351  14.978
32971W        W99754   1.751  37.509   1.988
32972W        W99755  28.212  31.090   0.764
32973W        W99756  11.412  41.197   0.232
32974W        W99757   4.885  15.724  11.202
32975W        W99758  37.501  14.295  11.891
32976W        W99759  22.990  23.902  12.047
32977W        W99760  30.532  35.540   3.916
32978W        W99761  40.105  12.859   3.753
32979W        W99762  22.708   4.990  13.523
32980W        W99763   2.510   7.747   2.959
32981W        W99764   6.600  13.194  11.769
32982W        W99765  18.344  34.038   2.760
32983W        W99766   1.383  22.360  12.445
32984W        W99767  26.101  14.144  11.955
32985W        W99768  23.052  28.538  12.523
32986W        W99769  20.583  14.258   4.098
32987W        W99770  39.878   8.875  13.610
32988W        W99771  33.602  43.886  14.775
32989W        W99772  21.339  27.133  13.488
32990W        W99773  42.688  42.031   4.094
32991W        W99774  36.008  40.872   1.254
32992W        W99775  40.280  26.662   0.319
32993W        W99776  31.322  33.736  12.951
32994W        W99777  27.451  17.102   2.753
32995W        W99778  11.167  44.979  14.458
32996W        W99779  22.695  37.589   0.815
32997W        W99780  40.319  29.035  11.140
32998W        W99781  25.045  18.466  14.002
32999W        W99782   7.960  43.873   4.582
33000W        W99783  31.910   4.800  10.734
33001W        W99784  34.592   9.724   1.712
33002W        W99785  38.814  34.418   1.324
33003W        W99786  44.890   3.977   2.124
33004W        W99787  42.316   4.053   1.296
33005W        W99788   7.863  42.885   2.641
33006W        W99789   1.765  18.275   4.916
33007W        W99790  15.898  13.152   3.104
33008W        W99791   9.640   8.319   1.460
33009W        W99792  16.661  34.319  10.123
33010W        W99793   4.319  25.226  10.442
33011W        W99794  44.976  12.656  13.402
33012W        W99795   2.760  20.122   2.108
33013W        W99796  38.439  42.760  13.524
33014W        W99797   7.161  26.662   3.631
33015W        W99798  30.880  19.138   0.086
33016W        W99799  15.841  40.164   0.532
33017W        W99800   8.677  42.327  10.630
33018W        W99801  26.946   0.741  11.638
33019W        W99802  43.035  23.064  13.397
33020W        W99803   4.301  15.386  13.328
33021W        W99804  33.410  25.237   2.491
33022W        W99805   8.509   0.522  13.045
33023W        W99806   7.752  17.400   2.705
33024W        W99807  26.350  16.470  14.773
33025W        W99808  23.398  14.324   0.090
33026W        W99809  42.833  11.414  12.871
33027W        W99810   5.644  21.443  11.575
33028W        W99811  32.265  35.443  12.816
33029W        W99812   8.319  27.222  11.926
33030W        W99813  18.565   8.227   2.533
33031W        W99814  21.240  26.565  12.409
33032W        W99815   9.810  34.096  11.110
33033W        W99816  35.927   0.468   0.296
33034W        W99817   5.995  33.919  12.858
33035W        W99818  44.247  19.351  11.124
33036W        W99819   3.412  31.457  12.499
33037W        W99820  34.088  31.820  14.115
33038W        W99821  44.493   9.265  13.924
33039W        W99822  43.231  11.602  12.493
33040W        W99823   4.893  24.959  11.981
33041W        W99824  44.212   8.161   0.749
33042W        W99825  44.144  26.647   1.952
33043W        W99826  18.195  23.522   3.546
33044W        W99827   9.206  11.249  13.521
33045W        W99828  16.243  12.785  11.123
33046W        W99829  11.218  14.360   4.114
33047W        W99830  26.673   3.926  11.535
33048W        W99831  39.515  24.077   0.852
33049W        W99832  14.737  32.680   0.284
33050W        W99833   0.880   2.760   0.784
33051W        W99834   9.284  15.801   4.546
33052W        W99835   3.515   0.718  10.741
33053W        W99836  37.573  25.683  13.674
33054W        W99837  11.334  25.491   4.634
33055W        W99838  42.346  41.117  11.162
33056W        W99839  28.434  16.710   3.621
33057W        W99840  34.879  14.035   4.053
33058W        W99841  39.390  28.095   4.677
33059W        W99842   8.668   7.725  10.110
33060W        W99843  39.401   9.283   3.768
33061W        W99844  28.997  39.062   3.017
33062W        W99845   9.120   0.031  10.920
33063W        W99846  17.276  17.709   2.989
33064W        W99847   8.999  33.291   1.899
33065W        W99848   0.200  20.683  14.843
33066W        W99849  23.103  16.162  11.754
33067W        W99850  13.137  15.741   4.152
33068W        W99851   4.007  20.511   1.891
33069W        W99852  29.702  25.297  11.982
33070W        W99853  43.494  33.003  12.207
33071W        W99854  31.132  20.783   3.853
33072W        W99855  27.141  18.020   0.968
33073W        W99856   8.989  16.881  14.842
33074W        W99857  35.566  19.735   0.290
33075W        W99858  25.893  38.376  13.221
33076W        W99859   8.687  35.605  11.361
33077W        W99860  36.342  21.064   1.267
33078W        W99861  34.560  11.594  13.546
33079W        W99862  43.372  24.962   4.208
33080W        W99863  23.069  22.146  13.412
33081W        W99864  40.222  10.938   0.899
33082W        W99865  25.605  25.014   3.392
33083W        W99866  13.663   5.291  11.193
33084W        W99867   0.819  34.421   0.180
33085W        W99868  18.269  14.610  11.078
33086W        W99869  21.285   4.573  11.032
33087W        W99870   7.292   1.924   3.702
33088W        W99871  38.275  32.359  11.510
33089W        W99872  39.854  32.369  13.798
33090W        W99873  37.982  41.815  11.453
33091W        W99874  10.724   2.619   2.045
33092W        W99875   0.289  27.730   1.161
33093W        W99876  20.119  14.657  13.792
33094W        W99877  10.171  39.756  12.460
33095W        W99878  32.035  20.787   1.270
33096W        W99879  21.481  12.663  12.682
33097W        W99880  40.503   7.261  12.429
33098W        W99881   3.742  35.931  12.748
33099W        W99882  38.989  27.561  12.107
33100W        W99883  13.940  38.729   5.096
33101W        W99884  43.352  18.562   1.215
33102W        W99885  20.475   0.390   0.228
33103W        W99886  11.399  43.940  13.445
33104W        W99887  44.607   2.806   3.186
33105W        W99888   7.045   8.688   1.953
33106W        W99889  28.977  33.635   3.147
33107W        W99890  22.165  25.605  12.648
33108W        W99891   5.648  41.050  12.861
33109W        W99892  29.639  13.681  11.711
33110W        W99893  12.668  43.605  13.493
33111W        W99894  35.969   2.728  11.236
33112W        W99895  29.002  24.135   0.638
33113W        W99896  24.277  30.960   4.626
33114W        W99897  37.092  44.792   4.980
33115W        W99898  15.039  22.623  10.957
33116W        W99899  24.948  16.130   3.765
33117W        W99900   4.206  34.155  13.440
33118W        W99901  18.124  11.812  10.735
33119W        W99902  16.746  12.064   4.198
33120W        W99903  27.374  38.512   2.396
33121W        W99904  16.358  11.279  11.460
33122W        W99905  12.675  33.565   4.589
33123W        W99906  35.755  10.876   3.052
33124W        W99907   8.694  41.463   0.349
33125W        W99908   6.643   9.666  14.473
33126W        W99909   7.046   0.697  14.984
33127W        W99910  24.117  16.844   2.935
33128W        W99911   6.185  32.088   4.900
33129W        W99912  27.621   8.390   4.975
33130W        W99913   4.512   2.792   0.868
33131W        W99914  44.373   5.303   4.100
33132W        W99915  24.293  40.503  11.283
33133W        W99916   1.700   0.896   4.794
33134W        W99917  11.879  42.739  14.853
33135W        W99918  30.947  39.967   2.338
33136W        W99919   6.157  36.443   1.690
33137W        W99920  36.620  18.528  12.790
33138W        W99921  35.283  43.874   0.354
33139W        W99922  43.573  26.558   1.896
33140W        W99923  40.522  44.965   4.547
33141W        W99924  30.122  34.977   4.290
33142W        W99925   7.405  17.386   1.251
33143W        W99926  14.294  18.692  11.579
33144W        W99927  20.283   2.254  13.460
33145W        W99928  11.049  36.571  13.448
33146W        W99929  20.203   4.466  13.084
33147W        W99930  24.882  19.312   2.286
33148W        W99931  11.896  35.623   2.629
33149W        W99932   8.213  33.579  13.383
33150W        W99933   9.419   7.472   3.927
33151W        W99934  33.941  33.419   3.288
33152W        W99935  24.277  42.127  10.315
33153W        W99936  26.065   8.199   4.360
33154W        W99937   7.254  22.519   3.169
33155W        W99938  18.715   0.282   0.309
33156W        W99939  15.312  13.740  11.995
33157W        W99940  40.571  16.731  13.796
33158W        W99941  10.716  40.336  14.432
33159W        W99942   7.479   6.810   4.861
33160W        W99943   5.670  22.321   1.225
33161W        W99944   8.050   8.742   5.134
33162W        W99945   4.945   5.165  11.656
33163W        W99946  33.327  25.115   5.118
33164W        W99947  30.119  33.884  11.706
33165W        W99948   6.565  17.156  11.564
33166W        W99949  36.454   4.313   3.121
33167W        W99950  13.343   7.926  10.170
33168W        W99951  19.582  39.676   2.867
33169W        W99952  36.944  15.321   2.799
33170W        W99953  44.006   0.465   3.878
33171W        W99954   4.445  29.535   3.189
33172W        W99955  43.778   1.471   2.084
33173W        W99956  33.893  37.465  14.249
33174W        W99957   3.477  24.368   0.327
33175W        W99958  16.880   8.115   3.889
33176W        W99959   0.856  17.011  11.968
33177W        W99960  34.793  20.140  13.327
33178W        W99961  37.125  23.802  14.760
33179W        W99962   3.846  42.860   3.198
33180W        W99963   1.299  33.647  10.447
33181W        W99964  38.995  43.975  12.863
33182W        W99965  35.133  17.219  11.257
33183W        W99966  21.321  21.437   4.149
33184W        W99967  37.423  39.381  12.920
33185W        W99968  31.981  32.549   0.522
33186W        W99969  43.856   8.151   3.395
33187W        W99970  27.999  28.125  14.463
33188W        W99971  23.092  22.707   0.372
33189W        W99972  29.161  28.364   0.779
33190W        W99973  38.888  32.039  11.097
33191W        W99974  30.135   3.634   4.014
33192W        W99975  36.002   9.036  12.891
33193W        W99976  32.977   8.517   3.677
33194W        W99977  13.808  17.781   1.197
33195W        W99978  34.833  31.402  10.393
33196W        W99979  14.576   4.327  10.979
33197W        W99980  13.273  23.894   4.139
33198W        W99981  28.503  44.939  12.228
33199W        W99982  32.491  40.064  12.393
33200W        W99983  16.354   3.373   4.261
33201W        W99984  29.575  13.576  14.432
33202W        W99985  23.221  30.617  11.755
33203W        W99986  38.919  20.417   4.463
33204W        W99987  13.120   2.560  12.858
33205W        W99988  26.496  10.831  12.915
33206W        W99989  42.246  19.129  13.443
33207W        W99990  11.585  29.758   0.524
33208W        W99991  16.887   3.222   0.398
33209W        W99992  16.275  43.775  11.043
33210W        W99993  26.252   1.140   4.602
33211W        W99994  44.037  33.642  12.816
33212W        W99995  37.309  21.041  13.445
33213W        W99996  10.753  10.871   1.859
33214W        W99997  40.509   9.403   1.313
33215W        W99998   0.937  37.883   3.653
33216W        W99999  30.506  39.380  10.760
33217W        W    0  36.926  40.393   2.240
33218W        W    1  20.190  40.225  12.925
33219W        W    2   9.203  19.823  11.094
33220W        W    3  22.387  32.889   1.673
33221W        W    4  43.474  20.412   1.357
33222W        W    5  29.866  26.990   0.991
33223W        W    6  31.414  41.042   0.851
33224W        W    7   6.248  14.177  12.048
33225W        W    8  30.447  34.904   1.769
33226W        W    9   9.159  32.474  10.634
33227W        W   10  11.733  12.333   1.393
33228W        W   11  27.564  36.462   2.578
33229W        W   12  18.584  21.965   3.192
33230W        W   13  34.403  39.581   4.945
33231W        W   14  26.051  23.962  13.336
33232W        W   15  37.766  38.599  11.499
33233W        W   16  40.497   5.186   0.498
33234W        W   17  43.200  27.106   2.486
33235W        W   18  11.773   2.911   0.764
33236W        W   19  37.284   7.295   2.036
33237W        W   20  40.396   8.057   2.163
33238W        W   21  26.920  14.368   0.384
33239W        W   22  13.028  17.124   1.910
33240W        W   23  24.909   7.745   4.024
33241W        W   24  44.421  40.975  12.827
33242W        W   25  29.176  19.347  14.805
33243W        W   26  24.933  14.837  11.589
33244W        W   27  22.409  19.124   3.790
33245W        W   28  19.605  33.041  14.077
33246W        W   29   7.350  38.054  14.642
33247W        W   30   1.858   5.651   4.444
33248W        W   31  41.793  41.360   4.142
33249W        W   32   8.375  23.993  14.535
33250W        W   33  27.457   2.727   0.981
33251W        W   34  16.781  25.230   0.206
33252W        W   35  13.675  43.940  11.933
33253W        W   36  41.678  28.548   4.498
33254W        W   37  22.319  44.732   2.776
33255W        W   38  21.294  40.002  11.649
33256W        W   39  35.934  42.709   2.505
33257W        W   40  14.335  32.334   4.198
33258W        W   41  17.848   7.775   2.679
33259W        W   42   7.174  29.998  10.499
33260W        W   43  43.790  14.682  14.321
33261W        W   44  17.204  10.763  12.157
33262W        W   45   5.669   8.202  11.690
33263W        W   46   2.979  13.287  11.481
33264W        W   47  17.608  18.835   1.359
33265W        W   48   5.404  40.350  14.343
33266W        W   49  33.030  22.670   2.791
33267W        W   50  26.169   5.731  14.409
33268W        W   51  14.847   8.465  14.957
33269W        W   52  26.764  39.287  10.285
33270W        W   53  25.914   2.467  10.540
33271W        W   54  12.798  28.150  12.328
33272W        W   55  10.753  22.485   3.654
33273W        W   56  29.883  19.548   2.653
33274W        W   57  17.800  44.600   2.287
33275W        W   58  16.245  39.453  10.959
33276W        W   59  33.060  33.348  12.094
33277W        W   60  12.128  13.085   0.989
33278W        W   61   3.890  40.338   3.141
33279W        W   62   3.156   2.158   4.968
33280W        W   63  14.597  21.068  12.576
33281W        W   64  43.375  44.826   0.247
33282W        W   65   0.210  29.172   4.662
33283W        W   66  39.506  16.746   4.222
33284W        W   67  10.831  28.580   4.562
33285W        W   68  44.778  36.466  14.215
33286W        W   69  19.164  25.229  12.180
33287W        W   70  38.616   1.946  13.511
33288W        W   71  39.491   8.668   3.219
33289W        W   72   5.293  36.436  13.381
33290W        W   73  24.589  21.209  13.855
33291W        W   74   5.898  37.219  13.386
33292W        W   75  29.032  11.312  11.396
33293W        W   76  24.375   9.816  12.768
33294W        W   77  17.315   4.623   3.607
33295W        W   78  32.521  40.062   0.952
33296W        W   79  22.413   7.416  11.131
33297W        W   80  40.745  20.913  14.713
33298W        W   81  35.019  18.911  14.390
33299W        W   82  37.061  10.907   3.762
33300W        W   83  33.527  31.547   3.354
33301W        W   84  36.360   0.974   0.235
33302W        W   85   4.000   6.740  13.967
33303W        W   86  19.594  15.745   0.279
33304W        W   87  42.995  43.933   1.678
33305W        W   88  44.887  43.277   0.187
33306W        W   89  15.279   2.995  13.597
33307W        W   90   5.666  33.945   4.172
33308W        W   91  28.569  43.996   3.128
33309W        W   92  26.202   4.301   1.296
33310W        W   93  38.059   2.706   0.909
33311W        W   94  12.161  23.360  11.772
33312W        W   95   2.345  40.003   3.575
33313W        W   96   1.206   3.248  10.657
33314W        W   97   8.183  15.991  13.848
33315W        W   98  23.993   9.539  14.007
33316W        W   99  31.952  21.579  14.504
33317W        W  100  44.578   5.475  12.774
33318W        W  101  33.012  33.205  13.055
33319W        W  102  26.918  41.337   1.726
33320W        W  103   3.168  29.644   4.583
33321W        W  104  30.651   4.302  14.381
33322W        W  105  21.518   7.410   2.264
33323W        W  106  34.446  30.609   2.931
33324W        W  107  22.662  29.357   1.881
33325W        W  108  20.929  42.002   4.505
33326W        W  109  10.214  35.795  13.093
33327W        W  110  42.776  36.064   2.838
33328W        W  111   4.702  23.949   1.363
33329W        W  112  16.501  40.575   3.244
33330W        W  113  38.831  16.999   2.630
33331W        W  114   2.159  31.946  12.286
33332W        W  115  31.906   4.392   1.528
33333W        W  116  41.947  13.065   3.956
33334W        W  117  22.717  30.926   1.726
33335W        W  118  16.521  43.366  13.428
33336W        W  119  29.537   0.331  12.356
33337W        W  120  16.156  41.208  12.900
33338W        W  121  33.123  16.166   3.184
33339W        W  122  37.849  43.013  10.868
33340W        W  123  19.645  28.581  10.377
33341W        W  124   6.158   6.833  13.424
33342W        W  125  25.889   6.895  14.943
33343W        W  126  43.734  23.044   0.645
33344W        W  127  18.313   6.430   2.639
33345W        W  128  17.624  21.914   2.878
33346W        W  129  12.681  26.882  13.525
33347W        W  130   0.385  39.094  14.394
33348W        W  131  29.559  14.209  13.443
33349W        W  132  10.836  28.551  14.215
33350W        W  133   1.476  23.213  11.130
33351W        W  134  22.251  31.822  13.766
33352W        W  135   5.836  29.968   4.057
33353W        W  136  26.407  32.692   2.295
33354W        W  137   4.387   4.408   3.507
33355W        W  138  21.171  12.146   3.595
33356W        W  139  29.910  28.001  13.046
33357W        W  140   8.109  16.717   3.987
33358W        W  141  23.100  33.219   3.669
33359W        W  142   5.967  15.341  11.597
33360W        W  143   4.396   8.317   1.163
33361W        W  144  10.237  20.300   3.251
33362W        W  145  25.168  36.338   3.814
33363W        W  146  26.793  34.844  11.353
33364W        W  147  21.819  23.612  13.476
33365W        W  148  43.920  26.495  11.695
33366W        W  149  40.644  35.445  10.745
33367W        W  150  31.157   4.400  14.333
33368W        W  151  15.628   7.602   3.729
33369W        W  152   4.445  26.155   3.373
33370W        W  153  16.795  32.936   2.929
33371W        W  154  23.754  33.325  11.553
33372W        W  155   6.835  17.742   3.728
33373W        W  156  40.968  37.299   3.660
33374W        W  157   4.395  33.802   4.668
33375W        W  158  13.225  14.295   4.509
33376W        W  159  29.663  35.832   4.711
33377W        W  160  29.601  34.007  13.386
33378W        W  161  15.815  19.775  12.555
33379W        W  162  36.160  38.610  12.880
33380W        W  163  16.212  30.161   0.575
33381W        W  164   3.447  30.529   4.132
33382W        W  165  15.554  43.932   1.092
33383W        W  166  29.795  40.529   3.668
33384W        W  167   7.941  20.040  10.719
33385W        W  168   2.441  37.285   0.786
33386W        W  169  35.918  23.219  10.634
33387W        W  170  17.183  11.239  13.094
33388W        W  171  25.181   9.468   2.236
33389W        W  172  37.876  34.966  11.678
33390W        W  173  32.658  31.707   0.057
33391W        W  174  40.219  14.023  13.048
33392W        W  175  35.613  24.516   1.421
33393W        W  176  26.203  11.898   1.225
33394W        W  177  27.281  12.970  10.814
33395W        W  178  26.080  41.146   4.233
33396W        W  179  20.024  38.865   2.845
33397W        W  180  18.651  43.944   3.730
33398W        W  181  37.340  19.734   1.391
33399W        W  182  29.481  24.082  12.170
33400W        W  183  28.717  27.473  14.291
33401W        W  184  22.435   3.808  10.777
33402W        W  185   2.043   2.258   4.745
33403W        W  186  27.686  10.433   3.182
33404W        W  187  35.881  32.073  13.462
33405W        W  188  32.322  38.885   1.785
33406W        W  189  16.009  36.020  14.109
33407W        W  190  28.696  13.291  12.413
33408W        W  191  31.111   7.234   0.726
33409W        W  192  34.857  38.878  13.696
33410W        W  193  11.042  37.482   4.646
33411W        W  194  35.921  10.082  13.031
33412W        W  195   3.223  17.300   1.674
33413W        W  196  38.582  18.135   0.326
33414W        W  197  13.984  15.154   4.299
33415W        W  198  18.569   8.217  11.492
33416W        W  199   3.386  31.912  10.662
33417W        W  200  11.265   4.532  14.882
33418W        W  201  13.698  42.325  12.456
33419W        W  202   3.712  43.568   0.291
33420W        W  203  34.862   4.766   4.646
33421W        W  204  39.303  27.026  11.517
33422W        W  205  21.732  42.959   3.791
33423W        W  206  22.143  13.153   2.863
33424W        W  207  36.619  44.159  14.908
33425W        W  208  14.523  35.951  13.469
33426W        W  209  27.903  24.157   1.460
33427W        W  210  31.357  13.666  11.142
33428W        W  211  44.009  28.196   4.194
33429W        W  212  35.400  40.274  13.744
33430W        W  213  43.492   9.765   4.141
33431W        W  214  13.289  11.895  12.949
33432W        W  215   2.499  22.652  13.922
33433W        W  216  13.293  25.024  13.043
33434W        W  217   5.731   7.981  13.446
33435W        W  218   7.812  13.365   4.253
33436W        W  219  18.796  30.396  10.028
33437W        W  220  23.621   6.366  14.329
33438W        W  221  39.624  21.042   1.748
33439W        W  222  40.028  30.882   1.296
33440W        W  223  43.250   9.350  13.076
33441W        W  224  13.238  27.498   3.719
33442W        W  225  31.107  15.711  11.909
33443W        W  226  20.229   6.534  14.279
33444W        W  227  19.262  32.002  10.888
33445W        W  228  29.170   0.233   4.147
33446W        W  229   9.737  38.480   2.774
33447W        W  230   2.958   3.871   0.741
33448W        W  231  21.071  27.634  13.365
33449W        W  232   8.790  39.826   0.229
33450W        W  233  20.294  20.242   0.309
33451W        W  234  34.447  21.181   3.761
33452W        W  235   3.550  10.837  10.558
33453W        W  236   0.185  40.155   0.308
33454W        W  237   8.730   0.944   1.172
33455W        W  238   5.698  35.944   4.094
33456W        W  239   3.064  42.043  11.320
33457W        W  240   3.905  26.324   0.101
33458W        W  241  34.558  35.896   0.000
33459W        W  242  24.070  23.093   1.363
33460W        W  243  36.358   9.449  13.005
33461W        W  244  39.699   2.237   2.841
33462W        W  245  24.540  23.641  10.694
33463W        W  246   0.015  37.167  12.008
33464W        W  247  31.489  20.012  13.877
33465W        W  248  31.986   3.724  10.883
33466W        W  249  28.680   0.318   3.171
33467W        W  250  23.679  36.032   4.082
33468W        W  251   6.753   4.591   4.754
33469W        W  252  28.767  39.872   2.198
33470W        W  253  42.765  20.482   4.177
33471W        W  254  20.703   6.960  11.280
33472W        W  255   9.114  32.503  12.810
33473W        W  256  28.561   0.380  14.796
33474W        W  257  15.037  27.074   3.612
33475W        W  258  38.286   1.880   1.155
33476W        W  259   1.408   9.059  11.103
33477W        W  260  28.480  29.632   4.558
33478W        W  261  10.026  11.813  13.816
33479W        W  262  28.931   8.531   4.684
33480W        W  263  38.528  38.013  11.400
33481W        W  264  25.577   2.204   0.020
33482W        W  265  44.846   1.625  14.132
33483W        W  266   1.492  44.823  14.849
33484W        W  267  14.715  32.838  12.599
33485W        W  268   1.835  21.256   1.099
33486W        W  269  23.419  44.847   1.286
33487W        W  270  11.341  26.763   2.015
33488W        W  271   6.667   6.789   0.747
33489W        W  272  26.135  10.377  13.272
33490W        W  273  15.653  35.612   3.725
33491W        W  274   5.396  37.885   3.345
33492W        W  275  30.028   8.897   2.357
33493W        W  276   4.762  11.031   1.898
33494W        W  277  13.590   9.243   2.310
33495W        W  278  35.972   0.258  14.393
33496W        W  279  33.458  33.684   0.996
33497W        W  280  37.480  14.336   3.294
33498W        W  281  43.727  37.984  13.121
33499W        W  282  15.876  32.848  13.673
33500W        W  283  28.074   2.272  13.024
33501W        W  284  14.366  18.466   0.868
33502W        W  285  39.996  29.717   0.366
33503W        W  286  23.154  44.293  13.087
33504W        W  287  29.519  21.692  12.416
33505W        W  288  22.503  14.016   1.722
33506W        W  289  10.638  31.912   3.642
33507W        W  290  37.820  11.326  12.049
33508W        W  291  22.925  20.517  11.979
33509W        W  292  36.656  40.181  13.896
33510W        W  293   3.817  12.721   4.762
33511W        W  294  41.547  33.095   1.353
33512W        W  295  32.688  25.065  13.794
33513W        W  296  21.173  39.344  14.452
33514W        W  297  18.699  42.535  12.836
33515W        W  298  44.464  19.984  11.671
33516W        W  299  35.077  23.505  12.837
33517W        W  300  20.829  35.132  13.685
33518W        W  301  22.020  44.840  12.575
33519W        W  302  28.917  30.644   1.413
33520W        W  303  43.918   7.236   1.883
33521W        W  304  22.388  27.893   2.169
33522W        W  305  36.759  30.108  11.568
33523W        W  306  18.866  18.173  13.769
33524W        W  307  41.873   6.469   0.353
33525W        W  308  40.041  15.360   4.897
33526W        W  309  42.516  11.746   1.972
33527W        W  310  34.450  26.703   4.241
33528W        W  311  41.194  28.229  11.193
33529W        W  312  17.197  15.733   1.867
33530W        W  313  41.994  41.872  12.415
33531W        W  314   2.331  30.875  13.055
33532W        W  315  14.650  41.445  13.378
33533W        W  316  15.837  30.980  14.638
33534W        W  317  34.850  20.186   2.213
33535W        W  318  12.832  40.133   2.521
33536W        W  319   4.892  13.606   0.187
33537W        W  320  17.660  44.270  13.849
33538W        W  321   7.143  32.906  11.193
33539W        W  322  17.528  25.044  11.555
33540W        W  323  33.356  44.886   0.187
33541W        W  324  44.233  30.502   4.695
33542W        W  325  17.797  42.592   2.304
33543W        W  326  42.398   1.434   1.206
33544W        W  327  29.830  27.593  12.560
33545W        W  328   7.841  40.976   4.803
33546W        W  329  41.856  26.370  12.098
33547W        W  330  40.859   3.199  12.078
33548W        W  331  26.442  31.937  11.618
33549W        W  332  36.004  13.304   0.033
33550W        W  333  10.380  30.134  12.950
33551W        W  334  38.339  43.016  11.140
33552W        W  335  11.167  36.673   3.593
33553W        W  336  18.681  20.070  12.622
33554W        W  337  35.359   3.817  12.262
33555W        W  338   9.480  36.193   4.890
33556W        W  339  27.145   5.463   3.160
33557W        W  340  18.822  41.766  13.549
33558W        W  341  19.714  24.277   1.695
33559W        W  342  36.374  15.626  13.944
33560W        W  343  32.614  13.112  14.437
33561W        W  344  22.493   5.314   2.447
33562W        W  345  18.783  13.211  14.961
33563W        W  346  25.177  43.107  11.723
33564W        W  347   9.287  21.416  14.544
33565W        W  348  24.587   6.837   1.434
33566W        W  349  35.654  13.290   3.771
33567W        W  350  37.771  41.078  11.086
33568W        W  351  32.954  23.445  13.463
33569W        W  352  22.184  32.911   4.114
33570W        W  353  22.760  42.784   3.683
33571W        W  354  37.269   0.593  12.628
33572W        W  355  43.978  33.860  13.561
33573W        W  356  40.066  34.973   4.176
33574W        W  357  15.184   4.001   4.037
33575W        W  358   0.498   6.342   4.163
33576W        W  359  43.482   0.418  11.689
33577W        W  360   1.801  35.347   1.289
33578W        W  361  23.472  36.309  12.947
33579W        W  362   6.723   8.433  13.843
33580W        W  363  12.633  14.590  13.128
33581W        W  364  33.057  33.385   3.298
33582W        W  365   9.602  44.837  12.058
33583W        W  366  32.093  24.082   4.487
33584W        W  367  22.631  44.194   5.209
33585W        W  368  10.627  26.173  14.816
33586W        W  369  10.685  28.308  13.190
33587W        W  370  13.709  33.002   2.300
33588W        W  371  42.823   0.529   2.246
33589W        W  372  24.769   6.678  14.435
33590W        W  373  32.417   7.551  13.938
33591W        W  374  34.276  29.939  12.908
33592W        W  375  30.807  36.024   4.265
33593W        W  376  16.343  14.550  10.673
33594W        W  377  12.298  14.040  14.366
33595W        W  378  41.774   0.097  14.533
33596W        W  379  20.526  23.972  13.846
33597W        W  380  41.897  18.533  12.390
33598W        W  381  17.020   3.656  12.100
33599W        W  382  22.116  39.937  11.459
33600W        W  383  30.615  29.718   4.445
33601W        W  384   0.673  43.293  14.622
33602W        W  385  10.686  29.288  12.040
33603W        W  386   9.875  40.624  12.462
33604W        W  387  20.101  43.028   4.868
33605W        W  388  27.154  37.303   4.193
33606W        W  389  25.513  29.336   5.583
33607W        W  390  19.506  32.590   4.347
33608W        W  391  26.459  13.781   5.067
33609W        W  392   1.312  41.554  13.936
33610W        W  393  24.203  39.820  14.877
33611W        W  394   7.449  18.135   0.375
33612W        W  395  18.866  35.348  13.456
33613W        W  396  34.342  19.110  12.487
33614W        W  397  33.641  14.225  11.248
33615W        W  398   3.888  34.131  12.486
33616W        W  399  19.285  27.081  11.508
33617W        W  400   2.688  26.223  14.742
33618W        W  401  12.198   8.670  12.130
33619W        W  402  10.795  37.077  11.649
33620W        W  403  42.539  34.559   1.481
33621W        W  404  27.745  16.617  11.000
33622W        W  405   6.476   5.138   2.755
33623W        W  406  19.544  10.237  12.018
33624W        W  407  17.417   6.440   3.640
33625W        W  408   9.901  41.812  13.243
33626W        W  409  16.999  19.887   0.635
33627W        W  410   0.527  13.087   0.875
33628W        W  411  15.977  41.808  11.058
33629W        W  412   1.175  16.530  13.764
33630W        W  413  13.873  33.977  13.137
33631W        W  414   0.450  42.866  12.596
33632W        W  415  11.063  38.357  14.894
33633W        W  416  25.062  32.561  10.351
33634W        W  417  12.146  24.295   3.579
33635W        W  418   4.707  41.230   1.581
33636W        W  419  20.343  10.149   1.748
33637W        W  420  25.648  28.600  12.506
33638W        W  421   2.093  19.246   1.779
33639W        W  422  40.453  38.023   1.208
33640W        W  423  27.025  44.083  10.262
33641W        W  424  20.266   8.245  10.860
33642W        W  425  35.606  32.746  13.384
33643W        W  426   6.018   8.326   0.887
33644W        W  427  23.834  12.086  11.451
33645W        W  428   6.624   8.407  11.516
33646W        W  429  33.175  36.479  12.421
33647W        W  430  14.179   7.146  11.585
33648W        W  431  32.604   2.538  13.954
33649W        W  432  19.035  44.942  10.447
33650W        W  433  24.559  30.940   2.884
33651W        W  434  39.382  42.764   1.843
33652W        W  435  24.288   1.979  14.215
33653W        W  436   0.963  18.749   2.281
33654W        W  437   2.346   1.615   0.772
33655W        W  438  24.987  10.661   0.095
33656W        W  439  10.364   4.893   0.953
33657W        W  440  25.432  22.552  10.571
33658W        W  441   6.629  38.468   2.797
33659W        W  442  11.916   1.207  11.493
33660W        W  443   8.287   8.506   0.409
33661W        W  444  21.520  17.739  13.047
33662W        W  445  21.536  25.192   2.797
33663W        W  446   0.759  20.888  13.545
33664W        W  447  21.229  44.792   0.311
33665W        W  448  37.565  18.730   0.366
33666W        W  449  35.370  37.330  12.492
33667W        W  450  44.469  13.433   4.623
33668W        W  451  15.196   5.212  13.562
33669W        W  452  40.302   6.661  10.565
33670W        W  453   4.108  20.318   1.421
33671W        W  454   5.790  36.789   1.501
33672W        W  455   9.243   5.003   0.351
33673W        W  456   2.372  10.860  13.394
33674W        W  457  11.068   6.743   5.531
33675W        W  458  30.986   6.921  13.436
33676W        W  459  18.105  41.045   3.648
33677W        W  460   4.284  25.657   2.109
33678W        W  461  10.979  14.254   2.815
33679W        W  462  21.871  27.857   2.297
33680W        W  463  32.501  11.515  12.551
33681W        W  464  30.512   4.958   1.357
33682W        W  465  19.198  39.981  13.740
33683W        W  466   3.672  13.407   2.491
33684W        W  467  17.124  25.046   5.018
33685W        W  468  12.857  25.093  11.972
33686W        W  469  31.368  34.456  13.907
33687W        W  470  19.177  29.238  10.373
33688W        W  471  13.867  23.362  12.484
33689W        W  472  14.296   3.055   0.262
33690W        W  473  17.566  34.151   4.136
33691W        W  474  25.994  28.000  12.816
33692W        W  475  28.483  41.556   2.256
33693W        W  476  23.541  24.549  11.833
33694W        W  477  36.855   8.356   2.620
33695W        W  478   0.465  23.735  13.389
33696W        W  479   6.288  36.801   1.309
33697W        W  480   0.356  37.109  14.431
33698W        W  481  42.399  41.034   1.539
33699W        W  482  14.189  21.525   2.917
33700W        W  483   9.197  31.931   1.820
33701W        W  484   0.551  23.080  10.716
33702W        W  485  32.042   0.797   4.224
33703W        W  486  21.984  41.074  13.853
33704W        W  487  16.259  31.264  11.080
33705W        W  488  32.015  39.231  11.452
33706W        W  489  44.229  41.007  14.290
33707W        W  490  32.565  16.159   1.024
33708W        W  491  29.417  43.693   2.342
33709W        W  492  27.540  19.969   2.842
33710W        W  493  35.424  16.165   0.700
33711W        W  494  32.239  41.085  12.981
33712W        W  495  27.684   0.472  11.753
33713W        W  496  29.850  11.184   1.917
33714W        W  497   0.339  37.126  11.630
33715W        W  498  26.040  40.715  14.491
33716W        W  499  11.697  33.288   4.780
33717W        W  500  38.826   2.799  12.909
33718W        W  501  38.720  26.094  13.964
33719W        W  502   1.949  28.714  13.827
33720W        W  503  10.188  18.074  14.362
33721W        W  504  30.943  38.394   0.012
33722W        W  505   2.712  32.555  11.835
33723W        W  506   6.676  10.653  12.529
33724W        W  507  13.599  31.099   4.698
33725W        W  508   6.627  11.306   3.391
33726W        W  509  18.283  12.316   2.291
33727W        W  510  21.151  32.876   1.219
33728W        W  511  39.000  15.220  14.774
33729W        W  512  38.989  41.819  11.432
33730W        W  513  30.465  34.046   3.173
33731W        W  514   6.040  23.157  10.449
33732W        W  515   1.770  27.127   2.821
33733W        W  516  25.735  24.537  11.137
33734W        W  517  44.043  15.260   2.714
33735W        W  518  28.921   0.529   3.797
33736W        W  519  21.010  40.584  12.789
33737W        W  520  41.960  43.378   2.188
33738W        W  521  24.833  22.310  14.939
33739W        W  522  43.306  23.258  14.988
33740W        W  523  25.899  43.126  10.167
33741W        W  524  39.110  38.973   0.231
33742W        W  525   4.738  23.002   0.888
33743W        W  526  33.872  13.857   0.639
33744W        W  527   2.320  14.104  10.736
33745W        W  528   9.804  39.998   1.282
33746W        W  529  12.857  24.292  11.114
33747W        W  530  33.981  16.289   0.425
33748W        W  531  38.445  23.037  14.772
33749W        W  532   4.948  42.709  11.225
33750W        W  533   3.380  23.195  12.473
33751W        W  534   9.287  37.774   2.434
33752W        W  535   2.529  39.488   3.118
33753W        W  536  42.787  43.767  14.893
33754W        W  537  31.374  15.900   4.278
33755W        W  538  22.780  32.569   0.917
33756W        W  539  35.289  10.331   1.778
33757W        W  540  26.277   5.744   2.260
33758W        W  541  20.166  41.629  13.906
33759W        W  542  43.432  32.654   4.480
33760W        W  543  12.768   4.774   4.422
33761W        W  544   4.610  11.629   2.705
33762W        W  545  34.418  12.785   1.679
33763W        W  546  15.355  16.114   0.809
33764W        W  547  24.466  10.615   0.825
33765W        W  548  33.090   2.439   0.847
33766W        W  549   9.608  24.250  12.092
33767W        W  550   1.241  13.879  13.001
33768W        W  551  21.969  20.151   5.009
33769W        W  552  13.681  38.136  14.420
33770W        W  553  32.618  35.441   3.250
33771W        W  554  36.510  20.962   3.276
33772W        W  555  11.743   4.760  11.664
33773W        W  556  36.451   5.602  10.456
33774W        W  557  43.755  19.980  12.041
33775W        W  558  33.686  40.493  11.025
33776W        W  559  27.064  39.440  12.096
33777W        W  560  36.310  39.046  13.967
33778W        W  561  35.520  27.088  12.083
33779W        W  562  29.483   2.464  12.068
33780W        W  563  35.976  40.334  12.458
33781W        W  564  41.120  44.950  11.713
33782W        W  565   1.716   7.611   1.553
33783W        W  566   1.210   2.638   1.370
33784W        W  567  34.270  37.586   0.031
33785W        W  568  36.459   8.393   3.424
33786W        W  569  34.091   2.549  13.057
33787W        W  570  12.045  32.708   0.439
33788W        W  571  26.658   2.165  11.170
33789W        W  572  12.172  42.909   0.243
33790W        W  573   0.385  30.033   0.834
33791W        W  574  14.097  35.129  14.792
33792W        W  575   0.908  20.740  10.625
33793W        W  576  23.114  29.456  12.693
33794W        W  577  35.763  35.584  13.008
33795W        W  578  26.898   8.556   3.369
33796W        W  579  26.299  44.347   0.059
33797W        W  580  24.702  34.390  14.297
33798W        W  581  19.107   5.955   2.812
33799W        W  582   5.107   3.905   4.692
33800W        W  583  28.087  28.491   5.004
33801W        W  584  18.054  11.078  11.220
33802W        W  585   9.078  27.492  11.850
33803W        W  586  25.325  20.448   2.847
33804W        W  587  34.178  36.028  12.070
33805W        W  588  30.199  14.380   2.764
33806W        W  589  32.475  40.593  14.236
33807W        W  590  27.625  36.446  10.534
33808W        W  591  26.122  37.832  10.305
33809W        W  592   4.332  22.024  14.334
33810W        W  593  32.999  20.012   2.171
33811W        W  594   5.490   7.764  11.948
33812W        W  595   5.799   4.227  11.573
33813W        W  596  41.403  43.985   1.776
33814W        W  597  15.250  34.932  10.753
33815W        W  598  28.662  11.176  14.095
33816W        W  599   2.759  30.231  10.773
33817W        W  600  37.538  33.753  11.131
33818W        W  601  13.643   4.454  11.346
33819W        W  602  14.321  39.263   0.761
33820W        W  603   4.944  25.157   0.879
33821W        W  604   5.939  19.662   3.862
33822W        W  605  30.596  40.325   4.103
33823W        W  606  33.992  27.549  13.617
33824W        W  607  44.591  33.328  13.797
33825W        W  608  26.988  23.328  13.040
33826W        W  609  43.800   5.345   4.961
33827W        W  610  41.346  20.724   4.966
33828W        W  611  25.681  21.098   4.106
33829W        W  612  23.061  21.700  13.697
33830W        W  613  11.171  20.709   3.420
33831W        W  614  24.943  42.892   0.832
33832W        W  615   6.352  32.175  14.405
33833W        W  616  18.929  23.986   2.322
33834W        W  617  42.507  27.147   1.302
33835W        W  618  17.742  44.917   0.880
33836W        W  619  42.423   7.374   1.831
33837W        W  620   6.238  13.197   2.949
33838W        W  621  16.132  22.094  14.317
33839W        W  622  17.096   3.431  12.548
33840W        W  623  16.348  19.032  12.964
33841W        W  624  22.784  33.339  13.583
33842W        W  625  43.807  27.975  11.549
33843W        W  626  37.146  21.569  12.525
33844W        W  627  34.800   9.483   3.180
33845W        W  628  13.064  22.464  13.558
33846W        W  629  19.288  12.872  13.427
33847W        W  630  24.136  37.159  12.104
33848W        W  631  38.887  22.577   5.476
33849W        W  632  26.495   7.726  14.968
33850W        W  633   9.001  19.572  12.405
33851W        W  634  32.519  24.762  13.424
33852W        W  635  31.096  16.859   3.961
33853W        W  636  43.812  32.380  14.356
33854W        W  637  39.829   2.943  10.591
33855W        W  638   6.406  22.670  11.128
33856W        W  639  35.056  22.086  11.938
33857W        W  640   0.901  10.218   1.475
33858W        W  641  20.174  35.827  12.565
33859W        W  642  35.895  39.945  11.676
33860W        W  643  39.016   2.376  10.381
33861W        W  644   6.762  23.849  14.539
33862W        W  645  13.751  36.971   3.489
33863W        W  646  34.485  14.762   3.660
33864W        W  647  29.671   9.409  14.332
33865W        W  648  21.179  25.823   3.375
33866W        W  649   6.714  17.652   4.217
33867W        W  650  12.130  38.910  11.415
33868W        W  651  21.767  41.343  10.665
33869W        W  652  28.359  37.068   1.617
33870W        W  653  44.824  14.123  10.110
33871W        W  654  11.630  43.597  12.677
33872W        W  655   6.442  26.178  11.719
33873W        W  656  42.801  19.463  11.352
33874W        W  657  37.734   5.694   0.321
33875W        W  658   8.607  21.418  11.924
33876W        W  659  37.453  14.484   9.826
33877W        W  660  25.745   5.464   0.462
33878W        W  661  42.313  19.430   3.449
33879W        W  662  44.758  35.461  13.445
33880W        W  663  16.519   9.689   3.666
33881W        W  664   3.410  36.027  11.584
33882W        W  665  17.721   2.682   3.122
33883W        W  666  42.034   3.750   0.707
33884W        W  667  11.353  35.937   4.016
33885W        W  668  31.028  17.994  12.927
33886W        W  669  27.033  11.733  12.645
33887W        W  670   8.824  27.045  14.580
33888W        W  671   1.151   3.362   4.607
33889W        W  672  18.332  39.935   1.161
33890W        W  673   6.282   3.868   4.584
33891W        W  674  24.293  10.121   4.114
33892W        W  675  22.569  39.384  13.000
33893W        W  676  32.516  11.737  10.890
33894W        W  677  36.550  12.073   1.508
33895W        W  678  17.534  14.941   3.731
33896W        W  679  28.112  23.635  12.626
33897W        W  680  26.004  44.212   1.843
33898W        W  681  37.454   8.312  13.944
33899W        W  682  26.388  32.935  12.525
33900W        W  683  14.097  39.910  12.870
33901W        W  684  24.982  26.293   0.027
33902W        W  685  10.063  38.079   2.733
33903W        W  686  28.448   1.254   0.753
33904W        W  687  19.058  26.168  11.007
33905W        W  688  35.648  18.311   4.953
33906W        W  689  22.556   4.827   4.424
33907W        W  690  29.255  41.381  10.259
33908W        W  691  17.167  36.869   0.542
33909W        W  692  39.618  21.052  11.047
33910W        W  693  14.736  34.423  11.152
33911W        W  694   2.870  38.056   2.472
33912W        W  695  19.768   3.272  13.103
33913W        W  696  32.489   9.317  12.009
33914W        W  697  13.334  22.151   1.217
33915W        W  698  23.524   1.391  10.514
33916W        W  699  42.872  37.877  14.203
33917W        W  700   7.824  32.909  12.466
33918W        W  701  36.889  17.072   3.664
33919W        W  702  20.463  18.302   1.875
33920W        W  703  44.032  23.650  12.942
33921W        W  704  22.608  35.137   2.363
33922W        W  705  18.276  44.520   3.723
33923W        W  706  32.535  37.561   2.164
33924W        W  707  25.800  22.264  13.138
33925W        W  708  33.147  28.434  14.517
33926W        W  709  35.598  25.534   4.321
33927W        W  710  41.552   2.791  13.282
33928W        W  711   9.819   8.600  12.154
33929W        W  712  31.960   6.129   2.874
33930W        W  713  23.684  26.008   1.641
33931W        W  714  28.682  24.207  13.819
33932W        W  715  36.020  42.846  12.222
33933W        W  716  20.748  35.873  14.244
33934W        W  717  25.963  15.473  13.910
33935W        W  718   2.802  27.490   1.854
33936W        W  719   5.326   5.520  11.929
33937W        W  720   8.360  27.444   3.583
33938W        W  721  33.461  14.284   0.714
33939W        W  722   7.717  30.429   0.782
33940W        W  723   3.918   6.607   0.196
33941W        W  724  36.875  31.897   0.319
33942W        W  725  15.370  38.028   2.380
33943W        W  726  10.126  20.635  13.499
33944W        W  727  44.017  12.191   2.697
33945W        W  728  24.273   6.753  14.562
33946W        W  729  29.523  29.909  12.498
33947W        W  730  35.113  34.914  11.596
33948W        W  731  33.991  35.854   4.798
33949W        W  732  17.253   9.910  12.832
33950W        W  733  43.927   0.278   3.414
33951W        W  734  37.515  21.274   0.385
33952W        W  735  23.207  19.470   0.279
33953W        W  736  11.335  15.105   0.207
33954W        W  737  15.763  18.205   3.754
33955W        W  738  29.707  37.860   2.392
33956W        W  739   5.729  42.271  13.538
33957W        W  740  21.471  12.159   2.272
33958W        W  741   4.128  14.519   1.274
33959W        W  742  35.277  21.563   2.265
33960W        W  743  18.121   8.996   0.964
33961W        W  744   4.794  40.049  14.713
33962W        W  745  22.417  33.869  10.232
33963W        W  746  13.230  34.833   3.396
33964W        W  747  37.749  30.162   1.279
33965W        W  748  23.041   7.208   2.587
33966W        W  749   6.486  44.481   5.147
33967W        W  750  28.519  37.337  14.841
33968W        W  751   1.326   4.888   1.265
33969W        W  752  21.286  34.419   2.787
33970W        W  753  18.089   5.175  11.515
33971W        W  754   5.895  34.028   1.817
33972W        W  755   3.455  21.409  14.921
33973W        W  756  25.982  35.990   2.298
33974W        W  757  11.921  13.764   3.205
33975W        W  758   5.625  24.599   4.395
33976W        W  759  21.117  16.800   3.408
33977W        W  760  10.678  22.633  12.535
33978W        W  761  21.963  24.514  10.494
33979W        W  762  43.814   9.940   2.350
33980W        W  763   4.178   9.251  13.999
33981W        W  764  23.082   0.341  11.424
33982W        W  765   6.202  31.855  12.903
33983W        W  766  10.685  34.974  12.817
33984W        W  767  13.621  19.133  12.898
33985W        W  768  28.925   4.232  10.772
33986W        W  769  36.186  21.429  10.290
33987W        W  770   4.587   5.386   0.241
33988W        W  771   3.078   0.584   0.251
33989W        W  772  29.973  33.125   2.414
33990W        W  773  22.238  33.336  13.573
33991W        W  774  39.021   3.716  13.286
33992W        W  775  12.713   4.253  10.852
33993W        W  776  26.673   9.529   0.416
33994W        W  777  26.110  19.798  11.403
33995W        W  778   3.468  18.255   0.832
33996W        W  779  34.540  43.193  10.671
33997W        W  780   1.825  28.550   2.006
33998W        W  781  12.248  27.368   0.747
33999W        W  782  27.052  17.118   1.259
34000W        W  783  43.041  39.995   1.728
34001W        W  784  40.487  40.411  11.613
34002W        W  785   4.626  27.255   1.823
34003W        W  786   8.522  41.660   0.961
34004W        W  787  23.256  36.614  13.984
34005W        W  788   9.455   1.266  12.495
34006W        W  789  32.139  43.394  13.660
34007W        W  790  38.992   9.829  14.433
34008W        W  791  37.899   5.602  11.619
34009W        W  792   9.348  25.629  13.423
34010W        W  793  10.189  18.346   2.798
34011W        W  794  36.103   8.585   3.730
34012W        W  795  36.829  20.773  11.948
34013W        W  796  33.931  40.796   2.356
34014W        W  797  16.379  27.139   0.554
34015W        W  798  31.261  44.817  12.004
34016W        W  799   0.858  26.245  14.907
34017W        W  800   1.916   9.340  12.924
34018W        W  801  38.295  14.360   1.789
34019W        W  802   0.189  13.170  11.915
34020W        W  803   9.878  15.186   2.871
34021W        W  804  16.983  21.166  14.254
34022W        W  805  36.662   1.332   0.445
34023W        W  806   1.375  25.499  13.894
34024W        W  807   6.472   0.873  14.263
34025W        W  808   6.644  37.479   3.738
34026W        W  809   0.462  34.905   2.919
34027W        W  810  33.368  15.300   4.125
34028W        W  811   1.661  31.912   0.378
34029W        W  812  12.602   0.434   3.182
34030W        W  813  24.370  30.429   2.804
34031W        W  814  12.297  35.893  12.958
34032W        W  815  40.992  11.702   0.434
34033W        W  816  42.951  16.670  14.378
34034W        W  817  25.488   5.465   5.023
34035W        W  818  43.049  23.707  13.928
34036W        W  819  43.931  28.091  13.616
34037W        W  820  39.103  29.704  11.222
34038W        W  821  44.300  38.319  13.852
34039W        W  822  31.942  30.000   2.631
34040W        W  823  15.593   2.054  14.800
34041W        W  824  15.734  26.301  12.978
34042W        W  825  41.872  15.367  13.921
34043W        W  826  21.228  22.873  10.553
34044W        W  827  33.867  10.580   1.879
34045W        W  828  40.983  11.032   2.719
34046W        W  829  40.337  38.422  10.616
34047W        W  830  44.771  35.402  11.886
34048W        W  831  19.467  35.800   0.360
34049W        W  832   5.616  30.999  11.529
34050W        W  833  14.458  31.220  14.191
34051W        W  834   4.686  37.421   2.729
34052W        W  835  35.470  37.645   1.192
34053W        W  836  39.201   5.171  13.340
34054W        W  837  42.922  26.712   2.187
34055W        W  838  40.804   3.951   3.096
34056W        W  839  20.673  19.252   2.207
34057W        W  840  14.326  32.346  13.270
34058W        W  841  12.504  15.352  13.290
34059W        W  842  39.983  11.869   0.603
34060W        W  843  30.271  34.492  11.036
34061W        W  844  19.750  27.364  10.758
34062W        W  845  28.655  13.785   1.374
34063W        W  846  11.550  41.159  13.502
34064W        W  847  28.453  38.874   0.422
34065W        W  848  32.563  27.953   2.683
34066W        W  849  15.831  33.256  10.979
34067W        W  850   2.826  32.889   0.848
34068W        W  851   6.412  22.488   4.714
34069W        W  852  42.910  41.088  14.905
34070W        W  853   7.083  36.040  12.859
34071W        W  854  22.219  21.514  14.810
34072W        W  855   2.242  30.165   4.585
34073W        W  856  25.225  36.373  11.428
34074W        W  857  39.648  18.294   0.424
34075W        W  858  24.466  24.604  14.850
34076W        W  859   9.626  44.329   1.686
34077W        W  860  27.107  18.034  11.264
34078W        W  861  23.777  27.624   3.409
34079W        W  862  43.271  41.506   0.453
34080W        W  863   0.344  26.411  12.510
34081W        W  864  11.517  37.110  12.803
34082W        W  865  12.863  30.694   4.756
34083W        W  866  31.116  17.578   0.919
34084W        W  867   2.022  25.302   2.885
34085W        W  868  37.526  33.899  12.578
34086W        W  869   3.423  43.769   3.223
34087W        W  870  11.836  13.196  12.853
34088W        W  871  29.351  33.987  11.116
34089W        W  872   0.944  30.395  10.892
34090W        W  873  26.266  28.006  11.969
34091W        W  874  29.977   5.340  10.646
34092W        W  875  37.354  29.068  11.954
34093W        W  876  37.095  31.429  10.766
34094W        W  877  42.964  35.801  13.289
34095W        W  878  15.079  35.405  13.496
34096W        W  879  41.029   8.860   4.392
34097W        W  880  42.332  16.639   4.571
34098W        W  881  34.886  26.746  12.872
34099W        W  882  13.835  31.985   1.974
34100W        W  883  28.354  18.871  12.877
34101W        W  884   5.024  15.264   1.374
34102W        W  885  31.425  43.453  12.954
34103W        W  886  11.120  42.982   2.181
34104W        W  887   0.865  21.858   0.041
34105W        W  888  36.568  36.099   3.613
34106W        W  889  31.915  12.560  14.712
34107W        W  890   8.488  33.371   2.028
34108W        W  891  31.344  14.758  12.569
34109W        W  892   3.221  44.350   4.703
34110W        W  893   1.085  11.719   3.658
34111W        W  894  42.030   3.366  14.284
34112W        W  895   8.722  38.760  11.688
34113W        W  896  28.033   3.523  12.590
34114W        W  897  12.058  28.084  13.402
34115W        W  898  22.824  31.447  10.889
34116W        W  899  25.287  21.782  13.801
34117W        W  900   8.995   4.174   1.985
34118W        W  901   3.413  38.972  11.610
34119W        W  902  11.908  39.398   3.799
34120W        W  903   3.566  19.161   1.877
34121W        W  904  18.793  20.275   0.300
34122W        W  905  26.155  20.196   4.391
34123W        W  906   1.832  32.015   5.189
34124W        W  907   1.994  14.798   3.658
34125W        W  908  44.568  22.113  12.455
34126W        W  909  23.488   5.616  10.392
34127W        W  910  33.456  28.064  14.792
34128W        W  911   1.955  35.446  14.902
34129W        W  912  27.488  44.299   0.727
34130W        W  913  25.908  18.362  13.719
34131W        W  914   6.166  37.890  14.889
34132W        W  915  35.756  26.141   2.009
34133W        W  916  36.414   9.500   1.924
34134W        W  917  19.766  41.739  13.381
34135W        W  918  15.066  18.937  14.241
34136W        W  919  14.425  18.655   1.701
34137W        W  920  41.517  30.812   0.363
34138W        W  921  17.705   9.087  12.777
34139W        W  922  22.668   2.519   0.366
34140W        W  923  15.408  12.871  10.898
34141W        W  924   7.467   9.479   3.633
34142W        W  925   3.999  44.898   3.829
34143W        W  926   8.816   5.091   3.199
34144W        W  927  13.189  10.427   0.401
34145W        W  928  39.770  18.484  12.361
34146W        W  929   9.663  34.653  11.420
34147W        W  930  38.950  13.692   1.575
34148W        W  931   8.763  20.048  12.568
34149W        W  932  13.880  37.398   3.222
34150W        W  933  13.696  44.221   1.415
34151W        W  934  28.092  27.913   2.830
34152W        W  935  28.279   8.272   0.009
34153W        W  936  40.365   2.478   0.142
34154W        W  937  14.000   7.131  12.107
34155W        W  938   6.271  19.574   2.499
34156W        W  939  42.731  13.708   3.578
34157W        W  940  38.318   2.948  11.637
34158W        W  941   9.112  10.401   1.774
34159W        W  942  41.757  18.084   2.015
34160W        W  943  19.987  19.049   0.003
34161W        W  944   0.090  12.859   1.732
34162W        W  945  27.458  29.241  11.417
34163W        W  946   3.361   0.603  14.303
34164W        W  947  25.482  31.007   5.010
34165W        W  948  37.391  10.361  10.911
34166W        W  949  31.563  35.439   4.129
34167W        W  950  36.878  22.221   4.356
34168W        W  951  22.903  28.204  11.540
34169W        W  952  13.160  33.692   4.753
34170W        W  953  16.557  18.516  14.463
34171W        W  954  18.251  12.630  11.052
34172W        W  955  21.151   7.400   3.286
34173W        W  956   6.010   3.322  13.748
34174W        W  957  13.519  38.233   0.297
34175W        W  958  26.057  35.503   3.929
34176W        W  959  43.185  12.750  12.823
34177W        W  960  26.543   6.867  10.729
34178W        W  961   5.332  12.684   4.483
34179W        W  962   2.963  31.494   1.282
34180W        W  963  42.816  16.639  12.585
34181W        W  964  37.473  11.216   1.711
34182W        W  965  37.495  32.456  13.360
34183W        W  966  30.135   5.479  12.515
34184W        W  967  10.971  20.090   5.097
34185W        W  968  31.537  39.376   4.446
34186W        W  969  36.958  29.116   2.914
34187W        W  970  31.109  15.652  10.599
34188W        W  971  27.875  17.624  13.853
34189W        W  972  25.766  27.869  11.955
34190W        W  973  13.717  14.747  10.957
34191W        W  974  36.289  33.963   3.303
34192W        W  975  41.965  37.680   3.223
34193W        W  976   0.088  39.645   0.254
34194W        W  977  27.734  18.801   2.300
34195W        W  978  39.296  27.970  12.045
34196W        W  979  20.030  21.093  14.186
34197W        W  980  36.958  38.484  10.680
34198W        W  981   9.326  13.547   0.847
34199W        W  982  21.541   4.314  11.570
34200W        W  983  28.345   0.743   0.556
34201W        W  984  24.161  28.183  10.470
34202W        W  985  15.357   2.806   1.440
34203W        W  986  16.575   6.504  12.361
34204W        W  987  31.460  11.397  11.868
34205W        W  988  35.179   0.193  12.556
34206W        W  989   0.420  10.116   4.194
34207W        W  990  18.478  26.895   1.125
34208W        W  991  15.360  34.034  11.208
34209W        W  992  36.625  34.007  14.159
34210W        W  993  30.162   8.786  11.207
34211W        W  994  24.262  23.731  12.633
34212W        W  995  12.813  24.577   4.806
34213W        W  996  27.374   5.340   1.990
34214W        W  997  24.228  34.121   0.041
34215W        W  998  15.235  33.576  11.051
34216W        W  999  24.298   8.220   0.760
34217W        W 1000  19.194  43.845   0.310
34218W        W 1001  44.277  16.999  11.076
34219W        W 1002  22.680   7.619   2.856
34220W        W 1003  18.308   4.913  11.138
34221W        W 1004  10.917  39.176  14.943
34222W        W 1005   6.056  23.001  13.286
34223W        W 1006  36.046  39.761   4.526
34224W        W 1007  33.984  19.712  13.064
34225W        W 1008  32.545  17.378  11.642
34226W        W 1009  19.848  38.512  12.663
34227W        W 1010   8.746  42.219  11.126
34228W        W 1011   2.500  10.883   1.448
34229W        W 1012  40.454   2.398  13.046
34230W        W 1013   3.760  22.272  12.069
34231W        W 1014   1.518  22.515   3.144
34232W        W 1015  12.109  35.565  13.350
34233W        W 1016  36.560  30.544  14.492
34234W        W 1017  26.437  26.438   2.189
34235W        W 1018  17.591   9.745   0.767
34236W        W 1019   2.841  27.411   2.725
34237W        W 1020   4.739  31.100   1.726
34238W        W 1021  38.804  23.170   3.698
34239W        W 1022   5.455  11.281   3.694
34240W        W 1023  26.636  39.506  12.460
34241W        W 1024  21.102  28.821   4.971
34242W        W 1025  17.778  16.426   1.820
34243W        W 1026  32.991  21.235   0.446
34244W        W 1027  10.823  12.620  12.459
34245W        W 1028  39.483  24.569   1.728
34246W        W 1029  24.827  41.505   4.241
34247W        W 1030  39.820  26.231   3.771
34248W        W 1031  33.864   0.580  13.558
34249W        W 1032  12.185   4.986   2.398
34250W        W 1033  35.859  36.920   0.286
34251W        W 1034  19.160  18.281   2.864
34252W        W 1035  32.872   5.486  13.853
34253W        W 1036  29.091  43.676  12.069
34254W        W 1037  25.742  39.597  10.259
34255W        W 1038  26.162  14.772  11.077
34256W        W 1039  42.294  11.962  10.726
34257W        W 1040  14.180  43.438   1.523
34258W        W 1041  17.875  12.716   3.627
34259W        W 1042  24.202  24.534   2.748
34260W        W 1043   5.383  29.538  13.526
34261W        W 1044  15.866   5.580   0.438
34262W        W 1045  13.619   9.804   2.849
34263W        W 1046  40.301  11.867  13.867
34264W        W 1047  31.134   0.508   1.032
34265W        W 1048  41.679  11.771  13.950
34266W        W 1049  42.655  16.036  14.936
34267W        W 1050  39.801   7.595  11.316
34268W        W 1051  32.231  38.970   2.843
34269W        W 1052  16.678  42.886   1.802
34270W        W 1053   5.145   1.406   2.359
34271W        W 1054  36.805  39.056  13.304
34272W        W 1055   6.742  17.962  10.960
34273W        W 1056  35.973   8.779   0.476
34274W        W 1057  22.384  26.431   4.545
34275W        W 1058   4.419  32.591  13.560
34276W        W 1059  31.600  22.690   4.643
34277W        W 1060  30.147  10.792   1.719
34278W        W 1061  38.541  12.866   0.330
34279W        W 1062   8.366  27.011  13.288
34280W        W 1063  36.562  40.944  10.802
34281W        W 1064  42.296  39.899   0.244
34282W        W 1065  29.647  21.660  13.987
34283W        W 1066  13.617  26.893  12.601
34284W        W 1067   9.661  13.359   2.390
34285W        W 1068  12.208  20.521  14.492
34286W        W 1069  42.775  33.069  14.484
34287W        W 1070  14.064  36.993   0.647
34288W        W 1071  32.618  12.343  13.968
34289W        W 1072  36.957  42.580  10.476
34290W        W 1073  44.379  12.222  12.409
34291W        W 1074  37.844  37.087  13.569
34292W        W 1075  37.105   4.102  11.585
34293W        W 1076  26.505  35.858  13.527
34294W        W 1077  19.240  24.481  11.180
34295W        W 1078  37.464  34.036  10.591
34296W        W 1079  31.017  44.048  13.396
34297W        W 1080  42.635   0.049   3.363
34298W        W 1081  37.895   1.982   3.531
34299W        W 1082   2.505  27.960   1.726
34300W        W 1083   5.791   3.908   3.337
34301W        W 1084   8.178  33.783   0.990
34302W        W 1085  31.187  21.624  11.516
34303W        W 1086  25.963  41.183   2.617
34304W        W 1087  36.475  15.585  10.932
34305W        W 1088  32.589  17.129   4.796
34306W        W 1089  21.765  34.668  11.101
34307W        W 1090   2.718  41.936  14.491
34308W        W 1091  12.418  15.880  11.631
34309W        W 1092  38.464  34.412   3.957
34310W        W 1093  23.947  32.009  10.633
34311W        W 1094   4.275  32.058   4.341
34312W        W 1095  12.646  22.517  14.519
34313W        W 1096  31.380  22.042  11.286
34314W        W 1097  13.157  17.303   4.722
34315W        W 1098   6.833   8.177  12.923
34316W        W 1099  39.348   1.235  11.659
34317W        W 1100   7.742  19.380   4.056
34318W        W 1101  15.134  26.695  13.841
34319W        W 1102  38.382  38.351  13.475
34320W        W 1103  12.163  35.119   0.402
34321W        W 1104   4.208  29.530   4.541
34322W        W 1105  37.995  39.299  13.499
34323W        W 1106  23.891  37.389   1.882
34324W        W 1107  39.751  33.725   3.623
34325W        W 1108   1.494  20.651  10.639
34326W        W 1109  10.841  11.575   2.314
34327W        W 1110  11.953  24.183  13.577
34328W        W 1111  28.043   9.928  10.969
34329W        W 1112  32.573  35.918   0.896
34330W        W 1113  26.377  38.057  12.435
34331W        W 1114   2.430  32.087   0.764
34332W        W 1115  25.043  31.168  10.688
34333W        W 1116  14.814  20.326   4.707
34334W        W 1117   9.289  18.439   2.998
34335W        W 1118  18.716   1.238  14.354
34336W        W 1119   8.896  14.184  10.777
34337W        W 1120  20.187  25.799   3.351
34338W        W 1121  41.793  32.908  11.551
34339W        W 1122   5.180   8.990  11.286
34340W        W 1123  22.020  41.784  13.361
34341W        W 1124   2.888   9.397   3.138
34342W        W 1125  44.792  34.947   1.660
34343W        W 1126  25.928  12.641  11.993
34344W        W 1127   7.825  14.875   4.071
34345W        W 1128   1.362  39.919   0.803
34346W        W 1129  40.175  31.647   0.410
34347W        W 1130  27.615   8.786   4.553
34348W        W 1131  41.263  21.587  14.762
34349W        W 1132  41.002  15.630  11.960
34350W        W 1133  13.376  38.206  10.115
34351W        W 1134  36.961  32.483   0.972
34352W        W 1135   4.893  40.284   1.150
34353W        W 1136  34.521  11.852  13.998
34354W        W 1137  13.090  36.513  12.286
34355W        W 1138  29.651  25.825  12.069
34356W        W 1139   1.320  43.008   4.764
34357W        W 1140  13.354  28.639   2.141
34358W        W 1141   9.349  37.688  13.576
34359W        W 1142   7.552  14.761  12.859
34360W        W 1143   7.942  40.961  14.839
34361W        W 1144  44.540   8.522  13.539
34362W        W 1145  23.683  27.067  11.520
34363W        W 1146  37.763  29.109   0.243
34364W        W 1147  15.601  43.455   4.777
34365W        W 1148  30.168  39.940   0.304
34366W        W 1149   2.661  36.306   2.469
34367W        W 1150  34.114  33.733  10.724
34368W        W 1151   2.356  29.865   1.787
34369W        W 1152   5.302  11.591   2.384
34370W        W 1153   8.122   8.289  14.430
34371W        W 1154  30.551  12.074  13.371
34372W        W 1155  12.272  17.264   0.690
34373W        W 1156  19.777  15.743   3.154
34374W        W 1157  40.823   1.365  14.049
34375W        W 1158  33.936  41.001   0.687
34376W        W 1159  13.895   9.688  10.758
34377W        W 1160   4.526  19.011   1.583
34378W        W 1161  42.243  11.154   0.259
34379W        W 1162  25.516  35.033  10.699
34380W        W 1163  40.398   6.642   3.761
34381W        W 1164  29.982  19.652  12.836
34382W        W 1165  25.004  36.019  14.796
34383W        W 1166  18.893   6.432  10.659
34384W        W 1167  23.653   9.798  10.489
34385W        W 1168  26.665   3.246  10.017
34386W        W 1169  33.318   1.778  14.278
34387W        W 1170  31.033   2.664  11.089
34388W        W 1171  38.808   8.634   3.244
34389W        W 1172  21.977   0.703  10.559
34390W        W 1173  25.473  22.585   3.727
34391W        W 1174   1.475  24.636  10.742
34392W        W 1175   5.058  12.441   4.846
34393W        W 1176   0.257  38.083   4.041
34394W        W 1177   0.466   7.704  12.517
34395W        W 1178  32.378   5.929   4.197
34396W        W 1179   1.266  26.397  11.194
34397W        W 1180  19.473   3.283  10.077
34398W        W 1181  41.364  11.579   2.210
34399W        W 1182  18.051  35.411  10.579
34400W        W 1183  11.737   0.036   0.928
34401W        W 1184   0.759  35.953   1.265
34402W        W 1185  14.933   2.854  12.556
34403W        W 1186  31.689  32.900  11.345
34404W        W 1187  42.939  16.313  11.191
34405W        W 1188   6.827   0.465  10.376
34406W        W 1189   2.697  38.508  14.394
34407W        W 1190  38.924  16.144   1.884
34408W        W 1191  15.554  44.423   1.283
34409W        W 1192  41.776  41.358  14.953
34410W        W 1193   3.279  41.263  10.753
34411W        W 1194  15.760  22.346  12.083
34412W        W 1195   3.418  26.965  13.061
34413W        W 1196  40.771   8.443   3.646
34414W        W 1197  20.633  19.259  11.425
34415W        W 1198  29.484  26.230   1.043
34416W        W 1199  11.885  43.885  12.349
34417W        W 1200  16.283   8.483   2.599
34418W        W 1201  31.058   2.351   1.816
34419W        W 1202  40.150  35.877   4.582
34420W        W 1203  16.581  26.753  10.680
34421W        W 1204  18.923  27.214   3.205
34422W        W 1205  30.537  19.741  12.099
34423W        W 1206  30.768  25.841  11.158
34424W        W 1207  24.372  35.898   0.469
34425W        W 1208  23.524   8.905  12.234
34426W        W 1209  20.281  10.836  11.186
34427W        W 1210  25.837  43.204   5.474
34428W        W 1211  29.512  15.624  10.793
34429W        W 1212  16.736  37.252   0.826
34430W        W 1213  20.188  41.954   2.814
34431W        W 1214  35.068  27.197   0.083
34432W        W 1215  17.154  32.403   5.018
34433W        W 1216   8.178  22.508  13.360
34434W        W 1217   0.810  40.366  11.475
34435W        W 1218  41.023  28.865  11.562
34436W        W 1219  10.365  40.122   2.936
34437W        W 1220  17.697  31.402  12.906
34438W        W 1221  29.174  22.678   2.333
34439W        W 1222  25.833   1.824   4.050
34440W        W 1223  13.050   1.075  11.152
34441W        W 1224  33.191  42.825  13.950
34442W        W 1225  44.977  38.386   2.942
34443W        W 1226  17.554   8.638  14.540
34444W        W 1227  10.141  16.609   4.788
34445W        W 1228  24.632  10.338  14.265
34446W        W 1229   7.806  12.143   2.177
34447W        W 1230  28.655  40.883   4.974
34448W        W 1231  23.964   4.851   2.558
34449W        W 1232  41.448   3.817  14.845
34450W        W 1233  24.659  27.770   4.551
34451W        W 1234  42.816  19.460  10.390
34452W        W 1235   6.808  21.284  12.620
34453W        W 1236  28.669  29.488  13.576
34454W        W 1237  22.589  41.841   0.060
34455W        W 1238  25.896  27.627   2.194
34456W        W 1239   8.668   2.848  13.783
34457W        W 1240   7.622  39.320  11.157
34458W        W 1241  37.098   2.183   3.669
34459W        W 1242  37.628  28.737   1.314
34460W        W 1243  10.705   1.048  12.345
34461W        W 1244   5.403   6.757  12.413
34462W        W 1245   1.628  32.430   3.444
34463W        W 1246  17.755  17.070   3.610
34464W        W 1247  25.171   4.710  11.130
34465W        W 1248  21.260  37.492   4.186
34466W        W 1249   7.299   7.866  10.794
34467W        W 1250  34.851  29.873   4.589
34468W        W 1251  36.811  28.452   3.262
34469W        W 1252   0.857   1.868  12.013
34470W        W 1253  17.787   5.405   4.493
34471W        W 1254  12.245  18.294   4.481
34472W        W 1255   4.385  30.365   1.348
34473W        W 1256  17.830  35.676   2.738
34474W        W 1257  23.883   0.173  12.016
34475W        W 1258  17.785  17.278  10.404
34476W        W 1259  39.245   4.615  10.290
34477W        W 1260  10.622   3.325   1.276
34478W        W 1261   2.840   4.278  11.182
34479W        W 1262   8.722  40.259   0.486
34480W        W 1263  14.645   7.224   2.412
34481W        W 1264   6.957  10.777   2.724
34482W        W 1265   6.791  44.563  12.572
34483W        W 1266  27.674   2.480  12.770
34484W        W 1267  44.598  42.883  10.015
34485W        W 1268  12.558  23.947   2.376
34486W        W 1269   8.728   2.904   1.228
34487W        W 1270   1.428   4.895  11.496
34488W        W 1271  16.626   5.268  14.907
34489W        W 1272  23.716  39.154  10.257
34490W        W 1273  14.514  12.354  12.910
34491W        W 1274  15.176  37.990  12.963
34492W        W 1275   1.043  34.243  11.666
34493W        W 1276   4.391  25.154   0.889
34494W        W 1277  26.909  24.660   2.602
34495W        W 1278   7.792  16.299  14.404
34496W        W 1279  17.756  44.848  12.519
34497W        W 1280  25.073  37.037  12.071
34498W        W 1281   2.845  25.111   0.631
34499W        W 1282   2.795  28.180   3.871
34500W        W 1283  41.021  34.084  12.999
34501W        W 1284  39.069  40.800   2.108
34502W        W 1285  33.426  26.287   0.177
34503W        W 1286  32.609  12.065  12.649
34504W        W 1287  35.034  22.243   1.957
34505W        W 1288  10.277  12.735   4.617
34506W        W 1289  37.415  36.113   3.597
34507W        W 1290  43.901  34.855   4.858
34508W        W 1291  13.372  15.755  14.254
34509W        W 1292  13.726  23.085  14.247
34510W        W 1293  35.347  10.697  13.288
34511W        W 1294  17.168   5.661  14.254
34512W        W 1295  17.181  32.072  13.465
34513W        W 1296  44.480  10.939  14.463
34514W        W 1297   2.956  44.049  11.168
34515W        W 1298   4.404   3.892   0.841
34516W        W 1299  32.940  26.689  11.471
34517W        W 1300  11.452  28.121   4.674
34518W        W 1301   6.398   1.069  13.405
34519W        W 1302  39.041  42.028   1.521
34520W        W 1303  38.556   8.597   4.128
34521W        W 1304   1.437   2.010   1.798
34522W        W 1305  35.610   4.393   4.593
34523W        W 1306  20.826  13.344   5.457
34524W        W 1307  25.192  20.586  12.126
34525W        W 1308  22.698  37.606   4.634
34526W        W 1309  37.673   2.825  13.813
34527W        W 1310  14.561  13.342  11.933
34528W        W 1311  30.990  44.330   4.000
34529W        W 1312  11.888  23.658   3.734
34530W        W 1313  30.031  44.344  11.312
34531W        W 1314  32.352  13.857   3.172
34532W        W 1315  13.155  18.081   2.275
34533W        W 1316  29.168   9.757   4.413
34534W        W 1317  29.275  36.708   0.031
34535W        W 1318  15.808  42.997   1.349
34536W        W 1319   1.236  24.119   0.193
34537W        W 1320  35.211   5.977  14.528
34538W        W 1321  38.314  39.780   4.332
34539W        W 1322  42.958  28.990   4.045
34540W        W 1323  11.856  40.578   0.710
34541W        W 1324  33.589  23.663   4.447
34542W        W 1325  18.985  25.297   4.157
34543W        W 1326  26.437  22.466   2.834
34544W        W 1327  23.110   4.175   0.735
34545W        W 1328  37.402  24.287   1.227
34546W        W 1329  38.800   8.135  10.714
34547W        W 1330  21.573   2.327  13.834
34548W        W 1331  19.751  34.270   0.413
34549W        W 1332  23.045  17.863   2.874
34550W        W 1333  13.827  43.464  12.070
34551W        W 1334  35.376  35.036   4.185
34552W        W 1335  27.995  16.741   3.907
34553W        W 1336  15.156  42.731   5.393
34554W        W 1337  38.385   5.131   2.804
34555W        W 1338  27.991  39.120  13.608
34556W        W 1339  44.009  39.272  14.315
34557W        W 1340   2.742  30.423   3.657
34558W        W 1341  18.874   4.321  10.845
34559W        W 1342  39.471   3.777   0.555
34560W        W 1343   9.239   3.394   0.049
34561W        W 1344  41.358   6.828   0.914
34562W        W 1345   1.810  19.017  12.055
34563W        W 1346  11.081   9.587  10.762
34564W        W 1347  23.649  18.915   0.735
34565W        W 1348  21.973   5.898  11.401
34566W        W 1349  32.981   3.692  10.600
34567W        W 1350  29.227  22.109   2.572
34568W        W 1351  15.108  22.090   3.572
34569W        W 1352   6.829  18.619   3.933
34570W        W 1353  35.811  32.869   3.896
34571W        W 1354  44.406  35.870  12.464
34572W        W 1355  43.268  27.970   2.272
34573W        W 1356  17.065  42.948  14.767
34574W        W 1357  36.612  15.794  12.065
34575W        W 1358  44.912  39.260   3.652
34576W        W 1359   8.454  14.556  11.053
34577W        W 1360  21.601  35.115   3.990
34578W        W 1361  22.396   1.297  11.003
34579W        W 1362  23.668   4.013   3.285
34580W        W 1363   8.730  19.637  11.005
34581W        W 1364  27.296  30.327  14.937
34582W        W 1365  34.055  17.327   1.328
34583W        W 1366  43.976   3.179   4.884
34584W        W 1367   5.112  10.315   3.784
34585W        W 1368  29.923   2.500   2.758
34586W        W 1369   5.388   2.411  14.010
34587W        W 1370  14.599  14.615  13.823
34588W        W 1371  17.362  21.193  12.436
34589W        W 1372  20.229  31.126   1.403
34590W        W 1373  16.312  29.683   0.418
34591W        W 1374  12.753  34.014   4.851
34592W        W 1375  23.170  42.256   4.826
34593W        W 1376  33.521  39.644   1.984
34594W        W 1377  36.992  16.176  10.654
34595W        W 1378  16.477   6.428   2.154
34596W        W 1379  22.059   0.238   3.633
34597W        W 1380  24.514   2.315  10.721
34598W        W 1381  13.817  24.528  10.660
34599W        W 1382   0.338  21.522  13.966
34600W        W 1383  38.911  18.167  10.988
34601W        W 1384  32.483  21.021   1.180
34602W        W 1385   3.334   3.187   1.452
34603W        W 1386  40.035   0.471   4.245
34604W        W 1387  18.840   1.023  14.812
34605W        W 1388  15.829  23.730  13.275
34606W        W 1389  16.156  35.147   0.946
34607W        W 1390   2.271  34.873  10.792
34608W        W 1391  14.011  31.510   2.438
34609W        W 1392  29.846  21.487   2.858
34610W        W 1393  16.721  31.116   4.115
34611W        W 1394  16.564  43.972   2.705
34612W        W 1395   8.903  12.646  14.419
34613W        W 1396  31.712   6.312  12.407
34614W        W 1397  29.655   9.698  12.851
34615W        W 1398  12.158   4.884  12.479
34616W        W 1399  14.609  36.114  11.715
34617W        W 1400  18.194  12.614   0.778
34618W        W 1401   0.064   5.475   1.194
34619W        W 1402  33.595  22.725   0.830
34620W        W 1403  33.439  27.539   4.413
34621W        W 1404   8.018  25.606   4.252
34622W        W 1405  23.676   0.631  10.812
34623W        W 1406  24.477  38.401   4.714
34624W        W 1407  22.011   6.972  10.578
34625W        W 1408   6.804  12.139   2.319
34626W        W 1409  32.681  40.359   4.768
34627W        W 1410  33.861  11.241  14.258
34628W        W 1411  13.809   2.299   4.798
34629W        W 1412   6.196  19.528  12.559
34630W        W 1413  19.991  25.251  13.081
34631W        W 1414  10.870   0.344   2.261
34632W        W 1415  35.351   4.995  13.457
34633W        W 1416  12.679   4.913  12.555
34634W        W 1417  33.448  14.244   2.230
34635W        W 1418   6.609  37.818   2.421
34636W        W 1419   7.594  25.052  12.025
34637W        W 1420   2.754  42.923   4.624
34638W        W 1421  43.069   3.867  11.288
34639W        W 1422  26.296  29.581  14.815
34640W        W 1423   8.056   5.404   1.279
34641W        W 1424  32.937  24.729   5.560
34642W        W 1425  19.485  42.405   2.916
34643W        W 1426   4.762   1.170  11.558
34644W        W 1427   3.785  38.069   3.879
34645W        W 1428   0.006   6.403   3.274
34646W        W 1429  36.810   4.329  11.194
34647W        W 1430  10.892   7.040   3.707
34648W        W 1431  26.215  37.657   1.748
34649W        W 1432  44.012  24.593  13.871
34650W        W 1433   8.246  11.733  12.058
34651W        W 1434  17.368  15.603  14.981
34652W        W 1435  26.142  28.147   3.637
34653W        W 1436  16.802  17.091  11.192
34654W        W 1437   1.738  23.249  12.555
34655W        W 1438  43.910  15.650  13.980
34656W        W 1439  42.098  33.903  12.122
34657W        W 1440   1.387  30.604   1.641
34658W        W 1441   6.704   2.771  13.955
34659W        W 1442  40.031  14.285   2.017
34660W        W 1443  39.517  30.880   2.289
34661W        W 1444  19.041  39.609  11.968
34662W        W 1445  13.586   5.589   2.788
34663W        W 1446  18.540   0.567  11.143
34664W        W 1447  38.337   4.774  14.878
34665W        W 1448  19.516  35.205   4.819
34666W        W 1449  34.697  26.838  13.342
34667W        W 1450  19.993   4.491   2.103
34668W        W 1451   0.249  12.698   0.662
34669W        W 1452  13.613  16.561   3.752
34670W        W 1453  12.416   1.307   3.762
34671W        W 1454  16.000  42.547  10.581
34672W        W 1455  36.984  23.165   0.361
34673W        W 1456  36.024  22.750   3.356
34674W        W 1457  28.395   5.025  13.352
34675W        W 1458  14.917  18.786  10.499
34676W        W 1459  38.026  34.613   4.193
34677W        W 1460  13.088  41.754   4.116
34678W        W 1461   6.824  11.693  12.551
34679W        W 1462  18.915  34.535  12.852
34680W        W 1463  17.252  40.020   4.574
34681W        W 1464  31.894  13.104  13.977
34682W        W 1465  24.910  43.855   2.240
34683W        W 1466  38.563  15.873  11.956
34684W        W 1467  11.796   9.090  13.418
34685W        W 1468   1.020   8.330   1.911
34686W        W 1469  21.162  28.735   3.198
34687W        W 1470  30.913  26.131  13.047
34688W        W 1471  28.121  29.111   1.060
34689W        W 1472  19.077  25.064   1.458
34690W        W 1473  39.848  37.420  11.155
34691W        W 1474  21.128  26.768  10.184
34692W        W 1475  36.151  37.011  11.222
34693W        W 1476  18.625  32.146   4.588
34694W        W 1477   3.537   7.847  12.865
34695W        W 1478  18.742  12.381  11.868
34696W        W 1479  39.803  20.239  11.094
34697W        W 1480   8.668  22.278  12.596
34698W        W 1481  14.721   8.541   2.662
34699W        W 1482   2.636  41.010   3.589
34700W        W 1483  23.589   5.936   3.762
34701W        W 1484  25.630   0.232   2.334
34702W        W 1485  18.772  39.574   2.645
34703W        W 1486  22.028  16.432   1.897
34704W        W 1487  16.252   5.715  12.930
34705W        W 1488  37.316  27.858  11.049
34706W        W 1489  10.875   6.404  14.556
34707W        W 1490  34.286  32.223  14.372
34708W        W 1491   3.381  15.265   1.178
34709W        W 1492  21.936  32.518  12.639
34710W        W 1493  12.258   2.383   0.256
34711W        W 1494  43.616  27.030  14.006
34712W        W 1495  31.462   4.882   3.207
34713W        W 1496  32.416   3.892  12.349
34714W        W 1497  23.934  33.441   2.826
34715W        W 1498  18.411  36.949   3.798
34716W        W 1499  21.082   4.723   2.844
34717W        W 1500  35.959   8.091   2.755
34718W        W 1501  22.103  36.013   4.862
34719W        W 1502   8.640  32.439  12.388
34720W        W 1503  21.249  10.180  12.816
34721W        W 1504  31.891  15.495   2.135
34722W        W 1505  44.797   0.083   0.352
34723W        W 1506  35.177  38.838  12.190
34724W        W 1507  16.669  14.145   0.870
34725W        W 1508  39.779  44.466   3.181
34726W        W 1509   0.291  10.581   0.271
34727W        W 1510  11.633  16.900   1.837
34728W        W 1511  11.662  36.305   2.195
34729W        W 1512  37.957  19.604  14.823
34730W        W 1513  34.940   2.429  12.788
34731W        W 1514  15.129  35.427   3.745
34732W        W 1515  27.438  30.495  14.038
34733W        W 1516  33.076  19.576  14.062
34734W        W 1517  25.977   1.805   1.745
34735W        W 1518  12.571   1.835  14.362
34736W        W 1519   0.326  24.116   0.413
34737W        W 1520  18.817  13.674  10.683
34738W        W 1521  43.878  29.729  12.841
34739W        W 1522   5.202  25.191   1.323
34740W        W 1523  20.724   5.301  12.685
34741W        W 1524  33.379  10.367  14.505
34742W        W 1525   9.866  38.429  12.453
34743W        W 1526   5.883   3.648   2.900
34744W        W 1527  19.026  17.514  10.234
34745W        W 1528  44.111  35.493   1.960
34746W        W 1529  18.458  29.936  14.869
34747W        W 1530  43.002  12.564   1.316
34748W        W 1531  44.884  22.463  10.771
34749W        W 1532   8.299  15.867  11.421
34750W        W 1533  44.945  19.547  13.028
34751W        W 1534  28.744  41.870   2.625
34752W        W 1535  26.977  43.561  12.461
34753W        W 1536  40.386  41.531   2.920
34754W        W 1537   5.190  23.070  11.700
34755W        W 1538  12.203   3.970  10.691
34756W        W 1539   8.511  44.208  14.220
34757W        W 1540  18.405  39.805  13.161
34758W        W 1541   9.796  38.361   0.251
34759W        W 1542  36.988  22.036   4.847
34760W        W 1543   7.453   3.373   4.595
34761W        W 1544  38.350  21.553  14.801
34762W        W 1545  23.613  18.021  13.981
34763W        W 1546  15.410  21.512   4.252
34764W        W 1547  27.668  24.081   2.825
34765W        W 1548  13.424  34.600   0.421
34766W        W 1549  20.242   4.486  11.080
34767W        W 1550  23.715  40.418   5.019
34768W        W 1551  32.170  12.586  12.998
34769W        W 1552  41.846  41.945   0.650
34770W        W 1553   8.200   1.234   4.450
34771W        W 1554   7.970   2.701  12.019
34772W        W 1555   2.327  35.110   3.305
34773W        W 1556  15.199  43.219   0.784
34774W        W 1557  12.238  12.662  10.651
34775W        W 1558  36.663  41.924   2.384
34776W        W 1559   8.660  19.568  14.775
34777W        W 1560  23.155   5.794  12.123
34778W        W 1561  31.563  43.055   2.909
34779W        W 1562  38.919  33.501   3.722
34780W        W 1563  31.459  32.526  14.696
34781W        W 1564  11.617  34.516   4.983
34782W        W 1565  35.082  37.857   4.703
34783W        W 1566  15.082  41.878   3.559
34784W        W 1567  15.193  10.594   2.369
34785W        W 1568  17.729  43.476  13.480
34786W        W 1569  19.138  39.004   2.721
34787W        W 1570  17.132  22.594   4.631
34788W        W 1571  13.574  14.629   2.972
34789W        W 1572   2.481  42.852  12.479
34790W        W 1573  19.424  24.909  14.787
34791W        W 1574  21.660  27.034   0.190
34792W        W 1575  28.958  33.004   4.793
34793W        W 1576  23.638  43.935  11.204
34794W        W 1577   0.168   7.667  10.657
34795W        W 1578  38.060  21.741  12.573
34796W        W 1579  17.254   1.972   0.310
34797W        W 1580   0.018   0.828  11.656
34798W        W 1581  24.890  32.892  11.124
34799W        W 1582  12.824  33.991  12.072
34800W        W 1583   8.324   3.836  11.121
34801W        W 1584   1.603   4.326  10.636
34802W        W 1585  42.359   0.506  13.964
34803W        W 1586  31.439  27.645  13.361
34804W        W 1587  25.474  16.707   2.863
34805W        W 1588  19.034  23.973   3.327
34806W        W 1589  15.621  16.603   4.170
34807W        W 1590   6.194  11.682  14.548
34808W        W 1591   0.931  42.513  10.652
34809W        W 1592  20.819  25.533   2.404
34810W        W 1593  33.611  10.791   4.567
34811W        W 1594  19.740   1.722   4.108
34812W        W 1595  26.991  30.853   4.991
34813W        W 1596  10.716   9.816  10.484
34814W        W 1597  44.043   2.704   4.111
34815W        W 1598   2.963  43.597  12.125
34816W        W 1599  35.060  14.290  10.928
34817W        W 1600  13.789  37.923  14.918
34818W        W 1601  25.734   3.236   4.122
34819W        W 1602  29.013  24.484   3.788
34820W        W 1603  10.474  28.456   1.773
34821W        W 1604   4.047  17.256  14.015
34822W        W 1605   5.233  35.961   1.262
34823W        W 1606  34.879  42.377  12.949
34824W        W 1607  29.617  15.862   0.448
34825W        W 1608  12.648  28.482  12.686
34826W        W 1609  38.861  41.046   0.354
34827W        W 1610  18.093  23.399  12.846
34828W        W 1611  38.759  33.158  11.916
34829W        W 1612   1.097  38.793   1.819
34830W        W 1613  42.936  21.192  12.915
34831W        W 1614  21.083  14.097   0.918
34832W        W 1615  14.626  23.931   4.453
34833W        W 1616   8.377  39.846  14.898
34834W        W 1617  23.194  35.103   0.404
34835W        W 1618   0.877  42.449   1.366
34836W        W 1619  34.696  13.635   1.471
34837W        W 1620  12.098   3.349  13.598
34838W        W 1621  21.489  28.344   3.216
34839W        W 1622  37.311  15.621  13.487
34840W        W 1623   3.852  37.006   0.978
34841W        W 1624   4.277   9.869   1.378
34842W        W 1625   7.418  43.818  12.876
34843W        W 1626  41.033   5.960   2.463
34844W        W 1627  18.983  41.111  12.095
34845W        W 1628   5.694   0.213   1.386
34846W        W 1629  33.129  35.082  11.142
34847W        W 1630  21.646  13.654  12.504
34848W        W 1631  37.451   2.363  13.058
34849W        W 1632  12.377  20.378   2.119
34850W        W 1633  30.088  14.608   4.131
34851W        W 1634  41.779  14.727   2.829
34852W        W 1635   4.074  41.932  11.705
34853W        W 1636  35.081  36.942  12.152
34854W        W 1637  28.195  21.523  12.880
34855W        W 1638  21.022  30.940   1.744
34856W        W 1639  26.644  14.623   0.864
34857W        W 1640  16.849  15.708  14.238
34858W        W 1641  43.976  34.972  12.147
34859W        W 1642  25.811  34.969   2.838
34860W        W 1643  10.603  18.644  13.025
34861W        W 1644  20.440  44.510   3.674
34862W        W 1645  43.187  39.103   1.731
34863W        W 1646  29.581  22.282   3.342
34864W        W 1647  35.642  42.708   0.889
34865W        W 1648   7.892  13.370   2.903
34866W        W 1649  43.730  10.829   2.026
34867W        W 1650  19.592  22.041  11.536
34868W        W 1651   4.992  36.894  13.452
34869W        W 1652  13.297   7.737   2.111
34870W        W 1653  13.813  38.723   4.179
34871W        W 1654  19.808  18.000   4.608
34872W        W 1655  19.257   6.069  13.216
34873W        W 1656  30.156  28.227  11.485
34874W        W 1657  12.651  23.807   1.454
34875W        W 1658  28.048   3.216   4.106
34876W        W 1659  34.433   3.459   1.264
34877W        W 1660  10.334  25.266  13.313
34878W        W 1661  11.973  21.125   4.784
34879W        W 1662  38.170   6.411  13.518
34880W        W 1663   1.692   3.146  13.844
34881W        W 1664  33.833   6.294  11.629
34882W        W 1665  13.612  12.479   2.578
34883W        W 1666  34.428  37.837   2.251
34884W        W 1667  33.446  32.424  14.027
34885W        W 1668  39.472  33.645   2.009
34886W        W 1669  24.981  24.687   2.230
34887W        W 1670  26.044  37.735  12.140
34888W        W 1671  19.635   1.835  13.551
34889W        W 1672  17.282  11.414  10.441
34890W        W 1673  38.790  24.242   4.737
34891W        W 1674  32.426  34.000   4.703
34892W        W 1675   2.966  24.277   1.717
34893W        W 1676  35.060  32.709  13.437
34894W        W 1677  15.359   3.270  13.138
34895W        W 1678  16.119  44.532   3.288
34896W        W 1679  26.031  16.580   2.699
34897W        W 1680  25.386  43.311   1.213
34898W        W 1681  24.037  31.409  11.476
34899W        W 1682  43.212  22.089  12.353
34900W        W 1683  20.967   0.457  12.470
34901W        W 1684  32.804  25.474   0.398
34902W        W 1685  12.064  20.582   0.109
34903W        W 1686  13.105  27.078  13.305
34904W        W 1687  14.518  18.721  12.858
34905W        W 1688  20.605  31.873   0.293
34906W        W 1689  10.867  22.244   4.109
34907W        W 1690  11.792  11.661  12.419
34908W        W 1691  23.751  13.690  10.776
34909W        W 1692   5.393  39.924   4.103
34910W        W 1693   7.970  16.329   4.534
34911W        W 1694  37.131  16.669   3.421
34912W        W 1695  33.711  41.009  13.184
34913W        W 1696   9.885  17.798   4.573
34914W        W 1697   6.904  17.815   3.213
34915W        W 1698  43.641  39.504   2.868
34916W        W 1699  12.041  18.208   4.022
34917W        W 1700  29.552  40.185  13.071
34918W        W 1701  38.987   2.808   3.705
34919W        W 1702  30.993  19.158  10.657
34920W        W 1703  11.753  37.533  12.969
34921W        W 1704  39.317  15.792  10.704
34922W        W 1705  37.993  38.900   4.280
34923W        W 1706  41.233  26.041   2.580
34924W        W 1707  38.568  20.023  12.933
34925W        W 1708  10.456   2.319  10.554
34926W        W 1709   5.079  10.499   5.049
34927W        W 1710   8.258   3.533  14.561
34928W        W 1711   0.343   1.548  11.157
34929W        W 1712   1.339   1.653  14.990
34930W        W 1713  27.046   2.423   4.921
34931W        W 1714   9.320  19.594  14.107
34932W        W 1715  27.048   9.611   1.298
34933W        W 1716  16.684  31.498   0.336
34934W        W 1717  44.798   1.912  11.153
34935W        W 1718  42.062  18.919  10.358
34936W        W 1719   7.331   1.022   2.417
34937W        W 1720  18.836  26.501   1.140
34938W        W 1721   5.204  10.802  11.650
34939W        W 1722  39.892  25.669  13.329
34940W        W 1723  33.150  27.954  12.313
34941W        W 1724  12.686  12.130   3.821
34942W        W 1725  34.152  40.318  11.203
34943W        W 1726  15.692  34.496  14.054
34944W        W 1727   9.557   9.705   3.039
34945W        W 1728  13.356   1.418  11.990
34946W        W 1729   2.937  26.156  12.914
34947W        W 1730   5.327  31.681  10.421
34948W        W 1731  26.137  30.937  13.631
34949W        W 1732   0.735  30.636   3.807
34950W        W 1733  28.423  14.109  13.397
34951W        W 1734  17.640  12.193   1.388
34952W        W 1735   1.321  17.481   3.277
34953W        W 1736  27.192  10.297  12.636
34954W        W 1737  18.006   1.249   1.649
34955W        W 1738  29.865  16.524   0.736
34956W        W 1739   3.219  13.621  13.057
34957W        W 1740  11.356  10.747   2.829
34958W        W 1741  12.774   8.160   3.128
34959W        W 1742  14.725  35.415  13.989
34960W        W 1743  29.380  12.869   3.159
34961W        W 1744   8.920  38.230  10.582
34962W        W 1745  36.525  42.960   4.987
34963W        W 1746  25.020  34.333  11.106
34964W        W 1747   9.816  10.861  10.679
34965W        W 1748  44.277  35.398   3.444
34966W        W 1749  19.956   3.328  12.620
34967W        W 1750  41.040  30.776  14.446
34968W        W 1751  19.194   7.583   0.240
34969W        W 1752  29.879  12.170  14.962
34970W        W 1753  31.245  42.886   4.634
34971W        W 1754  23.533  37.704   2.822
34972W        W 1755   1.318  11.048   2.658
34973W        W 1756  35.936  44.524   9.932
34974W        W 1757  36.462   2.440  11.194
34975W        W 1758  20.821   1.254   3.032
34976W        W 1759   4.065   1.371  11.151
34977W        W 1760  29.146  27.684   2.152
34978W        W 1761   7.287  30.713   1.840
34979W        W 1762  41.770   5.892   3.836
34980W        W 1763  26.261  25.606  13.530
34981W        W 1764  11.080   2.813  14.012
34982W        W 1765  30.983  26.016   2.354
34983W        W 1766  42.859   7.958  13.191
34984W        W 1767  28.731  22.233   2.732
34985W        W 1768  31.222  18.076   3.219
34986W        W 1769  29.258  44.389  13.977
34987W        W 1770  19.623  18.213  11.085
34988W        W 1771  39.060  25.321   0.048
34989W        W 1772  42.628  14.719   0.826
34990W        W 1773  25.458  38.900   0.370
34991W        W 1774  16.676  27.890   1.043
34992W        W 1775  39.064  19.623  11.134
34993W        W 1776  39.280  35.377  14.441
34994W        W 1777   6.450  14.102   0.945
34995W        W 1778   8.125  30.436   3.279
34996W        W 1779  30.963  30.612   0.414
34997W        W 1780   9.585   5.419   1.776
34998W        W 1781  12.754  10.771  13.430
34999W        W 1782  44.513   8.653   2.798
35000W        W 1783  22.207  21.132   2.889
35001W        W 1784   7.294  24.270  13.738
35002W        W 1785  25.314  23.525  11.144
35003W        W 1786  38.381   5.700  13.039
35004W        W 1787   3.527  27.511   0.549
35005W        W 1788  27.240   8.244  14.829
35006W        W 1789  23.373  39.918   9.637
35007W        W 1790  16.253  44.320  14.397
35008W        W 1791  41.491  30.023  11.642
35009W        W 1792  32.454  41.888   2.597
35010W        W 1793  22.729  22.479   3.805
35011W        W 1794  11.172  43.498  12.481
35012W        W 1795   8.879  41.055   0.053
35013W        W 1796  36.356  36.420   2.725
35014W        W 1797   8.204  35.507   1.853
35015W        W 1798  29.525  26.432   2.897
35016W        W 1799   1.022  22.283  14.087
35017W        W 1800  30.185   3.252   4.625
35018W        W 1801   4.946  24.954   3.657
35019W        W 1802   7.398  11.101   0.421
35020W        W 1803  28.970  41.454   2.422
35021W        W 1804  12.847  40.730   3.678
35022W        W 1805   5.710   6.286  11.240
35023W        W 1806  43.452  41.467   2.958
35024W        W 1807  26.531  17.225  11.239
35025W        W 1808  25.073  29.947   4.164
35026W        W 1809   7.270   5.279   4.511
35027W        W 1810  15.787  34.137  13.673
35028W        W 1811  32.483  38.933   0.290
35029W        W 1812  25.246  36.950  12.991
35030W        W 1813  16.899  21.658  14.420
35031W        W 1814  12.152  39.645   2.387
35032W        W 1815  21.467  40.210   2.395
35033W        W 1816  32.211  25.924   1.348
35034W        W 1817  16.318  34.339   4.580
35035W        W 1818  39.926  32.632   2.584
35036W        W 1819  12.289  37.739   1.901
35037W        W 1820  33.812  35.546   0.360
35038W        W 1821  35.995  16.267  10.827
35039W        W 1822  11.033  19.330   3.408
35040W        W 1823  43.307  23.483   4.948
35041W        W 1824   2.067   4.858  10.962
35042W        W 1825  12.306   9.640  14.346
35043W        W 1826  25.857   5.111   5.075
35044W        W 1827   7.722  21.517   3.148
35045W        W 1828  43.795  15.891   1.588
35046W        W 1829  41.557   7.862   3.278
35047W        W 1830  19.738  27.922   0.886
35048W        W 1831  20.094  36.528  14.228
35049W        W 1832   7.688  16.824   0.907
35050W        W 1833  23.399   6.601   1.953
35051W        W 1834  15.630  43.762  13.983
35052W        W 1835   7.349  38.962  14.829
35053W        W 1836   3.148  24.647  14.848
35054W        W 1837  17.262  42.150   3.849
35055W        W 1838  25.929   1.881  11.703
35056W        W 1839  35.996  26.857   5.062
35057W        W 1840   5.982  18.595  10.518
35058W        W 1841  24.574  31.753   1.058
35059W        W 1842  14.204  15.696   1.092
35060W        W 1843  31.941  37.773  13.868
35061W        W 1844  17.219   4.133   3.751
35062W        W 1845  36.090  19.195  11.621
35063W        W 1846   9.689  18.774   3.793
35064W        W 1847  34.617   5.707  14.136
35065W        W 1848   5.422  27.432   0.999
35066W        W 1849  16.226  38.441  10.761
35067W        W 1850  39.906  21.683   4.097
35068W        W 1851  19.663  38.534   0.819
35069W        W 1852  13.142  14.102  13.885
35070W        W 1853   0.940  41.006   2.336
35071W        W 1854   1.396  30.149  12.360
35072W        W 1855  25.173   0.473   1.327
35073W        W 1856  13.001  10.475   0.890
35074W        W 1857  42.352  11.345  12.011
35075W        W 1858   2.991  40.779  11.609
35076W        W 1859   5.055  15.984  12.018
35077W        W 1860  24.095  22.632  11.114
35078W        W 1861  29.345  16.634   3.172
35079W        W 1862  39.766  27.062  13.901
35080W        W 1863  37.390  23.185   1.252
35081W        W 1864  15.972   4.785  14.527
35082W        W 1865  20.175  44.288  11.515
35083W        W 1866  41.799  17.421   3.566
35084W        W 1867  42.765  35.126   2.838
35085W        W 1868   1.519  23.578   4.231
35086W        W 1869  23.957  43.822   2.067
35087W        W 1870  36.678   0.106   3.944
35088W        W 1871  21.755  30.058  13.331
35089W        W 1872   3.545  44.277   0.168
35090W        W 1873  44.809  28.843  12.089
35091W        W 1874  31.604  14.992   1.695
35092W        W 1875  42.729  42.883  13.788
35093W        W 1876  34.099   5.807  14.077
35094W        W 1877  17.000  42.963   3.383
35095W        W 1878   4.963  15.556  10.386
35096W        W 1879  29.500  43.932  13.827
35097W        W 1880  12.618   3.768  11.000
35098W        W 1881  24.130  27.675   2.196
35099W        W 1882   3.146   0.427   2.121
35100W        W 1883  34.136  43.563   3.069
35101W        W 1884   0.339  39.120  11.175
35102W        W 1885  41.164  33.122  12.406
35103W        W 1886   0.805   4.339  11.379
35104W        W 1887  18.698  41.716  11.600
35105W        W 1888  44.784  18.219   4.368
35106W        W 1889   0.301   1.495  13.431
35107W        W 1890  21.141  31.432   1.940
35108W        W 1891  28.456  41.333   1.784
35109W        W 1892  14.323  22.777  12.881
35110W        W 1893  36.895  34.893  11.546
35111W        W 1894  41.083  30.697  11.182
35112W        W 1895  36.717   0.341   4.421
35113W        W 1896  40.397  18.706   1.377
35114W        W 1897  12.417  43.369   2.321
35115W        W 1898  11.749  36.629  11.927
35116W        W 1899  20.895  19.077  10.654
35117W        W 1900   2.468  31.562   1.439
35118W        W 1901   8.605  32.473  12.894
35119W        W 1902   3.285  22.927  14.817
35120W        W 1903  20.049  25.779  13.054
35121W        W 1904  25.375  29.990   3.319
35122W        W 1905  23.577   8.101   3.415
35123W        W 1906  11.820   3.596  10.738
35124W        W 1907  16.138  33.463   3.262
35125W        W 1908   9.085  37.291   2.487
35126W        W 1909  23.724  30.546  12.496
35127W        W 1910   5.560  28.048   1.697
35128W        W 1911   8.612  10.305  13.028
35129W        W 1912  23.246  32.076  12.972
35130W        W 1913  39.021  16.395   0.853
35131W        W 1914  30.754  32.667  12.130
35132W        W 1915   8.445  10.743  11.849
35133W        W 1916   0.777  42.005  14.149
35134W        W 1917  16.558  40.752   1.274
35135W        W 1918  19.044  23.759  10.638
35136W        W 1919   1.690  35.736   0.383
35137W        W 1920  11.777  17.233  12.888
35138W        W 1921  44.192  39.028   3.566
35139W        W 1922   2.319  13.310   3.246
35140W        W 1923  20.943  23.815   0.646
35141W        W 1924  31.521  23.779  11.068
35142W        W 1925   1.997  33.473   0.084
35143W        W 1926  17.648  33.167  14.994
35144W        W 1927  40.123   0.521  14.421
35145W        W 1928  10.788  32.463  14.731
35146W        W 1929  44.122  37.404  10.897
35147W        W 1930  35.136  22.514   3.269
35148W        W 1931   9.982   4.448  14.437
35149W        W 1932  31.160  32.387   3.396
35150W        W 1933  42.497  30.118   4.162
35151W        W 1934  14.336  11.580   1.859
35152W        W 1935  44.097  37.376   2.720
35153W        W 1936  31.860  29.748   0.805
35154W        W 1937  12.531  36.559  11.277
35155W        W 1938  12.747  10.979  11.440
35156W        W 1939  27.053   3.171   1.234
35157W        W 1940  13.160  34.741   4.225
35158W        W 1941   0.226   2.398   1.242
35159W        W 1942  11.404  10.911   1.714
35160W        W 1943  37.567  33.529   1.768
35161W        W 1944   9.141  36.344   4.085
35162W        W 1945  38.531  14.543   2.222
35163W        W 1946   9.920  20.248   3.668
35164W        W 1947  44.297  26.437   3.621
35165W        W 1948  19.584  11.047  14.349
35166W        W 1949  42.544   7.807  13.935
35167W        W 1950  27.399  15.207   2.956
35168W        W 1951  35.045  35.545   0.059
35169W        W 1952  31.444   8.224  10.301
35170W        W 1953  11.794  32.904  11.919
35171W        W 1954   6.327  24.171   3.417
35172W        W 1955   1.332  13.546  13.389
35173W        W 1956  15.096  26.621   1.913
35174W        W 1957  44.722  36.508  13.694
35175W        W 1958   7.148   2.442   1.244
35176W        W 1959  43.436  29.608   1.234
35177W        W 1960  10.423  32.374  12.383
35178W        W 1961  18.083  10.682   1.647
35179W        W 1962  44.938  12.894  13.861
35180W        W 1963  31.112  24.268   2.715
35181W        W 1964  12.079   2.994  12.106
35182W        W 1965  38.531  32.395   0.715
35183W        W 1966   0.445   7.932   2.823
35184W        W 1967  20.785  34.993   2.322
35185W        W 1968   4.243  40.488   2.262
35186W        W 1969  38.626  22.723  12.057
35187W        W 1970  26.652   5.654   3.247
35188W        W 1971   1.454  29.564   1.838
35189W        W 1972   2.812  17.727   1.778
35190W        W 1973  40.784   5.207  12.479
35191W        W 1974  10.369  34.084   2.761
35192W        W 1975  27.276  17.664  12.949
35193W        W 1976  29.361   3.703   0.416
35194W        W 1977  39.575  25.699  11.169
35195W        W 1978  14.078   7.121  14.413
35196W        W 1979  39.685  44.747   1.947
35197W        W 1980  17.874   9.669  11.298
35198W        W 1981  37.451  12.867   2.226
35199W        W 1982  23.690  44.166  12.998
35200W        W 1983   3.210   7.273   4.696
35201W        W 1984  32.996  35.113  13.293
35202W        W 1985  25.266   2.806   2.228
35203W        W 1986   3.133  41.934  14.792
35204W        W 1987   7.602  44.446   1.834
35205W        W 1988  14.827  14.709  13.321
35206W        W 1989   5.139  39.364   0.359
35207W        W 1990  19.796  25.486   3.688
35208W        W 1991  27.087   3.879  13.687
35209W        W 1992   4.267  35.303   0.378
35210W        W 1993  28.127   6.946   4.550
35211W        W 1994  20.325  15.835  10.264
35212W        W 1995  20.298  36.983  10.751
35213W        W 1996  10.578  29.711   0.700
35214W        W 1997   5.358  38.004   1.843
35215W        W 1998  29.682   2.324   2.299
35216W        W 1999  16.053  15.908   4.124
35217W        W 2000   3.811  17.671   4.391
35218W        W 2001  40.077  20.573  13.945
35219W        W 2002  38.476   7.165   1.329
35220W        W 2003  38.761  28.637  10.643
35221W        W 2004  39.972  30.688  13.592
35222W        W 2005  28.218   4.322  13.039
35223W        W 2006   2.474  37.316  11.450
35224W        W 2007  29.952   7.122   1.777
35225W        W 2008  17.140  16.137   0.899
35226W        W 2009  36.978   3.705   1.765
35227W        W 2010   8.289  31.140  12.583
35228W        W 2011  23.982  15.319  13.979
35229W        W 2012  10.161   5.788  14.709
35230W        W 2013  41.824  25.726   0.445
35231W        W 2014  34.227  42.744   2.481
35232W        W 2015  20.533  39.502  14.643
35233W        W 2016   1.984  18.313  13.901
35234W        W 2017  25.299  27.627  14.733
35235W        W 2018  29.637  43.333   3.223
35236W        W 2019   2.797  26.114   0.623
35237W        W 2020  12.112  15.816   0.032
35238W        W 2021  41.413  27.604   3.874
35239W        W 2022  23.677  16.798  10.692
35240W        W 2023  27.242  21.179   3.480
35241W        W 2024  31.897   2.044  12.379
35242W        W 2025  41.498  25.670  13.341
35243W        W 2026  33.484  16.663  10.765
35244W        W 2027  28.427   5.389  14.864
35245W        W 2028  29.603  25.377  10.795
35246W        W 2029  31.130  43.918   4.599
35247W        W 2030   7.636  21.238  11.183
35248W        W 2031   9.514  39.592   3.193
35249W        W 2032  15.103   7.251  11.395
35250W        W 2033  36.906   8.572   0.465
35251W        W 2034   8.012  10.176  12.171
35252W        W 2035  10.229  14.181  12.251
35253W        W 2036  36.646  42.891  13.021
35254W        W 2037  42.556  22.493   2.738
35255W        W 2038  27.651  16.057   4.813
35256W        W 2039   1.364   9.877  14.319
35257W        W 2040   5.436   7.660   3.354
35258W        W 2041  44.871  11.657  13.534
35259W        W 2042  17.696  29.455  12.470
35260W        W 2043   7.818  37.941   3.934
35261W        W 2044  39.441  41.946  11.191
35262W        W 2045   6.201  44.865   2.695
35263W        W 2046  17.306  36.111  12.976
35264W        W 2047   9.877  18.143   0.737
35265W        W 2048  22.216  39.457  11.269
35266W        W 2049  16.775   0.874   1.679
35267W        W 2050  25.502  39.434  14.869
35268W        W 2051  14.318  19.126   2.412
35269W        W 2052  41.488  22.113   2.305
35270W        W 2053  30.546  37.248  10.624
35271W        W 2054   5.382  25.126   3.365
35272W        W 2055  19.321  10.299  14.942
35273W        W 2056  28.247   1.507  10.194
35274W        W 2057  31.073  39.798   1.859
35275W        W 2058   4.892  40.284  12.891
35276W        W 2059  27.752   8.297   4.427
35277W        W 2060  35.655  16.792   3.874
35278W        W 2061   9.851  31.934   3.059
35279W        W 2062   0.223  20.244  13.574
35280W        W 2063   6.227  43.022   1.023
35281W        W 2064  19.183  33.789  13.709
35282W        W 2065   6.402   1.135   1.494
35283W        W 2066  25.697   1.320  12.488
35284W        W 2067  11.082  22.677   3.295
35285W        W 2068  13.165  24.207  14.612
35286W        W 2069  11.519  40.507   3.606
35287W        W 2070  30.228  13.135  12.012
35288W        W 2071  44.673  35.619  14.627
35289W        W 2072  38.953   9.313  14.413
35290W        W 2073  29.738  20.146  14.270
35291W        W 2074  39.389  41.096  12.485
35292W        W 2075  14.307  26.496  13.307
35293W        W 2076  37.489   6.180   2.213
35294W        W 2077  30.927  40.290   1.769
35295W        W 2078  17.653   2.176   3.215
35296W        W 2079   2.853  38.010   1.460
35297W        W 2080   1.405  12.412   1.907
35298W        W 2081   3.469   6.857  13.942
35299W        W 2082  22.688   6.334   3.372
35300W        W 2083  39.257   9.270  13.427
35301W        W 2084  21.036  19.193   3.213
35302W        W 2085  17.514   3.682   4.929
35303W        W 2086  21.529  28.990   3.507
35304W        W 2087   4.043  31.479  11.111
35305W        W 2088   0.413  10.629   4.145
35306W        W 2089   3.675   9.124  13.977
35307W        W 2090   7.849   2.829   1.282
35308W        W 2091  12.666  28.006  10.477
35309W        W 2092  24.971  10.239  11.204
35310W        W 2093  17.134   1.247  11.517
35311W        W 2094  29.547  18.726  10.239
35312W        W 2095  28.789  21.880  13.323
35313W        W 2096  17.406  26.612  12.657
35314W        W 2097  40.864   9.850   4.626
35315W        W 2098  17.394   3.345   4.127
35316W        W 2099   5.390  34.247  11.178
35317W        W 2100  38.626   8.635  10.672
35318W        W 2101  20.542  40.355   1.503
35319W        W 2102  41.781  33.666   2.224
35320W        W 2103  39.951  36.972  13.784
35321W        W 2104  20.570  30.942   0.372
35322W        W 2105  44.288  17.797   4.172
35323W        W 2106  15.529   7.835  10.782
35324W        W 2107  37.072   4.813  11.101
35325W        W 2108  20.204   3.881  13.893
35326W        W 2109   1.499  33.819  12.352
35327W        W 2110  38.112  36.482   2.416
35328W        W 2111  12.039   0.167  13.896
35329W        W 2112   9.140  36.942  12.402
35330W        W 2113  14.437  38.779  11.820
35331W        W 2114   4.408  35.999   4.595
35332W        W 2115  21.502  18.292   3.259
35333W        W 2116  38.119  31.188  13.396
35334W        W 2117  12.327  25.997   1.243
35335W        W 2118  29.464  35.176   2.770
35336W        W 2119  31.506  20.009   4.641
35337W        W 2120  41.244  34.541  12.903
35338W        W 2121  10.872  27.664   2.037
35339W        W 2122   3.831   7.596  10.895
35340W        W 2123  31.203   1.420  10.409
35341W        W 2124  21.522  21.710   3.723
35342W        W 2125  34.181   7.517   3.289
35343W        W 2126  29.462  13.904   4.189
35344W        W 2127  26.260  26.548   2.905
35345W        W 2128  27.147   3.719  11.594
35346W        W 2129   6.767  41.657   4.842
35347W        W 2130  42.810  22.180  13.291
35348W        W 2131  17.803   8.370  10.691
35349W        W 2132   7.898  30.009  14.925
35350W        W 2133  14.487   8.828   4.641
35351W        W 2134  24.688  23.153  12.111
35352W        W 2135  34.703  44.044  13.779
35353W        W 2136  12.318  19.576   0.304
35354W        W 2137  36.864  26.604   2.373
35355W        W 2138  24.413  41.249  12.712
35356W        W 2139  22.209  17.579  11.846
35357W        W 2140  17.007   3.611   5.020
35358W        W 2141   3.872   8.901  11.964
35359W        W 2142  10.665   8.921  11.429
35360W        W 2143   4.879  16.649   4.637
35361W        W 2144  24.124  23.941   9.847
35362W        W 2145   3.777  25.375  14.458
35363W        W 2146  36.052   6.590  12.859
35364W        W 2147  16.154  10.357  13.497
35365W        W 2148  16.655  34.665  12.940
35366W        W 2149  40.952  40.899   1.398
35367W        W 2150  32.228  30.745  11.109
35368W        W 2151  34.823  43.330   3.744
35369W        W 2152  16.745   5.968   2.756
35370W        W 2153  31.087  38.824  13.531
35371W        W 2154   5.303   3.173  10.483
35372W        W 2155  22.759  30.384   1.727
35373W        W 2156  32.379   9.264   3.595
35374W        W 2157  25.081  30.658  10.557
35375W        W 2158  10.723  20.574  11.740
35376W        W 2159  27.608  40.502  10.755
35377W        W 2160   9.263  14.420  14.290
35378W        W 2161  19.203  33.466   1.560
35379W        W 2162   1.274  19.170   2.237
35380W        W 2163  44.329  17.662   3.690
35381W        W 2164  20.568   2.379   9.795
35382W        W 2165  17.292  11.632   0.776
35383W        W 2166  12.620   1.878  11.545
35384W        W 2167   1.369  36.560   1.299
35385W        W 2168   1.348   5.810  12.021
35386W        W 2169  32.296  17.444   5.083
35387W        W 2170  26.096  44.927  12.526
35388W        W 2171  34.582  32.647   4.044
35389W        W 2172  23.072  28.156   1.496
35390W        W 2173  17.268  20.297  13.236
35391W        W 2174  15.265  33.392  13.408
35392W        W 2175   3.896  41.834  11.246
35393W        W 2176  40.869  26.909   2.866
35394W        W 2177  24.712  24.776  14.406
35395W        W 2178  12.707  22.508   2.452
35396W        W 2179   0.590  23.047   3.537
35397W        W 2180  14.163  24.694  14.847
35398W        W 2181  24.064  15.469   3.215
35399W        W 2182   0.387  11.227  12.095
35400W        W 2183  25.091  44.003  12.357
35401W        W 2184  30.685  18.359  10.715
35402W        W 2185   9.836  32.334   1.195
35403W        W 2186  43.023  14.321  10.036
35404W        W 2187  19.779  41.978  13.850
35405W        W 2188   8.236  28.404  13.476
35406W        W 2189  26.030   7.960   1.752
35407W        W 2190  14.253  42.222  14.182
35408W        W 2191  15.467  41.830  11.103
35409W        W 2192   5.444   1.781   4.494
35410W        W 2193   9.507  27.396   0.267
35411W        W 2194  31.990  36.820   4.709
35412W        W 2195  34.367  21.779  14.168
35413W        W 2196  30.151  35.015  13.019
35414W        W 2197  13.170  38.054  13.793
35415W        W 2198  28.513  41.385  14.490
35416W        W 2199   0.749  18.288  14.365
35417W        W 2200  16.083   3.796   3.533
35418W        W 2201  13.753  10.779  14.285
35419W        W 2202   3.286  27.482  11.995
35420W        W 2203  29.479  12.245  11.174
35421W        W 2204  37.027  11.258   0.920
35422W        W 2205  28.976  26.079   2.706
35423W        W 2206   4.763  34.026  12.816
35424W        W 2207  31.198  35.368   3.554
35425W        W 2208  26.678  13.535   2.403
35426W        W 2209  44.484   6.803   2.677
35427W        W 2210  17.615  20.750   3.655
35428W        W 2211  15.871   4.826   4.596
35429W        W 2212  28.570  40.467   3.089
35430W        W 2213  13.203  10.689   1.652
35431W        W 2214   6.663   7.786   2.632
35432W        W 2215  33.650  42.215  14.779
35433W        W 2216  15.719  28.503   0.477
35434W        W 2217  11.452  33.809  12.432
35435W        W 2218  44.799   9.222   3.558
35436W        W 2219   2.357  37.465   4.147
35437W        W 2220  18.648   2.731   4.050
35438W        W 2221  38.556  17.655   3.453
35439W        W 2222  41.961  33.527  10.672
35440W        W 2223  43.333  32.844   4.012
35441W        W 2224  32.437  38.444   4.961
35442W        W 2225  30.351  32.861  13.117
35443W        W 2226  42.023  29.996  12.040
35444W        W 2227  20.343  20.904   5.051
35445W        W 2228  11.783  14.584  13.995
35446W        W 2229   2.951  32.610   0.299
35447W        W 2230   2.223  38.172  11.137
35448W        W 2231   7.542   7.410   1.941
35449W        W 2232   6.420  22.710   2.913
35450W        W 2233  25.927   6.005  13.442
35451W        W 2234   2.353  28.351  13.644
35452W        W 2235  40.086  29.432   4.695
35453W        W 2236  19.261  41.867  11.655
35454W        W 2237   2.222  22.644   2.783
35455W        W 2238   3.801  36.872   0.461
35456W        W 2239  32.172   6.385  10.737
35457W        W 2240  26.159  38.374  14.718
35458W        W 2241  17.639  31.374  13.835
35459W        W 2242  33.910  18.238  11.168
35460W        W 2243  36.497  38.193  12.882
35461W        W 2244  16.752   2.201  12.967
35462W        W 2245  19.525   7.774   3.757
35463W        W 2246  11.279  19.298  14.113
35464W        W 2247  16.241  25.547  14.486
35465W        W 2248  28.538  27.601   2.871
35466W        W 2249  21.181  36.073   0.573
35467W        W 2250  23.230  23.633   3.695
35468W        W 2251  19.212  29.489   2.251
35469W        W 2252  12.518  25.975  13.459
35470W        W 2253  26.122   3.558   0.204
35471W        W 2254  27.400  32.772   4.198
35472W        W 2255  36.374   2.240   4.175
35473W        W 2256  13.886  34.693   2.314
35474W        W 2257  31.414  34.233  13.092
35475W        W 2258  25.450  40.814  13.367
35476W        W 2259  44.382  26.363   2.334
35477W        W 2260  41.336  28.972  14.351
35478W        W 2261  36.946   7.745   0.185
35479W        W 2262   4.994  33.477  14.867
35480W        W 2263  22.714  10.778   1.274
35481W        W 2264  33.822  14.178   3.205
35482W        W 2265  40.571  37.195  12.905
35483W        W 2266  41.664   5.694   4.311
35484W        W 2267   7.256  24.427   1.852
35485W        W 2268  35.895  42.252   0.943
35486W        W 2269  43.874   7.240   3.369
35487W        W 2270  13.916  30.642  11.935
35488W        W 2271  12.626  23.579   4.484
35489W        W 2272  38.581  42.893   1.813
35490W        W 2273  20.734  27.329   1.721
35491W        W 2274  18.056  21.995  14.298
35492W        W 2275  19.531  39.077  13.560
35493W        W 2276   5.140  30.508   2.347
35494W        W 2277   4.853   5.645   2.344
35495W        W 2278  31.611  14.520  14.500
35496W        W 2279  35.117  20.276  12.943
35497W        W 2280  28.439  15.768   3.130
35498W        W 2281  12.057  36.601  14.502
35499W        W 2282  33.991  14.403   1.447
35500W        W 2283   9.185  35.850  13.384
35501W        W 2284  29.097  30.931  14.961
35502W        W 2285  44.343  21.708  13.835
35503W        W 2286   9.876  36.160  14.718
35504W        W 2287  20.613  34.208  13.409
35505W        W 2288  25.035  28.206  12.456
35506W        W 2289   8.231  18.161  11.140
35507W        W 2290   2.070  38.347   0.870
35508W        W 2291  43.560  12.591  11.547
35509W        W 2292   8.146   6.281   0.334
35510W        W 2293  32.595   7.681   2.267
35511W        W 2294  33.428  37.005   2.387
35512W        W 2295  11.754  29.419  13.079
35513W        W 2296  31.478  23.280  11.137
35514W        W 2297  25.045  30.955   1.397
35515W        W 2298  18.587  44.586  13.076
35516W        W 2299  29.551   3.216  12.513
35517W        W 2300  31.586   1.339   0.939
35518W        W 2301  24.707  25.492   4.406
35519W        W 2302  18.059  30.690  11.672
35520W        W 2303  18.546  28.938   1.962
35521W        W 2304  10.731  38.485  11.619
35522W        W 2305  32.133  21.451  13.612
35523W        W 2306  39.467  26.871  14.522
35524W        W 2307  27.187  12.774   2.195
35525W        W 2308  36.675  30.591  13.983
35526W        W 2309  26.018   8.749  14.987
35527W        W 2310  19.099  42.548  11.051
35528W        W 2311  40.622  16.800  11.338
35529W        W 2312  15.042  17.945  12.504
35530W        W 2313  36.320  31.968   1.514
35531W        W 2314   1.887  18.448  12.967
35532W        W 2315  28.598  37.970  14.081
35533W        W 2316  43.072  40.528   1.725
35534W        W 2317  32.413  40.844   0.949
35535W        W 2318   2.421  42.365   4.679
35536W        W 2319  11.281  22.004  11.934
35537W        W 2320   5.095  41.246   1.947
35538W        W 2321  35.001   7.420   4.656
35539W        W 2322  13.873  26.518   1.365
35540W        W 2323   2.842   3.049  12.980
35541W        W 2324  34.586  17.688   2.157
35542W        W 2325  32.379  17.437   0.280
35543W        W 2326  23.805  12.649  11.606
35544W        W 2327   4.951  18.269   2.883
35545W        W 2328  33.162  26.673  12.836
35546W        W 2329   4.293  27.386   1.407
35547W        W 2330  20.462  39.447  11.490
35548W        W 2331   2.487  30.046   0.587
35549W        W 2332  21.727  21.633  13.441
35550W        W 2333   7.499  24.636   2.708
35551W        W 2334  23.783  29.154  11.864
35552W        W 2335  43.846   5.488   1.177
35553W        W 2336   3.018  18.657   3.307
35554W        W 2337  29.567  39.062   2.188
35555W        W 2338   2.419  37.767  13.421
35556W        W 2339  42.089   2.821  12.546
35557W        W 2340  30.285  21.612  10.628
35558W        W 2341  44.810  35.811  13.085
35559W        W 2342   8.275  25.436  12.391
35560W        W 2343  20.775   9.916  11.177
35561W        W 2344   9.574  28.184  13.624
35562W        W 2345  29.773   9.753   4.542
35563W        W 2346  28.627   9.715   2.730
35564W        W 2347   6.083  33.639  10.138
35565W        W 2348  38.327  21.903   0.787
35566W        W 2349   7.215  44.450   0.772
35567W        W 2350   6.396  21.844  10.550
35568W        W 2351  33.203  19.399  14.913
35569W        W 2352  25.784   1.091  13.440
35570W        W 2353   4.747   9.640   1.349
35571W        W 2354  36.603   6.030  12.206
35572W        W 2355   7.447  44.047  14.261
35573W        W 2356  39.487  13.292  13.051
35574W        W 2357  14.364  41.785   1.782
35575W        W 2358  31.451  25.550   1.758
35576W        W 2359  22.155  22.816  10.605
35577W        W 2360   6.632  29.608   2.370
35578W        W 2361  31.961   6.210   0.493
35579W        W 2362  35.109  43.297  10.648
35580W        W 2363  41.813  21.484   5.052
35581W        W 2364  19.169  43.777   2.353
35582W        W 2365  20.093  44.522   3.251
35583W        W 2366  10.592   7.267   3.320
35584W        W 2367   6.325   3.418  14.160
35585W        W 2368  34.742  29.154  13.916
35586W        W 2369  42.289  21.630  14.779
35587W        W 2370   9.860  34.665   0.721
35588W        W 2371  35.386  34.870  12.357
35589W        W 2372  43.902  26.167   1.885
35590W        W 2373  17.552   4.827  10.863
35591W        W 2374  15.199  22.022   4.512
35592W        W 2375  10.226   0.066  14.557
35593W        W 2376  35.860   8.977   2.352
35594W        W 2377  42.958   4.820   2.840
35595W        W 2378  31.913  20.533  12.138
35596W        W 2379   3.760  36.604  14.983
35597W        W 2380  16.188  24.639   4.315
35598W        W 2381  14.087  34.827  10.549
35599W        W 2382  44.992  14.420  11.532
35600W        W 2383   6.180  30.128   5.077
35601W        W 2384  20.620  29.692  13.044
35602W        W 2385  24.795   2.190  14.269
35603W        W 2386  17.622  43.946   4.625
35604W        W 2387  44.740  20.569   0.759
35605W        W 2388   4.692  38.595   2.275
35606W        W 2389  16.006  21.673  13.536
35607W        W 2390   5.784  10.379   0.778
35608W        W 2391  19.187  10.931  11.939
35609W        W 2392  11.850  11.099  10.663
35610W        W 2393  16.856  19.324  12.079
35611W        W 2394   6.452  39.487   0.706
35612W        W 2395  31.538   4.367  12.013
35613W        W 2396  33.638   5.417   4.125
35614W        W 2397  28.856   1.936  12.464
35615W        W 2398  27.931  16.018   2.089
35616W        W 2399  41.766  29.975   1.751
35617W        W 2400  27.770  18.516   1.377
35618W        W 2401  44.071  44.256  11.663
35619W        W 2402  32.530  43.076  11.509
35620W        W 2403  26.468  17.739  14.098
35621W        W 2404   0.009  17.284  12.539
35622W        W 2405  20.935   3.450   2.229
35623W        W 2406   8.586  44.470   0.754
35624W        W 2407  43.828  42.709  12.942
35625W        W 2408  30.887  32.441  13.856
35626W        W 2409  26.842   2.971  12.026
35627W        W 2410  43.818  27.444  14.982
35628W        W 2411  29.933   3.510   2.708
35629W        W 2412  15.473   6.193   4.165
35630W        W 2413  23.622   5.263   0.381
35631W        W 2414  31.182  22.761   4.356
35632W        W 2415   2.580  30.008   2.756
35633W        W 2416  30.510  30.092  12.970
35634W        W 2417  35.713   5.710   1.342
35635W        W 2418  20.774  15.428   3.795
35636W        W 2419  35.957  38.142   3.242
35637W        W 2420  30.231  31.913   4.021
35638W        W 2421   7.316  43.311  11.468
35639W        W 2422   8.733  37.819   0.218
35640W        W 2423   5.651  15.273   0.804
35641W        W 2424  10.271   7.678   3.146
35642W        W 2425   2.729  28.603   3.569
35643W        W 2426   3.952  37.482   5.082
35644W        W 2427  35.092  27.385   2.323
35645W        W 2428   9.702   2.845  13.763
35646W        W 2429  21.840   8.911   3.262
35647W        W 2430  34.878  35.763   1.864
35648W        W 2431  29.961  41.310  13.401
35649W        W 2432  28.103  32.540   2.671
35650W        W 2433   9.105  16.678   3.099
35651W        W 2434  25.155   7.500  11.549
35652W        W 2435  36.513  14.869   0.408
35653W        W 2436   9.687  28.157   3.607
35654W        W 2437  14.070  30.470  13.824
35655W        W 2438  40.444  43.405   1.355
35656W        W 2439  22.114  13.339  13.595
35657W        W 2440   8.167  39.823  11.161
35658W        W 2441  29.986  20.050  12.466
35659W        W 2442  16.046  41.159   0.844
35660W        W 2443  18.112  26.965  12.154
35661W        W 2444  44.466  30.593  14.508
35662W        W 2445  42.311  25.333  11.047
35663W        W 2446   5.398   0.484   2.797
35664W        W 2447   0.587  41.554  12.596
35665W        W 2448  23.475  36.121   0.325
35666W        W 2449  36.108  35.897   3.467
35667W        W 2450  37.898  29.929   2.159
35668W        W 2451  30.640   8.268  10.645
35669W        W 2452  30.015   6.775  14.930
35670W        W 2453  44.930  30.159   0.611
35671W        W 2454  37.409  20.534  14.202
35672W        W 2455  36.965  12.246   3.776
35673W        W 2456  17.238  17.616   0.810
35674W        W 2457   5.165  30.085   1.712
35675W        W 2458  16.108  31.627   1.350
35676W        W 2459  29.187   2.812   3.354
35677W        W 2460  14.843  39.972   3.530
35678W        W 2461  22.886   1.433  11.061
35679W        W 2462   6.655  44.897  14.411
35680W        W 2463  39.301   9.141   0.523
35681W        W 2464  21.805  36.104   1.337
35682W        W 2465  20.049  37.071  11.202
35683W        W 2466  31.610   2.785  14.316
35684W        W 2467  29.155  33.598  10.745
35685W        W 2468  18.320  44.942   1.747
35686W        W 2469  12.344  21.255  11.513
35687W        W 2470  24.256  33.385   4.136
35688W        W 2471   6.350  11.204   2.935
35689W        W 2472  23.473  12.101   3.156
35690W        W 2473  37.375   3.001   3.453
35691W        W 2474  36.376   9.553  12.479
35692W        W 2475  21.749  17.172  10.693
35693W        W 2476  32.017  17.934  10.198
35694W        W 2477  42.890  12.489   2.220
35695W        W 2478   6.413   9.419  11.579
35696W        W 2479   7.706  10.506  12.792
35697W        W 2480   5.712  35.942   1.457
35698W        W 2481  32.626  36.894   3.147
35699W        W 2482  13.528  18.271   1.139
35700W        W 2483   0.203  15.841   1.866
35701W        W 2484   0.021  32.024  12.247
35702W        W 2485  16.536  36.356  13.410
35703W        W 2486  43.973  19.150   3.718
35704W        W 2487  17.807  44.923   1.774
35705W        W 2488  34.527  22.769   1.383
35706W        W 2489  15.147   1.281   4.093
35707W        W 2490  42.818  27.612  13.017
35708W        W 2491  33.456  35.916  11.546
35709W        W 2492  34.149  23.627   0.863
35710W        W 2493  29.965  44.834   4.485
35711W        W 2494  37.127   7.997   3.868
35712W        W 2495  14.253   5.869  14.724
35713W        W 2496  27.612   8.892   1.126
35714W        W 2497  31.064  36.762  13.539
35715W        W 2498  30.967  37.356  12.700
35716W        W 2499  22.643  29.880   1.934
35717W        W 2500  41.389  15.605   1.489
35718W        W 2501  28.902  15.677   3.887
35719W        W 2502  18.201  27.565  12.874
35720W        W 2503  13.825   8.595   2.826
35721W        W 2504   2.465  44.526   0.769
35722W        W 2505  12.114  36.334   3.484
35723W        W 2506  10.758  37.506   0.922
35724W        W 2507  13.316  12.563   3.762
35725W        W 2508  34.462   9.037  12.984
35726W        W 2509  20.627  18.631   4.536
35727W        W 2510  34.340  16.651  13.489
35728W        W 2511   4.337   2.669  14.065
35729W        W 2512  31.400  41.895   4.351
35730W        W 2513  42.503   4.353  13.490
35731W        W 2514  26.509  42.338   3.155
35732W        W 2515  33.111  36.375  14.340
35733W        W 2516   0.007  39.429  10.928
35734W        W 2517  39.067  31.922  11.573
35735W        W 2518  40.873  22.138  11.115
35736W        W 2519  36.433  20.132   4.221
35737W        W 2520  34.606   2.529  13.410
35738W        W 2521  36.650   7.398  12.108
35739W        W 2522  38.346  20.113  11.942
35740W        W 2523  14.669  22.266   3.132
35741W        W 2524  41.757  10.933   0.353
35742W        W 2525  12.664  41.251   1.253
35743W        W 2526  41.728  43.598  13.414
35744W        W 2527  12.254  22.756   4.127
35745W        W 2528  33.644  24.240   1.421
35746W        W 2529  22.760  18.160   0.736
35747W        W 2530  26.521   6.239  12.949
35748W        W 2531  20.097  29.496  12.445
35749W        W 2532  39.866  28.642  11.466
35750W        W 2533   2.908  39.512  14.168
35751W        W 2534  20.682  38.170   4.410
35752W        W 2535  15.903  11.728  11.156
35753W        W 2536  19.596  43.891  11.027
35754W        W 2537  23.088  34.905  10.640
35755W        W 2538   3.016  27.527  10.711
35756W        W 2539   6.108  37.711  11.499
35757W        W 2540   1.829  14.500  14.236
35758W        W 2541  19.181  30.675   4.545
35759W        W 2542  15.190  11.224   4.098
35760W        W 2543   2.489   7.961   0.445
35761W        W 2544  17.646   0.372  10.727
35762W        W 2545  12.277   0.784   4.489
35763W        W 2546  40.017  11.834  13.424
35764W        W 2547  26.555  35.565   4.055
35765W        W 2548  39.632  26.139   1.187
35766W        W 2549  24.568   8.313  11.965
35767W        W 2550   0.469   0.709  13.919
35768W        W 2551  15.946   8.102   2.457
35769W        W 2552  17.349  22.199   3.850
35770W        W 2553  12.189  30.160  13.046
35771W        W 2554  41.751   1.993  13.829
35772W        W 2555  34.615  26.979   4.683
35773W        W 2556   7.965  10.172  11.289
35774W        W 2557   7.386  40.953   4.526
35775W        W 2558  15.694   4.666   1.824
35776W        W 2559  28.991  15.761  14.983
35777W        W 2560  19.252  33.411  12.183
35778W        W 2561  11.293   3.010  12.569
35779W        W 2562  35.044  35.910  12.413
35780W        W 2563  12.035  23.448   3.105
35781W        W 2564  26.421  40.366  13.622
35782W        W 2565  38.415  16.079  11.522
35783W        W 2566  41.565  35.603   2.174
35784W        W 2567  38.766  44.387   3.271
35785W        W 2568   5.361  39.347   2.209
35786W        W 2569  42.840  37.325   0.003
35787W        W 2570  40.831   2.020   2.307
35788W        W 2571   3.296  31.825  11.435
35789W        W 2572  32.792  38.817  12.944
35790W        W 2573   1.495  24.196  14.258
35791W        W 2574  42.346  18.108  13.093
35792W        W 2575  35.863   2.809   1.537
35793W        W 2576   7.354  40.937  11.571
35794W        W 2577  12.047   9.954  13.450
35795W        W 2578  15.507  13.095  13.577
35796W        W 2579   4.231  41.258  13.558
35797W        W 2580  10.870  22.477   2.852
35798W        W 2581  25.597  11.135   4.145
35799W        W 2582  22.030  36.627   2.671
35800W        W 2583   8.913  39.898   1.568
35801W        W 2584  11.360  42.329  11.126
35802W        W 2585  18.689   9.402  14.822
35803W        W 2586  28.338  10.616   1.287
35804W        W 2587  34.623  34.443  12.859
35805W        W 2588  32.577   5.472  10.188
35806W        W 2589   9.196  41.571   3.206
35807W        W 2590  23.035  34.300   1.076
35808W        W 2591  33.475  14.255  10.761
35809W        W 2592   1.314  22.521  13.489
35810W        W 2593  42.594  16.868   0.162
35811W        W 2594  36.865  36.939  12.458
35812W        W 2595   9.346  23.544  12.979
35813W        W 2596  43.375  39.512   1.446
35814W        W 2597  44.615  31.336   0.794
35815W        W 2598  19.228  29.835  13.866
35816W        W 2599  26.722  39.936   2.816
35817W        W 2600  11.448  35.981   0.735
35818W        W 2601   8.271  23.232  13.861
35819W        W 2602  32.520  36.144   1.899
35820W        W 2603  23.574  22.018  13.548
35821W        W 2604  13.171  27.142  14.241
35822W        W 2605   4.603   1.322   3.248
35823W        W 2606   6.280  40.088   1.355
35824W        W 2607  11.549   9.700  14.742
35825W        W 2608  36.386  21.940   2.334
35826W        W 2609  26.101  31.378  13.328
35827W        W 2610  25.112  18.649  13.268
35828W        W 2611  41.329  24.237   1.244
35829W        W 2612  14.789  34.167   0.304
35830W        W 2613  18.707  23.511   3.399
35831W        W 2614  34.474  40.261   0.922
35832W        W 2615  41.402  42.332  13.957
35833W        W 2616  38.460  39.349  12.467
35834W        W 2617  22.998   6.972  10.369
35835W        W 2618  21.024   5.840  10.700
35836W        W 2619   7.704   1.476  13.268
35837W        W 2620  17.292  33.556  12.394
35838W        W 2621  42.244   6.136   3.757
35839W        W 2622  26.339  11.267   9.958
35840W        W 2623   8.239  17.615   2.754
35841W        W 2624  12.768  15.270   0.447
35842W        W 2625  44.737  23.185   0.647
35843W        W 2626  26.700  24.073   0.784
35844W        W 2627   6.731  29.336  14.397
35845W        W 2628  26.504  29.614  13.918
35846W        W 2629   9.163  28.505   1.471
35847W        W 2630  35.933  38.782   2.603
35848W        W 2631   7.924   5.679  11.693
35849W        W 2632   3.681  30.114   4.920
35850W        W 2633   3.099  24.750   0.922
35851W        W 2634   0.452  36.856   1.311
35852W        W 2635  43.069  44.762   2.336
35853W        W 2636  32.102  15.766  11.988
35854W        W 2637   6.647  10.094  13.253
35855W        W 2638   5.791  25.887   2.394
35856W        W 2639  42.074  23.073   3.191
35857W        W 2640  24.133  16.361  11.574
35858W        W 2641   3.536  23.129  11.963
35859W        W 2642   3.726  17.976  11.899
35860W        W 2643  27.893  19.119   2.671
35861W        W 2644  10.616  34.631  13.854
35862W        W 2645   2.602  16.649   1.184
35863W        W 2646  19.110  14.438  14.524
35864W        W 2647  36.441   6.678   0.937
35865W        W 2648   0.892  43.422   2.792
35866W        W 2649  35.606  20.173  12.038
35867W        W 2650  36.576  20.818   1.666
35868W        W 2651  22.557   3.194  14.470
35869W        W 2652  38.973  32.970   3.759
35870W        W 2653  30.422   1.754  14.931
35871W        W 2654   8.157  42.018   0.922
35872W        W 2655  36.722  26.926   4.528
35873W        W 2656  21.969  14.189   3.979
35874W        W 2657  22.577   5.480  13.585
35875W        W 2658  14.822  14.798   4.426
35876W        W 2659  14.067   4.311  11.084
35877W        W 2660   8.411  31.285   5.110
35878W        W 2661  44.730  17.516  13.976
35879W        W 2662  28.103  41.874   0.287
35880W        W 2663  35.064  34.374   3.891
35881W        W 2664   1.361  10.579  10.919
35882W        W 2665  12.313  28.273   4.536
35883W        W 2666  14.069  31.976  13.615
35884W        W 2667  37.593   3.246  14.491
35885W        W 2668  32.906  10.270   1.387
35886W        W 2669   7.397  30.441  13.008
35887W        W 2670  29.444   7.326  14.773
35888W        W 2671   2.770  37.125   4.110
35889W        W 2672  18.204  35.343   1.326
35890W        W 2673  17.619  22.691  11.845
35891W        W 2674  35.655   4.523  11.933
35892W        W 2675  44.868  37.512   1.177
35893W        W 2676   7.976   6.868   0.023
35894W        W 2677  40.816  30.057   3.248
35895W        W 2678  15.670  39.789   4.443
35896W        W 2679  18.547  43.542  13.764
35897W        W 2680  39.251   4.841  11.607
35898W        W 2681  23.683  27.490   2.927
35899W        W 2682  30.632  17.969   5.263
35900W        W 2683  24.778  36.491   2.621
35901W        W 2684  44.083  36.521   3.777
35902W        W 2685   2.952   4.811   0.752
35903W        W 2686  18.166  34.315   1.350
35904W        W 2687  41.191  17.580  12.015
35905W        W 2688  15.757  34.831   3.264
35906W        W 2689  41.379  28.454  14.527
35907W        W 2690  40.378  20.755   2.966
35908W        W 2691   2.266  35.328   4.187
35909W        W 2692  13.564   7.897   5.510
35910W        W 2693  38.089  23.536   2.770
35911W        W 2694  40.549  26.534   9.922
35912W        W 2695  23.526  25.679  14.432
35913W        W 2696  28.905   5.479   2.475
35914W        W 2697   5.783  33.514   1.966
35915W        W 2698  23.470  36.442   4.310
35916W        W 2699  39.317   2.417  11.226
35917W        W 2700  14.055  18.777  13.032
35918W        W 2701  18.965  27.144   2.212
35919W        W 2702  32.990  22.008   2.873
35920W        W 2703  13.731  21.177   3.433
35921W        W 2704  43.405  37.730  12.125
35922W        W 2705  41.778  43.185  12.544
35923W        W 2706  38.795  32.861  14.932
35924W        W 2707   8.916  33.385   3.663
35925W        W 2708   5.318  30.510   1.452
35926W        W 2709  20.670  22.525   4.508
35927W        W 2710  13.850  28.367   0.801
35928W        W 2711  33.789  37.417   3.643
35929W        W 2712  40.337   4.177   2.225
35930W        W 2713  27.013  35.059  10.591
35931W        W 2714  29.592  12.544   1.789
35932W        W 2715  22.934  13.659  13.247
35933W        W 2716  21.245  13.247  11.974
35934W        W 2717  20.994  18.078   4.133
35935W        W 2718  36.810  43.471   1.835
35936W        W 2719   5.427  40.392   0.293
35937W        W 2720   1.164  40.896  11.066
35938W        W 2721  31.049  19.284  14.039
35939W        W 2722  30.116  28.353  14.925
35940W        W 2723  12.098  19.789   1.411
35941W        W 2724  15.380  21.295  14.018
35942W        W 2725  19.299  44.574   2.803
35943W        W 2726   8.598  12.607  13.154
35944W        W 2727   4.842  16.176   3.050
35945W        W 2728  30.951  13.784   0.421
35946W        W 2729  39.947  42.467   4.545
35947W        W 2730   1.554  34.242   3.722
35948W        W 2731  30.197  40.177  14.853
35949W        W 2732  29.183  37.369   1.265
35950W        W 2733  17.100   8.781  12.081
35951W        W 2734   5.033   7.670  12.972
35952W        W 2735  13.006  28.084   0.797
35953W        W 2736  24.415   4.617   2.621
35954W        W 2737   9.924   2.820   0.328
35955W        W 2738  34.481   2.475  11.537
35956W        W 2739  13.642  21.663   3.562
35957W        W 2740  39.726   2.870  14.412
35958W        W 2741   4.793  35.858  12.518
35959W        W 2742  35.449  43.508  13.811
35960W        W 2743  44.515  33.036   9.924
35961W        W 2744  35.742  35.650  14.392
35962W        W 2745  22.536  26.729   4.133
35963W        W 2746  37.915  12.836  12.993
35964W        W 2747  18.375  35.345   0.833
35965W        W 2748   0.030  28.013   4.159
35966W        W 2749  28.942  37.897   3.851
35967W        W 2750  37.650   7.059   4.576
35968W        W 2751  27.775   8.168   3.424
35969W        W 2752  10.298  21.196  10.957
35970W        W 2753  26.697  26.411   3.193
35971W        W 2754  31.741  25.560   2.458
35972W        W 2755  17.000   9.779   3.787
35973W        W 2756   9.616  37.605  12.008
35974W        W 2757   9.818  25.490  11.725
35975W        W 2758  38.636  31.464  13.730
35976W        W 2759   1.137  40.465  11.999
35977W        W 2760  27.740  30.070  14.026
35978W        W 2761  16.160  39.145  12.548
35979W        W 2762  11.943  29.656  14.581
35980W        W 2763  14.299  31.998  14.092
35981W        W 2764  24.084  15.007  10.551
35982W        W 2765   5.956   6.513  14.462
35983W        W 2766  25.961  11.661  14.160
35984W        W 2767  33.365   8.818   3.799
35985W        W 2768  36.003   8.199   4.575
35986W        W 2769  18.731  33.380   0.792
35987W        W 2770  13.311   3.052   3.628
35988W        W 2771   5.204  10.839   4.670
35989W        W 2772  30.176  22.433   2.139
35990W        W 2773  28.364  12.633  13.637
35991W        W 2774  18.638  26.208  13.620
35992W        W 2775   7.565  34.634   2.880
35993W        W 2776  29.630  12.178  13.380
35994W        W 2777  15.110  40.484   3.881
35995W        W 2778  26.986   2.512  11.023
35996W        W 2779  38.895  21.142   0.033
35997W        W 2780  44.915   5.876  12.614
35998W        W 2781  31.040  30.927   4.370
35999W        W 2782  25.625  34.444  12.411
36000W        W 2783  28.660  17.313   3.795
36001W        W 2784  35.544  34.905  11.877
36002W        W 2785  35.075  15.851   1.760
36003W        W 2786  44.071  38.384  12.397
36004W        W 2787  11.359  17.627   2.203
36005W        W 2788  38.326  39.039   1.799
36006W        W 2789  26.211  11.804  13.738
36007W        W 2790   5.674   8.617  13.078
36008W        W 2791  16.677  27.251  10.777
36009W        W 2792  35.557  43.935   5.012
36010W        W 2793  39.060  12.866  10.719
36011W        W 2794   4.021  17.638   3.936
36012W        W 2795  42.551   4.464  11.708
36013W        W 2796  10.228  33.006   2.370
36014W        W 2797  29.375   8.306  12.948
36015W        W 2798  27.038   8.305  11.667
36016W        W 2799  16.830  42.999  11.496
36017W        W 2800  42.270   6.015  11.189
36018W        W 2801  25.403  13.371  14.339
36019W        W 2802  36.466  32.328   1.161
36020W        W 2803   1.227  37.333  11.615
36021W        W 2804  13.377   0.747   0.660
36022W        W 2805  24.444  40.871   0.843
36023W        W 2806  18.671  28.175  12.073
36024W        W 2807  23.409  23.135   3.588
36025W        W 2808  28.570   6.266   0.483
36026W        W 2809  24.204  30.062  10.933
36027W        W 2810  31.632  26.147   4.809
36028W        W 2811  14.193  27.706  11.560
36029W        W 2812  10.318  19.026   2.377
36030W        W 2813  35.586   5.839  14.873
36031W        W 2814  22.944  42.377   3.355
36032W        W 2815  22.170  44.527   3.236
36033W        W 2816  32.516  16.120   2.301
36034W        W 2817  41.491   4.675   1.479
36035W        W 2818  44.864  11.778  14.480
36036W        W 2819   5.840  20.250  12.440
36037W        W 2820   9.953  39.051  11.991
36038W        W 2821  40.544  27.434   3.814
36039W        W 2822  35.135  42.829  13.040
36040W        W 2823   8.854  22.245  10.058
36041W        W 2824  15.535  28.463  11.639
36042W        W 2825  18.718  17.666   3.143
36043W        W 2826  14.699  44.309   4.767
36044W        W 2827  35.962  10.881  12.577
36045W        W 2828  20.268  39.748   3.334
36046W        W 2829  35.119  12.307   3.542
36047W        W 2830  19.566   1.808  12.899
36048W        W 2831  43.056   0.541  13.309
36049W        W 2832  25.566   3.989  13.529
36050W        W 2833  13.699  31.663  10.862
36051W        W 2834  17.101  16.101  14.004
36052W        W 2835  42.398   1.102  12.951
36053W        W 2836  41.027  18.579  11.213
36054W        W 2837  21.165  27.690  10.435
36055W        W 2838  21.273  27.888  12.105
36056W        W 2839  13.874  40.465   1.205
36057W        W 2840  24.981  15.455  11.785
36058W        W 2841  30.991  39.393  11.663
36059W        W 2842  18.200  15.109  13.939
36060W        W 2843  42.542  38.315   2.917
36061W        W 2844  28.030  35.626  12.508
36062W        W 2845  22.124   5.301  14.959
36063W        W 2846  22.119  32.155   2.771
36064W        W 2847  21.195  32.168   3.616
36065W        W 2848  35.073  32.847  10.710
36066W        W 2849  18.620  41.906   3.828
36067W        W 2850  41.924  11.826  12.560
36068W        W 2851   3.356  24.418  10.466
36069W        W 2852  21.205  15.579   1.152
36070W        W 2853  39.396  38.091   4.495
36071W        W 2854  16.481   1.773  13.169
36072W        W 2855  41.876   5.158   0.448
36073W        W 2856  40.403  18.626  14.286
36074W        W 2857   9.679  12.938   2.761
36075W        W 2858  25.805   6.310   3.248
36076W        W 2859  43.386  32.681  14.357
36077W        W 2860  28.024  14.545   4.675
36078W        W 2861  21.499  38.118  14.160
36079W        W 2862  22.232  29.261  11.582
36080W        W 2863  20.031  11.704  10.507
36081W        W 2864  30.339  15.359  11.602
36082W        W 2865  19.517  20.607  12.102
36083W        W 2866  24.030   9.517  11.575
36084W        W 2867  15.134  34.972   4.619
36085W        W 2868  17.557  17.254   1.511
36086W        W 2869   0.279  24.754   4.559
36087W        W 2870  26.749  28.195  10.626
36088W        W 2871  39.985   9.542  12.373
36089W        W 2872  10.876  16.718   2.362
36090W        W 2873  38.979  42.719  11.968
36091W        W 2874   7.762  19.904   4.106
36092W        W 2875  44.433  41.365   0.952
36093W        W 2876  12.734  44.758  12.393
36094W        W 2877  33.518  34.021   2.105
36095W        W 2878  25.929   3.081   0.179
36096W        W 2879   6.935   8.914  14.008
36097W        W 2880  42.336  36.439   4.664
36098W        W 2881   4.796  34.798   4.252
36099W        W 2882  26.219   9.560  14.335
36100W        W 2883  19.225  38.491   0.548
36101W        W 2884  43.418   3.025  14.470
36102W        W 2885   0.487  44.404  13.060
36103W        W 2886  17.611   9.177   3.127
36104W        W 2887  16.167  43.971   4.173
36105W        W 2888  19.567  12.861  12.943
36106W        W 2889   7.850  38.529   3.288
36107W        W 2890   7.909  40.078  12.816
36108W        W 2891  32.437   5.955   3.218
36109W        W 2892  13.962   4.276  14.040
36110W        W 2893  30.151   4.390  11.939
36111W        W 2894  37.607  18.820  12.938
36112W        W 2895  34.428  24.838  13.511
36113W        W 2896   0.299  18.697   0.718
36114W        W 2897  24.571  38.897  13.949
36115W        W 2898   1.795  44.412   1.396
36116W        W 2899   5.361  32.967   2.712
36117W        W 2900  33.973  38.432   2.824
36118W        W 2901   7.445  44.458   0.282
36119W        W 2902   9.592  29.557  12.043
36120W        W 2903  31.100  21.497   1.787
36121W        W 2904  27.146  27.020  12.750
36122W        W 2905  35.593  35.058   1.800
36123W        W 2906  27.715  44.573  13.878
36124W        W 2907  35.890  11.579  13.972
36125W        W 2908   9.433  15.421   4.891
36126W        W 2909  11.408   8.210   0.466
36127W        W 2910  40.792  38.632  13.050
36128W        W 2911  27.065  25.677   3.572
36129W        W 2912  31.896   8.977   2.289
36130W        W 2913  41.009  13.104   0.819
36131W        W 2914  24.977  30.456  11.485
36132W        W 2915  26.231   5.324   2.955
36133W        W 2916  24.044  20.737  12.561
36134W        W 2917  43.317  43.319  13.536
36135W        W 2918  39.561  27.999  11.608
36136W        W 2919  20.601   6.083  10.916
36137W        W 2920  16.545  22.095  12.110
36138W        W 2921  38.563   9.689   2.006
36139W        W 2922  32.540  34.899  13.415
36140W        W 2923  27.909  25.427   1.187
36141W        W 2924  42.743   7.820   2.335
36142W        W 2925  31.944  37.945  11.961
36143W        W 2926  30.491  20.442   5.421
36144W        W 2927  14.383   8.777   2.976
36145W        W 2928  19.309  29.081   3.860
36146W        W 2929  40.562  24.122   0.604
36147W        W 2930  29.946  30.649   3.662
36148W        W 2931  30.995  22.954   2.130
36149W        W 2932  39.521  38.861  10.693
36150W        W 2933   4.300   9.483   0.485
36151W        W 2934  36.969  12.774   3.760
36152W        W 2935   2.399  28.955  14.453
36153W        W 2936  38.926  41.429   4.602
36154W        W 2937  27.964  25.457  13.947
36155W        W 2938  39.908  10.170  10.961
36156W        W 2939   5.360  40.058   1.361
36157W        W 2940  14.590  29.914  12.142
36158W        W 2941  22.952   3.421   3.091
36159W        W 2942  12.332  40.447  12.031
36160W        W 2943  18.199   4.460  12.035
36161W        W 2944  25.752  22.194   3.605
36162W        W 2945  44.927  35.404  10.938
36163W        W 2946  35.364  32.196   4.555
36164W        W 2947   9.124  20.169   1.903
36165W        W 2948  20.299  42.044  12.570
36166W        W 2949  34.218   0.730  14.617
36167W        W 2950  39.806   1.109   2.810
36168W        W 2951  37.128  11.157  12.862
36169W        W 2952  35.953  27.260   2.689
36170W        W 2953  10.170  10.877  12.255
36171W        W 2954  34.476  39.053  10.694
36172W        W 2955  21.157   0.902  11.580
36173W        W 2956  14.533  27.746  11.952
36174W        W 2957   5.902  14.105  13.863
36175W        W 2958  26.948  11.806  14.590
36176W        W 2959  25.559  42.311  12.396
36177W        W 2960  12.442  42.513   3.156
36178W        W 2961   4.248  44.325   2.174
36179W        W 2962   2.176  13.768   0.309
36180W        W 2963  38.551  24.002   3.235
36181W        W 2964  11.136  13.417  13.338
36182W        W 2965  42.938   5.147   3.268
36183W        W 2966  20.853  19.122  13.910
36184W        W 2967  35.096  36.743   2.688
36185W        W 2968  27.133  31.897  11.084
36186W        W 2969   2.834  17.221  11.558
36187W        W 2970  23.846  22.450   9.723
36188W        W 2971   3.406  35.841   0.778
36189W        W 2972   6.788   6.299  11.090
36190W        W 2973   3.720  27.564   4.443
36191W        W 2974  43.122  16.807   2.406
36192W        W 2975  26.612  42.550  10.268
36193W        W 2976  43.752  37.329   0.690
36194W        W 2977  38.096  43.630   1.544
36195W        W 2978  38.101  16.719   2.634
36196W        W 2979  18.555  13.685   3.263
36197W        W 2980  20.201  37.539  12.503
36198W        W 2981  29.730  15.979  12.125
36199W        W 2982  40.927  18.385   3.345
36200W        W 2983  21.576   8.147   3.470
36201W        W 2984  28.016  33.873  13.416
36202W        W 2985  15.572  15.163   4.818
36203W        W 2986  38.416  38.629  13.053
36204W        W 2987  14.103  28.953  12.107
36205W        W 2988  14.319  30.007  13.430
36206W        W 2989  34.793  12.807  13.532
36207W        W 2990  24.420  41.991   0.218
36208W        W 2991  38.634  23.025   4.580
36209W        W 2992  17.149   1.297   3.981
36210W        W 2993  18.949   6.031   1.467
36211W        W 2994  14.611  15.616   0.784
36212W        W 2995  36.871   8.739  12.903
36213W        W 2996  41.746  39.055  14.476
36214W        W 2997  31.955   3.347  14.966
36215W        W 2998  15.228  22.216   1.766
36216W        W 2999  32.190  24.185  12.358
36217W        W 3000   1.989   3.702  11.300
36218W        W 3001  34.197  26.462  11.810
36219W        W 3002  10.764  12.072   2.423
36220W        W 3003   0.014  32.078   2.630
36221W        W 3004   4.412   4.425   2.973
36222W        W 3005   2.398  41.795  13.452
36223W        W 3006   4.944  37.078   2.424
36224W        W 3007  21.049  38.593  10.384
36225W        W 3008  33.896   3.791   3.658
36226W        W 3009  13.140   4.079  12.694
36227W        W 3010  36.885  35.940  12.480
36228W        W 3011  32.704   4.321  13.509
36229W        W 3012  13.746  35.784  14.740
36230W        W 3013  41.310  31.640   0.817
36231W        W 3014  28.682  36.074  11.210
36232W        W 3015   3.673   3.220  12.524
36233W        W 3016  32.035  41.878   2.896
36234W        W 3017  21.959  40.270   2.244
36235W        W 3018  12.233  21.052  13.904
36236W        W 3019  40.394  19.560   5.153
36237W        W 3020  19.073  43.583   2.849
36238W        W 3021  18.701   0.272  10.725
36239W        W 3022  42.024  30.344   4.192
36240W        W 3023  29.962  10.127   4.239
36241W        W 3024  36.917   2.788  14.998
36242W        W 3025  15.221  41.323   0.519
36243W        W 3026  13.702  10.704   1.256
36244W        W 3027  28.990   1.894   0.945
36245W        W 3028  42.900  33.632   2.670
36246W        W 3029  16.823  12.737   1.620
36247W        W 3030  40.354  26.176  13.129
36248W        W 3031  40.386  37.015   1.281
36249W        W 3032  43.444  31.624   2.835
36250W        W 3033  24.506  37.505   1.002
36251W        W 3034  37.392   8.529  11.822
36252W        W 3035  25.712  30.863   1.689
36253W        W 3036  27.679   0.023   4.887
36254W        W 3037  35.855  42.354   4.117
36255W        W 3038  42.789   3.804   1.268
36256W        W 3039  22.019  29.067   0.178
36257W        W 3040   6.371  13.376  12.986
36258W        W 3041   8.242   6.938  11.685
36259W        W 3042  25.932  13.794   1.006
36260W        W 3043  43.594   4.857  13.646
36261W        W 3044  43.678   6.742   0.965
36262W        W 3045  40.618  43.530   3.542
36263W        W 3046  14.866  22.181  10.751
36264W        W 3047  27.702  11.259   0.370
36265W        W 3048  34.861  20.121   1.384
36266W        W 3049  36.808   9.233   3.345
36267W        W 3050  43.080   6.647   4.089
36268W        W 3051  19.691   3.769  12.936
36269W        W 3052  39.289  39.352   2.899
36270W        W 3053  22.621  32.453   0.424
36271W        W 3054  30.752  33.535  13.938
36272W        W 3055  40.416  19.232   3.858
36273W        W 3056  39.348  31.626   4.527
36274W        W 3057  27.192   7.389  14.272
36275W        W 3058  34.504  21.622   1.026
36276W        W 3059  40.019   6.225  10.589
36277W        W 3060  33.617   3.181   3.606
36278W        W 3061  16.397   4.900  13.562
36279W        W 3062  26.192  30.670  12.018
36280W        W 3063  43.258  32.510   3.083
36281W        W 3064  28.703  16.596  11.552
36282W        W 3065  10.371  20.813   2.591
36283W        W 3066   7.603  16.590   3.321
36284W        W 3067  26.697  26.642   2.663
36285W        W 3068  40.475   2.021  14.948
36286W        W 3069  33.402   1.169   2.220
36287W        W 3070  43.802  21.322   1.575
36288W        W 3071   3.500  22.655  11.245
36289W        W 3072  29.197  18.112   2.807
36290W        W 3073  44.268  41.270   4.366
36291W        W 3074  30.984  15.041  14.980
36292W        W 3075  33.596  27.356   1.420
36293W        W 3076  19.833  39.025   0.919
36294W        W 3077   2.249  22.223  11.514
36295W        W 3078   7.931  17.862   1.856
36296W        W 3079  33.075  28.150   2.843
36297W        W 3080  38.060  12.563  12.572
36298W        W 3081   1.803  32.968  10.874
36299W        W 3082   1.116  14.822  14.089
36300W        W 3083  19.727  16.349   2.565
36301W        W 3084   5.756  16.251  13.970
36302W        W 3085  17.685  21.108   0.771
36303W        W 3086  44.442  35.993  10.895
36304W        W 3087  43.477  19.753  10.858
36305W        W 3088  36.537   5.623   4.480
36306W        W 3089  21.483  39.024   1.718
36307W        W 3090  26.889   5.116  11.632
36308W        W 3091  20.761  26.728  14.962
36309W        W 3092  11.005  28.944   0.221
36310W        W 3093  33.174  40.813   1.265
36311W        W 3094  23.352  35.412  13.668
36312W        W 3095  35.336  33.997   4.225
36313W        W 3096  31.709  35.471   2.655
36314W        W 3097  41.236  19.773   0.289
36315W        W 3098  23.715   6.376   1.222
36316W        W 3099  17.307   5.525  11.533
36317W        W 3100  20.007   5.788  14.925
36318W        W 3101  41.854  30.245  12.448
36319W        W 3102   7.445  16.336   1.384
36320W        W 3103  22.919   3.677   1.355
36321W        W 3104  33.218   0.281   4.220
36322W        W 3105  33.865  23.622   2.283
36323W        W 3106  27.715  31.218   1.501
36324W        W 3107  12.109   8.551  11.257
36325W        W 3108  18.123  14.593  12.554
36326W        W 3109  10.279   8.839  12.048
36327W        W 3110  20.113   7.693   1.912
36328W        W 3111   2.076   0.801  13.375
36329W        W 3112  12.512  13.184  14.612
36330W        W 3113  33.997  39.344   1.248
36331W        W 3114  26.471  29.638   2.743
36332W        W 3115  15.083  19.111  12.545
36333W        W 3116  15.723  21.072  10.781
36334W        W 3117  22.609  38.473  13.512
36335W        W 3118   1.493   8.578  11.155
36336W        W 3119  10.108  39.937   4.521
36337W        W 3120   3.721   7.367   5.103
36338W        W 3121  36.384  33.648   3.717
36339W        W 3122   7.785  27.636  10.887
36340W        W 3123  41.084  26.709  13.090
36341W        W 3124  33.853  40.031  14.320
36342W        W 3125  25.458  31.000  11.504
36343W        W 3126  22.795   1.793   3.263
36344W        W 3127  27.187  11.412  14.811
36345W        W 3128  19.611   9.091  10.940
36346W        W 3129   9.663  26.625  12.055
36347W        W 3130  13.342  16.844  14.896
36348W        W 3131  30.466   1.696   1.293
36349W        W 3132  30.925   1.916   1.212
36350W        W 3133  27.840   8.391  11.018
36351W        W 3134  10.874  15.838   0.333
36352W        W 3135   6.417  26.642   1.645
36353W        W 3136  41.056  17.596   0.454
36354W        W 3137   0.865   9.897  14.495
36355W        W 3138  34.220  17.794   1.267
36356W        W 3139  13.098  36.432   3.737
36357W        W 3140  11.169   6.357  11.841
36358W        W 3141   7.759  20.595  13.483
36359W        W 3142  15.660  17.911   4.742
36360W        W 3143   7.692   2.896   4.653
36361W        W 3144  21.956   6.815  13.840
36362W        W 3145  31.334  27.076  13.959
36363W        W 3146  27.750  41.897   1.797
36364W        W 3147  40.639  44.917  11.500
36365W        W 3148   9.629  22.579   1.926
36366W        W 3149   9.381  18.786   2.601
36367W        W 3150  15.807  21.462   1.369
36368W        W 3151  24.623  29.246   1.726
36369W        W 3152   0.299  44.773   1.095
36370W        W 3153  15.362  32.429   2.720
36371W        W 3154  34.566  34.858   2.768
36372W        W 3155  19.675  24.314  11.497
36373W        W 3156  21.594  13.753   0.641
36374W        W 3157  17.576  14.040   3.995
36375W        W 3158   4.311  36.631  13.815
36376W        W 3159   4.376   9.602  13.155
36377W        W 3160   4.397   3.446   2.797
36378W        W 3161   7.288  40.550  10.596
36379W        W 3162  23.932  10.596   0.846
36380W        W 3163  43.402  36.947   2.132
36381W        W 3164  40.300  42.873  10.667
36382W        W 3165   4.118  15.164   0.884
36383W        W 3166  15.864  44.366   3.730
36384W        W 3167   4.999  23.584  11.855
36385W        W 3168  25.692  24.698  11.638
36386W        W 3169  39.013  32.451  12.426
36387W        W 3170  24.423  14.761  11.788
36388W        W 3171  22.415  30.027   3.228
36389W        W 3172  32.484  44.756  11.239
36390W        W 3173  32.368  44.182  12.490
36391W        W 3174  22.618   4.273   0.866
36392W        W 3175  27.194   0.814  11.172
36393W        W 3176  37.878  25.081   4.042
36394W        W 3177  29.016  36.041   1.327
36395W        W 3178   2.316   4.374   4.167
36396W        W 3179  24.549  17.230  12.658
36397W        W 3180  16.518  42.067   2.216
36398W        W 3181   7.734  40.538   2.905
36399W        W 3182  13.835   9.385   3.634
36400W        W 3183  41.462   0.996  11.192
36401W        W 3184   1.435   7.789  10.355
36402W        W 3185  28.383  28.428   2.284
36403W        W 3186  21.449  30.126  11.534
36404W        W 3187  16.120  36.469   4.168
36405W        W 3188  38.154  14.212  14.058
36406W        W 3189  43.260  43.706  12.884
36407W        W 3190  12.707  37.774   4.633
36408W        W 3191   1.668  36.998  13.035
36409W        W 3192  44.010  43.559  14.026
36410W        W 3193  36.406  33.346   1.395
36411W        W 3194  16.079  32.629   1.273
36412W        W 3195  33.563  23.080   5.139
36413W        W 3196  29.140  41.866   1.315
36414W        W 3197  18.585  29.207  11.083
36415W        W 3198   3.446   7.132  10.390
36416W        W 3199   9.181  29.015  12.654
36417W        W 3200  18.229   6.832  11.151
36418W        W 3201  42.972  13.373  14.564
36419W        W 3202  32.591   2.055  11.992
36420W        W 3203  27.812   0.774   0.447
36421W        W 3204   6.786  44.495   3.598
36422W        W 3205  21.266  28.935   4.154
36423W        W 3206  38.330  29.124  14.049
36424W        W 3207  44.992  21.789   2.180
36425W        W 3208  39.863  19.717  13.120
36426W        W 3209  29.416  26.962  13.065
36427W        W 3210   8.745  11.158  13.301
36428W        W 3211  35.466  16.806  12.132
36429W        W 3212  29.488   7.709   0.469
36430W        W 3213  31.694  17.709  10.724
36431W        W 3214  29.004   3.397   3.673
36432W        W 3215  33.513  43.499   2.369
36433W        W 3216  13.771   8.608  10.380
36434W        W 3217   2.370  12.709   0.871
36435W        W 3218  31.125  17.144   1.740
36436W        W 3219   5.398  11.173  11.962
36437W        W 3220  15.665  42.079  11.994
36438W        W 3221  42.027  13.709   1.408
36439W        W 3222  21.465  40.396   0.988
36440W        W 3223   3.800   5.408   0.899
36441W        W 3224   4.528  43.454  13.450
36442W        W 3225  23.059  10.349  11.670
36443W        W 3226   9.984  44.273  13.353
36444W        W 3227   7.543  37.464  12.896
36445W        W 3228  42.473  34.981  12.886
36446W        W 3229   7.316  19.134   1.998
36447W        W 3230  37.359  43.740   4.325
36448W        W 3231  38.586  15.612   0.379
36449W        W 3232  14.773  31.440   1.853
36450W        W 3233  15.075  24.793   2.723
36451W        W 3234  20.023  37.616   5.068
36452W        W 3235  17.542  18.261   0.050
36453W        W 3236  18.080  33.367  11.071
36454W        W 3237  14.604  23.495   2.846
36455W        W 3238  23.108   3.575  11.235
36456W        W 3239  20.307  24.162  11.435
36457W        W 3240  39.861  30.039  10.977
36458W        W 3241   8.176  44.992   3.268
36459W        W 3242   2.726   3.428   4.709
36460W        W 3243  23.666   0.857  13.111
36461W        W 3244  12.927  34.511  13.831
36462W        W 3245  12.153   3.917   0.375
36463W        W 3246  34.351  10.838  13.472
36464W        W 3247  12.771  15.415  11.060
36465W        W 3248  19.569  11.644  10.773
36466W        W 3249  34.446   3.650  11.003
36467W        W 3250  23.257   1.895  12.801
36468W        W 3251  33.413  11.199  14.540
36469W        W 3252  31.470   6.923  14.855
36470W        W 3253  25.889   2.981  12.149
36471W        W 3254   7.767  19.061   0.689
36472W        W 3255   2.312  38.929  14.544
36473W        W 3256  29.672  43.085  13.144
36474W        W 3257  41.021  41.558  10.762
36475W        W 3258  32.499   3.774   3.688
36476W        W 3259  29.469  27.455   4.915
36477W        W 3260  17.966  11.715  12.973
36478W        W 3261  32.653  19.962   4.469
36479W        W 3262  30.570   2.191   3.087
36480W        W 3263  22.709  30.112   2.377
36481W        W 3264   8.849  43.840   2.660
36482W        W 3265  23.211  16.619  11.583
36483W        W 3266  27.947   9.162  12.869
36484W        W 3267   7.955  12.292   1.700
36485W        W 3268  28.479   2.078   4.590
36486W        W 3269  24.485  10.465   0.290
36487W        W 3270  23.322   5.360   4.918
36488W        W 3271   9.960  44.438  14.748
36489W        W 3272   3.635  34.561   0.433
36490W        W 3273  36.911   8.636  11.123
36491W        W 3274  27.660  34.795  12.317
36492W        W 3275   9.665  26.418   0.020
36493W        W 3276  35.801  28.903  14.816
36494W        W 3277   3.950   9.721   4.340
36495W        W 3278   7.274  21.760   0.744
36496W        W 3279   5.987  24.959   2.200
36497W        W 3280  43.925  36.912  14.091
36498W        W 3281  17.659  32.833  13.845
36499W        W 3282  25.159  42.569  11.643
36500W        W 3283   6.406  11.671   1.379
36501W        W 3284  25.709  13.128   0.903
36502W        W 3285   6.268  31.960  13.932
36503W        W 3286  35.942   4.845   2.682
36504W        W 3287  19.938  34.531   3.754
36505W        W 3288  21.979  30.394  12.923
36506W        W 3289  25.026   2.337  10.657
36507W        W 3290  42.930  31.948  10.856
36508W        W 3291  42.586  15.185  12.337
36509W        W 3292  40.919  10.372   0.743
36510W        W 3293   6.728  39.681  14.090
36511W        W 3294  20.766  12.422   1.412
36512W        W 3295   0.025  16.717  13.209
36513W        W 3296  28.924   1.479   0.651
36514W        W 3297  13.280  24.939  13.936
36515W        W 3298  17.509   9.817  12.091
36516W        W 3299  33.608  32.698  11.353
36517W        W 3300  20.783  40.401  14.093
36518W        W 3301  26.634  35.022  13.201
36519W        W 3302   1.584  25.772   4.086
36520W        W 3303  31.881  28.952  12.196
36521W        W 3304  32.788  19.068   4.957
36522W        W 3305   3.108  44.091  12.141
36523W        W 3306  23.826  33.867  10.564
36524W        W 3307  15.188   0.727  10.455
36525W        W 3308  32.810  28.987  13.891
36526W        W 3309  10.337  14.241   4.615
36527W        W 3310  10.827   1.535  12.208
36528W        W 3311  19.625  41.364   4.588
36529W        W 3312  10.198   3.934  11.148
36530W        W 3313  26.395   5.334   1.936
36531W        W 3314  27.999  39.481  11.696
36532W        W 3315   2.848  29.061   2.045
36533W        W 3316  12.042  13.256   1.773
36534W        W 3317   7.926  31.446   4.373
36535W        W 3318  27.942  38.544  11.576
36536W        W 3319  43.388   9.105  14.727
36537W        W 3320  29.458  21.828   1.217
36538W        W 3321   6.426  40.289   1.827
36539W        W 3322  20.231  22.555   3.223
36540W        W 3323  44.461  18.144  14.470
36541W        W 3324  42.319  28.947  12.645
36542W        W 3325   6.591  19.569  11.949
36543W        W 3326  12.910   8.517  11.605
36544W        W 3327   3.876  10.508   4.293
36545W        W 3328  13.163  23.529   0.792
36546W        W 3329  11.959   5.762  13.334
36547W        W 3330  20.690  19.029   3.576
36548W        W 3331   3.256  39.545   1.187
36549W        W 3332  34.477   4.682  11.210
36550W        W 3333  17.338   8.919   4.966
36551W        W 3334   8.467  30.820   4.910
36552W        W 3335   8.963   1.415  12.557
36553W        W 3336  26.305  37.040  12.994
36554W        W 3337  12.652   9.523   1.819
36555W        W 3338   8.667   2.865   2.339
36556W        W 3339  43.564  20.943   1.246
36557W        W 3340  16.131  26.123   1.354
36558W        W 3341  10.729  12.638  13.602
36559W        W 3342  20.777  27.240  11.826
36560W        W 3343   8.404   6.719  10.885
36561W        W 3344  21.936  26.755   4.516
36562W        W 3345  35.030  16.905   4.995
36563W        W 3346  20.146  34.975  12.451
36564W        W 3347   5.724  44.878  12.999
36565W        W 3348  34.870  21.218   2.273
36566W        W 3349  26.236  35.628   3.078
36567W        W 3350  28.549  12.866   0.013
36568W        W 3351   3.206  43.465  11.012
36569W        W 3352  39.375  31.449   4.019
36570W        W 3353  16.370   8.325  12.897
36571W        W 3354  13.587   5.189  12.977
36572W        W 3355   6.735   5.180   1.352
36573W        W 3356  42.304  43.164  11.051
36574W        W 3357  34.936   7.802   2.761
36575W        W 3358  26.691   2.075   0.585
36576W        W 3359   0.840  27.691   1.856
36577W        W 3360  43.369  44.260   3.661
36578W        W 3361  37.880  23.961   2.071
36579W        W 3362  42.345   7.432   2.350
36580W        W 3363   8.937  40.857   2.882
36581W        W 3364  39.912  26.754   4.611
36582W        W 3365  29.616  44.086  11.478
36583W        W 3366   4.378  29.409  13.647
36584W        W 3367  40.571  10.221  13.990
36585W        W 3368  14.328  38.384   0.748
36586W        W 3369  14.562  42.718   1.174
36587W        W 3370  35.558  32.168   0.444
36588W        W 3371  38.249   0.507   2.723
36589W        W 3372  20.739  37.598   3.170
36590W        W 3373  12.736   1.901   4.572
36591W        W 3374  34.374  17.345   0.904
36592W        W 3375  19.403  13.926  13.494
36593W        W 3376  22.552  31.983  11.550
36594W        W 3377  14.674  41.607   1.326
36595W        W 3378  23.235  26.109  13.127
36596W        W 3379  10.989  15.243  13.143
36597W        W 3380  15.315   3.868  12.633
36598W        W 3381  23.098  12.181  14.723
36599W        W 3382  38.148  44.649   0.822
36600W        W 3383  27.698  25.962   0.921
36601W        W 3384  41.938  27.783   1.726
36602W        W 3385  38.620  39.044  12.851
36603W        W 3386  12.587  20.344  12.996
36604W        W 3387  44.274  38.771   0.155
36605W        W 3388  14.193  20.584   3.652
36606W        W 3389   7.282  31.920  14.700
36607W        W 3390  44.898  44.458   3.348
36608W        W 3391  32.505   8.066  13.853
36609W        W 3392  29.167  10.836  11.130
36610W        W 3393  33.165  42.122  14.587
36611W        W 3394  12.812  35.440  14.246
36612W        W 3395  15.407   5.268  10.735
36613W        W 3396  34.091  29.713  10.888
36614W        W 3397   8.658   7.320  10.400
36615W        W 3398  18.584  29.656  14.007
36616W        W 3399   1.733  34.210  13.842
36617W        W 3400   7.839   1.487   3.174
36618W        W 3401   4.864   7.397   2.939
36619W        W 3402  27.043  38.049  10.760
36620W        W 3403  29.097  11.329  14.389
36621W        W 3404  31.086  37.562   0.280
36622W        W 3405  33.396   3.254  11.647
36623W        W 3406   7.663  37.608   0.840
36624W        W 3407   7.342   3.913  13.134
36625W        W 3408   9.852  44.362   4.474
36626W        W 3409   9.890   5.245  11.505
36627W        W 3410   8.881   7.728   1.758
36628W        W 3411  32.215  20.197  11.896
36629W        W 3412   4.326  38.055   1.708
36630W        W 3413   3.835  26.061  13.119
36631W        W 3414  34.361  21.333   2.501
36632W        W 3415   9.917  23.550  13.051
36633W        W 3416   6.892  12.549  13.882
36634W        W 3417  25.411  36.151  10.681
36635W        W 3418  37.818  27.012  13.983
36636W        W 3419  12.741  30.884   4.275
36637W        W 3420  31.124  19.122  12.082
36638W        W 3421  14.550  18.292   1.336
36639W        W 3422  40.704  10.034   4.173
36640W        W 3423  27.212   0.944  13.542
36641W        W 3424  39.959   0.177   1.895
36642W        W 3425  34.031  20.689   3.352
36643W        W 3426  18.455  34.872  11.528
36644W        W 3427  22.253  40.109   3.725
36645W        W 3428  25.131   8.846  13.324
36646W        W 3429  22.002  25.554   9.720
36647W        W 3430  44.737  27.851  11.938
36648W        W 3431  22.634  11.366  13.078
36649W        W 3432   8.615  16.793  13.927
36650W        W 3433   7.518  33.007  13.283
36651W        W 3434  25.717  24.790  13.480
36652W        W 3435  28.870   3.904  11.275
36653W        W 3436   6.806  31.880   1.061
36654W        W 3437  42.931   0.703   1.502
36655W        W 3438  43.007  42.433   4.901
36656W        W 3439  10.597  17.210  11.573
36657W        W 3440  20.025  23.520  12.565
36658W        W 3441  27.444  21.261  10.625
36659W        W 3442  24.645   8.654  14.413
36660W        W 3443   1.219   0.436  11.547
36661W        W 3444  32.394  36.581  12.193
36662W        W 3445  28.985  44.905   0.032
36663W        W 3446  29.389  38.864  10.676
36664W        W 3447  33.863  41.728   2.725
36665W        W 3448  24.748  23.156  14.721
36666W        W 3449  15.371   0.623  10.920
36667W        W 3450  43.228   6.144   2.745
36668W        W 3451  21.657  14.817  13.612
36669W        W 3452   0.431  15.031  12.479
36670W        W 3453  43.894   6.264   1.824
36671W        W 3454  34.855  17.156   3.683
36672W        W 3455  33.402  17.647   3.984
36673W        W 3456  10.733   4.985  10.228
36674W        W 3457  19.977  24.158  11.908
36675W        W 3458  36.043  23.861   2.246
36676W        W 3459  33.450  18.705   2.505
36677W        W 3460   9.635  16.500   1.748
36678W        W 3461   1.666   0.915   1.389
36679W        W 3462   5.005  29.116   1.947
36680W        W 3463  17.160   0.053  11.917
36681W        W 3464  16.619  19.130   3.588
36682W        W 3465  42.957   5.448   0.976
36683W        W 3466  28.392   4.624  14.546
36684W        W 3467  44.457  42.995   0.299
36685W        W 3468   3.362  27.589  12.495
36686W        W 3469  32.632  12.801   0.215
36687W        W 3470   9.657  10.168   4.310
36688W        W 3471  11.602  40.781  10.782
36689W        W 3472   5.427  15.623   0.460
36690W        W 3473  12.918  23.888   3.343
36691W        W 3474  15.304  24.502  10.523
36692W        W 3475  26.426  27.175   3.751
36693W        W 3476  34.483   2.247  12.955
36694W        W 3477   9.071  21.755   3.357
36695W        W 3478  17.849  28.648  11.079
36696W        W 3479  29.068   7.245   1.313
36697W        W 3480  14.129  34.332   4.204
36698W        W 3481  41.467  42.525   1.778
36699W        W 3482   5.132   6.591   2.367
36700W        W 3483  17.302  12.705  14.963
36701W        W 3484  22.874  21.900  12.064
36702W        W 3485   4.703   4.794   0.034
36703W        W 3486   7.732   8.829  10.470
36704W        W 3487  14.221  15.240   4.886
36705W        W 3488  34.156  35.822  12.921
36706W        W 3489  41.921   4.369   1.423
36707W        W 3490   6.289  37.208  10.850
36708W        W 3491  39.319   7.699  14.960
36709W        W 3492  38.376  37.820   1.624
36710W        W 3493  39.938   8.328   2.365
36711W        W 3494  39.512  10.978   4.543
36712W        W 3495  23.182  32.554  10.711
36713W        W 3496  21.198  21.937   4.063
36714W        W 3497  32.687  26.458   3.360
36715W        W 3498  38.340   0.027  13.814
36716W        W 3499  14.622  12.781  14.072
36717W        W 3500  16.131  24.620   4.909
36718W        W 3501  21.592   5.847  13.980
36719W        W 3502  36.321  27.405   2.337
36720W        W 3503  27.539  26.893   0.496
36721W        W 3504   8.859  35.535   3.816
36722W        W 3505   3.823  32.189  12.814
36723W        W 3506  18.546   4.468  13.383
36724W        W 3507  19.434  36.927   3.653
36725W        W 3508  40.854  19.032  13.152
36726W        W 3509   2.955  17.422  13.442
36727W        W 3510  42.207  12.074   0.860
36728W        W 3511  27.235  24.521  12.411
36729W        W 3512  36.551  32.364   3.142
36730W        W 3513  44.256  33.532   2.736
36731W        W 3514  25.770  10.550   3.244
36732W        W 3515  10.782   0.977  13.822
36733W        W 3516  32.815   8.783   4.582
36734W        W 3517  34.205  23.216   3.719
36735W        W 3518  20.225  38.769  14.390
36736W        W 3519  28.443  38.510  11.403
36737W        W 3520  43.060   3.180  12.261
36738W        W 3521  10.656  33.219  11.448
36739W        W 3522  33.067   3.243  12.862
36740W        W 3523  11.280  32.068   2.711
36741W        W 3524   8.187  31.064   0.944
36742W        W 3525  42.314   2.244  14.965
36743W        W 3526  18.619  31.928  13.402
36744W        W 3527  36.826  26.132  14.742
36745W        W 3528   7.312  33.887   0.696
36746W        W 3529  12.720  28.657  12.195
36747W        W 3530   5.343  22.564  13.570
36748W        W 3531   3.769  31.545  10.661
36749W        W 3532  41.967  18.979  12.642
36750W        W 3533  28.666  28.931   4.374
36751W        W 3534  22.331  18.040   4.598
36752W        W 3535  27.650  30.863   3.596
36753W        W 3536   7.746  42.605  12.672
36754W        W 3537  34.239  17.284   2.259
36755W        W 3538   1.227  20.545  14.948
36756W        W 3539  33.354  41.119  13.930
36757W        W 3540   0.798  18.180   1.468
36758W        W 3541  18.265   5.396   0.285
36759W        W 3542   2.935  13.299  14.232
36760W        W 3543  23.243   6.490   1.450
36761W        W 3544  25.987  19.857   1.853
36762W        W 3545   1.733  19.636   1.376
36763W        W 3546   8.068  16.625   3.077
36764W        W 3547   9.085  21.114   4.150
36765W        W 3548   9.586   8.605   2.278
36766W        W 3549  29.560   2.295  10.731
36767W        W 3550  39.117  41.017   0.809
36768W        W 3551  11.343  40.137  11.945
36769W        W 3552  39.000  13.400  12.852
36770W        W 3553  27.458  25.030  14.534
36771W        W 3554  37.120  25.980   2.918
36772W        W 3555  38.433  28.702  14.327
36773W        W 3556  32.370  35.846  12.489
36774W        W 3557  25.480  31.480   3.418
36775W        W 3558  17.531  43.442  11.998
36776W        W 3559  37.180  21.110  11.702
36777W        W 3560  35.786  36.780   1.275
36778W        W 3561   4.317  15.016   1.347
36779W        W 3562   8.662  38.610  12.536
36780W        W 3563  29.406  22.828   4.143
36781W        W 3564  27.024   6.782   2.153
36782W        W 3565  16.650  35.883  12.347
36783W        W 3566  32.582  44.509   2.714
36784W        W 3567  24.030  39.851  13.469
36785W        W 3568  27.709   3.877   2.892
36786W        W 3569   9.323   6.181   3.612
36787W        W 3570  23.724  24.930  13.135
36788W        W 3571  40.332   1.962  12.091
36789W        W 3572  32.038   2.935   2.345
36790W        W 3573  42.884   2.169  12.432
36791W        W 3574  28.881  14.154   4.972
36792W        W 3575   2.253   1.798   4.543
36793W        W 3576  33.866  14.736  13.865
36794W        W 3577  31.328  34.883   0.734
36795W        W 3578  14.610  35.819  12.592
36796W        W 3579  28.066  30.315   0.322
36797W        W 3580  41.707   8.911  10.146
36798W        W 3581  33.101  33.325  13.864
36799W        W 3582  41.876  22.548  11.972
36800W        W 3583  44.063  34.433   3.119
36801W        W 3584   8.265   8.430  12.925
36802W        W 3585  13.062  18.735   3.645
36803W        W 3586   7.719  44.105   1.406
36804W        W 3587   9.154   3.933   3.163
36805W        W 3588  24.469  37.798   3.194
36806W        W 3589  41.237  29.410  14.620
36807W        W 3590  44.619  38.457   1.956
36808W        W 3591  38.491  16.804   4.507
36809W        W 3592   2.863  30.685  11.944
36810W        W 3593  41.543  26.212   0.397
36811W        W 3594  17.544   4.044   0.747
36812W        W 3595  12.797  40.298   1.195
36813W        W 3596   6.445  38.893  11.889
36814W        W 3597  12.695  38.976   0.342
36815W        W 3598  26.709  44.118  14.095
36816W        W 3599  21.547   0.542  12.194
36817W        W 3600  40.030  26.422   3.329
36818W        W 3601  29.078  35.870   0.376
36819W        W 3602  35.802  21.567  13.173
36820W        W 3603  13.329  24.698  10.590
36821W        W 3604  27.237   2.683   2.124
36822W        W 3605  30.043  11.680  14.994
36823W        W 3606  35.947   8.335   3.241
36824W        W 3607  37.860  14.505  13.788
36825W        W 3608  15.054  13.213   3.642
36826W        W 3609   6.778   1.579  12.850
36827W        W 3610  20.103  41.718   0.379
36828W        W 3611  11.744  23.836  11.186
36829W        W 3612   5.854  22.042  14.248
36830W        W 3613  29.033   6.363   3.235
36831W        W 3614  21.133  13.919   0.436
36832W        W 3615  19.803  12.636   3.785
36833W        W 3616  23.733   5.769   2.819
36834W        W 3617  13.835  34.176   3.510
36835W        W 3618   2.417   5.959  14.018
36836W        W 3619  19.405  18.522  11.431
36837W        W 3620  34.398  26.442   3.815
36838W        W 3621  37.313  35.056   0.306
36839W        W 3622  34.788  26.123   1.766
36840W        W 3623  17.606  29.999   4.399
36841W        W 3624  36.175  16.637  12.486
36842W        W 3625   1.534  34.650  14.076
36843W        W 3626  21.727  29.529  10.715
36844W        W 3627  11.570  30.678   2.886
36845W        W 3628  39.052  29.376   1.383
36846W        W 3629  21.425  43.314  13.039
36847W        W 3630  28.982  32.068  11.192
36848W        W 3631  20.195  25.467  11.206
36849W        W 3632   1.941  30.418   3.686
36850W        W 3633  42.367  42.858  10.607
36851W        W 3634  40.348  24.764  11.638
36852W        W 3635  44.710  29.972  11.512
36853W        W 3636  33.993  31.504   0.501
36854W        W 3637  44.245  23.705   0.840
36855W        W 3638  31.048  33.848  12.522
36856W        W 3639  11.571   6.561   2.918
36857W        W 3640  44.348  32.463   0.696
36858W        W 3641  35.947  32.594  11.816
36859W        W 3642  40.825  38.502   2.589
36860W        W 3643  43.677  11.390  14.941
36861W        W 3644  16.260  38.500   3.966
36862W        W 3645  35.057   0.713   4.284
36863W        W 3646  32.634  23.045   3.670
36864W        W 3647  11.406  32.606   3.588
36865W        W 3648   4.023  35.827   2.028
36866W        W 3649  28.738  31.772  11.998
36867W        W 3650  13.859  43.258   0.812
36868W        W 3651  23.804  11.349   2.889
36869W        W 3652  43.549   4.526  12.366
36870W        W 3653  26.186   9.630  10.979
36871W        W 3654  24.184   9.246   4.298
36872W        W 3655  29.715  27.334   1.369
36873W        W 3656   1.087  35.083   0.288
36874W        W 3657  34.074  26.263  10.718
36875W        W 3658  25.953   7.365   4.435
36876W        W 3659  22.272  11.135  12.771
36877W        W 3660   7.642  29.545   2.254
36878W        W 3661  30.256   4.732   3.181
36879W        W 3662  43.397  13.676   0.865
36880W        W 3663   1.787   0.236  14.789
36881W        W 3664   6.265  36.780   0.434
36882W        W 3665  28.332  15.026   1.470
36883W        W 3666  11.734   8.863   2.424
36884W        W 3667  40.770   5.744   0.327
36885W        W 3668  42.919  12.094  11.648
36886W        W 3669  12.147  15.701  12.547
36887W        W 3670  34.831   2.328  11.888
36888W        W 3671  35.532  20.724   0.508
36889W        W 3672  19.178  26.764  12.605
36890W        W 3673  27.350   0.701   2.711
36891W        W 3674  21.065  40.322   4.899
36892W        W 3675  13.188  28.764   1.671
36893W        W 3676  38.998  15.584   3.638
36894W        W 3677  41.618  21.621   2.124
36895W        W 3678  18.840  42.930   2.203
36896W        W 3679  43.395  19.814   4.031
36897W        W 3680  18.681  10.122  12.959
36898W        W 3681  12.130  36.644  11.581
36899W        W 3682  37.336  20.757   3.163
36900W        W 3683  27.828  41.901  14.472
36901W        W 3684   2.901  37.596   3.977
36902W        W 3685  10.740  39.458  12.014
36903W        W 3686  37.496  25.186  13.811
36904W        W 3687   9.479  19.639  13.616
36905W        W 3688  25.169  41.045   0.368
36906W        W 3689  22.176   2.337   2.924
36907W        W 3690  32.910  10.122   0.877
36908W        W 3691  38.417   5.272  14.736
36909W        W 3692  32.931   3.263   4.336
36910W        W 3693  14.042  11.390  12.901
36911W        W 3694  43.242  26.429  12.441
36912W        W 3695   7.273  15.533  10.735
36913W        W 3696   1.336   3.064   1.723
36914W        W 3697  20.453  15.784  11.162
36915W        W 3698  16.548  21.248   3.329
36916W        W 3699   5.658  11.789  14.938
36917W        W 3700  29.732  44.298  10.062
36918W        W 3701  37.304  36.166   4.091
36919W        W 3702   8.904  32.038  13.982
36920W        W 3703  28.179  36.829  13.849
36921W        W 3704  32.544  25.545   3.805
36922W        W 3705   3.262   7.631   0.723
36923W        W 3706  14.617  33.610   5.012
36924W        W 3707  24.558  26.858   1.358
36925W        W 3708  35.430  24.947  11.916
36926W        W 3709  40.760  27.364  13.877
36927W        W 3710  16.615   0.107   1.245
36928W        W 3711  21.206  28.494  14.353
36929W        W 3712  26.210   4.354   4.897
36930W        W 3713  37.764  41.823   4.797
36931W        W 3714  35.007  40.573  14.259
36932W        W 3715  19.280  24.135   1.958
36933W        W 3716  31.367  23.681   0.513
36934W        W 3717   7.902  30.798  13.516
36935W        W 3718   6.763   5.359  11.025
36936W        W 3719  39.801  39.783   2.836
36937W        W 3720  18.233   2.202   4.209
36938W        W 3721  36.485   0.490  12.428
36939W        W 3722  12.710  26.581   0.731
36940W        W 3723   6.345  27.720   0.551
36941W        W 3724  16.607   3.194  10.856
36942W        W 3725   7.731  38.575  12.506
36943W        W 3726  28.622   7.858  11.975
36944W        W 3727  32.584  33.101   0.443
36945W        W 3728  43.796   2.406   0.914
36946W        W 3729  29.170  32.869  12.529
36947W        W 3730   4.711  33.295   4.769
36948W        W 3731  26.031  17.132   0.327
36949W        W 3732  21.382  42.042   0.069
36950W        W 3733  40.417   2.366  14.567
36951W        W 3734  19.314  20.536   0.847
36952W        W 3735  42.141  23.600  11.852
36953W        W 3736  10.771  23.560   0.983
36954W        W 3737   4.417  13.616   3.914
36955W        W 3738   6.186   9.751  11.895
36956W        W 3739   2.482  34.514   4.824
36957W        W 3740   3.356  21.935  13.902
36958W        W 3741   8.813   7.601  11.588
36959W        W 3742  23.691   7.013   4.247
36960W        W 3743   6.184   7.499   3.732
36961W        W 3744  15.720   9.865  11.612
36962W        W 3745   2.291  10.853   3.347
36963W        W 3746   8.667  19.075   0.452
36964W        W 3747  18.689  12.282   0.978
36965W        W 3748  39.336   8.520  12.900
36966W        W 3749  13.417   8.629  10.755
36967W        W 3750   2.895  12.128  11.064
36968W        W 3751  13.173  25.848   0.693
36969W        W 3752  31.034  28.237  10.938
36970W        W 3753  39.592   4.454  10.706
36971W        W 3754  33.438   0.728  10.708
36972W        W 3755  32.393  33.046   2.655
36973W        W 3756   8.421  30.010   3.203
36974W        W 3757   0.431   4.877   4.293
36975W        W 3758  11.444  42.374   4.418
36976W        W 3759  16.373  42.903  14.556
36977W        W 3760  11.961  19.751   3.288
36978W        W 3761  22.001  39.384  13.079
36979W        W 3762  29.666  38.970  11.519
36980W        W 3763  12.130  10.217   2.817
36981W        W 3764  43.487  30.904  13.822
36982W        W 3765  18.870  30.099  13.533
36983W        W 3766  26.767  34.454  11.980
36984W        W 3767  38.983   2.128  14.521
36985W        W 3768   9.217   5.195  10.310
36986W        W 3769  11.713  33.972   3.204
36987W        W 3770  22.219  10.689  11.993
36988W        W 3771  18.919  43.264   4.469
36989W        W 3772   4.435  25.081  11.431
36990W        W 3773  41.319  42.470  11.072
36991W        W 3774  25.552   3.890  10.303
36992W        W 3775   7.627   4.794   1.684
36993W        W 3776  16.247  22.138  10.820
36994W        W 3777  26.412  30.985  11.610
36995W        W 3778  24.622  26.924  10.597
36996W        W 3779   8.621   4.709  13.478
36997W        W 3780  11.198  38.626   0.335
36998W        W 3781  32.860  24.592   0.414
36999W        W 3782  24.163  27.782  14.002
37000W        W 3783   6.735   4.421   2.121
37001W        W 3784   5.488  39.807  11.238
37002W        W 3785  34.545  44.144   0.090
37003W        W 3786   0.527  15.831   2.261
37004W        W 3787  11.299   8.379   9.904
37005W        W 3788  21.096  37.099  11.132
37006W        W 3789  26.578  30.887  13.352
37007W        W 3790   3.503   8.922  10.710
37008W        W 3791  25.870  44.302  11.844
37009W        W 3792  27.158  10.352   4.430
37010W        W 3793  26.476  27.967   3.250
37011W        W 3794  15.211  18.807   2.311
37012W        W 3795  30.400  20.788  14.892
37013W        W 3796  41.332   9.242   2.235
37014W        W 3797  25.462  36.806   4.575
37015W        W 3798   6.211   6.572   1.850
37016W        W 3799  38.860  27.011  10.690
37017W        W 3800  21.586  13.672   3.100
37018W        W 3801  36.653  40.830   0.047
37019W        W 3802   6.799  21.977   2.757
37020W        W 3803  40.748  22.006   4.173
37021W        W 3804  35.011  15.663   1.224
37022W        W 3805  12.650   8.887   5.005
37023W        W 3806  10.357  43.320  12.082
37024W        W 3807  33.409  25.479  11.286
37025W        W 3808  26.601  23.997   0.219
37026W        W 3809   9.460  40.480  11.140
37027W        W 3810  38.834  16.276  13.934
37028W        W 3811  16.621  24.255  11.728
37029W        W 3812  42.498  27.631  14.580
37030W        W 3813  24.584  21.690   3.286
37031W        W 3814  11.112   3.891  12.254
37032W        W 3815  12.683  44.945   1.356
37033W        W 3816  27.850  31.302  11.982
37034W        W 3817  12.757  21.763  10.966
37035W        W 3818   5.216  19.884  13.682
37036W        W 3819  39.130   1.682  14.345
37037W        W 3820  27.836  20.548   4.161
37038W        W 3821   5.917  38.093  12.323
37039W        W 3822  43.454  40.284   0.805
37040W        W 3823   1.019   7.312   3.374
37041W        W 3824  35.127  26.590   4.518
37042W        W 3825  31.058  41.990  13.416
37043W        W 3826  20.581  23.450   2.386
37044W        W 3827  16.340  20.598  11.876
37045W        W 3828  13.178   7.386   2.844
37046W        W 3829   2.921   3.716   2.717
37047W        W 3830  15.764   8.648  11.570
37048W        W 3831  21.537  23.829   5.002
37049W        W 3832  41.041   9.170  13.910
37050W        W 3833  15.913  28.942  14.533
37051W        W 3834  20.948  15.322   9.803
37052W        W 3835  19.903  12.098  13.407
37053W        W 3836   5.854  14.355   2.634
37054W        W 3837  35.902   3.347   3.021
37055W        W 3838   2.548  19.459  12.518
37056W        W 3839  35.783  15.701  11.185
37057W        W 3840  35.535  28.937   3.247
37058W        W 3841  17.155  22.653  11.543
37059W        W 3842  15.258  35.937   3.688
37060W        W 3843  19.007  18.683   0.928
37061W        W 3844   2.954   1.548  14.366
37062W        W 3845   2.642  29.535  11.561
37063W        W 3846  39.596  22.776  12.244
37064W        W 3847  32.528  12.565   2.841
37065W        W 3848  12.411   3.561  12.019
37066W        W 3849  43.927  28.878   1.237
37067W        W 3850  15.224  38.962  13.879
37068W        W 3851  12.305  32.904   1.038
37069W        W 3852  32.407  17.806  14.877
37070W        W 3853  11.113  12.578   3.025
37071W        W 3854  24.876   5.297  11.925
37072W        W 3855  39.960  31.662  13.204
37073W        W 3856   6.125  17.057   4.003
37074W        W 3857   9.791  32.928  12.112
37075W        W 3858   9.725  41.437   0.507
37076W        W 3859  30.364  21.244   1.609
37077W        W 3860   3.992   0.040  11.183
37078W        W 3861  22.719  16.384  10.462
37079W        W 3862  31.650  24.758  11.249
37080W        W 3863  31.453  18.781   1.033
37081W        W 3864  25.625  20.326   3.664
37082W        W 3865  40.361  40.202   5.002
37083W        W 3866   3.549  15.745  12.285
37084W        W 3867   2.379  37.206   4.619
37085W        W 3868  10.962   2.335  12.743
37086W        W 3869   6.277  17.647   2.426
37087W        W 3870  22.660   6.315   4.791
37088W        W 3871  19.818   6.847   1.050
37089W        W 3872   4.829   7.262  11.718
37090W        W 3873   3.219  41.041  14.801
37091W        W 3874  43.227   8.283  12.452
37092W        W 3875  13.622  19.580   0.006
37093W        W 3876  16.375   0.544   0.373
37094W        W 3877   0.294  19.065  11.711
37095W        W 3878  12.932  22.018   3.291
37096W        W 3879   5.753   7.787   3.719
37097W        W 3880  23.618  17.564   1.414
37098W        W 3881  39.858  23.758   3.260
37099W        W 3882  28.376  25.158   4.682
37100W        W 3883  14.141  24.026   4.627
37101W        W 3884  41.370  34.615  14.237
37102W        W 3885   2.624  30.411   0.948
37103W        W 3886  19.764  40.450  13.106
37104W        W 3887  36.922  23.027   2.535
37105W        W 3888  20.626  25.702  11.394
37106W        W 3889   8.893  20.848  14.238
37107W        W 3890  15.086   5.286   4.726
37108W        W 3891  25.632   1.244   1.489
37109W        W 3892   1.941  28.479  11.833
37110W        W 3893  14.121  20.315  14.907
37111W        W 3894  44.497   2.943  14.752
37112W        W 3895  24.687  43.870   0.830
37113W        W 3896  26.983  14.152  13.533
37114W        W 3897  17.775  23.502  11.601
37115W        W 3898   7.337  15.731  11.199
37116W        W 3899  17.196   2.213  11.928
37117W        W 3900  37.921   1.480  11.419
37118W        W 3901  42.313  41.923   4.453
37119W        W 3902   6.587  22.557  12.640
37120W        W 3903  44.770  26.162  13.418
37121W        W 3904   6.967  15.512   4.028
37122W        W 3905  43.306  26.331   3.654
37123W        W 3906  15.378  25.177   0.363
37124W        W 3907  23.618  15.150  10.690
37125W        W 3908  32.038  38.512   2.925
37126W        W 3909   8.957  20.605   1.431
37127W        W 3910  11.917   1.635  13.418
37128W        W 3911   8.985  22.285   3.418
37129W        W 3912  40.798  20.095   2.965
37130W        W 3913  14.865  36.162  13.854
37131W        W 3914   3.789  44.803   1.482
37132W        W 3915  31.661  18.822   2.384
37133W        W 3916  27.779  24.143   4.141
37134W        W 3917  22.822  27.525   1.856
37135W        W 3918  37.941   5.893   3.472
37136W        W 3919  10.193   8.697  12.528
37137W        W 3920   3.998  23.790   0.842
37138W        W 3921  42.257  36.371   3.307
37139W        W 3922  23.187  15.267  13.334
37140W        W 3923  28.707  25.217   3.727
37141W        W 3924   0.040  40.442  14.885
37142W        W 3925   1.080  28.186   1.744
37143W        W 3926  23.902  10.490   0.335
37144W        W 3927  11.229  43.755   3.223
37145W        W 3928  27.580   5.343   2.846
37146W        W 3929  41.176  10.766   4.144
37147W        W 3930  42.791  28.365  10.737
37148W        W 3931  12.161  26.868  13.592
37149W        W 3932  19.318  41.014  14.967
37150W        W 3933  15.269   6.289   3.684
37151W        W 3934  16.292  25.621   4.929
37152W        W 3935  30.649  18.816  10.438
37153W        W 3936  13.242  33.893   0.941
37154W        W 3937  19.110   1.910   0.400
37155W        W 3938   9.919  18.598   0.939
37156W        W 3939  37.923   6.416  13.979
37157W        W 3940  30.026  28.554   2.761
37158W        W 3941  41.906  43.733  14.986
37159W        W 3942  14.051  26.618  12.435
37160W        W 3943  35.662  29.457   2.418
37161W        W 3944  20.236   9.799  13.879
37162W        W 3945   5.414  12.236  13.846
37163W        W 3946  19.699  13.028  10.875
37164W        W 3947  26.252  44.677   1.831
37165W        W 3948  34.496  21.260  10.685
37166W        W 3949  34.350  27.494  13.980
37167W        W 3950  41.991   3.926  13.981
37168W        W 3951  31.868  28.635   2.629
37169W        W 3952  40.523  23.387   3.567
37170W        W 3953  39.881   7.281   1.750
37171W        W 3954  31.171  43.018   3.726
37172W        W 3955  19.960  22.725  11.184
37173W        W 3956  14.823  10.783  13.864
37174W        W 3957  28.966  34.195  13.536
37175W        W 3958   9.250  29.734  10.601
37176W        W 3959  32.989  40.857   4.539
37177W        W 3960  22.950  11.537   2.943
37178W        W 3961  12.919  41.947   3.299
37179W        W 3962  41.333  20.242   0.020
37180W        W 3963   3.900  15.676   3.214
37181W        W 3964  37.055  38.799   1.756
37182W        W 3965  22.468  42.474   1.668
37183W        W 3966   5.771   2.314   1.272
37184W        W 3967  36.868  20.704   4.608
37185W        W 3968  37.438   3.516  10.865
37186W        W 3969   0.053  13.089   3.238
37187W        W 3970  22.284  30.552  14.477
37188W        W 3971  16.158  35.075   3.487
37189W        W 3972  25.028   6.859  13.794
37190W        W 3973  19.019  21.748   0.383
37191W        W 3974   7.570  11.508  11.049
37192W        W 3975  21.571   3.422   3.188
37193W        W 3976  12.217  24.791  10.578
37194W        W 3977   1.238  12.230  11.765
37195W        W 3978   6.217  36.953   1.782
37196W        W 3979  15.811  22.731   4.517
37197W        W 3980  26.012  38.880  14.463
37198W        W 3981   4.327  44.885  13.746
37199W        W 3982   5.098   3.458   1.279
37200W        W 3983  19.224  40.102   1.655
37201W        W 3984  27.189   1.966  13.166
37202W        W 3985  24.213   0.975  14.907
37203W        W 3986  12.554  10.586  12.946
37204W        W 3987  13.339  32.495  14.558
37205W        W 3988  43.914   4.454  13.497
37206W        W 3989  30.522  27.602  13.330
37207W        W 3990   9.727  12.285   2.808
37208W        W 3991  17.153  10.633   4.154
37209W        W 3992  41.866  30.824   2.677
37210W        W 3993  19.086  25.507   3.698
37211W        W 3994  25.670  41.138   1.258
37212W        W 3995  36.890  29.735   4.534
37213W        W 3996  34.527  37.155  12.827
37214W        W 3997  27.623   9.930   0.254
37215W        W 3998  37.346  30.530   0.991
37216W        W 3999  30.391  33.910  13.842
37217W        W 4000  40.519  26.562   0.777
37218W        W 4001   7.747   3.940  12.210
37219W        W 4002  24.678  14.576   4.155
37220W        W 4003  21.544   5.399  13.671
37221W        W 4004  35.706  12.454   1.372
37222W        W 4005  31.359  20.596  14.869
37223W        W 4006  15.695  34.147   2.926
37224W        W 4007  29.183   5.207  13.336
37225W        W 4008  31.180  16.058   0.906
37226W        W 4009  36.978   4.070  13.446
37227W        W 4010  25.791  28.264   0.330
37228W        W 4011   8.389  12.900  11.385
37229W        W 4012  31.071  22.446  11.203
37230W        W 4013  41.135  24.507  11.245
37231W        W 4014   0.120  39.065   1.801
37232W        W 4015  33.196  31.532   2.911
37233W        W 4016  19.343   1.987   4.298
37234W        W 4017  27.660  12.266  11.096
37235W        W 4018  20.902   5.441  10.393
37236W        W 4019  44.827  32.549   2.878
37237W        W 4020  34.104   8.606   0.954
37238W        W 4021  22.353  39.146   4.947
37239W        W 4022  36.933  17.214   3.164
37240W        W 4023   7.810   2.370  11.274
37241W        W 4024  29.095  11.086   2.388
37242W        W 4025   6.142  22.413  12.414
37243W        W 4026   9.812  10.031   2.221
37244W        W 4027  27.276   7.392  14.783
37245W        W 4028  13.242  22.044  11.480
37246W        W 4029  11.941  43.026  13.460
37247W        W 4030  34.963  22.102   0.410
37248W        W 4031   4.994  37.156   3.044
37249W        W 4032  21.073  23.540   2.184
37250W        W 4033  14.565  19.168  12.567
37251W        W 4034  44.957  16.808  11.387
37252W        W 4035  34.614  29.649  14.065
37253W        W 4036  38.438  34.524   2.095
37254W        W 4037  26.113  10.048  10.685
37255W        W 4038   3.421  36.352  12.943
37256W        W 4039  41.783  17.431  10.513
37257W        W 4040  40.800  28.120   4.301
37258W        W 4041  34.493  42.959  11.211
37259W        W 4042  32.462   4.818  14.294
37260W        W 4043  21.554  13.846  10.273
37261W        W 4044  26.571  22.470  14.543
37262W        W 4045   8.681   5.401   3.620
37263W        W 4046  10.474  29.069  11.612
37264W        W 4047  19.075  10.640   1.585
37265W        W 4048  32.131  20.682  11.702
37266W        W 4049  22.051   2.617   3.338
37267W        W 4050  37.286   4.698  12.492
37268W        W 4051  26.547  20.337   0.841
37269W        W 4052  15.146  41.833   0.317
37270W        W 4053   6.235  23.625  13.525
37271W        W 4054  30.227  13.424  13.369
37272W        W 4055  34.249   8.816   3.365
37273W        W 4056  41.357   2.444  11.048
37274W        W 4057   4.312   1.358  14.307
37275W        W 4058  17.750   2.809   2.254
37276W        W 4059  13.599  11.449  13.162
37277W        W 4060   8.228  14.201   3.803
37278W        W 4061  38.394  42.458  12.386
37279W        W 4062   0.629  10.759  11.943
37280W        W 4063  38.858  14.378  10.783
37281W        W 4064  36.342  20.580   4.469
37282W        W 4065  34.173  44.766  12.585
37283W        W 4066  33.870   2.149   1.803
37284W        W 4067  34.931   0.502   3.846
37285W        W 4068   9.378  10.214  11.047
37286W        W 4069  28.123  42.569  10.645
37287W        W 4070  25.695  33.406   3.706
37288W        W 4071   1.385  37.452   9.970
37289W        W 4072  40.075  33.604   0.710
37290W        W 4073  23.113  44.364  11.177
37291W        W 4074  24.419  15.556  13.060
37292W        W 4075  16.256  30.470   2.133
37293W        W 4076   2.947  23.492  12.979
37294W        W 4077   4.175  36.503  11.499
37295W        W 4078  44.564  31.102  12.345
37296W        W 4079  28.481   5.695   1.256
37297W        W 4080  17.126  26.607  13.610
37298W        W 4081   2.829  33.397  11.399
37299W        W 4082  35.658  40.469   1.867
37300W        W 4083  36.398  32.061  14.665
37301W        W 4084  11.409  37.057   3.804
37302W        W 4085  21.663   5.048   4.154
37303W        W 4086  18.589  34.947  10.642
37304W        W 4087  40.463  10.637   2.409
37305W        W 4088  10.840  32.698  10.544
37306W        W 4089  38.598   8.191   2.304
37307W        W 4090  38.271  44.493  12.940
37308W        W 4091  10.683  28.507  11.604
37309W        W 4092  27.147   9.763  10.533
37310W        W 4093  26.246  26.653  14.675
37311W        W 4094  23.941  21.814  11.393
37312W        W 4095  31.604  15.579  12.002
37313W        W 4096  12.745   5.241   4.652
37314W        W 4097  31.139  22.540   0.821
37315W        W 4098  23.580  14.687  11.892
37316W        W 4099  35.330  19.979   2.220
37317W        W 4100  24.012  20.810   3.169
37318W        W 4101   7.303  25.960   1.805
37319W        W 4102  12.822  40.814   2.627
37320W        W 4103  16.287  38.038  13.328
37321W        W 4104  17.602  19.809   2.969
37322W        W 4105  15.362   0.540   2.399
37323W        W 4106  26.025   4.392   4.369
37324W        W 4107  14.974  43.718  11.318
37325W        W 4108  14.843  40.980   0.481
37326W        W 4109  36.567  41.542   2.717
37327W        W 4110  38.302  40.816   1.419
37328W        W 4111  11.855  12.187   2.752
37329W        W 4112  23.574  40.099  13.484
37330W        W 4113  14.245  12.593   3.254
37331W        W 4114   4.324   2.567  13.563
37332W        W 4115  27.035  24.442   4.087
37333W        W 4116  37.179  44.740   2.651
37334W        W 4117  22.545   4.398  10.301
37335W        W 4118  28.119  12.181  13.494
37336W        W 4119   6.961  37.522   1.780
37337W        W 4120  20.523  36.589  14.498
37338W        W 4121  17.981   6.221  12.449
37339W        W 4122  24.957  18.151   2.885
37340W        W 4123  43.902  21.546  12.855
37341W        W 4124  13.642   5.874  11.733
37342W        W 4125  31.247  33.064   3.835
37343W        W 4126  25.510  17.306   4.174
37344W        W 4127  32.362  27.559   2.934
37345W        W 4128  10.094  43.780  13.025
37346W        W 4129  35.906   0.551  13.075
37347W        W 4130  26.049  22.412  11.608
37348W        W 4131  15.609  20.282   3.155
37349W        W 4132  14.309  31.298   1.567
37350W        W 4133  41.779  14.276   3.088
37351W        W 4134  15.144  31.604   0.987
37352W        W 4135  12.852  26.678   1.236
37353W        W 4136   2.406  18.607   3.820
37354W        W 4137  19.239  25.104  13.800
37355W        W 4138  19.722  39.999  12.858
37356W        W 4139  29.007   3.367   1.252
37357W        W 4140  32.889  19.717  11.627
37358W        W 4141  40.342   3.669   2.244
37359W        W 4142  29.508  15.751  11.723
37360W        W 4143  18.311  35.928   2.016
37361W        W 4144  30.883  24.109  11.593
37362W        W 4145  24.079   5.732   4.190
37363W        W 4146  26.887  44.448   2.398
37364W        W 4147  19.477  36.830  13.896
37365W        W 4148   5.022  24.393   4.606
37366W        W 4149   3.237  38.296  12.920
37367W        W 4150  25.241   8.328  14.763
37368W        W 4151   1.240   9.449   4.970
37369W        W 4152  23.747  17.985   0.386
37370W        W 4153  14.766  44.249  12.643
37371W        W 4154  28.934  13.672  11.445
37372W        W 4155  30.088  26.956   4.118
37373W        W 4156   1.313  36.417   4.801
37374W        W 4157  25.154  41.890   0.823
37375W        W 4158  15.581  29.648   1.698
37376W        W 4159  41.843  25.785  14.053
37377W        W 4160  26.717   9.033   4.167
37378W        W 4161   2.700  17.609  13.952
37379W        W 4162  18.856   4.318   1.013
37380W        W 4163  26.543  34.738  14.677
37381W        W 4164  15.636   3.168   4.161
37382W        W 4165  10.288  22.522  12.081
37383W        W 4166  32.705   2.467   0.236
37384W        W 4167  27.484   4.012   3.924
37385W        W 4168  12.390   5.353  12.486
37386W        W 4169  19.485   2.734  13.403
37387W        W 4170  19.631  43.557  11.405
37388W        W 4171  41.740  29.556   0.412
37389W        W 4172  15.289   2.016  12.565
37390W        W 4173  26.494   4.792  13.083
37391W        W 4174  14.663  19.185  14.473
37392W        W 4175   2.379  22.191   0.419
37393W        W 4176  35.889   8.507  12.939
37394W        W 4177   3.184   9.331   4.066
37395W        W 4178  11.839   7.746  13.878
37396W        W 4179  24.111  12.407   0.348
37397W        W 4180  35.374  12.832  14.892
37398W        W 4181  38.644  20.623  12.542
37399W        W 4182  21.162  19.002  14.355
37400W        W 4183  26.497   2.978  13.940
37401W        W 4184  43.248  26.230  13.451
37402W        W 4185  25.078  39.770   1.408
37403W        W 4186  44.294  11.799  13.350
37404W        W 4187  35.163  30.630   0.835
37405W        W 4188  43.901   8.866   2.281
37406W        W 4189  35.391  28.087  11.643
37407W        W 4190  16.085  22.106   4.855
37408W        W 4191  32.615  32.431  12.067
37409W        W 4192  43.888  25.763   0.324
37410W        W 4193  40.271  25.953   3.710
37411W        W 4194  14.176  33.514  13.160
37412W        W 4195   7.228  35.133   4.296
37413W        W 4196  26.574   8.457   0.579
37414W        W 4197   6.459  14.542   4.359
37415W        W 4198  38.655  12.708  13.876
37416W        W 4199  18.057  23.679  14.144
37417W        W 4200  25.913  31.135  10.766
37418W        W 4201   2.154   3.865   4.146
37419W        W 4202   2.729  12.794  13.500
37420W        W 4203  10.772   3.435  13.777
37421W        W 4204   3.241  44.885   4.122
37422W        W 4205   8.372  27.146  14.821
37423W        W 4206  30.434  37.012   4.640
37424W        W 4207  10.530  39.509   0.327
37425W        W 4208  24.744  36.966  12.898
37426W        W 4209  12.162  19.748  13.820
37427W        W 4210  38.830  43.321   4.784
37428W        W 4211  42.572  43.882  13.469
37429W        W 4212  31.572  31.169  13.856
37430W        W 4213   8.632  13.631  12.387
37431W        W 4214  42.463  24.514  13.633
37432W        W 4215   2.958  37.239   3.616
37433W        W 4216  25.183  35.029  13.887
37434W        W 4217   1.260  28.116  12.972
37435W        W 4218   3.345  28.645   0.868
37436W        W 4219  11.719  24.974   4.411
37437W        W 4220  43.454  20.476   2.729
37438W        W 4221   6.269  25.783  13.987
37439W        W 4222   7.327  12.066  11.983
37440W        W 4223  35.308  11.730   1.767
37441W        W 4224  29.080   3.776   2.208
37442W        W 4225  24.011   5.948   1.454
37443W        W 4226  14.112  36.055  11.718
37444W        W 4227  29.825  17.352   2.359
37445W        W 4228   9.748   2.189   2.184
37446W        W 4229  31.484  18.192   3.676
37447W        W 4230  19.323   8.906  12.962
37448W        W 4231  44.176  29.083  11.622
37449W        W 4232  37.517  17.446   0.705
37450W        W 4233  24.084  41.880   2.809
37451W        W 4234  22.894  16.964   1.887
37452W        W 4235  19.900  17.981  12.377
37453W        W 4236  16.419  37.974   2.336
37454W        W 4237  26.684  27.433  13.436
37455W        W 4238  38.422  27.199   1.259
37456W        W 4239  15.168  33.656  12.948
37457W        W 4240  25.336   4.910  10.649
37458W        W 4241  18.860  35.344  14.308
37459W        W 4242  35.801  13.479  11.145
37460W        W 4243  14.542  22.227  14.462
37461W        W 4244  12.446  37.844   2.561
37462W        W 4245  20.734  41.003  11.057
37463W        W 4246  34.961  10.766   2.476
37464W        W 4247  26.169   0.478  14.303
37465W        W 4248  10.307  10.053  14.493
37466W        W 4249  29.236   5.526   1.964
37467W        W 4250  20.134  17.071   1.713
37468W        W 4251   4.667  11.425   0.990
37469W        W 4252  17.815   6.414  12.941
37470W        W 4253  27.449   1.074   1.874
37471W        W 4254  33.110  25.106  14.664
37472W        W 4255  29.124  23.808   2.137
37473W        W 4256   7.966  22.321  13.816
37474W        W 4257  30.109   1.785  14.038
37475W        W 4258  16.190  33.842  11.668
37476W        W 4259  33.890  11.435  12.849
37477W        W 4260   7.245  40.299   0.773
37478W        W 4261  42.977  38.952  11.668
37479W        W 4262  35.505  27.650  12.364
37480W        W 4263   8.973  29.982  10.960
37481W        W 4264  38.413   7.786   3.499
37482W        W 4265  13.742   4.981  10.636
37483W        W 4266  42.205   1.774  12.152
37484W        W 4267  24.573  36.483  11.148
37485W        W 4268  28.929   4.288   3.134
37486W        W 4269  10.740   0.196  13.366
37487W        W 4270  23.422  17.629  14.268
37488W        W 4271  42.755   6.184  11.147
37489W        W 4272   8.914  28.663  12.942
37490W        W 4273  21.221   5.975   4.637
37491W        W 4274  44.542  44.786  11.974
37492W        W 4275  13.588  41.267  13.373
37493W        W 4276  25.983   3.866   1.120
37494W        W 4277  17.172  44.142  13.751
37495W        W 4278  36.014  41.444  11.538
37496W        W 4279  24.020  21.825   3.284
37497W        W 4280  14.184  14.764   1.020
37498W        W 4281  44.507  33.624   1.350
37499W        W 4282  37.527  39.881  13.812
37500W        W 4283   0.983  13.535   1.898
37501W        W 4284   9.669  29.896  14.854
37502W        W 4285  41.873  16.087  12.145
37503W        W 4286  34.789  21.249   1.405
37504W        W 4287  25.345  36.575   3.367
37505W        W 4288  23.779  24.015  14.379
37506W        W 4289  26.192  11.283  13.889
37507W        W 4290  22.683   2.137  11.240
37508W        W 4291  20.199   4.015   0.244
37509W        W 4292  22.528  12.243  10.426
37510W        W 4293  23.239  36.282   3.693
37511W        W 4294  26.420  41.080  10.310
37512W        W 4295  23.741  13.218   2.085
37513W        W 4296   3.122   1.095  10.703
37514W        W 4297  28.518  13.509  11.149
37515W        W 4298  39.238  17.337  13.940
37516W        W 4299  26.391  19.077   2.114
37517W        W 4300  40.908  17.718   2.275
37518W        W 4301  39.148  38.948   5.163
37519W        W 4302  20.387  44.974  10.564
37520W        W 4303  39.969  12.146   1.072
37521W        W 4304   1.847  39.936  10.482
37522W        W 4305  37.355  10.409  11.999
37523W        W 4306   6.924   4.762  11.829
37524W        W 4307  37.143  15.795   2.985
37525W        W 4308   1.166  12.074   0.015
37526W        W 4309  23.257  31.759  11.077
37527W        W 4310  38.811  19.233  14.904
37528W        W 4311  27.557  31.164  11.115
37529W        W 4312  27.027  21.624   2.671
37530W        W 4313  10.009   3.233  10.704
37531W        W 4314   7.789  11.855   1.495
37532W        W 4315  15.123  40.991  12.897
37533W        W 4316  38.503   2.398  13.308
37534W        W 4317  35.492  40.946   1.400
37535W        W 4318  29.521   5.116  11.155
37536W        W 4319  17.126  16.326  11.548
37537W        W 4320  35.130  18.505   4.094
37538W        W 4321  29.458  17.438  11.080
37539W        W 4322  42.214  32.942  13.525
37540W        W 4323  33.599   2.220  14.972
37541W        W 4324   8.512   8.609   0.854
37542W        W 4325  29.869  34.615  12.276
37543W        W 4326   1.151   5.238  11.978
37544W        W 4327  34.781   8.967   4.040
37545W        W 4328   3.444   2.386   3.221
37546W        W 4329   1.716  36.180   5.025
37547W        W 4330   7.162   4.887   0.764
37548W        W 4331   8.124  27.797   0.450
37549W        W 4332  35.631  36.787   2.676
37550W        W 4333  33.983  21.783   5.371
37551W        W 4334   8.405  36.882   1.755
37552W        W 4335  37.307  23.778  13.151
37553W        W 4336  39.499  10.746  10.936
37554W        W 4337  31.905  33.979   2.143
37555W        W 4338  14.856  38.486  14.827
37556W        W 4339  41.856   1.792  11.529
37557W        W 4340   3.645  26.172  12.613
37558W        W 4341  14.800  44.237  14.021
37559W        W 4342   6.269  20.175  12.104
37560W        W 4343  41.776  15.382   3.231
37561W        W 4344  43.890  42.443   3.451
37562W        W 4345  44.547  16.824  13.351
37563W        W 4346  16.523  35.434  10.686
37564W        W 4347  31.718  14.750  13.410
37565W        W 4348   2.457   5.015  11.376
37566W        W 4349  38.144  32.916  10.642
37567W        W 4350   6.778  37.985   2.896
37568W        W 4351   3.281  35.616  13.397
37569W        W 4352  21.672  32.799  13.143
37570W        W 4353  32.041  37.285  12.958
37571W        W 4354  16.679  23.666   2.760
37572W        W 4355  39.651   6.614   4.604
37573W        W 4356  44.879  13.692   2.584
37574W        W 4357  30.954  25.235  12.958
37575W        W 4358  20.166  32.473   4.313
37576W        W 4359  12.191  25.988  13.869
37577W        W 4360   3.818  34.924  13.259
37578W        W 4361  30.992  17.208   4.488
37579W        W 4362  42.510  38.775   0.801
37580W        W 4363  35.501  10.718  14.230
37581W        W 4364  29.956  38.901   0.956
37582W        W 4365  15.503  23.100   3.095
37583W        W 4366  42.329   1.399   4.241
37584W        W 4367   2.664  31.647  14.972
37585W        W 4368  40.341  13.623   2.320
37586W        W 4369  35.160  18.976  12.933
37587W        W 4370  43.447  20.818  13.776
37588W        W 4371   0.776  26.718   1.321
37589W        W 4372  13.878   8.268   0.776
37590W        W 4373  12.203   9.406   0.052
37591W        W 4374  33.144  10.726   1.374
37592W        W 4375   3.003  22.726  13.903
37593W        W 4376   3.430  38.764   2.825
37594W        W 4377  33.593  41.783   4.703
37595W        W 4378  39.333  37.285   0.734
37596W        W 4379  31.422  30.882  12.407
37597W        W 4380   4.130  41.919   4.214
37598W        W 4381  39.031   8.466   2.178
37599W        W 4382   4.762  13.952  11.651
37600W        W 4383   6.884  30.412  12.875
37601W        W 4384   3.350   8.392  10.758
37602W        W 4385  42.064  37.365   2.725
37603W        W 4386  13.665  17.342   2.696
37604W        W 4387  28.510   0.361  14.284
37605W        W 4388  36.086   5.872  10.133
37606W        W 4389  31.126  34.664   3.249
37607W        W 4390  34.171   3.285   4.746
37608W        W 4391  42.396  21.562  11.000
37609W        W 4392  18.195   6.904   0.055
37610W        W 4393  40.987   1.084  13.211
37611W        W 4394  27.127  42.319  11.729
37612W        W 4395  39.614  20.889  13.869
37613W        W 4396  39.032  15.264   2.391
37614W        W 4397  29.698  39.505   1.481
37615W        W 4398  14.079  33.048   2.809
37616W        W 4399  22.882  39.038   9.835
37617W        W 4400  23.092  17.327  14.829
37618W        W 4401  42.279  14.408  11.122
37619W        W 4402  40.356  29.613  14.987
37620W        W 4403  32.926  38.364   2.345
37621W        W 4404  18.321  37.107   2.956
37622W        W 4405  29.983  23.593  12.552
37623W        W 4406   7.679  30.009  10.654
37624W        W 4407  37.565   9.887   0.297
37625W        W 4408  15.485  35.961   0.541
37626W        W 4409  43.759   4.220  13.952
37627W        W 4410  15.320  35.868   1.758
37628W        W 4411  10.085  41.727  14.489
37629W        W 4412   8.195  17.192   0.826
37630W        W 4413  19.834  14.992   2.816
37631W        W 4414  44.202   7.497   2.215
37632W        W 4415  34.499  26.748  11.548
37633W        W 4416  13.236  31.952  11.577
37634W        W 4417  10.636  41.693   0.818
37635W        W 4418  14.500  40.289   3.362
37636W        W 4419   8.277   0.280  12.664
37637W        W 4420  42.905   9.989  10.300
37638W        W 4421  43.830  34.451   4.521
37639W        W 4422  44.430   2.704  14.266
37640W        W 4423  32.706   6.273  13.483
37641W        W 4424  36.370   8.392   2.922
37642W        W 4425  21.675  43.788   0.920
37643W        W 4426  44.463  21.976  14.715
37644W        W 4427  38.912   1.490  11.901
37645W        W 4428  25.197  42.061   2.659
37646W        W 4429  31.519   5.626   2.260
37647W        W 4430  21.032  31.846  12.653
37648W        W 4431   7.536  28.445  12.221
37649W        W 4432  19.319   6.123  10.694
37650W        W 4433  20.818  29.591   4.613
37651W        W 4434  43.528  36.827  12.063
37652W        W 4435  40.283   6.858   0.268
37653W        W 4436   4.932  33.077  12.474
37654W        W 4437  24.693  23.872  12.926
37655W        W 4438  44.353  29.009  14.548
37656W        W 4439  13.354   5.377   3.288
37657W        W 4440  21.756  15.870   2.335
37658W        W 4441  24.168  30.418  12.698
37659W        W 4442  29.919  26.666  13.525
37660W        W 4443  28.454  12.585   3.643
37661W        W 4444  23.156  42.447  10.959
37662W        W 4445  44.040  37.526   1.658
37663W        W 4446  12.191   6.859  11.584
37664W        W 4447   7.019  12.634   2.642
37665W        W 4448   3.036   2.398  11.146
37666W        W 4449  11.870  37.802   4.838
37667W        W 4450   5.416   7.348   4.520
37668W        W 4451   6.103  12.157  14.787
37669W        W 4452  23.495  43.330   4.068
37670W        W 4453  42.046   4.946  10.107
37671W        W 4454  30.948  42.042   4.544
37672W        W 4455   3.451  31.403  14.931
37673W        W 4456  11.368  19.288  12.017
37674W        W 4457  29.220  36.971   3.297
37675W        W 4458  23.296  25.985  11.852
37676W        W 4459  39.778  16.461   0.366
37677W        W 4460  43.759   2.395  11.512
37678W        W 4461  19.012   6.300   2.440
37679W        W 4462  18.018  27.066   2.253
37680W        W 4463  27.217  42.428  14.182
37681W        W 4464   6.033  33.078  13.531
37682W        W 4465   3.230  43.422   1.682
37683W        W 4466   8.386  32.417   0.709
37684W        W 4467   8.617  13.894   3.115
37685W        W 4468  27.125  32.348   0.456
37686W        W 4469  34.339   4.404  13.858
37687W        W 4470   6.147  12.778   0.441
37688W        W 4471  39.124   9.423   2.127
37689W        W 4472  42.731  38.008   4.723
37690W        W 4473  32.317  29.626  13.263
37691W        W 4474   0.048  38.838   3.289
37692W        W 4475  12.290  31.905  10.901
37693W        W 4476  18.256   1.165   4.523
37694W        W 4477  21.272  10.559  11.843
37695W        W 4478  44.616   6.276  10.419
37696W        W 4479  31.842  22.719   3.716
37697W        W 4480  27.964  22.794  11.628
37698W        W 4481  13.269  44.366  14.556
37699W        W 4482  26.371  25.775   1.727
37700W        W 4483  40.036  27.567   0.074
37701W        W 4484  41.855   9.444   2.572
37702W        W 4485  19.657  10.375   4.128
37703W        W 4486   8.918  41.383   4.313
37704W        W 4487  12.742  14.158   4.636
37705W        W 4488  35.054  11.241   1.288
37706W        W 4489   3.795  27.348   3.547
37707W        W 4490  22.366   1.428  13.121
37708W        W 4491  37.094   7.882   1.474
37709W        W 4492  25.246  17.202   1.819
37710W        W 4493  33.495  27.856   1.348
37711W        W 4494   2.298  26.547  13.396
37712W        W 4495  37.313  29.167   0.586
37713W        W 4496   9.903   8.442  12.873
37714W        W 4497  14.678  19.149  13.953
37715W        W 4498   5.124   6.368  12.605
37716W        W 4499  43.592  14.525  13.866
37717W        W 4500  10.216  35.248   2.749
37718W        W 4501  29.070  37.089   2.425
37719W        W 4502  24.268  39.978   0.458
37720W        W 4503   9.421  34.557  10.965
37721W        W 4504  26.206  21.280  10.989
37722W        W 4505  11.134  19.338   2.845
37723W        W 4506  38.041  26.858  14.428
37724W        W 4507  10.255  38.346   0.550
37725W        W 4508  20.345  32.891  13.459
37726W        W 4509  36.367  28.944   0.970
37727W        W 4510  22.654  13.074  14.269
37728W        W 4511  18.948   2.452  11.912
37729W        W 4512  21.732  40.329  11.554
37730W        W 4513  40.625  32.023  12.465
37731W        W 4514  19.068  35.215  11.337
37732W        W 4515  31.671  28.101   4.805
37733W        W 4516  23.527   8.517  12.557
37734W        W 4517  18.368  15.808  12.874
37735W        W 4518   4.995  34.280  14.481
37736W        W 4519  42.845  24.746  12.507
37737W        W 4520  32.084  27.659   4.036
37738W        W 4521  36.611   9.301   4.362
37739W        W 4522  11.117   0.137   1.761
37740W        W 4523  39.911  33.229   3.680
37741W        W 4524  19.777  35.067  14.454
37742W        W 4525  28.598   2.974  11.616
37743W        W 4526  43.971  37.552   3.727
37744W        W 4527   6.922  10.456   0.873
37745W        W 4528  35.909  43.949   3.111
37746W        W 4529   8.126  19.442   0.415
37747W        W 4530  22.552  29.706  12.679
37748W        W 4531   8.136  20.474   2.277
37749W        W 4532  17.807  25.458  13.889
37750W        W 4533   2.266  28.047   4.679
37751W        W 4534  39.844  33.672   2.868
37752W        W 4535  37.557  30.168  14.494
37753W        W 4536   2.875  23.239  11.172
37754W        W 4537  19.041  34.138   1.895
37755W        W 4538   7.299  27.711   2.709
37756W        W 4539   8.305  24.157   1.939
37757W        W 4540   6.821  17.829  13.987
37758W        W 4541  22.583   2.971   4.016
37759W        W 4542   6.421  36.618   2.710
37760W        W 4543  21.725   5.229   3.662
37761W        W 4544   3.185  29.121   0.788
37762W        W 4545  12.383  11.871  13.433
37763W        W 4546   5.876  43.434  10.724
37764W        W 4547  17.836   4.147   3.155
37765W        W 4548  15.804   6.739  13.629
37766W        W 4549  23.715  41.369  11.587
37767W        W 4550   2.507  18.169   2.651
37768W        W 4551  18.837  25.477  11.369
37769W        W 4552  18.048   2.173  11.608
37770W        W 4553  21.585   7.682  11.095
37771W        W 4554  25.971  30.108  10.700
37772W        W 4555  27.641   0.631  14.291
37773W        W 4556  21.994   0.381   2.767
37774W        W 4557  11.268  23.531   1.269
37775W        W 4558  26.295  34.147  10.715
37776W        W 4559  30.881  26.462  11.703
37777W        W 4560   1.077  27.137  12.726
37778W        W 4561  11.121  30.467   1.261
37779W        W 4562  11.389   6.937   4.116
37780W        W 4563  23.135  21.159   2.433
37781W        W 4564  18.294   2.143  10.819
37782W        W 4565  12.568   1.862   1.895
37783W        W 4566   8.957  14.156   4.060
37784W        W 4567  25.045  29.558  10.888
37785W        W 4568  20.021  37.077   5.021
37786W        W 4569  41.972   6.136  13.382
37787W        W 4570   3.325  17.198   3.019
37788W        W 4571  39.329  20.155   1.267
37789W        W 4572  26.206  23.601   3.246
37790W        W 4573  32.658  25.170  12.490
37791W        W 4574  18.529  28.676  12.008
37792W        W 4575   6.454  15.609  14.323
37793W        W 4576   8.216  26.536   3.121
37794W        W 4577  36.461   7.900   1.797
37795W        W 4578  44.276  41.934  10.951
37796W        W 4579  29.118  34.499   4.512
37797W        W 4580  17.739  10.744   1.224
37798W        W 4581  16.100  39.360  13.044
37799W        W 4582  35.617  17.617  13.669
37800W        W 4583  25.466   6.184  11.712
37801W        W 4584   5.793  38.553  10.700
37802W        W 4585  27.976   6.708   3.150
37803W        W 4586   0.171   2.977   2.929
37804W        W 4587  15.366  19.224  12.957
37805W        W 4588   4.046  30.739  10.912
37806W        W 4589   3.720  12.750   3.770
37807W        W 4590  15.488  14.746  10.718
37808W        W 4591  22.113  38.245  11.631
37809W        W 4592  30.336  13.942   2.340
37810W        W 4593  30.150   9.549  12.433
37811W        W 4594   9.553   0.306   0.200
37812W        W 4595  25.412   0.347  14.799
37813W        W 4596  40.142   5.319   1.812
37814W        W 4597  14.191  39.054   4.383
37815W        W 4598   2.047   4.790  13.735
37816W        W 4599   5.906  34.637   4.159
37817W        W 4600  15.018  41.355   0.986
37818W        W 4601   6.384  30.677   2.944
37819W        W 4602  15.661  39.520   3.236
37820W        W 4603   9.911  35.860   5.149
37821W        W 4604  26.946  24.823   1.168
37822W        W 4605  29.791  21.218   4.469
37823W        W 4606   3.231  12.320   4.981
37824W        W 4607  16.363   5.957   4.092
37825W        W 4608  19.650  44.784   0.890
37826W        W 4609  36.645  21.444   3.237
37827W        W 4610  41.759  11.956  13.454
37828W        W 4611   3.943  40.755  11.417
37829W        W 4612  35.159   3.878   5.553
37830W        W 4613  25.637  23.756   0.348
37831W        W 4614  17.334   3.461   3.027
37832W        W 4615  37.053  44.346  11.095
37833W        W 4616  26.571  14.537   0.033
37834W        W 4617  26.535   6.858   3.540
37835W        W 4618  20.030  33.833   4.188
37836W        W 4619  34.090  14.682   1.884
37837W        W 4620  24.086  28.018  11.995
37838W        W 4621  34.362  11.908   3.618
37839W        W 4622  29.234  36.079   4.514
37840W        W 4623  17.181   3.043   2.767
37841W        W 4624  44.487  16.304  13.525
37842W        W 4625  22.122  42.797  13.246
37843W        W 4626   4.538  26.399   1.217
37844W        W 4627  30.092  40.473   4.107
37845W        W 4628  26.860  22.603   4.600
37846W        W 4629  24.638  24.076   9.819
37847W        W 4630  39.395  38.758  14.835
37848W        W 4631  31.621  40.053   0.970
37849W        W 4632   8.624  40.153  11.670
37850W        W 4633  35.001  15.780   2.379
37851W        W 4634  43.984  32.180   3.976
37852W        W 4635  41.850  34.097   1.287
37853W        W 4636  13.564  16.151   3.467
37854W        W 4637  14.173  24.290   2.753
37855W        W 4638  17.503  32.713  14.720
37856W        W 4639  11.171  31.483   3.422
37857W        W 4640  22.087  15.816  12.028
37858W        W 4641  37.436   4.323   3.415
37859W        W 4642   9.235  18.606   0.328
37860W        W 4643  15.531   0.063  12.615
37861W        W 4644  12.785  13.179  11.728
37862W        W 4645  39.019  11.665   3.158
37863W        W 4646  21.403  19.330  11.961
37864W        W 4647  20.041   9.326   2.243
37865W        W 4648  41.922  27.971  10.567
37866W        W 4649  20.580  28.901   0.184
37867W        W 4650  15.058  23.660  14.385
37868W        W 4651  29.880  16.493  12.920
37869W        W 4652  35.594  36.296   1.365
37870W        W 4653   9.383  37.124   1.680
37871W        W 4654  13.902  28.476   2.188
37872W        W 4655  34.667  35.123   3.631
37873W        W 4656  13.699  37.509   2.745
37874W        W 4657   0.692   6.293   5.004
37875W        W 4658  15.105  34.430  14.839
37876W        W 4659  29.551  28.000   4.082
37877W        W 4660  14.597  41.120  12.544
37878W        W 4661  19.251  36.042  14.250
37879W        W 4662  24.547  15.371  12.573
37880W        W 4663  36.321  19.675  14.376
37881W        W 4664  35.938  17.381   4.580
37882W        W 4665  26.376  22.551  12.019
37883W        W 4666  15.891   5.024   0.056
37884W        W 4667  25.406  35.690  12.049
37885W        W 4668  23.539  18.723  11.201
37886W        W 4669  12.567  24.994   5.053
37887W        W 4670  33.491   2.141   3.756
37888W        W 4671  13.232  40.499   5.062
37889W        W 4672  21.303  12.551   3.894
37890W        W 4673  39.328   3.563  12.899
37891W        W 4674  17.855  25.970  12.983
37892W        W 4675  35.809   7.706  12.397
37893W        W 4676  43.771  32.895   1.357
37894W        W 4677  27.963  11.253   1.264
37895W        W 4678  33.323  20.131  13.510
37896W        W 4679  33.872  27.616   2.832
37897W        W 4680   9.156   9.952   1.514
37898W        W 4681  26.210  22.553  12.915
37899W        W 4682   7.722  36.080   3.264
37900W        W 4683  34.979   0.985   3.665
37901W        W 4684  40.846  18.360  14.340
37902W        W 4685  20.663   4.258   3.589
37903W        W 4686  25.463  19.299   0.797
37904W        W 4687  11.211   4.973   0.132
37905W        W 4688  41.439  10.187  11.568
37906W        W 4689  36.103  20.029   2.584
37907W        W 4690  27.659  28.296   0.724
37908W        W 4691  41.446  27.556   4.394
37909W        W 4692  14.153  11.083  10.490
37910W        W 4693   2.116  19.053  11.612
37911W        W 4694  17.637  36.502   1.474
37912W        W 4695  43.322  26.187   0.732
37913W        W 4696  44.140  15.192  10.124
37914W        W 4697   6.621  16.507  10.398
37915W        W 4698  20.589   8.484   4.772
37916W        W 4699  37.890  38.388   3.827
37917W        W 4700  23.120  40.844   2.212
37918W        W 4701  34.136  34.956   1.220
37919W        W 4702  17.085  15.107   1.684
37920W        W 4703  23.243   8.798   4.133
37921W        W 4704  16.681  16.696   2.181
37922W        W 4705  16.864   5.735  11.334
37923W        W 4706   3.188  24.073  14.562
37924W        W 4707  41.952   8.416  12.104
37925W        W 4708  16.263  14.579   1.665
37926W        W 4709   8.415  29.358  11.584
37927W        W 4710  21.449   5.579   4.114
37928W        W 4711  40.815  31.794   0.788
37929W        W 4712   5.879   8.158   0.417
37930W        W 4713  34.325  25.010   2.693
37931W        W 4714  14.334   7.973   3.844
37932W        W 4715   7.311  29.413   1.461
37933W        W 4716   6.433   7.782   4.891
37934W        W 4717  15.874   6.888  12.014
37935W        W 4718  31.377  36.342  13.657
37936W        W 4719  40.371   8.330  11.211
37937W        W 4720  31.573  11.712  14.805
37938W        W 4721  42.014   7.282   1.510
37939W        W 4722  21.014  12.090   4.516
37940W        W 4723  23.548  42.111   4.490
37941W        W 4724  19.304  31.643   0.346
37942W        W 4725  44.474  31.925  11.456
37943W        W 4726  37.358  27.681   0.481
37944W        W 4727  16.506  16.231  13.126
37945W        W 4728  42.732   9.296  13.021
37946W        W 4729  44.787  11.580   1.448
37947W        W 4730   1.488   5.299   3.090
37948W        W 4731  14.830  42.853  13.713
37949W        W 4732  22.662   3.763   0.922
37950W        W 4733  10.327  38.371  12.219
37951W        W 4734  35.744  20.823   1.863
37952W        W 4735  18.064  24.282  11.893
37953W        W 4736  17.677  39.436  11.096
37954W        W 4737  13.576  16.842  12.130
37955W        W 4738   7.372  17.546  14.549
37956W        W 4739   8.449  43.084   4.435
37957W        W 4740  27.464   5.868  11.619
37958W        W 4741  16.602  14.722  14.431
37959W        W 4742  13.738  35.052   2.669
37960W        W 4743  24.820  17.765   0.346
37961W        W 4744  18.981  41.043   4.712
37962W        W 4745  33.045   7.919   4.208
37963W        W 4746  22.772  38.531  14.846
37964W        W 4747  13.609  20.778  12.345
37965W        W 4748   5.760   3.886   0.286
37966W        W 4749   5.005  43.805   3.617
37967W        W 4750  33.854  40.565  13.423
37968W        W 4751  42.425  34.085   4.367
37969W        W 4752  21.040  19.786  13.926
37970W        W 4753  40.733  11.718   1.426
37971W        W 4754  10.916  28.168  12.591
37972W        W 4755  28.523  19.729  11.461
37973W        W 4756  16.447  13.212  10.232
37974W        W 4757  19.647  35.491  12.133
37975W        W 4758   9.853  30.832  11.106
37976W        W 4759  40.047  22.849   4.839
37977W        W 4760  31.564  35.126   1.376
37978W        W 4761  32.961  41.936   1.795
37979W        W 4762   7.241   1.493  13.507
37980W        W 4763  15.416  40.842   9.817
37981W        W 4764   9.874   4.526   0.785
37982W        W 4765   7.252  40.884   0.754
37983W        W 4766  24.151   2.697  12.111
37984W        W 4767  42.799  29.932   2.386
37985W        W 4768  33.867  22.190   1.865
37986W        W 4769  26.107   1.604  12.565
37987W        W 4770  17.681  23.703   1.257
37988W        W 4771  28.014  13.038   1.735
37989W        W 4772  43.596   8.317   4.031
37990W        W 4773   7.427   0.359   1.835
37991W        W 4774   1.482  29.059  12.040
37992W        W 4775  26.320  40.564  14.078
37993W        W 4776  32.498   0.490  14.889
37994W        W 4777   6.660  15.297   2.176
37995W        W 4778  18.221  23.131  13.339
37996W        W 4779   1.840  16.576   4.079
37997W        W 4780  14.223  40.528   0.229
37998W        W 4781  22.937  37.046  13.912
37999W        W 4782   1.412   4.854  13.280
38000W        W 4783  39.818  31.435  12.751
38001W        W 4784  17.338  20.732   0.899
38002W        W 4785  37.929  41.558   3.152
38003W        W 4786  41.723  17.755  12.872
38004W        W 4787  11.401  20.607  13.948
38005W        W 4788  20.512  31.169   0.831
38006W        W 4789   9.706   6.902   2.153
38007W        W 4790  31.716   2.310  13.101
38008W        W 4791  37.086  24.981  12.414
38009W        W 4792  11.887  34.776  12.425
38010W        W 4793  19.523   4.528   2.859
38011W        W 4794  35.122  41.215  11.353
38012W        W 4795  35.257  26.680   3.855
38013W        W 4796  14.850  30.548  11.112
38014W        W 4797  27.448  40.404  11.645
38015W        W 4798   7.195  42.895   4.190
38016W        W 4799  33.997  14.941  14.936
38017W        W 4800  42.855   6.680  11.174
38018W        W 4801  16.464  30.981  11.962
38019W        W 4802   9.819  14.299   0.751
38020W        W 4803  26.209  14.266  13.055
38021W        W 4804  18.788   8.782  11.237
38022W        W 4805  43.296  11.458   0.349
38023W        W 4806  14.386   4.498   0.432
38024W        W 4807  18.065  13.592   3.266
38025W        W 4808  35.806   2.148  13.950
38026W        W 4809  14.678   5.177  11.081
38027W        W 4810  30.135  22.759   2.555
38028W        W 4811   0.676  12.188  14.937
38029W        W 4812   2.997   6.730  11.613
38030W        W 4813  37.472  10.523  14.610
38031W        W 4814  20.493  42.307  12.066
38032W        W 4815  15.153  27.235   2.736
38033W        W 4816  34.350  23.461  11.102
38034W        W 4817  12.748  36.991   2.479
38035W        W 4818  30.523  33.558  13.476
38036W        W 4819  22.331  14.685   2.243
38037W        W 4820   9.656  24.763  12.018
38038W        W 4821  30.149   9.822  12.899
38039W        W 4822  38.847  22.138   0.359
38040W        W 4823  42.863  34.255   1.199
38041W        W 4824   9.786  18.183  14.704
38042W        W 4825  30.615  33.013  11.338
38043W        W 4826  29.020  14.302   0.716
38044W        W 4827  16.871   3.222   4.226
38045W        W 4828  34.562  23.373   3.289
38046W        W 4829  27.070  38.881  10.305
38047W        W 4830   3.257  11.582   2.820
38048W        W 4831  12.728  38.607  12.406
38049W        W 4832  22.313  26.709   1.438
38050W        W 4833   2.544   6.909   2.840
38051W        W 4834   1.221  19.297   3.255
38052W        W 4835  34.845  27.738   2.044
38053W        W 4836   9.623  43.422   3.644
38054W        W 4837  20.770  28.198  14.363
38055W        W 4838   4.678  42.397  10.420
38056W        W 4839   1.991  30.486  13.894
38057W        W 4840  34.712  11.678  10.042
38058W        W 4841  34.090   1.219   1.825
38059W        W 4842  28.713  11.672  13.736
38060W        W 4843  19.103  18.184   2.077
38061W        W 4844   1.877  41.928   1.702
38062W        W 4845  18.116  32.953  11.362
38063W        W 4846  27.102  32.082   2.807
38064W        W 4847   3.372  38.531   0.328
38065W        W 4848  14.396  20.051  12.235
38066W        W 4849  22.483  43.334   1.884
38067W        W 4850  12.982   3.507  12.920
38068W        W 4851  21.005   7.204   0.247
38069W        W 4852   0.241  44.848   3.333
38070W        W 4853   7.809  28.642  11.423
38071W        W 4854  20.357  21.503   0.356
38072W        W 4855  26.554  41.946   5.491
38073W        W 4856   9.839  44.695  10.696
38074W        W 4857  41.378  26.719   3.782
38075W        W 4858  25.400   2.444   0.458
38076W        W 4859  20.171  31.117  11.981
38077W        W 4860  24.997   2.202   2.804
38078W        W 4861  44.953   0.495   0.066
38079W        W 4862  34.145   3.915  14.031
38080W        W 4863  41.064  30.503   0.393
38081W        W 4864   0.289  23.477  13.803
38082W        W 4865   5.923  20.711   2.208
38083W        W 4866  39.829  31.063  13.915
38084W        W 4867  28.922  19.327  13.606
38085W        W 4868  33.379  44.149   9.930
38086W        W 4869  20.593  19.550  14.097
38087W        W 4870  15.642  36.032   0.043
38088W        W 4871  11.348  43.255  13.869
38089W        W 4872  20.240  22.694  10.748
38090W        W 4873  29.999  33.885   0.944
38091W        W 4874  44.289   7.400  14.335
38092W        W 4875  38.321  43.359  11.591
38093W        W 4876  20.200   0.034   4.529
38094W        W 4877   3.912   3.819   0.978
38095W        W 4878  22.824  20.948  11.268
38096W        W 4879  10.249  21.633   4.511
38097W        W 4880  28.938  35.196   2.356
38098W        W 4881  33.898  34.923   3.845
38099W        W 4882  14.309  10.394   2.819
38100W        W 4883  29.626  29.099   0.895
38101W        W 4884  15.724  17.153   2.766
38102W        W 4885  16.865  42.870  12.408
38103W        W 4886  41.463  37.341   4.513
38104W        W 4887  37.262  17.198  10.759
38105W        W 4888  23.143  35.165  11.130
38106W        W 4889  35.788  23.253  14.463
38107W        W 4890  36.046   7.681   0.053
38108W        W 4891  10.671  20.089  13.959
38109W        W 4892   2.774  19.094  10.763
38110W        W 4893  38.619  22.948  10.661
38111W        W 4894  40.284  18.602  12.376
38112W        W 4895  39.605  23.160   4.932
38113W        W 4896   0.903  33.017  10.919
38114W        W 4897  12.256  44.490  13.155
38115W        W 4898  17.571  42.867   3.651
38116W        W 4899  22.594  24.723  11.565
38117W        W 4900  24.739  40.233   0.280
38118W        W 4901  30.073  25.545   0.981
38119W        W 4902  23.124   5.301  13.510
38120W        W 4903  41.021  18.311   0.803
38121W        W 4904  39.433   5.404   2.310
38122W        W 4905  20.126  30.376  14.588
38123W        W 4906   1.792  21.331   3.144
38124W        W 4907  41.321  44.621  11.373
38125W        W 4908  31.866  29.505  13.481
38126W        W 4909  21.532  11.647   3.204
38127W        W 4910  29.081  27.062  11.601
38128W        W 4911  25.592  12.656  12.465
38129W        W 4912  18.198   4.235   1.933
38130W        W 4913  27.535  40.451   0.471
38131W        W 4914  21.138  14.581   0.782
38132W        W 4915  25.899  19.647   1.382
38133W        W 4916  15.703  28.008   2.825
38134W        W 4917  42.008  17.907  14.063
38135W        W 4918  30.503  44.406   3.800
38136W        W 4919  40.398  34.013  12.190
38137W        W 4920  35.436  19.400  13.018
38138W        W 4921  25.424   1.390  14.316
38139W        W 4922  13.361  44.789  13.833
38140W        W 4923  33.067  37.624  13.981
38141W        W 4924  39.276  24.646   0.230
38142W        W 4925  15.114  28.796   1.818
38143W        W 4926   8.483  22.638  14.281
38144W        W 4927  12.621   2.299   2.191
38145W        W 4928   9.592  29.121   2.405
38146W        W 4929  43.398  22.171   2.290
38147W        W 4930  35.946  28.612   1.811
38148W        W 4931   1.195  40.495   0.500
38149W        W 4932  30.081  17.534   4.463
38150W        W 4933   0.989  19.603   4.180
38151W        W 4934  29.660  23.215  12.595
38152W        W 4935  19.543  29.251  11.953
38153W        W 4936  25.911   9.266  13.410
38154W        W 4937  24.147   8.691  13.317
38155W        W 4938   3.813   1.283   4.054
38156W        W 4939  27.120  37.043   2.290
38157W        W 4940   5.934   0.893  12.830
38158W        W 4941  33.460  18.545   0.669
38159W        W 4942  31.921  35.914   3.659
38160W        W 4943  14.799   6.359  13.498
38161W        W 4944  17.030  37.076   4.129
38162W        W 4945   4.037  26.943  14.830
38163W        W 4946   7.174  26.443  12.507
38164W        W 4947  41.863  21.471  13.251
38165W        W 4948   4.904  25.543   2.790
38166W        W 4949   7.698  21.002   0.896
38167W        W 4950  25.267  33.209  13.527
38168W        W 4951  35.574  24.037  13.031
38169W        W 4952   3.368  25.148   0.768
38170W        W 4953   2.317  44.691  14.381
38171W        W 4954  16.648  34.323   1.853
38172W        W 4955  25.251   4.503   3.683
38173W        W 4956  42.226  18.932   3.598
38174W        W 4957   9.990   7.595   1.656
38175W        W 4958  16.404  31.101  13.244
38176W        W 4959  20.216  27.842   3.125
38177W        W 4960   0.751  21.035   1.803
38178W        W 4961  39.319  26.366  14.537
38179W        W 4962  32.027  22.287   0.264
38180W        W 4963  14.736  39.487  12.487
38181W        W 4964   0.388  39.419   4.388
38182W        W 4965  29.949  26.662   2.569
38183W        W 4966  34.864  33.117  11.142
38184W        W 4967  12.561   3.490  13.393
38185W        W 4968   2.464  21.696  10.718
38186W        W 4969   5.726  15.274  13.462
38187W        W 4970  25.942   4.177  13.000
38188W        W 4971  32.052  20.960  13.553
38189W        W 4972   6.303  40.835  10.644
38190W        W 4973   1.584  39.429  14.908
38191W        W 4974  33.712  41.366  11.144
38192W        W 4975  35.356  10.391   5.130
38193W        W 4976  18.334  14.111   2.344
38194W        W 4977  17.976  16.006  11.601
38195W        W 4978   0.036  13.391  13.795
38196W        W 4979  17.249  33.001  11.395
38197W        W 4980  41.512  24.139   1.715
38198W        W 4981  13.227  26.572  13.403
38199W        W 4982   5.646  29.832   1.739
38200W        W 4983  19.065  28.500  12.076
38201W        W 4984   2.477   7.295   3.210
38202W        W 4985   1.995  16.061  13.397
38203W        W 4986  20.174  20.073   2.237
38204W        W 4987   8.830  11.616  12.438
38205W        W 4988  17.245   2.977   4.481
38206W        W 4989  10.791  43.490   1.461
38207W        W 4990  19.287  34.309   0.813
38208W        W 4991  18.734  14.675   1.268
38209W        W 4992  12.321  32.193   4.215
38210W        W 4993   9.717  28.033  10.714
38211W        W 4994   7.783  40.822   3.857
38212W        W 4995  29.012  10.712  13.926
38213W        W 4996  27.442  38.934  10.686
38214W        W 4997  16.147  19.746  11.034
38215W        W 4998  38.878   8.136   3.322
38216W        W 4999  41.533   9.369   3.268
38217W        W 5000  35.465  16.962  14.920
38218W        W 5001  34.793  16.763   3.325
38219W        W 5002  27.570   9.326  10.447
38220W        W 5003  12.537  25.797  14.957
38221W        W 5004  18.196  20.799  13.548
38222W        W 5005  37.954   7.816   0.431
38223W        W 5006   0.838  15.069   4.511
38224W        W 5007  42.784  34.977  14.885
38225W        W 5008   0.219  20.524   2.739
38226W        W 5009  14.303   6.173  13.415
38227W        W 5010   5.436  31.449  10.886
38228W        W 5011  23.045  26.623   4.131
38229W        W 5012   8.643  13.865  11.545
38230W        W 5013   1.251  33.153   0.412
38231W        W 5014  21.329  41.301  10.949
38232W        W 5015  33.925  44.767  11.029
38233W        W 5016  24.101  35.442   4.585
38234W        W 5017  35.994  22.231   3.363
38235W        W 5018   3.007  39.952   1.887
38236W        W 5019  23.147  24.162   3.698
38237W        W 5020  17.546   8.830  13.636
38238W        W 5021  18.274  39.406  12.398
38239W        W 5022  19.976  18.795  12.004
38240W        W 5023   8.985  28.738  11.745
38241W        W 5024  35.345  16.659   1.952
38242W        W 5025  17.100  41.037   4.680
38243W        W 5026  10.585  41.041   1.588
38244W        W 5027  28.266  42.868  12.339
38245W        W 5028  23.183   9.887   3.346
38246W        W 5029  43.292  38.538  11.578
38247W        W 5030  18.285  41.430  11.434
38248W        W 5031  35.819  36.835   4.429
38249W        W 5032  32.932  24.084   2.718
38250W        W 5033  31.704  42.589   2.715
38251W        W 5034  13.804  11.193   2.670
38252W        W 5035  41.541   4.215   1.720
38253W        W 5036  40.416  30.328   4.125
38254W        W 5037  32.461  33.351  14.417
38255W        W 5038   6.850  35.109  12.535
38256W        W 5039   9.364  36.754  11.070
38257W        W 5040  21.741   2.275  11.357
38258W        W 5041   9.831  14.259  11.135
38259W        W 5042  37.565  36.078  13.821
38260W        W 5043  32.182   0.938   1.745
38261W        W 5044  35.011  35.537  13.352
38262W        W 5045  23.815  41.450  13.419
38263W        W 5046  27.581  11.658  13.930
38264W        W 5047  18.253   3.198   2.775
38265W        W 5048  37.788  25.961  14.047
38266W        W 5049  17.161  19.889   3.275
38267W        W 5050  24.128  30.280  14.034
38268W        W 5051  34.600  16.697  10.689
38269W        W 5052  36.417  10.185   3.769
38270W        W 5053  22.952  38.663   3.835
38271W        W 5054  24.204  11.571   4.641
38272W        W 5055  29.443  42.549   0.603
38273W        W 5056  16.153   3.036  13.434
38274W        W 5057   2.433  14.166  14.533
38275W        W 5058  15.356  10.732   4.944
38276W        W 5059  33.886   7.502   2.045
38277W        W 5060  27.187   0.089   4.119
38278W        W 5061  27.857  32.473  12.437
38279W        W 5062  32.672  18.608  10.959
38280W        W 5063  28.557  34.674  11.011
38281W        W 5064  19.242  21.668   3.247
38282W        W 5065  11.150  34.387   1.368
38283W        W 5066  14.893  35.457  11.149
38284W        W 5067  44.265  15.561  14.828
38285W        W 5068  10.688  23.671   4.329
38286W        W 5069   1.330   8.370   1.498
38287W        W 5070   1.844  13.636  13.429
38288W        W 5071  25.450   0.267  13.515
38289W        W 5072  12.377  11.083  14.223
38290W        W 5073  19.627  20.282  13.093
38291W        W 5074  23.247  26.109  14.418
38292W        W 5075  14.371   0.810   3.165
38293W        W 5076   4.640  26.186  12.531
38294W        W 5077  22.028  24.090   3.271
38295W        W 5078  18.777  22.107   2.723
38296W        W 5079  38.438  32.466   0.192
38297W        W 5080  29.010  13.770   0.677
38298W        W 5081  31.021   0.823  12.893
38299W        W 5082  32.662  11.708   3.155
38300W        W 5083  17.555  44.544  13.420
38301W        W 5084  39.941  32.066   3.732
38302W        W 5085  12.772  37.306  13.823
38303W        W 5086  17.756  12.572  13.144
38304W        W 5087  25.457  16.337  13.350
38305W        W 5088  42.374  26.175   3.123
38306W        W 5089  35.426  24.259   0.738
38307W        W 5090  14.879  42.869   2.529
38308W        W 5091   6.304  42.370   4.402
38309W        W 5092   9.353  34.525  14.371
38310W        W 5093   0.103  35.591  13.843
38311W        W 5094  10.889  36.034  14.875
38312W        W 5095  12.831  44.370   2.268
38313W        W 5096  15.665  26.901  12.973
38314W        W 5097   9.717  13.026  14.443
38315W        W 5098  30.109  24.413   4.191
38316W        W 5099  18.707   8.164  14.429
38317W        W 5100  35.796  25.947  14.454
38318W        W 5101  20.647  42.019   0.253
38319W        W 5102  15.303  18.121   1.702
38320W        W 5103  21.941  44.064   4.882
38321W        W 5104  14.201   6.419   1.644
38322W        W 5105  25.490   3.516  10.730
38323W        W 5106  15.841  39.505  13.481
38324W        W 5107  24.382  11.476   4.143
38325W        W 5108  41.292   8.362  13.520
38326W        W 5109  38.674  32.049  12.828
38327W        W 5110  38.879  39.229  10.298
38328W        W 5111  11.293  25.073  11.931
38329W        W 5112   7.149  29.637  14.567
38330W        W 5113   8.135  18.731  14.492
38331W        W 5114  40.858  11.611   2.657
38332W        W 5115  17.364  28.599  10.943
38333W        W 5116  34.068  25.190  10.740
38334W        W 5117  37.004  21.524  11.442
38335W        W 5118   0.227  41.205   1.350
38336W        W 5119   1.842  41.468  12.764
38337W        W 5120  13.032   9.365   1.407
38338W        W 5121  27.660  28.185   2.483
38339W        W 5122  16.535  31.030   0.461
38340W        W 5123   5.722  35.566   3.312
38341W        W 5124  42.642  44.922  11.532
38342W        W 5125  22.916  33.921   2.225
38343W        W 5126   1.520  11.624  13.520
38344W        W 5127  32.388  38.496  14.509
38345W        W 5128  40.910  38.090  10.761
38346W        W 5129  41.729  18.012  11.205
38347W        W 5130  35.446  18.752  12.231
38348W        W 5131  40.275  42.512  11.076
38349W        W 5132   7.192  44.727  13.056
38350W        W 5133  21.815  37.277  11.028
38351W        W 5134  12.091   3.722   4.142
38352W        W 5135  10.797  43.164   3.704
38353W        W 5136  40.228   8.047  13.960
38354W        W 5137   3.842  30.682   1.200
38355W        W 5138  36.361  17.286   3.676
38356W        W 5139  14.249   6.282  12.097
38357W        W 5140  12.403  38.647  10.636
38358W        W 5141  35.773  29.583  10.753
38359W        W 5142  11.577  35.813  10.139
38360W        W 5143  22.718  29.344   3.908
38361W        W 5144   0.848  14.276  13.038
38362W        W 5145  11.296  10.036   4.635
38363W        W 5146  33.175  23.671   4.759
38364W        W 5147  43.253  18.532   2.780
38365W        W 5148  44.292  10.827   3.364
38366W        W 5149  23.253   7.699  11.053
38367W        W 5150   1.712  16.266   1.027
38368W        W 5151  27.145   4.942  13.001
38369W        W 5152  18.545  40.218  13.464
38370W        W 5153  32.959  23.215  13.004
38371W        W 5154  21.311   3.651  13.797
38372W        W 5155  15.586  24.518   2.966
38373W        W 5156  28.844  29.702   1.830
38374W        W 5157   0.322  23.640   2.735
38375W        W 5158  34.211   1.923   0.507
38376W        W 5159  21.674  36.609   0.865
38377W        W 5160  10.699  32.053   0.986
38378W        W 5161  15.882  24.189   5.134
38379W        W 5162  31.393   2.309  11.127
38380W        W 5163  44.510   4.455   3.667
38381W        W 5164  23.059  39.073   0.440
38382W        W 5165   2.154   1.811   0.315
38383W        W 5166  15.149   5.134   0.934
38384W        W 5167   7.078  28.582   3.821
38385W        W 5168   9.772  17.766  14.355
38386W        W 5169  42.976  31.041   1.395
38387W        W 5170  35.373  43.833   2.944
38388W        W 5171  19.754   2.281   1.779
38389W        W 5172  27.098   8.840  14.451
38390W        W 5173  30.873   3.050   5.092
38391W        W 5174   6.342  23.929   1.842
38392W        W 5175   4.922  31.561  10.746
38393W        W 5176  21.556  38.720   4.837
38394W        W 5177   8.810  35.394  14.540
38395W        W 5178  35.123   5.836   2.693
38396W        W 5179  26.390  37.561  12.564
38397W        W 5180  31.811   2.486  10.840
38398W        W 5181  17.584  31.599   1.155
38399W        W 5182  15.637   1.216  13.460
38400W        W 5183  16.626  33.316  13.057
38401W        W 5184  38.898  28.444   3.749
38402W        W 5185  26.265  14.854  12.544
38403W        W 5186  12.883  25.180  12.781
38404W        W 5187  39.717  34.215  11.167
38405W        W 5188  31.226  23.573   1.813
38406W        W 5189  24.661   6.280  14.134
38407W        W 5190  26.054  21.593  10.617
38408W        W 5191  41.328  44.165  12.822
38409W        W 5192  16.038  40.534  14.851
38410W        W 5193  16.779  40.479  13.297
38411W        W 5194  16.247  36.985  14.246
38412W        W 5195  10.673  16.676   0.551
38413W        W 5196  44.981  33.006  13.560
38414W        W 5197   2.356   5.796  13.524
38415W        W 5198  40.873  27.210   4.274
38416W        W 5199  13.214   3.198  11.640
38417W        W 5200   6.863   3.396   2.276
38418W        W 5201  25.895  36.963   1.369
38419W        W 5202   2.938  32.521  13.827
38420W        W 5203  39.379  36.824   0.955
38421W        W 5204  13.669  27.051   4.074
38422W        W 5205  34.271   4.901  14.148
38423W        W 5206  37.574   6.355  10.567
38424W        W 5207  28.009  41.447  14.346
38425W        W 5208  34.550   2.370   1.648
38426W        W 5209   6.187  25.456  13.117
38427W        W 5210  40.705  16.181  14.453
38428W        W 5211  11.743  22.614   1.056
38429W        W 5212   6.825  16.983   2.804
38430W        W 5213  41.048  44.936   4.630
38431W        W 5214  37.827  44.451   1.194
38432W        W 5215  40.348  15.911  10.794
38433W        W 5216  38.455  22.620   2.405
38434W        W 5217  36.320   9.676   4.579
38435W        W 5218  25.521   5.947   0.413
38436W        W 5219  38.409  17.922  13.534
38437W        W 5220  29.389   2.871   2.106
38438W        W 5221  36.801  26.717   3.716
38439W        W 5222   3.249  29.925   3.409
38440W        W 5223  21.798  42.697  10.538
38441W        W 5224  29.974  32.991  13.959
38442W        W 5225  38.644   3.356   0.890
38443W        W 5226   7.840  42.035   2.801
38444W        W 5227  12.165   5.287   0.727
38445W        W 5228  13.209  35.824  14.325
38446W        W 5229   8.424   1.374   1.953
38447W        W 5230  22.562  19.077  14.878
38448W        W 5231  41.691   3.499  13.894
38449W        W 5232   2.270   9.291   0.851
38450W        W 5233  28.867  16.695   3.332
38451W        W 5234   3.543  39.844   3.860
38452W        W 5235  43.507  31.841  14.742
38453W        W 5236  20.399  30.167   2.883
38454W        W 5237  44.288  32.178  13.422
38455W        W 5238  38.380  26.590   1.975
38456W        W 5239  10.876   6.678  13.007
38457W        W 5240  33.984   7.731  11.905
38458W        W 5241  23.911  36.569  12.950
38459W        W 5242  13.716  28.160  12.422
38460W        W 5243  40.462   7.666  10.636
38461W        W 5244  37.633  24.274   2.902
38462W        W 5245  14.130   8.069   0.354
38463W        W 5246  44.241  20.570   0.628
38464W        W 5247  33.701   4.991   0.319
38465W        W 5248  42.249  41.306  13.409
38466W        W 5249  19.820  13.950  10.665
38467W        W 5250  12.645  38.485   1.142
38468W        W 5251  31.678  26.016   0.372
38469W        W 5252  14.808  13.891  12.069
38470W        W 5253  42.864  24.723  14.907
38471W        W 5254  40.880  24.207  10.918
38472W        W 5255  29.588  44.890  13.051
38473W        W 5256  10.756  12.511   3.383
38474W        W 5257  37.622   6.146   4.565
38475W        W 5258  41.430  10.594   3.723
38476W        W 5259  31.065  28.263   2.700
38477W        W 5260  30.455  25.581  13.491
38478W        W 5261  43.561  17.856  10.328
38479W        W 5262  22.190  29.317   2.134
38480W        W 5263  30.176  30.892   4.573
38481W        W 5264  32.841  20.981   2.748
38482W        W 5265  24.006  43.021  10.148
38483W        W 5266  29.155  13.630   3.776
38484W        W 5267   1.835  38.966  12.281
38485W        W 5268   7.286  34.805  12.538
38486W        W 5269   3.382   5.152  10.404
38487W        W 5270  38.323  21.017  12.364
38488W        W 5271  12.632  37.323   3.664
38489W        W 5272  31.607   0.791  12.494
38490W        W 5273   5.024   9.418   3.226
38491W        W 5274  26.885  34.083   1.306
38492W        W 5275  33.173   2.675  12.466
38493W        W 5276  23.753  12.358   1.885
38494W        W 5277  35.058  33.421   3.447
38495W        W 5278  15.862  28.142  14.860
38496W        W 5279  31.785  43.577   2.482
38497W        W 5280  18.541  18.593   2.229
38498W        W 5281  15.540   7.444   1.224
38499W        W 5282  40.265  35.756  11.554
38500W        W 5283  21.620  22.626   2.632
38501W        W 5284  42.478   3.527   0.446
38502W        W 5285   6.941  28.128  12.928
38503W        W 5286   2.509  36.470  13.275
38504W        W 5287  30.883  31.491  12.804
38505W        W 5288   6.081  38.208  11.616
38506W        W 5289  21.621  32.443  14.502
38507W        W 5290  22.582  41.944  13.977
38508W        W 5291  24.996  30.286  13.973
38509W        W 5292  37.864  44.771   0.281
38510W        W 5293  40.564   0.828  10.656
38511W        W 5294  33.432  38.598  13.904
38512W        W 5295  17.589  41.272   4.580
38513W        W 5296  38.497  12.891   4.347
38514W        W 5297  17.573   0.064   2.221
38515W        W 5298  11.715   6.695   2.009
38516W        W 5299   3.455   4.702   1.422
38517W        W 5300  17.246  24.016   1.360
38518W        W 5301  10.074   8.406   2.132
38519W        W 5302  16.099  32.044  10.672
38520W        W 5303  17.074  27.583  14.713
38521W        W 5304  35.430  26.618   1.243
38522W        W 5305  11.697  36.354  11.500
38523W        W 5306  41.433  23.879   2.324
38524W        W 5307  22.468  30.387  13.802
38525W        W 5308  33.535  26.755  13.573
38526W        W 5309  26.227  32.275   1.703
38527W        W 5310  23.752   4.101   2.287
38528W        W 5311   8.257   8.239  14.946
38529W        W 5312   2.821  43.306   0.012
38530W        W 5313  39.185  29.760  11.733
38531W        W 5314   1.902  21.733  10.716
38532W        W 5315  23.956  20.352   4.637
38533W        W 5316  44.143  29.921   3.652
38534W        W 5317   1.581  12.105   0.403
38535W        W 5318  10.126   6.673  10.757
38536W        W 5319  17.292  24.486   3.335
38537W        W 5320  26.400  38.362  13.341
38538W        W 5321  18.640  14.173   2.865
38539W        W 5322  23.103  11.527   4.834
38540W        W 5323  28.733  21.904   0.996
38541W        W 5324  21.071  25.353  11.215
38542W        W 5325  30.086   6.047  13.194
38543W        W 5326  26.257   6.451   4.057
38544W        W 5327  26.003  39.307   0.010
38545W        W 5328  37.579   5.183   4.558
38546W        W 5329  42.052  37.376  12.710
38547W        W 5330  26.912  12.778  13.706
38548W        W 5331  18.287   5.945   0.981
38549W        W 5332  29.704   7.106   0.197
38550W        W 5333  10.650  13.319   2.719
38551W        W 5334  38.165   2.544   0.413
38552W        W 5335  16.650   9.956   0.824
38553W        W 5336  44.417  41.436  14.037
38554W        W 5337  43.965  41.225  11.683
38555W        W 5338  41.592  34.599  12.470
38556W        W 5339  21.127  27.331   3.256
38557W        W 5340  18.331  22.061  10.648
38558W        W 5341  21.017  11.870  12.994
38559W        W 5342  25.017  38.885  12.493
38560W        W 5343  44.548  26.537   3.175
38561W        W 5344  35.220  40.947   2.927
38562W        W 5345  18.179  38.969  14.006
38563W        W 5346   9.044  38.097  11.893
38564W        W 5347  43.361   1.933  12.777
38565W        W 5348   2.276  26.211   0.428
38566W        W 5349   4.683  35.496  12.151
38567W        W 5350  20.639  25.450   3.360
38568W        W 5351  14.171   3.334   1.194
38569W        W 5352  25.684  17.790  10.370
38570W        W 5353  34.481   2.453   4.367
38571W        W 5354  40.735  43.720   4.012
38572W        W 5355   7.202   3.786   1.919
38573W        W 5356  36.864   7.487   3.194
38574W        W 5357   4.399  16.065   2.417
38575W        W 5358  28.223  35.680   0.859
38576W        W 5359  23.348   9.387   1.594
38577W        W 5360  40.791  41.624  11.219
38578W        W 5361  42.466  25.208   3.089
38579W        W 5362  14.571   7.189   1.901
38580W        W 5363  24.185   0.225  12.455
38581W        W 5364  11.797  15.307  14.316
38582W        W 5365  37.315  36.481  14.039
38583W        W 5366  27.508   8.936  12.771
38584W        W 5367   5.583  18.042  14.081
38585W        W 5368   1.298   9.098   4.594
38586W        W 5369  36.628  44.575  14.096
38587W        W 5370  42.236  17.509   0.722
38588W        W 5371  44.898   4.745  14.195
38589W        W 5372  10.655  31.831  13.490
38590W        W 5373  32.069  15.208  13.019
38591W        W 5374  24.563  10.925  11.451
38592W        W 5375  30.881  30.076   3.955
38593W        W 5376  31.036  33.546   0.993
38594W        W 5377   8.186  27.940  14.272
38595W        W 5378   8.228  21.019  13.929
38596W        W 5379  20.665  44.073   0.404
38597W        W 5380  10.107  26.936   0.524
38598W        W 5381  30.700   8.698  11.221
38599W        W 5382  30.973   2.412  10.620
38600W        W 5383  23.763  14.922   1.317
38601W        W 5384  42.557  10.262   0.951
38602W        W 5385  23.133  31.589   3.652
38603W        W 5386  23.827  22.093  14.066
38604W        W 5387  34.907  26.907   2.379
38605W        W 5388  13.267  43.890   3.390
38606W        W 5389  20.171  15.495  12.047
38607W        W 5390  28.550  12.015   1.011
38608W        W 5391  21.322  25.314  14.719
38609W        W 5392  40.379  24.469  13.017
38610W        W 5393  26.115  14.370  11.490
38611W        W 5394  31.908  30.071   3.139
38612W        W 5395   2.802  11.606   1.665
38613W        W 5396  21.161  22.215  12.322
38614W        W 5397  17.631  18.063  13.017
38615W        W 5398  36.442   0.465   0.176
38616W        W 5399  44.478  22.284   4.534
38617W        W 5400   4.739   4.136  12.494
38618W        W 5401  23.182  33.997  14.997
38619W        W 5402   3.525  42.424   1.335
38620W        W 5403  14.670   2.890   3.294
38621W        W 5404   4.686  33.972  13.322
38622W        W 5405  27.751   3.444  11.427
38623W        W 5406  26.359   6.177   2.544
38624W        W 5407  28.491   8.895  11.493
38625W        W 5408  28.896  39.360   3.606
38626W        W 5409   0.248  13.328   1.881
38627W        W 5410   7.480  41.823   2.223
38628W        W 5411  27.220  11.845  11.714
38629W        W 5412   3.503  12.281   3.739
38630W        W 5413  26.421  43.461   1.396
38631W        W 5414  38.489  16.589  12.368
38632W        W 5415  36.343  25.841   2.577
38633W        W 5416  39.780  16.706   3.775
38634W        W 5417  22.242  20.403   2.317
38635W        W 5418  23.470  18.056   3.152
38636W        W 5419  22.069   1.815   2.670
38637W        W 5420  15.729  44.279   1.789
38638W        W 5421  14.285  28.431  13.378
38639W        W 5422  14.222   2.022   4.685
38640W        W 5423  42.027  39.547   3.813
38641W        W 5424  16.014  21.998   2.479
38642W        W 5425  28.712  20.740   0.512
38643W        W 5426  26.652  38.306  14.510
38644W        W 5427  31.104  18.776  14.762
38645W        W 5428  11.210  20.277  12.412
38646W        W 5429  44.117  16.125  10.574
38647W        W 5430  19.919  15.069  14.086
38648W        W 5431  23.063  39.771   1.390
38649W        W 5432  38.414  30.988  13.799
38650W        W 5433  32.464  10.197   4.212
38651W        W 5434  15.311   6.166  13.701
38652W        W 5435  36.912  41.058  14.117
38653W        W 5436  17.525  12.736   2.272
38654W        W 5437  28.910   1.554  11.613
38655W        W 5438  42.614   6.293  12.133
38656W        W 5439  14.566  24.446  12.112
38657W        W 5440  23.006  23.040   4.433
38658W        W 5441   6.521  29.224   4.827
38659W        W 5442  12.896  33.763  14.590
38660W        W 5443  36.830  42.828  13.846
38661W        W 5444  17.327  12.775   1.666
38662W        W 5445   6.389  11.187  11.717
38663W        W 5446   5.437   4.792  12.632
38664W        W 5447   5.127  37.530  14.372
38665W        W 5448  21.003   1.665   2.739
38666W        W 5449  12.100  32.432   0.875
38667W        W 5450  34.995   1.040  10.663
38668W        W 5451   3.704   7.231   4.596
38669W        W 5452   9.299  12.626   3.613
38670W        W 5453  26.126   2.235   3.199
38671W        W 5454  32.486  44.940   0.852
38672W        W 5455  31.765   6.381  13.177
38673W        W 5456   7.195  16.030  11.573
38674W        W 5457  29.439  16.807   0.174
38675W        W 5458  38.386  15.063   4.060
38676W        W 5459  19.074  10.054  12.047
38677W        W 5460  17.034  34.019   0.963
38678W        W 5461  22.299  32.396  10.611
38679W        W 5462  26.278  29.046   0.167
38680W        W 5463   7.636  42.568   1.432
38681W        W 5464  31.164   1.047  12.444
38682W        W 5465  43.190  19.185   3.311
38683W        W 5466   7.357  32.014   0.180
38684W        W 5467   7.416  34.597  12.053
38685W        W 5468  42.691  40.509  12.736
38686W        W 5469  28.136  38.796   1.768
38687W        W 5470  10.180  18.955   3.797
38688W        W 5471   2.309  28.460   1.810
38689W        W 5472  44.952  30.197  11.107
38690W        W 5473  33.342  40.517   9.948
38691W        W 5474  28.981  38.045  11.903
38692W        W 5475  27.260  39.060   4.799
38693W        W 5476  29.092  15.529   9.901
38694W        W 5477  33.435  28.610  13.988
38695W        W 5478  15.936  13.133  10.334
38696W        W 5479  40.298  33.854  12.663
38697W        W 5480  29.999  16.161  10.367
38698W        W 5481   9.876   7.379   1.188
38699W        W 5482  11.591  20.596   3.105
38700W        W 5483  23.083  28.433  12.002
38701W        W 5484   0.928  41.729   3.607
38702W        W 5485  13.301  29.149   2.109
38703W        W 5486   7.600   7.805   3.328
38704W        W 5487  43.821  39.053   3.112
38705W        W 5488  31.622  40.273   3.391
38706W        W 5489  26.764  40.127  11.642
38707W        W 5490  13.885  23.602   2.359
38708W        W 5491  34.501  31.868   4.713
38709W        W 5492  17.328  19.742   4.271
38710W        W 5493  43.721  30.923  13.361
38711W        W 5494  38.380  27.270   3.209
38712W        W 5495  28.597   8.457   0.875
38713W        W 5496  16.037   1.822   4.737
38714W        W 5497  19.104  15.233   0.886
38715W        W 5498   4.268  13.136   1.069
38716W        W 5499  38.809   9.223   0.345
38717W        W 5500   0.404  44.982  13.511
38718W        W 5501  18.155  14.361   1.346
38719W        W 5502  37.362   4.153  14.503
38720W        W 5503   3.847  31.842  13.300
38721W        W 5504  23.718  18.676   2.770
38722W        W 5505  41.092  28.775   2.264
38723W        W 5506  31.914  16.568   3.683
38724W        W 5507  27.645   6.363   4.202
38725W        W 5508  23.058   9.403  12.582
38726W        W 5509  13.129  27.796   3.315
38727W        W 5510  39.091   3.463   0.119
38728W        W 5511  40.937  31.043   4.606
38729W        W 5512  14.932  40.816   4.568
38730W        W 5513  37.167  28.350  11.174
38731W        W 5514   1.404  19.724  13.964
38732W        W 5515   3.120  24.479   2.173
38733W        W 5516  44.987   1.576  10.792
38734W        W 5517  30.378   1.555   4.606
38735W        W 5518  16.563  25.285  12.029
38736W        W 5519  28.248  28.737   3.636
38737W        W 5520   1.659   4.221  14.940
38738W        W 5521  32.467  43.382  12.680
38739W        W 5522   3.884   3.924   2.003
38740W        W 5523  17.053  10.371   0.483
38741W        W 5524  14.221  36.863  14.294
38742W        W 5525  31.182   5.198   0.523
38743W        W 5526   9.785  16.354   0.507
38744W        W 5527   4.252  29.110  12.861
38745W        W 5528  17.865  14.015   3.543
38746W        W 5529  10.389  37.363   0.571
38747W        W 5530  10.112  17.581   2.128
38748W        W 5531  18.632  24.259  14.818
38749W        W 5532  15.588  18.689   4.579
38750W        W 5533  11.748  24.575  10.662
38751W        W 5534  34.125  40.437   4.583
38752W        W 5535  35.908  38.419   3.680
38753W        W 5536  44.474   0.797   0.784
38754W        W 5537  42.080   7.144   9.897
38755W        W 5538  37.404  39.458   1.876
38756W        W 5539  23.058   3.890  14.134
38757W        W 5540   3.715   6.993  14.917
38758W        W 5541   2.892   9.257   2.242
38759W        W 5542   7.329  27.378  13.528
38760W        W 5543  14.025  34.549  10.129
38761W        W 5544   4.749   6.272   4.135
38762W        W 5545  43.249  24.088  11.612
38763W        W 5546  25.226   6.871  14.271
38764W        W 5547  10.770  40.332  10.630
38765W        W 5548   8.909  18.902   1.906
38766W        W 5549   9.107  22.627  12.557
38767W        W 5550  15.598  42.828  14.993
38768W        W 5551  40.117   1.768  10.715
38769W        W 5552  44.971  26.231   1.603
38770W        W 5553  34.525  16.874  14.306
38771W        W 5554  13.650  16.068   2.256
38772W        W 5555  16.059  16.739  13.523
38773W        W 5556  19.647  18.573   3.942
38774W        W 5557  21.147   4.889  11.912
38775W        W 5558   1.342  18.745  14.293
38776W        W 5559  17.620  17.859   3.978
38777W        W 5560  42.241  33.902  11.617
38778W        W 5561   3.436  14.542  13.006
38779W        W 5562  25.913   0.257  14.737
38780W        W 5563  22.073  28.818  11.958
38781W        W 5564   3.555  22.640  11.749
38782W        W 5565  37.572  27.581  10.666
38783W        W 5566   4.936  30.226  14.346
38784W        W 5567   0.686  14.562   0.850
38785W        W 5568  44.325   3.439   2.591
38786W        W 5569  23.154  18.767   2.752
38787W        W 5570  24.473  18.187  11.113
38788W        W 5571   8.749  43.482   4.651
38789W        W 5572   5.194  11.279   1.461
38790W        W 5573  41.621  13.587  14.195
38791W        W 5574  18.293  25.637   1.345
38792W        W 5575  23.122  27.084   1.859
38793W        W 5576   0.553  14.656  10.327
38794W        W 5577  44.236  12.337   0.938
38795W        W 5578  17.091  41.585  12.943
38796W        W 5579  29.469  15.147  12.909
38797W        W 5580  35.049   8.391  11.096
38798W        W 5581   4.779  21.593   1.567
38799W        W 5582  27.597   8.700   0.225
38800W        W 5583  37.445  44.496   4.159
38801W        W 5584  13.484  15.248   4.356
38802W        W 5585  34.906  30.087   3.247
38803W        W 5586  24.663  30.021   2.703
38804W        W 5587  30.670  41.567   2.086
38805W        W 5588  28.633  21.350   2.362
38806W        W 5589  21.207  23.177   1.316
38807W        W 5590  24.508   0.353  10.710
38808W        W 5591  28.066  41.311  12.569
38809W        W 5592  21.066  37.044  12.905
38810W        W 5593  41.394  15.686  10.566
38811W        W 5594  22.953   6.940   1.362
38812W        W 5595   2.458  29.895  13.414
38813W        W 5596   3.785  43.438  13.309
38814W        W 5597  23.979   8.145   2.676
38815W        W 5598  19.622  33.398   2.296
38816W        W 5599  23.725  36.691  11.615
38817W        W 5600   3.753  28.026  13.896
38818W        W 5601  36.312  25.169   1.396
38819W        W 5602  15.617  28.428   3.724
38820W        W 5603  15.865  22.821   0.000
38821W        W 5604   8.714  30.377   0.813
38822W        W 5605  44.769  33.217   4.098
38823W        W 5606  20.059  33.985   1.877
38824W        W 5607  23.522  43.845   4.082
38825W        W 5608  15.000  25.428   1.331
38826W        W 5609   0.200   3.761   1.314
38827W        W 5610  29.535  11.144   1.277
38828W        W 5611  12.540   0.100   1.862
38829W        W 5612  23.064  20.408  14.827
38830W        W 5613  27.613   6.385   3.670
38831W        W 5614  32.525  43.281   2.459
38832W        W 5615   0.958  43.536  14.978
38833W        W 5616  34.928  20.765  13.849
38834W        W 5617  17.237  31.922   4.604
38835W        W 5618  17.299   2.197  13.120
38836W        W 5619   4.306   0.031  12.193
38837W        W 5620  19.534  21.787  14.677
38838W        W 5621  37.499  43.933  14.595
38839W        W 5622  39.343   8.209   3.039
38840W        W 5623   5.997  20.241   3.204
38841W        W 5624  18.396   1.423  10.966
38842W        W 5625   9.112  29.156  14.975
38843W        W 5626   8.080   4.662  13.431
38844W        W 5627  23.990  34.958  10.583
38845W        W 5628  31.610   1.755   4.678
38846W        W 5629  11.576  16.507   0.218
38847W        W 5630  27.239  10.904  13.552
38848W        W 5631  35.761  25.440  12.723
38849W        W 5632   4.741  13.339  14.675
38850W        W 5633  10.402  36.250  10.569
38851W        W 5634  26.254  26.982   0.461
38852W        W 5635  27.190  15.592  14.438
38853W        W 5636   1.937  36.832   1.451
38854W        W 5637  23.907   9.673   4.100
38855W        W 5638  27.640  33.476  12.452
38856W        W 5639  40.378  31.255  11.219
38857W        W 5640  35.760  13.564  13.009
38858W        W 5641  41.822  11.454   0.383
38859W        W 5642  12.316  40.775  11.178
38860W        W 5643  14.481  16.514  13.352
38861W        W 5644  37.685   8.678  11.434
38862W        W 5645  29.985   3.296   1.867
38863W        W 5646  30.923  40.081  13.405
38864W        W 5647  44.978  14.276   4.008
38865W        W 5648  25.708  22.736  13.979
38866W        W 5649   1.547   4.813   3.315
38867W        W 5650  21.109   1.590  13.500
38868W        W 5651  19.257   0.384  13.993
38869W        W 5652  40.982  25.407  11.586
38870W        W 5653   1.458   7.310  10.090
38871W        W 5654  10.339  23.614  13.879
38872W        W 5655  41.239  32.995   1.817
38873W        W 5656  15.794  44.776   1.625
38874W        W 5657   5.623   8.415   0.052
38875W        W 5658  11.479  14.087   2.725
38876W        W 5659   4.769  25.660  14.845
38877W        W 5660  36.598  34.295  12.085
38878W        W 5661  22.966  24.704   2.256
38879W        W 5662   3.893  42.979   0.761
38880W        W 5663  15.132  35.659   2.217
38881W        W 5664  40.232   5.741  11.114
38882W        W 5665   3.705  25.396  10.999
38883W        W 5666  26.303  23.258   1.729
38884W        W 5667   3.864  15.913   1.179
38885W        W 5668  32.457  26.645   4.755
38886W        W 5669  26.646  36.357   2.772
38887W        W 5670  35.020  39.129  14.463
38888W        W 5671   6.291  44.771  11.414
38889W        W 5672  41.546   7.429   1.684
38890W        W 5673  38.833  11.933   1.369
38891W        W 5674  11.301  29.942   2.230
38892W        W 5675  20.718  43.293  11.067
38893W        W 5676  40.525   6.852   0.720
38894W        W 5677  28.695  30.918   0.754
38895W        W 5678   9.220  21.936  14.413
38896W        W 5679  20.590   7.793   0.712
38897W        W 5680  34.508  10.241  13.407
38898W        W 5681  22.191  12.167  14.430
38899W        W 5682  30.057  35.521   4.172
38900W        W 5683  24.547  40.484   1.361
38901W        W 5684  25.529  23.223   4.515
38902W        W 5685  33.827  33.566  12.506
38903W        W 5686  17.541  31.230   2.114
38904W        W 5687  10.642   1.051   3.121
38905W        W 5688  29.907   8.812  11.648
38906W        W 5689  34.143  15.238  12.484
38907W        W 5690  44.023   3.790  13.948
38908W        W 5691  41.519  44.417  10.531
38909W        W 5692  22.188  39.060  13.945
38910W        W 5693   8.849  25.673   2.229
38911W        W 5694   8.241  15.481  11.098
38912W        W 5695  43.841  39.957  13.991
38913W        W 5696   1.549  25.138   2.736
38914W        W 5697  10.422  19.088   0.124
38915W        W 5698  30.511  34.807  10.694
38916W        W 5699  23.857  32.163   4.715
38917W        W 5700  22.952  25.216   2.288
38918W        W 5701  39.508  19.088  11.911
38919W        W 5702   9.374  37.488  12.489
38920W        W 5703  10.396  41.400   4.278
38921W        W 5704   9.822   8.310   0.939
38922W        W 5705   9.870  17.252  11.091
38923W        W 5706  17.171  18.049   4.150
38924W        W 5707   4.043   8.854  13.712
38925W        W 5708   6.423   5.592   1.960
38926W        W 5709   3.755  11.788   3.091
38927W        W 5710  38.885  16.636  11.067
38928W        W 5711  44.693  14.847  14.844
38929W        W 5712   2.823  19.003  14.449
38930W        W 5713   2.477  23.581   4.547
38931W        W 5714  16.467   0.902   4.500
38932W        W 5715   0.914   4.808  11.613
38933W        W 5716  19.471  42.289   4.729
38934W        W 5717  14.300  39.361  10.276
38935W        W 5718  17.842  33.625   0.892
38936W        W 5719  44.883  28.698   0.356
38937W        W 5720  43.275   1.490   2.414
38938W        W 5721  34.406  31.409   1.280
38939W        W 5722  25.596  19.963  11.555
38940W        W 5723  34.157  12.473  11.157
38941W        W 5724  38.578  36.438   4.153
38942W        W 5725   0.613  15.347   0.377
38943W        W 5726  10.233   4.717   4.621
38944W        W 5727   2.556  22.632  11.549
38945W        W 5728  32.191  37.887  14.958
38946W        W 5729  42.793  25.335   1.623
38947W        W 5730  35.308  13.696   3.689
38948W        W 5731   5.226   4.752  14.049
38949W        W 5732  23.641  28.462   3.304
38950W        W 5733  23.749   1.653   2.260
38951W        W 5734  31.040  10.195   3.395
38952W        W 5735  28.899   1.353   4.406
38953W        W 5736  36.904  27.673  12.899
38954W        W 5737   0.874   2.999   1.270
38955W        W 5738  20.702  29.618   0.802
38956W        W 5739  20.129  37.377   4.619
38957W        W 5740  43.535   5.929  14.882
38958W        W 5741  42.870  24.288   1.365
38959W        W 5742  12.382  41.536  10.715
38960W        W 5743  18.296  37.432   5.006
38961W        W 5744  43.862   3.389  11.875
38962W        W 5745  39.307  20.152   4.694
38963W        W 5746  38.606  35.806  12.338
38964W        W 5747  30.914  44.329  12.963
38965W        W 5748  33.905  15.723   3.206
38966W        W 5749  15.520  40.513  14.935
38967W        W 5750  37.286  33.854   4.540
38968W        W 5751  13.788   0.456   0.824
38969W        W 5752  42.320  18.279  12.204
38970W        W 5753   9.886  13.807   2.178
38971W        W 5754  29.391  25.098  12.854
38972W        W 5755   5.151  13.689  12.581
38973W        W 5756  41.924  41.856   1.169
38974W        W 5757   7.239  13.524  11.160
38975W        W 5758  43.232  25.082  10.766
38976W        W 5759   9.257  11.308   0.727
38977W        W 5760   0.099  21.225   1.314
38978W        W 5761  17.166  23.448  10.392
38979W        W 5762  35.367  37.634  11.156
38980W        W 5763  29.665  40.406   1.415
38981W        W 5764  34.519   8.137   3.634
38982W        W 5765  18.156   1.828  12.527
38983W        W 5766  21.173  41.533  13.326
38984W        W 5767  27.051  30.380  11.674
38985W        W 5768  34.814  22.722  13.368
38986W        W 5769   6.380  32.139   1.233
38987W        W 5770   4.539  41.774  12.784
38988W        W 5771  17.846  38.424  13.389
38989W        W 5772  21.628  10.169   4.702
38990W        W 5773   3.303  44.326   1.639
38991W        W 5774  29.215  16.481  11.713
38992W        W 5775  20.599  39.025  11.238
38993W        W 5776  29.996  41.997  10.844
38994W        W 5777   8.725   5.600  11.194
38995W        W 5778  26.121  16.910   0.808
38996W        W 5779   9.798  28.520  10.539
38997W        W 5780  18.611  16.795  12.641
38998W        W 5781  44.702  18.588  12.138
38999W        W 5782  13.955  38.816  11.622
39000W        W 5783   4.354  18.668  13.892
39001W        W 5784  30.658  10.884  11.131
39002W        W 5785  27.146  34.241   2.969
39003W        W 5786  11.897  15.045   0.217
39004W        W 5787  10.816   5.283   4.071
39005W        W 5788  36.949  26.466   4.646
39006W        W 5789  31.441  37.331   2.506
39007W        W 5790  30.903   0.061  13.512
39008W        W 5791  39.861  28.560  14.714
39009W        W 5792  20.473  26.425  13.611
39010W        W 5793   9.734  34.030  12.806
39011W        W 5794   0.291   4.947   2.876
39012W        W 5795  25.391  27.340   5.636
39013W        W 5796   2.331  25.163   2.398
39014W        W 5797  29.123  43.907  12.834
39015W        W 5798   7.177  10.620  10.684
39016W        W 5799  24.962  13.066  12.004
39017W        W 5800  37.679  33.073  10.447
39018W        W 5801  34.637  35.880   1.382
39019W        W 5802  42.587  41.335  11.634
39020W        W 5803  17.187  40.895   3.373
39021W        W 5804   5.199  32.663   4.113
39022W        W 5805  43.216   5.438  12.001
39023W        W 5806  19.100  24.743   2.396
39024W        W 5807   8.993  23.649   3.071
39025W        W 5808  40.859  13.348  13.787
39026W        W 5809   3.467   4.796  10.834
39027W        W 5810  35.536  10.409  11.938
39028W        W 5811   4.875  12.616  11.021
39029W        W 5812   4.852  36.006  11.465
39030W        W 5813  32.794  31.183   2.946
39031W        W 5814  24.794  30.902   2.306
39032W        W 5815  41.824  43.328  11.154
39033W        W 5816  11.645   0.981  13.790
39034W        W 5817  35.865  26.548   4.656
39035W        W 5818  30.925  34.090  13.888
39036W        W 5819  34.416  15.764   0.029
39037W        W 5820  44.843  35.342  10.424
39038W        W 5821  34.039  40.913   1.872
39039W        W 5822   0.290  37.377   2.209
39040W        W 5823   1.414  38.902  14.990
39041W        W 5824  29.604   9.251  13.100
39042W        W 5825  13.461   5.115   2.843
39043W        W 5826  15.786  20.741  14.989
39044W        W 5827   6.581  22.210   1.353
39045W        W 5828  10.305   6.263   9.853
39046W        W 5829  19.270  27.433  13.851
39047W        W 5830  22.597  39.027  13.396
39048W        W 5831  14.315  25.716   3.249
39049W        W 5832  40.485  33.680  13.982
39050W        W 5833   2.935   4.495   1.408
39051W        W 5834  36.087  43.747  10.637
39052W        W 5835  29.421  25.458   2.584
39053W        W 5836  44.849  21.591  10.672
39054W        W 5837  10.365  30.992   3.139
39055W        W 5838  23.153  36.049   4.243
39056W        W 5839  33.513  31.414  10.639
39057W        W 5840  18.121  24.465   4.364
39058W        W 5841  10.798  15.442  13.953
39059W        W 5842  28.119  13.726   4.055
39060W        W 5843  39.384  13.814   4.089
39061W        W 5844  33.623  32.067  12.123
39062W        W 5845  23.016  36.398   3.216
39063W        W 5846  12.787  44.359   1.374
39064W        W 5847  29.500  44.195   3.705
39065W        W 5848  24.003  39.112   4.584
39066W        W 5849  39.324   8.824  13.797
39067W        W 5850  20.401  29.666   1.851
39068W        W 5851  13.565  18.811  11.873
39069W        W 5852   4.964  44.539  13.073
39070W        W 5853  44.569  17.000  11.657
39071W        W 5854  27.564  29.052   3.136
39072W        W 5855   9.407  17.514  11.219
39073W        W 5856  12.159  35.348   3.776
39074W        W 5857   1.932  23.066   0.898
39075W        W 5858  43.759  25.084   4.528
39076W        W 5859   1.373  37.085   0.323
39077W        W 5860  28.106   6.594  11.682
39078W        W 5861   2.481  21.344  12.076
39079W        W 5862  20.655   9.475  13.989
39080W        W 5863  30.901  44.061   1.510
39081W        W 5864  21.113  38.881   0.441
39082W        W 5865  43.026   2.433  11.032
39083W        W 5866  30.669   3.510   0.436
39084W        W 5867  35.199  41.853   1.407
39085W        W 5868  21.693  19.639  10.753
39086W        W 5869  33.812  19.303  12.561
39087W        W 5870  15.549  32.150   3.327
39088W        W 5871   1.868   9.202  12.004
39089W        W 5872  18.276  28.631  14.339
39090W        W 5873   8.776  23.126   2.227
39091W        W 5874  33.481  30.627   1.811
39092W        W 5875  11.809  10.815   1.355
39093W        W 5876  21.954  21.538   0.645
39094W        W 5877  12.201  43.439   4.713
39095W        W 5878  41.396  26.649  12.055
39096W        W 5879  20.813  28.675   1.250
39097W        W 5880  17.092  23.460  14.591
39098W        W 5881  33.976  15.466  14.994
39099W        W 5882  28.334  25.553   3.597
39100W        W 5883   0.830  24.542   2.865
39101W        W 5884   0.240  42.504   3.671
39102W        W 5885  24.414   7.154  12.795
39103W        W 5886  31.708   3.272   0.889
39104W        W 5887  17.696   9.335   0.103
39105W        W 5888  33.888  25.658  12.352
39106W        W 5889  39.652   7.159  10.244
39107W        W 5890   3.226  32.092   4.837
39108W        W 5891  34.747  29.725  12.902
39109W        W 5892  19.100   5.240   4.830
39110W        W 5893  31.070  36.937  11.004
39111W        W 5894   4.769  15.301   2.766
39112W        W 5895   9.116  12.723   5.038
39113W        W 5896   4.911  22.724   5.011
39114W        W 5897   9.018  35.300  11.652
39115W        W 5898  24.219  19.247  14.533
39116W        W 5899   2.047  19.553   2.375
39117W        W 5900  19.797  11.162   1.717
39118W        W 5901  33.034  44.111   1.890
39119W        W 5902  44.629  43.740   4.091
39120W        W 5903  38.065  10.154  10.230
39121W        W 5904  30.629  43.193   0.761
39122W        W 5905  20.396  36.104  13.413
39123W        W 5906  29.967   6.872   2.259
39124W        W 5907  41.817  27.084   4.898
39125W        W 5908  41.916  29.749  11.613
39126W        W 5909   7.683  35.494  11.161
39127W        W 5910  13.674  43.759   2.274
39128W        W 5911   1.354  38.318  12.665
39129W        W 5912  15.951   0.304  14.556
39130W        W 5913  16.188  10.881  13.558
39131W        W 5914   7.063  17.523  14.960
39132W        W 5915  42.066  35.317   3.894
39133W        W 5916  40.516   8.875   1.285
39134W        W 5917   0.842  33.540   4.654
39135W        W 5918  24.749  40.091   2.623
39136W        W 5919   4.241  29.023  11.834
39137W        W 5920  17.118   0.795   2.693
39138W        W 5921   0.217  14.572   0.523
39139W        W 5922  34.538   8.212  10.704
39140W        W 5923  29.009   2.631  11.459
39141W        W 5924   2.082   8.662  14.224
39142W        W 5925  37.539  26.560  10.184
39143W        W 5926  28.360  44.559  10.531
39144W        W 5927  32.528  36.676   3.830
39145W        W 5928  36.401   5.818  12.845
39146W        W 5929  17.265  19.001  13.918
39147W        W 5930  28.487  41.583   0.490
39148W        W 5931  10.013  31.608  12.058
39149W        W 5932  30.287  44.413  10.464
39150W        W 5933   4.174  12.845   1.943
39151W        W 5934  11.221   4.257   3.839
39152W        W 5935  31.223  16.349  14.006
39153W        W 5936  26.478  25.320  14.418
39154W        W 5937  10.724  36.907   2.215
39155W        W 5938  24.162  19.064  12.747
39156W        W 5939  26.465  40.571  11.682
39157W        W 5940  41.541   5.828  14.823
39158W        W 5941  12.730   8.779   2.214
39159W        W 5942   9.434  10.559   0.328
39160W        W 5943  14.575  25.204  10.299
39161W        W 5944  25.995   6.882  11.638
39162W        W 5945  28.960  25.207   4.544
39163W        W 5946  20.493  31.525  11.669
39164W        W 5947   7.329  18.510   0.041
39165W        W 5948  27.246  43.175  11.327
39166W        W 5949  37.267   9.940   3.700
39167W        W 5950  27.724  28.252   2.995
39168W        W 5951  33.650  27.509  11.086
39169W        W 5952  38.494   1.296   3.405
39170W        W 5953  38.031  33.736  12.456
39171W        W 5954  13.851  23.584   1.395
39172W        W 5955   7.347  22.276   0.782
39173W        W 5956  37.954  43.331   0.181
39174W        W 5957  12.260  21.578  11.106
39175W        W 5958  13.693  40.765   5.052
39176W        W 5959   8.265  34.677   1.215
39177W        W 5960  41.333  39.106   2.719
39178W        W 5961  22.613  17.463  12.418
39179W        W 5962  24.238  21.153   1.360
39180W        W 5963   0.715   0.769   3.037
39181W        W 5964   3.467  23.123   0.893
39182W        W 5965   7.750  25.669  11.135
39183W        W 5966  33.954  36.496   1.487
39184W        W 5967  26.183  37.412   1.294
39185W        W 5968  15.273  23.675  12.639
39186W        W 5969  17.711  25.986  12.447
39187W        W 5970  13.038  12.357  12.845
39188W        W 5971  39.175  19.161  13.961
39189W        W 5972  11.119  17.492   2.657
39190W        W 5973   3.152  39.884  12.827
39191W        W 5974  16.827  13.925  14.116
39192W        W 5975  16.368  22.064  12.763
39193W        W 5976  29.966  27.260  11.709
39194W        W 5977  29.567  12.899  10.594
39195W        W 5978  30.655   1.967   4.365
39196W        W 5979  10.232  44.581  10.251
39197W        W 5980  38.319  11.246  14.408
39198W        W 5981  21.326   8.170   1.113
39199W        W 5982  11.906  15.381   3.661
39200W        W 5983  27.226  28.231   2.805
39201W        W 5984  36.375  14.757   0.899
39202W        W 5985  39.486  24.193  12.121
39203W        W 5986  31.635  20.609   1.944
39204W        W 5987  35.375  15.812  11.915
39205W        W 5988  32.244   3.991   0.765
39206W        W 5989  37.561  43.396  11.033
39207W        W 5990  12.430  42.560   1.187
39208W        W 5991   3.315  21.419  13.968
39209W        W 5992  40.308  36.455  14.499
39210W        W 5993  44.555  26.983   1.885
39211W        W 5994  40.827  31.277   0.903
39212W        W 5995  29.395  28.405  11.654
39213W        W 5996  41.830  11.075   1.255
39214W        W 5997   1.640  30.916  13.953
39215W        W 5998  43.376  24.972  13.304
39216W        W 5999  40.515  11.264  12.768
39217W        W 6000  12.412  33.923   3.766
39218W        W 6001  14.214  40.074  12.019
39219W        W 6002  29.148  40.945  11.036
39220W        W 6003  14.887   5.837  13.574
39221W        W 6004  15.561  31.068   4.674
39222W        W 6005  33.127  28.605  11.716
39223W        W 6006  37.136  43.575   3.179
39224W        W 6007  29.070   9.297   0.488
39225W        W 6008  32.559  33.175  12.658
39226W        W 6009  40.896  31.587  13.245
39227W        W 6010  10.173  40.540   5.209
39228W        W 6011  43.954  41.575   0.837
39229W        W 6012  31.358  10.840   1.344
39230W        W 6013  23.996  31.848  12.452
39231W        W 6014  31.368  43.152   4.190
39232W        W 6015  25.963  34.098   4.670
39233W        W 6016  41.226  29.082   0.684
39234W        W 6017   5.002  41.454   4.565
39235W        W 6018   4.479  31.456   1.428
39236W        W 6019  12.741   6.104   2.214
39237W        W 6020  21.470  22.441   2.144
39238W        W 6021   4.022  29.812  15.000
39239W        W 6022   8.125   6.245   2.732
39240W        W 6023  33.512  23.666   3.662
39241W        W 6024  34.147   8.265   2.706
39242W        W 6025  41.245  19.556  14.409
39243W        W 6026  21.000  22.060  11.022
39244W        W 6027  39.284   5.484   3.705
39245W        W 6028  19.693  31.854  10.643
39246W        W 6029  11.743  36.242   3.810
39247W        W 6030  43.375  36.852   4.151
39248W        W 6031   5.719  33.904   2.321
39249W        W 6032  30.979   5.782   0.796
39250W        W 6033  43.527  38.104  11.423
39251W        W 6034  34.352   2.814   3.159
39252W        W 6035   9.715   2.278   4.634
39253W        W 6036  36.117  41.106  12.050
39254W        W 6037  12.819  27.529  13.382
39255W        W 6038  39.531  20.543   0.442
39256W        W 6039  32.891   9.207   0.949
39257W        W 6040   9.632  34.577   1.212
39258W        W 6041  38.125   3.602   4.458
39259W        W 6042  40.995  19.254   0.892
39260W        W 6043   3.721  22.222   1.513
39261W        W 6044   4.802  40.475   2.190
39262W        W 6045  44.396  42.489  11.711
39263W        W 6046  25.075   4.468   0.365
39264W        W 6047  41.057  40.486   2.811
39265W        W 6048  14.147  30.713   2.427
39266W        W 6049   8.408  41.106  10.742
39267W        W 6050  24.086  13.829  14.276
39268W        W 6051  10.337  27.957   2.889
39269W        W 6052   8.947   3.231  10.813
39270W        W 6053   3.820  12.878   1.013
39271W        W 6054  17.295  38.199  14.282
39272W        W 6055  17.330  35.307   1.225
39273W        W 6056  18.061  12.919  12.552
39274W        W 6057  37.859  36.506   4.731
39275W        W 6058   0.170  32.128   2.134
39276W        W 6059  25.992  13.859  11.535
39277W        W 6060  21.704  27.537  13.843
39278W        W 6061   2.931  15.522  10.468
39279W        W 6062  17.026   9.864  12.200
39280W        W 6063  15.127  17.650  14.574
39281W        W 6064  20.281  41.325  13.482
39282W        W 6065  15.821  14.407   2.294
39283W        W 6066  22.925  11.368  12.127
39284W        W 6067  42.047  22.065  14.939
39285W        W 6068   1.501  28.346   2.367
39286W        W 6069   3.201   7.283   3.731
39287W        W 6070  37.400  36.575  11.617
39288W        W 6071  20.656  36.219  11.172
39289W        W 6072  26.719  37.095  14.104
39290W        W 6073  21.681  22.173  11.740
39291W        W 6074  25.924  31.193   4.134
39292W        W 6075   2.782  36.534   2.016
39293W        W 6076  17.566  17.528   0.248
39294W        W 6077  37.356  31.676  13.503
39295W        W 6078  44.882  15.352   4.189
39296W        W 6079  37.401  15.098   2.855
39297W        W 6080  10.592  36.962   0.799
39298W        W 6081  17.550  42.054  14.322
39299W        W 6082  17.239  14.346   2.370
39300W        W 6083  24.090   3.686   2.359
39301W        W 6084  44.687  20.432   4.760
39302W        W 6085   3.297   5.403  11.461
39303W        W 6086  36.646  44.302   4.460
39304W        W 6087  21.405  25.082   4.576
39305W        W 6088  20.970   0.878  10.303
39306W        W 6089  38.147  41.268  12.925
39307W        W 6090  42.575  37.783   4.268
39308W        W 6091  40.443  29.388   0.435
39309W        W 6092   5.693   4.321   2.452
39310W        W 6093  11.114  16.396  10.560
39311W        W 6094  25.083  15.951   4.368
39312W        W 6095  20.549  31.076   3.603
39313W        W 6096  36.528  37.880   2.649
39314W        W 6097  11.147   1.963   3.252
39315W        W 6098  24.829  39.412  12.421
39316W        W 6099   3.510   3.007   0.970
39317W        W 6100  37.428  31.850  11.239
39318W        W 6101  31.137  29.954  14.769
39319W        W 6102  34.984  31.985  13.308
39320W        W 6103   6.273  14.085  10.720
39321W        W 6104   5.872  42.347   4.142
39322W        W 6105  44.358  43.207  14.326
39323W        W 6106   6.199  26.958   3.719
39324W        W 6107  40.450  17.504   3.244
39325W        W 6108  18.139  12.020  10.253
39326W        W 6109  36.052  34.080   0.751
39327W        W 6110  27.614  19.163  13.969
39328W        W 6111   7.433  14.366   3.374
39329W        W 6112   0.997  30.605  11.764
39330W        W 6113  44.000  39.865   2.955
39331W        W 6114   0.684  44.155   0.591
39332W        W 6115  26.399  12.735   3.185
39333W        W 6116  41.559  39.259   2.240
39334W        W 6117  19.131  42.020  12.107
39335W        W 6118   5.727  10.859   4.542
39336W        W 6119  11.805  40.422  12.000
39337W        W 6120  26.615  25.062   2.462
39338W        W 6121   3.891  33.769   2.992
39339W        W 6122  25.178  30.490  13.510
39340W        W 6123  38.151  27.813   4.059
39341W        W 6124  43.731  35.843   0.622
39342W        W 6125  15.453  17.742   2.111
39343W        W 6126  20.612  44.413  15.000
39344W        W 6127  12.395  26.859  14.874
39345W        W 6128   4.460   5.888   0.137
39346W        W 6129  30.379  38.587  11.746
39347W        W 6130  38.035  15.670   3.287
39348W        W 6131   8.130  13.715  10.866
39349W        W 6132  27.892   4.882  13.320
39350W        W 6133  24.080  35.450   2.689
39351W        W 6134  26.793   3.443   1.844
39352W        W 6135  17.369  33.398   0.787
39353W        W 6136  43.417  17.098  13.918
39354W        W 6137   5.360  21.873  14.840
39355W        W 6138  25.218  22.383   4.703
39356W        W 6139   1.460  29.357   4.100
39357W        W 6140  43.329   4.051  12.278
39358W        W 6141  19.074  19.633   3.844
39359W        W 6142   2.925  42.509   2.871
39360W        W 6143  39.322  14.915  11.134
39361W        W 6144  40.366   4.188   4.262
39362W        W 6145  17.623  39.240   3.593
39363W        W 6146  39.009   5.457   0.966
39364W        W 6147  39.588   1.702  14.860
39365W        W 6148   5.171  18.078  12.950
39366W        W 6149  17.496  29.454   4.252
39367W        W 6150  28.194  23.347   3.162
39368W        W 6151   8.649  19.595   1.212
39369W        W 6152  13.635  38.013   2.875
39370W        W 6153  19.057  29.034   2.764
39371W        W 6154  30.859  38.394  13.285
39372W        W 6155   9.349  10.311   2.234
39373W        W 6156   4.474  33.360  14.915
39374W        W 6157  11.678  31.222   2.701
39375W        W 6158  25.088  39.894  11.706
39376W        W 6159   3.818  33.469  11.652
39377W        W 6160  44.296  18.469  14.080
39378W        W 6161  39.002  41.364  13.162
39379W        W 6162  19.210  22.819   1.425
39380W        W 6163  35.853  33.342   2.406
39381W        W 6164  24.998  17.234   2.272
39382W        W 6165  40.068  44.913  10.634
39383W        W 6166   0.571  18.683  12.398
39384W        W 6167   3.171   2.734   1.241
39385W        W 6168  16.665  11.364  13.955
39386W        W 6169  26.021  35.729   1.816
39387W        W 6170  28.966  42.634   0.915
39388W        W 6171  37.084  10.892   4.729
39389W        W 6172  17.955   6.879   2.755
39390W        W 6173   7.764  42.388  12.011
39391W        W 6174  42.996  17.011  10.064
39392W        W 6175  42.051  41.055   3.276
39393W        W 6176  16.728  24.556   4.133
39394W        W 6177  12.080  20.314   1.323
39395W        W 6178  19.182  23.326   1.350
39396W        W 6179  40.483  28.860  13.764
39397W        W 6180  38.428  18.556  11.381
39398W        W 6181  38.058  42.230  14.283
39399W        W 6182  33.988   4.180  10.416
39400W        W 6183  37.429  15.682  11.563
39401W        W 6184  15.392   3.285   4.687
39402W        W 6185  13.125   1.660   4.124
39403W        W 6186  18.251   8.763  13.951
39404W        W 6187  39.035  32.809  11.499
39405W        W 6188   9.934  19.145   0.233
39406W        W 6189  22.240  40.568  12.593
39407W        W 6190  44.096  13.229   4.919
39408W        W 6191  34.396  30.054   2.455
39409W        W 6192  31.535  17.776   0.389
39410W        W 6193  29.698   4.770   2.298
39411W        W 6194  14.281   1.726  12.327
39412W        W 6195  36.074  14.718   4.511
39413W        W 6196  21.655  28.007   9.969
39414W        W 6197   5.318  14.552  13.086
39415W        W 6198  38.417  33.890   1.986
39416W        W 6199  34.934  33.039   1.816
39417W        W 6200  22.059  34.146  12.563
39418W        W 6201  25.009   8.790  14.796
39419W        W 6202  33.829  28.606   3.107
39420W        W 6203  20.644  30.006   1.537
39421W        W 6204  39.109  25.669  13.803
39422W        W 6205   2.309  43.520   0.587
39423W        W 6206   4.238   8.906  11.454
39424W        W 6207  34.351  41.098  10.656
39425W        W 6208  29.669  44.908  14.037
39426W        W 6209   0.629   9.644  11.905
39427W        W 6210  37.539  27.042  14.427
39428W        W 6211   4.778   0.312   1.377
39429W        W 6212  29.487  34.634   3.707
39430W        W 6213  25.412  16.333   3.647
39431W        W 6214  13.720  25.163   0.545
39432W        W 6215  18.157   1.945   0.303
39433W        W 6216  44.986  14.913   3.195
39434W        W 6217  29.211  22.818  11.227
39435W        W 6218  27.184  11.073  12.012
39436W        W 6219  41.831  38.002  10.735
39437W        W 6220   4.190  19.708   2.268
39438W        W 6221  32.656  42.487  12.266
39439W        W 6222  15.649  17.696  11.093
39440W        W 6223  41.852  34.669  13.998
39441W        W 6224  24.197  13.309  11.599
39442W        W 6225  14.110  40.820  12.418
39443W        W 6226  18.186   1.796   2.821
39444W        W 6227  24.621  34.460   0.309
39445W        W 6228  18.773  21.997  14.897
39446W        W 6229  22.685  24.991  13.909
39447W        W 6230   3.969   1.761  14.368
39448W        W 6231   8.330   3.288   0.912
39449W        W 6232   1.392  14.195   3.033
39450W        W 6233  30.179  16.500   0.293
39451W        W 6234  23.554   7.291   4.661
39452W        W 6235  36.042   5.834  13.528
39453W        W 6236  23.720   9.928   2.886
39454W        W 6237   1.780   2.000   3.618
39455W        W 6238   5.273  25.202  11.208
39456W        W 6239  26.916  28.441   5.391
39457W        W 6240   3.919  38.388   1.616
39458W        W 6241  36.422  10.289   2.685
39459W        W 6242   5.588  22.715  11.688
39460W        W 6243  32.489  11.508  11.343
39461W        W 6244   7.159  20.536  10.749
39462W        W 6245  20.353  38.263  11.000
39463W        W 6246  20.103   1.185  12.388
39464W        W 6247  10.206  13.914  11.649
39465W        W 6248  27.925  25.145  12.586
39466W        W 6249  31.362  28.397   1.402
39467W        W 6250  11.356  16.886   0.948
39468W        W 6251  32.821  35.308   4.446
39469W        W 6252  22.692  34.549  10.601
39470W        W 6253  19.157  28.628   0.238
39471W        W 6254  22.894   7.577  14.566
39472W        W 6255  44.778  13.550   1.200
39473W        W 6256  23.289   3.673  13.730
39474W        W 6257  41.843  30.176  10.742
39475W        W 6258  16.660   5.684  10.837
39476W        W 6259  40.153  37.407   4.089
39477W        W 6260  39.556   4.401  13.900
39478W        W 6261  40.984   2.996   1.215
39479W        W 6262  10.242  32.330   0.841
39480W        W 6263  15.347  10.211   1.796
39481W        W 6264  32.223  26.898   1.138
39482W        W 6265   3.661  34.342  11.603
39483W        W 6266  36.600  11.662  14.776
39484W        W 6267  42.355  37.926  10.939
39485W        W 6268  41.531  22.056   4.539
39486W        W 6269  35.516  37.829   1.681
39487W        W 6270  37.447  29.066   3.344
39488W        W 6271   7.237   2.377  13.565
39489W        W 6272  40.178  36.252  13.968
39490W        W 6273  44.213  19.578   2.702
39491W        W 6274  10.904   3.469  12.016
39492W        W 6275  12.858  26.197  14.843
39493W        W 6276  33.902  31.704   5.005
39494W        W 6277  40.603  23.515   2.723
39495W        W 6278  41.845  30.614  14.052
39496W        W 6279  35.508  17.091   1.701
39497W        W 6280  37.641   9.154  13.803
39498W        W 6281  25.562  11.813  12.102
39499W        W 6282  15.217  41.955  14.332
39500W        W 6283   3.205  13.254   3.631
39501W        W 6284  38.188   3.423  10.419
39502W        W 6285   3.489  27.304   1.425
39503W        W 6286  26.506  11.544   2.426
39504W        W 6287  41.381  31.468  14.929
39505W        W 6288  18.117  36.331   1.352
39506W        W 6289   9.371  22.686  13.006
39507W        W 6290  33.200  43.561   4.578
39508W        W 6291  16.682   4.582   0.991
39509W        W 6292  38.640   7.204  14.431
39510W        W 6293  37.083  31.478   2.543
39511W        W 6294   7.152  41.824  14.138
39512W        W 6295  39.319  27.570  13.390
39513W        W 6296   5.860  32.848   0.273
39514W        W 6297  41.817  27.048   2.325
39515W        W 6298  31.353  31.435   0.302
39516W        W 6299  36.515  37.949   0.762
39517W        W 6300  38.011   0.674   0.754
39518W        W 6301   8.500  25.348   4.214
39519W        W 6302  44.228  30.713   4.202
39520W        W 6303  12.232  11.348  11.824
39521W        W 6304   2.235  25.531   0.192
39522W        W 6305   7.314  12.756  11.581
39523W        W 6306  42.569   0.355  13.516
39524W        W 6307   6.402  13.577  14.303
39525W        W 6308   3.387  43.921  10.875
39526W        W 6309   9.369  13.865  12.020
39527W        W 6310  33.307  39.856  11.962
39528W        W 6311  17.526  21.843  11.992
39529W        W 6312  44.031  33.960  14.510
39530W        W 6313  39.573   5.932   3.638
39531W        W 6314   4.949  32.111  13.313
39532W        W 6315  39.291  40.039  10.498
39533W        W 6316  29.039  27.502  11.882
39534W        W 6317  34.106  35.376   4.076
39535W        W 6318   5.903  23.731   2.939
39536W        W 6319   4.548   8.628  13.774
39537W        W 6320  15.182  26.303  10.673
39538W        W 6321  31.482   3.658   1.188
39539W        W 6322  11.759  11.337   0.947
39540W        W 6323  11.834   0.465   1.232
39541W        W 6324  18.152  23.904   3.903
39542W        W 6325  40.084  23.044   2.316
39543W        W 6326  20.044  24.673   0.307
39544W        W 6327  10.347  28.403  11.987
39545W        W 6328  13.561   1.875   3.235
39546W        W 6329  39.081  16.957  14.245
39547W        W 6330  21.660  41.835  11.664
39548W        W 6331  21.693   6.201  10.160
39549W        W 6332  42.478  35.495  12.604
39550W        W 6333  22.827  35.329  10.339
39551W        W 6334  28.583   8.603   3.552
39552W        W 6335   0.272  25.014   0.287
39553W        W 6336  38.812   1.981   0.224
39554W        W 6337   6.532  39.972  12.829
39555W        W 6338  44.416  41.108  11.400
39556W        W 6339  18.287  43.558   3.770
39557W        W 6340   7.382  28.644   1.842
39558W        W 6341  25.480   9.359  11.628
39559W        W 6342   4.054  28.504   4.164
39560W        W 6343  21.636  31.408   2.893
39561W        W 6344  24.179  24.009   2.809
39562W        W 6345  25.888  24.396  12.332
39563W        W 6346  42.555   4.544  12.614
39564W        W 6347  16.951  41.088  13.090
39565W        W 6348  17.146   4.757  14.287
39566W        W 6349  29.072   1.970  10.696
39567W        W 6350  41.246  40.839   3.653
39568W        W 6351  19.457   1.448   2.758
39569W        W 6352   8.138  15.121  14.034
39570W        W 6353  18.129  34.920  10.377
39571W        W 6354  17.056  14.090   0.527
39572W        W 6355  23.639  25.699  13.520
39573W        W 6356  24.990  12.895   3.562
39574W        W 6357  38.063   4.745  10.810
39575W        W 6358  20.198  25.591  10.703
39576W        W 6359   4.444  17.015   4.103
39577W        W 6360  23.088   9.373  14.003
39578W        W 6361  41.990  42.254  10.736
39579W        W 6362  43.678  30.860  14.291
39580W        W 6363  33.485   7.571   2.378
39581W        W 6364  41.763  33.710  11.465
39582W        W 6365  17.733  41.924  11.561
39583W        W 6366  31.017  27.937  10.510
39584W        W 6367  29.603   3.559  10.380
39585W        W 6368   5.936   6.590  13.014
39586W        W 6369   7.769  13.229   3.771
39587W        W 6370  14.238  39.435  12.570
39588W        W 6371  31.072  10.682  13.352
39589W        W 6372  33.144  24.224  12.083
39590W        W 6373  21.109  13.260  13.858
39591W        W 6374   9.088  27.052   4.855
39592W        W 6375  10.215  12.239  13.554
39593W        W 6376   9.515  39.840  11.888
39594W        W 6377  18.697  38.723   1.690
39595W        W 6378  22.517  22.225  10.470
39596W        W 6379  27.574  26.023  14.496
39597W        W 6380   7.798   4.524   1.276
39598W        W 6381  18.019  44.859  11.914
39599W        W 6382  19.332   2.347   2.650
39600W        W 6383  25.488  25.992  13.890
39601W        W 6384   2.504   4.377   0.362
39602W        W 6385   8.855  27.901  12.424
39603W        W 6386   8.249  38.542  11.768
39604W        W 6387   6.847   6.640  12.897
39605W        W 6388  10.742  29.685  11.103
39606W        W 6389   0.459  33.021  10.628
39607W        W 6390  14.280  31.015  13.072
39608W        W 6391   9.306   4.352  12.067
39609W        W 6392  26.541  42.225   2.105
39610W        W 6393  12.842  17.523   0.224
39611W        W 6394  21.809  44.719  11.552
39612W        W 6395   5.348  39.954  13.649
39613W        W 6396   9.766  37.014  13.064
39614W        W 6397  14.504   1.786   2.112
39615W        W 6398  31.958  36.573   0.331
39616W        W 6399  44.593  13.556   1.680
39617W        W 6400  31.305  34.948  14.069
39618W        W 6401  34.138  37.994   4.425
39619W        W 6402  27.680  26.276   5.109
39620W        W 6403   0.468  25.307  11.844
39621W        W 6404  20.595  42.743  14.455
39622W        W 6405  27.146  26.176   0.697
39623W        W 6406   8.235  43.331   3.686
39624W        W 6407   3.356  28.290  14.359
39625W        W 6408   1.291   5.204  10.651
39626W        W 6409  40.043  12.653  12.860
39627W        W 6410  11.556  18.789  12.144
39628W        W 6411  41.662   5.649   1.696
39629W        W 6412  13.634  43.912   3.753
39630W        W 6413   0.866  13.594  14.992
39631W        W 6414  40.307   8.180  14.445
39632W        W 6415  18.198  42.557  11.272
39633W        W 6416  31.429  15.067  10.732
39634W        W 6417  26.634  30.740   3.408
39635W        W 6418  14.714  13.698  10.376
39636W        W 6419  25.409   4.655  14.187
39637W        W 6420  31.889  13.817  11.117
39638W        W 6421  14.791   1.996  13.006
39639W        W 6422  33.494   4.290  10.238
39640W        W 6423  39.571  31.766  13.613
39641W        W 6424  21.268   4.434   2.406
39642W        W 6425   5.330  24.544   0.469
39643W        W 6426  10.885  41.410  12.040
39644W        W 6427  26.490  18.142   2.614
39645W        W 6428   6.161   2.629   2.162
39646W        W 6429  19.738  29.104   3.106
39647W        W 6430  17.159   4.033  11.148
39648W        W 6431  25.910  13.480  12.504
39649W        W 6432  38.973  16.982   5.013
39650W        W 6433  29.463  35.113   0.967
39651W        W 6434  28.278  16.562  11.850
39652W        W 6435  20.782  34.044  12.126
39653W        W 6436  42.589  41.689  13.351
39654W        W 6437  44.884  16.697  13.734
39655W        W 6438  41.473  10.310  12.465
39656W        W 6439  19.094  44.462   4.117
39657W        W 6440   1.525  31.062   3.706
39658W        W 6441  15.731  26.171  10.728
39659W        W 6442  24.083  23.743  11.608
39660W        W 6443  30.590  22.751  12.517
39661W        W 6444  44.836  35.092  12.501
39662W        W 6445  16.868  10.123   4.134
39663W        W 6446  42.207  17.217   2.328
39664W        W 6447  28.719  24.772   4.561
39665W        W 6448  31.337  39.026  12.874
39666W        W 6449  25.028  27.104   4.981
39667W        W 6450  12.728  31.150  12.179
39668W        W 6451  30.251  29.298  12.647
39669W        W 6452  33.334  16.031  12.454
39670W        W 6453  40.369   3.937  11.080
39671W        W 6454  30.915  35.557  14.550
39672W        W 6455  40.081   9.340  14.853
39673W        W 6456  28.538  27.601  12.038
39674W        W 6457  23.520  32.015  12.533
39675W        W 6458  25.201  28.010   1.472
39676W        W 6459  32.931  29.195  12.953
39677W        W 6460  31.613  16.808  13.281
39678W        W 6461  36.970   9.280  14.883
39679W        W 6462  44.859  24.450   1.262
39680W        W 6463  13.961  16.512  13.385
39681W        W 6464  24.987  24.630   0.760
39682W        W 6465   9.159  24.846  10.735
39683W        W 6466   9.791  12.295  13.858
39684W        W 6467  22.368  33.591   4.689
39685W        W 6468  35.090  44.074  14.909
39686W        W 6469  18.039  23.214   1.766
39687W        W 6470  33.521  41.651  13.815
39688W        W 6471  13.131  42.861   2.184
39689W        W 6472  24.876   6.478  14.928
39690W        W 6473  41.363  36.961   0.827
39691W        W 6474   6.851  24.088   1.195
39692W        W 6475  11.679  20.051  12.491
39693W        W 6476  16.757  28.188   2.183
39694W        W 6477  34.393   6.320   0.044
39695W        W 6478  33.853  23.433   4.046
39696W        W 6479  15.701   9.422   4.112
39697W        W 6480  15.526   4.689  14.306
39698W        W 6481   3.648   2.588  12.064
39699W        W 6482  44.248  37.097   3.159
39700W        W 6483  43.074   0.223   2.571
39701W        W 6484  39.642  35.350   1.295
39702W        W 6485  30.650  39.975   0.065
39703W        W 6486  27.245   6.720   1.164
39704W        W 6487  40.880  35.769  12.038
39705W        W 6488   9.294  31.644  13.811
39706W        W 6489   1.844   3.533  12.571
39707W        W 6490  30.268  20.112  12.914
39708W        W 6491  25.486  40.935   0.819
39709W        W 6492  13.385  29.396   1.199
39710W        W 6493  29.910  10.235   2.793
39711W        W 6494  23.776  18.406   2.330
39712W        W 6495  30.013  36.524  13.815
39713W        W 6496  32.171  24.690  14.504
39714W        W 6497   0.518   6.870  13.171
39715W        W 6498  40.523  42.712  14.449
39716W        W 6499  12.322  38.304   2.776
39717W        W 6500  20.444  11.395   0.766
39718W        W 6501  26.926  25.226  11.981
39719W        W 6502  15.845   9.569   3.646
39720W        W 6503  37.355  24.639   4.527
39721W        W 6504  18.120   8.183   2.293
39722W        W 6505  12.755  22.053   4.166
39723W        W 6506  21.498  14.281   0.531
39724W        W 6507  27.563  39.628   1.800
39725W        W 6508   3.011  40.797  10.734
39726W        W 6509  36.588  19.272  11.535
39727W        W 6510  28.493  27.044   1.858
39728W        W 6511  24.744  16.011   0.369
39729W        W 6512  33.923  28.168   1.274
39730W        W 6513  27.123  38.119   0.510
39731W        W 6514   1.002  28.474   2.265
39732W        W 6515  44.290  43.021   3.766
39733W        W 6516   2.434  13.749  14.852
39734W        W 6517   1.848  43.066  13.318
39735W        W 6518  44.815  27.611   4.910
39736W        W 6519  27.910  43.084  14.420
39737W        W 6520   4.918   8.698   3.707
39738W        W 6521  42.379   5.679  10.357
39739W        W 6522  30.776  37.347  14.904
39740W        W 6523  24.521  17.466   0.059
39741W        W 6524  41.524  12.823  10.722
39742W        W 6525  13.372  31.437   2.623
39743W        W 6526  43.058  14.290  14.770
39744W        W 6527  19.647  16.366  11.332
39745W        W 6528  26.115   7.162   3.312
39746W        W 6529  16.326  20.634   0.025
39747W        W 6530  30.091  34.536  14.720
39748W        W 6531  25.166   3.561   4.612
39749W        W 6532  44.431  11.622   0.296
39750W        W 6533  39.466   6.173  14.785
39751W        W 6534  38.698   3.288   2.897
39752W        W 6535  39.865  28.759   0.715
39753W        W 6536  11.113  32.587  13.050
39754W        W 6537  33.909  18.905   2.235
39755W        W 6538  28.098  35.094  12.402
39756W        W 6539   1.416  11.618   2.342
39757W        W 6540  17.474  25.354   3.612
39758W        W 6541  31.117  35.545   1.824
39759W        W 6542  30.381  29.163   3.177
39760W        W 6543  20.893  36.079  13.262
39761W        W 6544  21.317   7.902   2.402
39762W        W 6545  14.375  36.129   4.618
39763W        W 6546  28.514  34.175  11.088
39764W        W 6547  17.132  26.606   1.766
39765W        W 6548  25.610  30.541   0.869
39766W        W 6549  25.983   1.155   3.219
39767W        W 6550  36.611  23.607  14.809
39768W        W 6551  43.481  13.206   9.927
39769W        W 6552   0.378  36.309   2.176
39770W        W 6553  25.146   9.291  12.373
39771W        W 6554  24.694   6.744   3.230
39772W        W 6555  25.980   6.931  12.579
39773W        W 6556  17.261  37.652  11.028
39774W        W 6557  13.385  10.907   2.897
39775W        W 6558   6.359   7.294   5.154
39776W        W 6559  43.867  26.414   2.354
39777W        W 6560   1.446  24.160  13.393
39778W        W 6561   0.245  34.786   4.302
39779W        W 6562   2.765  13.223   0.128
39780W        W 6563  17.327  19.524  12.046
39781W        W 6564  17.697  42.944  12.051
39782W        W 6565  43.246   2.034   1.389
39783W        W 6566   3.393   8.209   4.712
39784W        W 6567  30.238  42.973  14.322
39785W        W 6568   2.394  21.883   4.641
39786W        W 6569  41.260  22.181   3.589
39787W        W 6570   2.888  15.843   2.320
39788W        W 6571  39.594   2.801  11.025
39789W        W 6572   9.374  32.063  11.645
39790W        W 6573   5.085  37.385   3.548
39791W        W 6574   4.230   5.650   3.688
39792W        W 6575  27.985  39.099  14.474
39793W        W 6576  13.083  32.626  14.062
39794W        W 6577  20.775  15.806   4.133
39795W        W 6578  33.665  39.890  13.834
39796W        W 6579   0.559  33.594  13.978
39797W        W 6580   6.870  23.153  11.191
39798W        W 6581  20.452  15.205   0.428
39799W        W 6582  26.188   8.263  12.212
39800W        W 6583   9.769  16.216  14.992
39801W        W 6584  39.077  44.378   1.783
39802W        W 6585   5.144  24.756  12.382
39803W        W 6586   0.738  35.063  12.508
39804W        W 6587  28.678  15.252  11.962
39805W        W 6588  29.757   9.586  11.531
39806W        W 6589  26.712   9.591  14.216
39807W        W 6590  36.830  17.778   3.234
39808W        W 6591  10.758  42.739  12.068
39809W        W 6592  22.043  39.779   2.145
39810W        W 6593  33.561   3.261  13.054
39811W        W 6594  31.046  36.679   0.924
39812W        W 6595  18.122  26.636  13.351
39813W        W 6596  28.691  29.499   0.823
39814W        W 6597  39.080  28.356  10.948
39815W        W 6598  36.297  41.233  14.963
39816W        W 6599  18.260   2.723   0.895
39817W        W 6600   7.251  37.000   2.641
39818W        W 6601  32.428  11.282   3.386
39819W        W 6602  22.334   9.176  13.293
39820W        W 6603  17.587  26.575  12.039
39821W        W 6604   0.950  24.769  12.177
39822W        W 6605   1.287   1.201  11.985
39823W        W 6606   7.713  21.013  10.733
39824W        W 6607  12.298  32.398   4.773
39825W        W 6608  20.434  29.211  11.204
39826W        W 6609   9.143  17.123  10.499
39827W        W 6610   3.869   4.306   1.182
39828W        W 6611   0.089  15.614   5.072
39829W        W 6612  19.664   9.663  13.073
39830W        W 6613  21.561  29.656   0.666
39831W        W 6614   6.481  11.360  13.851
39832W        W 6615  31.482   7.020  11.419
39833W        W 6616  39.110  12.149   3.447
39834W        W 6617  43.410  12.211  13.094
39835W        W 6618   1.974  43.963   3.308
39836W        W 6619  10.245  42.190   9.900
39837W        W 6620  30.170  33.264  12.477
39838W        W 6621  33.908  18.903  10.674
39839W        W 6622   5.993  25.742   0.475
39840W        W 6623   3.191  34.336   1.076
39841W        W 6624  43.579  33.950  11.032
39842W        W 6625  36.833  43.734   0.346
39843W        W 6626  26.464  40.514  14.998
39844W        W 6627   4.890  34.885   1.546
39845W        W 6628  13.756  26.899  11.677
39846W        W 6629   7.466  18.292   2.708
39847W        W 6630   3.625  24.841  11.690
39848W        W 6631   2.894  22.671   4.237
39849W        W 6632   8.870  14.582  10.455
39850W        W 6633  25.893   6.165  14.323
39851W        W 6634  21.193  40.398  13.732
39852W        W 6635  35.897  31.369  14.193
39853W        W 6636  30.875   2.159  11.065
39854W        W 6637  38.357  29.356   1.798
39855W        W 6638   4.159   8.561   4.231
39856W        W 6639   8.328  24.987  13.525
39857W        W 6640  30.629  39.032  12.634
39858W        W 6641  36.119  31.506   2.709
39859W        W 6642   2.338   9.217  14.779
39860W        W 6643  25.402  29.447  14.369
39861W        W 6644   9.610  15.608   4.044
39862W        W 6645  37.865  44.204  14.331
39863W        W 6646  21.735   8.226   0.788
39864W        W 6647  26.000  12.134   4.717
39865W        W 6648  11.758   2.167  12.527
39866W        W 6649   2.760  20.094   4.163
39867W        W 6650   0.904  43.019   4.176
39868W        W 6651  44.862   5.141   4.090
39869W        W 6652  17.028  12.240   2.766
39870W        W 6653  12.658   4.733  10.641
39871W        W 6654  44.223  20.250  12.037
39872W        W 6655  35.855   0.475  10.666
39873W        W 6656  42.255  15.424  11.984
39874W        W 6657  41.463  41.507  12.014
39875W        W 6658   1.047   6.756   1.292
39876W        W 6659   7.740  22.288   3.956
39877W        W 6660   2.244  31.872  13.003
39878W        W 6661  25.151  41.548   2.661
39879W        W 6662  39.409   7.653  13.125
39880W        W 6663  32.564  10.709  11.964
39881W        W 6664  14.710   0.997   4.009
39882W        W 6665  15.359  42.293   3.340
39883W        W 6666  34.629  32.332   1.261
39884W        W 6667  36.137  17.108   4.119
39885W        W 6668  10.165  15.633   1.828
39886W        W 6669  24.464  29.569   1.323
39887W        W 6670  18.098  19.716   2.778
39888W        W 6671  23.967   3.283   1.262
39889W        W 6672  29.003  16.494   0.496
39890W        W 6673  44.661  25.553  14.430
39891W        W 6674   7.142   2.693  12.617
39892W        W 6675  23.472  16.222  10.766
39893W        W 6676   8.504  14.262   0.867
39894W        W 6677   0.755  10.443   2.390
39895W        W 6678  29.399  38.321  11.044
39896W        W 6679   6.478   8.629  14.817
39897W        W 6680  43.039  17.670   2.431
39898W        W 6681  11.585  42.819   9.927
39899W        W 6682   0.544  43.052  13.481
39900W        W 6683  29.113  31.442  14.881
39901W        W 6684  18.051  44.301  14.870
39902W        W 6685  23.767  36.323   2.847
39903W        W 6686  38.177   5.456   3.645
39904W        W 6687  14.230  40.017   0.222
39905W        W 6688  31.488  10.114   0.871
39906W        W 6689  33.048  29.678  12.817
39907W        W 6690  16.574  32.258  10.631
39908W        W 6691   1.362  22.108  11.980
39909W        W 6692  30.918  41.570  14.287
39910W        W 6693  25.272  16.513   4.603
39911W        W 6694  43.310   6.764  14.956
39912W        W 6695  28.197  26.747   3.143
39913W        W 6696  27.600  18.177  11.157
39914W        W 6697  14.677  15.880   1.275
39915W        W 6698  43.841  24.016   0.694
39916W        W 6699  14.009  18.301   3.267
39917W        W 6700  15.220  12.500   4.793
39918W        W 6701  22.746   4.278  12.004
39919W        W 6702   2.626  44.002  11.991
39920W        W 6703  28.264  25.132   1.434
39921W        W 6704  26.550   9.006   2.194
39922W        W 6705  42.994  12.026   1.322
39923W        W 6706   1.407  18.365   1.799
39924W        W 6707  17.864  22.582   2.364
39925W        W 6708  30.961   7.707  14.779
39926W        W 6709  41.385  28.129  12.047
39927W        W 6710  10.835  11.160  12.761
39928W        W 6711  12.781  39.645  10.492
39929W        W 6712  15.679   7.661  10.323
39930W        W 6713   9.670   6.911  10.676
39931W        W 6714  38.805  11.264   1.299
39932W        W 6715  28.428   0.638   4.158
39933W        W 6716   6.251   6.242  11.207
39934W        W 6717   9.637  38.607   1.885
39935W        W 6718  28.587   6.339  12.565
39936W        W 6719  34.352  38.811   0.949
39937W        W 6720   0.233  30.950  11.512
39938W        W 6721  43.989  17.125   4.132
39939W        W 6722  17.103   5.659   9.918
39940W        W 6723  21.639  38.219   3.311
39941W        W 6724  29.961   1.021  14.586
39942W        W 6725  14.823   8.897  14.715
39943W        W 6726   8.726  10.353   2.117
39944W        W 6727  37.068  28.113   2.221
39945W        W 6728  14.650  22.859  11.188
39946W        W 6729  35.026   4.619  13.263
39947W        W 6730  24.081  23.557   1.117
39948W        W 6731  27.436  34.128   1.312
39949W        W 6732  27.112  19.787   2.611
39950W        W 6733  40.821   8.398  11.996
39951W        W 6734   0.301  34.635   3.791
39952W        W 6735  43.534  10.586   4.600
39953W        W 6736  30.062  44.504  12.549
39954W        W 6737  36.401  38.437   3.234
39955W        W 6738  34.986   1.310   1.936
39956W        W 6739  17.003   0.282   2.647
39957W        W 6740  33.533  35.433  11.049
39958W        W 6741   8.200  40.088  14.058
39959W        W 6742  18.494  32.383  11.550
39960W        W 6743  33.586  24.674  14.367
39961W        W 6744  27.143  10.882   3.629
39962W        W 6745  34.347  23.077  11.437
39963W        W 6746  44.859  13.923  11.455
39964W        W 6747  44.914  25.540   2.263
39965W        W 6748  15.244  23.631  12.119
39966W        W 6749  10.311   1.014  13.606
39967W        W 6750  23.740  20.312  12.490
39968W        W 6751  34.911  28.895   3.871
39969W        W 6752  38.705  13.626  11.521
39970W        W 6753  16.633  19.928  10.937
39971W        W 6754  20.181  21.203   0.825
39972W        W 6755  23.372  23.886  13.439
39973W        W 6756  30.248  37.261  13.366
39974W        W 6757  14.915  40.068  13.437
39975W        W 6758   6.332  37.707  10.849
39976W        W 6759  17.633  39.312   2.700
39977W        W 6760  42.550  38.268  13.532
39978W        W 6761  11.798  15.365  12.012
39979W        W 6762  35.245   9.900   2.579
39980W        W 6763  33.432  19.000  12.737
39981W        W 6764   7.125  19.797  13.403
39982W        W 6765  33.236  44.389  12.821
39983W        W 6766  26.375  26.961  12.070
39984W        W 6767  18.529  38.950  12.533
39985W        W 6768   5.436  41.466  12.061
39986W        W 6769  44.279  15.037  13.698
39987W        W 6770  28.482  44.850   1.307
39988W        W 6771  27.188   5.263   2.476
39989W        W 6772   6.323  16.633  12.799
39990W        W 6773  35.026   3.536   3.834
39991W        W 6774  24.131  15.296   1.427
39992W        W 6775  27.521  20.964   4.248
39993W        W 6776  37.254   9.818  11.448
39994W        W 6777  38.620  20.433  11.615
39995W        W 6778  42.804   6.563  10.316
39996W        W 6779  37.107  10.912  13.858
39997W        W 6780  44.353  16.507   3.647
39998W        W 6781   6.747  30.433   0.784
39999W        W 6782  27.193  13.813   3.978
40000W        W 6783  28.746  34.319   1.555
40001W        W 6784  27.883  14.214   1.347
40002W        W 6785  11.442  31.999   0.360
40003W        W 6786   4.779  15.689   1.284
40004W        W 6787  28.568  13.943   2.313
40005W        W 6788   7.821  35.658  11.620
40006W        W 6789  37.528  18.523   1.385
40007W        W 6790   7.711  44.819  13.645
40008W        W 6791  27.691   2.210  10.937
40009W        W 6792  21.004  10.041   4.165
40010W        W 6793  14.614  29.512  11.626
40011W        W 6794  28.088  29.460  11.892
40012W        W 6795   4.830   2.647  13.411
40013W        W 6796  20.706  28.555  12.355
40014W        W 6797  14.683  29.733  14.937
40015W        W 6798  12.912  12.240   1.379
40016W        W 6799  15.131  15.786  10.151
40017W        W 6800  39.992  38.290   1.399
40018W        W 6801   6.901  12.211   4.268
40019W        W 6802  13.258  29.961   2.389
40020W        W 6803   2.195   8.729   5.009
40021W        W 6804  14.043  11.590  13.390
40022W        W 6805   5.916  37.278  11.709
40023W        W 6806  20.115   6.029  14.149
40024W        W 6807   6.259  18.983   0.956
40025W        W 6808  14.301  14.358   1.356
40026W        W 6809  12.147  41.971  12.870
40027W        W 6810  15.998  37.289   2.755
40028W        W 6811  40.313   4.582   4.586
40029W        W 6812  31.758  34.304  10.311
40030W        W 6813  14.686  42.570  12.322
40031W        W 6814  16.287  32.969   3.160
40032W        W 6815  15.416  42.350  13.617
40033W        W 6816  40.490  30.466   3.411
40034W        W 6817   6.663   5.278   2.304
40035W        W 6818  43.523   6.066   5.409
40036W        W 6819  27.259  18.939  11.772
40037W        W 6820  34.343  31.912   2.745
40038W        W 6821  19.666  40.914   1.531
40039W        W 6822  35.854  15.758  13.979
40040W        W 6823  38.140   6.111  11.665
40041W        W 6824  13.210  21.156   1.395
40042W        W 6825  27.999  28.140   0.319
40043W        W 6826   4.299  22.511   0.968
40044W        W 6827  28.221  42.111   3.987
40045W        W 6828  24.096  32.004   2.135
40046W        W 6829  38.095   3.148  14.301
40047W        W 6830  33.460   8.634  13.936
40048W        W 6831  33.951  31.917   0.157
40049W        W 6832  17.252   8.316   4.160
40050W        W 6833   6.836  33.091   1.081
40051W        W 6834  41.952  29.830   4.163
40052W        W 6835   2.008  25.528   3.399
40053W        W 6836  18.287  24.713   1.828
40054W        W 6837   2.542  31.617   4.327
40055W        W 6838   2.979  16.582  12.518
40056W        W 6839  37.809  28.479  10.596
40057W        W 6840  38.080  20.000  10.516
40058W        W 6841   3.017  27.039  14.803
40059W        W 6842  43.389  36.822  11.124
40060W        W 6843   4.327  10.324  11.558
40061W        W 6844  22.511  26.626   1.937
40062W        W 6845  38.109  37.466  12.001
40063W        W 6846  21.252   6.450   4.444
40064W        W 6847  41.491  42.071  10.796
40065W        W 6848  21.679   8.145  11.575
40066W        W 6849   5.788   4.429  10.687
40067W        W 6850  42.252  30.457   3.427
40068W        W 6851  15.383  43.436   2.107
40069W        W 6852  36.204  20.535   1.967
40070W        W 6853   7.456  43.801   3.686
40071W        W 6854   9.239  42.090  11.560
40072W        W 6855  40.092  16.659  11.435
40073W        W 6856  32.974   9.790   0.467
40074W        W 6857  42.391  43.653   1.219
40075W        W 6858  27.670   6.223   0.538
40076W        W 6859  28.103   9.238  14.659
40077W        W 6860  44.777  35.156   2.688
40078W        W 6861  33.324  23.194   4.573
40079W        W 6862  23.989  18.452   1.472
40080W        W 6863  44.342  12.377   1.449
40081W        W 6864  24.661  36.606   1.594
40082W        W 6865  28.002  11.530   1.694
40083W        W 6866  22.936  35.533   1.764
40084W        W 6867   3.782   7.564   0.292
40085W        W 6868  10.157  25.719  11.398
40086W        W 6869  35.808   9.626   4.696
40087W        W 6870  29.650   0.905  12.683
40088W        W 6871  25.457  43.705  11.072
40089W        W 6872   8.466  29.233  12.554
40090W        W 6873  29.752  31.653   4.633
40091W        W 6874   2.258  43.750   1.897
40092W        W 6875  33.471   6.284   1.809
40093W        W 6876  10.760  36.542   2.873
40094W        W 6877   9.529  39.487   2.270
40095W        W 6878  34.846   6.969   4.438
40096W        W 6879  17.571   2.331  14.026
40097W        W 6880  28.068  42.778   1.481
40098W        W 6881  36.211  19.882  10.647
40099W        W 6882  43.902  32.501   4.384
40100W        W 6883  14.732  15.253  11.667
40101W        W 6884   8.479  17.579   2.307
40102W        W 6885  19.452  18.104   3.342
40103W        W 6886  27.728  34.862   1.757
40104W        W 6887   7.427  13.025  11.163
40105W        W 6888   3.393  18.579   1.225
40106W        W 6889  38.319   3.217  12.065
40107W        W 6890   2.688   1.051   1.655
40108W        W 6891   6.337   3.621  14.675
40109W        W 6892   3.680  19.684  13.490
40110W        W 6893   3.763  42.455  13.316
40111W        W 6894  17.982  32.451   3.268
40112W        W 6895  28.046  10.530   4.695
40113W        W 6896  30.814  19.157  11.142
40114W        W 6897   1.348   3.203   5.069
40115W        W 6898  30.470  28.730   4.956
40116W        W 6899  29.451   7.779   4.609
40117W        W 6900  33.188  25.321  10.552
40118W        W 6901  40.343  22.236  14.408
40119W        W 6902  38.402  30.460   1.779
40120W        W 6903  32.857  43.447  14.826
40121W        W 6904  32.724  43.801  12.482
40122W        W 6905  40.463  18.647   4.631
40123W        W 6906  42.877   5.967  13.491
40124W        W 6907  43.467   8.676   2.075
40125W        W 6908   8.605  34.466   2.900
40126W        W 6909   1.716  26.098   4.544
40127W        W 6910  32.840   5.699   4.019
40128W        W 6911  28.988  42.789  13.481
40129W        W 6912  39.888  10.444   3.792
40130W        W 6913  41.022  31.925   3.527
40131W        W 6914   0.340  31.066  10.688
40132W        W 6915  31.173   6.135  12.402
40133W        W 6916  19.790  42.177   4.246
40134W        W 6917  18.986  10.947  13.086
40135W        W 6918   0.540   6.843   1.375
40136W        W 6919  38.943   3.520   9.870
40137W        W 6920   5.432  28.507   1.484
40138W        W 6921  38.890  23.256  10.335
40139W        W 6922   5.288  19.583   4.744
40140W        W 6923   7.493  18.119  12.426
40141W        W 6924  32.920   2.148   2.887
40142W        W 6925  27.522  41.582   5.442
40143W        W 6926  18.249  25.587  11.238
40144W        W 6927  17.944  37.460   4.042
40145W        W 6928  24.277  40.970   0.343
40146W        W 6929  39.573  14.394   1.172
40147W        W 6930  31.354  22.009  12.062
40148W        W 6931   5.813  39.849   1.504
40149W        W 6932  25.553  24.111  11.984
40150W        W 6933  39.705  14.857   1.353
40151W        W 6934  33.173  41.337  12.606
40152W        W 6935  32.062  22.582   4.160
40153W        W 6936  27.627  33.185  12.930
40154W        W 6937  31.513  26.499   0.521
40155W        W 6938  18.733  29.428  11.530
40156W        W 6939  38.016  34.397   3.724
40157W        W 6940   4.661  18.491   1.524
40158W        W 6941  24.811  31.047   3.315
40159W        W 6942  25.390  19.555   1.263
40160W        W 6943  16.759  41.461  10.742
40161W        W 6944  18.986  15.755   2.423
40162W        W 6945  31.218   7.701   1.032
40163W        W 6946  24.820   1.487  13.471
40164W        W 6947  21.662   3.491  11.915
40165W        W 6948  28.846  40.503  10.892
40166W        W 6949  28.476  29.361   0.381
40167W        W 6950   9.114  27.349  11.083
40168W        W 6951  17.804  22.575   3.363
40169W        W 6952  29.001  28.622  10.440
40170W        W 6953  21.799   2.506  13.406
40171W        W 6954  31.145  15.570  13.311
40172W        W 6955  23.416   1.497  11.012
40173W        W 6956  11.215  37.629   2.265
40174W        W 6957  28.206  22.282   2.675
40175W        W 6958  16.774   9.247   3.590
40176W        W 6959  20.424   3.253  12.424
40177W        W 6960  22.797  19.814   0.315
40178W        W 6961  31.672  40.207  13.495
40179W        W 6962  11.147  32.937  11.123
40180W        W 6963  37.993  14.405   2.734
40181W        W 6964   5.452  38.955  10.817
40182W        W 6965   9.422  18.671   0.814
40183W        W 6966  43.450  31.568   0.167
40184W        W 6967  11.118  27.161   2.296
40185W        W 6968  44.567  44.546  13.998
40186W        W 6969  11.903  37.963   1.254
40187W        W 6970  40.847  32.196  14.839
40188W        W 6971  36.058  10.228   2.329
40189W        W 6972  37.441   8.694   1.331
40190W        W 6973  38.482  23.876  10.719
40191W        W 6974   0.841  36.145  10.016
40192W        W 6975   4.301  35.947  12.196
40193W        W 6976  34.775   6.900   1.278
40194W        W 6977  33.133   2.952   4.747
40195W        W 6978  31.431   1.158  12.931
40196W        W 6979  39.874  31.934  10.859
40197W        W 6980  10.293  40.433  13.772
40198W        W 6981  44.460  20.025   2.398
40199W        W 6982  24.579  33.268   1.423
40200W        W 6983   5.896   5.667   1.934
40201W        W 6984  14.058  22.636   1.728
40202W        W 6985  18.084  28.222  11.353
40203W        W 6986  42.039  16.221   2.904
40204W        W 6987   7.640  12.596   0.912
40205W        W 6988  41.010  13.269   3.559
40206W        W 6989  30.554  14.699  14.727
40207W        W 6990   3.553   3.482   3.315
40208W        W 6991  24.077   2.737  14.337
40209W        W 6992  15.172  44.031  12.223
40210W        W 6993  38.097  18.688  13.140
40211W        W 6994   3.663  13.960   0.187
40212W        W 6995  39.767  13.294   3.042
40213W        W 6996   1.494   5.908  11.539
40214W        W 6997  32.677  42.642  13.744
40215W        W 6998   0.994  22.008  12.403
40216W        W 6999  18.820  12.767  14.704
40217W        W 7000   2.852  41.355   1.448
40218W        W 7001  32.054  15.562   2.699
40219W        W 7002  11.139  20.271   1.204
40220W        W 7003  34.073  17.374   3.885
40221W        W 7004  31.468   3.279  14.031
40222W        W 7005   0.753  13.352   4.687
40223W        W 7006  22.644  40.783  14.837
40224W        W 7007  34.923   3.556  13.057
40225W        W 7008  24.328  11.365   2.868
40226W        W 7009  20.910  29.832  12.375
40227W        W 7010   3.006  27.449   1.381
40228W        W 7011  38.781   8.940   0.802
40229W        W 7012  42.353  41.532   2.259
40230W        W 7013   7.865  24.621  11.904
40231W        W 7014  26.177  30.117   1.387
40232W        W 7015   5.008   3.406  11.991
40233W        W 7016  40.384  15.523   3.210
40234W        W 7017   4.784  33.318   3.491
40235W        W 7018  32.469  19.755  11.963
40236W        W 7019  13.086  36.809  14.557
40237W        W 7020  18.682  41.266  13.484
40238W        W 7021  20.298   0.082  11.065
40239W        W 7022  17.379  27.139   0.275
40240W        W 7023  24.697   6.220   3.293
40241W        W 7024   6.448  22.106   2.305
40242W        W 7025   1.939  28.422   4.497
40243W        W 7026  11.613  24.062   4.514
40244W        W 7027  27.937  21.548  11.996
40245W        W 7028  34.980  27.780   1.548
40246W        W 7029  16.702   1.388   3.765
40247W        W 7030  22.691  12.237  12.055
40248W        W 7031  35.453   1.233   3.109
40249W        W 7032   6.769  14.858   3.583
40250W        W 7033  38.646   4.337   2.006
40251W        W 7034   7.310  36.892  12.656
40252W        W 7035   6.221  18.341  13.415
40253W        W 7036  18.936  38.075   0.783
40254W        W 7037   9.101  30.942  11.607
40255W        W 7038  11.705  44.732  13.939
40256W        W 7039  28.439  33.893   1.493
40257W        W 7040  34.115  31.828  14.664
40258W        W 7041  18.493   1.546  10.242
40259W        W 7042   9.465   6.554   1.174
40260W        W 7043   2.392  29.353   1.709
40261W        W 7044  36.466  22.012   4.125
40262W        W 7045  13.835  30.633   4.651
40263W        W 7046  31.021   0.764   4.119
40264W        W 7047  20.668   0.030  12.292
40265W        W 7048  35.613  11.712   2.195
40266W        W 7049  17.576  10.189   1.455
40267W        W 7050  29.868  26.061  12.943
40268W        W 7051   4.481  32.875   2.218
40269W        W 7052  40.325   5.486   0.910
40270W        W 7053  38.772  17.717  11.977
40271W        W 7054  39.341  34.042  13.572
40272W        W 7055   0.469   2.703  12.032
40273W        W 7056   9.698  20.185  14.348
40274W        W 7057  17.338  31.919   2.823
40275W        W 7058  42.049   4.745   2.794
40276W        W 7059  40.809  33.351   4.281
40277W        W 7060  12.082  42.998   4.055
40278W        W 7061   6.210  16.185  13.019
40279W        W 7062  37.943  38.114  13.595
40280W        W 7063  29.608  37.615   0.326
40281W        W 7064   2.346  26.379   2.940
40282W        W 7065   5.684  25.573  13.110
40283W        W 7066  25.504  43.386   2.695
40284W        W 7067  11.238  20.170   4.666
40285W        W 7068  44.284  42.934  13.001
40286W        W 7069  11.627  13.457  13.515
40287W        W 7070  20.026  19.313  11.981
40288W        W 7071   6.806  36.931   1.214
40289W        W 7072  44.930  33.686  11.596
40290W        W 7073  12.695  43.835   1.271
40291W        W 7074   2.305  22.888   2.340
40292W        W 7075  23.715  23.645  12.608
40293W        W 7076   8.772  19.796  14.311
40294W        W 7077  17.395   8.897   2.320
40295W        W 7078   8.232  29.128  13.010
40296W        W 7079   7.917  29.251  11.321
40297W        W 7080   3.382  13.633   3.310
40298W        W 7081  34.550  35.138  12.273
40299W        W 7082   8.810  12.439  10.721
40300W        W 7083  31.064  29.827   1.097
40301W        W 7084  16.812  39.096  12.937
40302W        W 7085  36.936  41.571  10.713
40303W        W 7086   8.219  13.613   0.171
40304W        W 7087  22.733   4.056   1.969
40305W        W 7088  43.325   9.712   4.628
40306W        W 7089  22.080  30.438   0.895
40307W        W 7090  27.504   1.192   2.764
40308W        W 7091  27.559  15.716   3.652
40309W        W 7092  21.095   4.959  12.995
40310W        W 7093  27.005   6.103  11.638
40311W        W 7094  43.022  26.165   2.173
40312W        W 7095  23.075  29.916  14.865
40313W        W 7096   1.293  31.826   4.625
40314W        W 7097  17.660  38.589   2.181
40315W        W 7098   8.291  26.090  13.301
40316W        W 7099  31.476  43.331   1.039
40317W        W 7100  41.433  27.384  11.434
40318W        W 7101  19.547   6.739   4.686
40319W        W 7102   2.083  21.888   3.751
40320W        W 7103   2.216  29.994  13.882
40321W        W 7104  27.175  27.055   3.991
40322W        W 7105  36.063   1.467   2.323
40323W        W 7106  31.254   0.943  10.670
40324W        W 7107  43.637  22.177  13.617
40325W        W 7108   8.559   9.800  14.283
40326W        W 7109  35.819   3.001   2.009
40327W        W 7110  29.574  42.357   1.077
40328W        W 7111  43.316  35.495  14.526
40329W        W 7112  30.330  42.621   3.700
40330W        W 7113  44.766  16.621  11.995
40331W        W 7114  14.326  41.616  12.003
40332W        W 7115  27.024  15.675   2.421
40333W        W 7116  27.516  13.636   3.223
40334W        W 7117  42.976  44.548   4.283
40335W        W 7118  36.057  38.718   0.647
40336W        W 7119   4.290  18.767   2.494
40337W        W 7120  12.601  12.560  13.012
40338W        W 7121  44.055  18.283  10.784
40339W        W 7122   3.022   9.373  10.676
40340W        W 7123  42.573  32.543  11.288
40341W        W 7124   6.369  33.490  14.781
40342W        W 7125  30.939  35.038  11.044
40343W        W 7126  30.453  12.093  11.579
40344W        W 7127  39.289  18.105  13.018
40345W        W 7128  22.445  13.078   0.850
40346W        W 7129  28.631  44.862  14.195
40347W        W 7130  32.061  18.481   2.359
40348W        W 7131  22.064  22.485  12.903
40349W        W 7132  21.645  32.274  11.168
40350W        W 7133  24.120  12.970  13.717
40351W        W 7134  38.487  19.184   1.925
40352W        W 7135  34.537   0.180  13.069
40353W        W 7136   8.681  27.420   4.810
40354W        W 7137  40.018   1.773   0.168
40355W        W 7138  18.590   9.235   3.653
40356W        W 7139  37.287   1.960   2.402
40357W        W 7140  25.964  38.376  12.723
40358W        W 7141  38.420   7.892   2.992
40359W        W 7142  33.301   9.950   4.468
40360W        W 7143  30.480  12.447   3.751
40361W        W 7144  13.513  28.009   0.936
40362W        W 7145   5.981  16.178  12.516
40363W        W 7146  19.701   8.690   4.636
40364W        W 7147  30.211  36.407   3.944
40365W        W 7148  13.635  28.153   4.865
40366W        W 7149  39.906  13.928   2.368
40367W        W 7150  38.243  41.807   4.577
40368W        W 7151   5.559   2.863   3.263
40369W        W 7152   9.778  29.078   0.448
40370W        W 7153  34.827  16.381  14.959
40371W        W 7154  25.268  19.432  11.640
40372W        W 7155  19.312  44.847   1.907
40373W        W 7156  10.781  28.461  10.622
40374W        W 7157  31.657  35.798   0.405
40375W        W 7158  22.625  18.663  10.390
40376W        W 7159  37.754  13.781   2.326
40377W        W 7160  39.070  28.950   3.834
40378W        W 7161  12.922   1.421   1.155
40379W        W 7162  41.491  13.878  11.560
40380W        W 7163  41.935  11.601   0.882
40381W        W 7164  13.839   6.311   4.325
40382W        W 7165  21.956  35.081   0.018
40383W        W 7166  40.044  39.305   1.224
40384W        W 7167  35.053  22.961  13.771
40385W        W 7168  23.208   0.787  14.892
40386W        W 7169  13.560   3.487  13.846
40387W        W 7170  37.571  30.006   3.740
40388W        W 7171  25.376  43.602   4.208
40389W        W 7172  33.188  35.944   3.320
40390W        W 7173  32.200  44.850   2.792
40391W        W 7174  37.849   1.794  13.830
40392W        W 7175   9.409  44.474   2.154
40393W        W 7176  37.892  19.087   4.584
40394W        W 7177  39.710  17.682  10.682
40395W        W 7178  13.598   8.895  13.572
40396W        W 7179  16.685  38.283   3.772
40397W        W 7180  44.962  19.759   4.076
40398W        W 7181   8.306  18.031   3.148
40399W        W 7182  12.104  20.010  11.121
40400W        W 7183  41.811  26.673   0.298
40401W        W 7184   5.712  30.415  13.724
40402W        W 7185  26.637   8.917  12.683
40403W        W 7186  36.568  27.850  13.419
40404W        W 7187  10.774  30.191   0.499
40405W        W 7188  35.825   5.501   4.141
40406W        W 7189  32.629  10.160  11.536
40407W        W 7190  14.115  21.290   2.450
40408W        W 7191  15.696  41.899  13.947
40409W        W 7192  11.094  19.674  11.782
40410W        W 7193  12.895  40.802  13.458
40411W        W 7194  22.196  20.191  12.658
40412W        W 7195   9.646  38.881  12.387
40413W        W 7196  32.501  16.141   4.604
40414W        W 7197  11.360  34.382   0.374
40415W        W 7198  20.121  35.338  13.032
40416W        W 7199  33.763  38.019   4.097
40417W        W 7200  17.904  21.367   1.862
40418W        W 7201  34.951  26.092   4.579
40419W        W 7202  14.403  40.980  13.509
40420W        W 7203  20.033  25.752  13.975
40421W        W 7204  40.591  33.770  13.074
40422W        W 7205  39.209   4.282  13.516
40423W        W 7206  39.064  27.283   2.134
40424W        W 7207  28.479  31.765   2.856
40425W        W 7208  42.452   7.015  11.013
40426W        W 7209  10.789  28.787  12.023
40427W        W 7210   6.254  13.630  10.507
40428W        W 7211  19.669   2.160   3.840
40429W        W 7212  11.933  27.920  12.879
40430W        W 7213  20.543  11.994   2.533
40431W        W 7214  16.855  32.431  13.346
40432W        W 7215  13.267   6.407   2.919
40433W        W 7216  41.924  14.774  14.182
40434W        W 7217  24.651   5.784  11.820
40435W        W 7218  37.286  22.347   0.941
40436W        W 7219  26.001  14.110  11.053
40437W        W 7220  13.409  40.802  13.477
40438W        W 7221   8.214  17.540  12.981
40439W        W 7222   7.080  31.322  14.935
40440W        W 7223  43.942  22.315   2.782
40441W        W 7224  12.215  16.202   2.244
40442W        W 7225  23.975  35.957   2.497
40443W        W 7226  24.885  15.363   3.823
40444W        W 7227  36.944  18.783  13.343
40445W        W 7228  40.812  18.524  10.746
40446W        W 7229  36.948  39.993  10.789
40447W        W 7230  25.599   1.374   3.909
40448W        W 7231  42.450  39.067   2.342
40449W        W 7232  19.519   0.411   3.877
40450W        W 7233   2.173  18.453  12.480
40451W        W 7234  21.272  36.638   1.809
40452W        W 7235  42.353  16.770   3.503
40453W        W 7236  18.503   8.858  10.291
40454W        W 7237  13.343  19.654   1.911
40455W        W 7238  31.498  33.921   3.395
40456W        W 7239  27.989  42.023   3.058
40457W        W 7240  10.326  30.929  12.551
40458W        W 7241  10.934  27.697  13.862
40459W        W 7242  42.091  19.112  11.645
40460W        W 7243  21.218  33.284   2.094
40461W        W 7244  15.733  24.526  14.004
40462W        W 7245  21.017   5.046   1.507
40463W        W 7246  26.954  38.289   4.065
40464W        W 7247  18.272  18.547  10.640
40465W        W 7248  41.397  14.741  11.945
40466W        W 7249  37.930  12.146  13.815
40467W        W 7250  23.987  42.270  11.202
40468W        W 7251  34.940  25.337  13.891
40469W        W 7252   0.418  28.885  11.195
40470W        W 7253  38.972  34.335  12.591
40471W        W 7254  35.498  20.760  14.365
40472W        W 7255   9.617  22.097   4.708
40473W        W 7256  28.538  20.728  10.722
40474W        W 7257   3.952  30.121   0.955
40475W        W 7258  21.166  19.765   2.268
40476W        W 7259  38.854   0.725   3.911
40477W        W 7260  33.058  14.570   2.313
40478W        W 7261  42.098  17.736   1.214
40479W        W 7262  15.587   4.664  12.483
40480W        W 7263  18.310  17.813  12.783
40481W        W 7264  13.620  43.917  12.822
40482W        W 7265   7.777  33.442  10.729
40483W        W 7266  11.335   9.385   5.259
40484W        W 7267  35.464  27.596   2.620
40485W        W 7268  17.317   6.372   4.776
40486W        W 7269  13.709  14.750   1.933
40487W        W 7270  20.427  29.935   4.737
40488W        W 7271   2.339   8.163  10.774
40489W        W 7272  30.975  25.631   0.487
40490W        W 7273  11.383  29.621  12.427
40491W        W 7274  34.760  27.164  11.612
40492W        W 7275   5.367   2.970  11.833
40493W        W 7276  20.160  30.457  13.560
40494W        W 7277   1.793  10.624   0.493
40495W        W 7278   0.547   3.880  13.979
40496W        W 7279  30.185   2.913  14.397
40497W        W 7280  17.662  29.083  10.710
40498W        W 7281  37.050   1.328  11.278
40499W        W 7282  42.580  34.045  12.072
40500W        W 7283  40.229  22.144   4.137
40501W        W 7284  38.222  42.386  12.857
40502W        W 7285  14.494   3.424  13.149
40503W        W 7286  36.044   5.710   1.756
40504W        W 7287  30.134   6.363   3.633
40505W        W 7288   3.994  33.436   2.008
40506W        W 7289   7.925   3.120  11.051
40507W        W 7290  12.170  23.137  12.260
40508W        W 7291  16.820  43.519  11.537
40509W        W 7292   0.893  40.571  13.816
40510W        W 7293  13.118   4.907   3.194
40511W        W 7294  15.556  15.081   3.398
40512W        W 7295  14.755  43.079   3.782
40513W        W 7296  42.415  35.985   3.876
40514W        W 7297  38.992   7.933   3.767
40515W        W 7298  34.325  20.251   3.663
40516W        W 7299  17.816  26.478  12.958
40517W        W 7300  38.646  39.251  10.766
40518W        W 7301  41.947  36.014   2.205
40519W        W 7302  11.688   5.512  10.300
40520W        W 7303  14.330   8.557   5.093
40521W        W 7304  15.044  26.811  10.548
40522W        W 7305  25.905  29.375  14.285
40523W        W 7306   1.239   9.306   0.697
40524W        W 7307   2.432  16.248   2.418
40525W        W 7308  23.735  25.058  14.545
40526W        W 7309  42.407  34.430   4.786
40527W        W 7310  31.010   3.284   4.119
40528W        W 7311  24.206  11.258   1.959
40529W        W 7312  26.031  41.206  12.936
40530W        W 7313  10.777  10.130  13.808
40531W        W 7314   7.650   9.912   0.430
40532W        W 7315  11.683  25.735   0.925
40533W        W 7316   0.964  21.779  11.935
40534W        W 7317  30.167   4.983  13.867
40535W        W 7318   8.850  34.348  12.855
40536W        W 7319  12.166  43.481  13.485
40537W        W 7320  25.296  13.616  10.762
40538W        W 7321   6.769  37.003   2.881
40539W        W 7322  24.966  24.036   1.167
40540W        W 7323  37.229  29.522   2.733
40541W        W 7324  22.637  13.711  11.626
40542W        W 7325  32.183  10.453   2.468
40543W        W 7326  28.951  39.897   9.558
40544W        W 7327   4.430  12.308  13.852
40545W        W 7328   3.028   7.673   2.982
40546W        W 7329  41.596  17.287  12.603
40547W        W 7330  19.013  31.546  12.591
40548W        W 7331  39.983  14.620  14.852
40549W        W 7332  42.466   4.740   1.618
40550W        W 7333   1.371  36.562  13.105
40551W        W 7334  17.693  23.533  10.544
40552W        W 7335   1.709  38.529   4.559
40553W        W 7336  30.735  42.682   0.768
40554W        W 7337  21.119  38.819  14.484
40555W        W 7338  24.273  35.444  14.040
40556W        W 7339  26.562  28.745  14.486
40557W        W 7340  30.400  17.853  10.992
40558W        W 7341  19.333  26.162  11.951
40559W        W 7342  16.097  19.636  13.987
40560W        W 7343  40.526  25.887   1.268
40561W        W 7344  20.907  16.806   2.549
40562W        W 7345  19.063  39.410   0.900
40563W        W 7346  40.720  15.489   0.426
40564W        W 7347  41.090  19.647   3.842
40565W        W 7348  20.014  13.949  12.081
40566W        W 7349  37.940  38.946  14.776
40567W        W 7350   3.275   3.985  11.050
40568W        W 7351  30.116  37.566   2.286
40569W        W 7352   5.171  42.695   4.544
40570W        W 7353  18.216  42.514   1.723
40571W        W 7354  24.571  12.599   0.160
40572W        W 7355  21.943  34.830  13.002
40573W        W 7356  44.715   9.363  14.403
40574W        W 7357  42.749  34.523   4.386
40575W        W 7358  36.766  13.134   1.758
40576W        W 7359  35.519  42.354  13.256
40577W        W 7360  11.715  13.593   1.980
40578W        W 7361   4.944  28.255   4.464
40579W        W 7362  31.406   8.947  14.411
40580W        W 7363  13.200  42.746   5.015
40581W        W 7364   3.275  36.859   3.626
40582W        W 7365  10.242  43.413  14.892
40583W        W 7366  36.947  10.840   1.374
40584W        W 7367  44.328  43.306   1.624
40585W        W 7368  23.764   7.856  13.073
40586W        W 7369  32.597  44.215  10.507
40587W        W 7370  13.236   4.687  10.087
40588W        W 7371  26.669  10.393  11.475
40589W        W 7372  29.188  40.052  12.542
40590W        W 7373  38.417  29.333   2.699
40591W        W 7374  39.269  27.155  14.920
40592W        W 7375  34.963  14.162  12.814
40593W        W 7376  36.871   2.389   3.260
40594W        W 7377  11.707  25.993   0.054
40595W        W 7378  35.502   8.093  13.673
40596W        W 7379  24.420  37.401  13.881
40597W        W 7380  16.090  26.918   4.790
40598W        W 7381   6.431  43.530   3.788
40599W        W 7382  28.679  43.459   1.216
40600W        W 7383  22.246  37.864   2.206
40601W        W 7384  24.116   3.243   3.597
40602W        W 7385  38.074  43.718   4.100
40603W        W 7386  33.998  25.982   4.484
40604W        W 7387  21.594  41.477   3.341
40605W        W 7388  33.305  10.632  12.849
40606W        W 7389   4.719  18.127   3.715
40607W        W 7390   4.794   9.885  13.028
40608W        W 7391  18.129   5.787  14.508
40609W        W 7392  20.622  13.195   4.992
40610W        W 7393   4.738  26.736  10.521
40611W        W 7394  33.146  24.401   1.417
40612W        W 7395  34.128  27.682  14.414
40613W        W 7396  40.707   9.315  12.985
40614W        W 7397   3.937   8.438  14.440
40615W        W 7398  42.399  21.681   4.227
40616W        W 7399  23.743  44.491   3.949
40617W        W 7400   5.220  37.031  13.018
40618W        W 7401  44.575   9.366   4.966
40619W        W 7402   8.283   5.721   4.310
40620W        W 7403  29.224   8.571   1.704
40621W        W 7404  23.835  32.016  10.128
40622W        W 7405  14.809  20.770  10.904
40623W        W 7406  12.223  41.596  11.637
40624W        W 7407  39.919  13.404  12.353
40625W        W 7408  30.742  38.375   3.183
40626W        W 7409  20.739  27.464   0.889
40627W        W 7410  35.544  14.840   2.733
40628W        W 7411  44.198   6.778   0.972
40629W        W 7412   5.235  28.162  13.325
40630W        W 7413  10.979   3.848   2.186
40631W        W 7414  39.951  23.799   1.275
40632W        W 7415  34.542  27.974   4.657
40633W        W 7416  35.609   4.011  11.852
40634W        W 7417  26.837  19.050  12.982
40635W        W 7418  17.002  11.311   4.836
40636W        W 7419  34.962   5.793   0.542
40637W        W 7420  35.518   0.795   2.309
40638W        W 7421  12.332  30.564   2.593
40639W        W 7422  43.724  40.353  11.568
40640W        W 7423  21.727  43.346  11.096
40641W        W 7424   1.575  30.021  14.889
40642W        W 7425  23.466   2.655   3.918
40643W        W 7426  27.745  17.677   1.524
40644W        W 7427  29.576  34.625   5.109
40645W        W 7428  11.580  28.088  10.408
40646W        W 7429  15.635   4.225  10.655
40647W        W 7430  44.348   5.240  11.399
40648W        W 7431   7.473  44.496  14.569
40649W        W 7432  29.922  21.630  10.986
40650W        W 7433  23.655  26.128   2.626
40651W        W 7434  23.130  30.321  13.182
40652W        W 7435  21.983  38.994   2.691
40653W        W 7436  14.696  29.658   3.656
40654W        W 7437   8.757  35.524   4.782
40655W        W 7438  36.381  39.344  11.480
40656W        W 7439  19.175  28.646  14.732
40657W        W 7440  30.822  28.385  13.249
40658W        W 7441  18.870  28.905  12.339
40659W        W 7442  17.567  39.419  14.043
40660W        W 7443  35.247   2.431   2.393
40661W        W 7444  44.727  20.309  13.441
40662W        W 7445   9.705  36.986   0.485
40663W        W 7446  12.290  13.907  12.269
40664W        W 7447   5.948  39.309  12.041
40665W        W 7448  11.894   5.371   3.728
40666W        W 7449   1.518   9.845   9.807
40667W        W 7450  32.092  22.612  10.902
40668W        W 7451  14.272   6.733  11.863
40669W        W 7452  28.124  34.677  13.804
40670W        W 7453  12.856  36.956   2.985
40671W        W 7454  21.503  44.796  12.866
40672W        W 7455  29.756   5.154  14.977
40673W        W 7456  11.211  36.460   3.136
40674W        W 7457  40.825  20.635  13.371
40675W        W 7458   0.059  34.921  11.108
40676W        W 7459  44.229   5.110   2.262
40677W        W 7460  11.787   3.996   0.961
40678W        W 7461   6.770   6.144   1.328
40679W        W 7462  12.057  42.419   0.873
40680W        W 7463  33.095  13.391  10.659
40681W        W 7464   7.897  32.868  14.997
40682W        W 7465  23.502  23.777   2.404
40683W        W 7466  17.389  10.675  12.702
40684W        W 7467   6.273   8.655  12.356
40685W        W 7468  24.979  36.014  11.985
40686W        W 7469  27.422  42.710  11.568
40687W        W 7470  44.285  12.867   1.395
40688W        W 7471  44.807   6.920   1.822
40689W        W 7472  27.421  17.704   3.892
40690W        W 7473  21.192  34.012   3.719
40691W        W 7474  16.442   9.017   0.403
40692W        W 7475  16.506  28.449   1.832
40693W        W 7476  43.968  36.015  12.663
40694W        W 7477   6.411  20.968   2.706
40695W        W 7478  28.529  31.928  13.462
40696W        W 7479  15.824  43.905  13.506
40697W        W 7480  44.713  19.002   0.198
40698W        W 7481  18.590  40.727  13.416
40699W        W 7482  20.208  26.739  14.979
40700W        W 7483  36.875   0.235  10.671
40701W        W 7484  44.907   3.834  10.777
40702W        W 7485  40.790   0.888   4.030
40703W        W 7486  38.765  38.438   2.287
40704W        W 7487  23.723  40.087  12.996
40705W        W 7488  20.318  24.132  14.344
40706W        W 7489  25.299   9.931   1.353
40707W        W 7490  31.001   1.829  14.340
40708W        W 7491  39.781   8.073  11.986
40709W        W 7492  27.765  33.115  11.611
40710W        W 7493   6.492  25.092   2.231
40711W        W 7494  38.257   3.897   4.064
40712W        W 7495  41.171   6.508  14.458
40713W        W 7496   8.397  23.131   3.234
40714W        W 7497   3.335  22.432   3.152
40715W        W 7498  10.628   5.815   2.399
40716W        W 7499  20.233  29.445   0.966
40717W        W 7500  25.600  27.374   3.791
40718W        W 7501  37.358   6.366   1.210
40719W        W 7502  14.292  24.464   0.296
40720W        W 7503  20.535   1.517   1.253
40721W        W 7504  30.082   9.633   4.130
40722W        W 7505   0.136   3.782   3.150
40723W        W 7506  11.277  14.364  11.556
40724W        W 7507  12.259  41.390   3.889
40725W        W 7508  32.577   4.728  12.053
40726W        W 7509  20.910  38.517   3.234
40727W        W 7510  41.012  10.921  12.041
40728W        W 7511  26.918  20.819   3.299
40729W        W 7512  15.577  17.220  11.992
40730W        W 7513  28.618  29.573  13.063
40731W        W 7514  12.357  14.585   3.713
40732W        W 7515   4.533  29.902  14.837
40733W        W 7516  34.656  38.568  14.850
40734W        W 7517  36.672  27.057   2.191
40735W        W 7518  27.488  39.366  12.421
40736W        W 7519   7.484   9.617  14.162
40737W        W 7520  17.148   2.407   1.237
40738W        W 7521  20.690  13.261  12.341
40739W        W 7522   9.356  14.243  14.852
40740W        W 7523   4.699  10.376  14.799
40741W        W 7524  20.029  11.813  13.844
40742W        W 7525  10.646   6.779   0.691
40743W        W 7526  32.233  26.744   2.513
40744W        W 7527  40.499  30.248  11.608
40745W        W 7528  44.819  14.718  13.632
40746W        W 7529  21.318  27.093  11.495
40747W        W 7530  42.939   7.780   0.411
40748W        W 7531  19.609  16.814  11.594
40749W        W 7532  34.851  23.741  11.327
40750W        W 7533  19.008  11.113   3.878
40751W        W 7534  43.172   7.646   3.552
40752W        W 7535  27.030   1.824   0.878
40753W        W 7536  20.003  29.721   4.968
40754W        W 7537  43.531  39.469   3.793
40755W        W 7538  15.505  43.980   2.434
40756W        W 7539  25.691  33.412  11.180
40757W        W 7540  27.512  20.102   0.504
40758W        W 7541  15.823  38.935  12.141
40759W        W 7542   8.406  17.554   3.228
40760W        W 7543  20.072  24.745  13.035
40761W        W 7544  21.278  33.374  13.520
40762W        W 7545  23.686  35.117   1.988
40763W        W 7546  19.175   2.983   2.395
40764W        W 7547  13.874   4.487   0.350
40765W        W 7548  18.789  18.125  10.449
40766W        W 7549  22.149   0.053  14.280
40767W        W 7550   8.414  30.942  11.162
40768W        W 7551  41.965  26.131   3.905
40769W        W 7552   3.349  28.251   1.776
40770W        W 7553   7.176  23.552  14.379
40771W        W 7554  29.892  43.519  13.028
40772W        W 7555   8.760   6.594   3.013
40773W        W 7556   5.189   5.743   3.245
40774W        W 7557  39.771   1.221  11.970
40775W        W 7558  20.119  10.625  11.645
40776W        W 7559  43.427  31.662   1.135
40777W        W 7560  32.147  25.195   3.672
40778W        W 7561  25.289  18.126  11.541
40779W        W 7562  34.632   1.893   1.943
40780W        W 7563   9.775  11.991  13.408
40781W        W 7564  19.729  24.638   3.103
40782W        W 7565  15.716   9.201  13.757
40783W        W 7566   5.425  37.900  13.550
40784W        W 7567   5.230  23.460  13.108
40785W        W 7568  34.483  44.223  14.403
40786W        W 7569  10.080  32.074   0.391
40787W        W 7570  29.455  17.234   1.619
40788W        W 7571   2.535   1.480  11.168
40789W        W 7572   7.639  39.487  14.538
40790W        W 7573   4.724  26.772  11.572
40791W        W 7574  23.560  44.091   0.160
40792W        W 7575  36.340  40.062   0.920
40793W        W 7576  43.978   1.768  13.557
40794W        W 7577  14.584  10.926  12.906
40795W        W 7578  23.331  38.454  14.732
40796W        W 7579   2.149   9.952   2.948
40797W        W 7580  37.898   7.098  14.825
40798W        W 7581  13.994  25.419  11.534
40799W        W 7582   0.723  33.329  12.062
40800W        W 7583  15.066  31.559  13.871
40801W        W 7584  37.372  34.645  11.989
40802W        W 7585  11.903  26.993  14.968
40803W        W 7586   4.250  12.701  10.671
40804W        W 7587  21.505  32.004  10.643
40805W        W 7588  44.952  39.535   4.120
40806W        W 7589  12.297  13.382  12.376
40807W        W 7590  17.735  40.076   3.207
40808W        W 7591  23.132  44.811  13.969
40809W        W 7592   3.721  37.839  13.820
40810W        W 7593  39.537   3.648   3.786
40811W        W 7594  20.593  31.352  12.147
40812W        W 7595  17.440   1.242   2.790
40813W        W 7596   0.789  14.208  10.491
40814W        W 7597  13.390  34.080   3.805
40815W        W 7598  42.538   6.913   9.725
40816W        W 7599   0.757  30.881   3.291
40817W        W 7600   3.347  39.290   4.607
40818W        W 7601   8.267   5.834  13.044
40819W        W 7602   1.296  40.935  13.747
40820W        W 7603   5.117  27.716  14.130
40821W        W 7604  32.659   6.184  10.732
40822W        W 7605  22.455  38.445  10.391
40823W        W 7606  28.731   3.804   1.401
40824W        W 7607   2.802  15.854  13.391
40825W        W 7608  19.995  44.771   3.686
40826W        W 7609   8.685   9.701   1.386
40827W        W 7610  31.599   3.371   0.362
40828W        W 7611  36.752  39.331   1.188
40829W        W 7612  27.732  36.424  14.842
40830W        W 7613  30.823  31.877  12.475
40831W        W 7614  12.233  22.322  10.474
40832W        W 7615   8.190  42.543  10.521
40833W        W 7616  32.537   0.209  10.636
40834W        W 7617   1.982  39.371  14.537
40835W        W 7618  12.577  21.170   4.293
40836W        W 7619   9.221  34.932  11.339
40837W        W 7620  41.999   2.294  12.589
40838W        W 7621  14.509   4.313  14.973
40839W        W 7622  10.900  43.961   2.797
40840W        W 7623  20.986   7.139  13.866
40841W        W 7624  41.727  30.874   1.748
40842W        W 7625  30.906  14.092  14.106
40843W        W 7626  29.708   8.219  14.931
40844W        W 7627  25.657  35.011   4.550
40845W        W 7628   6.322  31.109  12.678
40846W        W 7629  25.443  31.459   0.878
40847W        W 7630  42.799  18.528  12.198
40848W        W 7631  28.701  35.281   1.382
40849W        W 7632  23.197  30.696   0.328
40850W        W 7633  41.889  32.236  12.343
40851W        W 7634   0.357  36.840   2.179
40852W        W 7635   8.817  15.607   0.344
40853W        W 7636  42.747  39.190  12.604
40854W        W 7637  15.534  29.130   1.717
40855W        W 7638  44.477  11.457  14.404
40856W        W 7639   5.713  36.932  12.066
40857W        W 7640  11.668  21.640   0.815
40858W        W 7641  31.637  43.038  14.818
40859W        W 7642  42.199  10.383   0.006
40860W        W 7643   0.759  11.326  13.066
40861W        W 7644   2.342  12.266  10.546
40862W        W 7645   5.129  28.984  10.814
40863W        W 7646  42.624  16.903   2.286
40864W        W 7647  43.199  15.458   1.890
40865W        W 7648  10.977  42.221   1.829
40866W        W 7649  31.078  32.182  14.280
40867W        W 7650  14.781  35.137  14.417
40868W        W 7651   1.874   6.563  14.155
40869W        W 7652  27.944   1.294   2.160
40870W        W 7653  33.072  30.000   4.249
40871W        W 7654  24.025  44.839  11.206
40872W        W 7655  13.115  38.604  13.246
40873W        W 7656  41.385  30.756   4.690
40874W        W 7657  39.413  27.382  11.158
40875W        W 7658  17.993  34.127   1.795
40876W        W 7659  28.901  42.931  14.464
40877W        W 7660  44.763  29.996   2.471
40878W        W 7661   9.203  12.602   0.412
40879W        W 7662  18.996  14.082  12.742
40880W        W 7663  42.939  20.127   0.249
40881W        W 7664  29.510  36.035  10.764
40882W        W 7665  15.189   8.213  11.553
40883W        W 7666  23.844   9.988  14.253
40884W        W 7667  14.668   3.844   1.684
40885W        W 7668  15.139  44.228   0.877
40886W        W 7669  32.464  19.177  13.967
40887W        W 7670  16.307  29.129   3.495
40888W        W 7671  31.485  14.720   2.655
40889W        W 7672  26.098  38.606   4.457
40890W        W 7673  40.073  24.267   1.908
40891W        W 7674  17.497  12.435  14.554
40892W        W 7675  14.267  14.908  11.179
40893W        W 7676  14.280  21.984   0.880
40894W        W 7677  21.274  32.829   2.389
40895W        W 7678  13.686   8.156  10.593
40896W        W 7679  28.160   6.990  12.040
40897W        W 7680  20.985  41.232   5.039
40898W        W 7681  42.644   5.685  11.049
40899W        W 7682  14.209   8.749  14.526
40900W        W 7683  15.880  21.302  13.895
40901W        W 7684  40.294   4.925   0.894
40902W        W 7685  15.052  10.249  11.605
40903W        W 7686   5.351  17.371  12.399
40904W        W 7687  30.163   0.215  14.086
40905W        W 7688  18.136  29.094  10.497
40906W        W 7689  24.929  17.540   4.594
40907W        W 7690   0.099  31.871   0.865
40908W        W 7691   7.455  21.962   2.193
40909W        W 7692  38.295  41.882   0.461
40910W        W 7693  38.442  42.039  13.160
40911W        W 7694   5.222   4.153   1.066
40912W        W 7695  41.527  41.473  10.746
40913W        W 7696  28.177   7.429   3.581
40914W        W 7697  16.321  30.288  11.112
40915W        W 7698  35.077   5.465  12.881
40916W        W 7699  16.508  29.323   1.681
40917W        W 7700  37.650  23.062  12.034
40918W        W 7701   5.307   0.007  14.225
40919W        W 7702  35.297   9.428   3.224
40920W        W 7703  11.907  34.563  12.874
40921W        W 7704  41.724  18.317  13.987
40922W        W 7705   2.757   9.664  14.488
40923W        W 7706  30.100  18.570   2.969
40924W        W 7707  18.673  27.499   3.617
40925W        W 7708  34.646  43.335   1.814
40926W        W 7709  25.123   8.705   0.698
40927W        W 7710  24.894  33.088  12.653
40928W        W 7711  31.045   0.445   0.526
40929W        W 7712  14.733  16.023   2.181
40930W        W 7713   5.642   0.585   1.021
40931W        W 7714  23.138   9.382  10.723
40932W        W 7715  21.750   9.601   1.805
40933W        W 7716   2.479   4.809  13.995
40934W        W 7717   5.709   2.792  12.928
40935W        W 7718  19.971  38.927   3.808
40936W        W 7719  19.982  28.666  11.691
40937W        W 7720  22.131   8.390  11.854
40938W        W 7721  16.548  24.038   0.861
40939W        W 7722  25.168   5.278  13.548
40940W        W 7723  10.226  37.165   2.397
40941W        W 7724  39.566  32.003  11.524
40942W        W 7725   6.783  28.437   1.663
40943W        W 7726  31.122  18.655  10.714
40944W        W 7727   4.452   2.208   1.520
40945W        W 7728   2.243   2.915   4.308
40946W        W 7729   8.749  44.800  12.112
40947W        W 7730   2.023  44.219   1.838
40948W        W 7731   7.710  29.180   3.859
40949W        W 7732  44.753  15.265  13.639
40950W        W 7733  36.435  27.369   2.948
40951W        W 7734  40.449  15.302   3.679
40952W        W 7735  23.974  41.271  10.391
40953W        W 7736  22.115  17.491   2.783
40954W        W 7737  36.583  10.669  14.826
40955W        W 7738   0.373  16.644  13.577
40956W        W 7739  13.331   7.217  14.809
40957W        W 7740  16.787   2.680   2.192
40958W        W 7741   5.931   8.391   2.882
40959W        W 7742  16.813  30.046  11.116
40960W        W 7743  26.988  11.239   4.444
40961W        W 7744  36.273  11.168  12.087
40962W        W 7745   9.829   2.432  14.982
40963W        W 7746  38.749  19.639   1.732
40964W        W 7747  36.464  27.701   1.476
40965W        W 7748  28.101  10.159  11.443
40966W        W 7749  20.700  29.137   0.977
40967W        W 7750  18.298  34.537  10.728
40968W        W 7751  20.579  32.429   1.690
40969W        W 7752   4.499  26.571   1.715
40970W        W 7753  15.111   0.206   1.059
40971W        W 7754  44.243   5.770  14.505
40972W        W 7755  20.245  12.296  13.088
40973W        W 7756   9.934  14.209   4.285
40974W        W 7757   7.361   8.329   2.288
40975W        W 7758  12.816  28.447  10.715
40976W        W 7759  32.097  14.385  13.461
40977W        W 7760  15.120   7.707   2.868
40978W        W 7761   2.352  24.509   4.765
40979W        W 7762  34.896  11.277  13.888
40980W        W 7763   4.657  14.757  13.859
40981W        W 7764  18.645  38.871  13.799
40982W        W 7765   8.418   3.379  14.081
40983W        W 7766   5.986  26.653   4.316
40984W        W 7767  30.233  34.523   3.102
40985W        W 7768  29.546  12.415   1.208
40986W        W 7769  33.472  10.267  10.423
40987W        W 7770  18.606   1.697   0.327
40988W        W 7771  22.999  25.643  14.490
40989W        W 7772  36.300  14.765  11.142
40990W        W 7773  32.797  36.436   2.300
40991W        W 7774  14.291   4.359   2.200
40992W        W 7775   5.012  11.666  10.333
40993W        W 7776  16.292   9.607   1.859
40994W        W 7777  21.779   8.804  13.870
40995W        W 7778  30.462  41.927  11.203
40996W        W 7779  36.270  32.105  13.805
40997W        W 7780  23.134  41.459  12.260
40998W        W 7781  20.279  10.578   0.963
40999W        W 7782   3.066  19.909   4.537
41000W        W 7783  19.318   9.587   3.100
41001W        W 7784  14.791  12.675   4.992
41002W        W 7785  28.022   9.006  10.299
41003W        W 7786  43.277  23.515   4.418
41004W        W 7787  42.306  38.301   4.847
41005W        W 7788  38.228   2.169  13.913
41006W        W 7789  24.100  25.140   0.626
41007W        W 7790  21.041  21.598   3.686
41008W        W 7791  32.606  30.041   0.460
41009W        W 7792  29.949  39.967   1.470
41010W        W 7793  26.228  26.304   1.736
41011W        W 7794  36.557  11.120   1.089
41012W        W 7795  34.761  29.040  11.171
41013W        W 7796  12.990   9.031  11.676
41014W        W 7797   7.552   4.654  14.404
41015W        W 7798  44.735   1.478   1.447
41016W        W 7799  16.023  31.023   0.498
41017W        W 7800  41.092  15.747   0.707
41018W        W 7801   3.219  21.746   0.254
41019W        W 7802   9.554  31.689  14.584
41020W        W 7803  44.353  13.542   0.325
41021W        W 7804  10.167  18.832  11.582
41022W        W 7805   5.437  16.848  12.417
41023W        W 7806   0.952  10.848  10.819
41024W        W 7807  39.305   8.961   1.911
41025W        W 7808  30.279  30.413   2.023
41026W        W 7809  38.214  27.463  12.269
41027W        W 7810  21.056   7.556   5.192
41028W        W 7811  13.889  24.427   4.404
41029W        W 7812   7.454  17.805  12.012
41030W        W 7813  34.551   2.771  12.936
41031W        W 7814  41.066  25.977  12.776
41032W        W 7815  36.126   3.279   4.751
41033W        W 7816   3.256  32.632  13.417
41034W        W 7817  39.931  41.759  12.631
41035W        W 7818  20.498  18.293  13.486
41036W        W 7819  33.907  42.542  10.677
41037W        W 7820  25.161  16.080  12.942
41038W        W 7821   1.981   6.969   4.303
41039W        W 7822  28.117  41.385  12.067
41040W        W 7823  21.262   4.868   4.438
41041W        W 7824  36.030  22.206  13.623
41042W        W 7825  27.801  34.497   5.059
41043W        W 7826  26.831   3.573  14.662
41044W        W 7827  12.263   5.392   3.178
41045W        W 7828  41.884  21.470  11.092
41046W        W 7829  11.313  27.520  10.749
41047W        W 7830  33.107   4.088  13.802
41048W        W 7831  11.795  28.959   3.262
41049W        W 7832  40.617   7.400  11.039
41050W        W 7833  20.091  18.981   3.317
41051W        W 7834  42.408  36.980   2.644
41052W        W 7835  38.539  32.959   1.842
41053W        W 7836   7.765  22.603  13.089
41054W        W 7837  42.830   6.332  13.080
41055W        W 7838  43.542   7.280   4.228
41056W        W 7839  23.098   1.927  11.027
41057W        W 7840  44.737  39.780  10.613
41058W        W 7841   0.501   9.248  11.555
41059W        W 7842  41.334  30.852  10.752
41060W        W 7843   8.197  26.666  14.678
41061W        W 7844  27.992  14.856  13.464
41062W        W 7845  32.477  23.467   2.742
41063W        W 7846  13.617  35.006   0.070
41064W        W 7847  11.157  33.614   1.709
41065W        W 7848  18.301  11.595  11.193
41066W        W 7849  44.974  18.598   2.392
41067W        W 7850  13.930   8.981   0.444
41068W        W 7851   8.895  10.048  12.090
41069W        W 7852  27.746  39.958  11.593
41070W        W 7853  39.750  36.721   1.311
41071W        W 7854   5.718  20.581  10.763
41072W        W 7855   2.114  39.340   1.780
41073W        W 7856   5.719   0.553  12.465
41074W        W 7857  42.837  26.011   2.907
41075W        W 7858  19.155  31.314   2.748
41076W        W 7859  20.862  17.135   4.878
41077W        W 7860  13.276  30.158   0.575
41078W        W 7861   0.692  36.855  13.617
41079W        W 7862  14.884  16.349  10.907
41080W        W 7863  11.290  31.575   4.916
41081W        W 7864  42.823  28.101  11.172
41082W        W 7865  40.917  30.631  13.954
41083W        W 7866   6.931  35.123  11.687
41084W        W 7867  31.115  16.066   0.036
41085W        W 7868  17.141  36.354   1.422
41086W        W 7869   4.704  10.339  14.275
41087W        W 7870  31.547   7.349   1.256
41088W        W 7871   7.618  15.927   1.809
41089W        W 7872  31.092  30.672  12.982
41090W        W 7873  22.703  20.415  13.419
41091W        W 7874  32.261   9.177  10.862
41092W        W 7875  20.591  33.208   0.897
41093W        W 7876  11.912  40.095   2.239
41094W        W 7877  36.636  42.421   3.676
41095W        W 7878   9.789   7.441   3.044
41096W        W 7879  37.930  24.686  11.615
41097W        W 7880  34.094  30.340   2.139
41098W        W 7881  10.570   2.898  11.057
41099W        W 7882  39.079  32.453   3.794
41100W        W 7883  44.977   6.755   0.430
41101W        W 7884  21.089  18.196  11.140
41102W        W 7885  39.185   5.311   4.260
41103W        W 7886  15.108  28.100  10.446
41104W        W 7887  36.423  44.076  11.507
41105W        W 7888  11.189   5.961   0.245
41106W        W 7889  20.237  13.563  13.522
41107W        W 7890  44.609  42.472   1.838
41108W        W 7891  31.505  43.930  12.003
41109W        W 7892  26.869  15.182   4.755
41110W        W 7893  43.625  15.168  10.221
41111W        W 7894   0.274  28.725  11.696
41112W        W 7895  33.887  37.143  10.900
41113W        W 7896  23.755  14.116   0.431
41114W        W 7897  40.858   8.601  12.569
41115W        W 7898  19.187  17.128   5.461
41116W        W 7899  44.687  21.804   1.265
41117W        W 7900  39.053  27.232  14.422
41118W        W 7901   0.840  22.215   0.433
41119W        W 7902  43.456   2.216   1.842
41120W        W 7903  32.010  12.741   1.202
41121W        W 7904   4.277  39.021  10.618
41122W        W 7905  23.483  27.474   0.838
41123W        W 7906   0.328  43.801   0.761
41124W        W 7907  12.879  24.288   3.018
41125W        W 7908   0.134  32.601  11.582
41126W        W 7909  15.631  37.979  11.690
41127W        W 7910  12.636  22.476  12.067
41128W        W 7911   9.901  14.818  11.295
41129W        W 7912  19.276  10.760  11.434
41130W        W 7913  42.486  24.024  13.453
41131W        W 7914  12.277  29.546   3.768
41132W        W 7915  22.078  38.877   3.594
41133W        W 7916  15.613   2.380   1.750
41134W        W 7917   5.765   9.173   2.651
41135W        W 7918  19.601  42.797  13.565
41136W        W 7919  44.019  10.164   5.068
41137W        W 7920   6.873  14.311   1.259
41138W        W 7921   9.185  26.456  10.773
41139W        W 7922   0.913  26.609  10.856
41140W        W 7923  36.916  14.647  10.774
41141W        W 7924  41.530  36.124   1.929
41142W        W 7925   1.302  23.216  14.686
41143W        W 7926  35.717  42.722  14.416
41144W        W 7927  27.501  32.499   0.814
41145W        W 7928  14.015   1.844  10.730
41146W        W 7929  18.186   1.734  13.988
41147W        W 7930  12.339  16.230  13.297
41148W        W 7931  29.662   5.768  12.579
41149W        W 7932  20.610   1.327   3.589
41150W        W 7933   6.860  36.540   1.552
41151W        W 7934  29.968  33.811   3.408
41152W        W 7935  41.538  28.630  13.110
41153W        W 7936  38.631  18.881  14.528
41154W        W 7937   7.962  38.953  12.078
41155W        W 7938   3.725  42.712   4.619
41156W        W 7939  14.327  15.095   0.345
41157W        W 7940   2.773   8.482  13.457
41158W        W 7941  13.715  15.265   2.653
41159W        W 7942  43.446  32.143   2.710
41160W        W 7943  20.228  24.594  11.153
41161W        W 7944  22.187  36.414   2.225
41162W        W 7945  41.968  31.444   0.599
41163W        W 7946  21.233  24.597  12.895
41164W        W 7947  10.808  23.962   0.026
41165W        W 7948  39.701   6.625   1.649
41166W        W 7949  18.002   1.704  14.864
41167W        W 7950   8.934  33.807   1.889
41168W        W 7951  41.268  33.300  12.891
41169W        W 7952  22.238   6.045  11.832
41170W        W 7953   5.454  36.876  10.657
41171W        W 7954  30.729  42.860  12.119
41172W        W 7955  43.428  20.985  11.463
41173W        W 7956  20.977  17.204   2.226
41174W        W 7957  13.699  16.264   0.459
41175W        W 7958  33.913   7.838   2.486
41176W        W 7959  38.926  19.130   4.997
41177W        W 7960   8.556   8.949   5.076
41178W        W 7961  35.980  19.761   3.559
41179W        W 7962  20.815  32.591  13.487
41180W        W 7963  36.448  20.471  14.737
41181W        W 7964   7.503  20.720  12.650
41182W        W 7965  27.389  13.864  11.738
41183W        W 7966  43.302  14.355  12.049
41184W        W 7967  19.614  14.640  14.325
41185W        W 7968  25.065  20.466  14.921
41186W        W 7969  43.021   7.162  11.039
41187W        W 7970   1.214  42.856   1.141
41188W        W 7971  40.434   2.770  13.898
41189W        W 7972  34.305  30.944  14.920
41190W        W 7973  40.605   4.160   2.662
41191W        W 7974  41.391  31.684   4.788
41192W        W 7975  22.562  22.127   2.813
41193W        W 7976  38.003   1.767   1.844
41194W        W 7977  29.943  30.402  14.710
41195W        W 7978   7.311  43.804   2.665
41196W        W 7979  40.698   2.313   2.720
41197W        W 7980  40.413   4.673   0.430
41198W        W 7981  10.246  28.828   2.760
41199W        W 7982  22.001  37.885   0.911
41200W        W 7983  41.888   6.159  14.028
41201W        W 7984  42.939  37.486  12.520
41202W        W 7985  19.618  26.765   2.455
41203W        W 7986  17.055  39.775   4.094
41204W        W 7987  38.333  39.078   3.606
41205W        W 7988  30.432   8.668   3.700
41206W        W 7989  24.192  12.849  13.173
41207W        W 7990  20.912  16.428  14.301
41208W        W 7991  10.835   7.340  14.425
41209W        W 7992  34.104  14.752  13.368
41210W        W 7993   7.582  31.123  11.587
41211W        W 7994  26.054  30.313   0.343
41212W        W 7995  29.880   7.344  11.998
41213W        W 7996  39.388   4.049  12.599
41214W        W 7997  37.066  18.219   0.274
41215W        W 7998  28.927  20.136   3.600
41216W        W 7999  43.915  21.101  13.872
41217W        W 8000   0.694  38.253  14.300
41218W        W 8001  20.157   7.819  12.749
41219W        W 8002   8.538  27.883  12.827
41220W        W 8003  11.879  31.952   0.935
41221W        W 8004  38.256   7.487   1.705
41222W        W 8005  41.976  10.544  14.477
41223W        W 8006  25.023   6.183  14.534
41224W        W 8007   1.797  10.163  14.357
41225W        W 8008   8.376   0.895   0.802
41226W        W 8009  20.541  17.303  14.329
41227W        W 8010  16.391  18.230  11.930
41228W        W 8011   9.440  36.420  14.539
41229W        W 8012  21.939  16.310  11.442
41230W        W 8013   1.851  24.621   3.992
41231W        W 8014  32.272   5.241  12.521
41232W        W 8015   1.833  19.812  10.600
41233W        W 8016   5.505  18.978   2.875
41234W        W 8017  26.099  23.789  11.522
41235W        W 8018  26.534  38.987   2.569
41236W        W 8019  34.074  12.527   4.014
41237W        W 8020  14.789   9.018   5.704
41238W        W 8021   2.274   1.962  14.828
41239W        W 8022  32.048  21.711  14.028
41240W        W 8023   0.456   9.370  14.946
41241W        W 8024   2.171  43.186  14.224
41242W        W 8025  27.355   1.886   2.270
41243W        W 8026  40.383   0.382   0.157
41244W        W 8027  40.461   3.963   3.488
41245W        W 8028  29.853  37.897   0.955
41246W        W 8029   3.238  35.072   4.859
41247W        W 8030  38.168  42.175  11.089
41248W        W 8031  32.967  41.808  12.707
41249W        W 8032  42.854   3.135  14.905
41250W        W 8033  43.696  29.747  11.963
41251W        W 8034   1.876   1.709   1.750
41252W        W 8035  32.609  30.094  13.945
41253W        W 8036  41.060  39.993  12.360
41254W        W 8037   7.021   2.895   2.378
41255W        W 8038  36.653   7.726   3.607
41256W        W 8039  24.016  19.097   2.899
41257W        W 8040  27.643  43.537  11.442
41258W        W 8041  34.641  31.739   9.935
41259W        W 8042   8.399  27.052  13.800
41260W        W 8043  19.650  28.708  14.554
41261W        W 8044  10.854  17.304   4.522
41262W        W 8045  36.689  27.484   1.889
41263W        W 8046  24.879  40.580   2.647
41264W        W 8047  41.298  23.970  12.909
41265W        W 8048  22.477  13.344   2.524
41266W        W 8049  11.473  36.429   0.230
41267W        W 8050  25.208  22.669   0.852
41268W        W 8051  13.143   5.480  12.965
41269W        W 8052   7.857  42.118   1.328
41270W        W 8053   4.994  43.283  13.642
41271W        W 8054  32.903  32.030  13.458
41272W        W 8055  18.058  29.411  13.989
41273W        W 8056   1.327  14.096   1.165
41274W        W 8057  39.034  44.510  14.552
41275W        W 8058  19.066  10.281   4.365
41276W        W 8059  31.432  37.342  10.680
41277W        W 8060  33.728  26.626   2.192
41278W        W 8061   0.843  13.125  10.799
41279W        W 8062  16.005  17.289  14.396
41280W        W 8063  22.819  34.777  11.055
41281W        W 8064  21.272  17.511   1.855
41282W        W 8065  19.533  41.848  14.504
41283W        W 8066  22.954   2.351   4.516
41284W        W 8067  25.520  22.057   1.739
41285W        W 8068  15.887  25.129   0.252
41286W        W 8069   8.301  38.983  13.430
41287W        W 8070  18.055  14.245  11.724
41288W        W 8071   8.963  19.872  11.566
41289W        W 8072  11.813  32.351   4.943
41290W        W 8073  26.518   8.312  11.413
41291W        W 8074   8.943  39.723  11.547
41292W        W 8075  30.468   1.908  14.433
41293W        W 8076  38.457   3.797   0.153
41294W        W 8077  38.264  16.365   0.064
41295W        W 8078  23.238  33.158  14.564
41296W        W 8079   2.213  15.924  12.047
41297W        W 8080  38.093  34.645   0.148
41298W        W 8081  14.966  27.118   4.113
41299W        W 8082  14.337   9.040  12.044
41300W        W 8083   5.420   9.226   1.897
41301W        W 8084   6.367   9.932   3.401
41302W        W 8085  14.097  14.227   5.027
41303W        W 8086   3.832   1.265   3.536
41304W        W 8087   3.856  26.769   0.409
41305W        W 8088  27.133  34.913   0.745
41306W        W 8089  42.058  27.904  14.837
41307W        W 8090  24.191  34.419  10.659
41308W        W 8091  26.644  16.058   1.778
41309W        W 8092   6.932  33.085  11.881
41310W        W 8093  42.651  33.638   3.651
41311W        W 8094   8.401  19.116   4.241
41312W        W 8095  43.207   1.031  13.486
41313W        W 8096  38.098  25.287   0.572
41314W        W 8097  29.468  37.015  12.483
41315W        W 8098  33.458  24.038  10.424
41316W        W 8099   8.790  13.353  11.432
41317W        W 8100  24.098  36.829  14.361
41318W        W 8101  29.240   1.469   1.093
41319W        W 8102  17.582   0.003   3.617
41320W        W 8103   0.273  35.056   1.714
41321W        W 8104   4.855   0.242   3.706
41322W        W 8105   3.194  11.422  14.891
41323W        W 8106  41.628   7.372  10.167
41324W        W 8107  20.296  34.660   5.120
41325W        W 8108  29.975  20.356   5.488
41326W        W 8109  40.750  10.850  12.475
41327W        W 8110  22.108  24.146  11.130
41328W        W 8111  44.703  24.597   0.756
41329W        W 8112  30.387  40.387   0.885
41330W        W 8113  27.851   9.390   2.427
41331W        W 8114  37.862  13.571   0.923
41332W        W 8115  18.288   4.725   3.864
41333W        W 8116   3.226  22.241  11.976
41334W        W 8117  29.490  24.269   0.795
41335W        W 8118  19.652  27.870   0.014
41336W        W 8119  19.681  31.571  12.426
41337W        W 8120   0.417  21.210   4.593
41338W        W 8121  41.768   0.452   1.209
41339W        W 8122  20.099  27.603   2.642
41340W        W 8123   4.518  17.104  14.860
41341W        W 8124  26.511   9.219  10.903
41342W        W 8125   5.297  32.763   2.245
41343W        W 8126  19.019  24.564   1.241
41344W        W 8127  16.183  19.641  14.963
41345W        W 8128  41.902  10.067  14.232
41346W        W 8129  41.503   5.425   3.138
41347W        W 8130  41.888  35.166   4.784
41348W        W 8131  30.419  27.419  10.726
41349W        W 8132  32.358  19.643  10.192
41350W        W 8133   5.387  28.047  14.443
41351W        W 8134  29.004  43.471   3.756
41352W        W 8135  11.130  38.941  10.814
41353W        W 8136  42.410  19.612   1.287
41354W        W 8137  35.914   5.332   1.048
41355W        W 8138   9.776  25.580   4.471
41356W        W 8139  25.155  11.158   3.196
41357W        W 8140  30.895  37.532   4.188
41358W        W 8141  11.715  32.392   1.772
41359W        W 8142  28.735   1.478   1.208
41360W        W 8143  22.047   6.446  12.799
41361W        W 8144  23.580  43.517   0.837
41362W        W 8145  16.156  35.567   0.009
41363W        W 8146  25.527  21.708   0.366
41364W        W 8147   7.837  35.905   2.360
41365W        W 8148  28.671  19.638   4.529
41366W        W 8149  38.670  31.583   2.627
41367W        W 8150  28.433  15.199  14.573
41368W        W 8151  43.388  17.091   3.675
41369W        W 8152  29.224  33.514   1.213
41370W        W 8153  26.209  25.208  11.296
41371W        W 8154  14.583  42.296  11.031
41372W        W 8155   2.232  38.827  12.610
41373W        W 8156  22.230  24.746  13.946
41374W        W 8157   1.404  25.840  14.729
41375W        W 8158  11.028  10.933  11.873
41376W        W 8159   9.024  18.325  13.424
41377W        W 8160  32.678  41.636   4.304
41378W        W 8161  20.992  40.590   0.890
41379W        W 8162  31.926  16.836  11.461
41380W        W 8163  38.205  27.506   2.791
41381W        W 8164  40.926   0.247  10.810
41382W        W 8165  26.277  10.311   4.229
41383W        W 8166  15.286  23.033  14.437
41384W        W 8167  23.153  26.670   2.654
41385W        W 8168  43.848  15.339   5.303
41386W        W 8169  24.618  42.953  11.037
41387W        W 8170  43.148   7.676  12.473
41388W        W 8171  34.140  17.086   3.150
41389W        W 8172  40.556  41.009   2.202
41390W        W 8173   4.885  31.947  12.461
41391W        W 8174  43.368  14.966   1.786
41392W        W 8175  21.301  35.477  14.369
41393W        W 8176  34.527  24.715  11.455
41394W        W 8177  34.706  27.905   0.768
41395W        W 8178  37.650  13.080   4.155
41396W        W 8179  38.152   7.545   9.678
41397W        W 8180  32.186  33.963   0.347
41398W        W 8181  11.252  19.280   0.979
41399W        W 8182  11.840   6.124   4.083
41400W        W 8183  37.852   8.087  12.964
41401W        W 8184  13.044   0.607   4.994
41402W        W 8185  20.201  13.396  12.502
41403W        W 8186   9.126  35.377   2.972
41404W        W 8187  21.470  28.582  14.814
41405W        W 8188  13.988  11.658  11.632
41406W        W 8189   4.873  44.595  14.972
41407W        W 8190   7.876   9.160  13.161
41408W        W 8191   2.991  20.256   3.739
41409W        W 8192  36.318  31.582  11.478
41410W        W 8193  40.993   5.856  10.632
41411W        W 8194  28.314  10.212  13.575
41412W        W 8195  42.705   9.125  13.500
41413W        W 8196  29.483  33.042  12.132
41414W        W 8197  12.315  32.955  11.930
41415W        W 8198   1.842  10.102   3.349
41416W        W 8199  20.554  16.546   2.281
41417W        W 8200  16.090  17.529   0.062
41418W        W 8201  11.886  17.108   4.734
41419W        W 8202  15.202  11.120   4.602
41420W        W 8203  14.145   3.450   1.714
41421W        W 8204   2.406  42.370   4.155
41422W        W 8205   8.732  26.181   4.056
41423W        W 8206  41.598  16.805  11.628
41424W        W 8207   3.413  44.843   4.640
41425W        W 8208  41.369  17.326   0.984
41426W        W 8209  14.207  39.720   1.621
41427W        W 8210  14.305   2.831   1.308
41428W        W 8211  10.352  28.641   4.888
41429W        W 8212  29.194   7.185  10.665
41430W        W 8213   8.500  32.622  11.383
41431W        W 8214  36.850  41.282  14.939
41432W        W 8215  35.396  42.916   1.332
41433W        W 8216  37.325   1.187   4.625
41434W        W 8217  28.095   6.244   3.797
41435W        W 8218  28.571  14.850  14.946
41436W        W 8219  25.724  35.789  14.026
41437W        W 8220  24.635  11.140  12.114
41438W        W 8221  36.989   5.947  11.407
41439W        W 8222  28.103  19.694  12.355
41440W        W 8223  36.050  28.940   3.248
41441W        W 8224  33.162  20.529   3.587
41442W        W 8225  29.003   8.361  11.667
41443W        W 8226  32.919   3.427   3.823
41444W        W 8227   0.316  39.812   3.161
41445W        W 8228  27.931  30.881   1.160
41446W        W 8229  29.243   8.231  14.719
41447W        W 8230  22.246  43.496  11.073
41448W        W 8231  42.412   7.840  13.432
41449W        W 8232  43.526   3.828   0.753
41450W        W 8233  22.199  40.649   0.262
41451W        W 8234  16.982  28.438  13.483
41452W        W 8235   5.278  18.036   3.801
41453W        W 8236  28.445  37.848   2.410
41454W        W 8237  30.196  18.866   1.223
41455W        W 8238  11.905  26.006  11.054
41456W        W 8239  21.765  20.456  10.589
41457W        W 8240  17.567   3.893   2.390
41458W        W 8241  31.538  37.336  14.401
41459W        W 8242  20.303  21.790   4.125
41460W        W 8243  18.307  13.432   5.699
41461W        W 8244  22.308  19.688  12.816
41462W        W 8245  16.870  19.672   4.992
41463W        W 8246  16.957   6.324   2.374
41464W        W 8247  44.411   1.806  10.054
41465W        W 8248  31.192  20.151  14.595
41466W        W 8249  22.550  20.620   3.402
41467W        W 8250  20.565  13.312   0.958
41468W        W 8251  36.987  43.351   4.402
41469W        W 8252  20.064  41.312   4.099
41470W        W 8253  30.232   1.999   0.357
41471W        W 8254  15.144  32.692  10.958
41472W        W 8255  15.622  27.095   1.418
41473W        W 8256  38.996  15.447   4.151
41474W        W 8257  36.602  31.437   3.922
41475W        W 8258  30.820   4.935   0.833
41476W        W 8259  43.825  10.460   2.373
41477W        W 8260  24.945  27.242  10.162
41478W        W 8261   7.942  29.474  13.242
41479W        W 8262  30.124  42.051  14.387
41480W        W 8263  34.671  10.876  11.140
41481W        W 8264  20.583  11.093  14.389
41482W        W 8265  23.658  41.602   2.683
41483W        W 8266  29.448   0.444   2.204
41484W        W 8267  13.684  31.774  11.375
41485W        W 8268  29.892  33.315   3.240
41486W        W 8269  33.506  29.328  11.229
41487W        W 8270  40.641   7.768  13.855
41488W        W 8271   2.967  27.741  13.303
41489W        W 8272  36.628  28.487   0.989
41490W        W 8273  38.048  24.144  10.671
41491W        W 8274  30.997   6.328   1.468
41492W        W 8275  29.062  23.309  13.533
41493W        W 8276  19.531  29.564  12.860
41494W        W 8277  29.212  20.528   0.532
41495W        W 8278  35.577  26.805  10.697
41496W        W 8279  25.059  29.873  14.926
41497W        W 8280  43.487  42.458  11.986
41498W        W 8281  13.652  31.526  14.572
41499W        W 8282  28.749  30.333  13.363
41500W        W 8283   9.643  20.725   4.347
41501W        W 8284   0.939  25.685  12.449
41502W        W 8285   5.692  36.227  12.692
41503W        W 8286  12.208  24.550   1.916
41504W        W 8287  18.656  33.386  14.762
41505W        W 8288  29.474  26.695  11.160
41506W        W 8289  27.890   4.003   1.340
41507W        W 8290  38.807   7.401   0.954
41508W        W 8291  38.905   6.833   2.909
41509W        W 8292  29.585   9.249   0.674
41510W        W 8293  32.595  40.805   0.396
41511W        W 8294   7.756  28.895   3.318
41512W        W 8295  15.379  11.460   1.146
41513W        W 8296   0.067   4.733  13.221
41514W        W 8297  21.467  21.320  13.066
41515W        W 8298  22.643   1.706  14.260
41516W        W 8299  42.342   6.532  11.207
41517W        W 8300  33.858  23.492  14.387
41518W        W 8301  17.606   3.521  11.504
41519W        W 8302  17.615  18.169  14.524
41520W        W 8303  17.608   1.682   4.809
41521W        W 8304  21.296  12.522  14.449
41522W        W 8305  11.478  37.396  12.014
41523W        W 8306  34.088  42.373   2.130
41524W        W 8307   9.432  31.596  11.353
41525W        W 8308  42.451  12.344  14.558
41526W        W 8309  37.829  42.003  10.722
41527W        W 8310  32.617  37.529   3.994
41528W        W 8311  38.878  28.222   2.467
41529W        W 8312   2.366   7.711  12.024
41530W        W 8313  25.518  12.951   4.252
41531W        W 8314  35.064  38.523   0.143
41532W        W 8315   6.378  16.077   2.822
41533W        W 8316  32.545  41.595  11.519
41534W        W 8317   5.381   4.901   1.721
41535W        W 8318   8.457  16.821  14.838
41536W        W 8319  11.331   8.405   3.652
41537W        W 8320  28.513  31.013   3.188
41538W        W 8321   5.148  17.113  11.554
41539W        W 8322  33.570   2.054   4.489
41540W        W 8323  23.293  21.310   4.942
41541W        W 8324  12.739  40.469   2.137
41542W        W 8325  41.599  43.349   3.721
41543W        W 8326   2.803  28.377   1.702
41544W        W 8327  16.980  34.847  13.339
41545W        W 8328  10.253  15.482  12.603
41546W        W 8329  38.433  38.937   0.046
41547W        W 8330   8.436  14.678  12.470
41548W        W 8331  11.288  30.491   3.740
41549W        W 8332  36.955   8.169   1.888
41550W        W 8333  40.003  29.140  13.842
41551W        W 8334  24.245   0.976   3.602
41552W        W 8335  26.633  18.471   4.167
41553W        W 8336  11.890  16.975   0.321
41554W        W 8337  41.871  23.473  12.275
41555W        W 8338  36.649  41.053  12.045
41556W        W 8339  32.445  12.983  13.150
41557W        W 8340  10.215  14.906   1.184
41558W        W 8341  38.895  38.999   4.692
41559W        W 8342   4.313  27.202   2.244
41560W        W 8343  27.753  29.372  10.536
41561W        W 8344  39.705  10.503   9.641
41562W        W 8345  17.641  33.886  12.206
41563W        W 8346   3.388  17.864   4.177
41564W        W 8347  20.606  30.820  12.192
41565W        W 8348  40.902  38.987   2.438
41566W        W 8349   5.724  29.158   0.710
41567W        W 8350  26.270   4.807   2.716
41568W        W 8351  40.333  28.055  12.007
41569W        W 8352  26.794  13.140  12.166
41570W        W 8353   6.776  11.894  12.064
41571W        W 8354  26.990  25.162   3.434
41572W        W 8355   0.472   6.910   0.437
41573W        W 8356  13.868  37.981  13.406
41574W        W 8357  33.398   8.083   2.374
41575W        W 8358   4.428  28.189   4.561
41576W        W 8359  19.140  29.043  11.361
41577W        W 8360  11.129   1.174   0.765
41578W        W 8361  41.991  28.943   3.387
41579W        W 8362  29.581  30.941  11.605
41580W        W 8363  35.526  32.360  14.538
41581W        W 8364   5.890  43.423  12.969
41582W        W 8365  32.932  14.862   1.853
41583W        W 8366  29.111  42.744   2.300
41584W        W 8367   8.618  37.573   4.147
41585W        W 8368  30.563  15.866  11.540
41586W        W 8369   2.288  36.291   2.112
41587W        W 8370  29.717  37.916   4.267
41588W        W 8371   9.514  11.278  10.164
41589W        W 8372   0.501  19.157  12.577
41590W        W 8373  29.625   5.222   0.918
41591W        W 8374   6.427  41.949   2.382
41592W        W 8375  25.112  15.424   4.291
41593W        W 8376  22.206  41.575  12.386
41594W        W 8377  25.016   3.325  12.080
41595W        W 8378  31.673  12.841   0.391
41596W        W 8379  44.475  14.284  11.566
41597W        W 8380  39.885  43.224   4.223
41598W        W 8381  30.889  35.788  12.455
41599W        W 8382  28.692   1.501   1.730
41600W        W 8383  41.613  14.907  13.757
41601W        W 8384   0.927  23.768  11.619
41602W        W 8385  40.358   6.922   4.200
41603W        W 8386  12.663  16.198   1.353
41604W        W 8387  42.984   0.839  11.973
41605W        W 8388  23.378   4.268  14.943
41606W        W 8389  33.075  23.966  12.545
41607W        W 8390  41.409  32.027  11.158
41608W        W 8391  31.196  34.415   2.752
41609W        W 8392  28.855  36.814  11.712
41610W        W 8393  31.654  17.349  11.095
41611W        W 8394  14.753  21.733  14.411
41612W        W 8395  20.768  25.189   0.543
41613W        W 8396   6.832  33.775   0.477
41614W        W 8397  17.087  10.649  11.628
41615W        W 8398   4.782  29.970   2.061
41616W        W 8399  23.161  10.871   0.411
41617W        W 8400   2.372  20.541  14.785
41618W        W 8401   1.395  12.042  10.909
41619W        W 8402  31.907  11.593  12.038
41620W        W 8403  44.083  25.833  13.268
41621W        W 8404  33.911  24.001  10.207
41622W        W 8405  21.101  21.988  14.359
41623W        W 8406   6.209  37.596   0.988
41624W        W 8407  19.038  20.092   0.783
41625W        W 8408  11.793  16.974  13.815
41626W        W 8409  39.976  19.980   3.543
41627W        W 8410   3.200  28.992   2.439
41628W        W 8411   6.156  15.345   2.299
41629W        W 8412   6.634  10.743  14.478
41630W        W 8413  12.366  26.816  11.864
41631W        W 8414  42.279  16.511   2.191
41632W        W 8415  20.667  33.177  10.472
41633W        W 8416  21.719  10.900  14.595
41634W        W 8417  12.794  19.205   3.725
41635W        W 8418  21.823  31.476  13.452
41636W        W 8419  18.289  20.704  14.417
41637W        W 8420  38.360  21.038   5.082
41638W        W 8421  14.685   8.652  12.441
41639W        W 8422  26.881  10.436  10.994
41640W        W 8423   4.485  16.765   4.962
41641W        W 8424  15.985   9.722  14.253
41642W        W 8425  39.077  35.798   2.742
41643W        W 8426  44.992  12.823   5.058
41644W        W 8427  36.496   8.874   4.628
41645W        W 8428   5.209  32.041   0.301
41646W        W 8429  29.412  27.890  13.174
41647W        W 8430  36.885  19.260   4.578
41648W        W 8431   9.114  41.786  12.330
41649W        W 8432  33.951  39.343   2.214
41650W        W 8433  31.923  14.616   0.793
41651W        W 8434  39.921  31.600   2.227
41652W        W 8435  41.321  27.509   4.923
41653W        W 8436  14.177  24.438   1.919
41654W        W 8437  36.541  21.280   5.045
41655W        W 8438  38.081  25.774   3.815
41656W        W 8439   9.840  22.805  12.087
41657W        W 8440   9.775  44.007   1.310
41658W        W 8441  19.931   2.262  11.970
41659W        W 8442  10.966  21.218   3.301
41660W        W 8443  19.285  32.436  11.165
41661W        W 8444   5.477  11.523  12.660
41662W        W 8445  32.466  22.255   4.067
41663W        W 8446  27.402  13.656   0.564
41664W        W 8447  29.858  16.588   3.256
41665W        W 8448  37.019  18.101   3.586
41666W        W 8449   4.608  18.004   1.119
41667W        W 8450  34.546   3.149  11.028
41668W        W 8451  32.587  38.150  13.080
41669W        W 8452  30.069  17.140   1.944
41670W        W 8453  10.897   5.761  11.995
41671W        W 8454  10.191  17.204   4.116
41672W        W 8455  39.463   0.262  12.883
41673W        W 8456   7.284  41.614   4.884
41674W        W 8457  40.231  24.874   1.178
41675W        W 8458  25.554  20.153  13.864
41676W        W 8459   5.458  28.573   3.349
41677W        W 8460  13.456  21.140   4.984
41678W        W 8461  20.562   7.005   0.424
41679W        W 8462  35.325  38.017  10.790
41680W        W 8463  41.380  23.445   2.594
41681W        W 8464  28.460  41.782   3.076
41682W        W 8465   7.558  22.620  13.564
41683W        W 8466  11.040  16.145   1.287
41684W        W 8467  23.465   4.947   1.175
41685W        W 8468   5.750   6.455   3.227
41686W        W 8469  14.850  38.968   2.360
41687W        W 8470  40.390  40.908  11.543
41688W        W 8471   1.514   8.461   1.962
41689W        W 8472  43.747  18.851  12.498
41690W        W 8473  29.124   7.039   1.786
41691W        W 8474  39.310  25.611  10.745
41692W        W 8475  25.286  16.763   3.350
41693W        W 8476  41.890  26.137  11.126
41694W        W 8477   8.445   3.545  12.375
41695W        W 8478  21.092  25.276   4.233
41696W        W 8479   6.260   3.912   0.110
41697W        W 8480  40.442  25.047   3.070
41698W        W 8481  20.620  33.061   3.704
41699W        W 8482  22.782  39.757   3.165
41700W        W 8483  15.400  12.839   2.765
41701W        W 8484  14.022  33.809  11.431
41702W        W 8485  33.162   4.563  13.545
41703W        W 8486  34.075   3.542  12.258
41704W        W 8487  16.320  40.970  14.864
41705W        W 8488  40.022  28.073   1.483
41706W        W 8489  22.488  20.455  14.726
41707W        W 8490   8.779  43.080  12.835
41708W        W 8491  12.093   5.792  10.622
41709W        W 8492  43.358  18.455  13.475
41710W        W 8493  30.040  35.457  14.745
41711W        W 8494  34.494  15.317   1.916
41712W        W 8495  14.509  22.489   2.657
41713W        W 8496   1.496   9.263  14.616
41714W        W 8497  44.574  43.758   1.555
41715W        W 8498   5.177  24.685   4.186
41716W        W 8499  43.017  13.885  13.104
41717W        W 8500  34.909  44.820  11.349
41718W        W 8501  24.558  27.466   2.427
41719W        W 8502  43.479  44.426   4.292
41720W        W 8503  19.294  19.647   0.839
41721W        W 8504  32.953  19.287   2.665
41722W        W 8505  42.027  22.646  14.232
41723W        W 8506  39.766  28.302   2.363
41724W        W 8507  18.757  34.395   2.798
41725W        W 8508  26.287  25.760   2.797
41726W        W 8509  39.380  14.094  13.522
41727W        W 8510   3.322  18.296  14.663
41728W        W 8511   3.817  39.953  10.288
41729W        W 8512   7.106  38.849   1.729
41730W        W 8513   0.254  22.012   4.114
41731W        W 8514  10.089  43.816   0.927
41732W        W 8515  13.475   6.231  13.866
41733W        W 8516  25.839  28.111  14.845
41734W        W 8517   8.752  42.711  10.963
41735W        W 8518   6.815  31.446   2.790
41736W        W 8519  43.600  10.857   1.539
41737W        W 8520  12.856   7.799   0.253
41738W        W 8521  10.679  18.064   2.770
41739W        W 8522  43.001   6.585   9.839
41740W        W 8523  18.956   0.406   3.740
41741W        W 8524  10.745  43.470   0.480
41742W        W 8525  35.291  28.481   3.155
41743W        W 8526  36.440  20.989  12.962
41744W        W 8527  18.414  38.022   0.854
41745W        W 8528  23.579  39.573  13.353
41746W        W 8529  10.246  24.839  14.271
41747W        W 8530   7.170  41.759   2.684
41748W        W 8531  17.254  21.589  14.060
41749W        W 8532  39.271  36.906  13.417
41750W        W 8533   9.362  16.667  10.662
41751W        W 8534  11.844   8.033   0.221
41752W        W 8535  23.699  27.453   2.407
41753W        W 8536  42.395  34.107   2.367
41754W        W 8537   1.894  28.936  11.600
41755W        W 8538  24.209  13.751   3.752
41756W        W 8539  38.897  42.899   3.260
41757W        W 8540  20.923  29.500   2.797
41758W        W 8541   4.410   6.683   4.583
41759W        W 8542  30.483   1.528   0.406
41760W        W 8543  29.706  44.960   2.156
41761W        W 8544  13.246  27.894  12.478
41762W        W 8545  34.259   6.759   1.321
41763W        W 8546   6.584  22.968  13.495
41764W        W 8547  22.227  16.613  12.561
41765W        W 8548  35.001  14.616   1.295
41766W        W 8549  21.764   6.465  12.103
41767W        W 8550   9.133  16.246  10.488
41768W        W 8551  31.263  19.102   3.816
41769W        W 8552  12.657   6.197  11.127
41770W        W 8553  44.616  14.288   3.536
41771W        W 8554  31.436  18.705  13.468
41772W        W 8555  25.336   1.699   4.224
41773W        W 8556  19.722  24.568  11.023
41774W        W 8557   5.723  41.430   2.684
41775W        W 8558  44.135  39.592   4.809
41776W        W 8559  39.541  43.384  14.484
41777W        W 8560  23.006  26.828  13.812
41778W        W 8561   9.904  28.562  12.914
41779W        W 8562  31.530   8.628   0.622
41780W        W 8563  25.250  20.217  14.412
41781W        W 8564  10.836   5.306   2.278
41782W        W 8565  19.842  26.716   1.345
41783W        W 8566   7.812   2.306  13.623
41784W        W 8567  43.978  19.467  13.819
41785W        W 8568  32.607  21.726   3.106
41786W        W 8569  39.497  32.673   1.485
41787W        W 8570   5.278  10.175  13.548
41788W        W 8571   5.851  35.992  14.900
41789W        W 8572  20.857  37.896   2.412
41790W        W 8573  11.861   5.249   5.050
41791W        W 8574  38.956  24.163   2.856
41792W        W 8575  36.538  33.627   5.039
41793W        W 8576  25.881  16.693  11.480
41794W        W 8577  24.515  44.683   4.775
41795W        W 8578  39.968   5.387  14.943
41796W        W 8579   0.794  36.360  11.666
41797W        W 8580   8.739   8.725   1.923
41798W        W 8581   0.044   1.346   1.874
41799W        W 8582  22.493   8.778   4.604
41800W        W 8583  18.532  38.984  13.320
41801W        W 8584   5.570  14.120   1.273
41802W        W 8585  21.539   6.835  10.781
41803W        W 8586  36.601   2.141   0.726
41804W        W 8587  25.938  37.350  13.858
41805W        W 8588  43.929  29.307  11.099
41806W        W 8589  14.256  12.873   1.301
41807W        W 8590   4.677  13.122  11.121
41808W        W 8591   3.812  10.156   1.373
41809W        W 8592  31.180   9.666  14.956
41810W        W 8593  42.474  28.035   2.699
41811W        W 8594  34.119  30.580  10.940
41812W        W 8595  43.098  35.631   2.886
41813W        W 8596   3.494  32.670  11.160
41814W        W 8597  10.495  16.699  13.409
41815W        W 8598   0.501  30.720  13.854
41816W        W 8599  33.140  18.121   5.146
41817W        W 8600   8.525  20.777  14.565
41818W        W 8601  27.923   6.710  13.821
41819W        W 8602  16.167  23.450  10.701
41820W        W 8603  20.542  41.725   0.659
41821W        W 8604   2.335  39.995  10.781
41822W        W 8605   3.455   5.113  13.018
41823W        W 8606  41.632   5.230   3.578
41824W        W 8607  11.878   5.314  12.487
41825W        W 8608  42.453  35.508   4.206
41826W        W 8609  40.389   3.781   3.958
41827W        W 8610  16.330  13.355   3.296
41828W        W 8611  27.705  23.113  13.137
41829W        W 8612  11.699  35.344   3.557
41830W        W 8613  33.390  27.987  11.004
41831W        W 8614  43.843  16.895  14.535
41832W        W 8615  12.972  14.530  12.166
41833W        W 8616   8.219  41.444   3.487
41834W        W 8617   7.413  14.875  11.559
41835W        W 8618   7.996   6.561  10.516
41836W        W 8619  24.259  11.085  14.089
41837W        W 8620  33.882  33.108  13.420
41838W        W 8621   1.591  26.699   0.908
41839W        W 8622  13.710   4.265  14.488
41840W        W 8623   2.600  40.277   1.771
41841W        W 8624  29.127  21.589   3.744
41842W        W 8625  21.914  44.046  14.810
41843W        W 8626   4.024  27.684  14.372
41844W        W 8627  22.016  18.597  11.086
41845W        W 8628  29.966  39.593  14.067
41846W        W 8629   4.713  41.616   1.954
41847W        W 8630  35.067  40.292   4.313
41848W        W 8631  33.894  22.222  13.520
41849W        W 8632  21.740  37.105  13.413
41850W        W 8633  39.097  24.706   4.686
41851W        W 8634  43.163  10.724   9.866
41852W        W 8635  37.602  12.191  11.198
41853W        W 8636  25.127   6.286   1.319
41854W        W 8637  11.623  10.873  13.547
41855W        W 8638  27.171  14.100   0.784
41856W        W 8639   1.768  14.736  12.932
41857W        W 8640  37.496  17.641  10.593
41858W        W 8641  30.618  25.440  10.839
41859W        W 8642  38.733  10.837  13.431
41860W        W 8643  30.730  18.368  11.578
41861W        W 8644  36.883  43.192  11.701
41862W        W 8645  18.002   9.327   4.470
41863W        W 8646  20.412  25.565  14.304
41864W        W 8647  19.283   9.278  10.582
41865W        W 8648   3.466   7.921  11.644
41866W        W 8649  20.152   7.047   4.179
41867W        W 8650  22.227   0.832   9.741
41868W        W 8651  21.609  21.933   4.683
41869W        W 8652   6.767  12.772  14.363
41870W        W 8653  32.528   8.758   3.689
41871W        W 8654  40.252  16.816  10.968
41872W        W 8655  33.011  20.702  11.263
41873W        W 8656  42.212  37.086  13.566
41874W        W 8657  15.585   6.939   1.139
41875W        W 8658  28.532  15.737  13.811
41876W        W 8659  19.635  31.870   3.846
41877W        W 8660   8.843  40.442   0.955
41878W        W 8661   9.304  16.283  14.334
41879W        W 8662  13.806  41.907   0.904
41880W        W 8663  44.342  42.417   2.780
41881W        W 8664  18.495   7.982   0.809
41882W        W 8665   4.344  22.347  13.931
41883W        W 8666  12.688  32.414  14.810
41884W        W 8667  10.988  39.799  12.305
41885W        W 8668  10.750  42.944   1.421
41886W        W 8669  32.832  26.946   3.189
41887W        W 8670  40.407  30.457   0.859
41888W        W 8671  37.859   2.045   4.923
41889W        W 8672   9.664  34.989   1.849
41890W        W 8673  28.097  38.898   0.829
41891W        W 8674  18.545  31.434   3.724
41892W        W 8675  30.903  22.153  12.963
41893W        W 8676  42.026   4.896  14.943
41894W        W 8677   2.665  25.860  14.388
41895W        W 8678  17.271  30.429   4.541
41896W        W 8679   2.203  12.352   3.281
41897W        W 8680   1.431   0.034  13.476
41898W        W 8681   3.950  13.165   1.492
41899W        W 8682  32.580  18.290   1.845
41900W        W 8683  40.451  33.627  10.739
41901W        W 8684  42.918  18.059  12.335
41902W        W 8685  32.958   9.274   4.439
41903W        W 8686  15.659  19.058   1.587
41904W        W 8687  37.478  29.350  13.447
41905W        W 8688  22.690  24.952  13.020
41906W        W 8689  42.312   5.884  12.037
41907W        W 8690  17.809   9.236  10.464
41908W        W 8691  21.041  36.952  13.852
41909W        W 8692  25.911  19.061   4.052
41910W        W 8693   4.709   2.528   4.717
41911W        W 8694  21.969  26.650  12.001
41912W        W 8695  43.939  11.232   4.119
41913W        W 8696  12.118  35.906   5.171
41914W        W 8697  42.897  28.401   3.357
41915W        W 8698   0.930  12.464  12.092
41916W        W 8699   5.333  13.977   4.282
41917W        W 8700  37.106  17.186   0.528
41918W        W 8701   5.113   7.633   0.351
41919W        W 8702  14.247  16.049  13.921
41920W        W 8703   1.287  37.597   0.247
41921W        W 8704  43.764  43.835  11.638
41922W        W 8705  14.290   7.364   5.470
41923W        W 8706  38.012  12.131   0.883
41924W        W 8707  33.445  25.788  12.571
41925W        W 8708  13.811  37.078  11.581
41926W        W 8709  36.217  40.375   0.532
41927W        W 8710  43.486   8.697   2.643
41928W        W 8711  26.848   7.180   5.070
41929W        W 8712  28.592  31.942   2.350
41930W        W 8713  41.906  42.286   2.948
41931W        W 8714  42.216  34.976   1.666
41932W        W 8715  11.230   9.805  10.332
41933W        W 8716  19.803  39.453   0.294
41934W        W 8717   9.440  39.825   2.730
41935W        W 8718   7.484  35.494  14.705
41936W        W 8719  25.093  23.681   0.800
41937W        W 8720   6.186   0.116  13.107
41938W        W 8721  10.234   2.478  13.857
41939W        W 8722  26.070  42.498  14.862
41940W        W 8723   5.400   2.218   3.649
41941W        W 8724  22.028  14.102  11.036
41942W        W 8725  13.146  22.486   0.737
41943W        W 8726  17.267  35.534   1.704
41944W        W 8727  10.729  14.512   3.236
41945W        W 8728  17.203  11.908  10.522
41946W        W 8729  10.501  40.528   2.347
41947W        W 8730  37.551  41.733   0.009
41948W        W 8731  27.947  40.975  13.446
41949W        W 8732  15.554  43.453   1.560
41950W        W 8733  42.847  23.196   2.712
41951W        W 8734   5.654  25.537  11.143
41952W        W 8735  23.808  10.437   1.973
41953W        W 8736  31.001  44.185   0.219
41954W        W 8737  44.868  38.167  11.900
41955W        W 8738  11.181  35.577   2.757
41956W        W 8739  25.241   8.336  13.907
41957W        W 8740   0.323  28.142  12.583
41958W        W 8741   3.408   1.537  11.467
41959W        W 8742  12.305   1.460   0.313
41960W        W 8743  12.430  29.570   2.845
41961W        W 8744  27.549  19.800   2.298
41962W        W 8745  24.712  19.800  13.815
41963W        W 8746  32.980   3.472   9.861
41964W        W 8747   9.385   5.672   2.714
41965W        W 8748  28.983  19.628   0.713
41966W        W 8749   8.188  28.956   4.009
41967W        W 8750  33.362  32.078  11.684
41968W        W 8751  19.557  19.624   1.305
41969W        W 8752  23.996  13.635   1.862
41970W        W 8753  31.931   4.699   3.338
41971W        W 8754  30.801   8.785   4.948
41972W        W 8755  31.018  34.071   0.336
41973W        W 8756  16.410   6.410   3.826
41974W        W 8757  32.664  10.337  14.775
41975W        W 8758  15.260  19.032   4.378
41976W        W 8759   4.765  19.765   3.655
41977W        W 8760   1.184   1.975  11.536
41978W        W 8761  34.077  24.463  11.563
41979W        W 8762  30.507   3.795  12.381
41980W        W 8763  13.758  20.277   3.684
41981W        W 8764  32.592  29.997   3.899
41982W        W 8765  33.430  18.070  11.219
41983W        W 8766  38.290  12.872  11.902
41984W        W 8767  36.914  38.821   1.251
41985W        W 8768  16.802   7.771   3.530
41986W        W 8769  10.587  24.498   4.291
41987W        W 8770  16.605  15.220  14.950
41988W        W 8771  41.423  30.918   3.902
41989W        W 8772  30.425  15.340   4.026
41990W        W 8773   2.859  12.214   4.618
41991W        W 8774  25.075  13.205   1.717
41992W        W 8775   0.837  37.580  13.944
41993W        W 8776  22.048   5.662   0.409
41994W        W 8777   2.388   5.106  13.512
41995W        W 8778  13.580  41.843   3.820
41996W        W 8779   7.662  35.806  13.463
41997W        W 8780  37.432  22.234   4.272
41998W        W 8781  18.449  13.636   0.018
41999W        W 8782  36.619  13.375  12.910
42000W        W 8783  24.232  31.531  13.081
42001W        W 8784  37.519  17.199  11.215
42002W        W 8785   9.458  37.603  11.135
42003W        W 8786  33.188   4.346   0.964
42004W        W 8787  29.129  41.407   1.018
42005W        W 8788  38.353   5.138   0.708
42006W        W 8789  26.715  34.442  10.626
42007W        W 8790  10.720  43.832   4.610
42008W        W 8791   2.413   7.321  14.291
42009W        W 8792  27.750  27.634   3.324
42010W        W 8793  35.345  33.858  11.109
42011W        W 8794  21.694  15.272   3.801
42012W        W 8795  29.649  30.926  14.347
42013W        W 8796  28.554  22.324  10.931
42014W        W 8797  33.377  18.591  12.423
42015W        W 8798   0.386   5.847   4.246
42016W        W 8799  11.573  25.266  11.545
42017W        W 8800  20.978  13.412   4.640
42018W        W 8801  32.214  21.139  11.931
42019W        W 8802  32.527  17.049  13.849
42020W        W 8803  22.708  22.073   1.427
42021W        W 8804  41.465   0.966  13.057
42022W        W 8805   7.857   4.717   3.003
42023W        W 8806   6.480  39.169   1.158
42024W        W 8807  27.036  28.073   1.743
42025W        W 8808  35.948   1.993   0.521
42026W        W 8809   3.312  34.813   0.945
42027W        W 8810  10.251  37.902  12.537
42028W        W 8811   1.846  41.438  11.886
42029W        W 8812  25.186  20.298   4.362
42030W        W 8813  37.490  38.047   4.048
42031W        W 8814  29.236  23.006   4.663
42032W        W 8815  20.244   2.479  13.945
42033W        W 8816  15.416  28.931  14.419
42034W        W 8817  36.603  11.249  10.626
42035W        W 8818  32.903  31.191  14.901
42036W        W 8819  24.619  36.548   2.112
42037W        W 8820  21.723  24.742  13.016
42038W        W 8821  33.487   4.118   3.706
42039W        W 8822  40.073   9.463   9.826
42040W        W 8823   6.639  14.709  11.231
42041W        W 8824  43.957  24.724   3.371
42042W        W 8825   3.470  15.113   4.684
42043W        W 8826   3.077   3.500  10.298
42044W        W 8827  20.783  44.772  14.567
42045W        W 8828   8.450  43.835  11.419
42046W        W 8829  32.274  29.141  11.953
42047W        W 8830  34.783   5.658  14.645
42048W        W 8831   4.379  19.312   2.546
42049W        W 8832  35.315  29.891  11.570
42050W        W 8833   2.500  14.943  11.151
42051W        W 8834  35.141  37.831   0.782
42052W        W 8835  11.199  19.617   1.967
42053W        W 8836  32.699  23.594  12.563
42054W        W 8837   1.354  21.086  14.980
42055W        W 8838  44.988  21.496  11.163
42056W        W 8839   6.885   1.683   2.770
42057W        W 8840  27.990  26.193  10.230
42058W        W 8841  16.142  19.297  11.697
42059W        W 8842   0.914  23.726   0.302
42060W        W 8843   8.282  40.939   1.629
42061W        W 8844  31.812  40.034  11.923
42062W        W 8845  42.736  17.674  12.040
42063W        W 8846  23.961  35.589  11.122
42064W        W 8847  21.015   0.103   1.534
42065W        W 8848  29.209  17.538   3.868
42066W        W 8849  33.382  26.679  14.563
42067W        W 8850  13.911   4.845  11.112
42068W        W 8851  14.265  17.508  13.550
42069W        W 8852   2.177  12.877  13.426
42070W        W 8853  35.464  24.014  12.157
42071W        W 8854  28.058  33.420  13.692
42072W        W 8855   8.585   5.373  10.720
42073W        W 8856  16.973  35.101   1.539
42074W        W 8857  16.757  18.581  10.633
42075W        W 8858  44.758  17.732  13.374
42076W        W 8859  42.498  37.400  10.710
42077W        W 8860  34.027   4.365   3.601
42078W        W 8861   4.739   0.472  11.017
42079W        W 8862  32.613  38.470  10.469
42080W        W 8863  22.918  23.403  13.214
42081W        W 8864  29.456  14.319   9.695
42082W        W 8865  15.884   1.294  12.080
42083W        W 8866  16.366  44.287   2.293
42084W        W 8867  26.229  33.449   3.716
42085W        W 8868   8.523  35.584   3.068
42086W        W 8869  24.402  33.216  14.946
42087W        W 8870  27.028   1.772  12.412
42088W        W 8871   7.303  29.490   3.652
42089W        W 8872  32.159  33.210   3.127
42090W        W 8873  30.888  42.438   2.195
42091W        W 8874   8.757  34.875   0.391
42092W        W 8875  41.347  23.458  13.045
42093W        W 8876  33.736  26.551  12.029
42094W        W 8877  24.579  30.581   3.260
42095W        W 8878   2.469  37.225   3.691
42096W        W 8879   9.387   9.276  14.838
42097W        W 8880  42.383   8.824  14.590
42098W        W 8881  22.718  15.532   2.774
42099W        W 8882  32.513  21.218   3.088
42100W        W 8883   8.685  31.909   1.648
42101W        W 8884  44.678  44.410   0.890
42102W        W 8885  23.023  10.634   0.870
42103W        W 8886  15.645  33.580  14.509
42104W        W 8887   7.621   1.446  12.753
42105W        W 8888  41.546   1.210   3.340
42106W        W 8889  38.643  34.730  12.553
42107W        W 8890  14.685  29.629   2.655
42108W        W 8891  21.641  39.877  14.266
42109W        W 8892  39.683  22.494  10.689
42110W        W 8893  12.325  14.836  12.794
42111W        W 8894  41.884  31.876  11.351
42112W        W 8895  30.593  35.399  12.024
42113W        W 8896   6.980   3.894  11.521
42114W        W 8897  16.673  23.498   1.925
42115W        W 8898  15.323  43.904   4.666
42116W        W 8899   8.206  18.136   0.899
42117W        W 8900  44.630   2.750  10.097
42118W        W 8901   9.832  41.840  10.738
42119W        W 8902   5.844  28.001   4.500
42120W        W 8903  41.919  37.393   4.690
42121W        W 8904  12.736   6.506   0.176
42122W        W 8905  25.536  12.883  14.506
42123W        W 8906  36.153  41.475   3.701
42124W        W 8907  24.480  13.805   2.615
42125W        W 8908  23.271  27.517   2.134
42126W        W 8909  19.265  25.213  10.380
42127W        W 8910  20.825  36.872   3.702
42128W        W 8911  21.660  44.744   1.030
42129W        W 8912  30.955   0.827   3.183
42130W        W 8913   9.436   4.734  13.958
42131W        W 8914  33.637  23.703   0.923
42132W        W 8915  37.572  18.235   2.125
42133W        W 8916  38.545  43.766   1.192
42134W        W 8917  24.116  10.833  13.316
42135W        W 8918   6.176  28.993  12.931
42136W        W 8919  41.238   5.418   4.502
42137W        W 8920   9.276  13.428  11.171
42138W        W 8921  43.994   2.421  13.852
42139W        W 8922   3.820  10.757   1.524
42140W        W 8923  42.696  30.434   3.096
42141W        W 8924  35.482   4.188  10.981
42142W        W 8925  22.861  39.908   1.875
42143W        W 8926   1.264  41.055  14.794
42144W        W 8927   2.907  27.034  14.281
42145W        W 8928  10.440  31.202  13.959
42146W        W 8929   1.361  25.681   0.788
42147W        W 8930  19.099  23.312   2.705
42148W        W 8931   3.357   0.232  13.497
42149W        W 8932  39.495  40.566  11.867
42150W        W 8933   0.819  23.589  10.728
42151W        W 8934  35.503  40.666  14.051
42152W        W 8935   1.742  39.921   2.396
42153W        W 8936  33.989  30.860  14.523
42154W        W 8937   2.760  30.737  10.594
42155W        W 8938  34.891  10.910   4.279
42156W        W 8939  30.729  27.418   4.612
42157W        W 8940  15.131  17.593   3.253
42158W        W 8941  12.152  33.371  13.978
42159W        W 8942  23.176  44.940   0.325
42160W        W 8943  28.343  43.262   2.689
42161W        W 8944  25.725  37.392   3.502
42162W        W 8945  37.009  30.927  10.510
42163W        W 8946  36.046  15.131   0.738
42164W        W 8947  28.268  31.510  10.714
42165W        W 8948   6.213   3.071   4.061
42166W        W 8949  14.058  27.205   1.291
42167W        W 8950  30.668   7.929   1.872
42168W        W 8951  16.261  44.170  11.689
42169W        W 8952  26.319  25.775   0.828
42170W        W 8953   7.090  12.826   4.140
42171W        W 8954  17.498  36.120  11.938
42172W        W 8955  20.281   5.680  13.388
42173W        W 8956  10.743   0.497   0.368
42174W        W 8957  36.573  32.090  10.695
42175W        W 8958  31.647   7.192  13.897
42176W        W 8959  38.869   7.471  14.833
42177W        W 8960  24.527   2.034   0.046
42178W        W 8961  17.121  13.568  13.912
42179W        W 8962  41.105  21.160  15.000
42180W        W 8963  18.722   7.609   4.981
42181W        W 8964  14.602   9.327   2.299
42182W        W 8965   1.159   4.141  14.802
42183W        W 8966  36.404  23.196  12.656
42184W        W 8967  14.310  44.294   0.332
42185W        W 8968  16.244  41.931  14.595
42186W        W 8969  10.853  29.465  11.569
42187W        W 8970  31.859   7.400   4.566
42188W        W 8971  39.128  30.372   1.251
42189W        W 8972  24.026  27.916  14.980
42190W        W 8973  42.803  12.731   1.766
42191W        W 8974  32.000  40.092  11.198
42192W        W 8975  38.414  40.304  13.529
42193W        W 8976  36.265  26.583   0.904
42194W        W 8977  15.329  13.348   1.197
42195W        W 8978  27.531  39.634   0.860
42196W        W 8979  30.329  28.007   1.504
42197W        W 8980  41.000  24.922   0.773
42198W        W 8981  37.833  44.482  14.787
42199W        W 8982  39.139  37.294  14.432
42200W        W 8983  32.622  31.228   0.327
42201W        W 8984  11.684  10.364  13.327
42202W        W 8985  40.764  32.329   0.773
42203W        W 8986   9.902  28.612   3.342
42204W        W 8987  18.873   6.171  12.768
42205W        W 8988  25.628  43.308  13.447
42206W        W 8989  29.884   8.911  14.319
42207W        W 8990   7.573   8.771   2.050
42208W        W 8991  30.971   8.845  10.768
42209W        W 8992  11.894  44.481   4.156
42210W        W 8993  27.176   0.024  14.835
42211W        W 8994  15.645  39.693   0.364
42212W        W 8995  25.483   2.748   1.767
42213W        W 8996  23.384  22.277   4.999
42214W        W 8997   3.839  44.736  13.889
42215W        W 8998  14.036   0.238  10.740
42216W        W 8999  44.480  21.764   4.729
42217W        W 9000   2.908   7.672   0.357
42218W        W 9001  36.731  20.531   4.133
42219W        W 9002  17.272  37.127  11.031
42220W        W 9003  18.041  25.170  12.382
42221W        W 9004  27.635  42.850  12.115
42222W        W 9005   2.165   5.221   2.262
42223W        W 9006  23.550  42.020  14.893
42224W        W 9007  17.733  11.668  10.278
42225W        W 9008  33.323   0.273   1.337
42226W        W 9009  13.618  11.925  13.364
42227W        W 9010   3.367  26.122   5.014
42228W        W 9011  29.338  26.065  12.936
42229W        W 9012   0.142  14.329  12.006
42230W        W 9013  42.319  14.625   2.200
42231W        W 9014  37.649  32.355   3.134
42232W        W 9015   8.849  33.557   0.566
42233W        W 9016  27.878   7.205   3.227
42234W        W 9017   7.350  36.148   2.326
42235W        W 9018  25.088  33.613  14.371
42236W        W 9019  19.963  17.097  12.430
42237W        W 9020  28.572  14.797   3.897
42238W        W 9021  25.165  15.442  13.567
42239W        W 9022  36.040   8.710   1.458
42240W        W 9023  27.027   5.690   2.701
42241W        W 9024  29.872  28.440  12.775
42242W        W 9025  11.898  27.462  13.934
42243W        W 9026  39.505  36.033   2.911
42244W        W 9027  44.575  22.025  10.666
42245W        W 9028   0.267   5.100  14.351
42246W        W 9029  19.151   3.974  11.631
42247W        W 9030  39.752  22.065  11.933
42248W        W 9031  32.279  44.186   0.291
42249W        W 9032  21.609  38.033  11.504
42250W        W 9033  27.951   5.272  13.000
42251W        W 9034  16.297   3.458   1.729
42252W        W 9035   6.458  13.530   2.606
42253W        W 9036  44.715  26.758   0.820
42254W        W 9037  38.525  33.503   4.064
42255W        W 9038   7.302  31.526  11.497
42256W        W 9039  44.662  29.962  12.935
42257W        W 9040  13.549   7.202   0.795
42258W        W 9041  36.995  41.821   1.638
42259W        W 9042  22.007  18.732   2.806
42260W        W 9043  10.193  38.841  12.408
42261W        W 9044   0.980  20.669   0.431
42262W        W 9045  20.340  31.833  13.428
42263W        W 9046  17.448  28.568   1.233
42264W        W 9047  13.061   2.673  14.017
42265W        W 9048  40.385  35.390  12.536
42266W        W 9049  19.357  13.598   0.721
42267W        W 9050  39.392   3.920  14.049
42268W        W 9051   2.057  20.758  11.640
42269W        W 9052  19.514   7.252   1.191
42270W        W 9053  43.477  43.873  12.087
42271W        W 9054  29.910  43.693   2.173
42272W        W 9055   5.372  35.257  10.738
42273W        W 9056   6.643  39.576   1.472
42274W        W 9057  18.143   3.985   1.471
42275W        W 9058  26.335  36.987  13.751
42276W        W 9059  18.290  19.838  14.572
42277W        W 9060  40.016  18.086  10.684
42278W        W 9061  11.789  31.511  14.548
42279W        W 9062  13.167  37.917  11.569
42280W        W 9063  12.490  16.546  12.506
42281W        W 9064   9.852  16.655   2.548
42282W        W 9065   6.994   9.726  12.641
42283W        W 9066   6.355  38.747  10.673
42284W        W 9067  22.060  19.370  13.168
42285W        W 9068   1.928  14.064  14.480
42286W        W 9069  21.326   5.473  14.247
42287W        W 9070  10.278  36.762   4.528
42288W        W 9071   6.238   8.810   4.918
42289W        W 9072  27.104  26.631   0.416
42290W        W 9073  11.056   5.121  11.004
42291W        W 9074  40.564  43.591  12.027
42292W        W 9075  30.333  42.496  13.878
42293W        W 9076  36.919   3.799   4.618
42294W        W 9077  35.385  17.834  11.975
42295W        W 9078  15.861  16.113  11.035
42296W        W 9079  21.675   0.204   2.380
42297W        W 9080   6.127   2.725  10.344
42298W        W 9081  32.964   1.687   4.345
42299W        W 9082  30.067  32.515   0.763
42300W        W 9083  17.512  17.216  11.831
42301W        W 9084   1.501   8.339   0.440
42302W        W 9085  15.378  31.904  13.092
42303W        W 9086  22.530  35.392   4.380
42304W        W 9087  30.620  11.720   1.049
42305W        W 9088  36.198  14.089   2.889
42306W        W 9089  27.404  24.977   1.831
42307W        W 9090  36.475  12.019   2.868
42308W        W 9091   7.305  19.184  10.445
42309W        W 9092  24.633  24.000  11.088
42310W        W 9093  28.992  34.197   2.266
42311W        W 9094  13.588  11.552   1.135
42312W        W 9095  15.487  17.786   3.565
42313W        W 9096   1.445   5.736   3.645
42314W        W 9097  25.281  39.550  12.601
42315W        W 9098  38.072  17.678   2.752
42316W        W 9099  44.327  10.659  11.493
42317W        W 9100  35.802  13.536   4.210
42318W        W 9101   9.352  36.354   2.757
42319W        W 9102  29.629  15.770   3.044
42320W        W 9103  10.873  13.552   2.303
42321W        W 9104  43.250  25.123   4.689
42322W        W 9105  32.979  44.014  12.031
42323W        W 9106  30.729  15.996  13.887
42324W        W 9107  25.742   3.285   5.033
42325W        W 9108  42.596  26.963  12.332
42326W        W 9109  30.664   0.407   4.030
42327W        W 9110  29.515  36.557   4.115
42328W        W 9111   6.833   3.468  13.347
42329W        W 9112  36.449  40.649   4.130
42330W        W 9113  34.006   4.300  12.033
42331W        W 9114  41.106   2.309   1.955
42332W        W 9115  17.537  19.745  10.477
42333W        W 9116  44.570  43.110  14.799
42334W        W 9117  15.713  10.728   0.373
42335W        W 9118   1.262  21.094   1.884
42336W        W 9119  30.595  37.527  14.432
42337W        W 9120  38.798  41.594   2.266
42338W        W 9121  39.844  16.332  14.408
42339W        W 9122  28.564  27.683  13.287
42340W        W 9123  42.002  42.953  11.468
42341W        W 9124   3.212  41.796  10.836
42342W        W 9125   3.959   1.792   2.628
42343W        W 9126  16.055  25.433  11.965
42344W        W 9127  11.553  19.516  14.631
42345W        W 9128  25.477  10.743   2.863
42346W        W 9129   6.031  38.957   1.316
42347W        W 9130  25.443  43.984  14.989
42348W        W 9131  23.282  21.982   0.823
42349W        W 9132   8.369  33.124  11.276
42350W        W 9133  10.692  35.909  12.889
42351W        W 9134  13.128  13.330  10.444
42352W        W 9135   4.216  11.823  13.913
42353W        W 9136  10.874  12.158  14.922
42354W        W 9137  21.146  10.807  12.452
42355W        W 9138  33.169  25.296  13.843
42356W        W 9139   2.247  28.749   3.354
42357W        W 9140  23.767  19.051  14.799
42358W        W 9141  25.169   2.702   0.875
42359W        W 9142  11.197  28.212   2.349
42360W        W 9143  41.863   3.045  12.953
42361W        W 9144   6.925  43.492   0.377
42362W        W 9145  10.155  23.992   2.255
42363W        W 9146  37.439   1.794   3.697
42364W        W 9147  25.627  16.920  12.729
42365W        W 9148   7.380  43.196   0.380
42366W        W 9149  30.994  22.231   0.384
42367W        W 9150  39.571   8.907   1.482
42368W        W 9151  32.877  30.571  12.117
42369W        W 9152  18.017  13.620   4.258
42370W        W 9153  42.253   2.535   2.578
42371W        W 9154  21.295  11.004  10.252
42372W        W 9155  12.481  43.054  13.537
42373W        W 9156  37.027  36.578   4.196
42374W        W 9157  26.219   8.127   0.739
42375W        W 9158   6.724  25.054  12.390
42376W        W 9159   1.402  29.873   4.063
42377W        W 9160  33.763   4.207  11.575
42378W        W 9161  35.135   4.699  11.936
42379W        W 9162  38.837  14.696   4.617
42380W        W 9163  29.992  36.295  12.472
42381W        W 9164  18.533   0.207  14.532
42382W        W 9165  16.768  24.047  13.676
42383W        W 9166  27.927  12.007   4.126
42384W        W 9167  32.701  29.996  14.961
42385W        W 9168  21.285  14.510  10.799
42386W        W 9169  39.274  34.292  11.443
42387W        W 9170  22.048  11.191   3.725
42388W        W 9171   3.765  17.526  12.139
42389W        W 9172  16.196  11.123  14.033
42390W        W 9173  11.701  18.359  13.346
42391W        W 9174   7.514   6.340  13.483
42392W        W 9175  25.211   7.848   3.609
42393W        W 9176   1.650  37.048  11.578
42394W        W 9177  25.258  34.523  11.534
42395W        W 9178  29.070  16.847  12.619
42396W        W 9179  14.248  44.218   4.535
42397W        W 9180  18.623  44.491   1.447
42398W        W 9181  21.235  36.388  11.119
42399W        W 9182   3.276  36.140   1.244
42400W        W 9183   6.617   5.873   3.132
42401W        W 9184   9.194  39.578   1.878
42402W        W 9185   2.999  32.087   3.171
42403W        W 9186  38.916  38.067   0.274
42404W        W 9187  38.233   5.775  10.399
42405W        W 9188  12.133  38.412   3.797
42406W        W 9189  33.525  17.763  11.968
42407W        W 9190  33.096  14.602  14.319
42408W        W 9191  24.762  32.586   4.446
42409W        W 9192  11.063  21.215  13.138
42410W        W 9193  38.870  29.590   0.929
42411W        W 9194   2.400  39.250   2.256
42412W        W 9195  27.063  18.232   5.404
42413W        W 9196   7.299  40.574   0.335
42414W        W 9197   0.592  11.135  11.610
42415W        W 9198  16.279  41.869  12.812
42416W        W 9199  31.222  37.948  12.650
42417W        W 9200  31.325  37.566   0.750
42418W        W 9201  20.178  35.437  12.155
42419W        W 9202   3.347  25.457   1.180
42420W        W 9203   1.699   7.240   4.699
42421W        W 9204  27.510  38.297   0.196
42422W        W 9205   7.441  19.159   3.003
42423W        W 9206  41.067  24.758  13.517
42424W        W 9207  22.489  39.855  11.050
42425W        W 9208  17.765   2.043  13.299
42426W        W 9209  17.498  25.134   2.718
42427W        W 9210  23.930  11.173  11.423
42428W        W 9211   2.921  36.014   0.848
42429W        W 9212  40.969  40.864  12.384
42430W        W 9213  13.508   3.946   1.327
42431W        W 9214  35.949  14.360  10.759
42432W        W 9215  43.568  36.250  12.444
42433W        W 9216   9.783  26.122  14.028
42434W        W 9217  16.798  25.205  12.946
42435W        W 9218  15.159  23.125  11.997
42436W        W 9219  41.783   5.824  12.986
42437W        W 9220   4.034  13.804  11.114
42438W        W 9221  12.159  19.008  12.863
42439W        W 9222  35.802  31.952   4.808
42440W        W 9223  20.975   0.445   0.724
42441W        W 9224  44.061   7.683   0.884
42442W        W 9225  29.324  27.960   3.612
42443W        W 9226  23.525  20.528  13.629
42444W        W 9227   2.387  36.507   1.651
42445W        W 9228  21.157  16.776  12.575
42446W        W 9229  43.113  40.137  12.464
42447W        W 9230  12.192  43.850   2.348
42448W        W 9231   2.985  25.518   5.029
42449W        W 9232  43.807  33.212  12.592
42450W        W 9233  18.658  42.020  12.807
42451W        W 9234  33.292  28.086   3.320
42452W        W 9235  42.022  23.699   2.212
42453W        W 9236  31.931  36.636  12.457
42454W        W 9237  15.751  10.264   2.174
42455W        W 9238   8.753  20.004   5.101
42456W        W 9239   6.033  42.583  11.282
42457W        W 9240  27.558   0.183   3.779
42458W        W 9241  27.593  43.792   4.650
42459W        W 9242  17.507  25.712   0.227
42460W        W 9243  28.127  43.083  14.931
42461W        W 9244   5.253   1.864  13.954
42462W        W 9245   4.923  18.872  14.760
42463W        W 9246  21.001  44.029   0.799
42464W        W 9247   8.226   0.797   1.796
42465W        W 9248   7.728  22.933   4.781
42466W        W 9249  39.557  22.675   4.178
42467W        W 9250  10.072   1.454   2.766
42468W        W 9251  20.185  12.568  14.484
42469W        W 9252  18.390  11.683   4.927
42470W        W 9253  19.125  10.334   2.386
42471W        W 9254  37.652  23.327  12.526
42472W        W 9255  17.175  21.668  12.538
42473W        W 9256  43.444  29.453  13.598
42474W        W 9257  32.967  44.841   2.355
42475W        W 9258  39.351  24.637  11.197
42476W        W 9259   2.893  36.988  11.639
42477W        W 9260   7.247  23.983  14.698
42478W        W 9261  35.518  42.719  13.651
42479W        W 9262  40.705  21.475   1.893
42480W        W 9263   4.535  38.820  14.712
42481W        W 9264  15.831   5.246  14.172
42482W        W 9265  32.134  41.310  11.751
42483W        W 9266   4.274  26.104   1.818
42484W        W 9267   3.456  17.483  14.437
42485W        W 9268  39.413  33.431   3.877
42486W        W 9269  18.767  39.468  14.498
42487W        W 9270  26.706  10.831   3.252
42488W        W 9271  24.962  37.120  13.432
42489W        W 9272  35.108  22.038   2.427
42490W        W 9273  44.828   1.202   2.332
42491W        W 9274  36.182  26.096   1.618
42492W        W 9275  19.561  39.863  10.731
42493W        W 9276  23.379  16.164  12.468
42494W        W 9277  25.502  30.632   0.364
42495W        W 9278  23.797  12.893  14.136
42496W        W 9279  29.364  15.689   0.880
42497W        W 9280  25.534  21.594  11.494
42498W        W 9281   8.813   7.613   4.052
42499W        W 9282  11.416  13.848  12.391
42500W        W 9283  25.576  16.276  11.584
42501W        W 9284  14.047  16.056   1.437
42502W        W 9285   2.927  26.135   4.688
42503W        W 9286  35.338  30.168   0.299
42504W        W 9287  23.576  27.649  11.162
42505W        W 9288  29.129   1.491  14.696
42506W        W 9289  32.726  42.133   3.404
42507W        W 9290   4.863  12.243   1.815
42508W        W 9291   2.750  24.623   4.450
42509W        W 9292  32.235  40.043   4.619
42510W        W 9293  22.968  27.575  14.690
42511W        W 9294  18.488  30.524   2.663
42512W        W 9295   0.485   7.093   2.361
42513W        W 9296  41.498  43.981  11.994
42514W        W 9297  32.417  23.480  14.045
42515W        W 9298   2.807   8.901  12.567
42516W        W 9299   8.480   3.059   1.865
42517W        W 9300  43.053   1.680   4.811
42518W        W 9301  29.715  36.039  12.125
42519W        W 9302  27.654  19.557   3.215
42520W        W 9303  25.133  28.386  12.957
42521W        W 9304  27.604  32.794   3.730
42522W        W 9305  28.602   2.734  10.738
42523W        W 9306   3.725  42.933  13.047
42524W        W 9307   9.738  30.876  13.587
42525W        W 9308  39.726  42.885  11.491
42526W        W 9309  14.415  30.395   5.026
42527W        W 9310   6.497  11.815  14.116
42528W        W 9311   8.542  16.851  12.540
42529W        W 9312  39.147  17.459  12.623
42530W        W 9313  44.858  22.707   4.613
42531W        W 9314  14.276   3.943  11.834
42532W        W 9315  44.321  35.069  13.827
42533W        W 9316  25.923  20.941   2.407
42534W        W 9317  37.082  30.070   0.934
42535W        W 9318  30.382  12.215   1.764
42536W        W 9319  13.961  38.642   1.413
42537W        W 9320  33.033   5.161  14.823
42538W        W 9321  10.841   7.637   2.206
42539W        W 9322  18.478  40.264  14.321
42540W        W 9323  43.128  44.069   4.063
42541W        W 9324  17.378   4.216   1.338
42542W        W 9325  35.905  30.874   3.432
42543W        W 9326  22.336   7.863   2.543
42544W        W 9327   3.261  31.529   0.825
42545W        W 9328  25.683  22.039   4.111
42546W        W 9329  31.694  10.682   4.483
42547W        W 9330  43.510   9.583   2.156
42548W        W 9331  11.450  21.696  13.970
42549W        W 9332  31.548  12.801  13.703
42550W        W 9333  20.025  13.968   2.375
42551W        W 9334  13.796  13.671   4.281
42552W        W 9335  40.706   8.007  10.335
42553W        W 9336  14.824  31.030  14.700
42554W        W 9337   6.910  29.418   1.858
42555W        W 9338   8.078  44.694  11.008
42556W        W 9339  22.295  15.517   0.308
42557W        W 9340  28.421   6.955  12.519
42558W        W 9341   6.134  23.103   0.789
42559W        W 9342  31.566  44.641   4.445
42560W        W 9343  43.945  43.140   4.967
42561W        W 9344  43.215  14.310   3.076
42562W        W 9345  19.075  14.723   2.277
42563W        W 9346   5.498  27.136   4.896
42564W        W 9347   2.887  11.631   4.547
42565W        W 9348  24.715   9.247   2.168
42566W        W 9349  16.201  36.369  12.920
42567W        W 9350  29.386  24.871   4.506
42568W        W 9351  31.870  16.353   2.748
42569W        W 9352   6.894  34.624   0.119
42570W        W 9353  23.615  35.819   0.741
42571W        W 9354  33.178   0.740   2.633
42572W        W 9355  12.329   7.062   0.154
42573W        W 9356  29.028  22.100  14.315
42574W        W 9357  14.664  38.093  10.831
42575W        W 9358  12.921  27.745   4.677
42576W        W 9359  21.736  28.529   4.237
42577W        W 9360  33.835  12.258  10.442
42578W        W 9361   7.843  11.142   3.758
42579W        W 9362  15.662  33.055  14.529
42580W        W 9363  37.885  31.184   2.113
42581W        W 9364  26.088   4.941   3.716
42582W        W 9365  44.966  43.975  12.745
42583W        W 9366  10.712   2.503   2.794
42584W        W 9367  39.746   5.564  11.165
42585W        W 9368   6.128   2.996  10.786
42586W        W 9369  12.092  29.509  10.707
42587W        W 9370   1.782  28.428  12.988
42588W        W 9371  23.276  25.221  14.377
42589W        W 9372   8.785  17.081  13.535
42590W        W 9373  29.330  11.183   1.915
42591W        W 9374  16.586   6.351  13.269
42592W        W 9375   8.263  28.854   2.348
42593W        W 9376  35.797  43.795   0.247
42594W        W 9377   8.600  11.655   1.865
42595W        W 9378  40.409  15.442  11.486
42596W        W 9379   4.723  19.075  13.785
42597W        W 9380  42.824  19.530   1.956
42598W        W 9381  10.964  23.662  10.510
42599W        W 9382   0.932   2.262   0.904
42600W        W 9383   3.941   4.273  12.131
42601W        W 9384  30.619  22.428   2.391
42602W        W 9385  30.575  35.504   4.927
42603W        W 9386  35.624  41.801  10.666
42604W        W 9387  43.347  34.936  12.922
42605W        W 9388  38.592   7.251  12.970
42606W        W 9389  27.701  19.068  14.893
42607W        W 9390  42.381  39.608  11.175
42608W        W 9391  11.728  35.838  11.508
42609W        W 9392  18.530  25.078   2.669
42610W        W 9393  34.573  14.294  11.119
42611W        W 9394  32.411  15.664  12.384
42612W        W 9395  32.944   1.380   2.282
42613W        W 9396  22.263  12.205   1.834
42614W        W 9397   9.708  36.884   3.675
42615W        W 9398   5.715  14.204   4.009
42616W        W 9399  34.012  11.324   0.702
42617W        W 9400   6.914  37.531   0.298
42618W        W 9401  19.607   1.475  12.403
42619W        W 9402  37.370  15.520  12.518
42620W        W 9403  15.805  17.596  12.354
42621W        W 9404   6.416  20.598   4.522
42622W        W 9405  23.206  35.317   2.157
42623W        W 9406  24.160  35.090  11.069
42624W        W 9407  37.645  18.759  14.469
42625W        W 9408  12.633  25.164  13.772
42626W        W 9409  42.206  21.737   3.730
42627W        W 9410  40.118  24.476  11.228
42628W        W 9411  37.499  43.100  14.989
42629W        W 9412  15.161  14.066  11.603
42630W        W 9413  16.444  17.506   2.246
42631W        W 9414  18.965  12.440  13.525
42632W        W 9415  18.803  17.891   1.740
42633W        W 9416  44.360   4.107   1.503
42634W        W 9417  17.555  11.597  14.814
42635W        W 9418  21.361  42.357   2.156
42636W        W 9419  13.195  18.636  10.636
42637W        W 9420  14.442  33.638  11.775
42638W        W 9421  24.081  36.584   0.831
42639W        W 9422  41.357  11.659  13.246
42640W        W 9423  12.348  32.992   1.792
42641W        W 9424  33.079  26.613  13.349
42642W        W 9425  18.967  17.096  12.401
42643W        W 9426  26.760  37.582   4.299
42644W        W 9427   4.436  20.469   4.052
42645W        W 9428  22.722  22.585   3.299
42646W        W 9429  11.962  28.092  10.769
42647W        W 9430  31.599  10.563  12.193
42648W        W 9431  25.659  21.754  13.417
42649W        W 9432  39.007  20.726   2.638
42650W        W 9433  37.798  23.144  14.497
42651W        W 9434  38.046  32.699   3.841
42652W        W 9435  33.168  22.081  11.649
42653W        W 9436  42.950  10.086  13.742
42654W        W 9437  37.334  23.699   1.176
42655W        W 9438  38.652  15.796  12.923
42656W        W 9439   9.567  15.628   0.794
42657W        W 9440  26.042  18.374  11.820
42658W        W 9441   8.263   8.944   1.719
42659W        W 9442  31.817  26.560   0.978
42660W        W 9443  15.809  40.270   1.709
42661W        W 9444  25.850  43.987   5.087
42662W        W 9445  15.572  40.511   2.116
42663W        W 9446  34.490  27.147  11.172
42664W        W 9447  39.139   5.480   0.345
42665W        W 9448  38.837  11.513  11.971
42666W        W 9449   7.928  29.426   0.727
42667W        W 9450   6.755  30.058   3.684
42668W        W 9451  26.164  27.159  14.772
42669W        W 9452   8.986  27.972   0.378
42670W        W 9453  32.977  12.953   1.516
42671W        W 9454  32.618  18.243  10.611
42672W        W 9455  33.199  34.033  10.943
42673W        W 9456  19.823  36.038   0.074
42674W        W 9457  21.271  27.031   2.413
42675W        W 9458  24.052  32.468  10.370
42676W        W 9459  27.410   9.800  14.361
42677W        W 9460  12.349  34.554  12.534
42678W        W 9461  42.559   4.767   0.739
42679W        W 9462  35.188   9.257   4.116
42680W        W 9463  39.349  34.900  10.612
42681W        W 9464  41.481  19.581   1.937
42682W        W 9465  23.647  37.226  11.722
42683W        W 9466  22.026  14.753   2.763
42684W        W 9467  27.994   4.798  14.279
42685W        W 9468  26.028  36.097  13.551
42686W        W 9469  30.108  15.404  14.941
42687W        W 9470  39.573   0.180   4.184
42688W        W 9471  32.530   4.983   1.776
42689W        W 9472  18.767  39.620  12.846
42690W        W 9473   8.451  11.895   4.840
42691W        W 9474  26.570  38.433  13.834
42692W        W 9475   5.972  21.307   2.842
42693W        W 9476  39.873  10.551   0.767
42694W        W 9477  22.149   6.633  13.324
42695W        W 9478  37.273  11.831   1.886
42696W        W 9479  15.449  39.453  13.821
42697W        W 9480  13.761  22.199   3.296
42698W        W 9481  13.225  30.533  10.241
42699W        W 9482  23.997  16.624  12.031
42700W        W 9483  16.685   4.698   3.362
42701W        W 9484  11.237  16.865  11.443
42702W        W 9485  27.234  35.582   3.314
42703W        W 9486   9.251   8.793  11.575
42704W        W 9487  24.039  31.138  13.808
42705W        W 9488   0.151  20.755   3.731
42706W        W 9489  18.525  30.797  14.435
42707W        W 9490  40.586   9.598  13.406
42708W        W 9491  25.640  40.856  12.888
42709W        W 9492  40.510  43.975   2.244
42710W        W 9493  27.359  32.259  13.771
42711W        W 9494   8.871   7.724  14.310
42712W        W 9495  36.766  41.397  13.778
42713W        W 9496  35.094  16.995  13.395
42714W        W 9497   1.805  32.804  13.284
42715W        W 9498  21.322   2.759   0.985
42716W        W 9499  27.400  41.891  14.764
42717W        W 9500  31.916   7.378  12.111
42718W        W 9501  12.349  37.117   5.201
42719W        W 9502  22.727   0.350  14.029
42720W        W 9503  22.367  37.094  10.872
42721W        W 9504  21.293  21.323  12.590
42722W        W 9505  32.194  10.347   3.726
42723W        W 9506  24.671   7.707   1.483
42724W        W 9507  14.517  24.037  14.475
42725W        W 9508  35.504   4.954   1.392
42726W        W 9509  28.915   2.440   0.580
42727W        W 9510   9.703  27.621   1.250
42728W        W 9511  27.069  21.237   3.010
42729W        W 9512   1.279  16.593   2.819
42730W        W 9513   4.613  10.837  12.531
42731W        W 9514  18.404  15.724   0.665
42732W        W 9515  10.895  27.321   0.764
42733W        W 9516  36.041   2.380   1.870
42734W        W 9517  34.868   8.407   2.179
42735W        W 9518  22.633  32.673   4.134
42736W        W 9519  16.588  35.602   0.313
42737W        W 9520   1.866  11.844  13.907
42738W        W 9521  12.597  41.255   0.730
42739W        W 9522  43.284  22.360   1.297
42740W        W 9523  27.544  24.038  13.041
42741W        W 9524  35.058  26.049  10.677
42742W        W 9525   7.240  25.074   0.427
42743W        W 9526  21.589  14.052   4.297
42744W        W 9527  36.975  13.621  11.552
42745W        W 9528  15.989  15.485   5.361
42746W        W 9529  39.424   0.803  12.860
42747W        W 9530  31.278  29.372   2.356
42748W        W 9531  44.772  34.564   0.430
42749W        W 9532  31.790   1.477   2.397
42750W        W 9533   3.344  36.853   5.063
42751W        W 9534  37.891  40.534  12.496
42752W        W 9535  28.901  34.494  13.133
42753W        W 9536  39.093  43.813  13.814
42754W        W 9537  31.323  40.040  13.859
42755W        W 9538  23.921   5.892  11.522
42756W        W 9539  28.205   4.825  12.915
42757W        W 9540   0.807   3.485   0.357
42758W        W 9541  35.846   7.222   3.324
42759W        W 9542   6.773  19.218   3.232
42760W        W 9543   6.821  43.854   2.394
42761W        W 9544  27.544   9.328   1.408
42762W        W 9545  39.680  12.326   4.196
42763W        W 9546  14.381  30.372  11.972
42764W        W 9547  18.787  31.657   0.401
42765W        W 9548   5.822  40.078   4.405
42766W        W 9549  10.336  32.391   1.726
42767W        W 9550  39.042  36.040  14.202
42768W        W 9551  27.627  44.901   2.916
42769W        W 9552  33.983  36.395   3.685
42770W        W 9553  23.641  36.969   1.600
42771W        W 9554  19.391  40.094  12.453
42772W        W 9555   5.987  22.349   2.236
42773W        W 9556   5.859  20.602   1.197
42774W        W 9557  24.078  44.554   1.008
42775W        W 9558  42.380  23.165   0.348
42776W        W 9559  14.273  14.101  11.546
42777W        W 9560  43.029   0.226   3.076
42778W        W 9561  17.584   0.683   3.346
42779W        W 9562  18.105  26.013   2.837
42780W        W 9563  26.486  14.591  10.701
42781W        W 9564  10.971  19.762   2.416
42782W        W 9565  42.697   6.068  10.240
42783W        W 9566  11.091  22.114  12.885
42784W        W 9567  16.813  21.580   4.321
42785W        W 9568  38.649   2.842  14.119
42786W        W 9569  36.478  15.767  11.420
42787W        W 9570  11.067  21.703   3.437
42788W        W 9571  28.389  23.350   2.190
42789W        W 9572   4.765   4.873  12.078
42790W        W 9573   7.866  12.300   0.355
42791W        W 9574  43.007  23.227  12.572
42792W        W 9575   5.797  19.224   1.687
42793W        W 9576  41.975  35.407   0.913
42794W        W 9577  40.367  26.500   4.690
42795W        W 9578  23.994  42.409   2.597
42796W        W 9579  28.652  23.160  13.846
42797W        W 9580  36.013   1.053  11.916
42798W        W 9581  18.247   7.943  14.309
42799W        W 9582   2.240  11.840  14.280
42800W        W 9583   5.925   7.477   3.243
42801W        W 9584  32.372  37.092   4.142
42802W        W 9585  25.638  10.853  10.734
42803W        W 9586  43.970  17.096  11.566
42804W        W 9587  43.387  11.120  10.159
42805W        W 9588  37.403   0.079  12.543
42806W        W 9589   1.664  20.787   1.786
42807W        W 9590  39.277  29.358  13.465
42808W        W 9591  10.422  31.015   3.702
42809W        W 9592  21.316  36.349  13.372
42810W        W 9593   4.026  22.548  11.131
42811W        W 9594  37.335  39.019   2.143
42812W        W 9595  38.058  17.048   2.219
42813W        W 9596   8.759  29.419   4.469
42814W        W 9597  37.406  44.464  14.478
42815W        W 9598  15.918  20.625   3.342
42816W        W 9599  12.235   6.303   1.763
42817W        W 9600  23.681   3.991  13.436
42818W        W 9601  41.663   7.455   2.956
42819W        W 9602  22.724  12.810  13.372
42820W        W 9603  13.373  20.645  10.943
42821W        W 9604  39.745  13.045   4.041
42822W        W 9605  10.190  40.833  14.964
42823W        W 9606  19.021  44.897  10.951
42824W        W 9607  37.126  39.530  10.611
42825W        W 9608   3.361  11.607  13.527
42826W        W 9609  31.023   7.463   0.242
42827W        W 9610  11.342  27.518   0.966
42828W        W 9611  29.586  34.691   2.861
42829W        W 9612  35.879   3.735  12.190
42830W        W 9613  44.293  16.251  12.658
42831W        W 9614  29.544  38.546  10.183
42832W        W 9615  35.780   9.833   2.508
42833W        W 9616  24.971  20.526   0.454
42834W        W 9617  22.598  44.798  10.711
42835W        W 9618  14.307   8.329  12.575
42836W        W 9619   2.385  29.591   0.796
42837W        W 9620   2.309  43.480  13.820
42838W        W 9621  32.948  15.653  13.949
42839W        W 9622   7.963  14.531  12.431
42840W        W 9623  34.983   1.806  13.455
42841W        W 9624  20.997  22.230   1.901
42842W        W 9625  37.983  18.840  11.241
42843W        W 9626   1.205  16.122  12.719
42844W        W 9627  11.707  15.806  14.440
42845W        W 9628  42.308   3.545   1.217
42846W        W 9629   5.963  22.551   3.121
42847W        W 9630  40.533  18.089  10.666
42848W        W 9631  40.975   3.561   1.853
42849W        W 9632  31.629  12.924   2.385
42850W        W 9633   6.990   3.114  11.951
42851W        W 9634  17.766   2.781  12.040
42852W        W 9635   7.215  41.102   0.283
42853W        W 9636   4.911   9.369   0.915
42854W        W 9637  15.329  27.210  10.365
42855W        W 9638   7.181   9.679   1.103
42856W        W 9639  20.131  39.467   0.837
42857W        W 9640  18.096   6.371   1.277
42858W        W 9641   1.092  44.457  14.795
42859W        W 9642  35.108  15.691   9.924
42860W        W 9643  41.496   1.222   0.513
42861W        W 9644  21.810   2.283   1.800
42862W        W 9645  13.055   2.811  10.828
42863W        W 9646  21.734  12.957  13.580
42864W        W 9647  20.996  20.480  12.916
42865W        W 9648  24.067  27.554  11.232
42866W        W 9649  33.585  27.190   2.745
42867W        W 9650   9.735  31.869  11.058
42868W        W 9651   4.341   5.131  14.840
42869W        W 9652  33.372   0.994   5.121
42870W        W 9653  40.187  22.582  10.601
42871W        W 9654  25.030  29.324  12.744
42872W        W 9655  25.034   5.775  12.416
42873W        W 9656  18.711  26.884  12.399
42874W        W 9657   9.130  31.707  10.973
42875W        W 9658   1.750  39.016  11.019
42876W        W 9659  20.092   3.240  10.692
42877W        W 9660  23.921  43.003  12.413
42878W        W 9661  29.491  24.702   3.792
42879W        W 9662  29.782  29.088  12.666
42880W        W 9663   1.834  33.419   1.943
42881W        W 9664   3.159   1.773  12.598
42882W        W 9665  13.235  41.110   3.411
42883W        W 9666  35.896  10.325  13.507
42884W        W 9667  32.361  25.470  13.847
42885W        W 9668  39.550  27.571   1.742
42886W        W 9669  26.551  39.667   0.780
42887W        W 9670  11.364  34.164  11.139
42888W        W 9671  26.974  33.415  13.055
42889W        W 9672  29.225  14.354   4.078
42890W        W 9673  12.677  20.660  14.697
42891W        W 9674  13.492   0.399   3.658
42892W        W 9675  21.295  24.712   2.989
42893W        W 9676  41.531  29.512   4.177
42894W        W 9677  35.817  18.670   5.296
42895W        W 9678  39.939  17.023   0.449
42896W        W 9679  26.422  12.370   2.802
42897W        W 9680  11.046  18.876   3.686
42898W        W 9681  23.454   0.199   1.899
42899W        W 9682  30.424  35.034   4.739
42900W        W 9683  31.573  21.013   9.949
42901W        W 9684  11.665  22.401  13.552
42902W        W 9685  44.502  42.371   4.569
42903W        W 9686  15.644  10.678  12.482
42904W        W 9687  33.364   2.231  14.531
42905W        W 9688  29.813  41.526   2.275
42906W        W 9689   1.069   4.750  11.134
42907W        W 9690   9.069  32.432   1.865
42908W        W 9691  18.163  19.295  12.998
42909W        W 9692  35.063  25.756  12.040
42910W        W 9693  41.517  13.759   1.296
42911W        W 9694  36.580  34.373   3.236
42912W        W 9695  36.789  35.766  11.079
42913W        W 9696  28.161   4.950  11.125
42914W        W 9697  39.107  20.717  13.893
42915W        W 9698  24.131  14.130   5.393
42916W        W 9699  41.966  44.865   1.963
42917W        W 9700   0.888   6.238   0.014
42918W        W 9701   0.432  27.705  14.692
42919W        W 9702  13.007  42.471  11.643
42920W        W 9703  35.516   8.058   0.116
42921W        W 9704  27.532  39.687  12.014
42922W        W 9705  43.860   4.268   1.774
42923W        W 9706  41.571  25.452  11.386
42924W        W 9707  25.315  17.114  13.760
42925W        W 9708  26.032  28.642  10.364
42926W        W 9709   4.958  25.157   4.130
42927W        W 9710  16.117  16.062   1.055
42928W        W 9711   2.826  43.355  11.689
42929W        W 9712   6.127  10.676   4.031
42930W        W 9713  24.844  11.247  10.406
42931W        W 9714  20.217  25.228   4.203
42932W        W 9715  27.180  13.319   4.170
42933W        W 9716  40.341  40.598   1.402
42934W        W 9717  17.758  29.867  12.138
42935W        W 9718  28.281   2.228  13.936
42936W        W 9719   2.004  13.247  12.245
42937W        W 9720   4.678  14.389  12.970
42938W        W 9721  15.817  11.728  14.434
42939W        W 9722  31.345   3.228   4.505
42940W        W 9723  42.356  41.957   1.477
42941W        W 9724  10.235  38.547   1.030
42942W        W 9725  44.663  19.797   3.652
42943W        W 9726  41.902   6.324  12.900
42944W        W 9727  18.030  16.470  10.714
42945W        W 9728  12.185  38.182  10.700
42946W        W 9729  25.093  19.907  11.648
42947W        W 9730  10.912  42.143  11.328
42948W        W 9731  35.145  12.567  14.472
42949W        W 9732  44.077  42.891  12.505
42950W        W 9733  13.273   1.001  12.878
42951W        W 9734  28.495   3.368  11.949
42952W        W 9735   1.017   1.969  14.018
42953W        W 9736  41.974  19.283  13.874
42954W        W 9737  15.553  25.166   4.010
42955W        W 9738  27.372   2.067  12.692
42956W        W 9739  32.663  16.227  11.250
42957W        W 9740  28.270  36.379  14.873
42958W        W 9741  28.967  16.641  13.896
42959W        W 9742  35.578  17.183  13.385
42960W        W 9743  13.819  12.799   2.957
42961W        W 9744   9.360   8.795   2.736
42962W        W 9745  29.485  17.351  12.901
42963W        W 9746  41.095  31.009  14.911
42964W        W 9747  30.700  23.221  13.440
42965W        W 9748  34.498  29.187  11.613
42966W        W 9749  40.830  22.102  14.528
42967W        W 9750  11.660  15.790  12.782
42968W        W 9751  16.786   7.258   0.817
42969W        W 9752   3.359  31.072  12.139
42970W        W 9753  40.814   5.127  14.802
42971W        W 9754  15.886   1.305   3.874
42972W        W 9755  12.765  43.275  12.111
42973W        W 9756  31.692  35.998   1.451
42974W        W 9757   5.609  26.405  11.630
42975W        W 9758  15.304  40.016   3.740
42976W        W 9759  20.668  31.321   1.718
42977W        W 9760  37.323  23.059   4.136
42978W        W 9761  32.666   6.342   2.245
42979W        W 9762  21.879  25.152  11.042
42980W        W 9763  41.778  10.575  11.560
42981W        W 9764   8.186  20.155   3.862
42982W        W 9765   0.013   9.840  14.411
42983W        W 9766  36.044  24.092  14.048
42984W        W 9767  38.857  29.010  14.329
42985W        W 9768   0.769   9.356  10.252
42986W        W 9769  20.099   2.530   2.178
42987W        W 9770  40.385   6.861   1.205
42988W        W 9771  31.656  28.155  11.504
42989W        W 9772  19.968   0.236  12.647
42990W        W 9773  18.922  20.537   2.477
42991W        W 9774  33.734  22.031  14.877
42992W        W 9775  22.195  39.591   1.199
42993W        W 9776   8.341  15.160  12.599
42994W        W 9777   9.527  18.471  11.133
42995W        W 9778  12.165  15.712   1.904
42996W        W 9779  39.353   6.679  11.089
42997W        W 9780  11.574  23.868  13.467
42998W        W 9781  42.839  39.002   4.983
42999W        W 9782  11.887  22.538  11.244
43000W        W 9783  37.965  31.009   1.143
43001W        W 9784  41.110  17.036   0.456
43002W        W 9785  24.135   6.719  12.838
43003W        W 9786  42.147  41.698  14.847
43004W        W 9787  36.318  37.708  12.957
43005W        W 9788   2.521  13.203  13.233
43006W        W 9789  23.449  11.586   4.071
43007W        W 9790   1.152  44.925   2.626
43008W        W 9791  26.466   1.875   1.522
43009W        W 9792   1.829  38.465  12.475
43010W        W 9793  19.532   8.938  14.919
43011W        W 9794  42.846   3.846   0.292
43012W        W 9795  14.550   6.717   0.300
43013W        W 9796  34.995  14.638  13.044
43014W        W 9797  41.829  31.053   4.581
43015W        W 9798  39.321  37.027   4.245
43016W        W 9799  25.125  33.615   0.300
43017W        W 9800  15.592  24.120   4.594
43018W        W 9801  37.985  13.304  11.980
43019W        W 9802   8.353  12.328  12.094
43020W        W 9803  11.668  13.677  14.004
43021W        W 9804  15.343  25.963   3.232
43022W        W 9805   4.299   5.803  12.529
43023W        W 9806  13.820   7.781  11.000
43024W        W 9807   6.992   3.345   0.243
43025W        W 9808  21.785  11.880   2.822
43026W        W 9809  40.882  15.114   5.156
43027W        W 9810  28.456  14.817   4.917
43028W        W 9811  25.342  20.790   2.453
43029W        W 9812  43.514  24.610  13.808
43030W        W 9813  16.226  40.366   1.391
43031W        W 9814  27.570  22.293   0.367
43032W        W 9815  27.031  14.507   1.245
43033W        W 9816  20.059  17.759  13.109
43034W        W 9817   9.407  21.859  14.877
43035W        W 9818   3.493  24.990  12.692
43036W        W 9819  22.724   2.068   1.357
43037W        W 9820  18.774  41.843  14.950
43038W        W 9821  40.377   1.312  10.706
43039W        W 9822  43.318  44.396  12.020
43040W        W 9823  26.733   7.379  14.004
43041W        W 9824  32.298  31.455  12.041
43042W        W 9825  30.953  25.161   2.317
43043W        W 9826  17.046  39.263   4.073
43044W        W 9827   9.910   3.644  12.011
43045W        W 9828  22.061  22.738   4.498
43046W        W 9829  19.667  14.524   3.596
43047W        W 9830  30.886   6.718  14.858
43048W        W 9831  14.998   8.300  11.084
43049W        W 9832  23.529  19.086  12.121
43050W        W 9833  11.717  23.706  11.737
43051W        W 9834  31.328  32.479  11.480
43052W        W 9835  42.981  33.331  14.887
43053W        W 9836  22.549   1.403  12.634
43054W        W 9837  16.195  14.166   0.704
43055W        W 9838  24.547  22.005   1.784
43056W        W 9839   4.805  18.135  12.553
43057W        W 9840  15.333  20.798  12.242
43058W        W 9841   2.643   2.442   2.386
43059W        W 9842  29.584  30.901  13.427
43060W        W 9843  20.523  30.809   1.696
43061W        W 9844   7.678   0.885  11.247
43062W        W 9845  17.627   5.907   4.702
43063W        W 9846  19.228  15.832   1.000
43064W        W 9847  12.776  31.578  12.497
43065W        W 9848  30.245  13.780  13.876
43066W        W 9849  31.591   4.621   2.251
43067W        W 9850  16.884  42.197   1.423
43068W        W 9851  21.356  37.080   3.090
43069W        W 9852  42.025  23.926   4.571
43070W        W 9853   9.344  21.168   2.784
43071W        W 9854  26.664  16.228   2.325
43072W        W 9855  36.113  28.737   2.769
43073W        W 9856  32.359   2.834   3.408
43074W        W 9857  18.505  32.485  10.756
43075W        W 9858  11.388  19.271   3.791
43076W        W 9859   0.877  17.305   2.732
43077W        W 9860  24.700  41.482  13.630
43078W        W 9861  33.741  38.839   3.083
43079W        W 9862  29.453   9.432  11.907
43080W        W 9863  32.327   8.652   2.263
43081W        W 9864   0.771   1.990   0.496
43082W        W 9865  26.448   2.759   1.422
43083W        W 9866  12.639  23.388   3.724
43084W        W 9867  10.214  21.491  11.965
43085W        W 9868  17.645  36.248  14.916
43086W        W 9869  32.968  11.382  14.294
43087W        W 9870   3.615  15.121   0.720
43088W        W 9871   9.253  33.871   2.310
43089W        W 9872  11.619  10.233  11.658
43090W        W 9873   7.415   7.935  14.109
43091W        W 9874  11.868  37.952  14.738
43092W        W 9875  39.012  27.025   2.589
43093W        W 9876  17.106   6.931   4.424
43094W        W 9877   8.933  41.383   1.839
43095W        W 9878  43.954  24.538   1.384
43096W        W 9879  39.435  26.517   4.559
43097W        W 9880  11.763  16.625   0.695
43098W        W 9881  28.949   2.428   3.631
43099W        W 9882  15.566   6.339   1.849
43100W        W 9883   4.062  44.492  11.981
43101W        W 9884  43.696  27.714  12.903
43102W        W 9885   2.689  42.552   3.361
43103W        W 9886   1.886   3.390   1.274
43104W        W 9887  41.508   2.138   1.668
43105W        W 9888  15.797  10.191   1.549
43106W        W 9889   6.158   8.839  11.059
43107W        W 9890  31.536   9.141   3.260
43108W        W 9891  26.926  39.776  14.925
43109W        W 9892  19.095  31.603  11.672
43110W        W 9893   1.653  27.863   2.368
43111W        W 9894  26.541  15.000  11.366
43112W        W 9895   5.226  21.174  11.604
43113W        W 9896  29.700  36.081  11.232
43114W        W 9897   9.761  37.424   4.522
43115W        W 9898  41.886  37.713  13.070
43116W        W 9899  21.203   8.953   2.139
43117W        W 9900  40.463  19.071   4.345
43118W        W 9901  42.808  39.243  13.480
43119W        W 9902  14.435  28.231  13.834
43120W        W 9903  38.517  35.011  12.963
43121W        W 9904  13.352  43.329   4.135
43122W        W 9905  44.066   1.242   1.705
43123W        W 9906  32.048  27.662   2.220
43124W        W 9907  31.657   7.685  12.879
43125W        W 9908   7.658   1.158   4.494
43126W        W 9909  36.262  13.114   1.799
43127W        W 9910  11.229  33.531   4.833
43128W        W 9911   1.459   2.278  13.957
43129W        W 9912  40.737  37.626   2.323
43130W        W 9913  13.083   2.201  12.477
43131W        W 9914   6.139  43.832   2.816
43132W        W 9915  27.250  10.761  10.805
43133W        W 9916  43.221  40.732   4.713
43134W        W 9917  10.826   0.248   4.680
43135W        W 9918  43.264  11.624  11.611
43136W        W 9919  33.081  21.197  11.026
43137W        W 9920  31.624  13.643  10.691
43138W        W 9921  34.162  20.263  14.696
43139W        W 9922  14.186  14.700   0.005
43140W        W 9923  31.346  40.988  12.118
43141W        W 9924   8.319  18.525  11.480
43142W        W 9925  23.892   0.982   1.867
43143W        W 9926  37.355  38.379   3.113
43144W        W 9927   8.403  36.076  12.942
43145W        W 9928  13.434   0.820   4.102
43146W        W 9929   9.347   6.449   4.053
43147W        W 9930  26.650  33.856   4.135
43148W        W 9931  11.808  29.404   0.037
43149W        W 9932  33.928  44.205   4.309
43150W        W 9933  42.043  18.168  11.565
43151W        W 9934  40.850   2.439  13.892
43152W        W 9935  29.517  28.387   2.741
43153W        W 9936  29.546  13.381  10.427
43154W        W 9937  24.941   6.313  13.104
43155W        W 9938  14.801  10.351   2.139
43156W        W 9939   5.248   8.467  11.388
43157W        W 9940   7.779  20.525   1.889
43158W        W 9941  13.800   2.962   1.425
43159W        W 9942   1.276  35.844  13.608
43160W        W 9943   6.846   2.349   3.813
43161W        W 9944   4.167  10.249   3.928
43162W        W 9945  17.052  38.858  11.435
43163W        W 9946  33.767  26.994   1.795
43164W        W 9947  24.923   7.846  14.768
43165W        W 9948  41.885   0.441  10.500
43166W        W 9949  38.430   9.429  10.801
43167W        W 9950  18.249  44.926  13.840
43168W        W 9951   1.824  36.429   4.582
43169W        W 9952   7.750  35.586  12.502
43170W        W 9953  36.609  23.746   0.724
43171W        W 9954  35.540  36.462  10.985
43172W        W 9955  14.471  44.443  11.654
43173W        W 9956  20.154  26.449  10.013
43174W        W 9957  19.285  32.297  14.927
43175W        W 9958  43.745  11.653  12.412
43176W        W 9959  22.584  31.707   4.523
43177W        W 9960  20.418  37.900   3.697
43178W        W 9961  41.943   3.264  10.913
43179W        W 9962  14.817   9.889  11.900
43180W        W 9963  36.297  37.011   1.263
43181W        W 9964  40.172   4.391   1.785
43182W        W 9965   2.299   5.124  11.845
43183W        W 9966  26.034  37.484  13.023
43184W        W 9967  25.507  10.832  13.014
43185W        W 9968  24.565   6.880  14.998
43186W        W 9969  36.225  42.775  14.429
43187W        W 9970   0.242  14.712  13.964
43188W        W 9971  27.140  19.211  13.366
43189W        W 9972  11.243  13.789   4.805
43190W        W 9973  22.639  20.427  12.458
43191W        W 9974  41.932  12.854   0.734
43192W        W 9975  19.131  36.096  13.325
43193W        W 9976  41.919  21.178   2.308
43194W        W 9977  27.781  15.355  12.993
43195W        W 9978   5.986   6.149  11.641
43196W        W 9979  28.054  31.627   5.075
43197W        W 9980  40.636  16.242   2.833
43198W        W 9981   2.487   1.708   2.912
43199W        W 9982  21.693  25.685   5.465
43200W        W 9983  23.624  44.832  12.336
43201W        W 9984  37.693   0.270   4.620
43202W        W 9985  32.118  41.334   2.128
43203W        W 9986  25.653  30.884  14.626
43204W        W 9987  18.292  17.221   5.484
43205W        W 9988  27.126  20.452  10.658
43206W        W 9989  18.219  35.001   2.216
43207W        W 9990  10.738  37.016  13.873
43208W        W 9991  33.187  18.121   0.853
43209W        W 9992   2.210   7.440  13.827
43210W        W 9993   5.791   8.911  13.495
43211W        W 9994  33.056   7.004   2.779
43212W        W 9995  23.051  42.528   2.855
43213W        W 9996  37.862  20.234  11.317
43214W        W 9997  14.098  34.055   0.764
43215W        W 9998  27.097  43.282  10.668
43216W        W 9999  34.531  38.492   1.578
43217W        W10000  32.761  10.609   1.010
43218W        W10001  22.116  23.043   0.295
43219W        W10002  13.676  38.516  13.098
43220W        W10003  15.336  12.289  13.884
43221W        W10004  18.099  22.071   2.639
43222W        W10005  31.867  31.146   4.066
43223W        W10006  28.478   7.238   4.820
43224W        W10007   1.795   8.979  14.917
43225W        W10008   8.637   7.811   4.888
43226W        W10009  42.814   4.991  12.545
43227W        W10010  23.463   8.432   3.805
43228W        W10011  29.509   0.483   4.545
43229W        W10012  32.926  44.355  14.432
43230W        W10013  13.054   3.320   4.015
43231W        W10014  10.642  35.885   4.229
43232W        W10015  40.325  32.311   1.204
43233W        W10016  24.074  44.337  14.321
43234W        W10017  23.932  22.137  11.006
43235W        W10018  37.525  26.857   1.893
43236W        W10019  34.516  23.023  12.408
43237W        W10020  34.049  37.858  11.576
43238W        W10021  42.035   3.338  11.417
43239W        W10022  26.711  13.168  11.667
43240W        W10023  23.105   8.872  12.585
43241W        W10024  22.580  28.053  14.058
43242W        W10025  28.289   1.743   2.702
43243W        W10026  35.341  30.407  11.646
43244W        W10027  21.340  25.479   1.525
43245W        W10028   1.325  26.945  12.325
43246W        W10029  13.657  24.005  14.735
43247W        W10030  32.914   1.048  13.772
43248W        W10031  17.686  14.293  12.505
43249W        W10032   3.163   6.234  11.174
43250W        W10033  24.752  31.160  12.158
43251W        W10034  14.810  22.581   2.232
43252W        W10035  13.479  17.950  14.016
43253W        W10036  38.149   2.682  14.030
43254W        W10037  32.948   7.405  12.300
43255W        W10038  10.974  43.408   4.135
43256W        W10039  25.160  20.062  12.127
43257W        W10040  10.710   0.999   1.098
43258W        W10041  29.835  19.219   0.960
43259W        W10042  21.540  25.331   9.838
43260W        W10043  41.902  40.256  13.996
43261W        W10044  43.527  43.921   1.700
43262W        W10045  31.196  19.674  14.834
43263W        W10046  20.151  36.143   0.459
43264W        W10047  12.161  40.970  14.909
43265W        W10048  40.858  21.569   0.206
43266W        W10049  31.020  20.540   0.714
43267W        W10050  27.072   6.945  13.478
43268W        W10051  19.224  29.193  12.551
43269W        W10052  25.416  37.839   5.468
43270W        W10053  19.082   3.843  14.894
43271W        W10054   8.360  42.433  13.753
43272W        W10055   1.942  37.867   2.870
43273W        W10056  31.603  32.056  12.970
43274W        W10057  44.144  37.299   4.157
43275W        W10058  32.507   9.727   3.831
43276W        W10059  38.784  14.094   3.210
43277W        W10060  41.989  10.298  12.483
43278W        W10061  43.285  17.869   9.855
43279W        W10062   8.065  14.804  12.870
43280W        W10063  17.855  29.334  12.997
43281W        W10064   1.478  24.497  13.802
43282W        W10065  11.574   5.023   1.835
43283W        W10066  22.853  33.024  14.212
43284W        W10067  36.963   1.883  11.351
43285W        W10068  37.620  19.517   2.392
43286W        W10069   2.413   1.196  11.566
43287W        W10070  29.331  35.968   5.087
43288W        W10071  16.961  31.966  13.939
43289W        W10072  32.424  11.927   0.793
43290W        W10073  39.022  42.912   2.643
43291W        W10074   7.698   6.836  13.467
43292W        W10075  28.005  19.266  12.080
43293W        W10076   1.114  26.276   3.921
43294W        W10077  10.829  21.235  10.869
43295W        W10078  10.340   8.771  13.477
43296W        W10079  27.871  14.374  10.206
43297W        W10080  15.277  21.053   5.009
43298W        W10081  29.424  20.435   0.044
43299W        W10082  25.423  23.169  14.039
43300W        W10083   9.351  25.493  14.344
43301W        W10084  28.029  19.334   4.537
43302W        W10085  35.374  38.920  10.445
43303W        W10086  19.499  42.332  11.932
43304W        W10087   2.893   0.483   2.564
43305W        W10088   0.097  22.795   1.945
43306W        W10089  12.812  20.499  10.711
43307W        W10090  18.309  40.775   3.254
43308W        W10091  20.634  19.541   3.430
43309W        W10092   5.917   1.005   3.161
43310W        W10093  36.879  35.908   4.708
43311W        W10094  19.261   0.687  14.790
43312W        W10095  21.256  34.602   0.264
43313W        W10096  44.208  28.632   1.743
43314W        W10097  23.598   4.853   9.767
43315W        W10098  13.820   7.872   3.809
43316W        W10099  35.599  19.596   3.216
43317W        W10100  40.814   6.698   4.066
43318W        W10101   8.367  37.354  13.938
43319W        W10102  27.495   9.445  13.526
43320W        W10103  42.524  40.390  10.634
43321W        W10104  37.168   3.347   4.641
43322W        W10105  18.755   2.983   3.619
43323W        W10106  15.195   4.464   1.705
43324W        W10107  14.874  15.566   2.388
43325W        W10108  26.848   3.494   0.875
43326W        W10109   3.426  24.951  12.189
43327W        W10110  30.131  23.049   0.549
43328W        W10111  18.984  44.467  13.385
43329W        W10112  38.942  16.712   3.314
43330W        W10113  44.247  30.416   3.786
43331W        W10114  11.197  38.100  12.507
43332W        W10115  19.314  17.516  14.873
43333W        W10116  34.840  14.069  11.929
43334W        W10117  40.637  20.869   4.453
43335W        W10118  39.374  40.007  14.371
43336W        W10119   3.905  13.647   3.416
43337W        W10120   1.266  43.790  11.839
43338W        W10121  35.705   6.352   2.134
43339W        W10122  31.591   9.337  13.142
43340W        W10123  39.117  26.674  14.925
43341W        W10124  23.952  23.705  10.272
43342W        W10125  11.560  19.777   4.805
43343W        W10126  33.373  34.491  11.542
43344W        W10127  41.029  16.246  13.600
43345W        W10128  19.273   3.293  11.427
43346W        W10129  38.555  20.050   3.134
43347W        W10130  13.825  34.211   3.007
43348W        W10131  22.704   0.551  12.908
43349W        W10132  23.451  42.044  13.258
43350W        W10133  41.846  26.612   4.638
43351W        W10134   3.311  16.887   0.306
43352W        W10135  28.346  11.764  10.709
43353W        W10136  10.807  14.573  11.585
43354W        W10137  19.131   0.930  10.732
43355W        W10138  29.984  18.795   4.290
43356W        W10139   0.302   0.791   3.716
43357W        W10140   7.760  17.363  14.251
43358W        W10141  28.977  35.033   3.681
43359W        W10142  36.338  17.966   3.227
43360W        W10143  29.282   1.834   3.307
43361W        W10144  29.279  11.067   2.857
43362W        W10145  10.372  29.444  10.186
43363W        W10146   8.635  19.684   0.287
43364W        W10147  23.179  29.701   0.450
43365W        W10148  16.291  29.961   2.188
43366W        W10149  20.329   9.570   0.927
43367W        W10150  26.833   7.698   2.320
43368W        W10151  43.909  28.065   0.844
43369W        W10152   8.953   0.506  12.083
43370W        W10153   0.390  21.453   0.384
43371W        W10154  13.581  15.299  12.143
43372W        W10155  18.806  22.740   4.173
43373W        W10156   6.684  38.487   0.378
43374W        W10157  12.181  19.145  11.531
43375W        W10158  13.483  13.609  11.746
43376W        W10159  42.471  22.151   3.548
43377W        W10160  23.720  41.734  12.923
43378W        W10161   0.556  18.820   3.224
43379W        W10162  12.901  26.038  11.089
43380W        W10163  27.406  29.995  13.632
43381W        W10164  41.578  17.700   4.823
43382W        W10165   8.558  37.395  14.942
43383W        W10166   4.864  23.779  12.788
43384W        W10167   5.701  25.078  10.890
43385W        W10168  23.118  41.988  14.008
43386W        W10169  15.744   3.733  14.464
43387W        W10170  30.687  27.529  12.794
43388W        W10171  15.318  25.793  11.469
43389W        W10172   0.007  35.972   4.591
43390W        W10173  30.359   6.425  11.112
43391W        W10174  16.013  16.317  13.235
43392W        W10175  18.813  31.744  11.074
43393W        W10176  19.665  35.054  12.990
43394W        W10177  11.351  12.641   1.237
43395W        W10178  19.998   8.212  12.438
43396W        W10179   8.174  22.639   3.242
43397W        W10180  29.890  35.967  13.744
43398W        W10181  22.626  28.717  13.436
43399W        W10182  44.444  44.453   2.416
43400W        W10183   9.360  36.653  11.811
43401W        W10184  44.590  39.915   4.140
43402W        W10185  31.528  28.344   0.302
43403W        W10186   9.050   7.731  12.530
43404W        W10187  16.751  12.743   4.922
43405W        W10188  18.727  29.361   4.571
43406W        W10189   6.349  42.472   3.887
43407W        W10190   3.946  18.054   2.684
43408W        W10191  41.010  39.130  10.704
43409W        W10192  43.487   9.816   1.230
43410W        W10193  40.565  12.576  12.870
43411W        W10194  11.158  12.173   3.350
43412W        W10195  15.873  32.416  13.413
43413W        W10196   4.109   5.088  14.384
43414W        W10197  22.232  21.201  12.406
43415W        W10198   7.895   5.236   4.917
43416W        W10199  12.724  17.048   0.499
43417W        W10200  40.378  19.111   3.364
43418W        W10201  23.644  38.584   4.583
43419W        W10202   6.071  21.520  14.367
43420W        W10203  41.198  40.054  10.810
43421W        W10204  18.562  23.899  11.268
43422W        W10205  20.821  42.345  11.369
43423W        W10206  15.202  20.608   3.100
43424W        W10207   2.515  20.562   3.270
43425W        W10208   9.119  32.144  10.227
43426W        W10209  43.984   9.864   0.324
43427W        W10210  12.756  44.186   4.702
43428W        W10211  42.879   7.027  10.094
43429W        W10212  42.786   4.356  13.902
43430W        W10213  29.440  35.379   4.599
43431W        W10214   6.680   3.322  10.769
43432W        W10215  10.148  22.613   1.241
43433W        W10216  22.213   5.535   4.521
43434W        W10217  29.618   1.967  12.006
43435W        W10218  14.178  43.970   3.255
43436W        W10219  26.266  17.422   0.926
43437W        W10220  43.804  25.239  14.471
43438W        W10221  28.132  17.509  10.858
43439W        W10222  12.414  24.289  14.124
43440W        W10223  21.016  14.302  11.215
43441W        W10224  27.654  27.483  13.652
43442W        W10225   3.210  23.185   4.709
43443W        W10226  24.005  20.097  10.652
43444W        W10227  12.687  18.663   4.404
43445W        W10228   7.317  34.430   3.730
43446W        W10229  22.312   2.792  14.761
43447W        W10230  38.377  24.274   0.435
43448W        W10231   5.529  24.216  11.243
43449W        W10232  33.572   4.685   2.748
43450W        W10233  28.960   6.959  13.393
43451W        W10234  34.312   2.731  13.896
43452W        W10235  34.530  31.649  14.317
43453W        W10236  34.671  22.268  13.176
43454W        W10237   9.450  21.698  13.172
43455W        W10238  33.050  13.152   3.073
43456W        W10239  15.275  20.605   4.614
43457W        W10240  19.632   2.723   4.091
43458W        W10241  21.413   6.882   0.322
43459W        W10242  33.218  42.971  13.027
43460W        W10243  41.888   4.173  11.894
43461W        W10244  41.027  22.157   4.596
43462W        W10245  13.477  32.893   3.283
43463W        W10246  22.202   2.923  12.182
43464W        W10247   2.394  22.111  12.512
43465W        W10248  24.132  19.448   0.418
43466W        W10249  17.755  33.976  14.632
43467W        W10250  27.698  43.460   3.300
43468W        W10251  29.889  11.602   2.789
43469W        W10252  24.132   7.511   1.707
43470W        W10253  21.520  37.991   4.221
43471W        W10254   4.464   2.448  14.961
43472W        W10255   5.906  44.095   3.272
43473W        W10256  24.432  13.131  10.934
43474W        W10257   5.620   3.161   2.847
43475W        W10258  43.936  37.950   1.962
43476W        W10259   0.064  34.527   1.428
43477W        W10260  44.294  40.029  10.067
43478W        W10261  27.931  29.977  12.599
43479W        W10262  19.553  24.022   0.000
43480W        W10263  33.703  28.183  10.651
43481W        W10264  35.511   9.875  11.985
43482W        W10265   0.956  42.794  12.549
43483W        W10266  23.202   5.863  13.178
43484W        W10267  36.585  13.606  10.736
43485W        W10268  33.685  32.240   1.637
43486W        W10269  17.909  37.991   4.103
43487W        W10270  10.822   2.540   4.141
43488W        W10271   7.944  10.851  11.934
43489W        W10272  41.003  31.623  14.285
43490W        W10273  34.787  16.518  11.553
43491W        W10274   4.427  25.694   2.594
43492W        W10275  20.279  42.551   0.770
43493W        W10276  38.099  32.690   1.840
43494W        W10277  20.605  19.168   4.469
43495W        W10278  18.124  26.134  13.565
43496W        W10279  33.479  40.966   3.258
43497W        W10280  44.880  13.153   3.718
43498W        W10281  19.886  32.901   4.200
43499W        W10282  29.537   9.456  10.625
43500W        W10283  14.205  43.433   3.320
43501W        W10284  18.578  13.330   3.651
43502W        W10285  34.839  20.262  11.628
43503W        W10286   6.188  12.622   1.480
43504W        W10287  13.585   8.702   0.739
43505W        W10288  40.352  23.528  10.668
43506W        W10289  10.366  18.184  10.033
43507W        W10290  24.205  10.280   1.165
43508W        W10291   6.329  23.587  14.674
43509W        W10292   7.464  15.645   0.458
43510W        W10293  29.438  31.141  11.155
43511W        W10294   0.002  22.951  14.759
43512W        W10295  23.959  41.427   5.042
43513W        W10296  24.879  43.196   1.239
43514W        W10297  42.335  38.122   1.901
43515W        W10298  40.631  35.904   1.715
43516W        W10299  30.727  20.721   9.811
43517W        W10300   8.725  30.387  12.501
43518W        W10301  27.385  35.318  13.269
43519W        W10302  27.073  19.274   0.284
43520W        W10303  13.011   6.742  11.761
43521W        W10304  14.245  10.617  13.943
43522W        W10305  10.209  24.535  12.574
43523W        W10306  38.887  26.642  11.053
43524W        W10307  42.145  27.849   4.986
43525W        W10308  20.988   6.383   3.479
43526W        W10309   8.630   3.847  14.434
43527W        W10310  28.050   8.225   2.016
43528W        W10311   5.357   8.939   3.836
43529W        W10312  44.790  34.946   4.559
43530W        W10313  34.651  32.060  12.931
43531W        W10314  10.239  36.327  11.458
43532W        W10315   5.355  32.802  14.461
43533W        W10316  20.205  26.756   5.258
43534W        W10317   3.058  25.400  13.408
43535W        W10318  17.343   3.878  12.461
43536W        W10319  32.929  33.397  11.225
43537W        W10320  13.826   9.592  12.632
43538W        W10321  30.064  12.146   3.817
43539W        W10322  12.195  29.357  12.019
43540W        W10323  20.178   8.925  12.903
43541W        W10324  44.744  43.131  13.092
43542W        W10325  41.803  11.191   2.217
43543W        W10326  20.597   5.118   3.244
43544W        W10327  19.467  32.633  11.603
43545W        W10328  27.448  43.670   0.097
43546W        W10329  23.418  23.145   4.120
43547W        W10330  32.117  11.518   0.819
43548W        W10331  27.776  34.091  10.626
43549W        W10332  29.787  34.198   3.754
43550W        W10333  25.720  36.467  12.431
43551W        W10334  23.713  25.607   2.720
43552W        W10335  27.399   1.787   1.434
43553W        W10336  25.682  28.429  10.022
43554W        W10337   6.219  16.569   4.285
43555W        W10338   7.984  29.945   4.213
43556W        W10339  25.009  21.181   2.474
43557W        W10340   1.206  34.131  10.576
43558W        W10341   0.616  39.061   4.100
43559W        W10342   1.160  37.402  12.423
43560W        W10343  11.163   4.794  12.367
43561W        W10344  17.581  44.465   1.826
43562W        W10345  18.619  42.868  11.118
43563W        W10346  22.759  39.416   1.705
43564W        W10347  21.416  42.856   1.216
43565W        W10348  27.154  23.480  12.567
43566W        W10349   8.501  42.088  14.334
43567W        W10350  23.572   9.730  13.746
43568W        W10351  36.940   5.315  10.631
43569W        W10352   1.795  32.023  13.952
43570W        W10353  25.812  33.577  14.904
43571W        W10354  13.639  39.406  13.452
43572W        W10355  17.783  18.345   1.360
43573W        W10356   6.751   1.006  11.558
43574W        W10357  24.000  44.783   2.246
43575W        W10358  16.097  33.370   4.729
43576W        W10359   0.768  38.118   1.192
43577W        W10360  19.091  27.680   4.461
43578W        W10361  40.715  41.784  11.936
43579W        W10362  21.176  16.127  10.930
43580W        W10363  26.285  38.304  10.166
43581W        W10364  14.125   2.039  11.477
43582W        W10365  18.888  24.296   5.045
43583W        W10366   6.370  17.169   2.216
43584W        W10367  19.172  20.131   3.881
43585W        W10368  32.320  27.538  10.698
43586W        W10369   3.204  26.445  12.569
43587W        W10370  40.872  18.675   1.150
43588W        W10371  26.022  17.381   3.050
43589W        W10372  13.888  10.721   2.851
43590W        W10373  22.946  28.710  13.859
43591W        W10374  27.548  17.148   1.829
43592W        W10375  36.607   7.950  10.810
43593W        W10376  43.161   0.365  12.809
43594W        W10377   3.500  32.647   0.244
43595W        W10378  36.072  15.872  13.000
43596W        W10379  31.530  25.643   4.894
43597W        W10380  25.545  44.874  14.538
43598W        W10381  26.312  39.389   4.497
43599W        W10382  32.964  42.765  12.608
43600W        W10383  23.625   4.434  14.313
43601W        W10384   0.075  41.367  11.689
43602W        W10385  23.504  29.959   2.338
43603W        W10386   0.231  43.540   3.871
43604W        W10387   3.798  15.497  10.409
43605W        W10388  34.973  39.136  13.266
43606W        W10389  42.203  34.949   0.760
43607W        W10390  31.844  17.039  10.685
43608W        W10391  23.648  17.720   4.629
43609W        W10392  28.526  35.878   4.485
43610W        W10393   9.539  35.514   0.711
43611W        W10394   1.231  33.128  12.808
43612W        W10395  14.571   4.432   4.748
43613W        W10396   6.767  32.624   2.837
43614W        W10397   5.747   9.139  12.945
43615W        W10398  26.172  22.808  14.235
43616W        W10399  26.297   6.308   3.548
43617W        W10400  25.238  36.262  12.407
43618W        W10401  30.437  43.248  11.973
43619W        W10402  44.055  40.678  13.124
43620W        W10403  34.276   1.436   4.082
43621W        W10404  14.252  29.137   4.684
43622W        W10405  20.683   6.572   1.397
43623W        W10406  32.909  32.938   1.835
43624W        W10407  30.298  25.644  11.213
43625W        W10408  35.086   2.372  10.472
43626W        W10409   7.370  40.413   1.687
43627W        W10410  16.609  29.507  14.990
43628W        W10411  23.114  40.330  13.550
43629W        W10412  11.012  20.598  14.996
43630W        W10413  39.197  19.675   0.682
43631W        W10414  13.095   5.393  13.895
43632W        W10415  32.015  10.234   1.484
43633W        W10416  20.710  21.623  14.414
43634W        W10417  36.972  20.082   4.236
43635W        W10418  43.283   3.425   0.967
43636W        W10419  30.369   3.747  11.535
43637W        W10420  21.291  32.947   4.409
43638W        W10421  11.274  23.539   4.336
43639W        W10422  26.122  34.739   3.259
43640W        W10423  28.729  43.083   4.718
43641W        W10424   3.591  39.806   2.527
43642W        W10425  16.669   1.884  11.166
43643W        W10426  23.118  12.063   2.793
43644W        W10427  16.677   7.731   2.301
43645W        W10428  35.063  18.140  11.673
43646W        W10429  32.907  27.178   2.196
43647W        W10430   3.508  42.144  11.099
43648W        W10431   7.798  24.933  13.424
43649W        W10432   2.664  12.678   3.721
43650W        W10433   6.369  43.800   2.043
43651W        W10434   1.309  43.693   2.702
43652W        W10435  40.810  15.783  13.799
43653W        W10436  27.658  28.961   0.178
43654W        W10437  28.639  41.299  11.968
43655W        W10438  34.744  14.204  13.268
43656W        W10439  39.473  19.449  13.410
43657W        W10440  12.279  29.579   1.282
43658W        W10441   6.447   0.972   0.545
43659W        W10442  44.570  44.893   1.663
43660W        W10443  28.957  23.762  14.451
43661W        W10444  40.772  42.342  14.949
43662W        W10445  14.421   5.004   3.546
43663W        W10446  16.370   6.931  11.054
43664W        W10447   2.668  27.688   2.321
43665W        W10448   0.198  40.890  14.618
43666W        W10449  10.325  21.705  14.733
43667W        W10450  21.664  27.226  14.271
43668W        W10451  44.093  11.217  12.523
43669W        W10452   0.842  32.574   4.656
43670W        W10453   4.938  21.178   3.173
43671W        W10454  35.530   4.163   0.850
43672W        W10455  21.907  16.802  14.386
43673W        W10456  36.369  21.414   2.347
43674W        W10457  23.779  40.458  14.775
43675W        W10458  22.174   5.837  14.958
43676W        W10459   4.646  10.815  13.577
43677W        W10460  20.654  35.289  11.925
43678W        W10461  34.133  43.243   1.804
43679W        W10462  34.412  43.593  13.881
43680W        W10463  19.409   5.241  13.870
43681W        W10464  44.720  23.595   4.165
43682W        W10465  25.357  10.483  11.927
43683W        W10466  14.654  19.647  14.728
43684W        W10467  12.353  17.821  11.177
43685W        W10468  20.250  30.914   2.411
43686W        W10469   8.849  44.097  13.862
43687W        W10470  35.084  43.371  14.154
43688W        W10471  12.048   9.814  14.766
43689W        W10472   2.310  32.038   2.714
43690W        W10473  20.135  34.486   4.650
43691W        W10474   9.609   5.498  13.519
43692W        W10475  40.970  15.388  13.032
43693W        W10476  29.623  25.521  14.267
43694W        W10477   9.217  37.830  14.905
43695W        W10478   3.737  14.590  10.634
43696W        W10479  38.813  16.468   3.764
43697W        W10480   7.862  37.946  12.463
43698W        W10481  14.693  35.720   9.923
43699W        W10482  12.341  14.644  11.024
43700W        W10483  34.838  39.424   2.213
43701W        W10484  22.516  24.766  13.467
43702W        W10485  12.157  33.058   4.053
43703W        W10486  20.028  10.278   2.727
43704W        W10487  21.260  35.842  12.366
43705W        W10488  42.022   1.513  10.749
43706W        W10489  43.546  22.435  12.518
43707W        W10490   4.979  33.059  13.313
43708W        W10491  14.139  10.537   1.832
43709W        W10492   1.760  41.314  14.788
43710W        W10493  32.992  25.037   4.305
43711W        W10494  10.632  16.195  11.449
43712W        W10495   3.890   6.039  14.504
43713W        W10496  17.267  28.259   3.182
43714W        W10497  44.975  37.679  11.997
43715W        W10498  23.767  21.213   4.634
43716W        W10499   2.489   8.449   1.657
43717W        W10500  30.265  21.592   0.383
43718W        W10501  41.846  16.560   3.865
43719W        W10502  42.323  41.981   1.979
43720W        W10503   0.216  19.255   3.229
43721W        W10504  32.646  27.210   1.206
43722W        W10505  11.034  44.552  12.670
43723W        W10506  35.083  15.710  12.933
43724W        W10507  19.131   0.916  14.357
43725W        W10508  11.244   6.445   3.270
43726W        W10509  19.570   3.635   3.824
43727W        W10510  34.870  44.088   1.831
43728W        W10511  24.656  11.030  12.602
43729W        W10512   9.415  16.558  14.796
43730W        W10513  38.157  34.611  10.391
43731W        W10514  25.081  17.672   2.588
43732W        W10515  31.134  21.665  13.876
43733W        W10516  16.137  26.137   3.770
43734W        W10517  39.838  13.204   4.535
43735W        W10518  13.871  16.204  11.013
43736W        W10519  12.149  14.761   1.349
43737W        W10520  22.465  12.114  12.543
43738W        W10521  38.839  31.173  12.033
43739W        W10522  36.763  15.645  13.510
43740W        W10523   6.686  38.807   0.827
43741W        W10524  19.384  10.201  10.204
43742W        W10525  11.671  37.854   2.167
43743W        W10526  15.221  41.270   4.646
43744W        W10527   6.167  44.235   1.835
43745W        W10528  11.582   4.522  12.100
43746W        W10529  19.440  37.140   0.875
43747W        W10530  22.579  39.925   5.247
43748W        W10531  31.125  14.682  10.445
43749W        W10532  43.926  13.423   2.988
43750W        W10533  17.648  31.453  14.357
43751W        W10534  15.204  44.680  11.602
43752W        W10535  32.401   0.767  13.511
43753W        W10536   8.964  39.050  12.036
43754W        W10537  10.007   1.620  12.024
43755W        W10538  30.457  32.955   1.448
43756W        W10539  26.883   7.235   3.448
43757W        W10540   8.463   8.798  11.958
43758W        W10541  30.121  12.241   4.685
43759W        W10542  38.426  11.907  11.182
43760W        W10543  43.381   2.361  12.505
43761W        W10544   6.742  33.997   2.170
43762W        W10545   4.408   1.977   4.093
43763W        W10546   0.671  34.295   4.024
43764W        W10547  21.560  30.056   3.363
43765W        W10548  28.137  43.725   3.100
43766W        W10549  44.056   4.661  10.088
43767W        W10550  26.212  23.212  14.776
43768W        W10551  25.106   5.004   0.284
43769W        W10552  22.106   4.854   3.360
43770W        W10553  35.396   0.413   0.303
43771W        W10554   6.294  19.013  12.468
43772W        W10555   4.965  14.684   2.195
43773W        W10556  22.296  24.051   2.134
43774W        W10557   2.099  13.569  11.535
43775W        W10558  29.057  25.778  11.970
43776W        W10559   3.663  15.740  14.770
43777W        W10560  24.399  14.047   1.781
43778W        W10561  22.639  24.312   3.567
43779W        W10562  22.263   5.551   2.851
43780W        W10563  17.643  41.065   3.235
43781W        W10564  32.109  31.310  12.516
43782W        W10565  35.672  21.949  14.455
43783W        W10566  28.106  13.935  12.973
43784W        W10567  29.429  36.854   1.446
43785W        W10568  20.851  32.588  10.607
43786W        W10569  11.584   2.947  11.139
43787W        W10570  27.452  20.827   1.066
43788W        W10571   8.407  43.849  13.013
43789W        W10572   3.662   2.237   3.667
43790W        W10573   2.248   4.289   3.658
43791W        W10574  29.052  24.303  13.457
43792W        W10575  14.065  38.462   2.322
43793W        W10576  23.021  26.003  14.884
43794W        W10577  15.818  40.875   3.553
43795W        W10578  44.025  22.854  14.339
43796W        W10579  31.379  23.752   3.304
43797W        W10580  44.011  17.344  12.454
43798W        W10581   1.228  21.659   1.809
43799W        W10582   1.704   1.810   2.658
43800W        W10583   7.151  31.510  11.024
43801W        W10584   3.465  19.111  12.511
43802W        W10585  43.011  14.601   1.664
43803W        W10586  15.989  14.821   2.623
43804W        W10587  15.886  43.977  12.494
43805W        W10588  11.847   1.346  12.859
43806W        W10589  29.788   7.172   3.380
43807W        W10590  34.273  42.329   3.325
43808W        W10591   9.754   6.638   0.300
43809W        W10592  38.347   7.788  10.129
43810W        W10593  15.569  36.808  12.082
43811W        W10594   2.251  31.558  10.488
43812W        W10595   6.309  31.595  12.443
43813W        W10596  33.100  20.980  13.520
43814W        W10597  32.780   0.523   4.114
43815W        W10598  40.048   4.516   3.262
43816W        W10599  39.939  43.435  10.808
43817W        W10600   6.648  15.098   4.115
43818W        W10601  40.269  18.539  10.723
43819W        W10602   5.373  14.951   1.135
43820W        W10603  37.768   6.429   3.695
43821W        W10604  27.582  21.728  10.427
43822W        W10605  41.738  22.920   1.925
43823W        W10606  19.103   2.030   2.242
43824W        W10607   0.188  31.761  11.847
43825W        W10608   4.545  26.609  14.284
43826W        W10609  28.911  39.883   3.608
43827W        W10610  18.966  37.655  12.124
43828W        W10611  28.496  34.336   2.377
43829W        W10612  35.315   0.400   4.669
43830W        W10613  15.588  12.311   5.128
43831W        W10614  17.866  16.275   0.206
43832W        W10615  41.479  44.311   2.212
43833W        W10616  38.667  34.640  10.162
43834W        W10617  41.247  18.032  14.292
43835W        W10618   2.050   7.955   4.491
43836W        W10619   2.243  13.609   1.322
43837W        W10620   5.867  22.052   0.746
43838W        W10621  19.600   8.283   3.060
43839W        W10622  29.136   0.936   4.590
43840W        W10623   4.244   4.886   3.093
43841W        W10624  39.899  13.252  13.810
43842W        W10625  32.965  19.733  13.014
43843W        W10626  38.419  42.581  10.854
43844W        W10627  18.177  14.611   3.179
43845W        W10628  31.175  38.971   2.282
43846W        W10629  11.065  14.864  10.697
43847W        W10630   3.461  33.614   3.697
43848W        W10631  25.522   6.105   1.915
43849W        W10632  42.378  22.395   0.839
43850W        W10633  31.420   4.064  14.736
43851W        W10634  12.764   5.753  12.002
43852W        W10635   9.349  33.306  14.878
43853W        W10636  37.239   7.382   4.682
43854W        W10637   6.920  33.141  12.928
43855W        W10638  32.997  22.264   1.489
43856W        W10639  17.139  10.595  11.116
43857W        W10640  22.116  33.003  12.024
43858W        W10641   3.465  43.054   1.968
43859W        W10642  15.740   3.011   2.464
43860W        W10643  10.300  10.822   3.918
43861W        W10644   0.236  43.036   1.262
43862W        W10645  39.536  24.856   3.592
43863W        W10646  30.200  13.226   3.303
43864W        W10647  11.657  26.541  14.291
43865W        W10648  30.598  12.586  10.707
43866W        W10649  38.486  36.613  12.927
43867W        W10650  18.580  21.057   1.524
43868W        W10651  12.370  39.439   0.993
43869W        W10652  42.579   6.345  14.737
43870W        W10653  29.339  15.339   2.891
43871W        W10654  23.815  43.326   2.259
43872W        W10655  27.932  24.412  13.037
43873W        W10656  44.823  11.400   4.103
43874W        W10657  27.543  10.839  14.358
43875W        W10658   9.356  20.384   1.198
43876W        W10659  31.022   1.180  13.870
43877W        W10660  24.130  38.856   1.455
43878W        W10661   6.501  16.982  13.763
43879W        W10662  26.069   7.320  11.890
43880W        W10663  37.949   2.859   2.713
43881W        W10664  26.395  25.166   1.665
43882W        W10665  11.417  19.769   3.359
43883W        W10666  26.577  30.275   1.049
43884W        W10667  24.754  18.039  13.919
43885W        W10668   5.736   7.897   0.879
43886W        W10669  33.987  17.623  14.452
43887W        W10670  44.698   4.948   3.619
43888W        W10671  11.604  34.547   0.792
43889W        W10672  29.940  30.018   4.366
43890W        W10673  39.500   6.812   3.041
43891W        W10674   7.366   8.787  13.337
43892W        W10675  42.776  17.743  14.019
43893W        W10676  41.674  34.436   2.791
43894W        W10677   4.701   6.933  14.424
43895W        W10678  19.540  33.008   0.930
43896W        W10679  43.530  39.376  13.351
43897W        W10680   1.203   1.442  14.156
43898W        W10681  17.725  18.710  14.835
43899W        W10682   2.544  19.068   0.935
43900W        W10683  14.471  10.830   3.621
43901W        W10684  17.251   4.855  10.456
43902W        W10685  44.385  12.585   3.309
43903W        W10686  29.711   3.446   4.501
43904W        W10687  33.964   7.377  12.282
43905W        W10688  40.278   3.937   2.999
43906W        W10689  30.116  42.656  10.230
43907W        W10690  39.109  17.213   3.499
43908W        W10691  25.700  18.780  11.129
43909W        W10692  37.869  19.607  13.326
43910W        W10693   4.136   7.980  11.091
43911W        W10694  11.203  17.743  10.381
43912W        W10695  17.596  35.862   3.158
43913W        W10696   7.107  39.175  11.212
43914W        W10697  30.425  34.999  11.158
43915W        W10698  20.820   0.851   3.745
43916W        W10699  42.228  36.561   1.290
43917W        W10700  14.230   2.503  14.490
43918W        W10701   1.235  24.503  14.657
43919W        W10702  28.725   0.256  13.827
43920W        W10703  19.742   5.916   4.485
43921W        W10704  31.475  14.130   1.884
43922W        W10705  28.186  10.329   3.199
43923W        W10706  26.428   6.150  10.657
43924W        W10707  14.881  20.505  14.914
43925W        W10708  19.805   5.310  14.186
43926W        W10709  41.292  22.915  12.879
43927W        W10710  32.674  16.899  12.938
43928W        W10711  20.355   9.885  13.327
43929W        W10712  13.128   5.231  11.230
43930W        W10713   5.282  42.388   0.686
43931W        W10714  10.867  43.319  12.037
43932W        W10715  24.039   1.997   0.289
43933W        W10716  37.404  32.498   1.339
43934W        W10717  24.943  26.528   2.206
43935W        W10718  22.662  12.786   3.225
43936W        W10719  38.539  11.634   2.419
43937W        W10720  43.534  26.059  12.667
43938W        W10721  15.727   9.949  12.116
43939W        W10722  34.446  40.072  11.553
43940W        W10723  45.000  38.050  12.394
43941W        W10724   0.467  31.543  13.311
43942W        W10725  17.927  40.876   2.843
43943W        W10726   3.763  15.903  13.981
43944W        W10727   8.815   8.329   1.162
43945W        W10728  25.766  27.259   3.048
43946W        W10729   4.304  33.545   3.392
43947W        W10730  38.809  33.188   3.335
43948W        W10731  28.401   3.223  10.690
43949W        W10732  15.727   5.972  14.930
43950W        W10733  17.575  13.532   3.322
43951W        W10734  12.931   6.109   4.125
43952W        W10735  43.547  29.923   4.548
43953W        W10736  10.170  43.485   1.854
43954W        W10737  13.753   2.755  14.544
43955W        W10738  10.399  42.743   3.647
43956W        W10739  23.092  20.751   0.621
43957W        W10740  18.731  30.250  13.022
43958W        W10741  21.862   6.725   2.244
43959W        W10742  17.452  37.882   9.820
43960W        W10743  29.905  12.266  10.391
43961W        W10744   8.737  15.816   2.764
43962W        W10745  23.418  18.584  12.886
43963W        W10746  26.785  15.609   0.821
43964W        W10747  35.411  16.220   1.622
43965W        W10748  12.748  27.122  12.473
43966W        W10749  33.619  34.454  14.443
43967W        W10750  22.578   6.448   3.867
43968W        W10751  36.010  20.498  12.165
43969W        W10752  20.203  40.938  11.097
43970W        W10753  29.529  22.389   1.356
43971W        W10754  15.272  22.943  13.375
43972W        W10755  20.353  40.860  14.723
43973W        W10756  12.304  37.082  14.300
43974W        W10757  40.038   5.721  11.583
43975W        W10758  32.665   8.392   1.937
43976W        W10759  14.607  41.187  14.947
43977W        W10760  11.257  42.690   0.227
43978W        W10761  34.154  14.599  14.301
43979W        W10762  44.336  33.040   4.343
43980W        W10763  23.038  34.484   4.892
43981W        W10764  35.903  12.200  10.713
43982W        W10765  10.859  14.127  14.907
43983W        W10766  41.249  30.217  12.071
43984W        W10767  39.806  33.519  12.950
43985W        W10768  44.999  22.334   2.236
43986W        W10769  35.803  44.224  10.521
43987W        W10770  13.704   7.195  10.303
43988W        W10771  14.166  10.575   3.269
43989W        W10772  26.949   1.312   0.970
43990W        W10773  36.637  12.923  14.558
43991W        W10774  42.228  43.141   2.805
43992W        W10775   0.359  36.153   4.976
43993W        W10776  26.062  10.802   2.308
43994W        W10777   3.733   2.060  12.033
43995W        W10778  12.041  18.316  14.298
43996W        W10779  15.856  22.344  13.965
43997W        W10780  41.925   1.421   3.669
43998W        W10781  26.214  26.943   3.225
43999W        W10782  19.827  44.093  12.100
44000W        W10783   5.769   0.813  11.056
44001W        W10784  10.349   2.736   3.448
44002W        W10785   6.538  44.806   1.379
44003W        W10786  10.126  11.896   4.118
44004W        W10787  23.441  26.625  14.372
44005W        W10788  39.124  15.293  13.031
44006W        W10789  31.155   6.419   0.468
44007W        W10790  16.835  37.036   2.666
44008W        W10791   4.116  26.677   0.882
44009W        W10792   6.746  36.826  11.514
44010W        W10793  17.081   2.941  13.343
44011W        W10794  23.594   5.508  14.554
44012W        W10795  14.629  27.716   2.198
44013W        W10796  13.803  19.551  11.580
44014W        W10797  35.612  22.041   3.697
44015W        W10798   2.366  27.903   0.707
44016W        W10799  15.322   2.500  14.260
44017W        W10800  43.529  20.751   2.268
44018W        W10801  26.377  43.459   4.048
44019W        W10802  16.324   2.737  11.933
44020W        W10803  43.559  12.913   0.163
44021W        W10804   2.464   5.889   4.257
44022W        W10805  27.512   0.058  12.635
44023W        W10806  23.347  18.806  13.751
44024W        W10807  20.960  26.329   3.507
44025W        W10808  33.706  12.848   0.155
44026W        W10809  18.682  10.649   0.241
44027W        W10810  27.675  22.602  14.938
44028W        W10811  38.856  31.919   3.729
44029W        W10812  38.351  44.601   1.286
44030W        W10813  22.446   0.088   4.254
44031W        W10814   4.711  36.782  12.086
44032W        W10815  22.169  19.481  10.958
44033W        W10816  39.559  26.989  11.953
44034W        W10817  26.708  15.533   3.625
44035W        W10818   3.847  17.793  10.627
44036W        W10819  35.017  19.638   1.280
44037W        W10820  31.818  13.092   0.836
44038W        W10821  14.049  10.188   4.196
44039W        W10822  33.643  38.952   1.224
44040W        W10823  14.150   8.686   1.956
44041W        W10824  36.088  37.477   2.358
44042W        W10825  25.265  25.852  14.852
44043W        W10826  21.025   0.647   1.499
44044W        W10827  21.662  19.118   2.586
44045W        W10828  16.533  14.527   2.869
44046W        W10829  43.367   9.334  12.573
44047W        W10830  10.831  30.074  13.513
44048W        W10831  35.667  41.009  14.387
44049W        W10832  36.508  13.184  14.969
44050W        W10833  26.938   5.063   0.223
44051W        W10834  35.144  21.255   2.703
44052W        W10835  44.628  32.741  11.590
44053W        W10836  12.567   9.868  13.374
44054W        W10837   1.445  27.865  11.881
44055W        W10838  16.987  38.364  11.446
44056W        W10839  10.902   7.381   4.770
44057W        W10840  35.136   8.033  14.414
44058W        W10841  31.526   7.923  11.536
44059W        W10842   0.003  30.876   3.671
44060W        W10843   1.329  23.787   4.723
44061W        W10844  12.604  26.482   3.192
44062W        W10845  14.369  38.901  11.302
44063W        W10846  43.892  31.383   2.979
44064W        W10847  14.109  41.960  12.959
44065W        W10848  20.546  36.241   1.379
44066W        W10849  33.866  38.977  12.358
44067W        W10850  44.950  31.296  11.779
44068W        W10851   1.719   8.776  11.601
44069W        W10852   5.236  20.311  10.753
44070W        W10853   2.410  20.567   1.860
44071W        W10854   2.804  22.453  10.687
44072W        W10855   8.045  41.805   4.485
44073W        W10856  26.208  42.594   3.712
44074W        W10857  28.987  22.542  11.656
44075W        W10858  21.092   2.969  14.267
44076W        W10859  11.209   2.247   2.801
44077W        W10860  34.274  37.567   3.493
44078W        W10861  11.780  43.252   3.670
44079W        W10862   5.615  14.298  11.555
44080W        W10863   6.230  10.125   4.694
44081W        W10864   8.310  31.359   3.754
44082W        W10865   0.839   8.850   3.560
44083W        W10866  14.735   0.655   0.221
44084W        W10867  23.956  42.537   1.156
44085W        W10868  43.262  34.553   4.437
44086W        W10869   2.041  20.610  12.482
44087W        W10870  13.603  35.181   3.182
44088W        W10871  26.070  13.706  14.727
44089W        W10872   3.433   4.974  12.407
44090W        W10873  26.691  22.073   3.643
44091W        W10874  42.170  14.323   4.011
44092W        W10875   2.815  37.511  11.774
44093W        W10876   0.004  35.025   1.188
44094W        W10877  21.085  40.354   4.372
44095W        W10878  21.725   4.805  14.465
44096W        W10879  44.279   5.529  12.047
44097W        W10880  37.440  38.828   1.326
44098W        W10881  10.580  10.379   0.268
44099W        W10882  37.154  14.022  13.251
44100W        W10883  11.370   9.335  11.093
44101W        W10884   2.364  37.940  13.911
44102W        W10885  16.073  25.497   1.804
44103W        W10886   0.801  12.854  12.397
44104W        W10887  32.623  35.658   1.832
44105W        W10888  38.971  17.476   4.864
44106W        W10889  17.702  39.130   2.206
44107W        W10890  44.473   6.400  12.384
44108W        W10891  24.541  42.877   3.364
44109W        W10892  31.217  25.688  12.921
44110W        W10893  10.233  27.633  12.647
44111W        W10894  20.646   2.830  14.047
44112W        W10895  14.849  39.854  12.124
44113W        W10896  40.897  21.233  13.016
44114W        W10897   1.853  18.520  12.089
44115W        W10898   3.981  33.950  11.601
44116W        W10899   1.656   3.252   4.650
44117W        W10900  35.378   3.685  11.022
44118W        W10901  38.876   9.897  13.040
44119W        W10902  29.009   7.898   2.127
44120W        W10903   5.893  37.905  14.448
44121W        W10904  41.906   0.746  13.882
44122W        W10905   9.099  23.809   5.049
44123W        W10906  39.325  21.386  14.871
44124W        W10907   3.989  35.974   4.265
44125W        W10908  36.927  27.905   0.309
44126W        W10909  11.840   8.113  13.501
44127W        W10910  31.898  14.590  14.934
44128W        W10911  33.832   2.635  11.400
44129W        W10912  17.312  14.579  14.753
44130W        W10913   6.159  10.833   9.964
44131W        W10914  23.975  14.865   0.706
44132W        W10915  32.234   9.140   2.830
44133W        W10916  17.876  32.189   1.969
44134W        W10917  16.055   9.489  11.532
44135W        W10918   3.847   9.760   0.509
44136W        W10919  31.320  32.505  12.913
44137W        W10920  28.037   0.044   3.606
44138W        W10921   6.525   8.380  13.346
44139W        W10922  20.903  31.849   5.058
44140W        W10923  16.571  27.634   4.313
44141W        W10924  41.216  15.704   2.489
44142W        W10925   0.703  19.116  12.086
44143W        W10926   7.612  17.040  10.781
44144W        W10927  10.322   3.698   2.890
44145W        W10928   9.507   0.492  12.937
44146W        W10929  11.200   8.687   1.354
44147W        W10930  33.025  31.162  13.013
44148W        W10931  33.967  26.315   4.092
44149W        W10932   9.762   0.818  14.121
44150W        W10933  11.726  29.348   4.249
44151W        W10934  16.540  31.509  11.989
44152W        W10935  43.153   5.581  13.230
44153W        W10936  27.694  39.054  12.757
44154W        W10937   2.043  10.366   1.567
44155W        W10938  19.184  26.056  13.822
44156W        W10939  42.338  33.598   0.592
44157W        W10940  33.022  29.898  12.354
44158W        W10941  31.908  23.591   4.555
44159W        W10942  43.028  20.952   4.216
44160W        W10943  30.363   8.326  11.078
44161W        W10944   7.918  27.286  13.155
44162W        W10945  37.348   1.809   1.051
44163W        W10946   3.582  34.014  14.017
44164W        W10947  30.619   4.600  13.075
44165W        W10948  22.984  42.083   2.565
44166W        W10949  16.046   0.908   4.170
44167W        W10950   5.843  23.277   0.116
44168W        W10951  18.724   3.207  14.377
44169W        W10952  16.284  33.586  13.483
44170W        W10953  24.521   1.723   4.925
44171W        W10954  36.342  34.342  13.441
44172W        W10955  39.506   9.671   4.107
44173W        W10956  28.057  20.095   4.119
44174W        W10957  40.027  29.525  11.078
44175W        W10958  44.271   1.840  12.316
44176W        W10959   3.697  10.713   0.526
44177W        W10960  25.785  16.417   4.994
44178W        W10961  23.515  33.025   3.929
44179W        W10962   9.284  25.980  14.153
44180W        W10963   1.221  40.856   0.908
44181W        W10964  31.968  29.981  10.677
44182W        W10965   1.770  22.552   0.955
44183W        W10966  35.353  30.717   4.534
44184W        W10967  32.616  16.513   1.446
44185W        W10968  22.715  32.033  13.606
44186W        W10969  41.942   8.111   1.083
44187W        W10970   8.498  10.348  12.153
44188W        W10971  44.161  24.492   0.685
44189W        W10972  39.773  33.213  13.385
44190W        W10973  22.521   6.565  12.585
44191W        W10974  40.988  28.128   0.745
44192W        W10975   6.021  22.785  14.117
44193W        W10976  10.360  16.046  14.467
44194W        W10977  19.592  35.997   1.715
44195W        W10978  32.073  20.290   1.340
44196W        W10979  11.142  33.664   0.839
44197W        W10980  44.954   9.908   4.267
44198W        W10981  38.138  26.411  14.736
44199W        W10982   0.639  36.429  13.931
44200W        W10983   6.034  35.432  12.251
44201W        W10984   5.505  36.409   2.884
44202W        W10985   0.243  12.235   1.388
44203W        W10986  35.534  26.805  11.610
44204W        W10987  42.814  12.699  11.063
44205W        W10988  44.494   0.814   2.286
44206W        W10989  26.660  28.913  12.005
44207W        W10990   7.699  27.753  11.457
44208W        W10991   9.650  33.703  12.395
44209W        W10992   4.493  34.392  13.071
44210W        W10993  29.690  38.944  14.888
44211W        W10994  25.181  16.301   1.335
44212W        W10995  38.907  12.986   4.047
44213W        W10996  11.130  26.177   1.424
44214W        W10997  10.402  33.626  12.059
44215W        W10998  15.138  11.576   2.279
44216W        W10999   6.069   4.851  14.478
44217W        W11000  27.942  35.604  14.481
44218W        W11001   5.665  32.838   0.742
44219W        W11002  34.733  28.703  13.622
44220W        W11003   2.908  30.439  11.508
44221W        W11004  32.105  40.308   2.145
44222W        W11005  10.057  36.495   3.622
44223W        W11006  21.191  14.759  13.803
44224W        W11007  36.830  18.162   2.637
44225W        W11008  23.597  11.406   2.365
44226W        W11009  20.747  17.829  13.445
44227W        W11010   8.606  44.661  11.080
44228W        W11011  34.847   9.826   2.189
44229W        W11012  30.458   0.172   4.874
44230W        W11013  39.101  14.593  12.484
44231W        W11014  18.633  24.035   3.645
44232W        W11015   2.342   9.473   3.077
44233W        W11016   7.795  28.125  13.486
44234W        W11017  31.369   6.611   1.730
44235W        W11018   6.800  16.672  14.683
44236W        W11019  18.570  11.743   1.850
44237W        W11020  23.138  10.751   4.126
44238W        W11021  17.696  41.716  13.969
44239W        W11022  16.475  41.226  11.590
44240W        W11023  13.174   5.429  14.796
44241W        W11024  11.683  25.901  12.844
44242W        W11025  35.003  16.162   4.931
44243W        W11026  25.077   8.814  13.834
44244W        W11027  36.399  40.072   4.275
44245W        W11028   4.791   2.143   4.380
44246W        W11029  40.332  32.014   0.772
44247W        W11030  29.690  14.102  14.343
44248W        W11031   7.178  10.672   4.120
44249W        W11032  38.963  11.108   0.054
44250W        W11033  39.459  37.279   4.696
44251W        W11034  37.933   8.756  12.990
44252W        W11035  26.223  18.701  11.135
44253W        W11036  10.873   6.956  13.442
44254W        W11037  41.778  12.951  13.386
44255W        W11038  12.072   8.385  13.885
44256W        W11039   0.348  10.769   3.093
44257W        W11040   6.018   3.471  12.012
44258W        W11041  28.094  44.235   3.099
44259W        W11042  18.814  10.309  14.851
44260W        W11043  34.798  33.656  13.361
44261W        W11044  44.329  44.440   1.890
44262W        W11045   0.857  35.499   0.927
44263W        W11046  23.794  32.962   1.819
44264W        W11047  36.989  32.420   0.424
44265W        W11048  32.425  19.190   4.108
44266W        W11049  10.747  13.195  11.163
44267W        W11050  44.697  40.979   3.428
44268W        W11051  38.955  18.766  13.715
44269W        W11052  42.840  35.569   4.620
44270W        W11053  22.610   4.696  10.723
44271W        W11054  30.353  32.083  11.020
44272W        W11055  21.603  30.376  11.119
44273W        W11056   0.298  32.774   2.760
44274W        W11057  29.064  44.744  13.058
44275W        W11058   6.632  13.647   0.744
44276W        W11059  11.421  23.590  14.865
44277W        W11060  25.093  24.172   2.775
44278W        W11061  31.955  31.390   4.555
44279W        W11062  40.470  34.987   1.767
44280W        W11063  31.125  20.589   1.729
44281W        W11064  24.214  40.020   1.448
44282W        W11065   5.972  36.936   4.343
44283W        W11066  23.652  36.868  10.748
44284W        W11067  34.617  10.492   3.605
44285W        W11068  19.566  18.753   1.653
44286W        W11069  22.550  22.627   2.637
44287W        W11070   3.768  10.293   3.582
44288W        W11071   8.403   0.752   4.276
44289W        W11072  30.190   4.356   2.794
44290W        W11073   5.761  23.246  14.052
44291W        W11074  29.733  22.178   5.400
44292W        W11075  19.587   8.271   3.646
44293W        W11076  33.607  25.466  10.816
44294W        W11077  38.848  35.636  11.135
44295W        W11078   1.259  41.084   1.783
44296W        W11079  34.515  25.043  14.030
44297W        W11080  13.843  13.276   4.949
44298W        W11081  10.910  33.397  11.043
44299W        W11082  11.587  36.523   9.769
44300W        W11083  41.459   2.950   1.436
44301W        W11084  26.984  21.730  14.784
44302W        W11085  25.202  31.615  14.494
44303W        W11086  11.226  41.509  14.864
44304W        W11087   8.150  32.355  12.673
44305W        W11088  23.523  15.694  10.689
44306W        W11089  23.670  39.864   3.059
44307W        W11090  23.824  43.473   9.944
44308W        W11091  13.244  42.185   1.619
44309W        W11092  13.289  40.005   0.728
44310W        W11093  33.190   9.997   5.001
44311W        W11094  43.676  21.767   0.647
44312W        W11095  12.604  38.268   3.223
44313W        W11096  23.048  15.480  12.816
44314W        W11097  39.523  35.024   2.370
44315W        W11098  18.086   5.466   4.061
44316W        W11099  37.412   7.370   0.071
44317W        W11100  17.249   8.401   2.217
44318W        W11101   5.258   4.280  12.435
44319W        W11102  17.107  41.925   0.686
44320W        W11103  26.424  12.725  12.927
44321W        W11104  20.858  38.721  11.563
44322W        W11105   5.930  30.145   0.815
44323W        W11106  10.785   0.740   2.672
44324W        W11107  31.673  42.157  11.675
44325W        W11108   8.719  25.591  10.824
44326W        W11109  37.351   2.888   0.286
44327W        W11110  28.085   0.700  13.776
44328W        W11111  40.259   3.297   3.624
44329W        W11112  21.051   9.168  12.927
44330W        W11113  19.260  23.473  13.370
44331W        W11114  43.591   0.360   4.764
44332W        W11115  31.049  37.052  10.503
44333W        W11116   1.411  35.041   1.435
44334W        W11117  28.486   9.368   4.604
44335W        W11118   8.649  25.739   0.749
44336W        W11119  33.489  41.206  14.855
44337W        W11120  10.563  31.596   1.265
44338W        W11121  31.995   8.493   0.325
44339W        W11122  15.226  28.620  13.214
44340W        W11123  11.814  36.584   1.780
44341W        W11124   3.242   9.303   3.544
44342W        W11125  36.369  19.424  12.961
44343W        W11126   7.919  22.705   1.399
44344W        W11127  41.210  35.362   0.382
44345W        W11128  40.337   6.355  14.024
44346W        W11129  41.200   5.443   1.857
44347W        W11130   4.701  12.619  12.534
44348W        W11131   4.224  13.663   0.341
44349W        W11132   7.196   1.470  14.520
44350W        W11133  12.377  16.326  13.814
44351W        W11134  38.798  42.236  14.846
44352W        W11135  26.118   9.231   2.402
44353W        W11136  37.559   2.244   2.764
44354W        W11137  24.628  27.626   9.939
44355W        W11138  27.509  16.312  10.609
44356W        W11139  15.516   4.867  12.019
44357W        W11140  13.048   0.262   3.424
44358W        W11141   8.335  11.258  12.979
44359W        W11142  16.079  35.833  11.578
44360W        W11143   9.878  18.844   1.674
44361W        W11144  38.123  18.750  11.751
44362W        W11145  32.432  32.191  12.495
44363W        W11146  16.121  29.805   0.914
44364W        W11147   6.563   6.798   2.148
44365W        W11148   2.687  19.488   2.148
44366W        W11149  26.403  27.702  13.021
44367W        W11150  26.739  31.004  13.838
44368W        W11151   2.765   3.360  10.691
44369W        W11152  35.900   4.749   3.661
44370W        W11153   3.253   7.735   4.989
44371W        W11154   5.806   9.159  14.273
44372W        W11155  39.558  24.693  10.741
44373W        W11156  37.303   7.191   0.540
44374W        W11157  18.838  38.392  13.860
44375W        W11158  12.951   3.333  12.078
44376W        W11159  20.850  41.383  11.986
44377W        W11160  10.063  30.374  11.206
44378W        W11161  25.557  19.670  10.643
44379W        W11162  35.974  22.197   0.352
44380W        W11163   5.710  13.485  11.133
44381W        W11164  32.128  31.895   3.629
44382W        W11165  26.044   4.964   1.782
44383W        W11166  29.530  31.223  12.044
44384W        W11167  23.706  17.936   4.170
44385W        W11168  44.429   0.988  10.619
44386W        W11169  39.772   9.256   1.819
44387W        W11170  38.391   7.262   4.110
44388W        W11171  38.486  15.350   4.484
44389W        W11172  11.049  34.652   0.908
44390W        W11173  41.685  11.746   4.058
44391W        W11174  33.896  18.157   1.462
44392W        W11175  28.746  41.297  10.251
44393W        W11176  31.492  30.257  12.361
44394W        W11177  42.312  31.505   1.788
44395W        W11178  29.956  37.062   4.473
44396W        W11179  24.584   0.323  11.627
44397W        W11180   8.601  38.417   1.797
44398W        W11181   1.925  24.317  13.392
44399W        W11182   0.294   4.904   1.413
44400W        W11183  29.191  11.731  11.676
44401W        W11184   3.154  38.428  13.444
44402W        W11185  43.562  25.387  13.558
44403W        W11186   2.212  12.239   1.125
44404W        W11187  35.943   2.168  10.518
44405W        W11188  25.911   0.944  10.627
44406W        W11189   8.383  41.873  11.241
44407W        W11190   5.188  21.696  11.558
44408W        W11191  22.901  21.812  11.078
44409W        W11192   4.373  40.822   3.744
44410W        W11193   4.478   3.267  14.697
44411W        W11194  10.757  43.865  11.962
44412W        W11195  20.642  16.796   3.612
44413W        W11196   9.178  30.285  12.200
44414W        W11197  11.144  11.804   4.178
44415W        W11198  33.676  26.671   4.826
44416W        W11199  23.270  42.504  14.000
44417W        W11200  43.432  28.208   2.706
44418W        W11201   0.719   8.150  14.880
44419W        W11202  15.572   0.525  14.228
44420W        W11203  38.492  33.049  14.520
44421W        W11204  41.658  13.860  13.226
44422W        W11205  17.348   4.852  14.754
44423W        W11206  42.859  23.811  10.217
44424W        W11207  12.208  12.832  14.291
44425W        W11208  41.506  17.737   1.308
44426W        W11209   2.649  22.964   1.360
44427W        W11210  39.799  15.815  13.509
44428W        W11211  44.393  30.102   1.546
44429W        W11212   9.210  44.830  12.374
44430W        W11213   9.099   8.335   2.828
44431W        W11214  29.050  20.713   2.710
44432W        W11215  41.259   6.305   1.052
44433W        W11216  41.082  12.903   2.324
44434W        W11217   5.942  27.078   4.628
44435W        W11218  22.608   9.301  13.711
44436W        W11219  26.416  23.142  12.477
44437W        W11220   2.291  43.253   2.105
44438W        W11221  16.208  23.609  12.092
44439W        W11222  19.954  19.148   2.831
44440W        W11223   1.572  42.096   3.523
44441W        W11224  28.877  21.028  12.921
44442W        W11225  44.528  17.720   2.396
44443W        W11226  31.445   7.175  13.442
44444W        W11227   1.913  39.879   1.049
44445W        W11228  38.886  26.947   1.280
44446W        W11229  28.435  34.344  14.886
44447W        W11230  24.414  39.937  13.826
44448W        W11231  13.054   4.868   1.349
44449W        W11232  21.026  26.958  13.110
44450W        W11233  14.716  32.031  10.767
44451W        W11234  28.830  24.047  11.501
44452W        W11235  12.063  18.077  13.057
44453W        W11236  38.103   9.506  10.078
44454W        W11237  29.978  26.091  12.431
44455W        W11238  26.195  31.821   0.423
44456W        W11239  24.881  29.917   0.947
44457W        W11240   0.417   1.218   4.587
44458W        W11241  14.701  20.963   0.470
44459W        W11242  20.587  23.447   3.328
44460W        W11243  23.995  14.884   0.208
44461W        W11244  38.597  21.578  14.336
44462W        W11245  20.723  38.155  13.103
44463W        W11246   3.957  41.704   4.640
44464W        W11247  26.845  40.131  13.409
44465W        W11248   8.168  38.638   2.682
44466W        W11249  33.016  36.436   1.277
44467W        W11250   8.239  41.429  12.985
44468W        W11251  10.804   5.622   0.483
44469W        W11252   3.243   9.944  11.503
44470W        W11253  19.990  32.467  11.629
44471W        W11254  40.798  25.082   2.199
44472W        W11255  16.532  28.108   4.497
44473W        W11256   3.981  41.555  13.905
44474W        W11257  40.288   4.954   0.002
44475W        W11258  38.810  14.881  14.429
44476W        W11259  13.308   9.613  13.884
44477W        W11260  40.845  29.043   0.315
44478W        W11261  37.445  35.259   0.962
44479W        W11262  42.556   4.705   5.053
44480W        W11263  17.685  24.248   1.355
44481W        W11264   5.960  42.422  12.142
44482W        W11265  41.844  43.481   2.741
44483W        W11266  19.080   7.855  13.009
44484W        W11267  29.408  34.422   2.467
44485W        W11268  34.186  13.091   3.301
44486W        W11269  44.111  17.009   5.438
44487W        W11270  13.204   5.283   2.434
44488W        W11271   0.961  30.766   0.959
44489W        W11272  44.229  22.709   3.781
44490W        W11273  39.753  29.904  13.418
44491W        W11274  11.436  27.689  14.006
44492W        W11275  32.730  10.854   3.986
44493W        W11276  43.266   2.465   3.271
44494W        W11277  22.212  23.801   4.541
44495W        W11278  10.152  28.473   0.532
44496W        W11279   8.519   5.305   2.795
44497W        W11280   3.706  25.678  12.789
44498W        W11281  14.308   1.270  13.041
44499W        W11282  13.290  29.080  11.550
44500W        W11283  17.059  26.787  11.092
44501W        W11284  10.721  40.727  14.830
44502W        W11285  28.472  33.265   1.592
44503W        W11286  23.092  42.737   4.074
44504W        W11287  11.625  21.153  10.395
44505W        W11288  32.631   9.669   0.986
44506W        W11289  22.194  36.836  13.588
44507W        W11290  11.098  16.084  12.513
44508W        W11291  25.114   3.446   3.783
44509W        W11292  17.208   6.020   3.896
44510W        W11293  23.982  44.080   4.140
44511W        W11294   4.883  39.880   1.502
44512W        W11295   5.515   3.434  11.985
44513W        W11296  20.439   3.128  10.287
44514W        W11297  43.886  25.960  11.890
44515W        W11298  36.395   5.847   0.664
44516W        W11299  41.383  43.899   3.839
44517W        W11300  34.834  25.082   2.804
44518W        W11301  13.864  40.794   0.471
44519W        W11302   4.952  31.136  14.358
44520W        W11303  30.476  17.223   4.773
44521W        W11304  42.858  24.291  10.739
44522W        W11305  44.877   5.652   4.160
44523W        W11306  13.684  20.018  14.740
44524W        W11307   2.659  27.380   4.532
44525W        W11308  15.693  18.690  14.825
44526W        W11309   2.521  40.990  10.721
44527W        W11310  33.620  21.590  14.661
44528W        W11311  35.747  34.635   0.018
44529W        W11312  21.330  39.411   1.370
44530W        W11313  16.143  35.946   2.367
44531W        W11314   2.459   6.278   2.884
44532W        W11315  19.776  39.451  13.293
44533W        W11316  26.869  20.795  11.635
44534W        W11317  35.612  41.297  10.695
44535W        W11318  12.186   4.492  10.739
44536W        W11319  30.125   9.621   0.608
44537W        W11320  37.148  42.451   3.760
44538W        W11321  44.323  36.629  14.418
44539W        W11322  16.621  22.013  14.143
44540W        W11323  32.977  34.337   1.267
44541W        W11324   2.400   1.071   0.800
44542W        W11325  42.841  27.819  11.597
44543W        W11326  30.923   1.720  14.840
44544W        W11327   1.994   3.019   3.870
44545W        W11328  17.135   6.105  13.962
44546W        W11329  38.582  30.606   0.322
44547W        W11330  38.965  27.144   0.340
44548W        W11331  42.866  27.418  13.645
44549W        W11332   2.011  34.413   4.558
44550W        W11333  20.450   5.612   1.375
44551W        W11334  33.870  31.462  12.907
44552W        W11335  33.661  40.672   4.672
44553W        W11336  31.867  13.613   3.919
44554W        W11337  22.843   0.789  11.598
44555W        W11338  29.182  41.479  11.136
44556W        W11339   6.340  36.814  11.187
44557W        W11340  39.623  35.586   2.660
44558W        W11341  33.931  13.286   4.504
44559W        W11342   5.481  41.541  12.940
44560W        W11343   0.784  40.896   4.866
44561W        W11344  33.402  44.278  12.336
44562W        W11345  25.472  37.821   2.237
44563W        W11346  30.106  18.599  11.920
44564W        W11347   3.462   8.684  11.169
44565W        W11348   7.502  20.586  12.144
44566W        W11349  28.526  37.172  13.533
44567W        W11350  44.516  16.414   5.109
44568W        W11351   1.484  21.757   2.650
44569W        W11352  24.120  44.373   5.011
44570W        W11353  27.082  20.036   4.195
44571W        W11354   2.992   3.739   1.860
44572W        W11355  31.204   9.684  11.851
44573W        W11356  34.782  19.080   2.343
44574W        W11357  30.041   2.048  13.580
44575W        W11358   6.471  40.090  14.315
44576W        W11359  21.956  32.151   2.026
44577W        W11360  39.375   2.923   3.327
44578W        W11361  35.473  10.453   0.389
44579W        W11362  14.781  29.662   4.257
44580W        W11363  13.279  44.100   2.372
44581W        W11364   5.455   1.402   3.628
44582W        W11365  33.006   6.415   0.298
44583W        W11366  31.910  41.542   0.034
44584W        W11367  35.437   3.590  14.600
44585W        W11368   1.988  41.568  13.776
44586W        W11369  14.120   4.930   0.473
44587W        W11370   2.814  33.990   1.826
44588W        W11371  14.180  42.112  12.010
44589W        W11372  10.154   5.427   0.644
44590W        W11373  36.964  14.811   3.835
44591W        W11374  37.408  13.514  13.944
44592W        W11375  14.240  19.295   3.308
44593W        W11376  34.167  44.044   3.281
44594W        W11377  43.594  33.804   0.762
44595W        W11378  30.625  21.719   1.702
44596W        W11379   7.804  36.594   3.704
44597W        W11380  38.081  21.574   1.536
44598W        W11381  40.471   3.893  12.285
44599W        W11382  26.141   2.635  10.102
44600W        W11383  19.539  20.470  12.609
44601W        W11384   1.565   3.432  13.412
44602W        W11385  43.088   9.798   3.782
44603W        W11386   5.022  16.548  12.577
44604W        W11387   3.902  32.155   2.640
44605W        W11388  12.630  34.001   4.309
44606W        W11389  10.341  19.302  10.702
44607W        W11390  36.130  16.811   3.667
44608W        W11391   9.218   8.876  13.881
44609W        W11392  39.041  43.209  12.113
44610W        W11393  10.641  36.594  13.114
44611W        W11394  14.127  12.084  13.478
44612W        W11395  44.283   1.532   0.739
44613W        W11396  43.368  23.128   3.567
44614W        W11397  38.582   2.767   2.308
44615W        W11398  17.159  12.622  11.592
44616W        W11399  32.440  23.999  14.008
44617W        W11400  26.407  29.170   2.282
44618W        W11401  22.751  37.032   1.472
44619W        W11402   5.622  16.589  13.610
44620W        W11403  26.050   3.018  14.371
44621W        W11404  32.590  22.531   3.654
44622W        W11405   6.790  17.863  12.088
44623W        W11406  19.763  35.654   0.775
44624W        W11407   6.362  19.857  10.665
44625W        W11408  33.983  43.889   3.732
44626W        W11409  33.931   0.368   3.556
44627W        W11410  39.351  35.058   1.876
44628W        W11411  37.643  41.335   4.992
44629W        W11412  10.804  42.704   1.870
44630W        W11413   5.646  30.198  13.271
44631W        W11414  24.011  35.219   1.215
44632W        W11415  38.879  32.006   5.036
44633W        W11416   0.469  29.395  11.079
44634W        W11417  17.338  27.179  11.443
44635W        W11418  12.315  40.459  14.009
44636W        W11419  19.146   6.912  14.551
44637W        W11420  31.353  32.699  13.829
44638W        W11421  34.385  25.241   0.429
44639W        W11422  43.175  42.249  12.926
44640W        W11423  33.848  31.007   1.828
44641W        W11424   1.768  16.087  14.851
44642W        W11425   4.751  42.704  12.287
44643W        W11426  37.599  40.644  14.425
44644W        W11427   7.900  40.461   4.882
44645W        W11428  25.457  35.550  12.992
44646W        W11429  15.133   9.360   4.880
44647W        W11430  36.135   9.305  11.467
44648W        W11431   1.832  18.678  10.913
44649W        W11432   7.894  36.085   3.770
44650W        W11433  32.588  41.010  12.413
44651W        W11434   9.456   0.312   3.707
44652W        W11435  22.211  18.829  12.403
44653W        W11436  37.472  18.672  13.956
44654W        W11437  42.799  16.414   2.217
44655W        W11438  29.539  15.918   1.359
44656W        W11439  12.820  23.802  14.013
44657W        W11440  32.425  38.880  13.312
44658W        W11441  42.556  14.934   3.221
44659W        W11442  43.522  24.849  11.126
44660W        W11443  37.859  44.738  14.344
44661W        W11444   1.967   2.459  11.630
44662W        W11445  15.711  11.523   1.796
44663W        W11446   0.776  25.060   0.386
44664W        W11447  34.617  42.597  13.838
44665W        W11448  20.677   3.285  14.291
44666W        W11449  36.799  32.775   3.340
44667W        W11450   9.594  32.521  13.758
44668W        W11451   8.690  38.536   2.705
44669W        W11452   3.947  37.932   0.941
44670W        W11453  37.070  25.156  11.648
44671W        W11454  20.379  10.655  14.584
44672W        W11455  28.422  30.372   1.245
44673W        W11456  29.074   2.479  10.588
44674W        W11457  37.980  37.259   3.451
44675W        W11458  30.181  11.934  14.546
44676W        W11459   5.457  18.084   2.876
44677W        W11460  31.551  14.690   4.628
44678W        W11461  24.958  31.409  11.550
44679W        W11462  16.142  43.449   0.251
44680W        W11463  30.946  32.059   3.734
44681W        W11464  42.511  34.097  10.808
44682W        W11465  27.210  39.567   4.907
44683W        W11466  26.082  24.606  14.171
44684W        W11467  38.649   7.225  11.025
44685W        W11468  21.706  14.913   0.005
44686W        W11469  23.166  16.642  10.688
44687W        W11470  32.056  35.182  12.022
44688W        W11471  14.609  25.111   1.519
44689W        W11472   5.478  37.855   4.369
44690W        W11473   1.832   6.740   2.443
44691W        W11474  34.076   2.368   3.171
44692W        W11475  37.968  41.990  13.433
44693W        W11476  41.145  14.841  13.975
44694W        W11477  44.183  24.319   5.046
44695W        W11478  18.752  30.974   2.692
44696W        W11479  38.546  10.777  12.948
44697W        W11480  15.342  44.748   0.907
44698W        W11481  21.521  28.129   2.739
44699W        W11482  35.147  23.003  11.053
44700W        W11483  31.000  16.314   0.487
44701W        W11484  28.547  12.124  11.016
44702W        W11485  11.801   5.120   4.196
44703W        W11486  44.409  19.647   4.076
44704W        W11487   6.166  24.691   1.350
44705W        W11488   6.652  31.928   2.397
44706W        W11489   0.276  10.616  12.823
44707W        W11490   6.660  19.729  12.447
44708W        W11491  11.924  44.361   0.443
44709W        W11492  32.605  18.083   3.273
44710W        W11493  43.206  42.859   4.553
44711W        W11494  11.361   7.147   4.647
44712W        W11495  11.789   3.742  13.349
44713W        W11496  25.624  36.400   1.912
44714W        W11497  39.058   4.316  12.202
44715W        W11498  21.091  20.274  11.180
44716W        W11499   9.118   6.528  12.084
44717W        W11500  28.031  24.177  11.080
44718W        W11501  44.947   8.194   3.650
44719W        W11502  33.411  16.665   3.328
44720W        W11503  24.267  14.743   2.779
44721W        W11504   2.353  40.026   4.601
44722W        W11505  43.229  18.188   2.369
44723W        W11506  37.583  33.522   4.811
44724W        W11507  40.406  33.802   1.148
44725W        W11508  35.866  41.487   4.140
44726W        W11509  12.707  40.928  14.859
44727W        W11510  35.813  14.611   2.319
44728W        W11511  40.795  39.570  12.628
44729W        W11512  19.191  37.423  13.924
44730W        W11513   4.029  16.741  10.681
44731W        W11514  16.504  37.901  11.936
44732W        W11515  14.017  44.330  12.072
44733W        W11516  25.985  22.288   1.768
44734W        W11517  43.060   1.669   2.949
44735W        W11518  31.115  15.234  11.152
44736W        W11519  26.900   4.868  12.135
44737W        W11520  41.067   0.239  13.466
44738W        W11521   4.444  43.773   3.344
44739W        W11522   3.727  32.087   4.713
44740W        W11523   0.788  28.509  12.354
44741W        W11524  16.351  37.571   0.985
44742W        W11525  22.497  10.312   2.838
44743W        W11526  19.246  31.481  11.174
44744W        W11527  44.334  35.347  12.500
44745W        W11528  24.227  37.197   4.320
44746W        W11529   0.399   2.234  10.504
44747W        W11530  23.945   7.243  12.074
44748W        W11531   9.441   5.908   1.795
44749W        W11532  38.910  24.835  14.924
44750W        W11533  23.527  40.863   4.054
44751W        W11534  21.982  34.624  14.783
44752W        W11535  20.201  11.252  12.400
44753W        W11536  27.431  10.326  14.309
44754W        W11537  17.588   8.816   1.395
44755W        W11538  40.597  12.341  14.722
44756W        W11539  28.385  43.870   1.242
44757W        W11540  15.583   2.429  10.676
44758W        W11541  16.054  43.917  10.594
44759W        W11542  42.875  17.169   3.706
44760W        W11543  32.106  21.302   0.400
44761W        W11544  23.949  42.854  11.642
44762W        W11545   2.953   2.655   2.745
44763W        W11546  28.545  30.965   3.708
44764W        W11547  29.383  30.994   2.099
44765W        W11548   5.745  15.272   3.767
44766W        W11549  43.030  29.961   4.386
44767W        W11550  23.009  43.975   0.426
44768W        W11551   0.824  18.834  14.458
44769W        W11552   0.266   0.259   1.309
44770W        W11553  27.219  38.360  11.157
44771W        W11554  10.307  35.780   1.907
44772W        W11555  30.185   2.767   4.401
44773W        W11556   7.746  24.221  14.758
44774W        W11557   4.942  18.797   3.736
44775W        W11558   0.501   6.251  11.451
44776W        W11559   0.015  21.558   0.944
44777W        W11560   2.019  35.949  12.198
44778W        W11561  44.520  14.601  12.788
44779W        W11562  39.462  38.364   0.812
44780W        W11563   1.836  36.428  11.013
44781W        W11564  11.326  33.131  13.638
44782W        W11565  15.606  25.312  14.255
44783W        W11566  15.170   4.757   0.349
44784W        W11567  44.050  40.135   1.596
44785W        W11568   4.703  19.161  11.563
44786W        W11569  23.097  14.810  11.569
44787W        W11570  25.900  30.511  13.887
44788W        W11571  10.087  44.919  11.170
44789W        W11572  39.494  15.055  14.412
44790W        W11573  29.473  15.781   1.862
44791W        W11574  32.096  32.125  11.238
44792W        W11575  33.483  32.995  13.739
44793W        W11576  23.042  10.892  12.293
44794W        W11577  30.906   9.300  13.397
44795W        W11578  38.007  17.568   4.250
44796W        W11579  32.581   7.000  13.876
44797W        W11580   2.938  25.636   1.402
44798W        W11581   7.859  24.063  11.610
44799W        W11582  44.096  39.435   2.640
44800W        W11583   6.852   8.160   2.975
44801W        W11584  29.463   4.856   4.126
44802W        W11585  36.630   6.719  11.364
44803W        W11586  21.582   4.199   3.702
44804W        W11587  41.997  14.049   2.229
44805W        W11588  27.738  28.874   1.946
44806W        W11589  43.937  23.043   4.110
44807W        W11590  13.604  22.065  10.522
44808W        W11591  43.773  21.264   3.592
44809W        W11592  22.970  35.476   4.646
44810W        W11593   9.306  33.934  13.066
44811W        W11594  25.995  27.204  11.629
44812W        W11595  24.079   2.895   0.815
44813W        W11596  44.564  36.123   3.233
44814W        W11597  29.606  15.405   4.389
44815W        W11598  40.294   7.842  12.990
44816W        W11599   5.823  44.446  11.633
44817W        W11600  13.377   9.136   3.635
44818W        W11601  11.562  27.724   2.776
44819W        W11602  20.541  17.340   1.919
44820W        W11603  18.285   0.021  13.273
44821W        W11604  15.022  29.029   0.476
44822W        W11605  32.320  40.389   2.841
44823W        W11606  43.797  36.501  13.397
44824W        W11607  43.224  39.860   3.999
44825W        W11608  12.078  38.626  13.534
44826W        W11609   4.759  13.380   3.603
44827W        W11610  20.544  39.536  11.977
44828W        W11611  34.303   1.868  14.708
44829W        W11612  20.948  31.430   0.941
44830W        W11613   6.024  10.212   0.272
44831W        W11614  16.762  34.102  11.048
44832W        W11615  20.138  18.076  10.200
44833W        W11616  33.866   3.836   1.363
44834W        W11617  39.588  17.041   3.355
44835W        W11618  18.185  23.124  11.538
44836W        W11619  12.270  30.622  13.396
44837W        W11620  15.814  18.746  11.132
44838W        W11621  32.925  17.035  13.521
44839W        W11622   1.786  15.619  11.975
44840W        W11623   0.527   6.738   4.772
44841W        W11624  12.090  36.006   2.320
44842W        W11625  31.370  30.045   3.786
44843W        W11626  12.166  23.450   0.256
44844W        W11627  18.208   2.865   4.770
44845W        W11628   6.341  31.232  11.175
44846W        W11629  24.029  15.219  14.482
44847W        W11630  23.937   8.829   4.527
44848W        W11631  20.798  39.577  10.144
44849W        W11632  10.220  38.376   1.889
44850W        W11633  39.474  26.231   0.303
44851W        W11634  39.534  36.721   3.310
44852W        W11635   0.936  39.159  10.883
44853W        W11636   6.185  16.716   2.038
44854W        W11637   9.326   0.384  13.416
44855W        W11638  21.091   1.344   0.675
44856W        W11639  25.201  42.228  12.024
44857W        W11640  32.246  13.499  11.565
44858W        W11641  28.722  31.705  13.023
44859W        W11642  24.042  33.104   4.545
44860W        W11643   0.215  24.548   0.856
44861W        W11644  40.453  35.457   4.709
44862W        W11645  30.543  39.877  10.605
44863W        W11646  39.471  20.011  12.944
44864W        W11647  17.524  10.649   1.679
44865W        W11648  35.523  14.521  14.408
44866W        W11649  26.916  21.046   2.174
44867W        W11650  15.403  29.523   3.041
44868W        W11651   0.026  10.423   1.682
44869W        W11652  12.736   5.696   1.878
44870W        W11653  19.279  16.199   2.413
44871W        W11654   5.839  27.220   0.563
44872W        W11655  27.139  24.112  10.954
44873W        W11656  11.050   2.997  11.914
44874W        W11657  31.132  31.440  12.353
44875W        W11658   8.321  10.651  10.460
44876W        W11659  18.784  41.567  12.621
44877W        W11660   7.795  13.324   0.281
44878W        W11661   7.874  17.169   1.259
44879W        W11662  16.055  40.518  13.927
44880W        W11663  12.332  17.260   0.182
44881W        W11664  39.063  28.899  12.542
44882W        W11665  40.534  38.903  10.721
44883W        W11666  35.039  28.115   0.035
44884W        W11667   4.743  44.322   4.020
44885W        W11668  13.172  34.101   2.332
44886W        W11669  43.796  18.736  10.722
44887W        W11670  23.004   0.955   0.382
44888W        W11671  37.359   3.678  11.371
44889W        W11672   6.982  12.861  13.453
44890W        W11673  28.481   4.665   1.326
44891W        W11674  41.542  22.844  14.416
44892W        W11675  43.484   5.479   4.572
44893W        W11676   7.285  16.857  11.182
44894W        W11677  34.971  35.574   2.356
44895W        W11678   5.203  12.187  11.397
44896W        W11679  36.040  27.489   0.209
44897W        W11680  14.221  44.203  10.240
44898W        W11681   6.859  39.418  10.621
44899W        W11682  25.439   8.310   0.480
44900W        W11683  18.418  18.526  14.481
44901W        W11684   3.000  12.270   3.702
44902W        W11685  28.282  28.062  14.895
44903W        W11686  43.928  24.530  11.916
44904W        W11687   2.480  35.010   5.011
44905W        W11688  27.013  13.708   3.242
44906W        W11689   1.329   5.698  12.905
44907W        W11690  27.684   9.587  13.985
44908W        W11691   4.835  32.995   0.071
44909W        W11692  43.503  14.597   1.389
44910W        W11693  10.774  39.326   1.781
44911W        W11694  23.173  34.590   4.413
44912W        W11695  27.122   5.664   4.040
44913W        W11696  14.463  24.499   3.783
44914W        W11697  23.557  24.158  10.138
44915W        W11698  32.937  30.113   4.750
44916W        W11699   0.599   5.539  14.350
44917W        W11700  27.707  40.888   1.263
44918W        W11701  27.152  12.870   3.558
44919W        W11702  34.106  17.771  12.554
44920W        W11703  30.011  11.724   4.785
44921W        W11704   7.748  21.704  12.414
44922W        W11705  17.142   3.255   0.860
44923W        W11706  40.728  42.585  10.239
44924W        W11707  30.958  19.879  10.202
44925W        W11708  24.222  27.487  13.563
44926W        W11709  22.230  26.464  11.581
44927W        W11710  29.598  24.607  10.565
44928W        W11711  35.749  15.133   4.518
44929W        W11712   9.019  19.431  10.603
44930W        W11713   4.814  12.781   4.503
44931W        W11714   9.369  22.095   3.127
44932W        W11715   5.304  38.635  12.546
44933W        W11716  11.134  32.580   4.460
44934W        W11717  29.454  41.023  12.420
44935W        W11718  35.041  29.200  14.368
44936W        W11719  12.057   0.164   1.639
44937W        W11720  39.342  37.783   1.771
44938W        W11721  14.117  23.053   4.589
44939W        W11722  33.981  44.955  12.058
44940W        W11723  19.229  17.538   2.610
44941W        W11724  40.891  11.417  11.979
44942W        W11725   1.159  31.998   0.369
44943W        W11726  21.299  14.126   2.447
44944W        W11727  27.608   3.791   0.960
44945W        W11728  25.443  36.974   3.699
44946W        W11729   4.794   4.215   0.783
44947W        W11730   7.723  21.839  13.840
44948W        W11731  42.266  34.997  14.856
44949W        W11732   5.259  41.682  14.832
44950W        W11733   4.760  13.771   2.175
44951W        W11734   5.691  34.319  13.803
44952W        W11735  14.564  17.055  11.516
44953W        W11736  17.220  22.090  13.438
44954W        W11737  31.017   2.477   3.201
44955W        W11738  30.452  43.745   0.709
44956W        W11739   4.738  32.876   3.942
44957W        W11740  20.460   7.439   1.649
44958W        W11741   2.692   7.561   3.627
44959W        W11742  28.497   7.052  11.633
44960W        W11743  13.310  14.867  13.399
44961W        W11744  25.092  26.227  11.925
44962W        W11745   8.726  18.859  11.537
44963W        W11746  44.774  19.555  12.140
44964W        W11747  30.348   8.570  12.523
44965W        W11748  37.892  32.184   0.423
44966W        W11749   6.991   9.803  14.074
44967W        W11750   8.547  32.399   1.707
44968W        W11751   5.663  17.684   3.246
44969W        W11752  43.258  27.028   4.263
44970W        W11753   2.927  21.992  14.518
44971W        W11754  39.442  40.295  10.906
44972W        W11755   7.456  16.321  11.248
44973W        W11756  10.937  44.408   0.083
44974W        W11757  26.999  29.488   1.771
44975W        W11758  41.912  20.485  11.879
44976W        W11759   1.776  31.714   4.778
44977W        W11760  41.388   4.396   0.210
44978W        W11761  36.158  17.020  11.478
44979W        W11762  35.600  28.563   2.751
44980W        W11763  20.794  10.601  14.253
44981W        W11764  23.129   0.873   0.889
44982W        W11765  35.156  12.846  13.046
44983W        W11766  40.974   2.698   1.644
44984W        W11767  28.991  25.711   4.472
44985W        W11768  39.490  28.688  11.006
44986W        W11769  14.655  25.971  13.935
44987W        W11770   4.551  21.685   2.437
44988W        W11771  22.787  22.466   1.777
44989W        W11772  40.255  41.425   1.412
44990W        W11773  16.858  15.681  14.784
44991W        W11774   4.970   3.199   1.711
44992W        W11775  15.775  15.214   1.962
44993W        W11776  36.464  38.564   4.550
44994W        W11777   7.326   4.057   3.686
44995W        W11778  16.113  21.026   3.576
44996W        W11779  16.559  27.685  14.507
44997W        W11780   8.751  34.878   1.802
44998W        W11781  35.399  21.227   0.552
44999W        W11782  33.690  37.570  13.099
45000W        W11783  35.672  24.049   1.175
45001W        W11784   8.646  14.660   0.184
45002W        W11785  20.181  27.026   4.740
45003W        W11786  28.672   7.188   1.955
45004W        W11787  36.771  31.538  11.725
45005W        W11788   4.893   4.613  12.483
45006W        W11789  13.086   7.209  12.424
45007W        W11790   4.406  37.214   1.364
45008W        W11791  10.867  20.723  13.151
45009W        W11792   0.138  35.110  13.369
45010W        W11793  40.504   4.880  11.988
45011W        W11794  39.476   0.205   2.111
45012W        W11795  28.361  44.312  10.984
45013W        W11796   2.000  39.712   0.011
45014W        W11797  10.619  15.031   3.253
45015W        W11798  10.114   3.957   3.299
45016W        W11799  36.599  30.953  12.584
45017W        W11800  10.170  24.776  13.361
45018W        W11801  32.893   6.891  14.561
45019W        W11802  33.633  35.437  11.555
45020W        W11803  41.038  10.268   3.859
45021W        W11804   8.620  38.264   4.635
45022W        W11805   2.478  43.867   3.381
45023W        W11806  21.250  15.625   4.936
45024W        W11807  11.783  26.156   0.544
45025W        W11808   6.336  27.387   4.801
45026W        W11809  38.040   8.434  12.614
45027W        W11810   8.586  31.981  12.620
45028W        W11811  29.517  31.007   3.627
45029W        W11812  44.460  23.144  12.462
45030W        W11813  25.252  14.403   2.828
45031W        W11814  34.719  16.133   1.366
45032W        W11815  43.237  30.457  13.865
45033W        W11816   1.546   2.445  13.029
45034W        W11817  42.895  24.757   4.029
45035W        W11818  25.634  14.305   0.406
45036W        W11819  13.995  14.254  12.130
45037W        W11820  43.013  33.215  12.354
45038W        W11821  16.234  22.699   0.364
45039W        W11822  38.748  12.424   0.192
45040W        W11823  14.393  22.582   0.374
45041W        W11824  25.589  42.642   0.149
45042W        W11825  34.427   7.351   1.837
45043W        W11826  37.420  10.866  11.116
45044W        W11827   8.274  43.444  13.538
45045W        W11828  24.982   7.913  13.779
45046W        W11829  30.464  34.035   1.177
45047W        W11830  21.650  39.956  11.229
45048W        W11831  24.187   7.883  10.827
45049W        W11832  18.781   4.726   1.298
45050W        W11833  25.034   9.359  13.296
45051W        W11834   2.310  29.862  12.052
45052W        W11835   0.987  24.037  14.279
45053W        W11836   8.881  25.301   0.594
45054W        W11837  42.519  40.832  11.547
45055W        W11838  27.986  27.149   0.547
45056W        W11839  19.291  22.710  10.828
45057W        W11840  11.137  15.669  12.879
45058W        W11841  15.059  32.504  12.370
45059W        W11842  25.786  28.301  13.579
45060W        W11843  22.729  23.453   3.684
45061W        W11844  12.404  31.453   2.374
45062W        W11845  32.529  37.157   3.624
45063W        W11846  25.673  38.411   5.391
45064W        W11847   7.754   7.020  14.545
45065W        W11848  40.555  41.560   0.412
45066W        W11849  22.398  35.337  14.941
45067W        W11850  42.051  42.317  12.134
45068W        W11851  33.063  39.566  12.738
45069W        W11852  28.690   8.082  14.070
45070W        W11853  43.807  11.237   1.242
45071W        W11854  39.568   0.968   1.683
45072W        W11855  39.804  24.295   3.351
45073W        W11856  21.032  13.767   2.200
45074W        W11857  42.994  44.238   2.381
45075W        W11858  21.428  41.870   4.267
45076W        W11859  10.071  24.923  12.300
45077W        W11860   4.197  16.740  13.979
45078W        W11861  39.434  35.209  13.947
45079W        W11862  16.351  13.808  11.914
45080W        W11863  26.047  18.673   2.410
45081W        W11864  33.839  15.003  14.435
45082W        W11865  33.211  27.148  13.402
45083W        W11866  27.792  23.704   3.206
45084W        W11867   6.349  24.155   1.330
45085W        W11868   4.801   1.680  11.553
45086W        W11869  42.506   4.294   4.419
45087W        W11870  10.695   0.972   0.572
45088W        W11871  18.849  13.267   3.203
45089W        W11872  24.475  15.631  10.684
45090W        W11873  17.382  20.216   0.802
45091W        W11874   9.603  18.137   3.308
45092W        W11875   3.872  20.988   3.280
45093W        W11876  30.696  31.418  13.577
45094W        W11877  18.320  37.607  11.607
45095W        W11878  30.019  40.028  13.340
45096W        W11879  20.158  36.332  11.892
45097W        W11880  26.807  44.950   2.640
45098W        W11881   9.849  21.516  10.739
45099W        W11882  17.992  41.742  11.130
45100W        W11883  35.422   3.853   3.815
45101W        W11884  39.604   5.067  11.164
45102W        W11885   8.822  14.751   2.291
45103W        W11886   8.936  41.257  10.740
45104W        W11887   9.268  27.377  13.408
45105W        W11888  19.585  18.801   2.630
45106W        W11889  16.784  11.461   0.838
45107W        W11890  33.194  22.198   4.507
45108W        W11891  37.530   2.045   4.494
45109W        W11892   7.987  40.712  11.207
45110W        W11893  33.188  39.125  10.613
45111W        W11894  35.828  23.566  13.950
45112W        W11895  21.253  27.311   0.953
45113W        W11896   2.518   9.009   3.137
45114W        W11897  38.052   9.813   3.258
45115W        W11898  40.893  24.730   2.556
45116W        W11899  37.829  19.885   0.258
45117W        W11900  40.442  22.493   0.418
45118W        W11901  36.321  39.023   4.388
45119W        W11902  14.728  31.029   3.093
45120W        W11903  23.650  42.283  13.702
45121W        W11904  40.780  33.667   3.808
45122W        W11905  36.125  23.966  14.931
45123W        W11906  44.025   7.038  11.389
45124W        W11907  43.035  38.405   2.742
45125W        W11908  18.779  11.131  14.467
45126W        W11909  29.015  39.562  14.843
45127W        W11910  28.580  26.524   3.406
45128W        W11911   3.844  43.270   1.184
45129W        W11912  12.602  29.585  10.735
45130W        W11913   6.191  10.335  10.991
45131W        W11914   3.684   8.098  13.792
45132W        W11915   9.430   5.629  13.987
45133W        W11916  40.495  29.087  14.944
45134W        W11917   7.460  20.964  14.048
45135W        W11918  40.246  33.082  10.708
45136W        W11919  21.980  29.922   0.843
45137W        W11920  25.984  13.190   4.489
45138W        W11921  11.248  14.373   2.362
45139W        W11922   4.995  21.133   4.167
45140W        W11923  27.870  21.150   1.801
45141W        W11924   7.679  23.928   4.679
45142W        W11925  24.279  17.245   2.641
45143W        W11926   4.973  40.465   0.630
45144W        W11927  33.415  10.282   1.670
45145W        W11928  22.470  30.068  12.326
45146W        W11929  44.233   1.375   3.419
45147W        W11930  31.137  20.930  12.599
45148W        W11931  34.123  25.298  12.034
45149W        W11932   6.271  18.558   0.661
45150W        W11933  28.263  23.910   0.035
45151W        W11934  35.438  29.806   0.644
45152W        W11935  14.213   3.403   2.241
45153W        W11936  25.182   5.552   3.607
45154W        W11937   4.465  25.156   4.256
45155W        W11938  23.483   6.315   9.868
45156W        W11939  40.711  37.614  10.815
45157W        W11940  27.751  40.949   2.634
45158W        W11941  41.708  18.909   4.623
45159W        W11942  22.131   0.879   0.548
45160W        W11943   3.079   5.714  11.969
45161W        W11944  24.906  13.646   3.309
45162W        W11945  29.347   6.764   3.296
45163W        W11946  34.114  20.943  13.406
45164W        W11947   4.421  26.898   1.285
45165W        W11948  35.287  42.027  12.433
45166W        W11949  11.186  21.746   0.985
45167W        W11950  11.646   2.439   3.891
45168W        W11951  36.854   1.233  10.562
45169W        W11952  31.654  18.389  12.368
45170W        W11953  18.120   2.615  10.793
45171W        W11954   9.136  40.261   2.744
45172W        W11955  40.127   4.279  11.415
45173W        W11956  23.141   7.760   4.271
45174W        W11957   8.285  42.450  11.012
45175W        W11958  41.009  16.773   4.208
45176W        W11959  30.093  28.688   4.208
45177W        W11960  43.749  39.906   3.907
45178W        W11961  40.093   0.795  12.117
45179W        W11962  27.440  34.588   0.998
45180W        W11963  10.142  18.867  12.521
45181W        W11964  23.016  24.272   0.483
45182W        W11965  37.118  36.180  11.191
45183W        W11966  20.939   8.787   9.833
45184W        W11967   6.323  41.668  13.242
45185W        W11968   5.418  44.527   2.196
45186W        W11969  43.633  21.746   4.220
45187W        W11970  32.093  21.467   3.265
45188W        W11971   2.160   8.657   3.155
45189W        W11972   5.482  22.878   0.201
45190W        W11973   2.571  27.674  11.527
45191W        W11974  32.600  23.703   0.934
45192W        W11975  38.940  28.387  12.498
45193W        W11976   9.039  17.808  14.897
45194W        W11977  10.711  40.004   0.408
45195W        W11978  20.582  14.190   1.017
45196W        W11979  14.944  17.435   4.196
45197W        W11980  24.644  12.099  11.429
45198W        W11981  43.865  27.050  12.587
45199W        W11982  31.189  44.768   2.703
45200W        W11983  37.930  22.758  14.818
45201W        W11984  28.480   0.224   4.544
45202W        W11985  10.764  32.934   2.613
45203W        W11986  24.976  20.149  11.218
45204W        W11987  11.813   1.470  11.988
45205W        W11988  37.333  34.289   0.741
45206W        W11989  12.931  23.223  11.836
45207W        W11990  27.426  38.816  12.356
45208W        W11991  12.795   0.584  13.511
45209W        W11992  27.588  26.420  13.965
45210W        W11993  21.280  25.908  13.428
45211W        W11994  33.648  34.949  11.191
45212W        W11995  12.607  25.685  14.007
45213W        W11996  11.397  23.254  12.560
45214W        W11997   0.254  26.194  11.978
45215W        W11998  15.169  17.873   0.667
45216W        W11999  12.827  21.451  11.979
45217W        W12000   5.229  19.822  10.572
45218W        W12001  10.930   7.751   1.185
45219W        W12002   0.330  32.872   4.713
45220W        W12003  29.446   1.789  14.276
45221W        W12004  26.191  18.217   0.344
45222W        W12005  33.627  13.525  14.533
45223W        W12006   1.013  29.487   2.249
45224W        W12007   5.690  22.254  12.693
45225W        W12008  44.433  37.812  13.842
45226W        W12009   1.374  22.046   3.057
45227W        W12010  37.862  22.960   1.395
45228W        W12011   6.346  21.630  11.586
45229W        W12012  40.688  29.168  12.823
45230W        W12013  23.034  40.778   1.706
45231W        W12014  26.996  29.528  14.067
45232W        W12015  10.662  28.624   0.475
45233W        W12016  35.379  38.482  13.895
45234W        W12017  13.994   2.710   0.014
45235W        W12018   7.372   6.185  14.342
45236W        W12019  14.067  38.235   4.968
45237W        W12020  36.164  28.913   1.446
45238W        W12021  44.071  17.676  12.064
45239W        W12022  14.605   4.710   1.406
45240W        W12023   0.849  42.224  13.296
45241W        W12024   3.797  37.471   0.761
45242W        W12025  25.971  27.904  14.399
45243W        W12026  34.910   4.578   3.273
45244W        W12027  29.486  31.431   0.247
45245W        W12028  36.805   0.688   3.886
45246W        W12029  19.956  20.688   4.327
45247W        W12030  44.694  38.684   0.576
45248W        W12031   5.751   7.754   2.643
45249W        W12032  13.402   9.034  12.039
45250W        W12033   5.177  11.241   0.939
45251W        W12034  19.181  39.956  11.079
45252W        W12035  31.415  44.165   4.226
45253W        W12036   8.186  30.171  10.591
45254W        W12037  17.237   7.234  12.967
45255W        W12038  27.166  34.108  13.979
45256W        W12039  43.159  35.419   1.499
45257W        W12040  16.662   6.157  14.257
45258W        W12041  35.432  44.892   4.495
45259W        W12042  25.327  11.926   0.291
45260W        W12043   0.626  10.151   5.068
45261W        W12044  21.613   7.701   3.234
45262W        W12045   3.203  21.478   2.095
45263W        W12046  28.987  40.957  11.534
45264W        W12047  25.716  38.306   4.539
45265W        W12048  36.099  19.271  14.024
45266W        W12049  37.448  39.793  11.649
45267W        W12050   3.694   5.269  14.109
45268W        W12051  20.241  20.322   2.705
45269W        W12052  22.663   1.274  11.493
45270W        W12053   3.962  17.094  12.311
45271W        W12054  21.481  12.800  11.367
45272W        W12055  25.577  31.494   4.916
45273W        W12056  31.042  40.093  11.052
45274W        W12057   0.052   8.817  12.915
45275W        W12058  25.873  39.193  13.133
45276W        W12059  22.139  11.673   3.865
45277W        W12060  11.847  36.765  14.063
45278W        W12061  44.103  31.156   2.139
45279W        W12062  17.870  10.165  12.114
45280W        W12063   5.889  37.112   3.848
45281W        W12064  42.320  37.561   3.877
45282W        W12065  23.257  35.847  11.460
45283W        W12066  22.520  28.159   2.598
45284W        W12067  37.903  26.989   0.279
45285W        W12068  30.712  37.061  13.319
45286W        W12069   5.954  25.259  13.911
45287W        W12070  20.369  24.152  10.920
45288W        W12071  29.049  29.945   4.316
45289W        W12072   8.208  38.078  14.492
45290W        W12073  30.049  25.508  11.659
45291W        W12074  37.741   1.903  13.045
45292W        W12075  27.624  31.519   0.399
45293W        W12076  11.337  13.506   3.894
45294W        W12077   8.769   6.508  14.535
45295W        W12078  26.013  15.157   2.632
45296W        W12079   9.969  40.455   2.229
45297W        W12080  40.021   3.568   2.663
45298W        W12081   5.416  34.916  13.501
45299W        W12082  39.378  10.430  14.780
45300W        W12083   8.608  26.672   2.723
45301W        W12084  24.718  42.860   0.377
45302W        W12085  31.052  12.713   1.142
45303W        W12086   3.330  44.774   3.177
45304W        W12087  35.438  43.756  12.994
45305W        W12088   9.864  11.683  10.155
45306W        W12089  13.444  20.460  13.099
45307W        W12090  35.944  18.426  14.286
45308W        W12091  37.866  25.478  13.296
45309W        W12092  20.016  33.827   0.543
45310W        W12093  24.745  27.440  12.466
45311W        W12094  33.117  10.508  14.075
45312W        W12095   5.645  42.870   1.858
45313W        W12096  39.109  39.110   4.229
45314W        W12097  19.163  19.088   4.542
45315W        W12098  11.215  32.399   1.237
45316W        W12099  24.366  22.181  11.941
45317W        W12100   2.540  26.469   0.901
45318W        W12101  14.767   2.797  11.147
45319W        W12102  25.493  39.136   1.800
45320W        W12103  18.572  43.483  11.924
45321W        W12104   4.373  40.023   1.358
45322W        W12105   7.294  34.194   3.054
45323W        W12106   0.873  31.169   0.491
45324W        W12107  28.248  31.927  14.918
45325W        W12108   9.729  40.073   3.143
45326W        W12109  27.549  17.531   0.301
45327W        W12110  15.184  35.178  13.984
45328W        W12111  17.029  17.376  13.038
45329W        W12112  44.904  26.536   9.747
45330W        W12113  22.438  18.654  12.825
45331W        W12114   7.431   2.759   0.963
45332W        W12115  31.867  24.525   3.215
45333W        W12116  13.793  40.387  10.725
45334W        W12117  32.969  16.051  13.462
45335W        W12118   7.974  20.841  11.161
45336W        W12119  10.248  44.791   1.320
45337W        W12120   0.889  24.943  14.488
45338W        W12121  43.505  19.357   0.442
45339W        W12122  13.592  31.417   3.361
45340W        W12123  12.091  34.443   3.769
45341W        W12124  43.545  31.324  11.287
45342W        W12125  28.660  21.776  12.715
45343W        W12126  25.600  31.956   0.988
45344W        W12127  13.833  25.772   1.976
45345W        W12128  27.187  35.453   2.408
45346W        W12129  43.872  28.973  14.745
45347W        W12130  37.465   5.673   4.489
45348W        W12131  28.191  41.281  11.118
45349W        W12132  14.275  33.953  14.733
45350W        W12133  25.605  28.556  13.988
45351W        W12134  22.464   5.352   0.352
45352W        W12135   7.371  34.791   4.669
45353W        W12136  37.310   6.033   0.282
45354W        W12137  13.254  43.513   4.617
45355W        W12138   2.860  30.207  13.346
45356W        W12139  36.818  24.161  10.998
45357W        W12140  25.452  10.560  14.787
45358W        W12141  34.852  24.561   2.081
45359W        W12142   6.281  24.057  14.430
45360W        W12143  35.579  34.428  12.139
45361W        W12144  32.002  25.044   2.301
45362W        W12145  29.471  34.188   2.908
45363W        W12146   8.238   1.707   1.202
45364W        W12147  10.774   3.910   2.799
45365W        W12148  38.528  40.818  14.820
45366W        W12149  15.373  32.568   1.737
45367W        W12150  26.266  27.221   2.235
45368W        W12151   3.032   7.740   4.511
45369W        W12152   7.404  15.275   1.355
45370W        W12153  17.199  34.240   4.979
45371W        W12154   1.733  43.947  11.575
45372W        W12155  15.619  11.302   4.854
45373W        W12156   0.513  26.466   4.202
45374W        W12157  39.738   5.814  12.931
45375W        W12158  26.928  33.004   3.197
45376W        W12159  17.662  36.569  10.629
45377W        W12160  18.245  21.296  13.549
45378W        W12161   8.947  22.580   2.229
45379W        W12162   0.716  29.017  14.101
45380W        W12163  19.530   3.386  14.275
45381W        W12164  37.428   1.309   0.889
45382W        W12165   9.302  28.170  14.980
45383W        W12166   7.647   3.301   3.752
45384W        W12167   3.818  33.583  13.152
45385W        W12168   8.575  38.066  13.678
45386W        W12169  20.313   2.177   5.533
45387W        W12170  26.126  40.238   0.293
45388W        W12171  26.096   3.926   2.707
45389W        W12172  39.894  22.957  14.875
45390W        W12173   3.781  22.525   3.798
45391W        W12174  14.455  24.063  10.703
45392W        W12175  37.090  28.442  12.517
45393W        W12176   5.168   3.799  13.910
45394W        W12177   9.845  29.016   1.918
45395W        W12178  18.858  11.652   4.689
45396W        W12179  27.025   8.326  14.323
45397W        W12180  14.865  31.949  10.284
45398W        W12181   5.211  29.533   3.743
45399W        W12182  44.068  29.409  14.363
45400W        W12183  44.785   3.368   0.927
45401W        W12184  36.945  29.769   1.359
45402W        W12185  41.883  33.447   0.291
45403W        W12186  10.537  20.418   0.793
45404W        W12187  25.147  41.367  12.351
45405W        W12188  42.494  18.905   0.468
45406W        W12189  18.676  43.742   0.591
45407W        W12190   1.818  29.067   3.807
45408W        W12191  34.060  33.965  11.189
45409W        W12192  13.157  30.663   0.721
45410W        W12193  32.153  36.915   1.415
45411W        W12194  14.454  13.258  12.805
45412W        W12195  43.240   5.312   0.448
45413W        W12196  44.549   2.762   4.091
45414W        W12197  33.709  44.614   3.937
45415W        W12198   6.690  32.927  11.429
45416W        W12199  27.577  27.505  13.136
45417W        W12200  33.408  37.410  14.444
45418W        W12201  35.444  10.131  10.702
45419W        W12202   1.206   0.574   3.775
45420W        W12203  30.556  44.266  13.363
45421W        W12204   8.599  13.799  10.635
45422W        W12205   1.244  15.331  13.298
45423W        W12206  23.046  35.900   0.089
45424W        W12207   1.050  17.032  12.494
45425W        W12208  30.036  26.627  12.333
45426W        W12209  20.153  25.270   3.364
45427W        W12210  29.344  36.463  11.019
45428W        W12211  23.996  18.165   1.930
45429W        W12212   8.109  19.723  13.531
45430W        W12213  14.260  16.201  14.471
45431W        W12214  40.071  37.029  12.880
45432W        W12215  23.129  20.690   3.274
45433W        W12216  35.877  25.091  11.139
45434W        W12217  11.205  38.078  14.449
45435W        W12218  19.092  25.659  10.640
45436W        W12219   5.648  40.500  13.907
45437W        W12220  26.623  15.508  10.591
45438W        W12221  13.652  41.928   2.795
45439W        W12222  35.487  21.622  10.780
45440W        W12223  26.726  44.219  14.730
45441W        W12224  20.766  24.935  11.104
45442W        W12225  14.692  39.750  11.011
45443W        W12226  16.007   4.922  11.926
45444W        W12227  39.644   9.170   3.342
45445W        W12228   9.309  31.170  13.595
45446W        W12229  44.182  37.951  11.177
45447W        W12230   1.424  33.270   0.890
45448W        W12231  28.455  14.779   4.415
45449W        W12232  37.519  44.306   1.824
45450W        W12233  37.332  20.982   4.542
45451W        W12234  10.601  19.882  14.486
45452W        W12235  36.609   5.685   2.579
45453W        W12236  10.125  34.615  14.791
45454W        W12237  30.292  15.519  14.431
45455W        W12238   9.779   0.021   1.463
45456W        W12239  14.393  10.865   4.576
45457W        W12240   7.466   3.818  11.352
45458W        W12241   8.444  31.880   3.844
45459W        W12242  14.342  41.007   2.298
45460W        W12243  11.695  41.401   1.436
45461W        W12244  35.766  17.818   4.853
45462W        W12245  21.750  44.773  13.336
45463W        W12246  12.622  34.539   0.842
45464W        W12247  44.002  29.553  10.657
45465W        W12248   3.285  19.427  13.705
45466W        W12249  35.515  30.860  13.440
45467W        W12250  26.179   5.967  14.867
45468W        W12251  41.584  44.087  14.227
45469W        W12252   0.985  38.625  10.757
45470W        W12253  12.213  40.285   0.448
45471W        W12254  35.276  41.552   3.280
45472W        W12255  36.355   8.100  14.842
45473W        W12256  29.720   2.892  10.850
45474W        W12257  27.430  28.106   1.367
45475W        W12258  27.289  11.640   4.574
45476W        W12259  21.226  25.569   4.653
45477W        W12260  15.093  21.024   3.709
45478W        W12261  31.677   0.159  11.163
45479W        W12262  26.408   2.443   0.311
45480W        W12263  23.973  43.217  12.867
45481W        W12264  41.705  10.816   4.121
45482W        W12265  28.735  37.442  13.946
45483W        W12266  16.280  35.617  11.141
45484W        W12267  23.580  14.116  10.519
45485W        W12268  34.031  12.010   4.907
45486W        W12269  43.323  38.277  10.699
45487W        W12270  12.585  12.871   4.183
45488W        W12271   7.772  17.454   3.617
45489W        W12272  44.340   4.080   5.133
45490W        W12273  11.786  25.647   0.425
45491W        W12274   5.706  38.756   4.601
45492W        W12275  44.907  25.188   1.869
45493W        W12276  19.675  41.965   2.777
45494W        W12277   1.360  34.883   0.930
45495W        W12278  39.364  13.196   1.173
45496W        W12279  42.063  13.358   0.819
45497W        W12280   2.929  13.130  10.578
45498W        W12281  32.064  31.164   0.296
45499W        W12282  32.476  26.930   3.564
45500W        W12283  10.447  20.079   3.691
45501W        W12284  33.794  16.323  12.372
45502W        W12285  32.909  25.504  11.918
45503W        W12286  36.541   6.175   2.394
45504W        W12287  10.125  21.739  11.130
45505W        W12288  35.159  27.978  10.341
45506W        W12289  16.438  38.275   2.953
45507W        W12290  44.915  14.759  13.119
45508W        W12291  38.031  20.760   1.881
45509W        W12292  14.619  11.842  14.706
45510W        W12293  18.243  10.081  11.754
45511W        W12294  11.102  21.168   4.175
45512W        W12295  25.026   9.744   0.906
45513W        W12296  13.197   3.935  13.223
45514W        W12297  42.826  18.603  11.551
45515W        W12298  14.085  36.023   0.218
45516W        W12299  42.883  42.888   2.109
45517W        W12300   5.693  11.942  12.435
45518W        W12301  10.913  32.146  13.817
45519W        W12302  43.028  17.249   3.222
45520W        W12303   6.196  16.944   3.509
45521W        W12304  32.592  29.476   0.832
45522W        W12305   9.722  24.223   3.237
45523W        W12306   0.822   5.638  10.286
45524W        W12307  29.971  11.187  11.681
45525W        W12308  42.805  17.571  10.675
45526W        W12309  13.847  23.036   4.145
45527W        W12310  16.368  18.502  11.283
45528W        W12311   1.982  42.420   4.990
45529W        W12312  33.641  11.933  12.370
45530W        W12313   6.197   7.123  12.473
45531W        W12314  17.840  13.575   1.711
45532W        W12315  29.558   6.614   2.431
45533W        W12316  30.651  14.140   2.756
45534W        W12317  42.859  15.052   1.910
45535W        W12318  22.648  14.476   3.555
45536W        W12319  11.134  34.961  13.045
45537W        W12320  40.880   7.412   3.869
45538W        W12321  21.683  35.569   3.208
45539W        W12322  27.132  35.877   0.297
45540W        W12323  28.537  33.577  14.355
45541W        W12324  19.588  22.416   5.099
45542W        W12325  37.981  15.016  13.785
45543W        W12326  39.533  14.641  13.368
45544W        W12327  15.482  39.652  10.670
45545W        W12328  37.798  41.386  13.884
45546W        W12329  20.190  37.594  11.770
45547W        W12330  31.218   1.492   1.289
45548W        W12331  15.504  17.324  14.437
45549W        W12332  24.295  43.542  13.946
45550W        W12333   3.344  13.712   2.803
45551W        W12334  16.499  31.712  10.676
45552W        W12335  39.116  32.626  10.484
45553W        W12336  20.164  16.185   2.263
45554W        W12337  20.996  11.187   4.079
45555W        W12338  37.998  24.641   1.329
45556W        W12339  10.525  41.260   3.785
45557W        W12340  31.947  36.550  11.923
45558W        W12341  11.676   0.889  10.186
45559W        W12342  18.964  40.823  14.022
45560W        W12343  28.970  39.110  13.595
45561W        W12344  23.888  36.350   1.270
45562W        W12345   8.877   0.958   0.652
45563W        W12346  14.235  26.971  13.486
45564W        W12347  23.935  27.398  14.892
45565W        W12348  30.463  20.810  13.963
45566W        W12349  43.437  16.004   3.795
45567W        W12350  28.567   4.268   2.741
45568W        W12351   1.396  16.323   4.171
45569W        W12352  10.206   7.479   3.622
45570W        W12353  35.566  28.942   2.386
45571W        W12354  17.668  19.318   4.514
45572W        W12355  32.951   9.352   3.171
45573W        W12356  24.110  43.758  11.954
45574W        W12357  40.324  31.284  10.316
45575W        W12358   7.245  28.030  12.433
45576W        W12359  31.395  37.820  14.922
45577W        W12360  36.814  32.041   1.386
45578W        W12361  25.112  14.059  14.273
45579W        W12362   5.303  28.219   2.167
45580W        W12363   5.000   8.876  12.380
45581W        W12364   2.926  44.911  11.194
45582W        W12365  34.900  39.329   4.725
45583W        W12366  30.699  19.227  11.638
45584W        W12367  38.341  27.180   4.447
45585W        W12368  11.772  35.261   1.271
45586W        W12369  36.875  10.719   2.777
45587W        W12370  39.018  23.677   1.168
45588W        W12371  11.070  10.892   0.895
45589W        W12372  14.867  36.102   2.369
45590W        W12373  26.139  19.121  14.740
45591W        W12374  14.506   8.461   4.241
45592W        W12375  31.921  44.460  10.663
45593W        W12376  32.406  35.492  10.956
45594W        W12377   6.366  23.665  11.154
45595W        W12378  29.961  35.094   2.870
45596W        W12379  33.838  30.420  14.324
45597W        W12380   4.159   9.630   3.217
45598W        W12381   0.794  39.474   1.367
45599W        W12382  19.815   5.877   2.237
45600W        W12383   1.159  14.453  14.926
45601W        W12384  15.891  20.649   2.309
45602W        W12385  40.126   9.826   2.972
45603W        W12386  11.718  38.171  11.912
45604W        W12387  20.072  16.498  10.734
45605W        W12388  30.670  25.054   2.737
45606W        W12389  36.171  35.958   2.961
45607W        W12390  40.590  14.822   1.175
45608W        W12391  29.238  40.457  11.225
45609W        W12392  15.389  24.927   1.768
45610W        W12393  37.187  44.707   1.657
45611W        W12394  37.567  36.556   4.295
45612W        W12395   3.949  42.825  11.286
45613W        W12396  19.824   8.245   0.398
45614W        W12397   8.499  44.663  14.442
45615W        W12398  24.030   9.166   2.701
45616W        W12399  14.078  24.035  11.549
45617W        W12400  13.062  35.520  11.577
45618W        W12401  44.417  11.716  11.722
45619W        W12402  29.725   2.762   3.601
45620W        W12403  22.618  26.199   4.117
45621W        W12404  39.327   5.350  11.530
45622W        W12405  42.163  12.245  10.323
45623W        W12406  27.906  29.126   0.601
45624W        W12407  37.800  39.044   1.002
45625W        W12408  17.020  23.379   4.177
45626W        W12409  32.994  36.004   2.056
45627W        W12410   9.873   0.621   3.729
45628W        W12411  44.856  34.204   2.744
45629W        W12412  15.382   0.208  13.863
45630W        W12413  30.216  32.914  12.093
45631W        W12414   7.172  38.134  14.176
45632W        W12415  30.515  41.978   2.906
45633W        W12416  40.367  23.660   3.158
45634W        W12417  13.209   7.155   3.762
45635W        W12418   3.830  26.301   0.620
45636W        W12419  27.139  15.431  10.668
45637W        W12420   8.236   7.445  10.760
45638W        W12421  18.873   4.181   0.244
45639W        W12422   1.461   0.369  13.904
45640W        W12423  36.390  40.019   5.344
45641W        W12424   5.353  44.352   0.814
45642W        W12425   5.891  43.178  13.426
45643W        W12426  34.998  14.580   0.203
45644W        W12427  14.557  44.325  12.148
45645W        W12428  34.935   3.462  11.189
45646W        W12429  10.972  28.690   0.900
45647W        W12430  30.709  27.997   3.704
45648W        W12431  20.461  21.799  13.981
45649W        W12432  18.769  23.957   1.811
45650W        W12433   6.952  17.088   1.311
45651W        W12434   5.932  18.386   3.368
45652W        W12435  43.840  15.452  14.476
45653W        W12436  10.317   3.526  13.225
45654W        W12437   6.354  22.209   2.843
45655W        W12438  10.146  17.077  13.517
45656W        W12439  33.845  26.684   0.945
45657W        W12440  16.094  38.460   2.598
45658W        W12441  11.231  32.700   0.819
45659W        W12442   4.645   1.816   1.781
45660W        W12443   4.284  42.683  10.632
45661W        W12444   3.777  16.410  13.937
45662W        W12445  29.464  44.844  13.563
45663W        W12446  44.735  20.151   4.314
45664W        W12447   6.780   9.311   2.800
45665W        W12448  18.745   1.205   0.306
45666W        W12449   2.337   5.595   1.060
45667W        W12450  40.393  26.591   1.751
45668W        W12451  44.848   1.975  13.742
45669W        W12452  25.606  39.382   9.794
45670W        W12453  20.002   0.287   3.663
45671W        W12454   8.227   7.511   5.471
45672W        W12455  43.803  15.828  14.822
45673W        W12456   3.732  31.964   1.253
45674W        W12457  33.945  31.463  12.388
45675W        W12458  32.903   7.473  11.305
45676W        W12459  29.903  26.548  10.947
45677W        W12460  11.576  10.867   0.872
45678W        W12461  30.754  10.767  12.059
45679W        W12462   0.673  25.358  13.610
45680W        W12463  36.859  23.429   4.103
45681W        W12464  12.156  39.036   4.051
45682W        W12465  11.745  23.463   0.880
45683W        W12466  36.806  42.315  13.883
45684W        W12467  13.684  19.180  14.531
45685W        W12468  31.863   1.572   3.620
45686W        W12469  29.604  26.135  11.491
45687W        W12470  18.190   2.468   0.293
45688W        W12471   0.561  18.698  14.895
45689W        W12472   6.493  19.318   1.910
45690W        W12473  21.728   7.680  12.790
45691W        W12474  22.946   5.110  13.044
45692W        W12475  23.168   4.633  12.968
45693W        W12476  19.639   1.939   2.829
45694W        W12477  19.697  40.591   2.756
45695W        W12478  12.716   3.228   1.483
45696W        W12479  36.684  31.842  12.187
45697W        W12480   3.319  39.792   4.794
45698W        W12481   0.402   3.453  13.005
45699W        W12482  20.632  44.267  14.509
45700W        W12483   9.889  29.077   4.065
45701W        W12484  10.588  25.117  12.523
45702W        W12485   1.857  34.570  11.132
45703W        W12486  40.737  34.079  10.801
45704W        W12487   4.203  35.135  13.763
45705W        W12488  41.181   5.348   2.764
45706W        W12489   1.385   7.557  12.686
45707W        W12490  39.065  10.829  14.577
45708W        W12491  43.521  41.465  14.960
45709W        W12492  11.346  24.490   3.761
45710W        W12493  31.554  38.871   3.595
45711W        W12494  23.693  40.989   1.362
45712W        W12495   4.422  18.295  12.211
45713W        W12496  14.388  25.203  12.346
45714W        W12497  36.095  34.004   1.268
45715W        W12498  13.369  29.019   4.043
45716W        W12499  36.340   4.865  13.927
45717W        W12500  21.218  19.313   0.814
45718W        W12501   4.375  22.235  11.441
45719W        W12502  34.583  22.240   1.424
45720W        W12503  19.581  23.139   0.007
45721W        W12504  44.849   5.166  13.436
45722W        W12505  33.661  10.378   2.739
45723W        W12506  22.508  36.798  14.015
45724W        W12507   0.439  43.427   0.062
45725W        W12508   4.719  40.824   4.159
45726W        W12509  20.726  20.356   2.983
45727W        W12510   0.082   9.583   4.858
45728W        W12511   6.179  37.466   2.421
45729W        W12512  44.731  15.941   1.619
45730W        W12513  35.112  38.460  10.493
45731W        W12514  10.841  14.187  11.244
45732W        W12515  17.071  39.739   2.776
45733W        W12516  29.124  26.554  13.985
45734W        W12517  15.753  29.900   3.572
45735W        W12518  27.471  25.866   5.353
45736W        W12519  13.275   4.963   0.007
45737W        W12520  31.897  10.286   2.856
45738W        W12521  32.784  35.416  12.919
45739W        W12522   1.397  35.379  11.161
45740W        W12523  16.265  29.417   3.036
45741W        W12524  15.797  25.624   0.455
45742W        W12525  21.551   3.821   1.423
45743W        W12526  21.190  43.521  12.548
45744W        W12527  16.123  37.981   0.682
45745W        W12528  28.476  10.679   4.094
45746W        W12529   2.886  39.883   0.892
45747W        W12530   8.294  31.619   4.706
45748W        W12531  22.085   4.860  11.914
45749W        W12532   6.196  20.632   0.795
45750W        W12533  20.542  12.894  11.513
45751W        W12534   0.184  37.364  12.493
45752W        W12535  16.551  33.429  12.553
45753W        W12536  13.869  41.578   1.836
45754W        W12537  39.111  14.836  10.681
45755W        W12538  41.476   5.947  13.412
45756W        W12539  33.332  21.855   3.720
45757W        W12540   3.224   2.959  12.636
45758W        W12541  41.268  16.258   4.605
45759W        W12542  12.765  37.525  11.585
45760W        W12543  25.409  32.915  13.954
45761W        W12544  38.813  37.048   4.113
45762W        W12545  40.304  42.766  13.962
45763W        W12546  29.302  25.001   1.490
45764W        W12547   9.733  22.671  14.259
45765W        W12548  35.580   2.917  13.018
45766W        W12549   6.126  18.139  12.129
45767W        W12550  17.964  16.176   2.958
45768W        W12551  44.421  23.611   2.235
45769W        W12552  26.352  42.848  10.924
45770W        W12553   8.614   6.484   4.696
45771W        W12554   4.302  42.148   3.784
45772W        W12555  40.285  33.350  12.817
45773W        W12556  29.429  18.284  13.274
45774W        W12557  20.681   1.727   2.309
45775W        W12558  31.916   6.851   2.434
45776W        W12559  42.290  17.508  10.614
45777W        W12560  20.583  31.630  12.562
45778W        W12561  14.660  17.097   2.659
45779W        W12562  21.776  20.235  11.660
45780W        W12563   6.559  16.214   4.512
45781W        W12564  36.451  22.473   3.199
45782W        W12565  10.659  16.611  10.463
45783W        W12566  15.815  43.945   0.485
45784W        W12567   6.202   8.179   1.961
45785W        W12568  14.321  17.620  14.048
45786W        W12569  39.499  37.397  11.996
45787W        W12570  32.379   2.726  14.878
45788W        W12571  12.777  23.282   2.917
45789W        W12572  18.325  20.332  13.717
45790W        W12573  28.087  28.550  10.161
45791W        W12574  22.194  23.603   1.879
45792W        W12575   9.841  19.340  13.323
45793W        W12576  25.548  30.877  10.516
45794W        W12577  36.639  25.722   4.257
45795W        W12578  31.778  14.438  12.569
45796W        W12579  17.758  28.457  13.052
45797W        W12580  14.111  43.000  12.882
45798W        W12581  19.232   8.878   4.394
45799W        W12582  24.550  17.280  11.219
45800W        W12583  12.069  24.588   4.275
45801W        W12584   7.685  15.677   3.093
45802W        W12585   8.393   2.600   4.523
45803W        W12586   2.739  10.593   4.249
45804W        W12587  32.593  36.946   0.947
45805W        W12588   1.339   0.151  14.434
45806W        W12589  13.730   6.256   2.346
45807W        W12590  28.804  14.773  14.491
45808W        W12591   0.023  33.885   3.668
45809W        W12592  11.514  19.484  13.372
45810W        W12593  27.143  42.215  13.350
45811W        W12594  29.572  40.086  14.092
45812W        W12595  32.978  34.142  14.962
45813W        W12596  35.054  10.696   3.814
45814W        W12597  42.015  19.255  10.765
45815W        W12598  18.378  27.137   1.880
45816W        W12599  40.592  15.733   0.858
45817W        W12600   1.229  26.229  13.404
45818W        W12601  42.252  29.488  13.915
45819W        W12602   1.245  40.909   3.182
45820W        W12603  14.995  17.691   3.754
45821W        W12604  21.519  21.042  14.418
45822W        W12605   7.655  33.017   2.383
45823W        W12606   9.691   7.130  13.857
45824W        W12607  44.553  32.985  12.812
45825W        W12608  21.777  18.164  11.594
45826W        W12609  23.146  35.552  12.638
45827W        W12610   8.960  33.296  12.942
45828W        W12611  43.081  34.963   3.220
45829W        W12612  12.716  17.678  12.075
45830W        W12613   5.328  16.872   0.784
45831W        W12614  25.473   1.766  14.706
45832W        W12615  44.561  39.450   0.179
45833W        W12616  28.901   9.415   1.837
45834W        W12617  13.567   2.763  13.002
45835W        W12618  40.737  38.060   0.730
45836W        W12619  28.953  31.499   4.667
45837W        W12620  32.425  42.401   4.759
45838W        W12621  35.091  39.860  12.557
45839W        W12622   3.753  44.706  11.571
45840W        W12623  30.487  26.546   1.397
45841W        W12624   3.218  21.054   4.556
45842W        W12625  15.812  13.166   0.337
45843W        W12626  16.280   9.411   0.094
45844W        W12627  25.230   3.562  13.964
45845W        W12628  17.056   5.049   0.119
45846W        W12629  40.526  37.731  12.929
45847W        W12630   2.652   1.830  12.538
45848W        W12631  13.515  29.149   0.379
45849W        W12632  23.607  34.315   0.271
45850W        W12633  40.815  44.729   4.159
45851W        W12634  19.107  32.541  12.093
45852W        W12635  14.043  18.045  14.099
45853W        W12636  10.674  29.990  11.493
45854W        W12637   3.388  17.104  13.499
45855W        W12638  14.324  20.736  11.919
45856W        W12639  19.450  35.713  11.714
45857W        W12640  24.437   3.228   0.469
45858W        W12641  32.701  12.162   1.378
45859W        W12642  28.661  24.957  13.414
45860W        W12643  14.288   8.441   1.299
45861W        W12644  13.219  17.776  12.192
45862W        W12645   8.925  17.291  12.130
45863W        W12646  11.339   6.141   9.757
45864W        W12647   2.703  40.884   2.699
45865W        W12648  30.431  12.891   2.323
45866W        W12649  38.170   7.992  14.917
45867W        W12650  44.277  18.347   3.165
45868W        W12651  42.486   4.455   2.865
45869W        W12652  31.070  22.454   2.091
45870W        W12653  32.896  35.312  12.021
45871W        W12654   1.893  13.363   0.456
45872W        W12655  38.833  11.952   0.392
45873W        W12656   6.698   8.271   4.278
45874W        W12657  25.463  44.985  14.011
45875W        W12658  21.761  21.153   2.586
45876W        W12659   5.819  43.678   0.587
45877W        W12660  14.374  44.753   2.794
45878W        W12661  22.067  11.605  10.488
45879W        W12662  21.296  41.080   0.024
45880W        W12663  22.697  20.818  10.776
45881W        W12664  12.397  24.256   4.040
45882W        W12665  40.332   1.288  11.526
45883W        W12666  27.346  17.642  14.823
45884W        W12667  34.403   4.769   4.935
45885W        W12668  20.523  43.060  12.567
45886W        W12669  37.630  29.040  12.395
45887W        W12670   3.607  25.255  13.600
45888W        W12671   5.210  28.018  10.919
45889W        W12672  30.589  18.115   4.236
45890W        W12673   8.326  19.215   0.865
45891W        W12674  37.036  15.548  13.961
45892W        W12675  38.162  21.001  13.184
45893W        W12676  42.339  36.786   0.822
45894W        W12677   1.212  30.525  12.675
45895W        W12678  28.403  40.321   0.845
45896W        W12679  43.230  31.108  14.251
45897W        W12680  20.329  32.478   3.805
45898W        W12681   6.811  40.963  12.656
45899W        W12682  37.520  37.135   3.700
45900W        W12683   2.462  31.390  12.953
45901W        W12684   6.819   9.329  12.370
45902W        W12685  33.854  41.360   3.109
45903W        W12686  33.184  36.216  11.242
45904W        W12687   4.704  22.928   2.894
45905W        W12688  22.266   9.591   0.539
45906W        W12689  21.442  21.489   2.838
45907W        W12690  28.402  43.387   0.256
45908W        W12691  27.074  33.494  10.615
45909W        W12692   1.493  10.739  12.322
45910W        W12693  23.360   1.804   1.943
45911W        W12694  14.191  12.234   0.984
45912W        W12695  36.616   9.334   3.841
45913W        W12696   5.082  13.010   4.883
45914W        W12697  19.698  28.450   0.899
45915W        W12698   2.259  17.094  12.439
45916W        W12699  36.527  29.639   0.413
45917W        W12700  32.920  26.880   0.453
45918W        W12701  27.763  23.147   2.968
45919W        W12702  40.061  25.599  12.034
45920W        W12703  32.078  25.537   0.994
45921W        W12704  27.408  16.200  13.069
45922W        W12705  44.344  31.545   2.393
45923W        W12706  34.990   8.957  14.716
45924W        W12707   4.433   1.385  10.644
45925W        W12708  31.109  29.431  14.760
45926W        W12709  29.408  23.648   4.524
45927W        W12710  14.252  17.146   0.097
45928W        W12711  27.159  32.862   4.676
45929W        W12712  28.125   4.893   2.360
45930W        W12713   6.824   3.324   4.671
45931W        W12714   5.035   5.097  12.479
45932W        W12715  32.098  32.446  12.051
45933W        W12716  12.298  29.413   0.783
45934W        W12717  19.991  36.079   0.979
45935W        W12718  15.283  23.536   2.063
45936W        W12719  15.887  24.996   1.705
45937W        W12720  43.240   0.507  14.529
45938W        W12721   0.835  34.809  14.324
45939W        W12722  38.565  44.343  11.186
45940W        W12723  22.602  33.151   4.350
45941W        W12724  35.872   1.627  13.930
45942W        W12725  44.115  21.465   2.434
45943W        W12726  15.640  33.011  12.766
45944W        W12727  10.522  14.455   0.372
45945W        W12728  36.896   3.017  14.525
45946W        W12729  15.112   3.475   0.119
45947W        W12730   4.431  36.935  11.542
45948W        W12731   0.281   9.695  13.381
45949W        W12732   6.012  30.904   1.177
45950W        W12733   9.787  23.512   4.567
45951W        W12734  24.667  36.158   0.806
45952W        W12735  34.998   5.704   1.870
45953W        W12736  26.688  34.204  14.788
45954W        W12737  42.344  28.770  14.550
45955W        W12738  26.251  22.236  14.903
45956W        W12739   5.044  38.303  13.025
45957W        W12740  22.533  27.005  13.802
45958W        W12741   3.480  29.933   2.774
45959W        W12742  32.349  27.528   0.941
45960W        W12743  20.014   5.906  11.698
45961W        W12744  36.671  15.771   3.793
45962W        W12745  28.436  37.560  14.368
45963W        W12746  20.500  18.317   4.122
45964W        W12747  27.004   7.772   0.013
45965W        W12748  11.584  29.536  10.794
45966W        W12749  15.316  22.916  14.978
45967W        W12750   9.488  37.797  14.076
45968W        W12751  14.428  40.046  14.328
45969W        W12752   9.518  30.654  11.439
45970W        W12753  42.938  23.495  11.184
45971W        W12754   4.440  15.235  13.856
45972W        W12755  22.751   8.280  12.936
45973W        W12756  21.828  29.154   2.528
45974W        W12757  33.647   1.220  13.330
45975W        W12758   7.106   4.364   4.131
45976W        W12759  13.161  30.663   3.105
45977W        W12760  15.664  34.712   0.331
45978W        W12761   8.670  20.526  13.284
45979W        W12762  14.293  19.690   0.367
45980W        W12763   6.211  13.985   2.722
45981W        W12764  28.035  17.242   1.663
45982W        W12765   9.205   9.240   0.777
45983W        W12766  13.131  15.561   0.750
45984W        W12767  24.569  42.107   3.701
45985W        W12768   9.222   4.172   1.202
45986W        W12769   2.939   0.702   4.082
45987W        W12770  36.054  35.928  10.508
45988W        W12771  40.774  34.890  11.626
45989W        W12772   6.808  21.160  12.105
45990W        W12773  13.224  15.094  11.012
45991W        W12774  36.936   4.698   1.717
45992W        W12775  12.128  24.126   4.494
45993W        W12776  24.736  29.028  10.873
45994W        W12777  12.671  29.901  13.070
45995W        W12778   9.383  14.104  13.893
45996W        W12779  36.122  16.087  14.936
45997W        W12780  17.540  31.996   5.033
45998W        W12781  26.427  12.316  11.687
45999W        W12782  23.849  43.370   3.210
46000W        W12783  29.010  23.279  12.160
46001W        W12784  42.318  34.248   0.219
46002W        W12785   1.159  39.735  14.405
46003W        W12786   5.341   0.876  10.770
46004W        W12787  28.491  25.494  10.420
46005W        W12788   1.554  41.499   1.624
46006W        W12789  24.528  32.943   3.182
46007W        W12790  36.339  40.538  14.725
46008W        W12791  27.985  20.569  13.924
46009W        W12792  20.406  32.927   4.174
46010W        W12793  36.336   7.189   2.310
46011W        W12794  29.589  36.854   4.798
46012W        W12795  10.120  16.215   2.402
46013W        W12796  17.195  10.434  14.490
46014W        W12797  35.479  25.081   3.101
46015W        W12798  10.220   5.747   4.632
46016W        W12799  17.110  41.050  13.827
46017W        W12800  20.501  34.568   2.344
46018W        W12801   2.009  32.451   2.806
46019W        W12802  41.478  44.720   0.545
46020W        W12803  18.161   8.156  13.817
46021W        W12804  17.463  43.306   0.577
46022W        W12805  20.452  14.731   3.861
46023W        W12806  31.973  34.345   4.710
46024W        W12807   0.191  18.481  10.952
46025W        W12808  16.783  12.520   4.460
46026W        W12809  42.725  10.920  11.215
46027W        W12810  28.130   1.360  10.673
46028W        W12811   7.834  15.793  11.205
46029W        W12812  19.831  14.321  10.297
46030W        W12813   5.767   7.127  13.805
46031W        W12814  35.172   8.637  12.536
46032W        W12815  35.977  27.447  10.713
46033W        W12816  14.250  31.947   0.487
46034W        W12817  18.546  43.833  12.418
46035W        W12818   3.397  39.010  10.691
46036W        W12819  11.272  30.741  14.863
46037W        W12820   6.437  27.459   2.669
46038W        W12821  16.324  11.566  12.641
46039W        W12822  19.086  13.404   3.680
46040W        W12823  26.949  36.670  10.733
46041W        W12824  20.851  26.946   0.826
46042W        W12825   3.382   7.328   4.208
46043W        W12826  11.875  28.176  12.411
46044W        W12827  13.102  10.277  11.521
46045W        W12828  43.429  23.518   2.481
46046W        W12829  35.223   0.978   1.615
46047W        W12830  20.208  23.240   4.843
46048W        W12831  11.006  30.937  13.444
46049W        W12832  11.259  19.027  12.989
46050W        W12833  41.097  31.529  10.948
46051W        W12834  13.191   5.995   1.879
46052W        W12835  31.382  12.318  10.681
46053W        W12836  39.952  16.647   3.292
46054W        W12837  31.617  33.398  10.647
46055W        W12838  18.116  20.819  14.892
46056W        W12839  33.628  11.633  11.934
46057W        W12840  38.540  37.850   1.114
46058W        W12841  16.673  16.852  10.756
46059W        W12842  26.661  36.862  13.357
46060W        W12843   2.317  28.685   2.274
46061W        W12844   1.263  17.988  12.561
46062W        W12845  15.326  29.538   2.521
46063W        W12846  30.953  29.042   2.115
46064W        W12847   5.586  26.555  13.468
46065W        W12848  28.065  32.093   2.942
46066W        W12849  23.277  10.535  14.601
46067W        W12850   5.093  22.719   1.143
46068W        W12851  12.852  30.659  12.100
46069W        W12852  25.307  22.144   1.266
46070W        W12853  33.587  40.752   3.725
46071W        W12854  38.434  31.234  12.472
46072W        W12855  25.046  17.066   4.898
46073W        W12856   8.712   4.869  12.593
46074W        W12857  20.039   7.410  12.002
46075W        W12858  19.644  34.924   3.612
46076W        W12859  26.133  21.204   4.359
46077W        W12860   3.337   0.721  14.808
46078W        W12861  11.658  25.794   2.367
46079W        W12862  10.679  16.095  10.541
46080W        W12863   5.129  35.084   2.936
46081W        W12864   5.870  39.991  13.048
46082W        W12865  18.506  30.395   3.719
46083W        W12866  12.755  17.822  14.343
46084W        W12867  44.952  33.152   2.681
46085W        W12868  21.968  42.051   1.448
46086W        W12869  27.971  38.369   1.996
46087W        W12870  34.004  12.876   0.815
46088W        W12871   3.933  41.781   3.718
46089W        W12872  27.995  36.273   0.306
46090W        W12873  11.738   6.851  13.309
46091W        W12874  26.010  11.418   2.337
46092W        W12875  44.044  44.268  12.590
46093W        W12876  32.928  11.134   4.573
46094W        W12877  41.847  38.602  14.274
46095W        W12878  44.029  19.499   4.505
46096W        W12879  23.557  33.668  13.900
46097W        W12880  40.437  21.130   2.176
46098W        W12881  39.953  19.828   3.067
46099W        W12882  41.570  35.965  14.430
46100W        W12883  40.980  15.830  14.711
46101W        W12884  16.576  13.663   2.581
46102W        W12885   1.348   6.911  11.440
46103W        W12886   7.649  44.784  10.734
46104W        W12887  27.986  18.322  11.543
46105W        W12888  40.404   2.299  12.529
46106W        W12889  31.428  29.971   3.276
46107W        W12890  11.882  29.237   2.811
46108W        W12891  12.834  27.564  10.715
46109W        W12892  32.628  37.019  12.078
46110W        W12893  17.618  33.682  13.388
46111W        W12894  10.328   5.796   5.608
46112W        W12895  43.222  25.521  13.982
46113W        W12896  19.869   6.364  13.847
46114W        W12897  44.801  36.123  12.679
46115W        W12898  19.100   5.404  12.562
46116W        W12899  16.485  18.304   4.644
46117W        W12900  35.574  28.875   0.278
46118W        W12901  29.517   5.209  13.745
46119W        W12902  17.237  15.677  12.498
46120W        W12903   0.486   9.845   4.647
46121W        W12904  29.167  24.019  13.981
46122W        W12905  33.681  24.803   3.247
46123W        W12906  44.545  13.849   4.939
46124W        W12907   7.656  22.268   0.320
46125W        W12908  35.149  31.006  11.128
46126W        W12909  37.649  28.684  11.740
46127W        W12910  22.558  44.854  14.059
46128W        W12911  11.071   3.258   4.675
46129W        W12912  13.279  27.118  11.772
46130W        W12913  37.580  44.249  13.421
46131W        W12914  40.064  33.099   0.502
46132W        W12915  25.407   9.382   3.630
46133W        W12916   0.270  44.423  14.372
46134W        W12917  44.120  20.871   3.555
46135W        W12918   2.320  13.345   1.763
46136W        W12919  21.208  15.287  11.056
46137W        W12920  29.334  44.413  10.717
46138W        W12921  34.690  27.667   2.526
46139W        W12922  22.019  40.575   4.595
46140W        W12923  36.328  10.315   1.677
46141W        W12924  43.373  38.284   3.196
46142W        W12925  34.450  31.085   3.673
46143W        W12926  25.320  17.631   0.234
46144W        W12927   2.753  39.282   0.261
46145W        W12928   4.372  44.119   0.313
46146W        W12929  41.886  43.035   4.956
46147W        W12930  27.903  22.129  14.391
46148W        W12931  38.925  15.536   4.678
46149W        W12932  21.651   3.178   0.404
46150W        W12933  40.339  19.983  12.989
46151W        W12934  30.190  12.809   0.715
46152W        W12935   0.274  26.518  10.636
46153W        W12936  29.262  26.680   4.622
46154W        W12937  30.190   4.424   3.675
46155W        W12938   6.990  18.894  13.039
46156W        W12939  32.998  17.136  11.481
46157W        W12940  28.978  44.569   2.417
46158W        W12941  11.093   1.716  13.008
46159W        W12942  20.850  35.435   4.590
46160W        W12943  32.970   6.907   0.086
46161W        W12944  19.418  20.098   2.931
46162W        W12945  21.193  38.360   4.494
46163W        W12946   5.381  22.086  12.328
46164W        W12947  15.092  34.693   3.212
46165W        W12948  19.802  32.426   3.921
46166W        W12949  18.460  28.319  11.037
46167W        W12950  25.204   5.450  14.414
46168W        W12951  35.243   7.648  13.509
46169W        W12952   2.732  28.960   1.135
46170W        W12953   9.648  40.186   4.621
46171W        W12954  43.842   5.454   2.223
46172W        W12955  28.170  14.260  14.456
46173W        W12956  21.614  28.027  11.018
46174W        W12957  41.287  43.627  12.977
46175W        W12958  13.081  39.421   2.958
46176W        W12959   1.450   1.722   1.361
46177W        W12960   9.233  39.527   4.812
46178W        W12961  23.207  40.274   3.738
46179W        W12962   0.324  28.996   2.803
46180W        W12963  37.561  12.282  13.456
46181W        W12964  16.786  16.391   3.567
46182W        W12965  11.467  39.951  10.505
46183W        W12966  23.673  22.002  12.576
46184W        W12967   3.870  25.260   0.850
46185W        W12968  22.217  14.744   3.706
46186W        W12969  26.128  22.706  14.739
46187W        W12970  22.251  31.526  10.830
46188W        W12971   4.317  35.139  13.245
46189W        W12972  18.112   9.462   3.769
46190W        W12973  44.223   7.684   3.539
46191W        W12974  24.660   8.214   2.188
46192W        W12975  42.499  44.142  10.288
46193W        W12976   9.335  44.856  13.373
46194W        W12977   5.964   1.184   0.408
46195W        W12978  43.036  17.250  13.273
46196W        W12979   4.624  34.938   3.801
46197W        W12980  26.062  12.187  10.968
46198W        W12981  21.197  28.603   0.449
46199W        W12982  21.062  35.903  11.118
46200W        W12983  41.025  13.594   3.146
46201W        W12984  10.893  17.656   1.978
46202W        W12985   9.103   9.227   2.682
46203W        W12986  43.920  13.603  14.097
46204W        W12987   1.627  34.421   2.510
46205W        W12988   0.208  14.530   4.984
46206W        W12989  26.590   8.796   4.585
46207W        W12990  43.060  27.160  12.362
46208W        W12991  36.340  27.415  11.159
46209W        W12992  24.934   6.184  12.025
46210W        W12993  28.142  29.463  13.519
46211W        W12994   0.924  44.855   1.731
46212W        W12995  39.378   5.178   0.749
46213W        W12996  22.696  41.480   0.424
46214W        W12997  11.324  31.006   3.568
46215W        W12998  10.711  18.152   2.215
46216W        W12999  30.711   4.302   0.284
46217W        W13000  25.661  26.403   3.243
46218W        W13001   4.710  23.183  11.567
46219W        W13002  44.756  38.855  13.004
46220W        W13003  13.895  31.912   0.898
46221W        W13004  31.010  38.182   2.767
46222W        W13005   2.324  37.462  12.453
46223W        W13006  32.717   8.293  10.658
46224W        W13007  14.670  40.117   2.477
46225W        W13008  34.021   2.018  13.126
46226W        W13009  28.658  32.854  14.742
46227W        W13010  44.862  17.184  13.081
46228W        W13011  15.562  27.578  14.107
46229W        W13012  39.348  28.421  11.405
46230W        W13013  18.990  36.207   3.187
46231W        W13014  28.418   8.771  12.325
46232W        W13015  22.322  40.365   2.594
46233W        W13016  35.862  40.317   0.902
46234W        W13017  36.400  39.952   3.393
46235W        W13018   0.818  21.131  12.714
46236W        W13019  10.287  14.783  10.970
46237W        W13020  44.916  40.107   1.683
46238W        W13021  32.455  43.964   2.716
46239W        W13022   0.685  30.046  11.603
46240W        W13023  24.239  17.603   1.103
46241W        W13024  24.649  42.902  14.501
46242W        W13025  11.053   0.679   0.896
46243W        W13026  31.480  33.035   0.465
46244W        W13027  27.188  17.102  13.448
46245W        W13028  29.735  13.218   1.914
46246W        W13029  32.848  15.740   3.284
46247W        W13030   7.770  25.441  13.360
46248W        W13031  11.092   5.797  14.771
46249W        W13032  30.599  38.896  14.053
46250W        W13033  35.449  35.735  13.969
46251W        W13034   9.967   6.270   0.640
46252W        W13035  28.613  28.269   1.376
46253W        W13036  36.926  18.231  14.779
46254W        W13037  13.439  14.220  13.006
46255W        W13038  40.315   7.749  10.116
46256W        W13039  40.732  21.785  13.829
46257W        W13040  12.377  10.380  13.386
46258W        W13041  32.217  33.347  13.910
46259W        W13042  30.060  31.201  12.591
46260W        W13043  38.823   3.860   0.804
46261W        W13044   3.099  35.007  12.893
46262W        W13045   7.135  30.939   4.204
46263W        W13046  12.678  27.031   2.121
46264W        W13047  19.848   4.951   2.299
46265W        W13048   0.290  24.018  13.812
46266W        W13049  39.750  31.607   3.641
46267W        W13050  33.002  25.559   2.384
46268W        W13051  39.430  11.378  13.032
46269W        W13052  31.945  17.623   0.055
46270W        W13053  15.053  24.414   0.017
46271W        W13054  30.372   7.803   2.891
46272W        W13055  32.064  13.712  12.973
46273W        W13056   6.671  10.400   4.605
46274W        W13057   2.205   7.325   4.608
46275W        W13058  42.061  19.801  13.294
46276W        W13059   9.214  18.095   2.002
46277W        W13060   0.960  41.399  14.513
46278W        W13061  34.004  26.677  12.753
46279W        W13062  34.618   9.178   2.821
46280W        W13063  42.782   7.260   2.171
46281W        W13064  25.389  36.183   0.094
46282W        W13065  23.983  11.358   0.424
46283W        W13066  17.150   3.998   4.644
46284W        W13067  12.789   2.738  14.481
46285W        W13068  22.572  44.281   2.118
46286W        W13069  44.238  16.516  10.885
46287W        W13070   6.049   7.671  11.096
46288W        W13071  36.828   9.359  13.451
46289W        W13072  31.080   0.689  13.720
46290W        W13073  27.876  25.011   4.629
46291W        W13074  15.209  14.000   0.422
46292W        W13075  23.596  11.711  13.128
46293W        W13076  29.194   5.511  12.448
46294W        W13077   5.853  44.711  12.079
46295W        W13078  20.826   6.906   2.212
46296W        W13079  25.730  33.286  13.784
46297W        W13080  17.003  30.911   4.526
46298W        W13081  40.850  40.324  11.107
46299W        W13082  21.512  19.239   4.080
46300W        W13083  37.391  12.681  12.956
46301W        W13084  32.609  31.740   3.737
46302W        W13085  15.854  19.953   1.999
46303W        W13086  44.998  44.523  11.913
46304W        W13087  44.595  28.685  13.428
46305W        W13088  29.211  33.191  13.481
46306W        W13089  25.619  42.005   2.375
46307W        W13090  32.409  24.186  11.298
46308W        W13091  34.064  30.015   0.129
46309W        W13092  35.296  30.619   1.350
46310W        W13093  11.445  42.885   5.048
46311W        W13094   0.992   6.020  11.658
46312W        W13095  24.467   0.042   3.839
46313W        W13096  21.410   1.382  11.066
46314W        W13097  19.884  35.398  12.583
46315W        W13098  34.864  24.676  14.853
46316W        W13099  21.744  13.206  11.041
46317W        W13100  42.999  42.703  10.071
46318W        W13101  19.698  42.784  12.090
46319W        W13102  32.658   6.382   1.246
46320W        W13103  40.307  32.778  11.125
46321W        W13104  19.902  32.048  13.567
46322W        W13105  37.300  43.031  13.812
46323W        W13106  27.953  25.205   3.365
46324W        W13107  24.149  23.194   4.684
46325W        W13108  18.767  13.916   1.974
46326W        W13109  30.116  13.284   4.298
46327W        W13110  15.808  30.376   3.730
46328W        W13111  22.650   5.321  14.441
46329W        W13112   9.220  30.071   1.821
46330W        W13113   8.401  32.372  14.836
46331W        W13114  39.359  19.502   0.220
46332W        W13115  25.895  38.009   3.233
46333W        W13116   3.711  43.337  14.331
46334W        W13117  12.531   6.641   3.556
46335W        W13118  33.294  30.980  10.473
46336W        W13119  36.975  10.144  11.156
46337W        W13120   7.653  30.130   3.873
46338W        W13121  27.989  39.321   2.341
46339W        W13122  44.273  18.808  11.037
46340W        W13123  14.673   8.782  14.243
46341W        W13124  23.497  15.127   0.883
46342W        W13125  24.667  39.730   0.137
46343W        W13126   5.906  28.008   3.488
46344W        W13127   7.207   7.953  12.667
46345W        W13128  26.202  13.206   1.167
46346W        W13129  26.828  43.315   3.184
46347W        W13130  37.501  26.317   1.805
46348W        W13131  11.556   5.712  11.545
46349W        W13132  32.992  18.654  12.773
46350W        W13133   5.797  19.520   0.331
46351W        W13134  14.564  42.572  14.434
46352W        W13135  11.421  30.418   2.417
46353W        W13136  21.711  37.485   0.759
46354W        W13137  37.448  20.982  13.958
46355W        W13138  11.376  14.772  13.757
46356W        W13139  24.476  17.064  13.904
46357W        W13140  26.843  44.491  12.019
46358W        W13141  10.639  29.133   2.315
46359W        W13142   7.056   8.968   3.338
46360W        W13143   8.925  23.079  13.278
46361W        W13144  27.215   4.860  11.280
46362W        W13145  39.623  44.836  11.624
46363W        W13146  29.402  17.177  10.607
46364W        W13147  15.895   1.576  10.210
46365W        W13148  32.082  30.052  12.086
46366W        W13149   7.100  17.173  10.820
46367W        W13150   7.186  24.526   1.316
46368W        W13151   4.664  43.911  13.090
46369W        W13152  16.040  26.798  13.845
46370W        W13153  14.759  11.084   2.917
46371W        W13154  12.554  39.472  13.538
46372W        W13155  12.350  39.425  14.046
46373W        W13156   0.349  12.069   3.903
46374W        W13157  37.320  16.998   0.990
46375W        W13158  37.863  23.613   0.320
46376W        W13159  17.154  15.447  11.335
46377W        W13160   9.248  43.204   0.787
46378W        W13161  26.895  33.955  11.834
46379W        W13162  15.318  15.578  10.688
46380W        W13163  14.235  16.069  11.452
46381W        W13164  29.154  36.614   2.284
46382W        W13165  26.218  38.411   1.913
46383W        W13166  22.730  18.965  12.497
46384W        W13167  17.570  40.258   4.943
46385W        W13168   1.240  12.800   3.123
46386W        W13169   9.828  12.531  13.383
46387W        W13170  15.216  20.003   4.712
46388W        W13171  17.195  18.705  12.452
46389W        W13172  32.019  31.671  11.656
46390W        W13173  20.019   6.012   3.237
46391W        W13174  33.132  43.866   4.166
46392W        W13175  10.122   9.612  13.548
46393W        W13176  17.189  21.842  11.118
46394W        W13177   7.942  36.636   1.804
46395W        W13178   4.473  30.051   0.900
46396W        W13179  27.963   9.543   4.473
46397W        W13180  33.420  43.457  14.221
46398W        W13181  32.269   9.284  14.424
46399W        W13182  40.899  36.627  10.720
46400W        W13183  22.520  22.291  14.761
46401W        W13184  25.274  32.192  12.141
46402W        W13185  37.929  27.925   1.186
46403W        W13186  33.283  17.653  12.756
46404W        W13187   7.396  31.624   3.339
46405W        W13188  38.353  21.639   3.973
46406W        W13189  35.312  15.109   3.713
46407W        W13190  16.315  21.619   4.202
46408W        W13191  28.879   1.837   2.962
46409W        W13192  33.208  40.964  13.069
46410W        W13193  38.306   2.185  11.075
46411W        W13194   3.510  36.869  10.678
46412W        W13195  16.717  14.024   5.774
46413W        W13196  22.117  44.445   2.352
46414W        W13197  22.410   3.869  12.564
46415W        W13198  29.207  15.605  12.095
46416W        W13199   7.872  34.113   1.392
46417W        W13200   0.264  21.098  11.603
46418W        W13201   2.356  37.910   1.699
46419W        W13202   2.902  40.334   0.186
46420W        W13203   6.996  30.463  12.367
46421W        W13204  37.846  34.645   3.293
46422W        W13205   8.905  13.902   0.898
46423W        W13206  27.032  26.515  10.019
46424W        W13207  21.426  16.899  10.973
46425W        W13208  12.812  15.354   1.218
46426W        W13209  28.183  15.742  11.445
46427W        W13210  30.243  37.918   4.225
46428W        W13211  41.990  39.589   2.208
46429W        W13212  40.524  25.587   2.964
46430W        W13213  23.288  21.711  13.231
46431W        W13214  34.498  17.775   2.647
46432W        W13215  11.920  29.365  11.592
46433W        W13216  39.207  14.295   4.072
46434W        W13217  18.221  43.234  14.444
46435W        W13218  24.500  21.569  12.125
46436W        W13219  10.429  38.876   3.685
46437W        W13220  36.305  13.304  11.057
46438W        W13221  17.660  12.615  11.747
46439W        W13222   6.676  43.406   1.640
46440W        W13223   9.239  43.944   3.165
46441W        W13224  17.618  40.580   1.230
46442W        W13225   7.135  30.113  14.348
46443W        W13226   9.121  31.223  10.764
46444W        W13227  18.269  15.280   2.771
46445W        W13228  22.266  13.716   1.384
46446W        W13229   3.188  43.890   1.882
46447W        W13230  39.792  17.682   1.624
46448W        W13231  34.061  13.472  11.006
46449W        W13232  31.025  30.783  10.293
46450W        W13233   9.065   6.836  11.661
46451W        W13234  41.315   5.036  13.561
46452W        W13235  36.832  43.302  14.090
46453W        W13236   1.766   7.981  14.941
46454W        W13237  44.561  43.941  10.023
46455W        W13238  26.274  37.653   0.416
46456W        W13239   3.921  14.340   4.640
46457W        W13240  35.435  29.411   1.008
46458W        W13241   9.827  23.678  13.888
46459W        W13242  39.325  25.552   4.607
46460W        W13243   9.180   3.153   1.320
46461W        W13244   4.685  22.675  14.454
46462W        W13245  13.303   5.298  13.417
46463W        W13246  23.947  27.510  12.192
46464W        W13247  39.903  40.813  13.548
46465W        W13248  39.777  13.182  11.143
46466W        W13249  39.065   7.808   0.392
46467W        W13250  26.933  28.128   4.576
46468W        W13251  11.147  20.854  10.974
46469W        W13252   3.389   4.632  10.348
46470W        W13253  32.963  36.847   2.596
46471W        W13254  13.775   6.664  12.123
46472W        W13255   1.047  40.460   3.009
46473W        W13256  26.143   3.412  13.351
46474W        W13257  37.555  26.975   0.956
46475W        W13258  37.587   5.551   3.661
46476W        W13259  19.034  43.507   1.688
46477W        W13260  22.227  34.522  10.807
46478W        W13261  40.404  29.061  10.300
46479W        W13262  20.525  18.830   2.705
46480W        W13263  42.090  28.889   3.900
46481W        W13264  44.775  43.508  14.573
46482W        W13265  31.299   8.936   0.241
46483W        W13266   4.762  44.725   3.586
46484W        W13267   9.728  30.145   2.715
46485W        W13268   3.925  43.887   2.311
46486W        W13269  21.027  24.496   1.258
46487W        W13270  41.048  30.710  12.073
46488W        W13271   1.773  16.815   3.641
46489W        W13272   7.531   9.740   2.351
46490W        W13273  31.135  36.988  14.031
46491W        W13274   4.849  16.511   1.535
46492W        W13275  26.941  35.438  14.415
46493W        W13276  23.297  42.788   1.953
46494W        W13277  41.437  36.428  12.117
46495W        W13278  11.737   8.887   1.518
46496W        W13279   9.727  20.392   0.836
46497W        W13280  10.287  20.701  12.495
46498W        W13281   0.914  43.454  11.967
46499W        W13282   3.253  43.984  13.017
46500W        W13283   2.835  41.342   2.462
46501W        W13284   3.807   6.466  13.585
46502W        W13285  23.655   4.425   5.016
46503W        W13286  17.770   6.745   2.292
46504W        W13287  21.396  42.967   3.376
46505W        W13288   7.096  31.587   2.363
46506W        W13289  14.672  28.415   1.895
46507W        W13290  20.554  19.719   1.382
46508W        W13291  15.667  43.079   3.326
46509W        W13292  23.418  40.026   1.653
46510W        W13293  25.612   9.722   2.414
46511W        W13294  34.552   2.921   4.556
46512W        W13295  40.018  15.337   4.396
46513W        W13296  31.172  12.831   2.703
46514W        W13297   3.805  18.715  13.048
46515W        W13298   5.637  15.770  11.590
46516W        W13299   4.021  40.967   0.399
46517W        W13300   8.156  12.340  13.432
46518W        W13301  17.255   2.962   2.258
46519W        W13302   0.179  14.330   9.811
46520W        W13303  10.505  13.747   4.680
46521W        W13304  18.154  16.607  12.859
46522W        W13305   2.296  14.674  14.336
46523W        W13306   5.447  32.159  14.857
46524W        W13307   8.170  24.524  12.836
46525W        W13308  43.511  37.740   1.778
46526W        W13309   0.498  37.462  12.982
46527W        W13310  27.976  12.375   3.696
46528W        W13311  15.894  30.600  10.323
46529W        W13312   6.738  33.432  12.218
46530W        W13313   6.003  20.312  11.654
46531W        W13314  19.821   9.727  14.467
46532W        W13315   6.322  43.046  13.126
46533W        W13316  31.207  28.138   5.067
46534W        W13317   0.321  29.267  14.320
46535W        W13318  38.846   1.145   4.876
46536W        W13319  41.018  10.330   4.461
46537W        W13320  36.663   6.657   3.668
46538W        W13321  18.224   6.218   0.270
46539W        W13322   3.699  31.345  13.336
46540W        W13323  44.934  25.044   2.368
46541W        W13324  16.559  21.504   1.846
46542W        W13325  25.896   4.462   2.851
46543W        W13326  42.383  26.618  13.892
46544W        W13327  12.864   5.078   3.602
46545W        W13328   0.347  36.836  12.528
46546W        W13329  43.806  10.711  12.681
46547W        W13330  31.541  11.798   3.953
46548W        W13331  30.021  15.180   4.609
46549W        W13332  37.018  17.674  12.892
46550W        W13333  42.370   6.878  13.466
46551W        W13334  22.055  24.293   4.678
46552W        W13335   0.522  20.456  11.685
46553W        W13336  35.119  11.946  11.907
46554W        W13337  44.801   5.070   1.419
46555W        W13338  42.544  33.232   1.397
46556W        W13339  42.499  11.103  11.605
46557W        W13340  29.881  39.636   4.542
46558W        W13341  39.546  22.510   3.689
46559W        W13342   6.781   8.885   0.792
46560W        W13343  21.620  11.135   2.913
46561W        W13344   0.245  39.616  11.400
46562W        W13345  42.362   0.680   0.583
46563W        W13346  42.257  11.630   0.063
46564W        W13347   9.679   4.257   3.264
46565W        W13348   2.247  21.042  14.867
46566W        W13349  17.533  32.671  11.660
46567W        W13350  28.073   6.888  14.859
46568W        W13351  37.002  11.580  11.215
46569W        W13352  35.093  23.947   4.865
46570W        W13353  15.339  15.542   1.671
46571W        W13354  27.968  44.606   5.028
46572W        W13355  34.057  28.145   4.547
46573W        W13356   2.851  38.039  14.130
46574W        W13357  15.654  34.184   0.496
46575W        W13358  40.861  23.172  13.003
46576W        W13359  18.539  11.087  13.351
46577W        W13360  33.130  25.149   3.325
46578W        W13361  41.365  30.349  10.692
46579W        W13362  19.293  16.983  13.925
46580W        W13363   2.149  40.236   2.061
46581W        W13364  16.140  12.882  14.214
46582W        W13365  19.869   8.442   1.757
46583W        W13366  24.576  11.704   2.178
46584W        W13367  29.075  38.947   1.880
46585W        W13368   4.381  21.806  14.797
46586W        W13369  17.850  32.712   1.785
46587W        W13370  18.893  27.510   0.417
46588W        W13371   8.454  21.184   2.728
46589W        W13372  39.533   3.384  13.342
46590W        W13373  31.404  10.594  12.934
46591W        W13374  24.157  10.457   3.271
46592W        W13375  42.499  24.520  12.154
46593W        W13376  42.951  42.079   0.888
46594W        W13377  26.986  39.392   1.989
46595W        W13378  39.843  22.931   2.918
46596W        W13379  37.335   4.633   0.750
46597W        W13380  35.256   5.501  13.369
46598W        W13381  32.479   3.822  14.402
46599W        W13382  25.469  22.621  12.396
46600W        W13383  22.327  20.275   0.754
46601W        W13384  11.552  32.594  11.061
46602W        W13385  27.920  20.270   1.742
46603W        W13386   4.173  39.241   4.171
46604W        W13387  37.319   2.955  12.310
46605W        W13388  32.820   0.084  12.940
46606W        W13389  37.227   3.900   3.207
46607W        W13390   4.736  25.221  14.553
46608W        W13391  31.200  41.526  12.057
46609W        W13392  43.036  27.391   1.830
46610W        W13393  13.538  13.671   4.733
46611W        W13394   2.046  40.441   3.282
46612W        W13395  34.631   4.838   0.091
46613W        W13396   8.762  23.570   3.895
46614W        W13397  42.486   1.204   1.846
46615W        W13398  14.037   6.639   0.064
46616W        W13399   7.119  43.613  14.209
46617W        W13400   0.849   0.473  12.395
46618W        W13401  19.590  37.461   4.807
46619W        W13402  44.910  40.714  10.464
46620W        W13403  43.848  41.860  12.593
46621W        W13404  38.940  21.586  13.248
46622W        W13405  21.720  39.429   2.803
46623W        W13406  39.363  31.042   0.048
46624W        W13407  37.399  23.376   3.729
46625W        W13408  16.114   4.852  14.005
46626W        W13409  24.510   5.462   4.278
46627W        W13410  22.984   9.406   1.217
46628W        W13411  28.235  42.940  12.851
46629W        W13412   6.388  24.959   1.733
46630W        W13413  21.766   5.100   2.660
46631W        W13414  42.846  27.280   4.095
46632W        W13415  26.220   3.147  11.169
46633W        W13416  38.322  13.766   0.728
46634W        W13417   0.553  32.023  13.500
46635W        W13418  35.860  32.021   2.376
46636W        W13419   0.874   4.783   4.586
46637W        W13420   7.969  19.628  11.583
46638W        W13421  18.243  33.497   4.936
46639W        W13422  24.106  28.129   5.005
46640W        W13423  33.974  19.918   1.190
46641W        W13424  19.171   1.375  14.076
46642W        W13425  24.997  30.982  11.237
46643W        W13426   5.436  43.491   3.705
46644W        W13427  11.002  32.882  14.436
46645W        W13428  32.678  11.216  12.939
46646W        W13429   2.927   5.943  10.405
46647W        W13430  12.839  38.799   4.521
46648W        W13431  25.473   2.362   2.366
46649W        W13432  22.468  19.093  12.071
46650W        W13433  19.093  18.553  12.678
46651W        W13434  40.475   6.272  12.808
46652W        W13435  24.658  38.952   3.187
46653W        W13436  32.944  40.821  14.054
46654W        W13437  14.760   4.431  14.464
46655W        W13438   2.247   3.293   0.841
46656W        W13439  10.520   7.348  13.429
46657W        W13440  41.935   0.951   0.460
46658W        W13441  35.520  43.981  14.254
46659W        W13442  23.453   7.685  14.983
46660W        W13443  29.110  24.647   4.880
46661W        W13444   6.878   3.247   0.779
46662W        W13445  29.598  11.576   4.493
46663W        W13446  39.065   0.358   0.681
46664W        W13447  43.861  18.292  13.416
46665W        W13448  20.096  24.041   1.972
46666W        W13449   9.646  27.954  11.765
46667W        W13450  21.170  39.388   2.880
46668W        W13451  43.572  25.964   2.274
46669W        W13452  43.011  33.282   3.788
46670W        W13453  12.047  26.364   4.024
46671W        W13454  35.950  42.847  10.673
46672W        W13455  29.415   9.325   2.751
46673W        W13456  27.342  31.249   4.198
46674W        W13457  13.385  11.421   2.952
46675W        W13458  33.793  41.929  13.181
46676W        W13459  43.338  36.822   3.642
46677W        W13460  10.757  26.791   0.744
46678W        W13461  40.757  25.966   1.716
46679W        W13462   1.028  31.906   4.165
46680W        W13463  18.088  15.600  12.512
46681W        W13464  32.716  18.445  13.213
46682W        W13465   4.296  11.287   2.914
46683W        W13466   5.254  41.368  13.488
46684W        W13467  39.998   1.008  13.524
46685W        W13468  25.857  18.694  13.314
46686W        W13469   3.977  18.589  12.105
46687W        W13470  11.160   1.719  14.854
46688W        W13471   2.738  32.684  13.346
46689W        W13472  28.939   9.774   3.952
46690W        W13473   1.773  35.443   4.042
46691W        W13474   9.148   3.869  11.368
46692W        W13475  33.392   3.238  14.084
46693W        W13476  18.049  21.409  12.779
46694W        W13477  23.690  43.853   3.170
46695W        W13478  42.464  28.790   3.168
46696W        W13479   2.255   6.639   0.906
46697W        W13480  25.996  40.303  14.801
46698W        W13481  41.250  12.255   0.433
46699W        W13482   9.654  17.170  10.622
46700W        W13483  38.520  30.157   3.348
46701W        W13484  26.424  12.300  13.440
46702W        W13485  24.079  41.217  14.510
46703W        W13486  27.130  40.797  10.735
46704W        W13487  28.570   7.861  13.435
46705W        W13488  19.898  25.488   1.345
46706W        W13489  33.363  30.176   2.100
46707W        W13490  15.191  26.682  11.024
46708W        W13491  21.002   1.613  14.861
46709W        W13492   0.946  11.205   3.700
46710W        W13493  28.052  30.345   1.672
46711W        W13494  31.653  18.531  13.941
46712W        W13495   4.382  36.137   0.703
46713W        W13496   7.940  20.499  12.471
46714W        W13497  26.221  41.291  11.557
46715W        W13498  10.289  14.092  13.897
46716W        W13499   1.262  34.816   2.417
46717W        W13500  37.747  22.007   2.471
46718W        W13501  37.840   8.663  10.932
46719W        W13502  44.063  22.725   1.913
46720W        W13503  27.890  30.855  12.386
46721W        W13504  42.902  35.448   1.972
46722W        W13505  30.690  15.702  13.477
46723W        W13506   0.070  26.949  12.262
46724W        W13507  20.080  27.138  13.894
46725W        W13508  22.442   1.692  11.287
46726W        W13509   9.640  36.901  12.564
46727W        W13510  31.528   3.941  10.752
46728W        W13511  29.733  36.063   1.927
46729W        W13512  18.015   0.965   2.373
46730W        W13513   0.812  12.132  12.469
46731W        W13514   3.844   5.861  11.425
46732W        W13515  28.497   2.424   0.252
46733W        W13516   0.459  39.602  14.443
46734W        W13517  11.475  43.254   4.096
46735W        W13518  16.795   2.826  14.084
46736W        W13519   4.497  34.625   0.960
46737W        W13520  29.556  25.205   0.725
46738W        W13521  34.553  36.124  13.031
46739W        W13522  29.167  18.974  13.960
46740W        W13523  35.349   3.398   1.293
46741W        W13524  43.515  19.625   0.903
46742W        W13525   6.903  37.436  13.795
46743W        W13526   7.633  16.835   1.812
46744W        W13527   9.157  12.332  12.318
46745W        W13528  35.545  29.346   0.480
46746W        W13529  37.825  14.816   0.402
46747W        W13530  32.457  16.495  12.626
46748W        W13531  43.562  33.642  10.264
46749W        W13532  22.173  33.509  11.948
46750W        W13533   1.239  34.049  13.564
46751W        W13534   4.399  36.452   1.630
46752W        W13535  21.681   1.169  10.640
46753W        W13536   5.125  32.833  11.144
46754W        W13537  41.882   6.749   2.760
46755W        W13538  32.130  44.122   1.852
46756W        W13539   8.928  30.889  11.092
46757W        W13540  29.635  27.120   0.059
46758W        W13541  10.352  44.728  10.739
46759W        W13542   4.777   5.396   0.724
46760W        W13543   4.452  42.582   2.400
46761W        W13544  14.605  15.255  14.452
46762W        W13545   6.641   9.650  13.003
46763W        W13546   1.829  35.101  14.046
46764W        W13547  24.161  38.908  14.822
46765W        W13548  36.653  35.855  13.800
46766W        W13549   1.379   7.893   3.681
46767W        W13550  35.401  37.511   2.994
46768W        W13551  34.981  11.332   4.589
46769W        W13552  11.368   6.840  10.326
46770W        W13553  37.142   0.834   0.835
46771W        W13554   6.309  28.459   1.869
46772W        W13555  17.514  11.519   1.820
46773W        W13556  33.493  26.329   3.895
46774W        W13557  38.334   7.509  14.755
46775W        W13558  40.527   5.184   4.114
46776W        W13559  37.308  10.235   3.271
46777W        W13560   0.422   4.369   4.120
46778W        W13561  22.526  38.680   4.756
46779W        W13562   5.363  41.956   1.314
46780W        W13563  44.896  37.624   0.124
46781W        W13564  33.916  18.530   3.200
46782W        W13565  33.457  14.659   0.247
46783W        W13566  33.865  28.346   0.004
46784W        W13567   0.949  22.596  13.115
46785W        W13568  22.295  34.908  11.142
46786W        W13569   3.988  16.789   1.287
46787W        W13570  43.429  14.591   0.313
46788W        W13571  27.034  22.128  14.469
46789W        W13572  30.158  27.988   3.034
46790W        W13573   0.682   4.208   0.922
46791W        W13574  21.126  31.152   3.734
46792W        W13575  32.913   9.859  10.966
46793W        W13576  20.253  16.025  10.733
46794W        W13577  35.912   2.898   3.836
46795W        W13578   0.474  14.696   1.362
46796W        W13579  40.391  42.053   0.177
46797W        W13580  20.769  35.687  14.956
46798W        W13581  12.598  19.450  11.692
46799W        W13582  29.098  17.198  14.876
46800W        W13583  44.431  35.963  14.932
46801W        W13584  17.854  31.367   0.063
46802W        W13585  27.085  35.001   4.545
46803W        W13586  15.746  30.140  13.393
46804W        W13587  14.064  35.148  10.160
46805W        W13588  14.864  31.862  12.963
46806W        W13589  38.394  21.155   1.692
46807W        W13590  33.434  10.314   3.227
46808W        W13591  29.087   0.937  10.726
46809W        W13592  41.835   6.902  12.057
46810W        W13593  30.075  22.113   3.982
46811W        W13594  39.552  34.900   0.683
46812W        W13595  17.722  42.947  10.625
46813W        W13596  29.096   7.752   3.124
46814W        W13597  23.521  37.044  12.646
46815W        W13598  22.954   1.936  11.973
46816W        W13599  24.548  10.299  10.638
46817W        W13600  26.493  22.227   0.387
46818W        W13601  23.423   6.788   1.061
46819W        W13602  31.300  19.008  11.044
46820W        W13603  13.656  21.227   2.182
46821W        W13604  34.375   6.729  14.692
46822W        W13605   9.867   5.268   4.253
46823W        W13606  14.351  23.544   3.645
46824W        W13607  34.591  17.798  10.838
46825W        W13608  26.728  15.667   4.604
46826W        W13609   6.313   2.582   3.634
46827W        W13610  24.007  11.097   0.911
46828W        W13611  11.914  33.556   0.355
46829W        W13612  42.461  28.516  14.082
46830W        W13613  42.753  32.947  13.553
46831W        W13614  23.201  34.998   4.762
46832W        W13615   2.882   2.257  11.617
46833W        W13616  38.410  27.993   4.924
46834W        W13617  34.437  17.787  14.263
46835W        W13618   9.589  30.309  11.050
46836W        W13619  15.760  15.430   0.418
46837W        W13620  37.776  17.713  14.432
46838W        W13621  13.256  37.053  12.186
46839W        W13622   8.934  40.450  13.452
46840W        W13623  40.001  25.774   1.116
46841W        W13624  44.159   0.972   0.323
46842W        W13625  22.182  18.474  11.573
46843W        W13626  35.069  10.144  11.915
46844W        W13627   0.792  29.545   0.033
46845W        W13628  28.077  21.130  14.281
46846W        W13629  15.748  10.849  14.004
46847W        W13630  34.472  33.648  13.885
46848W        W13631  41.846  37.543  12.125
46849W        W13632  15.398  26.652  11.495
46850W        W13633  21.597  13.773  11.226
46851W        W13634   0.701  23.006  11.209
46852W        W13635  23.512  39.860  11.848
46853W        W13636  16.702  44.626   3.569
46854W        W13637   6.673  42.737   0.921
46855W        W13638  30.539  31.961  13.439
46856W        W13639  31.428  38.228  11.938
46857W        W13640  32.693  20.145  14.962
46858W        W13641  18.856  32.193   4.119
46859W        W13642  29.250  41.916   3.340
46860W        W13643  24.732  31.880  12.920
46861W        W13644   6.934   2.083   0.930
46862W        W13645  12.363  14.884   0.389
46863W        W13646  33.910   0.829  11.660
46864W        W13647   3.949  28.702   0.411
46865W        W13648  40.347  22.778  12.421
46866W        W13649  11.788  18.806  11.689
46867W        W13650  38.532   8.187   3.775
46868W        W13651  43.261  24.457  13.380
46869W        W13652  17.449  34.311   1.935
46870W        W13653   8.512  24.328   4.185
46871W        W13654  40.196  29.068   3.390
46872W        W13655  18.861  16.811  11.057
46873W        W13656   4.400  13.188  11.601
46874W        W13657  22.839  43.541   2.941
46875W        W13658  27.050  17.378   3.120
46876W        W13659   4.323  33.856   3.808
46877W        W13660   9.299  12.198  10.550
46878W        W13661  33.524  30.344   4.771
46879W        W13662  15.214  25.448  13.358
46880W        W13663  32.444  30.464  14.854
46881W        W13664  12.326  35.158   9.835
46882W        W13665   1.518  22.943   1.835
46883W        W13666  18.744  27.652   2.225
46884W        W13667  36.890  35.124  13.446
46885W        W13668  15.213  40.858   3.285
46886W        W13669  19.842  22.609  14.288
46887W        W13670   0.824  16.659   4.201
46888W        W13671   4.826  10.382  10.641
46889W        W13672  12.135  11.254   3.579
46890W        W13673  21.712  23.108  10.546
46891W        W13674   4.586  21.160   1.359
46892W        W13675  32.105   2.436  14.008
46893W        W13676  44.577  16.265   0.280
46894W        W13677  14.821  10.764   1.302
46895W        W13678  12.134   2.410  13.733
46896W        W13679   7.227  23.728   2.662
46897W        W13680  32.115  12.277   3.314
46898W        W13681  42.545  22.525   1.841
46899W        W13682  28.451  15.744   4.133
46900W        W13683  33.581   6.005   1.383
46901W        W13684  28.466  39.489  12.766
46902W        W13685  32.166  44.756   0.250
46903W        W13686  44.368  18.135   0.069
46904W        W13687  10.156  13.298   3.182
46905W        W13688  26.026   5.981   0.359
46906W        W13689  43.763  27.148  13.538
46907W        W13690  43.011  32.643  11.501
46908W        W13691  41.302  35.310  13.447
46909W        W13692  15.316  19.336   2.379
46910W        W13693  41.750   3.255  13.420
46911W        W13694  25.974   7.368  11.408
46912W        W13695  33.265  16.220  14.262
46913W        W13696  38.869   1.257   3.981
46914W        W13697  13.096  42.227  10.814
46915W        W13698   5.262  31.695   4.238
46916W        W13699  12.546  19.847  12.945
46917W        W13700  33.351  15.796   0.923
46918W        W13701  22.975  21.563   4.583
46919W        W13702  34.144   9.853  10.731
46920W        W13703   1.996  42.970   3.073
46921W        W13704  10.382  40.610  11.989
46922W        W13705   5.600  12.982   4.138
46923W        W13706   3.169   7.110   0.736
46924W        W13707  20.241  39.088   4.642
46925W        W13708  18.603  19.521  13.377
46926W        W13709  43.273  39.272  13.791
46927W        W13710  38.239  30.180  12.546
46928W        W13711  38.603  24.310  12.001
46929W        W13712  17.099   5.819  10.586
46930W        W13713  15.352   5.399   4.293
46931W        W13714  24.539  35.085   1.970
46932W        W13715  16.275   9.066   1.790
46933W        W13716   4.397   1.440   0.848
46934W        W13717  14.271   8.406  13.088
46935W        W13718  35.294   6.447  11.972
46936W        W13719  36.099  41.992  10.645
46937W        W13720   4.076  39.959   2.170
46938W        W13721  37.535  42.713  14.603
46939W        W13722  18.036  40.043  13.453
46940W        W13723   2.036  41.098  13.046
46941W        W13724   8.358   1.567   3.284
46942W        W13725  29.848  39.558   3.668
46943W        W13726  37.557   4.645   0.274
46944W        W13727  32.411  32.945   0.909
46945W        W13728  14.173  10.237  12.580
46946W        W13729  31.171  20.994  12.058
46947W        W13730  28.516   0.825  14.516
46948W        W13731  35.836  34.134   1.704
46949W        W13732  33.226  43.022   9.927
46950W        W13733  25.128  15.204   0.423
46951W        W13734  14.106  16.120   4.769
46952W        W13735   1.395  10.612   0.828
46953W        W13736   0.821  20.729   2.234
46954W        W13737  40.716  13.721   3.595
46955W        W13738  36.963  13.355   1.160
46956W        W13739  20.660  30.457   4.634
46957W        W13740  20.231  43.345  11.973
46958W        W13741   4.429   5.981  12.999
46959W        W13742  30.457  28.461   3.705
46960W        W13743  16.583  21.116  13.951
46961W        W13744  18.130  11.815   2.409
46962W        W13745  17.371  18.048  10.601
46963W        W13746  25.961  39.803  14.942
46964W        W13747   2.071  24.815  13.367
46965W        W13748  10.884  39.902   4.257
46966W        W13749   8.151  19.005  11.422
46967W        W13750  31.667  34.414  14.366
46968W        W13751  27.737   3.817  10.484
46969W        W13752  21.226  25.253   2.284
46970W        W13753  15.826   8.651  14.901
46971W        W13754  33.041  35.603   2.380
46972W        W13755  12.615  10.497  11.597
46973W        W13756   6.645  43.445  11.045
46974W        W13757  13.503   3.202  13.426
46975W        W13758  38.406  19.181   4.623
46976W        W13759  17.668  34.104  11.474
46977W        W13760  28.474  37.866  13.575
46978W        W13761  11.669  22.447  12.158
46979W        W13762  38.878  43.835  13.356
46980W        W13763   0.946  44.514  12.853
46981W        W13764  29.542  35.163  14.967
46982W        W13765   3.913   5.989   3.952
46983W        W13766  18.662  23.916  11.874
46984W        W13767  30.630  44.778  10.624
46985W        W13768   3.878   0.462  14.133
46986W        W13769  31.147  16.829   0.377
46987W        W13770  27.737  19.691  11.968
46988W        W13771  41.874   0.368  11.880
46989W        W13772  18.316  38.757   4.246
46990W        W13773   3.238  30.974  10.686
46991W        W13774  31.384  16.450   3.633
46992W        W13775  32.504  33.019  11.776
46993W        W13776  30.769  40.358  10.683
46994W        W13777   0.087   5.261   4.533
46995W        W13778  10.640  42.612   2.753
46996W        W13779  40.084  27.703  12.292
46997W        W13780  30.955  19.675   1.262
46998W        W13781  24.719  28.735  12.990
46999W        W13782  35.619  20.238   2.577
47000W        W13783  30.007  20.488  13.154
47001W        W13784  40.827   2.822  13.365
47002W        W13785  24.568  34.513   4.622
47003W        W13786  27.413  18.655   4.609
47004W        W13787   1.458  35.020  11.545
47005W        W13788  31.420  13.626   3.663
47006W        W13789  33.135   9.838   3.170
47007W        W13790  38.171   4.027  13.413
47008W        W13791  12.636   4.557   1.323
47009W        W13792   1.312  41.969  12.053
47010W        W13793  22.094  16.270  13.737
47011W        W13794  44.454  29.525  11.595
47012W        W13795  26.094   4.846  12.518
47013W        W13796  16.638   4.776   1.477
47014W        W13797  27.197  26.826  11.017
47015W        W13798  29.899   4.748  11.088
47016W        W13799  28.391  32.964   3.400
47017W        W13800  29.692  34.066   4.237
47018W        W13801   9.402   3.190   2.670
47019W        W13802  30.995  42.566   1.241
47020W        W13803   9.884  31.653   1.712
47021W        W13804  28.690  20.184   2.909
47022W        W13805  19.640  19.034   4.808
47023W        W13806  15.699  19.292  13.910
47024W        W13807  10.866  11.367   1.444
47025W        W13808  10.302  30.575   3.458
47026W        W13809  16.631  26.181  11.851
47027W        W13810   3.890   2.921  11.712
47028W        W13811  14.613  17.365   1.280
47029W        W13812  28.063   7.253   0.398
47030W        W13813  18.599  42.876   1.742
47031W        W13814  33.050  25.199  11.034
47032W        W13815  10.683  22.744  10.322
47033W        W13816  31.160   3.439  11.595
47034W        W13817  23.602  20.752   0.479
47035W        W13818  39.615  37.293  14.647
47036W        W13819  30.553  22.738   1.982
47037W        W13820  25.645  19.047  12.474
47038W        W13821  14.805   4.326  13.942
47039W        W13822   8.378  19.328  11.761
47040W        W13823  11.153   0.745  11.018
47041W        W13824  23.496  39.056  13.407
47042W        W13825  27.499  13.276  11.155
47043W        W13826   1.950  35.846  14.094
47044W        W13827  12.704  29.570   1.798
47045W        W13828  23.544  35.799  14.896
47046W        W13829  22.247   9.846   3.116
47047W        W13830  40.274  22.170   3.630
47048W        W13831  33.008  44.961  10.883
47049W        W13832  10.393  29.466   4.512
47050W        W13833  26.276  41.028  11.995
47051W        W13834  42.251   4.392  13.948
47052W        W13835  42.051  32.526   4.597
47053W        W13836   9.197   4.852   4.516
47054W        W13837   0.228  28.146  11.765
47055W        W13838  14.629  36.316  12.621
47056W        W13839  40.629  12.341   3.090
47057W        W13840  10.833   0.554  12.428
47058W        W13841  32.495  19.906  12.831
47059W        W13842  10.251   5.382  12.916
47060W        W13843   9.220  18.394  11.519
47061W        W13844  44.984   8.664   2.617
47062W        W13845  13.607   8.325  11.870
47063W        W13846  34.517  39.490   1.377
47064W        W13847  43.816  42.897  11.208
47065W        W13848  37.995   4.423   3.207
47066W        W13849  21.949  14.591   0.350
47067W        W13850  19.253  12.340   2.277
47068W        W13851   9.781   6.202   4.855
47069W        W13852  20.643  10.568  12.512
47070W        W13853   9.873  35.957  12.322
47071W        W13854  44.714   7.185   1.358
47072W        W13855   7.205  10.433   1.811
47073W        W13856  14.072  31.100   4.517
47074W        W13857  33.781  31.852   4.187
47075W        W13858   0.855  28.467  12.899
47076W        W13859   2.218   5.239   1.710
47077W        W13860  12.122  29.091  13.385
47078W        W13861  23.719  10.930   2.197
47079W        W13862  34.527  11.188   4.815
47080W        W13863   6.214  40.953   0.708
47081W        W13864   6.366  20.150   4.255
47082W        W13865  20.100  38.060  11.967
47083W        W13866   7.153   9.144  11.122
47084W        W13867   5.576  14.766   3.862
47085W        W13868  41.779  27.116   1.815
47086W        W13869  36.797  11.325  13.856
47087W        W13870  32.161  42.102  14.401
47088W        W13871  10.105  38.818   4.576
47089W        W13872  24.546  28.199   3.544
47090W        W13873   7.780  36.317  13.432
47091W        W13874  20.033  19.798  11.099
47092W        W13875  40.245   3.643  13.795
47093W        W13876  16.472  23.368   2.394
47094W        W13877  24.214  39.483  11.074
47095W        W13878   2.652  23.419   0.316
47096W        W13879  41.284   7.188   3.632
47097W        W13880  41.290  28.485  10.740
47098W        W13881  12.686  17.196  11.830
47099W        W13882  33.974   8.757  11.027
47100W        W13883  14.338  29.455  12.049
47101W        W13884  33.390  23.631   0.456
47102W        W13885   3.753   8.686  14.886
47103W        W13886  22.599  43.259   4.753
47104W        W13887  34.213   2.682  10.654
47105W        W13888  30.084  39.390   4.133
47106W        W13889  26.033  30.035  14.835
47107W        W13890   6.850  41.221   1.853
47108W        W13891  22.049  28.413   0.727
47109W        W13892   5.191  38.547   3.762
47110W        W13893  38.151  23.619   0.928
47111W        W13894  17.195  30.978   2.757
47112W        W13895   1.980   3.396  14.178
47113W        W13896  10.370  27.495   2.116
47114W        W13897  22.040  43.518   1.169
47115W        W13898  15.092  22.718   1.817
47116W        W13899  27.589  28.453   4.890
47117W        W13900  18.360  19.534   3.192
47118W        W13901  29.163   0.720  12.726
47119W        W13902   8.432   2.190  14.816
47120W        W13903  20.506  36.152   4.130
47121W        W13904   9.339   3.260   1.796
47122W        W13905  22.148  38.184   1.763
47123W        W13906   4.992  15.164  13.884
47124W        W13907   9.164  27.882   3.420
47125W        W13908  44.349   8.650  14.835
47126W        W13909  32.410   2.009   1.994
47127W        W13910  38.936  31.100  14.469
47128W        W13911  43.347   5.415   2.334
47129W        W13912  16.828  28.694   2.331
47130W        W13913  22.534  22.022   1.908
47131W        W13914  21.522  10.762   3.684
47132W        W13915  31.974  12.236   0.932
47133W        W13916  10.340  32.875  10.616
47134W        W13917  29.161  39.102   0.818
47135W        W13918  26.016  21.765   3.584
47136W        W13919  35.631  24.084  10.727
47137W        W13920  24.253  26.273   1.843
47138W        W13921  39.534  37.022  10.984
47139W        W13922  13.218  34.456  11.520
47140W        W13923  37.420  14.276  12.887
47141W        W13924  26.246  18.643  13.988
47142W        W13925  21.437  20.655  10.934
47143W        W13926   8.305  14.828   2.430
47144W        W13927   8.166  16.646   0.773
47145W        W13928   5.381   7.960  13.844
47146W        W13929  17.965  35.018   1.752
47147W        W13930  42.078  18.185  14.985
47148W        W13931   2.999  39.400   0.742
47149W        W13932  37.109  39.792  12.033
47150W        W13933  25.976  21.575   0.883
47151W        W13934  14.474   0.062   1.890
47152W        W13935  17.161  26.137   1.452
47153W        W13936  38.875  32.529  12.905
47154W        W13937  29.457  38.811  12.979
47155W        W13938  41.620  12.595   3.122
47156W        W13939  39.969  30.263  11.596
47157W        W13940  43.866  39.286   1.322
47158W        W13941  35.105   8.737   3.012
47159W        W13942  31.890  11.675  13.111
47160W        W13943   4.889  31.424   4.019
47161W        W13944  11.765  35.296  12.496
47162W        W13945  19.643  25.800  11.540
47163W        W13946  44.044   2.899   0.975
47164W        W13947   0.392  20.029  13.136
47165W        W13948  38.396   3.865  10.660
47166W        W13949   1.974  18.266  11.210
47167W        W13950  25.591  29.321   9.716
47168W        W13951  39.320  42.040   0.210
47169W        W13952  10.954  24.669  11.842
47170W        W13953  31.813  13.748   1.182
47171W        W13954  30.297   8.960   0.504
47172W        W13955   1.321   8.143   2.330
47173W        W13956  27.174  44.561  10.328
47174W        W13957  15.963   6.426   4.135
47175W        W13958  29.894  32.179  10.723
47176W        W13959  11.150   0.955  12.601
47177W        W13960   2.922   5.847  10.911
47178W        W13961  44.734   9.218   0.353
47179W        W13962  25.006  14.426  12.415
47180W        W13963   2.466  44.913  14.849
47181W        W13964  12.587  40.393  13.578
47182W        W13965  11.325  36.298  10.160
47183W        W13966  38.618  20.680  14.859
47184W        W13967  37.876   7.200   4.125
47185W        W13968   1.857  28.596   4.010
47186W        W13969   2.140  36.692  10.718
47187W        W13970  11.860  31.925   4.213
47188W        W13971  28.209  30.915  12.005
47189W        W13972  21.308  25.565   3.814
47190W        W13973  30.046  33.713  13.250
47191W        W13974   2.465  12.885  14.879
47192W        W13975  34.521  23.887   3.226
47193W        W13976   8.758  32.841   1.881
47194W        W13977  21.704  14.879  10.055
47195W        W13978  24.662   4.799  13.060
47196W        W13979  35.496  33.584   1.989
47197W        W13980  35.135  34.379   2.021
47198W        W13981  40.091   4.912   4.240
47199W        W13982  31.884  28.922  11.682
47200W        W13983   5.430  34.940   4.791
47201W        W13984   3.285  42.330  13.446
47202W        W13985  10.186  13.104   1.697
47203W        W13986  37.187  21.232  12.947
47204W        W13987  27.908   2.077  12.522
47205W        W13988   3.178   7.830  13.837
47206W        W13989   0.434  41.350  14.516
47207W        W13990   1.782  14.725   2.669
47208W        W13991  14.851  28.570  12.206
47209W        W13992  20.680  15.750   9.877
47210W        W13993  18.207  26.191  11.140
47211W        W13994   9.923  32.072  13.028
47212W        W13995  42.301  27.106  10.544
47213W        W13996   8.212   3.797   4.552
47214W        W13997  13.568   0.891  11.971
47215W        W13998  11.717  21.722  10.630
47216W        W13999  33.396   4.756   2.208
47217W        W14000  27.888  21.989  13.870
47218W        W14001  23.269  17.626   4.152
47219W        W14002   0.259  32.386   0.690
47220W        W14003  12.901  11.358   4.267
47221W        W14004   3.676   4.204  13.067
47222W        W14005  28.476  21.302  10.692
47223W        W14006  28.332  42.567   2.284
47224W        W14007   1.716   1.338  14.083
47225W        W14008  11.393   1.341   1.541
47226W        W14009  21.513  24.644  14.324
47227W        W14010  42.359  32.361   3.240
47228W        W14011  40.421  43.885  13.343
47229W        W14012  20.696  33.772   5.021
47230W        W14013   8.118  28.072  11.620
47231W        W14014  28.048  28.525  14.960
47232W        W14015  44.347  10.957  10.515
47233W        W14016  10.442  30.650   2.128
47234W        W14017  20.661  17.082   0.871
47235W        W14018  34.462   0.266  14.415
47236W        W14019  14.663  23.951   3.741
47237W        W14020   6.359   3.722   1.464
47238W        W14021  23.611  17.437  11.992
47239W        W14022  42.897  35.720   3.717
47240W        W14023  16.186  21.444  11.588
47241W        W14024  26.419   5.280  13.309
47242W        W14025   7.554  42.234   5.009
47243W        W14026  17.566  12.921  11.343
47244W        W14027  26.538  23.907  11.968
47245W        W14028  41.516  23.768  12.493
47246W        W14029  42.046  13.779  13.982
47247W        W14030   6.806   2.340  11.527
47248W        W14031  44.913   1.042  10.784
47249W        W14032  33.647  35.442   1.710
47250W        W14033  11.384  34.665  11.251
47251W        W14034  32.878  21.577  14.377
47252W        W14035   4.174  17.854  12.125
47253W        W14036   5.340  37.032   1.692
47254W        W14037   3.368  10.908  12.306
47255W        W14038  29.427  34.352   0.355
47256W        W14039  36.517  38.944  12.675
47257W        W14040  32.150  17.487  10.530
47258W        W14041  29.887  29.252  14.918
47259W        W14042   2.928  20.733  10.607
47260W        W14043   5.903  43.280   0.258
47261W        W14044   4.777  43.879   4.300
47262W        W14045  25.196  35.970   4.251
47263W        W14046  38.254  13.347  11.082
47264W        W14047   2.857   3.323  12.524
47265W        W14048  21.665   4.747   2.278
47266W        W14049  28.535  36.556  14.376
47267W        W14050  40.983  36.860  11.163
47268W        W14051  34.340  34.773  14.844
47269W        W14052   0.815   9.172   1.287
47270W        W14053  26.960  36.436  13.026
47271W        W14054  19.691  36.454   3.758
47272W        W14055   2.507  21.744   0.798
47273W        W14056  10.081   5.342   1.671
47274W        W14057  19.835  31.191   3.269
47275W        W14058   9.249  27.953  12.084
47276W        W14059  34.428  18.614   3.274
47277W        W14060  20.654  39.488  12.810
47278W        W14061  20.887  43.498  10.601
47279W        W14062  36.940   5.446  12.031
47280W        W14063  36.776  11.604  14.299
47281W        W14064  36.769  21.230  12.638
47282W        W14065  31.504  24.322  14.283
47283W        W14066   0.728  13.561   0.871
47284W        W14067  18.398  31.415   0.065
47285W        W14068   6.034   9.329   3.546
47286W        W14069  19.280  28.023   3.142
47287W        W14070  36.873  29.617  11.523
47288W        W14071  33.483  18.404   1.657
47289W        W14072  38.287  35.793  13.784
47290W        W14073  35.455  34.350  11.123
47291W        W14074  44.904  10.640  12.430
47292W        W14075  16.601  29.953  14.685
47293W        W14076  32.753  38.016   1.931
47294W        W14077  19.674  30.541   1.853
47295W        W14078   7.734  40.888   0.326
47296W        W14079   0.314  22.944  12.993
47297W        W14080   6.911  23.531   0.402
47298W        W14081  41.809  32.049  14.107
47299W        W14082   5.258  18.274  12.331
47300W        W14083  35.649  22.172  10.545
47301W        W14084  23.132  12.761   3.559
47302W        W14085  31.511  41.597   0.409
47303W        W14086  44.297   7.990  11.870
47304W        W14087   5.368  15.347  14.761
47305W        W14088  22.248  15.012  11.978
47306W        W14089  23.878   0.233  14.909
47307W        W14090   5.160  29.017  14.820
47308W        W14091   4.135  21.972  11.804
47309W        W14092   4.966  39.033   5.068
47310W        W14093   3.385  25.408  12.418
47311W        W14094   6.044  19.016  11.108
47312W        W14095  37.968   7.270  11.490
47313W        W14096  33.391   8.427  12.874
47314W        W14097   5.114   0.685  12.369
47315W        W14098  22.595   9.482  14.203
47316W        W14099  31.047  17.691   2.869
47317W        W14100  39.913   7.441   3.741
47318W        W14101   1.087  16.854   1.435
47319W        W14102  37.508  10.601  14.118
47320W        W14103  36.964  38.311  14.473
47321W        W14104   5.745  18.116   0.447
47322W        W14105  29.192  27.707  14.408
47323W        W14106  28.113  38.607   4.625
47324W        W14107  25.172   5.729   2.004
47325W        W14108  16.143  29.517   4.004
47326W        W14109  38.330  14.859   4.707
47327W        W14110  27.392  35.131  12.041
47328W        W14111  25.289  22.607  11.913
47329W        W14112  42.116  10.851   5.058
47330W        W14113  20.120  13.196  11.575
47331W        W14114  11.859  11.761   1.707
47332W        W14115  28.876  41.459  11.554
47333W        W14116  29.034   9.273   4.562
47334W        W14117   0.010  27.224   1.814
47335W        W14118   2.995  15.168  11.183
47336W        W14119  31.547  39.996  12.340
47337W        W14120  12.335  19.064  13.332
47338W        W14121  41.792  21.932   2.748
47339W        W14122  32.938  10.136  14.394
47340W        W14123   8.908  44.276   9.919
47341W        W14124  44.103   2.318  14.397
47342W        W14125  37.060  12.061   2.346
47343W        W14126   4.774  41.275  11.580
47344W        W14127  20.506   9.624   2.205
47345W        W14128  14.707   2.228  10.658
47346W        W14129  38.062  22.010   1.221
47347W        W14130   6.480   3.866  11.577
47348W        W14131  31.592  25.502   4.360
47349W        W14132  20.061  35.589  13.928
47350W        W14133   5.125  29.069   4.585
47351W        W14134  15.844  25.723  11.581
47352W        W14135  29.111  27.806   0.773
47353W        W14136  30.842  15.228  11.605
47354W        W14137   5.384  36.940   2.687
47355W        W14138   4.017  16.578  13.480
47356W        W14139  29.213  20.084   0.866
47357W        W14140  29.141  35.279  14.623
47358W        W14141  21.538   8.628  13.422
47359W        W14142   2.651   3.927   4.183
47360W        W14143   6.425  34.374  10.354
47361W        W14144  13.232  19.157   1.349
47362W        W14145  24.326  17.952   0.294
47363W        W14146  18.911   2.343  12.652
47364W        W14147  35.770  31.926  11.182
47365W        W14148   1.594   3.649   5.007
47366W        W14149   3.340  17.917   0.463
47367W        W14150  41.255   8.579   3.525
47368W        W14151   8.925  36.908   1.833
47369W        W14152  19.083  15.607  13.955
47370W        W14153   6.701   9.391   1.353
47371W        W14154  13.805  38.253   3.813
47372W        W14155  24.692  15.967  13.200
47373W        W14156  30.194  12.155  12.363
47374W        W14157  25.562  43.439   1.702
47375W        W14158   3.226  25.860  12.592
47376W        W14159   5.809  35.779   2.818
47377W        W14160  43.593  37.146   5.046
47378W        W14161  39.860  25.702  11.587
47379W        W14162  32.140   9.363   4.052
47380W        W14163  19.991  31.470  13.381
47381W        W14164  40.305  19.113  11.555
47382W        W14165   2.655  40.010  13.461
47383W        W14166   1.441  18.712  11.812
47384W        W14167  10.197  12.310  12.565
47385W        W14168  25.932  37.802  12.612
47386W        W14169  39.779   9.313   0.713
47387W        W14170  37.070   0.499   1.329
47388W        W14171  35.471  14.607  10.725
47389W        W14172  38.251  13.662   2.197
47390W        W14173  13.236  22.424   3.210
47391W        W14174  25.742  27.116   2.242
47392W        W14175   8.355  32.257  10.974
47393W        W14176  36.030  20.698  13.154
47394W        W14177  41.968  35.758   3.620
47395W        W14178   2.462  42.280   2.738
47396W        W14179  24.911  18.588   4.231
47397W        W14180  44.162  33.589   1.761
47398W        W14181  33.863  29.617   4.298
47399W        W14182  10.654  29.735   2.968
47400W        W14183   7.445  10.857  14.924
47401W        W14184   3.681  16.200  11.918
47402W        W14185  12.842  29.350  11.571
47403W        W14186   9.693  18.251  14.194
47404W        W14187   2.648  40.275   0.639
47405W        W14188  10.779  19.015  10.694
47406W        W14189  24.809  22.537  13.004
47407W        W14190  32.997  38.396  13.304
47408W        W14191  32.640  24.989  12.971
47409W        W14192  23.004   7.252  14.145
47410W        W14193  29.435  41.434   2.638
47411W        W14194  14.076  37.161  13.030
47412W        W14195  24.609  28.055   0.806
47413W        W14196  15.138  12.884   1.378
47414W        W14197  10.074  10.005   4.057
47415W        W14198   8.673  20.238   0.310
47416W        W14199  22.714  31.553   3.112
47417W        W14200  28.970  34.015   3.645
47418W        W14201  25.049  10.838  11.041
47419W        W14202  38.255   4.024   1.977
47420W        W14203  26.185  28.002   2.743
47421W        W14204   9.700  37.718   3.227
47422W        W14205  11.206  38.133   2.090
47423W        W14206   5.941  14.599   1.858
47424W        W14207  43.525   1.927  12.264
47425W        W14208  14.328  30.654   4.590
47426W        W14209  36.957  32.042   4.309
47427W        W14210   4.325  44.104  11.070
47428W        W14211  43.595   8.608   3.593
47429W        W14212  37.586  18.052  11.208
47430W        W14213  40.312  36.746  14.074
47431W        W14214  42.625  28.079   3.685
47432W        W14215  18.965  26.415   0.347
47433W        W14216  31.103   3.719   0.211
47434W        W14217   8.666  38.397   3.710
47435W        W14218  42.787  34.814   3.630
47436W        W14219  26.988  15.512  10.011
47437W        W14220  43.732  10.742   1.061
47438W        W14221  21.978  36.559   0.353
47439W        W14222  20.455  39.581  14.132
47440W        W14223  26.678   8.781  10.660
47441W        W14224  42.304   9.271   1.910
47442W        W14225  28.901   1.022  13.081
47443W        W14226  32.390  18.061   1.398
47444W        W14227  43.917  17.167  13.807
47445W        W14228  28.592   4.191  14.361
47446W        W14229   1.659  33.430   4.595
47447W        W14230  35.182  44.598   0.014
47448W        W14231  36.889  35.034   2.756
47449W        W14232  15.562   8.763  10.632
47450W        W14233  24.352   0.461  14.842
47451W        W14234  10.343   5.923   0.474
47452W        W14235  29.599  23.503   2.659
47453W        W14236  18.806  16.821  13.920
47454W        W14237  40.327  15.794   3.727
47455W        W14238  30.494  27.725  11.125
47456W        W14239  15.306  40.395  10.584
47457W        W14240  19.667   6.898  10.746
47458W        W14241   4.221  24.049   4.752
47459W        W14242  32.251  44.382  12.984
47460W        W14243  28.926   9.675  11.956
47461W        W14244  32.666  34.172  13.929
47462W        W14245   9.144  13.735  12.461
47463W        W14246  21.523  16.452  10.246
47464W        W14247  21.688  39.078   3.873
47465W        W14248   3.241  11.909  14.008
47466W        W14249  38.304   8.793   0.973
47467W        W14250  13.378   9.368   1.836
47468W        W14251  34.572   4.240   2.417
47469W        W14252   1.843   2.456  10.489
47470W        W14253  34.949   5.846   3.178
47471W        W14254  23.435   9.130  11.229
47472W        W14255  30.929  21.115   4.605
47473W        W14256  21.170  44.161   2.709
47474W        W14257  19.577  12.691  11.566
47475W        W14258   2.275  27.509   1.924
47476W        W14259  35.857  32.574   2.621
47477W        W14260   3.339   2.703  10.563
47478W        W14261  36.752  16.468   0.878
47479W        W14262  38.093  27.068  13.073
47480W        W14263  43.874   2.627   3.590
47481W        W14264  38.944  34.884  14.980
47482W        W14265  37.132  40.585   4.539
47483W        W14266   3.006  15.566   3.562
47484W        W14267  28.227  28.770   1.959
47485W        W14268  26.261  26.140  11.564
47486W        W14269  39.051  23.092  11.885
47487W        W14270   4.008   4.339   0.163
47488W        W14271  38.897  42.467  10.673
47489W        W14272  20.885  34.394  12.513
47490W        W14273  28.498  19.618   3.666
47491W        W14274  21.921   6.921   5.096
47492W        W14275   9.105  32.623   4.654
47493W        W14276   1.453  25.956  10.939
47494W        W14277  19.191  13.258  10.919
47495W        W14278  30.164  21.738   2.540
47496W        W14279  20.327   8.354  12.057
47497W        W14280  17.565   3.718  13.137
47498W        W14281  19.012   0.278  12.198
47499W        W14282  33.025   2.733  12.962
47500W        W14283  18.208  25.131  13.805
47501W        W14284  28.116  18.384  12.601
47502W        W14285   6.203   8.421   3.322
47503W        W14286  27.514  13.812  11.255
47504W        W14287  39.908  12.840  13.315
47505W        W14288   0.035  32.020  10.376
47506W        W14289  26.653  21.044  11.069
47507W        W14290   3.764  30.534   3.698
47508W        W14291  36.486  29.673  12.920
47509W        W14292  17.874   7.305   4.602
47510W        W14293   5.259  44.881   3.658
47511W        W14294  21.096  39.074  13.978
47512W        W14295  42.848  40.263   1.290
47513W        W14296  30.873  17.726   3.382
47514W        W14297   6.484  24.947   3.681
47515W        W14298  31.478  10.641  13.773
47516W        W14299  12.654  29.192   3.801
47517W        W14300   4.880   0.971   2.234
47518W        W14301   1.106  22.504   4.633
47519W        W14302  44.714  20.344   1.473
47520W        W14303  14.355   7.709  10.938
47521W        W14304   3.504  21.914  14.853
47522W        W14305  34.109  36.654  13.348
47523W        W14306  24.810  38.974  13.123
47524W        W14307   9.007  37.805   5.068
47525W        W14308  29.718  43.409  13.940
47526W        W14309  38.249   8.319  12.161
47527W        W14310  31.237  12.611   4.348
47528W        W14311  13.281  34.471   1.322
47529W        W14312  22.527  33.591  11.536
47530W        W14313  41.910  10.397   3.909
47531W        W14314  34.818  25.895   3.263
47532W        W14315   8.230  39.440   1.747
47533W        W14316  29.483  30.427  12.519
47534W        W14317  29.808   4.243  11.056
47535W        W14318  12.523  20.422  13.504
47536W        W14319  37.319  32.960  12.013
47537W        W14320   8.029  14.340  14.542
47538W        W14321  11.783  22.297   2.396
47539W        W14322   6.357  15.000  14.943
47540W        W14323  32.329  16.616   1.034
47541W        W14324  44.072  36.139   0.856
47542W        W14325  27.612   9.226  11.890
47543W        W14326  26.187  43.565   0.907
47544W        W14327   2.397  16.984  14.945
47545W        W14328  37.893  44.011   2.484
47546W        W14329  41.420  20.514   0.445
47547W        W14330   9.640  44.073  14.929
47548W        W14331  21.268  20.863   5.201
47549W        W14332  37.302  37.078  11.528
47550W        W14333   9.088  18.186   3.921
47551W        W14334   6.344  26.909  12.319
47552W        W14335   4.846  16.006   1.685
47553W        W14336  11.077  15.371  10.595
47554W        W14337  42.089   2.031  13.039
47555W        W14338   5.764  33.453  11.603
47556W        W14339  31.060  33.838   4.286
47557W        W14340  16.168  38.602  14.819
47558W        W14341  22.130  26.922  14.445
47559W        W14342  31.100  12.791  10.697
47560W        W14343  11.415  24.521  12.092
47561W        W14344   3.754  37.323  10.688
47562W        W14345   0.541   8.573   4.065
47563W        W14346   8.628  34.043  14.240
47564W        W14347  35.561  33.423  12.027
47565W        W14348   2.851  23.220  14.789
47566W        W14349  15.191  22.006   0.890
47567W        W14350  42.736   7.385   3.636
47568W        W14351  13.342  16.033   0.828
47569W        W14352  11.531  25.724  11.302
47570W        W14353  32.531  20.201   2.313
47571W        W14354  24.286   7.821  13.144
47572W        W14355  19.971   4.726  13.465
47573W        W14356  27.106  15.816   3.416
47574W        W14357   0.849   1.575   9.861
47575W        W14358  36.033  15.321  10.456
47576W        W14359  25.886  36.081  14.928
47577W        W14360   0.382  37.905  12.711
47578W        W14361  25.169  38.947   3.065
47579W        W14362  42.266   2.022  13.925
47580W        W14363  41.949  39.025  10.644
47581W        W14364  15.851   3.759  12.922
47582W        W14365  34.139  14.279  11.397
47583W        W14366  20.365   4.430   2.749
47584W        W14367  15.343   8.157  14.048
47585W        W14368  23.747   4.621  14.772
47586W        W14369  14.221   9.846  14.358
47587W        W14370   2.054  37.602  14.734
47588W        W14371  37.643  41.359  11.515
47589W        W14372  14.236   4.563   3.752
47590W        W14373  23.598  20.481   0.916
47591W        W14374  30.049  25.265  13.510
47592W        W14375  34.866   7.623  12.187
47593W        W14376   6.999  33.602  10.601
47594W        W14377  30.942  30.987  13.713
47595W        W14378  27.684  25.957   4.701
47596W        W14379  33.545  19.609   2.670
47597W        W14380  23.952  12.041   4.648
47598W        W14381   4.506   7.674   5.214
47599W        W14382   2.340  15.301   2.113
47600W        W14383  35.437  20.873  13.294
47601W        W14384   0.827  42.694   0.169
47602W        W14385  44.211  13.800   1.900
47603W        W14386   2.796  13.193   1.923
47604W        W14387  19.081   6.365   1.047
47605W        W14388  10.358  10.066   1.325
47606W        W14389   2.210   7.188  12.448
47607W        W14390  11.650  35.804   2.120
47608W        W14391  13.701  29.276   4.779
47609W        W14392  35.624  37.481  10.715
47610W        W14393   5.459  21.681  13.521
47611W        W14394   7.757   0.771   3.380
47612W        W14395  32.854  21.156  14.910
47613W        W14396  42.293  24.514   2.308
47614W        W14397  10.464  44.805   3.082
47615W        W14398  29.576   6.980  14.345
47616W        W14399  13.842  42.535  11.983
47617W        W14400  16.911  25.612  13.900
47618W        W14401  29.520  30.678  14.789
47619W        W14402  42.046  13.416  14.422
47620W        W14403   3.710  24.121  14.090
47621W        W14404  15.027  31.653   2.335
47622W        W14405   7.390   5.610   1.856
47623W        W14406   2.948  16.582  14.338
47624W        W14407   7.191   2.414   2.197
47625W        W14408  23.062  16.256   0.059
47626W        W14409  23.329  30.453  14.020
47627W        W14410  31.756  15.179   4.776
47628W        W14411  13.114  43.824   3.873
47629W        W14412  37.361  13.562  11.187
47630W        W14413  24.971  38.555   4.590
47631W        W14414   0.787  14.092  14.923
47632W        W14415   6.316  12.763  11.725
47633W        W14416  42.389  17.272   3.873
47634W        W14417  19.025  44.367   3.207
47635W        W14418   2.404  11.257  10.700
47636W        W14419  23.824  38.030  11.996
47637W        W14420  34.417  17.662  13.756
47638W        W14421  11.147  29.939   1.365
47639W        W14422  36.496  33.981   0.440
47640W        W14423  42.818  44.021  12.993
47641W        W14424  22.709  36.443   3.614
47642W        W14425  44.388  23.453  14.344
47643W        W14426   2.672  20.181   1.609
47644W        W14427  23.642  42.220  12.776
47645W        W14428  22.736  15.672  11.450
47646W        W14429  41.906  35.657  11.197
47647W        W14430  32.356   8.354   0.711
47648W        W14431   4.364  32.860  14.806
47649W        W14432  21.189  13.415  12.455
47650W        W14433  14.343  22.125  10.806
47651W        W14434   1.944  37.098  12.027
47652W        W14435  37.440   7.790   1.869
47653W        W14436  26.033  11.571  11.935
47654W        W14437  24.718   0.243   0.329
47655W        W14438  22.692  19.538  12.028
47656W        W14439  17.659  39.949   1.023
47657W        W14440  14.347  15.644   1.592
47658W        W14441  29.513  21.742  10.692
47659W        W14442  43.093  36.051  11.547
47660W        W14443  34.617  39.375   3.272
47661W        W14444  43.283  18.639  12.401
47662W        W14445  19.651  21.307   2.171
47663W        W14446  32.334  44.999  14.775
47664W        W14447  44.847  14.928  11.450
47665W        W14448   7.681  21.404   4.285
47666W        W14449   1.759  25.083   1.306
47667W        W14450  23.110   3.274  13.426
47668W        W14451   0.573  28.463  13.510
47669W        W14452  31.588  38.010   4.558
47670W        W14453  30.136  42.933  11.024
47671W        W14454   5.050  19.283  11.187
47672W        W14455  16.345   8.696  11.048
47673W        W14456   3.250  37.876   3.201
47674W        W14457   0.361  41.109  13.510
47675W        W14458  35.494  12.178  14.489
47676W        W14459  18.439  31.546   3.233
47677W        W14460   6.569   3.940   2.294
47678W        W14461  41.173  31.036  11.684
47679W        W14462   0.425  42.780   2.262
47680W        W14463  34.945  24.697   4.642
47681W        W14464  23.595  32.564  12.427
47682W        W14465  29.769   5.214  11.595
47683W        W14466   3.202  16.118  14.268
47684W        W14467  32.578  22.017   1.269
47685W        W14468  43.666  14.954   2.200
47686W        W14469   9.267  22.976   2.092
47687W        W14470  41.909  37.158   3.174
47688W        W14471  13.148  10.498   3.302
47689W        W14472  16.097  12.370  14.338
47690W        W14473   1.922  17.016   2.190
47691W        W14474   8.926  15.075   0.414
47692W        W14475  19.286  18.801  13.077
47693W        W14476  20.600  38.794  13.825
47694W        W14477   5.181  14.960   4.208
47695W        W14478  42.760  32.478  13.323
47696W        W14479  42.770  42.441  14.890
47697W        W14480  42.720  19.260   0.079
47698W        W14481  23.252  32.675   3.627
47699W        W14482   2.320  18.359   4.269
47700W        W14483  17.769  33.676   0.034
47701W        W14484   5.495   3.358  13.858
47702W        W14485  23.052   6.268  13.515
47703W        W14486   0.368   1.570   2.790
47704W        W14487  20.689  32.822   3.232
47705W        W14488  37.531  10.519   4.737
47706W        W14489  23.804  17.083   0.249
47707W        W14490  23.589  35.306  12.687
47708W        W14491   6.931  39.492   2.817
47709W        W14492  23.919  16.061  10.565
47710W        W14493  24.035  18.961   1.420
47711W        W14494  18.174  30.139  10.313
47712W        W14495  36.332  29.576   1.690
47713W        W14496  32.991  14.891   0.286
47714W        W14497  13.720  27.339  12.874
47715W        W14498  16.115  16.281  14.253
47716W        W14499  30.418  30.650  13.883
47717W        W14500  36.518  20.745  10.964
47718W        W14501  18.262   4.609  13.870
47719W        W14502  44.484  26.144  12.505
47720W        W14503  16.055  40.885   1.304
47721W        W14504  18.416  29.863   3.695
47722W        W14505  24.055   0.336   3.969
47723W        W14506   6.012  23.053   3.226
47724W        W14507  35.753  33.085   0.895
47725W        W14508  26.407  18.181  13.830
47726W        W14509  18.345   8.341  11.965
47727W        W14510  38.380   4.205   0.683
47728W        W14511  41.147  44.736   2.296
47729W        W14512  36.984   9.181  14.347
47730W        W14513   9.219  11.275   3.375
47731W        W14514   0.701  11.777  12.832
47732W        W14515  35.373  27.676   3.639
47733W        W14516  27.807  43.037  12.568
47734W        W14517  16.020  11.100   1.812
47735W        W14518  40.825  43.043   1.262
47736W        W14519  29.544   1.230  10.702
47737W        W14520  12.145  44.336  14.074
47738W        W14521   1.051   2.808   0.274
47739W        W14522  37.268  25.475  13.335
47740W        W14523  37.942  35.886   1.900
47741W        W14524  42.445  39.908   4.652
47742W        W14525  17.049  32.096   3.233
47743W        W14526  19.740  29.326  13.307
47744W        W14527   9.639  29.241   1.311
47745W        W14528   0.791  14.625  10.804
47746W        W14529   3.981   4.901   0.909
47747W        W14530  14.702   4.677  12.003
47748W        W14531   1.023  10.383  13.050
47749W        W14532  23.717  38.155  12.921
47750W        W14533   0.038  27.509  12.543
47751W        W14534  25.068  28.903   3.245
47752W        W14535   3.942  40.453   0.288
47753W        W14536  40.815  13.581  14.447
47754W        W14537   4.888  29.318   0.239
47755W        W14538  30.554   9.416   0.388
47756W        W14539  17.023  40.506  13.786
47757W        W14540  26.005  37.030  11.682
47758W        W14541  26.769  10.465  13.419
47759W        W14542  44.720  15.805  13.480
47760W        W14543  27.190  26.493  10.562
47761W        W14544  11.194  29.913   4.924
47762W        W14545   6.699   3.652  13.845
47763W        W14546  14.199  32.185  11.957
47764W        W14547   5.674   1.131  13.637
47765W        W14548  15.115  10.361  11.089
47766W        W14549  12.005  34.281   2.855
47767W        W14550   8.433  43.793   3.867
47768W        W14551   7.154  13.679  13.379
47769W        W14552   8.162  39.989  13.546
47770W        W14553  44.982  20.491  11.039
47771W        W14554  44.035   9.413   4.926
47772W        W14555  19.162  31.987  11.370
47773W        W14556  18.550   1.294   1.702
47774W        W14557  37.001  29.406  11.084
47775W        W14558  18.088   5.794   0.019
47776W        W14559  29.515   2.538  11.179
47777W        W14560  18.185  27.604  10.740
47778W        W14561  24.435   3.192   1.016
47779W        W14562  33.822   2.906   3.999
47780W        W14563   3.320  39.745  13.353
47781W        W14564  12.065  14.633  10.601
47782W        W14565  22.377  42.796   4.621
47783W        W14566  37.307  13.696  12.474
47784W        W14567   5.511  20.203   4.508
47785W        W14568  36.370   1.842   1.970
47786W        W14569  12.386  17.173  12.257
47787W        W14570  23.411  40.523   0.623
47788W        W14571  11.691   3.382   3.893
47789W        W14572   0.131  25.422  11.469
47790W        W14573  21.686  24.431  12.605
47791W        W14574   5.715  16.723   1.699
47792W        W14575  33.616   2.860  12.313
47793W        W14576  18.577  17.330   1.348
47794W        W14577  21.467  17.842  11.178
47795W        W14578   8.820  26.545  12.384
47796W        W14579  22.600   7.107   2.926
47797W        W14580  11.030  27.488  13.127
47798W        W14581  24.630   3.281   3.696
47799W        W14582  44.614   2.758  12.395
47800W        W14583  39.325  12.067  12.566
47801W        W14584  17.511  17.046  13.119
47802W        W14585  23.264  33.393   4.259
47803W        W14586  11.342  30.519  14.399
47804W        W14587   8.630  23.456  13.517
47805W        W14588  28.595  25.105  14.753
47806W        W14589  14.918   5.020  13.076
47807W        W14590  13.781  40.064  11.145
47808W        W14591   2.955  44.696  12.546
47809W        W14592  39.983   3.060   2.488
47810W        W14593  16.050  34.408   0.234
47811W        W14594  12.532  10.610   0.739
47812W        W14595  40.808   8.279   0.252
47813W        W14596   7.950  11.028   2.374
47814W        W14597  10.341  10.081  13.554
47815W        W14598  10.325  38.587   4.167
47816W        W14599  34.751   3.896   1.719
47817W        W14600  29.670   5.912   2.983
47818W        W14601  29.061  24.409   1.877
47819W        W14602  10.517  14.628  12.541
47820W        W14603  38.853  36.340   1.928
47821W        W14604  41.574  18.738   2.369
47822W        W14605  29.028  19.163   4.671
47823W        W14606  37.453  37.065  11.018
47824W        W14607  24.936   7.210   1.372
47825W        W14608  30.845   3.503  10.928
47826W        W14609  38.438  31.888   2.286
47827W        W14610   1.989   5.168   3.232
47828W        W14611   9.351  38.134   3.228
47829W        W14612   3.479  34.475   2.378
47830W        W14613  30.604  35.044   5.233
47831W        W14614   6.830  40.942  13.688
47832W        W14615  11.867  44.666  12.391
47833W        W14616  23.404  11.156   4.372
47834W        W14617  38.529  24.198  12.864
47835W        W14618  28.507  34.121  14.324
47836W        W14619  32.760  31.631  11.080
47837W        W14620  21.390  41.257   2.906
47838W        W14621  27.288  13.602   1.873
47839W        W14622  44.350  39.010   2.775
47840W        W14623  39.275   4.170   0.845
47841W        W14624  40.344  17.663   2.388
47842W        W14625  18.742   9.661  10.698
47843W        W14626  24.800   4.516  14.909
47844W        W14627  33.452  36.992   0.388
47845W        W14628  40.550   8.744   4.244
47846W        W14629  15.255  28.531  13.716
47847W        W14630  35.084  20.792   0.255
47848W        W14631  44.298  36.322  13.445
47849W        W14632   6.672  11.878   4.619
47850W        W14633  17.690  18.610   2.801
47851W        W14634  14.544   0.371  10.650
47852W        W14635  13.518  41.468   0.841
47853W        W14636  27.033  30.405   0.823
47854W        W14637  30.540  32.975   0.558
47855W        W14638  27.129  42.532  10.201
47856W        W14639  39.354   8.229   4.070
47857W        W14640   4.654  22.710   2.344
47858W        W14641  38.000   1.010   3.760
47859W        W14642  17.580  23.452   1.706
47860W        W14643  43.320  43.094   1.312
47861W        W14644  18.679  38.531   1.200
47862W        W14645   1.971  21.465  13.968
47863W        W14646  32.397  25.054   2.643
47864W        W14647  25.756  17.572  12.115
47865W        W14648  30.208   9.129   4.181
47866W        W14649  42.386  22.036   1.282
47867W        W14650  13.581  36.160   3.372
47868W        W14651  28.817  15.140   1.304
47869W        W14652  22.082   1.546  10.204
47870W        W14653  11.184  43.974   3.695
47871W        W14654   1.089  34.874  13.326
47872W        W14655  39.875  30.334  12.660
47873W        W14656   3.465  11.215   3.142
47874W        W14657  24.628  30.129   0.094
47875W        W14658  21.372  16.690   3.852
47876W        W14659  36.076  20.671   1.498
47877W        W14660   9.856  22.166   4.109
47878W        W14661  16.058   8.570  13.219
47879W        W14662  19.953  43.518   1.902
47880W        W14663  20.264  19.286   0.971
47881W        W14664  20.648  44.030  12.797
47882W        W14665  17.086  37.398  11.450
47883W        W14666  33.558  20.445   3.278
47884W        W14667  39.416  21.563  11.152
47885W        W14668  20.684   5.937   4.603
47886W        W14669   2.751  44.897  13.011
47887W        W14670  14.658  35.610   2.446
47888W        W14671  30.141   3.510   0.395
47889W        W14672  32.388  22.940   2.726
47890W        W14673  28.077   5.230   3.668
47891W        W14674  37.814  16.208   3.971
47892W        W14675  21.525  39.864  13.255
47893W        W14676  22.489  42.307   3.591
47894W        W14677  36.309  29.431   0.815
47895W        W14678   4.008  40.002  12.559
47896W        W14679  39.453  32.153   0.014
47897W        W14680  21.667  44.365   3.158
47898W        W14681  29.537  38.433  12.341
47899W        W14682   0.610   2.864   3.189
47900W        W14683  14.633  38.065  11.362
47901W        W14684  34.518  31.145  12.812
47902W        W14685  11.766  34.860   4.540
47903W        W14686  22.553  15.193  11.452
47904W        W14687  44.126   6.417  11.999
47905W        W14688  16.046  25.260  11.482
47906W        W14689  12.351  13.121  10.422
47907W        W14690  13.147  14.740   1.657
47908W        W14691  15.479   8.563   1.971
47909W        W14692  36.321  10.678   2.263
47910W        W14693  34.031   2.277  11.693
47911W        W14694  38.829  37.446   0.862
47912W        W14695  17.273  33.513  14.748
47913W        W14696  40.980  32.574   1.367
47914W        W14697  43.011  36.882   0.210
47915W        W14698   2.559  26.826  11.235
47916W        W14699  27.099  39.992   3.167
47917W        W14700  14.012  30.035  14.540
47918W        W14701  15.243  27.645  10.666
47919W        W14702  34.981  18.802   4.565
47920W        W14703  35.494   8.299   0.870
47921W        W14704  35.045  42.923  13.795
47922W        W14705  33.910  11.573   1.855
47923W        W14706  13.280   1.737  12.408
47924W        W14707   6.882   0.044   0.278
47925W        W14708  38.538   5.291   3.304
47926W        W14709  28.419  41.968   3.539
47927W        W14710  19.713   7.960   1.729
47928W        W14711  10.293  38.827  13.377
47929W        W14712   0.934  16.454  14.244
47930W        W14713   0.974   1.740   0.934
47931W        W14714  21.927  39.433  14.920
47932W        W14715   3.722  24.270   1.432
47933W        W14716  33.297  41.981   0.104
47934W        W14717  15.565   5.420   0.836
47935W        W14718  11.037  22.236   0.952
47936W        W14719  36.138  43.852  11.882
47937W        W14720   9.385  12.198   3.356
47938W        W14721  14.087  30.428   4.196
47939W        W14722   3.620   2.706   4.099
47940W        W14723  26.547  35.796   0.251
47941W        W14724  40.474   4.833  13.010
47942W        W14725  34.771  35.476   0.530
47943W        W14726  23.101  19.735   2.308
47944W        W14727  32.616  16.519  10.275
47945W        W14728  11.245  23.908   0.293
47946W        W14729  38.889  37.133  11.586
47947W        W14730   8.702  13.414   4.625
47948W        W14731  25.579  43.881  12.970
47949W        W14732  30.398  26.990   0.231
47950W        W14733  10.234   9.773  11.250
47951W        W14734  14.675  18.842  13.337
47952W        W14735  16.253   2.533   3.268
47953W        W14736  12.560   1.431   0.789
47954W        W14737  17.104  13.983  12.106
47955W        W14738   2.451  41.298  13.321
47956W        W14739  34.080  43.096  11.528
47957W        W14740  26.590   6.780  13.422
47958W        W14741   4.674  17.055  11.763
47959W        W14742  27.542  16.841   2.291
47960W        W14743   6.392  25.473   1.813
47961W        W14744  35.572  37.557  14.333
47962W        W14745  34.216  41.883   2.301
47963W        W14746  21.740  36.601  13.526
47964W        W14747  20.471  17.600   3.818
47965W        W14748   3.841   8.014   3.822
47966W        W14749  42.284  34.305  11.227
47967W        W14750  15.663  35.449  11.566
47968W        W14751   1.825  37.072  10.555
47969W        W14752   3.493   2.537  12.816
47970W        W14753  42.374  37.577   1.325
47971W        W14754   6.064  28.489  13.084
47972W        W14755  39.413  37.793   0.787
47973W        W14756  20.541   5.737  14.840
47974W        W14757  28.863  38.159   0.083
47975W        W14758  38.518  19.415  12.629
47976W        W14759  12.664  37.484   1.166
47977W        W14760  11.164  41.537  13.501
47978W        W14761  44.696   0.437   4.459
47979W        W14762   6.447   4.300  13.871
47980W        W14763  25.912  22.481   4.209
47981W        W14764  30.827   8.806  12.620
47982W        W14765  18.508  34.134  13.931
47983W        W14766   5.845  20.588  12.057
47984W        W14767  34.034   3.042  13.038
47985W        W14768  44.785  28.034   4.610
47986W        W14769  11.828  40.611   2.183
47987W        W14770  19.077  11.389   0.703
47988W        W14771  38.892  13.657  13.284
47989W        W14772  40.736  20.291  10.676
47990W        W14773   7.412  26.741   2.107
47991W        W14774  40.996  38.347  13.444
47992W        W14775  27.057  32.975  12.063
47993W        W14776  30.945  39.290   1.796
47994W        W14777  34.476   0.268   3.723
47995W        W14778  31.087  12.777   1.656
47996W        W14779  36.921  13.897   1.879
47997W        W14780  31.409  44.984   3.625
47998W        W14781  44.170  39.090   2.239
47999W        W14782  43.203  10.746   1.861
48000W        W14783  40.493  11.117  13.261
48001W        W14784  15.649  20.681  11.126
48002W        W14785  34.680  41.883   1.449
48003W        W14786  31.617  30.062   4.248
48004W        W14787  17.710  19.190  14.282
48005W        W14788   0.968  29.749   1.811
48006W        W14789   7.152  11.337   3.343
48007W        W14790  40.543  18.511   0.736
48008W        W14791  28.966   9.811   0.273
48009W        W14792  19.764   3.612   4.303
48010W        W14793  20.989   0.462   0.213
48011W        W14794   2.406  35.523   0.162
48012W        W14795  22.149  38.484  12.087
48013W        W14796  33.988  23.989   0.510
48014W        W14797  32.194   8.772  11.144
48015W        W14798  29.351  31.423   4.345
48016W        W14799  18.697  41.901   4.862
48017W        W14800  14.610   9.299   4.946
48018W        W14801  37.754   3.933   3.261
48019W        W14802  17.662   1.681  10.442
48020W        W14803  30.878   9.674   4.552
48021W        W14804   4.715  31.980  14.288
48022W        W14805  21.542  16.111   1.874
48023W        W14806  29.454  35.133  13.575
48024W        W14807   4.728   3.800  14.183
48025W        W14808  17.255  16.708   0.835
48026W        W14809  13.514  15.331  13.560
48027W        W14810  28.066  39.255  13.105
48028W        W14811  14.560   6.933  10.735
48029W        W14812   6.452  23.561  10.651
48030W        W14813  43.636  12.716  10.679
48031W        W14814  41.042  35.564   2.181
48032W        W14815   0.955  43.386   1.783
48033W        W14816  44.220  12.246  10.912
48034W        W14817  10.489  36.604  14.075
48035W        W14818   9.100  31.838  12.045
48036W        W14819  42.731   2.642   0.916
48037W        W14820  15.845  29.341  11.234
48038W        W14821   1.294   6.366  13.523
48039W        W14822  10.605  29.671  12.861
48040W        W14823  10.474  23.795  14.665
48041W        W14824  11.371  17.291  10.176
48042W        W14825  37.436   3.915   4.584
48043W        W14826  34.590  42.876  11.700
48044W        W14827   4.804  25.237  10.723
48045W        W14828  14.195  13.716   0.380
48046W        W14829  23.599  22.262  11.538
48047W        W14830   6.956   6.648  13.875
48048W        W14831  43.401  27.411   3.924
48049W        W14832   8.385  13.082  13.195
48050W        W14833  11.773  37.395  12.432
48051W        W14834  32.148  24.234  10.587
48052W        W14835   9.704  26.573   2.937
48053W        W14836   1.509  29.633   2.759
48054W        W14837  17.780  26.663   0.975
48055W        W14838  20.943  13.711   1.686
48056W        W14839  13.803  15.115   1.144
48057W        W14840  17.303  29.679   0.492
48058W        W14841   7.386  13.639  12.914
48059W        W14842  30.164   6.739  13.149
48060W        W14843  16.075  17.885   0.423
48061W        W14844   7.262  36.653  14.820
48062W        W14845   2.124  24.211   2.223
48063W        W14846  30.052  30.584   0.647
48064W        W14847  29.135   1.988  13.442
48065W        W14848   5.213  33.530  13.338
48066W        W14849  37.890  29.159   3.600
48067W        W14850   9.739  38.086   1.843
48068W        W14851  12.618  10.044   1.821
48069W        W14852   0.743  38.958   5.036
48070W        W14853  29.103  29.377  12.999
48071W        W14854   0.270  10.299  14.432
48072W        W14855  37.621  36.247   0.742
48073W        W14856   7.036  14.254  14.362
48074W        W14857  21.276  31.638   0.341
48075W        W14858  14.113   5.388   1.701
48076W        W14859  44.383  40.101  11.014
48077W        W14860  18.852   8.336   1.676
48078W        W14861  42.892  34.041   3.079
48079W        W14862  18.609   1.239   3.150
48080W        W14863   9.148  17.744   1.276
48081W        W14864   6.702   6.229   3.810
48082W        W14865  23.034  27.078  12.927
48083W        W14866   8.837  13.479   3.327
48084W        W14867  33.396  41.974  11.928
48085W        W14868  19.059  29.103   4.289
48086W        W14869   7.247  21.787   3.840
48087W        W14870  20.162  29.027   3.636
48088W        W14871   9.840  33.284   2.662
48089W        W14872   9.882  38.527  11.960
48090W        W14873  44.840  41.285  12.866
48091W        W14874   0.363  30.125   3.197
48092W        W14875  35.957  43.202  14.429
48093W        W14876  16.684  28.997  14.817
48094W        W14877   3.838  41.467  12.096
48095W        W14878  40.891  11.165  10.681
48096W        W14879  24.411  27.031   0.892
48097W        W14880  10.677  18.283  14.308
48098W        W14881  38.522  44.534  13.920
48099W        W14882   3.836  34.943   4.193
48100W        W14883  34.985   2.462   4.587
48101W        W14884  24.564   4.200  14.364
48102W        W14885  19.556  36.784   0.482
48103W        W14886  13.465  14.330  12.065
48104W        W14887  44.253   9.763  11.747
48105W        W14888  19.074  15.765   1.508
48106W        W14889  39.774  26.365   2.826
48107W        W14890  37.369  27.883   0.009
48108W        W14891   5.727  34.885  13.087
48109W        W14892  20.772   1.314   0.261
48110W        W14893  32.359   7.243   3.515
48111W        W14894  25.965  30.708  11.542
48112W        W14895  33.455  40.030   3.345
48113W        W14896  15.764  35.904  13.670
48114W        W14897  36.089   3.755   1.730
48115W        W14898  10.643   8.886  10.912
48116W        W14899   5.988  20.506  12.849
48117W        W14900  31.665  42.859  11.260
48118W        W14901  13.135   4.359  10.534
48119W        W14902  14.595   1.240  11.076
48120W        W14903  37.804  32.067   1.249
48121W        W14904  28.161  34.981  11.127
48122W        W14905  30.856  27.780   4.178
48123W        W14906   0.365  17.102  13.299
48124W        W14907  25.664  19.616   3.105
48125W        W14908  16.067   7.454  12.976
48126W        W14909  42.839  24.236  12.533
48127W        W14910  31.074  17.358  14.505
48128W        W14911  38.631   9.262   1.217
48129W        W14912   8.774  38.037  11.161
48130W        W14913   8.424   1.917  14.352
48131W        W14914  26.961  28.085  11.606
48132W        W14915  30.662   2.314  14.720
48133W        W14916   7.285  29.120  10.724
48134W        W14917  44.621  44.899   4.173
48135W        W14918  42.295  27.491  12.921
48136W        W14919   5.165  15.861  10.770
48137W        W14920  28.594  30.526   2.909
48138W        W14921   3.816   2.713  11.248
48139W        W14922  36.817  44.377  10.628
48140W        W14923  15.862   6.196   0.679
48141W        W14924  12.751  41.722   4.648
48142W        W14925   2.841  13.246  12.830
48143W        W14926  28.162  17.874   4.318
48144W        W14927  38.349  37.375   4.170
48145W        W14928  39.979   4.747  13.297
48146W        W14929  21.048  37.561  10.695
48147W        W14930  23.329  38.260   3.624
48148W        W14931  13.635  19.883  14.214
48149W        W14932  34.440   4.600   4.422
48150W        W14933  14.773  33.464   0.759
48151W        W14934   3.411  39.526  11.487
48152W        W14935  33.142  32.354  12.092
48153W        W14936  24.202  16.565   2.319
48154W        W14937   4.889  15.282  14.907
48155W        W14938  41.752  13.581   2.228
48156W        W14939  15.509  39.978   4.920
48157W        W14940   2.757   1.192   4.122
48158W        W14941  33.105   9.311  11.219
48159W        W14942   0.573  14.637   4.560
48160W        W14943  34.908  37.012   2.310
48161W        W14944   0.383  19.547  13.336
48162W        W14945  10.222  29.467   4.991
48163W        W14946  26.948  11.733   4.198
48164W        W14947   1.782  22.975  12.982
48165W        W14948  25.724  36.864   4.140
48166W        W14949  11.760  20.769  14.601
48167W        W14950  19.188  11.716   2.959
48168W        W14951   3.055   1.020  14.420
48169W        W14952   8.319  30.579  14.385
48170W        W14953  42.993  16.567  10.682
48171W        W14954  30.820  30.641   5.108
48172W        W14955  24.244  10.746  10.554
48173W        W14956   6.669  15.632   3.115
48174W        W14957   1.274   8.328   0.985
48175W        W14958   4.845   7.907   4.186
48176W        W14959  31.617  37.005   3.360
48177W        W14960  17.698  32.454  14.283
48178W        W14961  38.483  27.138   1.791
48179W        W14962  43.036  24.994   1.941
48180W        W14963  14.731  36.412   0.972
48181W        W14964  12.869  29.453   1.232
48182W        W14965  13.230  41.584   4.948
48183W        W14966  21.056  38.321  12.766
48184W        W14967  10.672  26.684  14.681
48185W        W14968   3.301  21.886   1.309
48186W        W14969  33.087  39.999   2.997
48187W        W14970   9.870  10.581   4.074
48188W        W14971  19.767  34.033  11.120
48189W        W14972   2.035  27.785   1.497
48190W        W14973  34.062  39.825   4.540
48191W        W14974  42.896  29.551   4.683
48192W        W14975  21.137  34.863   3.999
48193W        W14976  34.170   5.382   1.896
48194W        W14977  43.329  34.167   1.731
48195W        W14978  42.555  11.212  12.451
48196W        W14979  10.756  17.982   0.642
48197W        W14980  15.026   9.360  10.213
48198W        W14981   6.846  36.644  12.531
48199W        W14982  14.648  13.722  13.551
48200W        W14983  44.011   9.707   5.359
48201W        W14984   5.466  19.635  10.980
48202W        W14985   5.732  43.522  14.827
48203W        W14986  39.798   0.581   2.855
48204W        W14987   8.535   2.913   4.127
48205W        W14988  27.086  38.362  13.910
48206W        W14989  25.083  35.181   0.170
48207W        W14990  27.472  26.724   2.832
48208W        W14991  25.684  21.142  11.700
48209W        W14992   1.937  43.844  10.727
48210W        W14993   1.679  24.672  14.243
48211W        W14994  37.367  40.428  12.404
48212W        W14995  43.581  40.479   2.659
48213W        W14996  37.390  27.362  11.100
48214W        W14997  24.741  35.608  10.761
48215W        W14998   8.486  28.367  13.016
48216W        W14999   7.349   4.048   2.807
48217W        W15000  28.162  35.933  12.088
48218W        W15001  20.655  40.973   0.139
48219W        W15002  29.479   6.800  14.840
48220W        W15003  36.320  37.890  11.070
48221W        W15004  29.371   9.925  12.040
48222W        W15005  24.000  26.016   2.967
48223W        W15006  23.297  23.009   0.758
48224W        W15007  21.320  19.326  13.936
48225W        W15008  28.612  32.961  11.329
48226W        W15009   4.884  38.332  12.524
48227W        W15010  29.636  42.929  14.157
48228W        W15011  41.113  18.973  12.715
48229W        W15012   4.168  19.980  12.043
48230W        W15013  44.408   4.194   4.107
48231W        W15014  20.253  35.167   1.346
48232W        W15015  38.496  38.461   1.852
48233W        W15016   1.755  32.325  13.150
48234W        W15017   4.935  12.385  13.762
48235W        W15018  27.065  22.583   1.117
48236W        W15019  34.456   6.033   3.168
48237W        W15020   4.326   1.453  11.602
48238W        W15021  16.065   7.772   0.804
48239W        W15022  44.804   5.719  12.127
48240W        W15023  33.017   4.778   2.863
48241W        W15024  32.038  28.579  12.523
48242W        W15025  13.750  27.396   4.443
48243W        W15026  13.240  41.958   0.212
48244W        W15027  26.567  33.443  14.356
48245W        W15028  18.072  15.689  13.307
48246W        W15029  12.586   0.701  11.933
48247W        W15030  31.687  17.428   3.669
48248W        W15031  38.936  27.621  11.277
48249W        W15032   9.724  15.242  12.559
48250W        W15033  43.777  34.317   1.257
48251W        W15034  43.331  22.119   1.756
48252W        W15035  12.586   2.929  14.001
48253W        W15036   6.247  22.234   1.797
48254W        W15037  38.328  38.856  12.437
48255W        W15038   5.551  38.191  13.163
48256W        W15039  37.365  10.598   2.893
48257W        W15040  19.615  18.300  14.752
48258W        W15041   9.681   7.667   3.512
48259W        W15042  20.174   8.983  14.808
48260W        W15043  12.395  30.083   2.966
48261W        W15044  29.357  19.487   1.162
48262W        W15045  38.589  24.933  14.279
48263W        W15046  15.872  16.111  10.172
48264W        W15047   6.287  18.062  12.968
48265W        W15048  34.588  32.013  14.760
48266W        W15049  15.250   7.665  14.822
48267W        W15050  33.561   8.204  10.727
48268W        W15051  28.593   6.031  13.461
48269W        W15052  32.030  43.726   2.969
48270W        W15053  34.544  12.356  13.820
48271W        W15054  43.220   7.651  12.977
48272W        W15055  30.988  36.339  11.607
48273W        W15056  16.206  15.823  13.449
48274W        W15057   7.673  15.316  14.001
48275W        W15058  27.267  21.053  11.422
48276W        W15059   2.462  41.908   2.202
48277W        W15060  24.545  15.718  11.783
48278W        W15061  33.617  21.768  13.385
48279W        W15062  13.339   4.467   2.121
48280W        W15063  18.061  28.601   4.655
48281W        W15064  28.999   8.433  14.310
48282W        W15065  43.782  33.420  14.481
48283W        W15066  23.129  11.275   0.723
48284W        W15067  32.115  32.945   4.839
48285W        W15068  11.452  16.116   2.859
48286W        W15069  17.746  43.405   2.825
48287W        W15070  13.944   1.971  12.660
48288W        W15071   7.920  21.833   4.155
48289W        W15072  43.809  32.392  13.486
48290W        W15073  39.420   4.556  12.537
48291W        W15074  33.465  32.373  10.976
48292W        W15075  11.079   9.608  12.838
48293W        W15076  34.888  44.830  10.378
48294W        W15077   2.300   0.944   4.193
48295W        W15078  13.050  28.802  12.571
48296W        W15079  39.351   0.795  11.430
48297W        W15080   8.337   7.219   1.313
48298W        W15081  13.049  13.287   0.797
48299W        W15082  38.808  36.257  14.597
48300W        W15083  12.895  11.628   3.827
48301W        W15084  18.891  44.296  14.362
48302W        W15085  16.554   3.993   1.732
48303W        W15086  32.636  18.913  13.060
48304W        W15087  42.330   3.705   4.042
48305W        W15088   7.341  10.112   0.838
48306W        W15089  11.861  37.944  13.342
48307W        W15090  10.229  21.151   9.741
48308W        W15091  11.203  24.560  14.556
48309W        W15092  23.663   8.213   2.189
48310W        W15093  35.628  21.806   5.049
48311W        W15094  40.000   3.987   4.587
48312W        W15095  34.857   4.575   5.123
48313W        W15096  14.600  34.326   2.569
48314W        W15097   3.933  31.066   0.002
48315W        W15098   2.592   0.344   0.389
48316W        W15099  36.654   9.823   2.774
48317W        W15100  21.310  41.614  11.344
48318W        W15101  43.869  29.558   4.338
48319W        W15102  14.257  37.188  13.896
48320W        W15103  20.760  12.241  10.403
48321W        W15104  11.701  34.299  11.675
48322W        W15105  28.065  42.945  11.881
48323W        W15106  19.860  20.675   2.848
48324W        W15107  16.878   8.680  11.114
48325W        W15108   9.455  32.425   1.533
48326W        W15109  29.519  16.932  11.042
48327W        W15110  17.084  27.039  14.821
48328W        W15111  21.154   0.682  11.119
48329W        W15112  22.587  32.909  13.791
48330W        W15113   7.052  11.593  11.154
48331W        W15114   0.993  26.515   4.368
48332W        W15115  16.734  15.727   2.154
48333W        W15116  31.023  30.364   2.626
48334W        W15117   9.115  11.723   1.859
48335W        W15118  44.589  15.502   4.944
48336W        W15119  41.778  33.398  14.255
48337W        W15120  13.224  31.571   0.418
48338W        W15121  22.985  11.129   2.597
48339W        W15122  21.594   0.720  10.872
48340W        W15123  15.636   2.364   0.203
48341W        W15124  30.062  22.462  12.347
48342W        W15125  24.488  22.750   2.351
48343W        W15126  29.969  40.368   0.531
48344W        W15127  33.169  15.727  10.577
48345W        W15128  10.309  20.595   3.704
48346W        W15129  14.599  33.952   0.751
48347W        W15130   6.134  30.211   2.822
48348W        W15131  29.175  34.092   1.787
48349W        W15132   4.825   7.950  13.405
48350W        W15133  44.887  42.592  10.505
48351W        W15134  30.699  26.152   3.706
48352W        W15135  14.684  17.150   0.803
48353W        W15136  31.113  36.108  12.048
48354W        W15137   8.362   1.666  12.463
48355W        W15138   2.738  27.360  11.136
48356W        W15139  41.037   8.736   1.859
48357W        W15140   2.682  33.819  14.158
48358W        W15141  37.426   1.665  11.203
48359W        W15142  28.179  20.221  14.292
48360W        W15143  14.862   8.647  11.437
48361W        W15144  18.035  13.959  10.305
48362W        W15145  10.601   2.295   5.040
48363W        W15146  40.241  43.793  12.382
48364W        W15147   6.450  38.816   3.254
48365W        W15148  13.125   0.919   2.828
48366W        W15149  44.226  35.296  13.375
48367W        W15150  16.775   2.517  12.052
48368W        W15151  16.858  24.567  10.439
48369W        W15152  25.998  36.415   4.195
48370W        W15153  10.680  20.308   0.317
48371W        W15154  40.380  21.703   3.362
48372W        W15155  13.587  37.576   2.126
48373W        W15156  17.993  34.995   0.858
48374W        W15157  23.451  15.724  13.376
48375W        W15158  33.899  44.945   0.782
48376W        W15159  28.757  37.461   2.260
48377W        W15160  16.364   3.821   3.951
48378W        W15161  15.013  27.033  12.283
48379W        W15162   0.360  44.588   1.995
48380W        W15163  12.705   2.272  12.877
48381W        W15164  27.575  15.095  12.555
48382W        W15165   4.714  28.345   1.328
48383W        W15166  17.045  19.616   0.189
48384W        W15167  18.244   4.385   4.892
48385W        W15168  29.380   9.944  11.523
48386W        W15169   9.766   9.727  12.598
48387W        W15170  13.610   4.577  14.902
48388W        W15171   3.295  21.511   2.621
48389W        W15172  38.597  24.230   3.691
48390W        W15173  20.698  25.234  12.441
48391W        W15174  16.008  36.718  11.450
48392W        W15175  30.386   6.851   1.779
48393W        W15176  35.410  35.821   1.141
48394W        W15177   0.329   0.654  12.124
48395W        W15178  36.294   1.972  14.842
48396W        W15179  22.197  16.139   4.542
48397W        W15180  43.527   1.730  14.186
48398W        W15181  37.925  34.909   1.931
48399W        W15182   3.385   5.188   2.141
48400W        W15183  42.212   9.823  12.408
48401W        W15184  42.617   1.427   0.309
48402W        W15185   0.806  16.138   0.882
48403W        W15186   8.819   7.221  13.821
48404W        W15187  31.635  10.199  13.154
48405W        W15188  42.103  13.798  13.482
48406W        W15189  19.595  27.858   2.715
48407W        W15190   2.681   4.997  13.094
48408W        W15191  19.026   5.388   2.241
48409W        W15192  31.660  34.896   0.355
48410W        W15193  40.558  30.887  14.278
48411W        W15194  26.185   1.086  12.543
48412W        W15195  11.865  16.059  13.550
48413W        W15196  18.676   0.147   2.330
48414W        W15197   7.335  13.380   2.155
48415W        W15198  34.642  10.442   0.002
48416W        W15199   6.771  21.773  11.341
48417W        W15200  14.673  42.846   3.011
48418W        W15201  25.532  12.149  11.160
48419W        W15202  16.621  40.554   4.131
48420W        W15203  14.841  33.880   1.681
48421W        W15204  10.324  17.992  11.608
48422W        W15205  10.724  39.813  14.482
48423W        W15206  18.523   2.316   1.161
48424W        W15207  41.400  43.747   2.789
48425W        W15208  26.948  14.242   4.663
48426W        W15209  16.615  24.663  11.411
48427W        W15210  39.352  14.448  11.677
48428W        W15211   1.414  43.744  10.848
48429W        W15212  30.640  34.895   3.259
48430W        W15213   5.336  37.848   2.342
48431W        W15214  36.335  30.923  14.891
48432W        W15215  35.854  31.514   2.241
48433W        W15216  17.520   1.820  14.253
48434W        W15217  19.611  24.122   5.093
48435W        W15218  32.206  16.400  11.443
48436W        W15219  10.404   2.232   4.183
48437W        W15220   2.489  22.845   1.845
48438W        W15221  39.870   7.467   2.774
48439W        W15222  13.122  28.322  12.713
48440W        W15223   0.392  42.092  11.572
48441W        W15224  28.508  42.730  14.930
48442W        W15225  14.557  32.451  14.064
48443W        W15226  22.531   4.206   2.621
48444W        W15227  23.923   4.992  13.920
48445W        W15228  38.481   0.931   0.463
48446W        W15229   7.900  32.839   4.210
48447W        W15230  28.046   7.959  14.190
48448W        W15231  11.140  23.104   1.662
48449W        W15232  16.674  31.068   2.666
48450W        W15233  28.137   4.016  12.632
48451W        W15234   9.798  26.667   1.947
48452W        W15235  34.106  44.344   0.285
48453W        W15236   7.324  27.167  13.034
48454W        W15237  35.553   6.341   2.656
48455W        W15238  33.467  42.972   0.257
48456W        W15239   1.060  23.150  10.827
48457W        W15240   2.253  20.064   1.927
48458W        W15241  14.354   7.909   1.274
48459W        W15242   4.540   8.271  12.584
48460W        W15243  28.600  13.758  13.065
48461W        W15244  37.950  11.865   0.139
48462W        W15245  30.491   3.938   4.217
48463W        W15246  14.702  26.480  14.087
48464W        W15247   0.906   7.401  12.548
48465W        W15248  17.636   5.942   3.639
48466W        W15249  18.276   9.660  10.964
48467W        W15250   1.271  21.517   0.272
48468W        W15251  22.875  26.648   1.588
48469W        W15252  40.451  27.175  13.040
48470W        W15253  29.719   9.202  12.596
48471W        W15254  13.535  19.042  12.379
48472W        W15255  15.939  38.140  11.080
48473W        W15256  24.081  42.953   1.469
48474W        W15257  19.383  32.162  13.624
48475W        W15258  25.068  36.011  11.086
48476W        W15259   8.018   2.036   2.371
48477W        W15260   0.760  42.283  14.870
48478W        W15261  32.252  16.148  14.064
48479W        W15262   7.278  42.280  14.332
48480W        W15263  18.414  20.437   2.353
48481W        W15264  39.606  20.009   2.235
48482W        W15265  35.184  22.661   2.759
48483W        W15266  16.520  10.802  12.881
48484W        W15267  17.768   7.193   3.356
48485W        W15268  17.054   6.293   1.336
48486W        W15269   3.734  34.517  14.030
48487W        W15270   6.457  13.060  11.308
48488W        W15271  13.103  29.270   1.654
48489W        W15272   8.853  43.355   1.343
48490W        W15273   2.938  34.813   0.196
48491W        W15274   7.911   3.369  14.235
48492W        W15275  11.750  24.776   2.922
48493W        W15276  20.789  18.609   0.453
48494W        W15277  43.232  29.129  13.078
48495W        W15278  14.244  28.952   3.649
48496W        W15279  23.184  37.783   2.403
48497W        W15280  40.591  31.070   3.299
48498W        W15281  16.881  17.681   3.936
48499W        W15282   3.378  18.718   2.089
48500W        W15283  35.824  14.067   4.241
48501W        W15284  19.590  36.671   4.223
48502W        W15285  42.905  35.572  11.345
48503W        W15286  37.508  39.428  11.009
48504W        W15287  44.288  20.419  14.584
48505W        W15288   7.127  37.122  14.617
48506W        W15289  39.442  32.305   4.207
48507W        W15290   0.354  37.828  13.977
48508W        W15291  19.418  17.883  13.883
48509W        W15292  20.524  14.130  11.170
48510W        W15293   7.710  28.063  12.604
48511W        W15294  31.317  20.439   3.254
48512W        W15295  20.167  43.404  14.236
48513W        W15296   3.563  20.937   0.223
48514W        W15297   0.210   0.258  10.707
48515W        W15298   2.139   0.764   3.029
48516W        W15299  43.412  16.285  12.812
48517W        W15300   1.304  35.214  14.725
48518W        W15301  34.690  39.882   3.322
48519W        W15302  19.703   4.906   4.473
48520W        W15303  19.552  19.182  12.156
48521W        W15304  16.470  19.494  14.340
48522W        W15305  17.740   6.381   4.506
48523W        W15306  39.057  18.709   4.713
48524W        W15307  27.037   7.288   2.935
48525W        W15308  34.152  41.931   4.575
48526W        W15309   2.128  16.963  11.974
48527W        W15310  40.334  27.918   1.865
48528W        W15311  26.163  42.995   2.318
48529W        W15312  42.839  34.120   0.404
48530W        W15313  30.260   5.065   0.101
48531W        W15314   7.434  26.047   3.575
48532W        W15315  27.014   0.805   1.696
48533W        W15316  20.468  23.739  11.649
48534W        W15317  25.504  19.114  13.931
48535W        W15318  24.071  28.739  12.539
48536W        W15319  22.160  12.817  12.393
48537W        W15320  24.987  37.334  11.618
48538W        W15321  29.704  15.474  12.151
48539W        W15322  16.853  35.088  13.852
48540W        W15323  18.192  12.632   4.640
48541W        W15324  15.365  38.951   2.329
48542W        W15325  11.878   6.744  10.255
48543W        W15326   7.239  10.228  12.786
48544W        W15327  17.566  38.912  11.353
48545W        W15328  40.103  18.725   0.953
48546W        W15329  27.474   7.700  12.171
48547W        W15330  31.437  13.573   3.108
48548W        W15331   9.947  36.488   0.497
48549W        W15332   4.397   6.120  14.483
48550W        W15333  23.336   6.218   2.326
48551W        W15334  28.655  30.389   0.743
48552W        W15335  17.134  31.385  14.072
48553W        W15336   9.857  42.270   3.221
48554W        W15337  15.150  19.017  13.381
48555W        W15338   8.439  10.172   4.372
48556W        W15339  37.030  14.599   3.374
48557W        W15340  37.489  18.543  11.101
48558W        W15341   9.706  21.107   0.073
48559W        W15342  10.919  10.932  11.387
48560W        W15343   8.611  33.272  13.519
48561W        W15344  23.924   4.366   2.694
48562W        W15345  19.846  30.381  10.779
48563W        W15346  34.920  16.329   0.680
48564W        W15347  20.180  40.970   0.963
48565W        W15348  23.717  41.909   1.858
48566W        W15349  11.165  33.380  11.494
48567W        W15350  16.640  24.153  10.701
48568W        W15351  35.318  17.232  12.932
48569W        W15352  44.423  12.814   0.878
48570W        W15353  15.820  23.004   1.397
48571W        W15354  41.319  29.426   2.784
48572W        W15355  41.876  38.629   0.273
48573W        W15356   8.248  17.301  14.905
48574W        W15357  23.483  44.943  14.318
48575W        W15358  24.709  40.089   2.121
48576W        W15359  24.491  37.937   0.397
48577W        W15360  31.595   3.897   0.263
48578W        W15361   1.092  34.385  14.150
48579W        W15362  12.160  25.614   2.406
48580W        W15363  31.164   9.952   2.927
48581W        W15364  21.304  40.412   2.865
48582W        W15365  42.778  41.287   1.283
48583W        W15366  21.579  27.545   3.814
48584W        W15367  23.502  19.759  11.497
48585W        W15368  32.221  15.594   1.737
48586W        W15369  17.516  36.592  13.015
48587W        W15370  32.153   3.767   3.272
48588W        W15371  43.917   2.381  14.879
48589W        W15372  19.022  26.635   4.571
48590W        W15373  13.237  23.284  14.190
48591W        W15374  23.984  43.039  14.244
48592W        W15375  35.496  25.701  12.353
48593W        W15376   6.106  27.078   1.825
48594W        W15377  38.660  28.984  13.314
48595W        W15378  38.591  30.483   2.357
48596W        W15379  14.218   3.152   2.732
48597W        W15380  15.234   9.504   2.214
48598W        W15381  26.836  35.112  14.904
48599W        W15382  22.494  10.966   3.477
48600W        W15383  18.865   0.763  12.058
48601W        W15384   0.865   3.806   4.551
48602W        W15385  15.173  41.444   3.823
48603W        W15386   3.459   6.342   1.115
48604W        W15387   4.859   5.802   3.868
48605W        W15388  15.680  32.603   3.122
48606W        W15389  22.280  32.342   0.034
48607W        W15390  32.973  41.205   0.381
48608W        W15391  42.513  44.101  11.165
48609W        W15392   8.621  33.016   2.381
48610W        W15393  19.178  36.331  12.868
48611W        W15394   5.280  19.995   3.601
48612W        W15395  22.350  43.869  11.655
48613W        W15396  21.245  37.701   1.769
48614W        W15397  40.882  43.290   4.265
48615W        W15398  30.131  18.696  14.787
48616W        W15399  32.965  41.193   2.595
48617W        W15400  18.190  19.975   2.338
48618W        W15401  40.354  21.721   4.388
48619W        W15402   3.978  24.249   1.906
48620W        W15403  20.181   1.728   0.909
48621W        W15404  27.479  41.409   2.634
48622W        W15405  17.586  11.237  11.044
48623W        W15406  38.739  28.047  12.140
48624W        W15407   7.895  41.917   0.426
48625W        W15408  30.335  24.486   0.519
48626W        W15409  17.606  38.127  13.019
48627W        W15410  36.136  35.964  14.539
48628W        W15411  11.741  16.647   1.228
48629W        W15412  38.067  41.269  10.710
48630W        W15413  16.083  14.357  10.208
48631W        W15414  43.393   9.132  12.086
48632W        W15415   3.242  13.670   0.317
48633W        W15416   8.659   8.901   0.440
48634W        W15417  21.744  30.161   2.031
48635W        W15418  36.414  17.171   4.559
48636W        W15419  41.826  30.078  11.230
48637W        W15420  34.436  39.317  11.144
48638W        W15421  10.134  32.101   4.881
48639W        W15422  29.325  37.033   3.828
48640W        W15423  21.641  26.787   2.698
48641W        W15424  17.778   2.827   3.606
48642W        W15425  31.086  15.557  15.000
48643W        W15426  43.479  43.836  13.817
48644W        W15427  34.082  44.950   3.831
48645W        W15428  37.646  42.261  11.175
48646W        W15429   8.571   2.443  13.025
48647W        W15430   3.313  29.448   1.209
48648W        W15431  32.613  28.005   3.696
48649W        W15432   8.951  36.103   3.674
48650W        W15433  24.118  21.950   3.775
48651W        W15434  36.272  12.061  11.056
48652W        W15435  18.611  39.356  14.010
48653W        W15436   3.533  15.672   4.129
48654W        W15437  29.972   3.344  12.104
48655W        W15438   9.722  38.988   2.326
48656W        W15439  12.774  36.918  14.161
48657W        W15440  34.615  35.845   4.217
48658W        W15441  12.473  35.780   0.927
48659W        W15442  19.798  31.685  12.910
48660W        W15443  28.171   9.005   2.279
48661W        W15444   5.815  14.179   0.777
48662W        W15445  33.091  36.867  12.927
48663W        W15446  37.432   8.647   0.285
48664W        W15447  10.357  38.186   2.340
48665W        W15448  16.261  40.794  14.340
48666W        W15449   8.246  41.218   1.183
48667W        W15450  19.300  37.116   4.141
48668W        W15451  10.654  34.604  12.467
48669W        W15452  42.384  18.756  12.417
48670W        W15453  34.987  40.533  10.298
48671W        W15454   6.161  15.811  11.526
48672W        W15455  32.896  17.750   4.115
48673W        W15456  30.471  28.598  10.820
48674W        W15457  35.768   5.206   2.367
48675W        W15458  19.671  17.527  12.361
48676W        W15459  41.614  34.328   1.717
48677W        W15460  14.096   9.115   2.253
48678W        W15461  11.419  43.272  13.017
48679W        W15462   4.681   4.383  13.342
48680W        W15463   8.644  40.895   1.079
48681W        W15464  22.709  32.083  13.078
48682W        W15465   3.878  26.910   2.243
48683W        W15466  21.761   4.269   0.087
48684W        W15467  11.861  35.622  11.999
48685W        W15468  28.440  32.685  13.894
48686W        W15469  24.578   8.196   1.663
48687W        W15470  29.989  13.278  10.695
48688W        W15471  16.163  31.026  11.532
48689W        W15472  14.535  28.610   2.864
48690W        W15473  13.566  16.265  10.520
48691W        W15474  32.534  42.585  11.327
48692W        W15475  32.081  17.308   0.944
48693W        W15476  29.999  21.733   9.820
48694W        W15477   6.159   7.993  11.613
48695W        W15478  33.068   4.503   1.498
48696W        W15479  42.841  16.073  11.639
48697W        W15480  41.734  41.086  11.970
48698W        W15481  12.984   8.685   0.269
48699W        W15482   9.407  29.608   3.687
48700W        W15483   6.243  31.746   0.355
48701W        W15484  25.209  18.095   1.196
48702W        W15485  41.018  40.292  14.072
48703W        W15486  36.086   3.610   2.619
48704W        W15487  19.043  34.272  13.804
48705W        W15488  44.792  22.168  12.962
48706W        W15489  42.745  11.581  11.607
48707W        W15490  17.303  38.556   1.782
48708W        W15491   6.274  33.214   0.250
48709W        W15492  11.896   4.303  12.513
48710W        W15493  39.584  15.579  12.850
48711W        W15494  30.619   7.320  12.505
48712W        W15495  28.018   4.154  10.763
48713W        W15496  42.780   9.319   2.235
48714W        W15497  43.430  12.693  13.267
48715W        W15498  44.958  23.784   0.063
48716W        W15499  21.939  31.456   0.931
48717W        W15500  38.087   0.192  11.527
48718W        W15501  20.725  29.303  10.756
48719W        W15502  21.296  22.240  14.916
48720W        W15503  44.855  43.541  10.690
48721W        W15504  14.234   0.683   4.691
48722W        W15505  30.516   3.364   3.793
48723W        W15506  22.239   0.420  10.925
48724W        W15507  13.511  32.124  11.068
48725W        W15508  20.810  37.067  10.712
48726W        W15509   7.437  28.473   4.217
48727W        W15510  27.011  10.732   2.760
48728W        W15511  38.740  36.051  13.764
48729W        W15512   4.202  17.359   0.203
48730W        W15513  22.040  29.617  14.376
48731W        W15514  44.438  36.979   2.662
48732W        W15515  26.709   4.656  14.569
48733W        W15516  10.448   8.157  11.588
48734W        W15517  33.519  25.770   0.223
48735W        W15518   1.716  39.888  13.221
48736W        W15519  17.144  30.829  11.418
48737W        W15520   0.243   5.954  14.490
48738W        W15521   4.546  31.571  11.143
48739W        W15522  13.056  40.558  11.648
48740W        W15523  24.132  26.442  13.549
48741W        W15524   4.297  34.934  11.537
48742W        W15525  34.977  26.764  14.814
48743W        W15526  12.396  24.356  10.771
48744W        W15527  43.862  15.780  11.332
48745W        W15528  20.693  17.277   3.475
48746W        W15529  29.118   0.220  11.117
48747W        W15530  30.079   9.322   4.630
48748W        W15531  43.820  33.989   1.720
48749W        W15532  17.233   3.761  10.695
48750W        W15533  40.482   0.971  13.332
48751W        W15534  39.590  12.794   0.419
48752W        W15535  11.422  34.828   2.297
48753W        W15536  35.095  16.313  11.005
48754W        W15537  13.622  36.765  14.950
48755W        W15538  35.624  12.160   1.865
48756W        W15539  44.293   0.661  11.501
48757W        W15540  33.784  42.855  12.591
48758W        W15541  33.437  33.093   0.699
48759W        W15542  41.423  23.521   3.112
48760W        W15543  14.259  16.594  11.447
48761W        W15544  34.775  38.621  12.474
48762W        W15545   9.342  34.014  12.044
48763W        W15546   9.833  25.045   0.094
48764W        W15547  42.533  42.563   4.063
48765W        W15548  33.331  40.088  14.274
48766W        W15549  16.321  36.308  11.545
48767W        W15550  13.239  24.708   2.410
48768W        W15551   9.650  28.576  13.938
48769W        W15552  13.103  16.683   3.675
48770W        W15553  19.235  34.783  13.169
48771W        W15554  11.566  33.466   2.964
48772W        W15555  31.522   0.388   0.207
48773W        W15556  34.794   7.822  13.711
48774W        W15557  33.042  40.393   3.750
48775W        W15558  15.027  43.862   2.270
48776W        W15559   0.134   8.706   0.557
48777W        W15560  33.222  25.073  11.840
48778W        W15561  39.875  13.295   3.563
48779W        W15562  44.749   2.470   2.811
48780W        W15563   2.422  22.795  10.771
48781W        W15564  34.995   0.004   4.787
48782W        W15565  19.675  19.431   4.442
48783W        W15566  44.697   1.269   3.206
48784W        W15567   1.271  44.181  12.628
48785W        W15568  37.960  30.195   0.464
48786W        W15569  26.947  35.563  13.409
48787W        W15570  30.614  14.484  12.030
48788W        W15571  32.536   9.638  14.129
48789W        W15572  24.236  10.387   1.678
48790W        W15573  36.079  14.194  11.752
48791W        W15574  44.054  14.821  10.464
48792W        W15575  12.396  43.805  14.313
48793W        W15576  21.094  24.255   4.089
48794W        W15577   8.826  22.656  12.985
48795W        W15578  28.607  26.036   3.278
48796W        W15579  28.811  11.118   1.926
48797W        W15580   4.179  28.191   3.330
48798W        W15581  24.999  12.329   0.243
48799W        W15582  44.710   4.891   0.688
48800W        W15583  35.906  37.328  14.754
48801W        W15584  21.021   7.403  12.446
48802W        W15585   5.358   7.172  10.660
48803W        W15586   6.001  15.743   2.625
48804W        W15587  41.386  31.177   4.371
48805W        W15588   6.453  36.410   0.019
48806W        W15589  32.185  26.050  11.638
48807W        W15590   9.766  38.982  13.382
48808W        W15591  21.092  26.451   2.599
48809W        W15592   9.247   9.821   4.284
48810W        W15593  28.956  23.493  12.627
48811W        W15594  30.973  23.753  14.685
48812W        W15595  23.302  14.846   2.580
48813W        W15596   7.973  19.654   3.676
48814W        W15597  40.093  12.089  11.234
48815W        W15598  33.367  28.121   0.323
48816W        W15599  27.562  17.361   2.311
48817W        W15600   8.687  31.572  14.049
48818W        W15601  34.116  37.631   4.016
48819W        W15602  29.177  20.658   1.754
48820W        W15603   9.531  38.049  14.555
48821W        W15604  31.349  16.366   2.795
48822W        W15605  37.534  18.076  12.666
48823W        W15606  21.760  20.703  11.336
48824W        W15607   5.763  44.531  13.943
48825W        W15608  38.388  35.080  14.352
48826W        W15609  42.529  14.249  14.730
48827W        W15610  12.948  27.400   2.809
48828W        W15611  32.536  38.034   2.407
48829W        W15612  16.947  13.206  12.104
48830W        W15613  30.895  19.218   1.013
48831W        W15614  39.314   4.838  14.044
48832W        W15615  30.572  39.941   0.620
48833W        W15616   9.601  27.123  10.821
48834W        W15617   0.265  28.955  12.309
48835W        W15618  17.988  30.057   1.591
48836W        W15619  21.484  26.480   3.548
48837W        W15620  25.951  26.937  14.322
48838W        W15621  41.011  37.629  13.093
48839W        W15622  13.663   2.242  10.701
48840W        W15623  37.185  10.322   1.244
48841W        W15624  34.541  23.632   3.749
48842W        W15625  35.916  14.258   1.085
48843W        W15626  31.200  41.011   0.380
48844W        W15627  30.639   5.927   3.610
48845W        W15628  26.474  31.281   4.145
48846W        W15629  31.674  14.126   3.690
48847W        W15630  14.020  44.625  11.460
48848W        W15631  22.138  10.342   0.748
48849W        W15632  18.786  44.353  10.996
48850W        W15633  10.325   5.781   1.419
48851W        W15634   8.182  32.458   4.549
48852W        W15635   1.544  13.125  12.021
48853W        W15636  21.319  39.118   0.898
48854W        W15637  19.023  43.472  10.684
48855W        W15638  10.148  20.141   0.968
48856W        W15639   5.970  25.966  12.364
48857W        W15640  40.033   5.659   3.113
48858W        W15641  34.590  19.470   9.519
48859W        W15642  18.763   8.172  13.388
48860W        W15643  20.594  30.852  10.842
48861W        W15644  28.229  13.908  11.008
48862W        W15645  13.377  39.893  13.390
48863W        W15646  15.782   5.545  12.716
48864W        W15647  41.508  28.362   2.798
48865W        W15648  30.575  30.638   2.688
48866W        W15649   1.273  34.581   3.416
48867W        W15650  22.180  42.573  14.675
48868W        W15651   0.264  44.303   0.857
48869W        W15652  34.912  40.293   2.406
48870W        W15653   4.641   8.125  13.935
48871W        W15654   5.209  16.750   1.898
48872W        W15655  35.437   3.518   4.215
48873W        W15656  23.044  33.589  10.711
48874W        W15657  20.580  13.325  14.448
48875W        W15658  44.990   9.288  10.782
48876W        W15659  42.409  43.938   0.784
48877W        W15660  25.486  26.505   0.466
48878W        W15661   6.055  35.779  10.485
48879W        W15662  17.536   8.211   4.610
48880W        W15663  13.651  44.941   0.825
48881W        W15664  44.266   9.242   3.622
48882W        W15665  38.910   3.803  11.380
48883W        W15666   5.403  18.281  10.811
48884W        W15667  12.618  21.124   0.499
48885W        W15668   9.725   2.549  14.442
48886W        W15669   3.343  40.757  13.325
48887W        W15670  14.072  19.759  12.874
48888W        W15671  22.045  38.865   4.627
48889W        W15672  19.444  17.099  12.595
48890W        W15673  12.460  17.157  11.057
48891W        W15674  31.550  25.017  10.809
48892W        W15675  22.225  13.177   0.352
48893W        W15676  33.133  28.187   4.685
48894W        W15677  19.204  27.155   4.580
48895W        W15678  11.018  35.648   2.289
48896W        W15679  29.186  27.222   1.352
48897W        W15680  21.706  26.286  12.937
48898W        W15681  39.658  39.414   4.929
48899W        W15682  37.847  42.327   1.655
48900W        W15683  22.548  13.223  11.781
48901W        W15684  22.136  17.289   0.981
48902W        W15685  17.217  17.671  13.442
48903W        W15686  20.548  41.496   4.190
48904W        W15687  24.531  32.784   1.222
48905W        W15688   3.247  41.397   3.336
48906W        W15689  17.037  26.548  14.110
48907W        W15690  21.107   3.926   0.461
48908W        W15691   1.790  10.826  11.082
48909W        W15692  16.703  39.845   1.856
48910W        W15693  12.375   9.794   2.559
48911W        W15694  27.928  32.684   4.274
48912W        W15695  28.460   5.248  13.828
48913W        W15696   7.402   3.478  12.160
48914W        W15697  20.949   4.345   1.957
48915W        W15698  33.961  17.644  11.587
48916W        W15699  34.117  32.412   1.363
48917W        W15700   7.611  24.656   4.156
48918W        W15701  16.798  31.639   3.282
48919W        W15702  14.999  35.860   1.361
48920W        W15703  17.119   4.318   0.915
48921W        W15704  23.037  32.970   4.102
48922W        W15705   5.940   4.814   4.315
48923W        W15706  12.843   4.176   0.302
48924W        W15707  32.029   3.212  11.535
48925W        W15708  22.959  42.427   0.324
48926W        W15709  37.822  28.192  14.761
48927W        W15710  43.325  35.596   3.361
48928W        W15711  29.989  43.417  11.752
48929W        W15712  43.750  44.242   2.848
48930W        W15713  27.427  32.484  14.796
48931W        W15714  12.537  34.380   2.663
48932W        W15715  36.142   9.239   0.261
48933W        W15716  17.181   2.672  13.792
48934W        W15717  30.951  10.725   3.585
48935W        W15718  28.932  22.698   2.843
48936W        W15719  29.824  17.915   1.271
48937W        W15720  32.074   7.326  12.615
48938W        W15721  42.454  40.086   3.102
48939W        W15722  17.219  25.628   4.292
48940W        W15723  17.313  31.865  11.690
48941W        W15724  37.139  15.136   0.500
48942W        W15725  22.651   1.549   9.835
48943W        W15726   2.098  33.843  11.947
48944W        W15727   7.591  36.890   0.456
48945W        W15728  39.815  10.113   4.245
48946W        W15729  12.799  11.909  11.842
48947W        W15730  33.472  12.364  12.901
48948W        W15731  12.162   4.375   1.228
48949W        W15732  18.260   5.829  12.630
48950W        W15733  31.599  27.408   2.320
48951W        W15734  16.646  10.361  13.839
48952W        W15735  23.179   2.280  13.645
48953W        W15736   6.714  32.585   3.724
48954W        W15737  34.853  18.233   0.025
48955W        W15738  42.919  36.671  10.542
48956W        W15739   5.876  42.703   3.786
48957W        W15740  27.196  39.518   3.913
48958W        W15741  29.738  44.823  12.208
48959W        W15742  22.913  17.748  10.783
48960W        W15743  35.528  25.985  11.922
48961W        W15744  38.383  10.270  13.850
48962W        W15745  36.489  24.663   1.541
48963W        W15746   1.621  40.913   3.591
48964W        W15747   1.811  11.897   2.549
48965W        W15748  40.918  24.229   2.422
48966W        W15749  30.553  25.768  11.660
48967W        W15750   4.998  21.731  14.447
48968W        W15751   0.725   4.612   2.228
48969W        W15752   0.026  17.927  13.799
48970W        W15753  33.479   2.419  14.080
48971W        W15754  39.967  18.140   1.929
48972W        W15755  19.092  13.204  11.427
48973W        W15756   0.029  32.978   3.161
48974W        W15757  42.313  13.773  14.794
48975W        W15758  16.777  37.480  12.213
48976W        W15759  10.455   3.706   2.375
48977W        W15760   1.046   9.672  10.584
48978W        W15761  13.968  17.327   4.067
48979W        W15762  12.664   7.309   2.546
48980W        W15763  14.665   3.931  14.288
48981W        W15764  21.465  11.232   0.933
48982W        W15765  13.250  34.915   2.889
48983W        W15766  10.902  13.207  13.782
48984W        W15767  22.768  35.184   0.804
48985W        W15768  23.922  37.901  12.512
48986W        W15769   4.232  35.414   1.776
48987W        W15770  32.974  26.155  14.228
48988W        W15771  43.847  43.291  14.448
48989W        W15772  34.922  19.418  14.402
48990W        W15773  26.787  23.516   3.301
48991W        W15774   4.056  20.224   2.340
48992W        W15775  29.134  33.709  13.483
48993W        W15776  19.035  19.636   1.299
48994W        W15777  20.023  20.233   4.624
48995W        W15778   0.263  35.688  13.372
48996W        W15779  11.853  24.684   0.381
48997W        W15780   1.754   1.487   2.234
48998W        W15781  42.958  19.959   4.308
48999W        W15782  32.753  29.013   0.380
49000W        W15783  41.251   7.470   9.814
49001W        W15784  32.224   2.055   1.101
49002W        W15785  20.066  23.316  11.655
49003W        W15786  31.963  29.634   1.753
49004W        W15787  32.646   3.969  12.812
49005W        W15788  44.854  41.313  13.791
49006W        W15789  14.607  16.913  13.669
49007W        W15790  16.530  11.219   4.388
49008W        W15791  29.928  43.779  14.770
49009W        W15792   1.432   8.240  10.678
49010W        W15793  27.601  21.130   3.030
49011W        W15794  23.086  33.610   0.400
49012W        W15795  43.951  11.080  10.184
49013W        W15796  19.964   2.047  13.897
49014W        W15797   4.094   9.402  11.083
49015W        W15798  13.787  22.218  14.021
49016W        W15799  26.753   2.699   3.705
49017W        W15800  20.260  13.208   1.991
49018W        W15801  31.812  42.083  14.796
49019W        W15802  25.421  38.420   4.934
49020W        W15803   6.756  32.338   3.284
49021W        W15804   4.746   5.981  11.298
49022W        W15805  14.500  36.065  10.337
49023W        W15806  23.700  15.579  11.602
49024W        W15807  20.357  11.346  11.088
49025W        W15808  19.128  30.962   0.453
49026W        W15809   7.677   0.443   1.156
49027W        W15810   5.480  14.618  12.219
49028W        W15811  14.834  19.743   4.959
49029W        W15812  40.398  34.937   4.578
49030W        W15813  23.237   8.193  13.847
49031W        W15814  42.025  26.434   1.175
49032W        W15815  29.113   8.145  10.785
49033W        W15816  44.353  17.243   2.326
49034W        W15817  11.826  12.990  12.365
49035W        W15818  22.571  41.002  13.219
49036W        W15819   9.224  36.016  14.929
49037W        W15820  31.579   1.908  12.807
49038W        W15821  28.557  32.095   3.258
49039W        W15822  41.455  26.941  13.487
49040W        W15823  19.015  12.080   1.881
49041W        W15824  41.616  12.325  11.833
49042W        W15825  31.452  26.548  13.412
49043W        W15826  30.584  28.252  11.198
49044W        W15827  18.815   0.923   0.739
49045W        W15828  10.901  10.119   3.491
49046W        W15829  40.361  12.543   4.683
49047W        W15830  38.345   9.417   4.769
49048W        W15831   9.296   1.448   3.202
49049W        W15832  40.855   6.901   3.597
49050W        W15833  35.667  22.997  11.012
49051W        W15834  42.939   6.267  13.944
49052W        W15835  26.413  16.250  13.767
49053W        W15836  41.863  31.580   0.119
49054W        W15837  13.410  41.307   1.954
49055W        W15838  24.581  33.150  11.428
49056W        W15839  33.585   6.104   5.287
49057W        W15840  15.127  23.080   4.636
49058W        W15841  11.697  20.527   4.114
49059W        W15842  26.045  34.677   4.415
49060W        W15843  21.874  26.259   4.613
49061W        W15844   7.163  15.122   3.769
49062W        W15845   0.589   6.039   0.859
49063W        W15846   4.351  23.130  13.262
49064W        W15847  44.141  30.172   1.109
49065W        W15848  28.199  33.335  12.607
49066W        W15849  35.359  28.940   0.755
49067W        W15850  14.014   1.935   1.885
49068W        W15851  25.416  39.105  13.388
49069W        W15852  24.732   6.886  11.992
49070W        W15853   3.252  39.127  14.956
49071W        W15854   9.438  37.446   2.835
49072W        W15855  12.168  33.579  14.888
49073W        W15856  42.790  15.408   2.329
49074W        W15857  20.878  15.858   0.337
49075W        W15858  15.907  21.442  10.414
49076W        W15859  37.573  29.550   3.143
49077W        W15860  30.946  42.782  11.636
49078W        W15861  34.933  28.840   4.399
49079W        W15862   2.395  39.316  12.478
49080W        W15863  13.629  22.917  14.876
49081W        W15864  38.807   6.413   3.677
49082W        W15865  18.094  23.273  13.817
49083W        W15866   5.659  40.377   1.677
49084W        W15867  28.403   7.904  12.453
49085W        W15868  18.800   7.323  10.303
49086W        W15869  41.279   7.863  12.646
49087W        W15870  23.614  16.733   3.131
49088W        W15871  18.189  30.608  14.065
49089W        W15872   5.759   8.838   0.793
49090W        W15873  10.412   6.540  14.306
49091W        W15874  42.814  26.102   3.411
49092W        W15875  10.631  16.380  12.483
49093W        W15876  32.806   0.979  14.271
49094W        W15877  17.049  13.235   3.646
49095W        W15878  23.209  18.984   0.454
49096W        W15879  31.330  44.357   2.972
49097W        W15880  28.111  39.361   0.026
49098W        W15881  23.889   4.459  13.855
49099W        W15882  31.532   7.389   3.093
49100W        W15883  39.428  19.334  10.839
49101W        W15884  42.105  32.494  14.076
49102W        W15885  33.035  33.920   3.290
49103W        W15886  34.294  16.623   4.824
49104W        W15887  42.110  23.659   1.240
49105W        W15888  28.458  23.427   4.829
49106W        W15889   2.257  21.943   3.258
49107W        W15890  28.591  26.558  11.193
49108W        W15891  32.494  36.432   1.013
49109W        W15892  22.100   8.817  11.581
49110W        W15893  30.634  24.603  13.307
49111W        W15894  42.264   1.443   2.243
49112W        W15895   1.976  42.925   3.601
49113W        W15896  42.047  44.191  14.459
49114W        W15897  34.559   9.861  11.158
49115W        W15898  36.944   8.374  14.021
49116W        W15899  38.727   6.847   0.471
49117W        W15900  28.400  23.265   1.301
49118W        W15901  35.025   7.167   2.788
49119W        W15902  41.480  32.619  12.364
49120W        W15903  35.500  40.718  14.994
49121W        W15904  33.042  23.015   4.145
49122W        W15905  24.651   8.707  13.499
49123W        W15906  40.860  34.965  10.788
49124W        W15907  33.313  28.602  13.460
49125W        W15908  40.874  14.154   1.788
49126W        W15909  26.357   8.608   1.356
49127W        W15910  40.815  25.636  14.494
49128W        W15911   9.269  17.929   2.955
49129W        W15912  19.692   6.078  11.057
49130W        W15913   0.019   6.857   2.304
49131W        W15914  17.025  21.984  11.980
49132W        W15915   6.742  24.957  11.595
49133W        W15916  18.925   6.883  11.893
49134W        W15917  21.943  39.299   3.292
49135W        W15918  12.675  39.863   3.531
49136W        W15919  19.708  41.602  11.587
49137W        W15920   2.257  23.461  13.436
49138W        W15921  42.035   2.805  13.419
49139W        W15922  41.496  15.297   4.972
49140W        W15923  33.809  17.575  12.924
49141W        W15924   9.017  23.797  10.654
49142W        W15925  32.983  27.636   4.629
49143W        W15926  26.972   8.345  11.171
49144W        W15927  20.046   8.061  11.747
49145W        W15928   5.252  24.948   2.860
49146W        W15929  10.162  32.099  10.152
49147W        W15930  34.353  22.894   3.300
49148W        W15931  12.259  10.561  14.309
49149W        W15932  32.956  42.393   4.667
49150W        W15933   2.091  17.369   4.382
49151W        W15934  41.937  32.552   3.607
49152W        W15935  28.438   2.285  12.173
49153W        W15936  42.471  33.404  14.770
49154W        W15937  21.728  36.566   3.566
49155W        W15938   9.437  38.884  12.928
49156W        W15939  12.571  44.535  11.386
49157W        W15940  19.176   6.204   3.261
49158W        W15941  37.572   1.023   4.173
49159W        W15942  29.637  30.020   1.392
49160W        W15943   9.171   0.456   3.287
49161W        W15944  13.735  42.335   3.792
49162W        W15945  33.024  26.277  10.650
49163W        W15946  39.430  18.175  14.061
49164W        W15947  29.542  32.453   0.645
49165W        W15948  22.780  30.570  10.625
49166W        W15949  21.669  22.317  12.579
49167W        W15950  28.503  39.706  11.779
49168W        W15951  30.834  15.641   5.048
49169W        W15952  22.575  12.061  10.920
49170W        W15953   5.445   6.889  14.744
49171W        W15954   2.512  14.881  12.021
49172W        W15955  31.586  25.546  14.212
49173W        W15956  23.775  10.185  12.202
49174W        W15957   8.293   5.373  11.389
49175W        W15958  30.094  27.462  13.881
49176W        W15959  29.732  16.270  13.828
49177W        W15960   7.829   2.539  10.761
49178W        W15961  38.938   8.466   3.729
49179W        W15962   8.135  29.383   2.204
49180W        W15963  43.542  28.622  11.109
49181W        W15964  39.811  12.276  11.627
49182W        W15965  16.774   0.901  13.615
49183W        W15966  15.650  27.670   4.152
49184W        W15967   2.210  24.864  11.674
49185W        W15968  16.462  11.106  12.465
49186W        W15969  26.882  20.774   4.227
49187W        W15970  27.006  18.640  12.708
49188W        W15971   3.318  42.018   1.705
49189W        W15972  10.616  14.550  10.635
49190W        W15973  34.652  27.676  14.366
49191W        W15974  17.899  14.679   0.800
49192W        W15975  44.235  14.092  11.983
49193W        W15976   3.841  26.012   3.672
49194W        W15977  25.970  31.434   3.642
49195W        W15978  34.299   5.722  13.069
49196W        W15979  15.996  12.706   0.466
49197W        W15980   6.123  22.371   5.124
49198W        W15981  14.000   1.021   1.718
49199W        W15982  12.826  40.423  10.724
49200W        W15983  18.637  35.138  13.897
49201W        W15984  33.360  37.798   1.925
49202W        W15985   7.576  30.572  14.895
49203W        W15986  26.709  15.375  14.474
49204W        W15987  13.276  43.841  14.606
49205W        W15988  12.137  30.475   0.733
49206W        W15989   4.874  28.225  11.719
49207W        W15990  37.794  31.430  11.431
49208W        W15991  30.470  25.400  14.806
49209W        W15992  21.544   0.965  12.981
49210W        W15993   1.615   7.409   9.592
49211W        W15994  10.330  17.315  12.865
49212W        W15995  14.490  15.236   4.398
49213W        W15996  37.234   9.451   1.433
49214W        W15997  38.471  11.656   4.371
49215W        W15998  18.438  36.504  11.854
49216W        W15999  15.249   0.443   0.292
49217W        W16000  37.644  26.057  10.998
49218W        W16001   7.139  30.880   3.678
49219W        W16002  25.949  10.805  11.151
49220W        W16003   4.164  14.214   4.194
49221W        W16004  26.781  24.909  13.724
49222W        W16005   3.887  35.463  14.013
49223W        W16006  25.071   8.214  12.107
49224W        W16007   6.144   3.854  11.102
49225W        W16008  31.884   9.761  12.992
49226W        W16009   0.374  14.622   4.090
49227W        W16010  10.122  25.558   0.778
49228W        W16011   9.282  19.836  12.904
49229W        W16012  36.379   3.723   4.580
49230W        W16013  13.047  27.463  12.095
49231W        W16014  37.250  41.496  13.921
49232W        W16015   9.679   7.400  13.405
49233W        W16016  19.028  20.480  12.487
49234W        W16017  41.847  17.199  11.395
49235W        W16018   4.687  35.907   0.353
49236W        W16019  17.178  42.430   4.270
49237W        W16020  14.060  37.682  12.989
49238W        W16021  24.640  37.514   4.501
49239W        W16022  15.029  41.815  11.425
49240W        W16023  30.914   9.189  14.955
49241W        W16024  27.430  20.959  13.146
49242W        W16025   9.005   8.904   4.306
49243W        W16026   7.844  24.257  11.148
49244W        W16027  11.096  23.103  11.131
49245W        W16028  10.070  39.866   3.899
49246W        W16029  25.979  30.045  13.399
49247W        W16030  27.559  11.766   0.450
49248W        W16031  22.003  11.430   2.751
49249W        W16032   7.222  17.713  11.572
49250W        W16033  36.588  26.035   2.961
49251W        W16034  42.719  23.147  12.992
49252W        W16035  10.739  13.787  13.987
49253W        W16036  16.564  27.030  12.570
49254W        W16037  34.635  13.533  14.007
49255W        W16038  12.967  17.989   3.272
49256W        W16039   1.155  42.376  12.332
49257W        W16040  28.310  17.555  11.874
49258W        W16041   8.892  16.084   0.170
49259W        W16042  12.166   1.018   2.143
49260W        W16043  22.205   8.968   2.238
49261W        W16044  11.107  32.986   0.396
49262W        W16045  13.905   5.438  11.627
49263W        W16046  20.196  43.933  13.061
49264W        W16047  37.408  12.272  14.353
49265W        W16048   6.176  39.596   1.205
49266W        W16049  38.611  13.176  12.535
49267W        W16050   5.000   0.930   0.398
49268W        W16051  15.293  36.463   3.547
49269W        W16052  25.630   3.048   4.594
49270W        W16053  32.619  32.584   2.693
49271W        W16054  13.195  13.722   2.692
49272W        W16055  17.702  32.586   0.721
49273W        W16056  37.963  29.097   2.590
49274W        W16057  44.909  20.304   2.351
49275W        W16058  30.656  37.309   1.377
49276W        W16059   0.719  41.825  14.642
49277W        W16060  25.559  35.648   3.340
49278W        W16061  40.870  31.618   2.173
49279W        W16062   4.144  30.297  14.918
49280W        W16063  12.561  31.653   3.730
49281W        W16064  20.694  15.614  12.476
49282W        W16065  41.411  11.675  14.673
49283W        W16066  29.218   6.231   3.701
49284W        W16067  43.954   0.389  13.368
49285W        W16068  28.439  25.671   4.525
49286W        W16069   2.560  38.860  11.589
49287W        W16070   3.183  28.767   4.467
49288W        W16071  14.753  12.756  12.569
49289W        W16072   5.286  18.278   0.003
49290W        W16073  17.872  31.888   4.166
49291W        W16074   0.549   6.412   1.662
49292W        W16075  27.886   7.441  11.999
49293W        W16076   8.263  27.547   3.079
49294W        W16077   3.625  30.693  14.243
49295W        W16078  15.708  16.634  11.029
49296W        W16079  42.538  21.779  11.945
49297W        W16080   0.437  42.890   0.715
49298W        W16081  26.703  20.611  10.310
49299W        W16082  38.397  38.931  14.540
49300W        W16083  36.908  11.756   3.652
49301W        W16084  14.724  44.816   4.645
49302W        W16085  25.639   6.897  12.078
49303W        W16086   3.772  14.416  14.944
49304W        W16087   2.349   1.848   1.506
49305W        W16088   7.335  20.053   2.960
49306W        W16089   3.845  43.696  11.622
49307W        W16090  17.117  12.325   1.843
49308W        W16091  43.417  30.409  14.359
49309W        W16092  32.440  42.785   2.166
49310W        W16093  37.864  25.206   4.593
49311W        W16094  15.300  17.576   4.565
49312W        W16095  42.061  28.420  11.963
49313W        W16096  25.624  13.574   4.439
49314W        W16097   0.793  19.185   1.226
49315W        W16098  20.541  31.200  14.021
49316W        W16099  35.627  44.863  12.492
49317W        W16100   6.611  12.805   1.702
49318W        W16101  32.708  28.160   1.117
49319W        W16102  13.300   1.498  12.850
49320W        W16103  36.333  33.508   2.313
49321W        W16104  10.204  37.001   3.611
49322W        W16105   5.798   4.883   3.309
49323W        W16106   8.080   5.931   3.378
49324W        W16107   1.844  11.847   1.155
49325W        W16108  34.907   6.222  10.675
49326W        W16109  17.253  26.471   4.971
49327W        W16110  44.366  22.600   1.453
49328W        W16111  32.560  14.628  14.286
49329W        W16112   9.172  33.505   1.438
49330W        W16113  10.856  33.424   3.843
49331W        W16114   7.202  21.961  13.985
49332W        W16115   1.085  18.268  13.031
49333W        W16116  29.166   4.806  13.792
49334W        W16117  43.145  16.190  14.518
49335W        W16118  32.081  36.267   4.036
49336W        W16119  14.790  19.566   0.227
49337W        W16120  32.265  17.674  12.437
49338W        W16121   5.053  14.788  11.296
49339W        W16122  43.717  31.948   2.314
49340W        W16123  19.214  42.719   0.896
49341W        W16124   9.877  13.437  11.612
49342W        W16125  31.430  25.874  11.212
49343W        W16126  37.505  36.286   5.032
49344W        W16127  42.778  40.912  10.727
49345W        W16128   4.486  17.489  14.281
49346W        W16129  19.257  43.049  12.114
49347W        W16130  41.809  12.233   1.926
49348W        W16131  41.002   1.918   3.379
49349W        W16132  40.899  33.546  14.990
49350W        W16133  14.678  20.996   1.383
49351W        W16134  13.326  33.479  14.460
49352W        W16135   8.892  35.646  14.121
49353W        W16136  11.174  40.995  14.787
49354W        W16137  35.927  36.401  10.641
49355W        W16138  12.070  18.107  10.843
49356W        W16139   6.652   9.049  11.026
49357W        W16140  39.521  18.526  14.555
49358W        W16141   8.858  31.614   3.053
49359W        W16142   9.611  37.424  14.865
49360W        W16143  40.110  13.061   0.693
49361W        W16144  41.663  25.183  12.224
49362W        W16145  25.767  37.994   5.099
49363W        W16146  15.687  26.030  12.530
49364W        W16147  20.044   0.336   1.773
49365W        W16148  10.794  23.679   3.804
49366W        W16149  35.356  31.113  13.882
49367W        W16150  11.959  20.747   1.056
49368W        W16151  27.191  28.129   5.055
49369W        W16152  14.175  21.756  14.867
49370W        W16153  39.821  44.049  12.498
49371W        W16154   0.442   5.891   3.341
49372W        W16155   0.088  13.712   1.581
49373W        W16156  18.726   6.701  14.307
49374W        W16157   8.138  31.687  11.903
49375W        W16158   9.762  24.761   3.212
49376W        W16159  42.054  10.301   0.866
49377W        W16160  15.358   0.425   2.914
49378W        W16161  35.925  25.131  13.145
49379W        W16162  25.651  33.090  12.145
49380W        W16163  12.745   7.093   3.536
49381W        W16164  17.333   2.987   0.285
49382W        W16165  29.106  37.331  12.988
49383W        W16166  20.564   1.477  14.300
49384W        W16167  41.107  16.707  13.821
49385W        W16168  31.873   2.889  14.755
49386W        W16169  12.887  35.307   2.133
49387W        W16170   8.885  34.327  12.003
49388W        W16171  36.434  14.558  10.617
49389W        W16172  39.531  24.399   3.851
49390W        W16173  40.595  38.329  11.987
49391W        W16174  22.316  44.212   1.673
49392W        W16175  43.071  12.770  11.529
49393W        W16176  41.749  34.348   4.240
49394W        W16177  19.764  43.836   1.253
49395W        W16178  43.051  20.855   5.026
49396W        W16179   8.001  41.916   2.313
49397W        W16180   5.423  21.071   0.534
49398W        W16181  19.745   6.591  11.152
49399W        W16182  11.224  17.716   4.586
49400W        W16183   3.781  33.827  14.905
49401W        W16184  40.518   7.912   3.322
49402W        W16185  25.669  21.100  14.713
49403W        W16186  14.256   7.934   2.511
49404W        W16187  42.752   0.736  11.530
49405W        W16188   1.923  15.313  10.618
49406W        W16189  24.789   3.804   3.574
49407W        W16190   8.858  43.903   1.820
49408W        W16191  32.388   7.393  11.200
49409W        W16192  25.963  16.110   4.200
49410W        W16193  27.676  41.587  12.337
49411W        W16194  44.244  44.969   3.160
49412W        W16195  28.541  26.582   3.928
49413W        W16196  44.523  30.942   3.816
49414W        W16197   0.388  30.210  13.580
49415W        W16198  39.470  30.451   2.969
49416W        W16199  19.528  22.234  13.913
49417W        W16200  23.577   5.572  13.604
49418W        W16201  42.760  44.019   1.168
49419W        W16202  13.246  11.658   4.517
49420W        W16203  19.124  19.480  14.036
49421W        W16204  43.840  10.345  12.014
49422W        W16205  24.699  32.848  14.316
49423W        W16206  33.302  21.825   5.673
49424W        W16207  15.678   1.971  10.944
49425W        W16208   6.773   9.869   3.047
49426W        W16209  37.840  23.841  12.410
49427W        W16210   0.964  15.862   1.278
49428W        W16211   0.278   3.699   2.281
49429W        W16212  12.266  13.123   2.746
49430W        W16213   3.140   3.882  13.314
49431W        W16214  27.126  31.505   2.338
49432W        W16215   5.385  43.956  11.577
49433W        W16216   7.696  38.762   2.859
49434W        W16217  16.625  24.111   4.712
49435W        W16218  36.056  17.675   3.877
49436W        W16219  21.438  21.502  14.870
49437W        W16220  33.305  10.860  11.528
49438W        W16221  25.240  43.991   3.849
49439W        W16222  39.548  10.794   1.279
49440W        W16223  18.169  41.178   0.719
49441W        W16224  27.554  18.518  13.404
49442W        W16225  20.744   0.236  10.842
49443W        W16226  42.458   3.449   2.703
49444W        W16227  19.013  19.167   5.015
49445W        W16228  11.204  10.042   4.087
49446W        W16229  23.757  29.456   3.243
49447W        W16230  43.989   4.225   4.801
49448W        W16231  21.552   5.421   1.268
49449W        W16232  19.504   7.655  11.243
49450W        W16233  18.371  21.518   4.094
49451W        W16234   9.778   7.187   5.609
49452W        W16235  14.226   3.258  10.057
49453W        W16236  27.571   6.699  14.810
49454W        W16237  30.450  29.567  13.023
49455W        W16238   8.830  23.205   3.543
49456W        W16239  43.953   5.187  12.971
49457W        W16240  32.461  18.139  12.272
49458W        W16241  28.893  28.920  14.896
49459W        W16242  25.870  26.904  12.023
49460W        W16243  43.412  18.801  11.065
49461W        W16244  22.341  34.406   4.095
49462W        W16245  26.081  36.430  11.277
49463W        W16246  37.132   6.313   4.564
49464W        W16247  35.894   8.985  11.158
49465W        W16248  40.913  27.198   4.800
49466W        W16249  41.615  10.298  13.867
49467W        W16250  27.193  40.128   0.200
49468W        W16251   9.700  20.112  12.734
49469W        W16252  21.071  31.499   1.431
49470W        W16253  29.054  15.482  12.870
49471W        W16254  34.071   9.628  11.197
49472W        W16255  27.601  12.675  12.046
49473W        W16256   7.413  25.078   4.914
49474W        W16257  28.077  16.326   4.718
49475W        W16258  21.804   3.917   1.867
49476W        W16259  30.463  36.502  12.604
49477W        W16260  18.194  29.610  11.191
49478W        W16261  25.262  30.578  11.913
49479W        W16262   4.855  24.900   4.560
49480W        W16263   1.722  44.013   2.781
49481W        W16264  39.208   2.442   2.832
49482W        W16265  31.850  42.065  12.886
49483W        W16266  14.181  19.289  14.572
49484W        W16267   8.727  11.524   3.187
49485W        W16268   6.166  33.570  13.370
49486W        W16269   6.360  25.708   1.326
49487W        W16270  16.070  43.287   4.606
49488W        W16271  22.066  40.124   1.247
49489W        W16272   7.378  29.793   2.648
49490W        W16273  15.368  13.881  14.922
49491W        W16274  29.058  38.540   2.196
49492W        W16275  15.130   3.826  12.114
49493W        W16276  31.531  10.968   0.609
49494W        W16277   4.861  11.359   3.112
49495W        W16278   8.289   0.624  14.431
49496W        W16279  32.844  36.458  11.530
49497W        W16280  40.278   8.306   3.555
49498W        W16281  33.605  40.905   0.286
49499W        W16282  22.692   4.938   2.129
49500W        W16283  28.212  31.206  11.589
49501W        W16284  40.969  26.762   4.497
49502W        W16285  34.643  33.596   0.882
49503W        W16286  23.478  44.790   3.605
49504W        W16287   6.751  13.405  14.856
49505W        W16288  14.061  43.255  13.510
49506W        W16289  25.600   1.246  14.981
49507W        W16290  19.740  27.387   0.187
49508W        W16291  25.280  13.477  12.014
49509W        W16292   5.401   0.959   2.239
49510W        W16293   3.967  17.197   4.265
49511W        W16294  39.503  20.303  12.515
49512W        W16295   0.377  40.346   1.390
49513W        W16296  37.317  15.649   1.271
49514W        W16297  44.384   4.783  14.317
49515W        W16298  13.695  15.168   4.828
49516W        W16299  42.391  12.695  12.372
49517W        W16300  24.322  41.197  13.897
49518W        W16301  16.427  15.906  14.479
49519W        W16302  13.742  40.584   4.178
49520W        W16303   9.333   3.318  14.544
49521W        W16304  17.014   3.669  13.874
49522W        W16305  15.018  33.855  11.980
49523W        W16306  20.014  36.358   2.320
49524W        W16307  37.150  38.383   1.473
49525W        W16308  21.555  18.323  12.011
49526W        W16309  22.976  16.333   4.157
49527W        W16310  37.398  16.210   3.492
49528W        W16311  20.111  20.537  10.750
49529W        W16312  25.558  44.492   1.801
49530W        W16313  39.994  44.519   2.722
49531W        W16314  21.473  27.187  12.965
49532W        W16315   3.188  33.410  12.952
49533W        W16316   6.517  23.171   3.225
49534W        W16317   9.640   5.729   3.506
49535W        W16318   6.745  38.550  12.132
49536W        W16319  26.651  27.175  12.946
49537W        W16320  31.303  37.294  14.872
49538W        W16321  21.295  35.592  10.658
49539W        W16322  42.305  19.522  11.408
49540W        W16323  20.130  42.035   0.804
49541W        W16324  24.159   8.906   1.392
49542W        W16325  15.389   3.030  14.980
49543W        W16326  33.795  19.557   4.193
49544W        W16327   5.436  34.411  10.688
49545W        W16328  33.206   1.305  14.981
49546W        W16329  17.942   7.624  11.646
49547W        W16330   9.234  39.328  11.669
49548W        W16331  26.985  10.025  14.230
49549W        W16332  14.890   0.274  12.090
49550W        W16333  37.531   1.397  13.976
49551W        W16334   0.919  39.013  10.396
49552W        W16335  32.656  15.250   4.429
49553W        W16336   8.336   0.291   2.868
49554W        W16337  35.740  23.596  11.095
49555W        W16338   1.729  44.906   1.272
49556W        W16339   7.455  26.982   1.499
49557W        W16340  33.008  28.506   0.366
49558W        W16341  15.305   4.971   1.669
49559W        W16342  16.041  29.958   1.729
49560W        W16343  42.000  18.434  11.105
49561W        W16344  44.004  39.121  10.679
49562W        W16345  33.565  40.955  12.687
49563W        W16346  21.248  32.294  13.553
49564W        W16347  44.300  20.734   1.653
49565W        W16348   2.397   4.633   4.615
49566W        W16349  41.570  37.326  10.434
49567W        W16350  26.143  30.295  14.325
49568W        W16351  28.097  39.858   9.903
49569W        W16352  25.762  38.151  10.139
49570W        W16353  10.109  12.651   2.813
49571W        W16354  11.631   5.946   4.516
49572W        W16355  38.498   8.672   0.446
49573W        W16356   1.409   9.238  10.592
49574W        W16357   4.174  11.911   2.767
49575W        W16358  13.090  37.383   2.332
49576W        W16359  39.076  14.714   1.642
49577W        W16360   3.277  23.659   1.901
49578W        W16361  34.085  16.226  11.132
49579W        W16362  11.035  35.483  11.076
49580W        W16363   9.740   0.138  13.205
49581W        W16364  30.003  31.271   1.942
49582W        W16365   7.624  19.063  13.397
49583W        W16366   6.027  39.515   4.536
49584W        W16367  41.078  30.440   1.491
49585W        W16368  15.279  21.811  11.622
49586W        W16369  16.140  21.095   0.726
49587W        W16370  16.957  27.017  13.889
49588W        W16371   2.143   5.127   1.187
49589W        W16372   1.074  13.272   3.245
49590W        W16373  14.931  22.263  11.639
49591W        W16374  30.897  23.678   2.704
49592W        W16375  16.370  27.510   2.691
49593W        W16376  27.166  26.717   2.404
49594W        W16377  40.933  39.018   4.867
49595W        W16378  11.649  17.048  13.335
49596W        W16379   1.587  25.589   1.291
49597W        W16380  26.071  43.056  12.629
49598W        W16381  15.117  28.595  12.686
49599W        W16382  39.802  28.709   0.208
49600W        W16383  36.131  44.844   3.283
49601W        W16384  13.630   2.413   3.835
49602W        W16385  39.772  27.135  14.857
49603W        W16386  32.822  17.807   1.497
49604W        W16387  21.403  25.241  12.522
49605W        W16388  34.616  29.661  13.533
49606W        W16389  31.595  36.864  12.107
49607W        W16390  39.553  23.354  13.328
49608W        W16391  20.811  23.918   2.434
49609W        W16392  17.330  21.019   2.659
49610W        W16393  13.991   8.268   2.228
49611W        W16394  37.456   6.247   0.729
49612W        W16395  23.457  25.290   2.380
49613W        W16396   9.369  15.106   2.916
49614W        W16397  30.219  18.544   3.469
49615W        W16398  26.437  14.911  14.446
49616W        W16399  39.472   2.863  14.867
49617W        W16400  23.557  21.352   2.190
49618W        W16401  15.695  42.140  10.748
49619W        W16402  21.448  13.682   1.779
49620W        W16403  31.331  32.561   4.611
49621W        W16404  33.140  12.739  12.783
49622W        W16405  36.859  24.560  14.141
49623W        W16406  20.049  40.383   1.080
49624W        W16407  35.094  10.197  14.081
49625W        W16408  12.424  27.780   4.547
49626W        W16409  31.679   2.928   2.692
49627W        W16410  36.086  44.786   4.718
49628W        W16411  26.614   5.949   3.752
49629W        W16412  17.061   3.879  14.824
49630W        W16413  13.860  15.552   1.439
49631W        W16414  27.427  39.506  13.906
49632W        W16415   5.154  44.037  13.058
49633W        W16416  38.955   3.232   1.786
49634W        W16417   3.256  18.669   5.191
49635W        W16418  10.321  41.398  11.297
49636W        W16419   4.152  25.104   0.413
49637W        W16420  34.446  19.883   2.749
49638W        W16421  16.187  14.644   4.212
49639W        W16422  29.189   7.104   3.671
49640W        W16423   2.716   7.674  14.513
49641W        W16424  34.195  33.872  14.864
49642W        W16425  37.587  24.271  13.780
49643W        W16426  24.008   7.264  14.435
49644W        W16427  29.514  20.096   0.424
49645W        W16428  18.433   2.248   2.859
49646W        W16429  36.156  37.983  13.984
49647W        W16430  34.659  26.545  12.065
49648W        W16431  41.383  34.302  13.338
49649W        W16432  25.552  42.855  11.463
49650W        W16433  15.765  34.147   3.814
49651W        W16434  14.425  15.563   2.101
49652W        W16435  17.811  30.469   4.506
49653W        W16436   0.178   2.991  13.664
49654W        W16437  43.329   7.934  11.609
49655W        W16438  34.890   5.615   5.055
49656W        W16439  30.113  39.337  14.505
49657W        W16440  20.330  22.247  11.609
49658W        W16441  18.590  34.023   3.223
49659W        W16442  30.008  16.749  11.029
49660W        W16443  34.330  38.397  13.895
49661W        W16444  18.503   1.268  11.440
49662W        W16445  35.922  25.477  12.188
49663W        W16446  40.693  33.423  13.506
49664W        W16447   2.931   8.967  13.580
49665W        W16448  12.459   8.666   3.736
49666W        W16449  38.468   8.701   3.631
49667W        W16450   2.159  24.825  12.574
49668W        W16451   6.316  33.064   1.846
49669W        W16452  43.482  42.052  12.305
49670W        W16453  44.902  21.672   0.443
49671W        W16454  31.732  26.147  13.554
49672W        W16455  35.862   0.839  12.640
49673W        W16456  35.621  34.780  13.697
49674W        W16457  24.199  10.199   0.635
49675W        W16458   4.368   6.432   3.231
49676W        W16459  39.914  24.328   1.401
49677W        W16460  38.856   9.889   3.876
49678W        W16461  35.043  14.253  11.470
49679W        W16462  36.520   8.017   4.005
49680W        W16463  38.910   0.766  11.170
49681W        W16464  20.072  28.118   2.669
49682W        W16465  33.893  36.617  10.802
49683W        W16466   4.586  36.977  10.671
49684W        W16467  15.246  19.764   4.219
49685W        W16468   5.424  24.465   2.865
49686W        W16469  16.550  24.809  14.349
49687W        W16470  22.891   5.434  14.000
49688W        W16471   7.521  10.252  12.344
49689W        W16472  17.774   5.349  12.778
49690W        W16473  30.581  34.057   4.146
49691W        W16474  22.093  44.903  10.809
49692W        W16475   9.826  27.532  10.559
49693W        W16476  33.684  34.494   2.946
49694W        W16477   3.235   1.987  10.271
49695W        W16478   0.388  33.323  13.574
49696W        W16479   9.367  25.535   1.471
49697W        W16480  29.674  33.629  11.605
49698W        W16481  33.102   2.180   4.261
49699W        W16482  42.526  40.832   4.172
49700W        W16483  36.350  12.635   4.121
49701W        W16484  44.944  31.956  14.471
49702W        W16485   7.279  41.951  10.654
49703W        W16486  11.234  38.365   0.791
49704W        W16487  12.953  17.511  12.657
49705W        W16488  10.081  34.768  13.890
49706W        W16489   4.946   6.380   2.850
49707W        W16490  35.481  15.230   1.812
49708W        W16491  30.159  12.325   3.352
49709W        W16492  18.473   6.785   0.503
49710W        W16493  29.652   7.477  10.722
49711W        W16494  30.572  11.295   1.357
49712W        W16495  19.769  32.987   1.387
49713W        W16496  28.052  18.175  10.087
49714W        W16497  37.350  22.845   3.634
49715W        W16498   5.230  36.463   4.741
49716W        W16499  23.006  40.018   4.132
49717W        W16500  28.513  23.660  13.830
49718W        W16501  20.944   3.141  12.492
49719W        W16502   8.654  17.809   1.266
49720W        W16503  42.045  32.438   0.372
49721W        W16504  27.061   0.091   0.354
49722W        W16505  29.955  24.534   1.822
49723W        W16506  38.019  35.320  13.805
49724W        W16507  26.120   5.628  11.390
49725W        W16508   9.376   8.887  12.054
49726W        W16509  29.728  21.751   3.327
49727W        W16510  20.491  11.849  13.018
49728W        W16511  39.573  26.574   2.330
49729W        W16512  30.957  27.866  13.177
49730W        W16513  44.025  11.725   3.780
49731W        W16514  14.649  30.509   3.289
49732W        W16515  14.089  41.297  11.645
49733W        W16516  13.294  42.650  12.472
49734W        W16517   1.457  43.420  13.613
49735W        W16518  20.622   1.043  12.093
49736W        W16519  28.028  35.492   4.501
49737W        W16520  15.401  26.088  12.078
49738W        W16521   5.830  10.458  10.577
49739W        W16522  25.478  37.122  13.424
49740W        W16523  36.600  30.018   1.654
49741W        W16524   3.914   9.096   2.206
49742W        W16525  25.015   0.900   3.278
49743W        W16526  29.653  23.748  10.401
49744W        W16527   7.925  13.885   4.299
49745W        W16528   5.301   5.741  13.277
49746W        W16529  42.336  42.453   4.498
49747W        W16530  24.664  19.767  11.140
49748W        W16531  37.449   2.089   3.269
49749W        W16532  41.401   1.923  11.284
49750W        W16533   8.231   1.434   3.761
49751W        W16534   4.415  28.050  14.361
49752W        W16535  24.559  28.499  12.531
49753W        W16536  18.878   0.746   4.141
49754W        W16537  20.236   3.487  13.020
49755W        W16538  32.436  27.926  13.308
49756W        W16539  18.415  37.530   2.655
49757W        W16540  29.572  21.213  10.223
49758W        W16541  17.905  26.491   2.882
49759W        W16542  18.980  16.593  13.085
49760W        W16543  35.935  38.334  11.186
49761W        W16544  39.740  12.362   2.072
49762W        W16545  20.300  13.294   2.947
49763W        W16546  18.564  41.550  13.944
49764W        W16547  29.547   6.840   1.965
49765W        W16548   0.418   0.473   2.219
49766W        W16549  12.615   0.369   4.702
49767W        W16550  33.878  18.650  13.855
49768W        W16551  31.204   2.189   0.435
49769W        W16552  35.402   6.485   3.182
49770W        W16553  44.301  42.194   4.120
49771W        W16554  31.251   2.383  14.355
49772W        W16555  32.376   4.435   3.233
49773W        W16556  41.961  19.708   2.206
49774W        W16557   7.943   3.689  13.135
49775W        W16558  38.276  34.007   4.721
49776W        W16559  21.505  11.983   4.528
49777W        W16560  29.227  38.381  10.573
49778W        W16561   3.097   0.740   1.710
49779W        W16562  41.552  36.306   4.132
49780W        W16563   2.347  37.731   4.579
49781W        W16564  15.774  33.116  12.290
49782W        W16565   7.685   6.886   3.278
49783W        W16566   8.141  24.116   4.489
49784W        W16567  10.167  14.308  10.743
49785W        W16568  16.129  27.543   3.192
49786W        W16569  28.347  22.586  13.412
49787W        W16570  37.497  12.851  14.314
49788W        W16571  14.719  20.737  14.270
49789W        W16572   6.422  11.248  14.356
49790W        W16573  42.460  23.028   4.956
49791W        W16574  41.368  33.647  12.534
49792W        W16575   0.786  39.321  11.356
49793W        W16576  23.439   4.092   4.050
49794W        W16577   3.945  25.193   1.900
49795W        W16578  13.458  24.466  13.797
49796W        W16579  26.512  21.923  14.574
49797W        W16580  13.327  41.640   3.104
49798W        W16581  37.719  44.781   3.818
49799W        W16582  13.286   9.665   2.271
49800W        W16583  21.990  44.394   4.474
49801W        W16584  32.049  37.896  10.977
49802W        W16585  36.009  26.534  10.619
49803W        W16586  35.158  26.579  13.290
49804W        W16587  10.693  35.411   4.528
49805W        W16588  14.273  10.054   3.263
49806W        W16589  40.257   6.843  13.840
49807W        W16590   1.327  10.979  14.816
49808W        W16591  38.303  35.580  14.324
49809W        W16592  26.070  10.338   3.741
49810W        W16593   9.576  37.975   2.795
49811W        W16594   1.917  44.300   0.890
49812W        W16595  17.628  24.043  10.715
49813W        W16596   9.393  43.480  10.497
49814W        W16597  13.134  25.543   3.539
49815W        W16598  39.948  25.092   3.321
49816W        W16599  11.088  37.500  10.771
49817W        W16600  29.037  32.433   2.790
49818W        W16601   9.362  17.158   4.633
49819W        W16602  30.679   1.216   3.366
49820W        W16603  29.047  13.659  12.318
49821W        W16604   7.177   3.357   1.351
49822W        W16605  11.371  36.866   1.860
49823W        W16606  34.116  19.273  14.909
49824W        W16607  42.910  40.940  12.954
49825W        W16608  15.631   4.827   1.287
49826W        W16609  30.442  37.127  11.502
49827W        W16610  44.076  24.041  11.173
49828W        W16611   3.963  37.784  10.769
49829W        W16612  10.107  12.010  11.487
49830W        W16613  29.107  25.089   1.004
49831W        W16614   4.838  34.052  13.799
49832W        W16615  43.331  22.809  13.800
49833W        W16616  28.717   6.199   3.622
49834W        W16617  11.803   6.439   4.488
49835W        W16618  16.313  25.437   0.401
49836W        W16619  40.601  41.166  11.163
49837W        W16620  43.039   4.516  14.320
49838W        W16621  19.766  19.092   0.863
49839W        W16622  20.914  31.599  11.357
49840W        W16623   8.426   7.303   0.282
49841W        W16624  37.498   4.966   1.115
49842W        W16625   7.772   7.498  11.686
49843W        W16626  41.856  42.234   2.023
49844W        W16627   7.840  26.038  10.707
49845W        W16628  22.336  41.120   0.453
49846W        W16629   5.251  30.980   1.702
49847W        W16630  42.756  15.759  13.809
49848W        W16631  38.730  31.015   2.271
49849W        W16632  12.680  26.133   2.790
49850W        W16633  19.692  37.604   2.435
49851W        W16634  23.508   5.338   9.955
49852W        W16635  10.571  25.781  11.114
49853W        W16636  44.515  40.395   0.891
49854W        W16637  43.270   7.434  11.478
49855W        W16638  34.972  10.559  14.457
49856W        W16639   3.280   8.032   2.629
49857W        W16640  27.232  44.753   3.716
49858W        W16641   1.955  34.543  13.422
49859W        W16642  27.971   6.718  12.452
49860W        W16643  22.610  30.589   2.170
49861W        W16644  42.568  20.669  11.207
49862W        W16645  29.014  35.063   4.541
49863W        W16646  33.599  28.152   2.901
49864W        W16647  20.121  41.079  14.287
49865W        W16648  11.880  16.317  11.933
49866W        W16649  25.237  18.573   2.785
49867W        W16650   3.877   2.912  13.626
49868W        W16651   1.546  24.724  13.346
49869W        W16652  12.762  14.171  14.568
49870W        W16653  36.412  23.424  13.152
49871W        W16654   5.829  12.006   3.207
49872W        W16655  11.904   2.307   1.559
49873W        W16656  23.035  44.500   2.107
49874W        W16657   6.214   0.208   1.427
49875W        W16658   1.970   8.254  14.520
49876W        W16659   9.341   1.900  13.217
49877W        W16660   4.376  29.797  13.982
49878W        W16661   6.970   4.331   2.587
49879W        W16662   9.186  10.907  12.508
49880W        W16663   0.352   1.739   4.461
49881W        W16664  37.088  24.181  13.891
49882W        W16665  41.633  43.791  11.105
49883W        W16666  31.885   3.867  14.836
49884W        W16667  19.395   7.195   4.499
49885W        W16668  42.741   7.009  10.593
49886W        W16669  30.438  25.227  11.469
49887W        W16670   2.792  32.924   1.876
49888W        W16671  29.653  38.895  13.971
49889W        W16672  26.656  24.019  11.152
49890W        W16673   9.375   2.331   0.222
49891W        W16674  35.143   6.778   3.578
49892W        W16675  28.114   4.215   1.785
49893W        W16676  33.371  42.777   4.563
49894W        W16677  26.710  15.283   2.378
49895W        W16678  35.048  30.112   0.796
49896W        W16679  31.888  10.811  12.978
49897W        W16680  40.597  26.780  14.871
49898W        W16681  44.579   8.101   0.350
49899W        W16682  37.591  20.195   1.274
49900W        W16683  21.110  18.620   3.656
49901W        W16684  21.785  35.516  10.741
49902W        W16685  30.542   2.745  13.358
49903W        W16686  22.700  20.303   0.184
49904W        W16687  21.694  25.653  12.423
49905W        W16688   5.855  24.161   2.622
49906W        W16689  22.668  24.629   3.107
49907W        W16690  41.396  33.978   2.901
49908W        W16691  44.570  11.020  12.460
49909W        W16692  18.847  35.407  12.616
49910W        W16693  38.683   0.201   4.699
49911W        W16694  41.143  12.265  12.026
49912W        W16695  39.592  24.952   0.901
49913W        W16696  36.053   3.435  12.565
49914W        W16697  13.182  42.889  14.851
49915W        W16698   6.338   2.029   0.407
49916W        W16699  37.392  26.409  12.149
49917W        W16700  24.088  11.801   2.798
49918W        W16701  34.478  34.940  12.844
49919W        W16702  21.810  19.559  12.754
49920W        W16703  36.245  19.023  11.142
49921W        W16704  10.798  34.386  12.017
49922W        W16705  12.489  35.092  14.465
49923W        W16706  30.985  28.643   3.675
49924W        W16707   4.956  43.311   3.757
49925W        W16708  19.679  24.736  13.382
49926W        W16709   8.795  10.511  10.265
49927W        W16710  29.406  28.668   2.300
49928W        W16711  39.508  16.863  13.948
49929W        W16712  43.025  34.509  14.785
49930W        W16713  28.086   0.950   3.708
49931W        W16714  22.181  28.220   3.401
49932W        W16715  44.877  16.202  10.290
49933W        W16716  31.091  14.274   0.396
49934W        W16717  16.052  23.704   0.616
49935W        W16718  23.774  36.177  11.592
49936W        W16719   4.352   1.504   2.834
49937W        W16720  34.016  24.192  12.840
49938W        W16721   2.013  36.405  12.431
49939W        W16722  19.178  17.549  12.626
49940W        W16723   6.398  38.359  14.010
49941W        W16724  44.371  43.192  13.462
49942W        W16725  39.906  41.071  14.033
49943W        W16726  18.172  36.006   0.496
49944W        W16727  35.955  25.671  13.136
49945W        W16728  36.870  13.595   2.330
49946W        W16729   6.623  36.395  11.765
49947W        W16730   0.778  43.647   0.488
49948W        W16731  19.971  35.010  13.417
49949W        W16732   7.375  20.844   3.690
49950W        W16733   8.899  13.577  13.363
49951W        W16734  25.854   4.996  12.108
49952W        W16735  44.204  11.344  14.869
49953W        W16736  32.045  33.244  12.366
49954W        W16737   9.099  34.790  13.804
49955W        W16738   2.796   2.063  14.223
49956W        W16739  31.155  19.696   1.760
49957W        W16740  34.470  39.067  13.377
49958W        W16741   5.745  32.463   3.385
49959W        W16742  20.217  36.052  10.958
49960W        W16743  31.455  42.053   0.700
49961W        W16744  10.617  26.962   3.722
49962W        W16745   5.708   2.927  14.882
49963W        W16746  37.015  22.325  14.737
49964W        W16747  36.457   7.718   0.817
49965W        W16748  23.080  32.043  11.634
49966W        W16749   9.856   0.287  13.690
49967W        W16750  25.154   9.574  12.843
49968W        W16751  17.347  18.768  11.048
49969W        W16752   4.018  18.767  14.694
49970W        W16753  27.233  43.293   1.764
49971W        W16754  30.352  12.456  13.832
49972W        W16755   1.005  37.374   3.683
49973W        W16756  22.733  13.638   3.731
49974W        W16757  35.492  18.783   2.817
49975W        W16758   4.379  26.688   2.304
49976W        W16759  11.182  42.225  10.649
49977W        W16760  37.626  33.659  14.397
49978W        W16761  13.910  15.577  13.357
49979W        W16762  44.233  15.568   0.898
49980W        W16763  28.089   7.912  11.987
49981W        W16764  39.071  28.437  11.990
49982W        W16765  21.811  31.058  12.100
49983W        W16766  28.081  24.639  13.481
49984W        W16767  43.354  43.582   4.086
49985W        W16768   4.855  28.718  14.481
49986W        W16769  43.573  26.707  14.411
49987W        W16770  29.681  22.392   4.172
49988W        W16771   6.202  15.173  14.469
49989W        W16772  10.418  16.890   0.045
49990W        W16773  32.553  29.151   1.266
49991W        W16774  11.636  28.406  11.563
49992W        W16775  22.516  41.403  12.895
49993W        W16776  40.327  21.675  13.343
49994W        W16777  37.799  10.094   4.589
49995W        W16778   2.422   2.570   3.364
49996W        W16779  12.407  13.711   3.420
49997W        W16780  36.377  41.589   3.227
49998W        W16781   9.835  18.369  13.698
49999W        W16782   6.697   4.646   1.479
50000W        W16783  16.480  38.180   1.745
50001W        W16784  26.276   0.572  11.679
50002W        W16785  42.519  26.906  10.961
50003W        W16786  27.521   1.247   0.999
50004W        W16787   0.797  41.996  11.885
50005W        W16788   4.936  27.633  11.577
50006W        W16789  20.574  17.123   4.005
50007W        W16790  24.806  24.314   5.254
50008W        W16791  41.102  32.438   1.868
50009W        W16792   2.326  39.024  14.019
50010W        W16793   8.860   3.344   0.949
50011W        W16794  42.789  32.007   4.590
50012W        W16795  18.041  16.664   2.195
50013W        W16796   1.275  21.472  13.521
50014W        W16797  22.975  15.658  11.927
50015W        W16798  29.348  41.067   3.112
50016W        W16799   6.510  32.136   4.479
50017W        W16800  28.849  42.724   3.468
50018W        W16801  31.658  35.935   2.465
50019W        W16802  44.681  43.275   2.859
50020W        W16803  16.806  30.111   3.105
50021W        W16804  35.956  20.415   2.914
50022W        W16805  17.090  31.974   1.786
50023W        W16806  34.373   9.144  12.486
50024W        W16807  16.173  12.853  12.005
50025W        W16808  10.672   7.166   2.474
50026W        W16809  33.049  30.934  11.718
50027W        W16810  30.021  44.686  14.919
50028W        W16811  19.356   8.378   1.707
50029W        W16812  36.621  18.719   3.381
50030W        W16813  35.909  36.370   0.878
50031W        W16814  43.898  16.592   4.151
50032W        W16815   6.902  15.828  10.491
50033W        W16816  22.104  16.313  11.934
50034W        W16817  18.139   7.246   1.278
50035W        W16818  42.451  40.835  13.143
50036W        W16819  25.146   0.030  12.436
50037W        W16820  10.725  30.524  12.810
50038W        W16821  12.673  19.462  12.211
50039W        W16822  35.986  25.263   4.011
50040W        W16823  41.920  39.853  14.893
50041W        W16824  38.096  24.161  13.767
50042W        W16825   5.753  36.376   4.721
50043W        W16826  18.660  12.309  12.992
50044W        W16827  34.070   4.189   2.129
50045W        W16828  32.582   6.489   1.737
50046W        W16829  35.074   9.370   1.405
50047W        W16830  31.882  34.399   0.275
50048W        W16831  44.235  19.157   4.158
50049W        W16832  12.091  31.452  10.648
50050W        W16833  23.589  24.925  14.042
50051W        W16834   2.869  10.910  11.187
50052W        W16835   5.179  40.431  12.464
50053W        W16836  38.360  42.268  13.622
50054W        W16837   0.835   5.334  12.432
50055W        W16838  18.702  16.332  12.418
50056W        W16839   3.490  41.268   2.882
50057W        W16840  16.266  43.429  10.626
50058W        W16841  35.570  19.456  13.938
50059W        W16842  14.405  39.892   2.084
50060W        W16843   9.215  31.006   1.893
50061W        W16844  28.775  41.745   1.879
50062W        W16845  40.286  37.888  14.793
50063W        W16846  22.206   0.424   0.890
50064W        W16847  40.556  38.517  11.078
50065W        W16848  41.562  26.418  14.904
50066W        W16849  25.388  37.998   0.511
50067W        W16850  18.712  14.877   4.181
50068W        W16851  39.070  17.192   4.020
50069W        W16852  26.938  22.710  10.294
50070W        W16853  15.702  38.184   2.809
50071W        W16854  42.721   8.117  12.567
50072W        W16855  42.452  19.687  14.969
50073W        W16856   7.486  40.982  13.132
50074W        W16857  14.554  43.815   4.882
50075W        W16858  30.274  25.328  13.996
50076W        W16859  16.120   7.837   4.883
50077W        W16860  15.552  34.788  12.087
50078W        W16861  30.638  44.955   0.502
50079W        W16862  37.328  40.993  11.341
50080W        W16863  40.909  27.681   4.604
50081W        W16864  32.006  35.355   4.962
50082W        W16865  10.892   0.772   4.659
50083W        W16866   3.732  30.008  13.984
50084W        W16867   1.148   9.643  12.022
50085W        W16868   5.066  34.315  13.197
50086W        W16869  32.017  41.482   4.674
50087W        W16870   9.141  41.303   1.357
50088W        W16871   5.940  10.679  13.031
50089W        W16872  32.035  23.115  10.737
50090W        W16873  17.591  24.870  10.466
50091W        W16874  27.689  17.781  10.834
50092W        W16875  16.343   5.612   2.740
50093W        W16876  23.673  21.755   3.674
50094W        W16877  41.370  19.213   3.794
50095W        W16878  33.096   3.933   4.064
50096W        W16879  12.351   7.925   0.286
50097W        W16880   7.176   2.428  14.438
50098W        W16881   0.760   0.028   0.338
50099W        W16882  36.558  26.271   0.603
50100W        W16883  43.954  40.381   3.059
50101W        W16884  34.587   2.739   0.749
50102W        W16885  43.498   5.800   4.966
50103W        W16886   0.359  37.582   2.683
50104W        W16887  20.841  44.978  13.352
50105W        W16888   9.702  17.918   2.127
50106W        W16889  36.476  40.447   3.243
50107W        W16890   2.273  12.284   1.645
50108W        W16891  36.391  19.529   9.717
50109W        W16892  22.729  30.016   4.972
50110W        W16893  40.793  14.988   0.402
50111W        W16894  38.561  40.884  13.757
50112W        W16895  15.168   0.434  13.433
50113W        W16896  37.237  30.207   1.418
50114W        W16897  15.183  11.857   0.224
50115W        W16898   3.447  12.379  14.012
50116W        W16899   5.284  16.502   4.302
50117W        W16900  21.982  11.224   1.265
50118W        W16901  27.103  29.983   1.914
50119W        W16902  25.151  25.149   0.823
50120W        W16903  29.712  17.787   0.792
50121W        W16904   7.325   9.742  10.677
50122W        W16905  44.313  34.166   4.340
50123W        W16906  21.581   4.953   3.229
50124W        W16907  42.776   5.782   0.377
50125W        W16908  24.221   5.727  13.034
50126W        W16909   0.684  40.324   0.350
50127W        W16910  34.737  28.854   2.783
50128W        W16911  29.432  19.215  13.573
50129W        W16912  44.548  11.225   3.170
50130W        W16913  36.528  21.661   2.783
50131W        W16914  15.168  20.369   2.617
50132W        W16915  15.201  21.488   0.937
50133W        W16916  43.001  19.886  10.672
50134W        W16917  40.618  16.228  12.939
50135W        W16918   1.755  31.115   0.396
50136W        W16919   1.632  43.491  12.581
50137W        W16920  38.880   7.652  10.887
50138W        W16921  30.771  13.158   1.774
50139W        W16922  15.833   5.869  13.558
50140W        W16923  32.150   1.849   1.579
50141W        W16924  16.847  17.204   2.149
50142W        W16925  27.401   3.839  13.040
50143W        W16926  18.182  38.437   2.163
50144W        W16927  18.755  18.712   5.071
50145W        W16928  43.861  24.966  13.517
50146W        W16929  11.886  42.988  11.299
50147W        W16930  21.185  11.040   2.663
50148W        W16931  43.736   9.846  11.877
50149W        W16932  36.646  15.252  11.288
50150W        W16933  40.090  25.176  12.501
50151W        W16934  22.004   3.533  12.791
50152W        W16935  21.068  40.902   2.721
50153W        W16936  12.696  28.894   3.392
50154W        W16937  18.201  35.045  12.333
50155W        W16938  30.595  31.945  12.922
50156W        W16939  20.112  39.836  11.996
50157W        W16940  25.459   7.830   0.744
50158W        W16941  34.401  29.619   4.433
50159W        W16942  19.044  14.590  12.599
50160W        W16943  11.636  38.764   0.585
50161W        W16944   1.505  20.204   0.751
50162W        W16945  16.567  16.557  14.381
50163W        W16946  23.142  36.408   0.920
50164W        W16947  41.455  44.796  10.896
50165W        W16948  38.429   1.270  13.147
50166W        W16949   1.280   6.626  14.853
50167W        W16950  36.791  17.788  10.960
50168W        W16951  12.066   1.813   1.764
50169W        W16952   9.280  41.439  10.352
50170W        W16953  25.397   2.317   5.712
50171W        W16954  11.711  19.580   4.260
50172W        W16955  21.154  19.804   0.683
50173W        W16956  29.836  11.045  12.556
50174W        W16957  10.547  33.502   4.246
50175W        W16958   3.434  26.508   0.240
50176W        W16959   1.053  43.828   3.153
50177W        W16960  42.857   2.538  11.502
50178W        W16961  39.459   8.231   2.552
50179W        W16962  31.465  38.391  14.933
50180W        W16963  30.649  19.592  14.910
50181W        W16964  23.116  29.227   2.366
50182W        W16965   5.840  30.454   0.400
50183W        W16966  42.008  21.230  11.562
50184W        W16967  44.652   2.770   0.211
50185W        W16968  39.260  42.407  11.054
50186W        W16969  37.621   3.792  13.283
50187W        W16970  41.435  27.181   3.516
50188W        W16971  18.141  38.873   2.921
50189W        W16972  25.464  12.106  10.303
50190W        W16973  22.037   3.930   1.264
50191W        W16974   8.646  25.512  14.728
50192W        W16975  10.034   3.752   1.363
50193W        W16976   3.998  39.975   4.043
50194W        W16977  12.668  16.014  12.495
50195W        W16978  15.543  18.739  13.029
50196W        W16979  26.513  10.476   0.412
50197W        W16980  11.615  36.605   4.689
50198W        W16981   5.938  37.544  12.252
50199W        W16982  26.692  22.136  11.252
50200W        W16983  14.446  24.539  13.419
50201W        W16984  40.790  22.520   1.880
50202W        W16985  37.966  16.753  10.680
50203W        W16986  16.526  16.845   4.444
50204W        W16987   4.757  27.186  10.770
50205W        W16988   3.930  44.808  14.436
50206W        W16989  41.268  31.619   2.940
50207W        W16990  29.595   2.901  14.743
50208W        W16991  10.289  30.795   1.614
50209W        W16992  12.661   4.887   1.706
50210W        W16993  34.894  36.843  13.079
50211W        W16994   7.250  23.937   1.985
50212W        W16995  16.155   5.381  10.312
50213W        W16996  29.199  28.174   2.379
50214W        W16997  11.032   3.883   4.115
50215W        W16998  30.438  13.649  11.643
50216W        W16999   9.918  33.032   4.584
50217W        W17000  40.190  10.344   2.794
50218W        W17001  43.880  20.971   9.792
50219W        W17002  10.586  11.195  11.129
50220W        W17003  40.306  41.459   2.394
50221W        W17004  10.213  32.684   1.303
50222W        W17005  23.252  34.995   0.918
50223W        W17006  38.676  25.980   4.994
50224W        W17007  31.662  33.095   3.265
50225W        W17008  30.421   1.259   0.938
50226W        W17009  14.058  23.492   3.212
50227W        W17010   7.199  40.518   2.794
50228W        W17011  26.978  35.394   0.881
50229W        W17012  43.346  17.847   4.149
50230W        W17013  44.701   4.790   0.184
50231W        W17014  23.244  20.247  11.117
50232W        W17015  34.080  34.379  10.859
50233W        W17016  13.168   7.576  14.183
50234W        W17017   8.724  39.386   1.640
50235W        W17018   5.185   4.931  11.257
50236W        W17019  39.478   5.389  10.759
50237W        W17020  39.065   9.816   4.370
50238W        W17021  17.856   0.254  13.998
50239W        W17022  35.101  33.074  14.388
50240W        W17023  20.307  36.389   1.819
50241W        W17024  15.119   5.671   0.822
50242W        W17025  12.365  44.217   1.078
50243W        W17026  39.786  36.685   2.848
50244W        W17027  35.009   1.682  14.384
50245W        W17028  18.012  30.582  12.574
50246W        W17029  37.376   8.942  14.822
50247W        W17030  39.392  32.542   3.326
50248W        W17031  28.507  18.324   1.457
50249W        W17032   5.883  29.460  10.683
50250W        W17033   2.447   4.732   2.822
50251W        W17034  38.301  37.326  13.820
50252W        W17035  26.318  23.389   4.327
50253W        W17036  25.195  40.533   0.352
50254W        W17037  20.770  15.327   1.890
50255W        W17038  19.685   8.935   4.159
50256W        W17039  13.648  42.890  14.541
50257W        W17040  17.889  40.127   2.432
50258W        W17041   0.742  37.423  11.463
50259W        W17042  42.129  21.216   0.079
50260W        W17043  38.437  25.397  11.012
50261W        W17044  40.589  12.389  12.022
50262W        W17045  44.522   1.417   0.284
50263W        W17046   3.160  37.763  11.046
50264W        W17047  15.691  44.675   2.615
50265W        W17048  10.846  29.213  12.959
50266W        W17049  43.540  11.378   1.698
50267W        W17050  11.483  12.111   1.816
50268W        W17051   8.747  36.145   2.368
50269W        W17052  40.814  13.170  11.871
50270W        W17053  24.079  14.955   4.253
50271W        W17054  24.626  19.579   3.215
50272W        W17055  32.224   8.555   3.170
50273W        W17056  38.632   2.827   4.531
50274W        W17057  44.431   2.072  13.456
50275W        W17058  26.688   0.264   0.041
50276W        W17059  16.678  18.260  13.005
50277W        W17060  40.401  23.691   4.523
50278W        W17061  44.029   5.325   0.239
50279W        W17062  17.253  22.230  14.891
50280W        W17063  37.612  15.765   3.638
50281W        W17064  38.930  13.376  14.346
50282W        W17065   1.438   5.799   4.169
50283W        W17066   4.212  29.288   0.933
50284W        W17067  19.316  43.643   4.570
50285W        W17068   9.719  36.811   1.456
50286W        W17069  31.864   6.450   0.970
50287W        W17070   6.769  43.797  12.121
50288W        W17071   3.747  19.165  13.807
50289W        W17072  23.740  32.920  14.491
50290W        W17073   2.966  34.589   4.145
50291W        W17074   1.433  24.584   2.740
50292W        W17075  17.272  28.583   4.045
50293W        W17076  22.305  38.571  13.939
50294W        W17077  30.766  27.737   1.709
50295W        W17078   8.896  36.096  11.401
50296W        W17079   6.699  44.864   4.412
50297W        W17080  38.773  16.385  14.948
50298W        W17081  18.987   1.500  11.565
50299W        W17082  28.910  38.243  11.405
50300W        W17083  10.717  19.546  11.450
50301W        W17084  37.933  22.472   2.312
50302W        W17085   6.762  16.568   4.886
50303W        W17086  17.132  25.283  12.532
50304W        W17087   7.379  42.106   0.529
50305W        W17088  30.434  27.129   1.834
50306W        W17089  41.443  14.600  14.862
50307W        W17090  33.560  14.283   2.728
50308W        W17091  31.568  32.743   1.661
50309W        W17092  22.903  18.103  11.158
50310W        W17093   3.426  27.685  13.547
50311W        W17094   3.586  10.409   9.858
50312W        W17095  19.012  38.071  11.009
50313W        W17096  27.860   3.695   4.063
50314W        W17097  16.762  10.458   0.892
50315W        W17098  18.964  11.037  11.123
50316W        W17099  14.851  24.254   4.100
50317W        W17100  14.404  12.440   3.716
50318W        W17101   2.388  17.298   2.971
50319W        W17102  27.588  27.742  12.201
50320W        W17103  29.453  22.772  11.675
50321W        W17104  19.529   7.050  11.244
50322W        W17105  32.634  25.504  12.971
50323W        W17106  34.595  20.379   2.679
50324W        W17107   4.302  30.953  13.204
50325W        W17108   7.339  12.478   3.797
50326W        W17109  10.572   8.245  14.058
50327W        W17110  36.259  36.407   4.291
50328W        W17111  11.907  11.728   3.603
50329W        W17112  38.393   7.250  13.902
50330W        W17113  34.696  40.318   3.079
50331W        W17114  22.677  32.237   4.401
50332W        W17115   8.422  16.028  12.253
50333W        W17116  37.437  39.006  12.574
50334W        W17117  23.276  10.256   4.174
50335W        W17118  42.818   7.414   2.652
50336W        W17119   1.742  34.866   2.220
50337W        W17120  11.669  12.620   3.875
50338W        W17121  28.737  12.420  12.472
50339W        W17122  19.391  21.025   2.828
50340W        W17123  38.798  43.748   4.481
50341W        W17124   8.470  44.938   3.696
50342W        W17125   1.368   2.302  12.571
50343W        W17126  25.951   7.368  10.918
50344W        W17127   0.689   9.282   2.642
50345W        W17128  17.406  36.583   5.235
50346W        W17129  16.866  35.534   4.871
50347W        W17130  35.516  44.956  14.468
50348W        W17131   7.394   0.513   2.353
50349W        W17132  40.552  26.983  13.549
50350W        W17133  11.175  29.942   0.260
50351W        W17134  30.511   2.849   2.266
50352W        W17135  38.494  13.135   1.355
50353W        W17136  10.155  21.330  14.344
50354W        W17137   1.571   0.530   0.674
50355W        W17138   4.860  35.993   0.859
50356W        W17139  13.070  20.254  12.115
50357W        W17140  20.497  28.176   3.405
50358W        W17141   1.382  20.806   4.238
50359W        W17142   3.446  25.645   0.706
50360W        W17143  15.666  30.610   1.304
50361W        W17144  44.727  44.570   0.254
50362W        W17145  14.087  38.449  13.463
50363W        W17146  10.168  24.102  13.877
50364W        W17147  40.293  32.462  13.527
50365W        W17148  24.576  40.674  14.416
50366W        W17149  41.070  44.245  13.595
50367W        W17150  18.757   0.957  12.637
50368W        W17151  35.492  17.041   4.728
50369W        W17152  34.536  11.206   1.200
50370W        W17153  15.988   7.679  14.357
50371W        W17154   7.202  36.777   3.108
50372W        W17155   2.313  27.945  13.946
50373W        W17156   7.464  35.998  11.423
50374W        W17157  36.068  21.473  11.537
50375W        W17158  28.922   4.323   3.646
50376W        W17159  31.638  21.218   2.154
50377W        W17160   9.561  10.610   3.216
50378W        W17161  34.854  29.344   2.666
50379W        W17162  25.495  25.021  13.899
50380W        W17163   3.751   8.127   4.332
50381W        W17164  37.803   4.993   0.701
50382W        W17165  38.960   9.394  12.997
50383W        W17166  12.693   4.200   2.877
50384W        W17167  26.736  39.527   0.320
50385W        W17168  28.105  21.339   4.513
50386W        W17169  38.333  22.036  14.471
50387W        W17170  19.559  34.490   3.313
50388W        W17171   7.785  18.304  12.851
50389W        W17172  25.942   7.174   1.346
50390W        W17173  38.293  17.256  10.664
50391W        W17174  26.998   5.304  11.063
50392W        W17175   1.338  22.265   0.728
50393W        W17176  19.413  42.289  14.750
50394W        W17177  30.384  20.691  12.094
50395W        W17178   8.209   4.809  11.176
50396W        W17179  17.568  12.246   0.207
50397W        W17180  39.627  32.008   1.956
50398W        W17181  42.711  34.096  11.582
50399W        W17182   8.807   9.588   3.641
50400W        W17183  43.379   0.632  13.784
50401W        W17184   9.337  13.301  13.518
50402W        W17185  29.322  32.835   3.753
50403W        W17186  22.065  38.415   3.062
50404W        W17187   2.882  26.590   3.287
50405W        W17188  34.850  35.448  12.595
50406W        W17189  15.865  40.254   1.046
50407W        W17190  43.834  23.289   3.669
50408W        W17191  14.849  37.993   0.240
50409W        W17192  25.287  13.958  13.018
50410W        W17193  37.943  44.994  11.073
50411W        W17194   6.256  19.671  14.288
50412W        W17195   4.938   6.803  11.494
50413W        W17196  39.013  35.093   2.386
50414W        W17197  41.318  35.516  12.038
50415W        W17198  37.297  31.995   1.227
50416W        W17199  10.755  41.499   1.432
50417W        W17200  35.544  33.172  10.774
50418W        W17201  16.630   7.890   1.820
50419W        W17202   4.757   2.954  11.141
50420W        W17203  41.989  26.648   1.984
50421W        W17204  26.157  39.015  11.622
50422W        W17205  18.097  23.249  14.906
50423W        W17206  24.167   6.819   4.148
50424W        W17207  16.740  11.370  11.150
50425W        W17208   2.913  37.378   2.680
50426W        W17209  31.094  12.830  14.477
50427W        W17210   7.732  24.020   0.675
50428W        W17211  30.637  38.064   0.409
50429W        W17212  27.924  18.916  14.434
50430W        W17213  38.898  23.197  11.374
50431W        W17214  36.538  20.528  13.904
50432W        W17215  25.597   1.638   3.045
50433W        W17216   0.022  15.771   4.535
50434W        W17217  33.073  33.088  12.554
50435W        W17218   7.103  30.958  13.308
50436W        W17219  40.557  35.136   0.790
50437W        W17220  19.770  43.174  11.775
50438W        W17221  31.697  14.981   2.238
50439W        W17222  35.632  36.219  13.668
50440W        W17223  18.057  32.849   1.323
50441W        W17224  36.593  16.257  11.455
50442W        W17225  36.666  24.521  12.370
50443W        W17226  21.565  11.334  11.588
50444W        W17227  22.856  26.079  12.109
50445W        W17228   6.153  41.527   1.813
50446W        W17229  26.456  10.732   1.283
50447W        W17230   3.543  30.553   4.635
50448W        W17231  14.091  42.715  14.285
50449W        W17232  33.758  19.207  13.088
50450W        W17233   1.617  20.163   4.532
50451W        W17234  38.793  28.464   3.218
50452W        W17235   0.387  13.159  12.400
50453W        W17236   5.794  41.332   3.938
50454W        W17237  13.754  30.679   2.092
50455W        W17238   7.776  37.909  11.106
50456W        W17239  42.396  13.330   3.890
50457W        W17240  24.671  38.482   1.013
50458W        W17241   0.268   7.054  11.098
50459W        W17242  38.817   0.769   2.021
50460W        W17243  41.504  30.712   1.307
50461W        W17244  39.346  39.609  13.836
50462W        W17245  14.122  40.433   3.884
50463W        W17246   3.810  41.296  10.740
50464W        W17247  35.371  18.020  13.454
50465W        W17248   4.676  13.839  12.994
50466W        W17249  32.516  16.664   4.538
50467W        W17250  43.923  10.609  13.162
50468W        W17251  44.714  19.782  12.604
50469W        W17252  22.731   6.743  13.003
50470W        W17253  18.575   9.731   3.827
50471W        W17254  31.161  17.675  14.067
50472W        W17255   0.257  37.033   3.215
50473W        W17256  40.761  23.284  11.578
50474W        W17257   5.391  29.605   2.441
50475W        W17258  21.099  15.069  14.206
50476W        W17259  12.482  36.857  12.895
50477W        W17260  27.026   5.870  12.183
50478W        W17261  38.456  34.229  11.468
50479W        W17262   9.822  23.538   0.826
50480W        W17263  22.131  27.242  14.027
50481W        W17264  11.323   4.233   0.840
50482W        W17265  41.653  43.071   4.169
50483W        W17266  17.941  22.990  10.595
50484W        W17267   6.873  42.679   1.584
50485W        W17268  12.110  23.008   4.554
50486W        W17269   8.125  24.989  13.050
50487W        W17270   1.426   3.346   4.170
50488W        W17271  32.103  27.623  12.979
50489W        W17272  24.435   3.343  14.919
50490W        W17273   5.829  23.044   1.762
50491W        W17274  28.923   4.774   3.373
50492W        W17275  20.913  43.192  12.897
50493W        W17276   3.672  18.139   1.378
50494W        W17277  22.482  21.350   4.672
50495W        W17278  11.118   6.411   1.481
50496W        W17279   1.177   7.828  14.511
50497W        W17280  27.848   3.390   1.699
50498W        W17281  22.428  43.398   2.699
50499W        W17282  28.032  34.149  13.861
50500W        W17283  17.371   7.082  11.141
50501W        W17284  24.278  29.543  13.240
50502W        W17285  13.636  42.263   0.454
50503W        W17286  19.761   4.308   1.313
50504W        W17287  19.570   7.978  14.950
50505W        W17288  44.887   9.752   2.252
50506W        W17289   6.175  31.694   3.835
50507W        W17290  38.460   1.361   2.908
50508W        W17291  37.942  32.540   1.381
50509W        W17292  41.903  10.571   1.358
50510W        W17293  44.170  24.566   3.865
50511W        W17294  33.443  30.951   1.333
50512W        W17295   7.931  23.197   4.155
50513W        W17296  36.244   9.748  14.373
50514W        W17297  33.641  19.022   3.848
50515W        W17298  19.073  41.501   1.854
50516W        W17299  14.102  18.675   2.692
50517W        W17300  14.331  11.735   0.538
50518W        W17301  33.426  42.722   3.224
50519W        W17302   5.223   6.062   4.159
50520W        W17303  24.794  33.422   4.081
50521W        W17304   6.379  20.642   1.280
50522W        W17305  40.440  21.971   1.405
50523W        W17306  14.084   4.755   1.383
50524W        W17307  23.170  23.034  10.574
50525W        W17308  41.047  33.870   0.846
50526W        W17309   2.978  12.272   2.293
50527W        W17310   2.404  20.392  11.980
50528W        W17311  22.791  30.464  12.039
50529W        W17312  35.107  11.837  11.020
50530W        W17313   5.261   6.089  14.711
50531W        W17314  31.465  36.039   4.485
50532W        W17315   7.708   6.139  10.390
50533W        W17316  42.148   5.446   9.952
50534W        W17317  31.074  37.803   4.616
50535W        W17318  35.785   4.419  12.830
50536W        W17319  32.533   7.152  12.517
50537W        W17320  12.904  16.162  14.535
50538W        W17321  44.460  43.418  12.172
50539W        W17322   9.682  28.434  14.720
50540W        W17323  26.413  12.636   2.311
50541W        W17324  34.556   9.807   0.798
50542W        W17325  36.116  36.491  11.128
50543W        W17326  29.918   5.106  12.823
50544W        W17327  34.181  25.529   3.621
50545W        W17328  14.818  27.171  14.478
50546W        W17329  11.393  27.253  12.717
50547W        W17330   5.132   9.797   2.204
50548W        W17331  18.507  31.311  14.397
50549W        W17332   2.022  37.042   0.987
50550W        W17333  24.206  16.630  14.069
50551W        W17334  11.847  27.911   0.229
50552W        W17335  15.501   7.902  12.958
50553W        W17336  39.812   5.225   2.934
50554W        W17337  33.888  37.132  13.406
50555W        W17338  23.026  42.063   1.346
50556W        W17339  20.403  27.574  14.541
50557W        W17340  20.715  30.172  14.933
50558W        W17341   1.799   1.999   2.175
50559W        W17342  10.119  12.398   0.697
50560W        W17343  19.974  32.950   0.010
50561W        W17344  39.887   4.008   0.260
50562W        W17345   5.145  30.985   3.662
50563W        W17346  19.580  18.064   0.683
50564W        W17347  40.531  19.508   0.867
50565W        W17348  12.680  36.266   4.697
50566W        W17349  35.049  31.998   0.380
50567W        W17350   5.322  27.930  11.402
50568W        W17351   2.848  28.564   2.189
50569W        W17352  32.093  13.265  12.280
50570W        W17353  35.923  37.526  11.336
50571W        W17354  20.050  39.813   4.172
50572W        W17355  41.247  13.165  13.367
50573W        W17356  11.211  38.644  12.441
50574W        W17357  43.243  31.394   3.712
50575W        W17358  11.894  17.655  11.600
50576W        W17359   2.795   8.538   4.179
50577W        W17360  42.778  13.046  14.982
50578W        W17361  27.612  24.542   1.651
50579W        W17362  37.744   2.744   1.396
50580W        W17363  12.565  33.361   0.848
50581W        W17364  39.027  25.557  11.194
50582W        W17365  20.158  12.881   0.935
50583W        W17366  28.354  24.621   2.668
50584W        W17367  20.044   7.813   3.791
50585W        W17368  24.061   0.318  10.997
50586W        W17369  28.366  39.801   0.748
50587W        W17370   6.224   7.877   0.669
50588W        W17371  40.914  35.527   0.806
50589W        W17372  19.733  36.033  10.756
50590W        W17373  34.918   7.368   0.316
50591W        W17374   2.374  33.481   1.223
50592W        W17375  37.000  19.102   0.842
50593W        W17376   2.879  32.408   1.769
50594W        W17377   7.726   1.248   2.211
50595W        W17378  22.114  21.474   1.699
50596W        W17379  29.398   3.281   0.067
50597W        W17380  16.528  23.093   3.286
50598W        W17381  40.093  15.567  11.104
50599W        W17382  29.445  19.229  10.940
50600W        W17383  24.677  37.860  10.961
50601W        W17384  41.281  33.496   1.586
50602W        W17385   3.648  36.509  11.567
50603W        W17386   5.040   0.258  11.402
50604W        W17387   0.054  17.652  11.965
50605W        W17388  24.334   0.795  11.581
50606W        W17389   5.117  14.190   3.320
50607W        W17390  32.343  21.126   3.571
50608W        W17391   1.896  18.790  10.426
50609W        W17392  28.669  42.950   0.384
50610W        W17393  38.014  30.632   0.207
50611W        W17394   6.755  29.021  12.022
50612W        W17395  23.182   4.845   1.624
50613W        W17396   0.184  17.680   1.718
50614W        W17397   0.782  40.569  12.400
50615W        W17398  32.089  36.798   0.910
50616W        W17399  12.095   8.152   1.844
50617W        W17400  28.547  35.288  12.627
50618W        W17401   2.893  13.688  13.493
50619W        W17402  18.812  30.464  14.850
50620W        W17403  11.692  34.820  11.617
50621W        W17404  12.111   9.622   4.841
50622W        W17405  17.787  42.221  13.823
50623W        W17406   7.294   8.644   4.624
50624W        W17407   7.249  30.608   0.858
50625W        W17408  20.948  13.783  13.012
50626W        W17409  32.428  18.361  13.614
50627W        W17410   7.762  39.087   3.339
50628W        W17411   9.270  34.594   4.053
50629W        W17412  37.805  19.692  11.465
50630W        W17413   3.755  20.155   0.204
50631W        W17414  16.146  28.593  14.825
50632W        W17415   7.861   6.962   1.416
50633W        W17416  30.823  23.213  11.607
50634W        W17417  43.961  16.983   9.699
50635W        W17418   1.471  36.501  14.395
50636W        W17419   5.137   1.674  13.384
50637W        W17420  27.907  12.165   2.766
50638W        W17421  12.114  44.925  14.802
50639W        W17422   3.270   8.180  12.059
50640W        W17423  36.143  42.983  13.055
50641W        W17424  24.012  13.706  12.563
50642W        W17425  40.263  30.705  11.547
50643W        W17426  41.774  27.041   0.702
50644W        W17427   0.214  36.109  12.959
50645W        W17428  22.553   7.936   3.275
50646W        W17429  43.415  36.469   2.360
50647W        W17430  30.466  10.157  14.033
50648W        W17431  12.308  42.564   2.102
50649W        W17432  28.417   9.615  14.439
50650W        W17433  41.462   0.195   3.107
50651W        W17434  30.062  15.439  11.139
50652W        W17435  18.251  35.630  14.933
50653W        W17436   5.255  14.763   4.702
50654W        W17437  26.487  32.474  11.606
50655W        W17438  10.302  18.132   4.559
50656W        W17439  40.807   5.871   1.495
50657W        W17440  24.708   2.351   1.826
50658W        W17441  12.309  15.256   1.224
50659W        W17442  30.935  31.976   0.877
50660W        W17443  23.289  28.994  12.434
50661W        W17444  12.483  20.690   1.124
50662W        W17445  33.062  39.513   4.677
50663W        W17446  21.764  35.599  11.610
50664W        W17447   5.750  12.826   1.276
50665W        W17448   9.762  44.500   0.223
50666W        W17449  43.491  23.619   3.450
50667W        W17450  13.160  19.991   4.101
50668W        W17451  32.607  23.298   4.126
50669W        W17452  12.211  16.350   0.808
50670W        W17453  31.418  22.207   4.704
50671W        W17454  24.672  30.910  10.338
50672W        W17455  42.276  42.824   3.710
50673W        W17456   2.556  39.157   0.830
50674W        W17457  32.322  17.232   3.113
50675W        W17458  19.460  28.804  12.196
50676W        W17459  31.894  27.426   3.111
50677W        W17460   9.847  15.196   0.922
50678W        W17461  22.862  32.053   2.278
50679W        W17462  41.144  25.519  13.005
50680W        W17463  27.563  17.546  13.404
50681W        W17464  25.075  29.623   3.743
50682W        W17465  18.694  42.389   1.005
50683W        W17466  16.851   1.733   4.180
50684W        W17467  39.878   2.889   2.009
50685W        W17468  25.143   6.454   0.718
50686W        W17469  39.411  16.119   1.646
50687W        W17470   6.273  38.482   4.515
50688W        W17471  32.931  40.903  11.060
50689W        W17472  18.662  26.943   2.866
50690W        W17473  24.759  16.950   0.891
50691W        W17474  35.486  27.882   1.607
50692W        W17475  24.575  28.026  14.304
50693W        W17476  43.556  25.129  12.848
50694W        W17477  42.590  17.551   1.097
50695W        W17478   0.839   1.086  13.916
50696W        W17479  26.700  42.877   1.317
50697W        W17480  33.958  23.018  11.097
50698W        W17481  25.675  38.457   0.537
50699W        W17482   7.003   5.957   1.783
50700W        W17483  18.024   8.712   0.544
50701W        W17484  39.523  26.231   3.280
50702W        W17485  42.876   3.044  11.570
50703W        W17486  17.522  30.937  13.004
50704W        W17487  39.369  20.186   4.181
50705W        W17488  41.921   0.260  14.065
50706W        W17489  44.969  28.652  11.118
50707W        W17490   5.608  36.635  13.957
50708W        W17491  33.929  24.940  13.344
50709W        W17492  20.182  14.151  14.801
50710W        W17493  43.870  38.869  13.094
50711W        W17494   3.735  40.098   0.647
50712W        W17495   3.984  41.788   1.425
50713W        W17496  44.450  39.838  11.454
50714W        W17497  10.501  39.293   1.320
50715W        W17498  36.770  13.858  11.138
50716W        W17499   4.130  27.177   3.160
50717W        W17500  24.653  15.661   4.221
50718W        W17501  21.583  12.978  14.488
50719W        W17502  17.535  18.675  14.324
50720W        W17503  22.981  40.922  11.507
50721W        W17504  24.792  16.943   1.759
50722W        W17505  21.634   8.942  14.539
50723W        W17506  22.414   8.728  13.027
50724W        W17507  42.518  15.342   2.772
50725W        W17508  20.793   0.266   2.189
50726W        W17509  38.262  17.748  11.902
50727W        W17510  12.674   4.233   3.704
50728W        W17511   7.841  43.277  12.057
50729W        W17512  30.670  10.773   2.845
50730W        W17513  31.963  25.628  14.572
50731W        W17514  44.393   5.331  13.237
50732W        W17515  38.571  12.867   1.794
50733W        W17516  30.096  18.813  10.447
50734W        W17517  15.344   7.093   0.623
50735W        W17518  41.848  12.761   3.555
50736W        W17519  33.119  30.006  13.573
50737W        W17520   0.858  25.568   0.486
50738W        W17521  10.213  43.215   3.200
50739W        W17522  11.198  42.826  12.909
50740W        W17523  35.897  22.639  12.166
50741W        W17524   3.607  30.140  14.916
50742W        W17525  41.368  15.078  12.982
50743W        W17526  22.777  28.949  10.925
50744W        W17527   1.706  13.623   1.211
50745W        W17528  19.024   8.371  12.391
50746W        W17529  31.571  32.952   4.831
50747W        W17530  44.779  26.235  10.557
50748W        W17531  31.003   0.502   2.063
50749W        W17532  21.010   4.623   1.189
50750W        W17533  43.566   4.781  11.053
50751W        W17534  32.911  26.666  12.396
50752W        W17535  30.453  22.001   4.672
50753W        W17536   6.202   3.837  13.906
50754W        W17537   3.993  21.637   3.809
50755W        W17538   3.306  41.599  12.935
50756W        W17539  31.838  33.364   4.958
50757W        W17540  23.972  33.284   3.696
50758W        W17541   7.057  11.214   2.421
50759W        W17542   5.813  17.794   4.592
50760W        W17543  43.554   6.816   4.021
50761W        W17544  15.249  11.557  11.940
50762W        W17545  16.642  29.152  13.895
50763W        W17546   1.744  32.179   4.515
50764W        W17547  11.158   3.832   0.584
50765W        W17548  27.708  10.320   2.686
50766W        W17549  28.559  20.227  12.775
50767W        W17550  34.024  38.595  12.045
50768W        W17551  18.034  12.093  11.165
50769W        W17552  16.289  11.799   4.229
50770W        W17553  11.509  11.843   0.716
50771W        W17554   9.562  43.295   2.642
50772W        W17555  13.103  17.822  14.795
50773W        W17556  37.092   6.148   1.871
50774W        W17557  41.292  12.164   0.946
50775W        W17558   0.740  31.071  13.535
50776W        W17559  28.373  32.411  12.464
50777W        W17560  22.973  43.848  14.922
50778W        W17561  21.332   0.425  12.853
50779W        W17562  12.680  12.516   1.031
50780W        W17563  13.743  17.235  13.536
50781W        W17564   2.284  21.239  11.603
50782W        W17565  39.697  44.821   4.708
50783W        W17566  29.834  18.978   1.875
50784W        W17567  11.560  15.096   1.911
50785W        W17568   4.799  39.949   2.038
50786W        W17569   1.238  43.618  14.039
50787W        W17570   5.358   9.145  12.609
50788W        W17571   9.317   2.981  11.575
50789W        W17572   3.275  14.225   1.125
50790W        W17573  34.503  17.308  11.948
50791W        W17574  23.499  35.091  10.355
50792W        W17575   2.758  15.640  11.184
50793W        W17576   1.671   2.019   0.289
50794W        W17577  26.498   3.372   3.668
50795W        W17578   2.578  16.136   3.265
50796W        W17579  19.310  32.559   3.799
50797W        W17580  21.593  36.363   2.728
50798W        W17581   7.474  23.728  12.496
50799W        W17582  20.504  37.539   2.249
50800W        W17583   4.648  40.447  12.443
50801W        W17584  15.202  39.047   3.684
50802W        W17585   2.850  13.983   1.373
50803W        W17586  40.809  27.239  14.755
50804W        W17587  42.713  36.007  12.451
50805W        W17588   4.479   9.290  10.724
50806W        W17589  38.352  29.910  12.131
50807W        W17590  36.420  26.319  11.775
50808W        W17591  37.903  36.778  10.925
50809W        W17592  22.771  42.899   1.902
50810W        W17593  22.162  27.570  13.098
50811W        W17594  33.633  43.409  11.622
50812W        W17595  37.562   9.136  14.338
50813W        W17596  16.012  35.925   0.423
50814W        W17597  34.271  12.683  14.816
50815W        W17598   4.313  17.726   2.567
50816W        W17599  44.806  17.639  10.477
50817W        W17600   9.321  23.802  13.864
50818W        W17601  32.851  33.225   2.389
50819W        W17602  22.777  43.599  11.874
50820W        W17603   9.874  12.042   3.249
50821W        W17604  24.749  17.505  13.971
50822W        W17605   1.963  12.869   0.365
50823W        W17606   0.680  20.161   4.722
50824W        W17607  38.473  25.270   4.471
50825W        W17608  13.391  18.674   1.802
50826W        W17609  25.491  14.574   3.262
50827W        W17610  26.027  25.461   1.934
50828W        W17611  38.401  20.096   0.244
50829W        W17612  36.029  14.861  10.689
50830W        W17613  23.450   4.696  13.886
50831W        W17614  12.216  16.293   4.586
50832W        W17615   6.804  31.361  10.678
50833W        W17616   5.474  24.945   2.031
50834W        W17617  30.121  32.965   4.849
50835W        W17618  35.068  19.325  13.913
50836W        W17619  33.388  19.567  11.540
50837W        W17620  20.625  12.322   0.898
50838W        W17621  34.102  41.358   2.215
50839W        W17622  20.897  18.615   1.838
50840W        W17623  34.428  18.719  10.703
50841W        W17624  25.983  14.744  10.567
50842W        W17625  30.531   0.588   4.510
50843W        W17626  33.519  31.638  11.502
50844W        W17627  15.281   6.724   2.472
50845W        W17628   8.478   1.849   2.205
50846W        W17629  19.672   6.173  12.333
50847W        W17630  10.402  15.245  11.218
50848W        W17631  24.110  41.654  14.227
50849W        W17632  41.056  31.233  12.158
50850W        W17633  24.083  44.390   3.569
50851W        W17634  28.060  32.409  12.914
50852W        W17635  20.067  13.745   3.304
50853W        W17636  31.451  30.586   1.390
50854W        W17637  40.610  39.113  14.100
50855W        W17638  23.798  16.259   4.061
50856W        W17639  20.582   7.810   2.083
50857W        W17640  37.449   1.648  13.520
50858W        W17641   1.470   0.392  12.944
50859W        W17642  30.114   7.306  12.444
50860W        W17643   5.277   2.547  13.164
50861W        W17644  12.377   1.887  13.015
50862W        W17645  12.387  27.242  13.304
50863W        W17646  32.340  28.647  12.097
50864W        W17647  28.939  42.482   0.437
50865W        W17648  32.591  24.243   2.318
50866W        W17649  44.271  40.298   0.436
50867W        W17650   8.795  35.230   3.353
50868W        W17651   1.135  37.798  13.525
50869W        W17652   0.031   3.271   1.377
50870W        W17653  33.521  17.790   2.940
50871W        W17654   5.212  15.357  13.454
50872W        W17655   6.078  23.465  13.068
50873W        W17656  34.857  30.155  11.591
50874W        W17657  29.889  26.997  13.920
50875W        W17658  25.707  43.797   4.601
50876W        W17659  12.391   9.090   1.865
50877W        W17660   3.612  12.854  13.975
50878W        W17661   1.735  12.660  11.601
50879W        W17662  35.277  26.075   1.874
50880W        W17663  34.409  25.461  14.963
50881W        W17664  35.294   6.335   0.785
50882W        W17665  42.104  16.290   4.934
50883W        W17666  41.437  43.754   0.180
50884W        W17667  18.760  41.475   4.580
50885W        W17668  17.794  34.690  14.315
50886W        W17669  26.289  31.424  11.332
50887W        W17670  43.914  44.527  14.186
50888W        W17671  29.471  32.159   2.858
50889W        W17672  21.213  38.500  10.866
50890W        W17673  35.521  32.146   1.331
50891W        W17674  14.811  36.020  13.042
50892W        W17675  37.916  20.986   2.372
50893W        W17676  14.884  14.082  11.143
50894W        W17677  42.053  31.215   3.136
50895W        W17678  30.255  36.052  12.927
50896W        W17679  38.862  15.676   1.641
50897W        W17680  18.722   9.125  11.921
50898W        W17681  14.879  27.709   2.669
50899W        W17682   6.441  41.559  12.137
50900W        W17683  28.546  44.684  13.145
50901W        W17684   8.334  17.405  13.474
50902W        W17685  29.094   5.031   4.951
50903W        W17686  30.808  14.277  10.319
50904W        W17687  44.282  13.145  11.158
50905W        W17688  38.725  43.531  12.975
50906W        W17689   7.389  16.554  10.778
50907W        W17690   2.339  25.089   0.458
50908W        W17691   3.348  38.762   4.552
50909W        W17692  28.240  17.972   0.854
50910W        W17693  32.974  13.625   3.324
50911W        W17694   1.275  24.071  12.526
50912W        W17695  20.772  44.961  11.316
50913W        W17696   7.278  24.030   1.466
50914W        W17697  25.852  31.697  14.132
50915W        W17698  32.098  21.449   2.380
50916W        W17699   6.668  39.844  11.947
50917W        W17700  17.757   8.987  14.092
50918W        W17701  33.482  40.279  10.601
50919W        W17702  13.825  20.131   1.277
50920W        W17703  23.069  25.657   1.444
50921W        W17704  22.544   0.332  14.502
50922W        W17705  35.986   9.664  12.088
50923W        W17706  41.395  20.753  12.640
50924W        W17707  31.203  18.677   2.686
50925W        W17708  35.402  27.589  11.882
50926W        W17709  35.988  23.249   4.259
50927W        W17710  44.753  44.375  14.460
50928W        W17711  34.052  44.456   0.811
50929W        W17712  19.498  33.131   1.849
50930W        W17713  17.407  13.585   9.757
50931W        W17714  38.344  22.947   1.727
50932W        W17715  39.034  18.728  14.236
50933W        W17716  35.957  23.662  12.898
50934W        W17717   7.215  19.686  11.161
50935W        W17718  16.306  11.894  14.419
50936W        W17719  22.067  32.180  11.485
50937W        W17720  38.772  34.172  13.552
50938W        W17721  11.077  29.008  13.446
50939W        W17722  22.236  34.976  11.641
50940W        W17723   7.626  41.790  13.349
50941W        W17724  44.218  16.817   4.978
50942W        W17725  27.888  43.339  12.161
50943W        W17726  12.818  22.899   0.933
50944W        W17727  19.805  27.081  11.521
50945W        W17728  32.663  33.089   3.632
50946W        W17729  22.611   0.219   1.231
50947W        W17730  41.718   9.884   0.750
50948W        W17731  18.504  11.129  12.561
50949W        W17732  44.086  25.516  13.676
50950W        W17733  35.406  29.287  14.969
50951W        W17734  18.082  40.612  14.446
50952W        W17735  43.732  26.976  14.821
50953W        W17736  12.059  33.580   2.282
50954W        W17737   1.277  20.446  13.429
50955W        W17738  26.998  35.223   2.822
50956W        W17739  12.166  30.107   1.425
50957W        W17740  44.273  20.101  13.602
50958W        W17741   0.944  20.504  12.568
50959W        W17742  37.894  13.712  11.185
50960W        W17743  16.746  34.074  14.305
50961W        W17744  36.172  24.527  12.523
50962W        W17745  40.287   4.431  12.723
50963W        W17746  44.041  31.728   3.628
50964W        W17747  31.458  13.760  13.330
50965W        W17748  40.998  40.868   3.180
50966W        W17749  22.170  30.725  11.979
50967W        W17750   4.737  12.148  14.761
50968W        W17751   2.171  40.514   4.742
50969W        W17752   5.311   5.058   1.236
50970W        W17753  21.606  42.831  12.399
50971W        W17754  40.430  36.828  10.632
50972W        W17755  44.249   7.407  13.480
50973W        W17756   3.831  28.105   2.530
50974W        W17757  39.420  19.305  11.418
50975W        W17758  36.173  18.151   4.055
50976W        W17759  12.784  22.261  11.553
50977W        W17760   6.584   3.555   0.461
50978W        W17761  30.845  41.608  11.001
50979W        W17762  40.707  20.103   4.461
50980W        W17763  41.265  14.633   2.383
50981W        W17764  31.549  34.439   3.515
50982W        W17765   4.848  30.786  10.292
50983W        W17766  38.438  21.684  10.977
50984W        W17767  28.071  32.790   0.338
50985W        W17768   1.960   9.131  14.411
50986W        W17769  32.170  10.708   1.725
50987W        W17770  20.004   1.781   1.816
50988W        W17771   0.659  38.205   4.350
50989W        W17772  22.493   1.216  13.560
50990W        W17773  13.167  15.762  14.732
50991W        W17774  21.163   2.810   3.751
50992W        W17775  44.904  31.597   0.444
50993W        W17776  16.834  30.887   0.906
50994W        W17777  26.650   5.546  14.234
50995W        W17778  16.643   7.731   4.148
50996W        W17779  42.516  35.842  14.362
50997W        W17780   7.482  16.164   4.584
50998W        W17781  35.011  11.145  12.054
50999W        W17782  35.285   9.432  11.446
51000W        W17783  15.545  38.507   3.196
51001W        W17784  36.933  18.276   0.796
51002W        W17785  11.568  12.031  12.085
51003W        W17786   1.956  14.664   1.189
51004W        W17787   5.912  13.071  13.886
51005W        W17788  20.292   0.362   2.235
51006W        W17789  23.186  28.256  13.875
51007W        W17790  36.527  40.614  14.215
51008W        W17791  27.492  32.449  14.258
51009W        W17792  16.612  41.677  12.483
51010W        W17793  31.535  28.237   3.312
51011W        W17794  37.351  28.355  13.669
51012W        W17795  15.388  24.552  13.602
51013W        W17796  22.249  35.084   3.713
51014W        W17797   4.359   2.707   2.283
51015W        W17798  24.528  44.308  13.334
51016W        W17799  26.914  37.542  14.232
51017W        W17800   2.179   9.363   4.091
51018W        W17801   5.746  13.381   3.004
51019W        W17802  29.118  15.333   4.261
51020W        W17803  10.164  26.908  14.395
51021W        W17804  13.690  26.377   4.604
51022W        W17805   1.291  26.660  14.305
51023W        W17806  29.697  44.419   4.220
51024W        W17807  11.378  37.904  14.907
51025W        W17808  37.953  36.614   0.926
51026W        W17809  17.138  16.506  10.625
51027W        W17810  32.605  44.429   1.877
51028W        W17811   0.352  15.104  14.431
51029W        W17812  17.970  33.829   4.284
51030W        W17813   7.332  38.626  12.009
51031W        W17814  39.540   0.583  13.838
51032W        W17815  10.806  18.841  13.449
51033W        W17816  31.490   5.995  12.005
51034W        W17817   4.463   0.339   4.550
51035W        W17818   9.135  25.918   0.890
51036W        W17819   5.756  44.536  14.795
51037W        W17820  20.006   7.236  11.119
51038W        W17821  24.434  34.662   0.780
51039W        W17822   9.719  38.759   1.147
51040W        W17823  23.395  39.974   2.171
51041W        W17824  21.602  10.897  10.646
51042W        W17825   4.214  23.656   3.896
51043W        W17826  24.824  43.874   3.532
51044W        W17827  37.534  20.165  12.159
51045W        W17828   4.864   8.933  10.709
51046W        W17829  23.513  13.662  12.443
51047W        W17830   8.188   5.289  12.895
51048W        W17831  35.411  21.140   0.047
51049W        W17832  22.706  34.055   3.292
51050W        W17833  44.061  21.820   2.819
51051W        W17834   7.768  16.701  11.116
51052W        W17835  23.858  26.502   1.648
51053W        W17836  27.168  33.105   2.647
51054W        W17837  22.977  13.065  13.019
51055W        W17838  19.329  13.592   2.828
51056W        W17839  13.082  11.245   0.206
51057W        W17840  14.295  33.234   3.376
51058W        W17841  44.839  34.570  12.494
51059W        W17842   3.366  20.795  12.142
51060W        W17843  12.140  27.815  12.108
51061W        W17844  20.805  41.312   0.491
51062W        W17845   1.398  28.932  11.455
51063W        W17846  18.190  10.545  12.023
51064W        W17847  17.134  36.654  12.287
51065W        W17848  28.486  38.814  10.992
51066W        W17849  18.170  20.738   0.617
51067W        W17850  11.743  31.588  11.493
51068W        W17851   3.666  20.051   4.267
51069W        W17852  39.609  20.016  14.354
51070W        W17853  25.233  16.739   1.017
51071W        W17854  22.953  34.950  13.955
51072W        W17855  16.070  35.421   2.261
51073W        W17856   6.499  20.292   0.473
51074W        W17857  24.660   8.788   3.358
51075W        W17858  13.787   5.028   4.882
51076W        W17859   6.595  13.901  14.934
51077W        W17860  33.313   5.779   1.863
51078W        W17861   7.863  17.314   0.262
51079W        W17862   7.648   6.040  13.927
51080W        W17863  30.256  24.951   1.819
51081W        W17864  20.809   8.246   3.373
51082W        W17865  40.398  29.782   4.931
51083W        W17866  11.707  42.814  13.032
51084W        W17867   9.649   8.850   3.161
51085W        W17868   2.163   6.761   0.019
51086W        W17869  35.862  37.641   3.214
51087W        W17870  42.719  43.841   3.808
51088W        W17871  36.269  37.317  10.392
51089W        W17872  24.737  34.485  11.500
51090W        W17873  22.629   9.976   5.097
51091W        W17874  30.702   4.947  14.852
51092W        W17875  24.448  23.871  10.256
51093W        W17876  41.456  27.885   0.751
51094W        W17877  22.142  42.946   1.927
51095W        W17878  10.090  22.336   1.892
51096W        W17879  31.221  40.831   2.421
51097W        W17880  17.347  22.633   3.102
51098W        W17881   0.838  26.219  12.610
51099W        W17882  24.913   0.195   4.154
51100W        W17883  17.795  28.435  13.992
51101W        W17884  36.884  19.573   0.620
51102W        W17885  28.914  27.934   3.290
51103W        W17886  44.276  34.653  10.918
51104W        W17887  20.517   6.583  14.916
51105W        W17888   4.962  29.570   4.588
51106W        W17889  29.097  37.938   1.693
51107W        W17890   7.322  38.185   1.189
51108W        W17891  17.813  24.660   3.559
51109W        W17892  33.102  31.351  13.509
51110W        W17893  21.655  31.865  11.488
51111W        W17894  11.013  22.244  11.007
51112W        W17895  40.590  34.928   4.105
51113W        W17896  25.422  34.546   3.683
51114W        W17897  25.006  28.050  14.574
51115W        W17898   3.313  14.748  14.294
51116W        W17899  36.123  32.919   0.516
51117W        W17900  24.148  19.737  11.988
51118W        W17901   0.803  36.960  11.709
51119W        W17902  29.431   1.247   1.996
51120W        W17903  15.996   8.275  12.462
51121W        W17904   8.898  36.441   0.472
51122W        W17905  18.211   6.836   0.953
51123W        W17906  27.099  44.001   2.247
51124W        W17907   1.405  20.045  14.758
51125W        W17908  43.893  16.793  12.161
51126W        W17909  25.959  34.146  14.378
51127W        W17910  25.564  19.622  13.821
51128W        W17911  25.484  29.611  11.191
51129W        W17912  20.315  32.087  13.906
51130W        W17913  17.723  10.094  13.028
51131W        W17914  38.830  19.978   2.530
51132W        W17915   4.748  12.150  10.626
51133W        W17916  17.651   8.131   3.866
51134W        W17917  17.946  27.525   0.898
51135W        W17918  25.765  35.960   4.218
51136W        W17919  16.691   6.014   4.577
51137W        W17920  20.734  39.778  12.380
51138W        W17921  31.953  13.366  13.334
51139W        W17922  33.943  39.808  14.807
51140W        W17923  13.824   7.817   4.600
51141W        W17924  35.640  28.095   2.481
51142W        W17925  41.064   3.603  11.089
51143W        W17926  18.816  36.033   3.655
51144W        W17927  40.700  15.803   4.509
51145W        W17928  24.120  19.586   4.303
51146W        W17929  12.191   5.433   2.683
51147W        W17930  15.516  40.549   0.468
51148W        W17931   1.033  13.678   3.674
51149W        W17932  13.336   6.341  12.381
51150W        W17933   1.436  16.998  14.998
51151W        W17934  44.774  37.937   4.255
51152W        W17935  35.058  16.326   3.425
51153W        W17936  32.701  26.173  12.526
51154W        W17937  31.375  31.085   0.690
51155W        W17938  42.813  28.158  13.066
51156W        W17939  21.779  13.448   0.224
51157W        W17940  40.784   1.217  14.533
51158W        W17941  31.050  22.969  11.212
51159W        W17942  42.470  37.989  12.357
51160W        W17943   9.923  34.929   3.472
51161W        W17944  35.613  30.853   1.000
51162W        W17945  24.357  20.084  14.023
51163W        W17946  34.074  22.234  11.891
51164W        W17947  28.104  37.062   4.734
51165W        W17948  32.510  19.004   2.713
51166W        W17949  23.767  32.455  14.280
51167W        W17950  29.434  12.412  14.810
51168W        W17951  41.041  18.130  12.513
51169W        W17952  25.943  35.564  11.989
51170W        W17953  28.887  14.973  11.551
51171W        W17954  31.288  16.619  12.906
51172W        W17955   8.678   4.793   1.406
51173W        W17956  33.397  19.123   2.863
51174W        W17957  38.062   9.872  14.466
51175W        W17958  38.332  19.421  13.501
51176W        W17959  21.966   6.999  11.931
51177W        W17960   1.311  21.675  14.759
51178W        W17961  14.331  36.710  12.775
51179W        W17962  13.521  22.067   2.492
51180W        W17963  26.171  15.768  10.975
51181W        W17964   1.304  44.275  11.599
51182W        W17965  11.262  14.802  13.259
51183W        W17966   4.808  24.939   1.583
51184W        W17967  35.147  43.724  14.531
51185W        W17968  28.076  37.423   1.371
51186W        W17969  10.400   6.783   4.721
51187W        W17970   9.191  41.394   0.457
51188W        W17971   3.468   9.214  11.900
51189W        W17972  13.137  25.170   3.885
51190W        W17973   2.287  15.420  11.917
51191W        W17974  11.601  12.793  10.916
51192W        W17975  17.062  24.232  14.999
51193W        W17976  43.712   9.874   0.764
51194W        W17977  20.746  16.096   0.807
51195W        W17978  37.751  33.585  14.915
51196W        W17979  10.710  12.120  13.485
51197W        W17980  23.621  21.786   0.471
51198W        W17981  31.030  12.828   9.783
51199W        W17982  11.976  37.396  11.006
51200W        W17983   1.333   5.233  13.883
51201W        W17984  33.653  43.473   3.747
51202W        W17985  26.281   4.246  11.618
51203W        W17986  26.997  38.936  12.014
51204W        W17987  16.909  21.072  11.523
51205W        W17988  12.319  36.286   0.784
51206W        W17989  24.666  37.818  11.973
51207W        W17990  18.409  19.750  12.943
51208W        W17991  19.264  15.880   2.014
51209W        W17992  17.785  19.295   2.674
51210W        W17993  30.999   2.814   1.219
51211W        W17994  32.099  34.108  12.578
51212W        W17995  10.599  18.406   3.612
51213W        W17996  36.914  39.570   0.190
51214W        W17997  12.116   5.774   4.434
51215W        W17998  41.118  10.186  13.943
51216W        W17999   8.758  32.425  13.403
51217W        W18000  11.669  23.860   2.351
51218W        W18001   0.873  24.745  14.971
51219W        W18002  34.671  15.838   2.803
51220W        W18003  16.589  41.481  12.999
51221W        W18004   1.175  40.431  10.663
51222W        W18005  34.017  17.546   9.756
51223W        W18006  17.559  35.550  10.588
51224W        W18007   3.454  15.638   0.656
51225W        W18008  20.235  33.181   1.314
51226W        W18009  24.539  40.458  13.041
51227W        W18010  38.996  21.970   3.189
51228W        W18011  19.530  40.462  14.400
51229W        W18012  14.443  28.847  10.866
51230W        W18013   8.524  29.571   0.629
51231W        W18014  37.876  14.325  12.627
51232W        W18015   5.047  38.927  14.562
51233W        W18016   3.687  25.061   3.162
51234W        W18017  11.808  36.555   4.232
51235W        W18018  38.783  32.623  14.383
51236W        W18019  36.762  11.165  11.920
51237W        W18020  36.983  22.293  11.873
51238W        W18021  21.220  20.284   2.298
51239W        W18022  18.561  14.807  12.788
51240W        W18023  44.220   1.460   3.915
51241W        W18024  17.609  35.145  11.688
51242W        W18025  20.501  30.231   1.987
51243W        W18026  33.460  30.724  11.432
51244W        W18027  12.779  22.956   3.985
51245W        W18028   0.201  41.680  12.923
51246W        W18029   0.552  39.362  10.539
51247W        W18030   3.916   7.523  13.608
51248W        W18031  22.882  34.415  14.886
51249W        W18032  12.720  15.819  12.015
51250W        W18033  36.093  14.187  12.251
51251W        W18034  42.626  13.031  11.427
51252W        W18035  22.052   0.928  11.017
51253W        W18036   4.298  13.625   2.357
51254W        W18037  29.336   1.474   3.689
51255W        W18038  22.506  10.105  11.124
51256W        W18039  30.185  12.892  13.540
51257W        W18040  34.840  32.546   1.681
51258W        W18041   4.219   8.102   0.676
51259W        W18042  39.822   6.861   2.623
51260W        W18043  20.101  43.525   0.960
51261W        W18044   4.332   2.318  10.717
51262W        W18045  11.827  37.587   1.730
51263W        W18046  17.304  30.575   1.313
51264W        W18047  20.569  18.758  13.672
51265W        W18048  10.782  31.550   1.749
51266W        W18049  41.696   9.076  12.915
51267W        W18050   0.104  30.999  14.024
51268W        W18051   9.058   8.671   2.337
51269W        W18052  14.321  33.818   4.207
51270W        W18053  33.914  34.980  11.620
51271W        W18054   0.454   6.433  12.853
51272W        W18055   1.445  34.170  14.502
51273W        W18056  35.302  33.373  11.189
51274W        W18057  11.195  19.292  11.474
51275W        W18058  43.358  28.763  14.972
51276W        W18059   8.790  21.145  13.394
51277W        W18060   0.820  40.453   4.493
51278W        W18061  35.064  44.349  10.235
51279W        W18062  36.597  37.437   2.373
51280W        W18063  11.747  32.685   3.973
51281W        W18064  12.205  38.587   3.267
51282W        W18065  28.150  24.412  13.958
51283W        W18066  23.041   9.649   3.784
51284W        W18067   7.483  28.519  14.624
51285W        W18068   8.126  19.327  10.424
51286W        W18069   6.715  17.155   3.300
51287W        W18070  13.635  10.649   3.282
51288W        W18071  29.999  18.049   1.749
51289W        W18072  41.606  15.137  14.347
51290W        W18073  20.038  31.333  11.529
51291W        W18074  10.839  15.620   4.559
51292W        W18075   7.835  17.799  14.575
51293W        W18076  36.376   0.897  13.906
51294W        W18077  41.873  30.557  12.867
51295W        W18078   4.738  19.798  13.502
51296W        W18079  32.647  16.298   4.122
51297W        W18080  41.926   3.452   2.027
51298W        W18081  36.522  20.167   2.865
51299W        W18082  35.389  20.511  13.897
51300W        W18083   1.743  32.898   1.134
51301W        W18084  41.960  22.812  11.543
51302W        W18085  12.367   3.846   4.580
51303W        W18086   4.630  38.862  14.213
51304W        W18087  38.246  25.710   0.823
51305W        W18088  27.742  36.009  13.038
51306W        W18089   5.974  32.606   1.872
51307W        W18090  16.818  31.396   4.575
51308W        W18091  21.231   6.593  12.088
51309W        W18092   3.278   3.465   0.906
51310W        W18093  30.027  40.648  12.722
51311W        W18094  42.280  31.598  11.560
51312W        W18095  18.221   0.223   0.949
51313W        W18096  25.533   7.166  10.689
51314W        W18097  18.042  33.429  14.160
51315W        W18098  19.659  13.236   1.755
51316W        W18099  32.724  31.438   4.141
51317W        W18100  40.060  10.598  14.385
51318W        W18101  39.847  35.988   4.156
51319W        W18102   8.661  40.769   0.569
51320W        W18103  14.331  14.571  13.362
51321W        W18104  28.089  11.220  10.601
51322W        W18105  15.343   4.626   2.750
51323W        W18106  33.886  22.474   1.421
51324W        W18107  24.493  13.285  13.888
51325W        W18108  29.916   5.244   2.303
51326W        W18109   8.360  20.583   3.562
51327W        W18110   6.263   4.973   1.458
51328W        W18111  18.196   2.942   1.388
51329W        W18112  28.057  41.613   3.367
51330W        W18113  37.406  20.932  12.569
51331W        W18114  18.834  31.212  11.922
51332W        W18115  38.474  18.057  11.204
51333W        W18116  18.942  26.095   3.642
51334W        W18117   4.462  22.912  12.814
51335W        W18118  42.861   0.108   4.329
51336W        W18119  11.076  14.230  12.545
51337W        W18120  12.787   1.370   4.604
51338W        W18121  18.928  28.894  12.945
51339W        W18122  33.390   1.934   2.689
51340W        W18123  38.615  12.798   3.661
51341W        W18124  44.496  43.412  11.642
51342W        W18125   4.124  25.458  12.115
51343W        W18126  39.836  41.994  14.377
51344W        W18127  21.969  32.847   1.306
51345W        W18128  12.565  25.146  12.387
51346W        W18129  10.258  26.153  13.014
51347W        W18130  18.730  22.179  13.463
51348W        W18131  15.642  41.382  11.877
51349W        W18132  34.107  22.158   0.437
51350W        W18133   8.423  37.395   1.768
51351W        W18134   0.530  24.554   1.792
51352W        W18135  20.004  40.295   3.261
51353W        W18136  19.727  41.196   0.723
51354W        W18137  12.219  15.044  11.953
51355W        W18138  33.459  27.115   4.029
51356W        W18139  33.907  23.009  14.567
51357W        W18140  12.430  17.626  12.513
51358W        W18141   8.258  44.245  14.683
51359W        W18142  37.349  13.668   1.019
51360W        W18143  15.959  22.987  12.954
51361W        W18144   6.943   1.466  11.458
51362W        W18145  10.383  29.466   1.474
51363W        W18146  23.424  41.629  10.987
51364W        W18147  41.032   9.278  14.780
51365W        W18148  33.452  27.088  12.950
51366W        W18149  43.680   2.009  14.591
51367W        W18150  41.266   5.774  11.079
51368W        W18151   8.380   6.116  13.603
51369W        W18152  34.549  36.180  10.596
51370W        W18153   2.789   6.013  13.375
51371W        W18154  41.600  42.367   0.392
51372W        W18155  19.188   2.973  14.399
51373W        W18156  24.391  32.225  10.671
51374W        W18157  14.779  33.514  10.107
51375W        W18158   8.192  24.013  12.901
51376W        W18159  22.644  37.809  14.161
51377W        W18160  44.436  38.602  11.182
51378W        W18161  25.206  29.413   3.288
51379W        W18162   5.297  42.022   0.296
51380W        W18163   3.559   5.241   0.474
51381W        W18164  34.661  29.399   1.368
51382W        W18165   5.081  20.698   3.835
51383W        W18166  18.564   5.200   4.077
51384W        W18167  37.994  35.119   4.998
51385W        W18168  19.139  20.097   1.914
51386W        W18169  16.791   5.278  11.148
51387W        W18170   0.070  43.992  13.371
51388W        W18171  40.991  29.440   1.053
51389W        W18172  29.311   8.775   2.915
51390W        W18173   5.727  18.641  10.959
51391W        W18174  43.258  29.853  10.622
51392W        W18175  15.117  12.887  13.288
51393W        W18176  13.823  33.077  10.670
51394W        W18177  12.817  31.946   0.046
51395W        W18178  11.750  14.357   2.318
51396W        W18179  35.089  11.064  13.049
51397W        W18180  19.105  18.492  14.911
51398W        W18181  39.311   2.867   1.604
51399W        W18182   8.193  40.586   0.384
51400W        W18183  34.195  12.883  11.873
51401W        W18184  12.109  19.325   4.513
51402W        W18185  11.716  43.824  11.866
51403W        W18186  34.553  41.930   3.129
51404W        W18187  15.054  15.908   4.942
51405W        W18188   8.753  29.036   3.242
51406W        W18189  30.185  22.677  10.216
51407W        W18190  19.644  17.645   3.270
51408W        W18191  34.494  24.892   1.841
51409W        W18192  28.900  20.511   0.954
51410W        W18193  38.188  38.414   2.396
51411W        W18194  29.589  43.927  10.642
51412W        W18195  37.407   6.774   0.846
51413W        W18196  23.218   1.075   5.556
51414W        W18197  22.093   6.768  12.377
51415W        W18198  19.724  20.570  14.453
51416W        W18199  31.377  30.944  13.398
51417W        W18200  42.760   1.254  13.823
51418W        W18201  17.665  16.011  14.788
51419W        W18202  40.907  43.746   3.151
51420W        W18203  21.041   2.318  10.038
51421W        W18204  37.496   7.837   5.383
51422W        W18205  37.918  10.817   4.551
51423W        W18206  23.198  31.367   3.162
51424W        W18207  41.539  10.806  14.550
51425W        W18208  21.263  20.123   0.286
51426W        W18209  41.070   9.693   2.605
51427W        W18210   8.073  36.630  11.726
51428W        W18211  18.193  35.461   1.835
51429W        W18212   6.136  12.114   1.286
51430W        W18213  11.784   3.327   3.362
51431W        W18214  34.059  40.312  13.025
51432W        W18215  31.669  40.601   1.919
51433W        W18216  19.566  30.578  12.563
51434W        W18217  24.557  35.089   2.478
51435W        W18218  24.941  24.624   3.815
51436W        W18219  38.557  26.636  11.939
51437W        W18220  15.644  37.066   0.817
51438W        W18221  14.563  13.154   0.762
51439W        W18222   8.968  25.989  10.236
51440W        W18223  32.979  29.087   4.770
51441W        W18224  38.440  40.025  13.057
51442W        W18225  17.516  30.563   2.773
51443W        W18226   5.582   1.858   2.816
51444W        W18227  43.326  20.242  14.938
51445W        W18228  35.766  30.738  11.701
51446W        W18229  37.001  15.602   0.826
51447W        W18230  37.970  22.669   2.796
51448W        W18231  43.064  27.356  11.558
51449W        W18232  19.519  32.618  13.815
51450W        W18233  27.204  31.699   3.164
51451W        W18234  41.025   9.055   1.252
51452W        W18235   1.249  18.284   2.298
51453W        W18236  22.617   5.586  14.912
51454W        W18237  44.354  29.449   3.827
51455W        W18238   4.752  14.272  12.063
51456W        W18239  25.990  44.552  14.458
51457W        W18240   3.086  26.532   1.823
51458W        W18241  12.795  30.133   2.221
51459W        W18242   8.922  13.375  13.844
51460W        W18243  25.369   0.778  13.484
51461W        W18244  30.604  15.908   4.678
51462W        W18245   5.195  41.548   2.873
51463W        W18246  15.859   6.908  11.097
51464W        W18247  31.934   1.634   2.867
51465W        W18248  37.695   0.587  10.444
51466W        W18249   5.160  14.457   1.181
51467W        W18250  25.074  18.064  12.495
51468W        W18251  18.427  39.446   2.294
51469W        W18252  31.888   2.899  13.886
51470W        W18253  37.457  21.858   0.921
51471W        W18254   4.266  27.452   0.380
51472W        W18255  42.455  14.547  13.360
51473W        W18256  27.019  15.220  11.135
51474W        W18257  28.092  31.331   0.314
51475W        W18258   9.117  21.999   4.641
51476W        W18259  38.124  15.195   2.378
51477W        W18260  20.141  43.039   9.644
51478W        W18261   4.778  43.264   1.337
51479W        W18262  26.668  12.696  11.414
51480W        W18263   7.866  11.817  12.405
51481W        W18264  32.585  16.847  11.680
51482W        W18265  13.768  34.639  10.929
51483W        W18266   8.258  11.235   0.612
51484W        W18267  27.195  18.970  14.898
51485W        W18268  24.226  27.613   0.486
51486W        W18269  25.059  41.574  11.395
51487W        W18270  30.519  17.847   2.378
51488W        W18271   3.963  38.518  12.115
51489W        W18272  10.650  32.083   4.936
51490W        W18273   1.558  28.563  10.695
51491W        W18274  23.825  28.541  14.235
51492W        W18275   1.951  10.900  12.152
51493W        W18276  34.253  13.679   2.696
51494W        W18277  20.750   2.491   1.881
51495W        W18278  24.178   5.715   0.365
51496W        W18279  20.638   1.033   4.626
51497W        W18280  41.089  13.143  14.237
51498W        W18281  10.441  34.436   0.196
51499W        W18282  40.188  17.375  12.059
51500W        W18283  13.340  37.774  14.663
51501W        W18284  28.547  24.197   3.645
51502W        W18285   6.689  23.793   4.480
51503W        W18286  21.086  35.030  14.545
51504W        W18287  17.201  27.074  11.950
51505W        W18288  42.498  16.726  11.714
51506W        W18289  30.609  13.614   1.954
51507W        W18290  41.081  41.480   0.458
51508W        W18291  21.712  16.664  13.369
51509W        W18292  28.655  22.440  12.107
51510W        W18293  28.800   8.416  13.065
51511W        W18294  11.232  10.799  14.401
51512W        W18295  31.996  25.460   4.995
51513W        W18296  21.164  17.762  13.845
51514W        W18297  11.301  35.583  11.675
51515W        W18298  33.576  21.912   1.194
51516W        W18299  29.265  35.600  13.779
51517W        W18300   2.268  30.292   3.078
51518W        W18301  33.005   3.498  11.400
51519W        W18302  17.997  24.190  11.351
51520W        W18303  35.374  15.340  13.191
51521W        W18304  22.807   8.125   2.715
51522W        W18305   7.279  11.764   1.593
51523W        W18306   5.641  38.808   2.586
51524W        W18307  17.737   1.666   1.404
51525W        W18308  16.672   3.390  11.832
51526W        W18309  33.078  24.200  10.118
51527W        W18310  25.721  38.043  11.571
51528W        W18311  20.247   0.481   5.190
51529W        W18312  32.043  17.568  13.249
51530W        W18313   0.612  31.455   0.121
51531W        W18314  27.734  14.293  13.023
51532W        W18315  33.942  42.831  13.549
51533W        W18316   0.362  34.545  14.403
51534W        W18317   2.323   9.862   3.424
51535W        W18318   0.247  10.346   0.786
51536W        W18319  17.810  27.429  13.820
51537W        W18320   3.018  33.171   2.326
51538W        W18321  38.860  34.352  11.117
51539W        W18322   8.168  13.681  13.309
51540W        W18323  33.096   7.969  10.753
51541W        W18324   6.381  27.892   4.619
51542W        W18325  35.927   4.297  14.820
51543W        W18326   1.593   8.763  14.445
51544W        W18327  40.090  22.533  11.428
51545W        W18328   1.193  10.335  12.546
51546W        W18329  37.579  28.192   4.553
51547W        W18330  11.413  31.156  13.714
51548W        W18331   0.552  15.553  12.445
51549W        W18332  12.654  24.126   4.491
51550W        W18333  25.652  27.540   1.025
51551W        W18334  22.639  24.569   0.704
51552W        W18335  28.414  19.161   1.251
51553W        W18336  25.988  35.226  14.280
51554W        W18337  26.531  16.810   3.375
51555W        W18338  20.573  33.565  12.158
51556W        W18339  10.096  21.664   3.068
51557W        W18340   7.801  18.171  13.931
51558W        W18341   4.880  32.943  11.595
51559W        W18342  41.863  17.716   1.676
51560W        W18343  37.016  28.719   0.727
51561W        W18344  11.195   9.161   4.158
51562W        W18345  11.198  17.102  13.573
51563W        W18346  13.429  33.822  11.194
51564W        W18347   0.962  23.537   1.836
51565W        W18348  27.501   6.651  13.371
51566W        W18349  20.713  18.663  13.145
51567W        W18350  37.883  14.926   2.795
51568W        W18351  35.348  28.686  10.429
51569W        W18352   5.786  37.839  11.859
51570W        W18353  25.127   0.014   2.318
51571W        W18354  19.492  11.023   0.738
51572W        W18355  25.982  12.755   4.158
51573W        W18356  37.057  16.581  12.677
51574W        W18357   4.263  19.310  13.834
51575W        W18358  36.097   8.971  14.435
51576W        W18359  44.870  30.571   3.258
51577W        W18360  32.291  24.586   0.487
51578W        W18361  22.658  18.220  10.703
51579W        W18362  11.238  20.441  13.401
51580W        W18363  15.419  14.080  14.184
51581W        W18364   8.791  30.904   1.587
51582W        W18365  37.435  18.196  11.670
51583W        W18366  42.903  34.351   2.091
51584W        W18367  12.423  21.466  14.277
51585W        W18368  29.804  40.500   0.042
51586W        W18369   7.345  13.587   0.321
51587W        W18370  23.856  26.081  12.487
51588W        W18371  32.239  30.077   1.676
51589W        W18372  33.014  40.105  14.696
51590W        W18373  13.156  41.025  13.082
51591W        W18374  11.056  35.129  12.475
51592W        W18375   5.825   1.063  12.353
51593W        W18376   3.181  15.218  14.478
51594W        W18377  19.704   7.139  12.631
51595W        W18378   0.351  20.451   4.106
51596W        W18379  33.639  10.132  14.910
51597W        W18380  21.157  35.393   4.116
51598W        W18381  36.077  26.568   4.186
51599W        W18382   2.998  41.333   3.764
51600W        W18383  15.188   8.271   2.786
51601W        W18384  12.746  29.710  13.523
51602W        W18385  28.959   6.740  13.897
51603W        W18386  44.826  44.877   2.559
51604W        W18387  33.423  38.915   0.177
51605W        W18388  43.891   2.244   4.469
51606W        W18389   4.771  33.154   3.006
51607W        W18390  17.782  13.193   4.099
51608W        W18391   5.562  13.071  11.436
51609W        W18392  19.565  28.356  11.383
51610W        W18393  12.660  18.665  13.378
51611W        W18394  16.001  38.118   3.225
51612W        W18395  31.598  27.143   2.790
51613W        W18396  34.042  34.625   0.235
51614W        W18397   3.231  15.227   4.236
51615W        W18398  17.038   0.800  13.040
51616W        W18399  18.808  26.396  13.159
51617W        W18400  39.357   3.810  14.555
51618W        W18401  35.923  39.056   4.074
51619W        W18402   1.477  12.186   2.837
51620W        W18403  32.123  25.274   4.524
51621W        W18404  36.557   4.999   1.857
51622W        W18405  17.789   0.030  13.487
51623W        W18406  19.581  16.552   3.720
51624W        W18407   7.224  41.997   4.155
51625W        W18408  39.156  10.071   4.882
51626W        W18409  13.319  27.020  14.706
51627W        W18410  20.438  20.489  13.751
51628W        W18411  40.888  26.566  13.550
51629W        W18412   6.889  43.105  12.851
51630W        W18413   0.452  32.400   4.976
51631W        W18414  10.634  21.313  14.583
51632W        W18415  44.487   9.037  13.463
51633W        W18416  33.278  36.333   3.693
51634W        W18417   5.011  30.294   0.408
51635W        W18418  30.495  25.916  10.691
51636W        W18419   4.701  21.757  13.994
51637W        W18420  34.386   1.460   2.192
51638W        W18421   8.943  31.018  14.952
51639W        W18422   3.101  32.595   3.103
51640W        W18423   9.688   0.664  10.567
51641W        W18424  30.007  44.441  14.451
51642W        W18425  11.130  20.901  13.560
51643W        W18426  32.000  29.462  10.666
51644W        W18427  41.504  19.119   2.748
51645W        W18428  27.474  19.563   3.702
51646W        W18429   2.792  36.353   0.042
51647W        W18430  30.934  22.762  10.740
51648W        W18431  28.361  14.159  11.464
51649W        W18432  35.863   9.459   2.168
51650W        W18433  21.527  31.037  13.384
51651W        W18434  29.172  42.971   0.481
51652W        W18435  32.028  37.074   3.735
51653W        W18436   1.902  25.606  13.928
51654W        W18437  43.912  43.288   2.413
51655W        W18438  17.409  41.507  11.399
51656W        W18439  18.544  44.947   4.733
51657W        W18440   3.985  20.298   4.630
51658W        W18441  17.332  23.746  14.960
51659W        W18442   9.881  43.965  10.914
51660W        W18443  22.175   7.645   1.500
51661W        W18444   1.062  11.392  13.514
51662W        W18445  12.162  24.575  14.483
51663W        W18446  40.286   0.924   4.106
51664W        W18447  11.614   2.995   2.176
51665W        W18448   4.654  40.838   0.792
51666W        W18449   2.891  44.622   1.764
51667W        W18450  19.162  16.074  11.427
51668W        W18451  36.855  11.104   0.204
51669W        W18452  25.542   0.517   4.995
51670W        W18453  19.473  25.978  10.745
51671W        W18454  33.590   6.518   1.320
51672W        W18455  34.372  17.370  12.855
51673W        W18456   4.210  11.739   3.364
51674W        W18457  12.852  36.012  12.107
51675W        W18458   2.226  23.757  10.939
51676W        W18459  32.530  21.261   2.165
51677W        W18460  31.136  28.879   2.574
51678W        W18461  30.327  36.418   1.094
51679W        W18462   7.174  22.272  13.566
51680W        W18463   4.424  44.304  14.827
51681W        W18464  25.657  15.839  14.314
51682W        W18465  25.450   8.279  12.522
51683W        W18466  43.708   0.869  13.461
51684W        W18467  14.458  12.319  14.858
51685W        W18468  22.647   6.591  13.475
51686W        W18469  40.898  12.949  13.039
51687W        W18470  20.549  11.582   2.230
51688W        W18471  10.272   8.334  13.218
51689W        W18472   9.707   4.851   3.593
51690W        W18473  29.633   8.763  12.925
51691W        W18474  39.533   6.190   1.882
51692W        W18475  14.096  41.696   2.664
51693W        W18476  15.861   0.482  11.010
51694W        W18477  22.689   6.225  11.681
51695W        W18478  41.422  25.872  11.087
51696W        W18479  31.055  38.344  13.754
51697W        W18480  21.773  41.498  12.093
51698W        W18481  14.176  41.329   4.569
51699W        W18482  17.093  43.545  14.004
51700W        W18483  17.154  44.472  10.052
51701W        W18484  18.982  27.678  11.217
51702W        W18485  17.481  20.282   3.138
51703W        W18486  17.797   7.131   0.873
51704W        W18487  29.395  22.684   3.621
51705W        W18488   4.836   8.472  14.276
51706W        W18489  21.723  23.182  11.921
51707W        W18490  36.644   8.923  10.709
51708W        W18491   1.492  28.279  13.404
51709W        W18492  30.809  12.993   0.767
51710W        W18493  32.415  35.720   3.627
51711W        W18494  41.341   5.436  12.141
51712W        W18495  31.955  24.064   2.269
51713W        W18496  24.131  19.565   9.901
51714W        W18497  38.915  34.587   4.606
51715W        W18498  14.875  24.602  13.730
51716W        W18499   0.074  24.119  13.375
51717W        W18500   2.662   6.818   3.321
51718W        W18501   2.175  37.739   0.759
51719W        W18502   5.457  28.060   3.244
51720W        W18503  21.611  14.644  14.088
51721W        W18504  18.304  15.195   4.114
51722W        W18505  36.914  39.250  14.767
51723W        W18506   1.396   7.833  13.640
51724W        W18507  31.504  17.263  11.573
51725W        W18508  34.966  37.958  11.235
51726W        W18509  35.974  19.167   2.033
51727W        W18510   0.787   9.828   1.820
51728W        W18511  24.138  18.055  12.400
51729W        W18512   3.454   9.704  13.496
51730W        W18513  34.274  19.939  11.654
51731W        W18514  43.118  29.618   3.162
51732W        W18515   5.778  37.116   2.344
51733W        W18516   7.584  42.777  10.290
51734W        W18517   4.460  33.480   0.460
51735W        W18518   4.328   5.656  12.051
51736W        W18519  33.120  42.335   4.152
51737W        W18520  21.649  21.931  14.202
51738W        W18521   0.039   2.413  11.154
51739W        W18522  37.057  13.435   0.657
51740W        W18523  20.797   2.413  11.888
51741W        W18524   7.849  12.140  13.917
51742W        W18525   6.461   4.142   1.795
51743W        W18526  42.516  41.346  12.962
51744W        W18527   1.123  24.241   2.438
51745W        W18528  43.271  29.691  14.027
51746W        W18529  38.013   8.831  14.421
51747W        W18530   3.932  44.470  14.853
51748W        W18531  26.693  31.087   3.016
51749W        W18532  27.702  31.026   1.986
51750W        W18533  13.988  26.996  13.930
51751W        W18534   4.629  34.558   4.705
51752W        W18535  17.597  11.672   1.272
51753W        W18536  28.166  34.915   0.528
51754W        W18537  44.582  43.733  13.463
51755W        W18538  17.653  21.546  13.725
51756W        W18539  21.146   3.382   1.754
51757W        W18540  39.237  15.814   4.406
51758W        W18541  35.904   2.919  13.557
51759W        W18542  26.489   0.855  14.424
51760W        W18543  20.804  21.568  10.491
51761W        W18544  21.037  15.318   4.503
51762W        W18545  21.072   8.401  13.406
51763W        W18546  10.271  36.755   5.083
51764W        W18547  18.336  43.757   2.252
51765W        W18548  43.019   9.912   4.263
51766W        W18549  31.806  34.922  14.430
51767W        W18550  29.839   5.815  10.500
51768W        W18551   3.477  32.095   3.360
51769W        W18552  43.776  20.129   3.211
51770W        W18553   2.108  19.652   0.401
51771W        W18554  39.345   3.919   2.380
51772W        W18555  38.013   0.917  10.812
51773W        W18556  36.574  16.665   2.591
51774W        W18557  21.637   8.218   3.970
51775W        W18558  21.213  42.751   3.826
51776W        W18559  15.086  30.953   1.848
51777W        W18560  29.137  21.624  13.020
51778W        W18561  30.043   1.878  11.559
51779W        W18562  13.869  32.906  13.790
51780W        W18563  30.172   3.209  11.627
51781W        W18564  39.056   0.623   4.807
51782W        W18565  43.385   5.141  14.123
51783W        W18566  33.093   4.206  10.609
51784W        W18567  42.223  38.940  14.338
51785W        W18568  13.870   8.097   1.271
51786W        W18569  16.409  25.784  12.126
51787W        W18570   4.225  38.479   2.014
51788W        W18571   3.430  36.252  11.129
51789W        W18572  36.361  22.665  13.549
51790W        W18573   5.243  43.996   0.439
51791W        W18574  16.695  15.131  12.084
51792W        W18575  25.869  40.242   1.851
51793W        W18576   9.735  39.245  14.434
51794W        W18577  15.559  23.692  11.463
51795W        W18578  18.823  31.592   1.337
51796W        W18579   7.301  10.711  13.035
51797W        W18580   8.877  29.028   0.826
51798W        W18581  32.385   9.842  13.125
51799W        W18582  37.112  11.779   4.138
51800W        W18583   3.399   3.170   0.474
51801W        W18584  12.085  18.767  14.541
51802W        W18585  19.223  14.929   1.364
51803W        W18586  40.454  22.975   2.668
51804W        W18587  32.022  37.548  14.316
51805W        W18588  39.060  11.218  13.643
51806W        W18589  27.393   0.940   0.161
51807W        W18590  42.966   2.884   3.354
51808W        W18591  24.715  18.512   3.194
51809W        W18592   0.001  24.274  14.910
51810W        W18593  19.747  32.497  12.869
51811W        W18594  18.746  23.066  13.165
51812W        W18595  26.280  39.401   3.462
51813W        W18596  23.047   4.286   2.671
51814W        W18597  14.125   5.677   2.880
51815W        W18598  36.475   4.957   0.303
51816W        W18599  18.279  13.479   5.188
51817W        W18600  15.050  18.091   3.349
51818W        W18601  14.173   6.103   3.162
51819W        W18602  43.447  16.212  13.310
51820W        W18603  24.435   8.846   2.370
51821W        W18604  13.339   6.788  12.604
51822W        W18605   6.915  32.318   0.845
51823W        W18606   8.789  33.963   2.859
51824W        W18607  40.522  29.186   1.302
51825W        W18608  35.626  28.409   0.039
51826W        W18609  36.614  21.728   3.696
51827W        W18610   2.461  13.227   4.742
51828W        W18611   4.370  19.441   4.844
51829W        W18612  32.097   7.667   3.212
51830W        W18613  20.073   9.304   4.845
51831W        W18614  25.553  43.780   1.285
51832W        W18615   2.411  44.157   2.230
51833W        W18616  42.435  34.986   1.214
51834W        W18617   3.296   1.315   2.919
51835W        W18618  17.690   9.915  12.545
51836W        W18619  44.056  42.769  13.441
51837W        W18620   5.788  24.160  11.959
51838W        W18621   0.336   4.882  11.432
51839W        W18622  19.074  12.809  13.885
51840W        W18623  27.129  42.795  12.025
51841W        W18624  41.029  28.687   3.141
51842W        W18625  11.877  38.610  10.656
51843W        W18626   7.027  36.443  12.071
51844W        W18627   9.547   1.306   2.769
51845W        W18628   1.880  41.412   1.239
51846W        W18629   6.193  11.394   0.713
51847W        W18630  38.683  38.419  10.648
51848W        W18631  40.867   3.880   2.317
51849W        W18632  22.473  21.143   1.147
51850W        W18633  22.468  38.487  14.430
51851W        W18634   1.262  19.624   2.851
51852W        W18635   0.915   6.480  14.510
51853W        W18636  20.447  42.028   3.241
51854W        W18637  40.537  14.092  14.358
51855W        W18638  24.341  27.659   4.950
51856W        W18639  30.546  18.800   3.121
51857W        W18640  17.644  20.225   1.259
51858W        W18641  43.213  17.383  12.040
51859W        W18642  38.363  35.856   3.475
51860W        W18643   4.468  23.238   4.076
51861W        W18644  12.729   3.966  13.008
51862W        W18645  30.994   8.822   4.459
51863W        W18646  32.457   0.722   2.158
51864W        W18647  33.097  19.122  10.351
51865W        W18648   8.823   9.582   0.895
51866W        W18649  20.241  39.606   2.732
51867W        W18650  40.534  17.019  12.107
51868W        W18651  14.302   4.789  14.984
51869W        W18652  22.446   8.732   0.385
51870W        W18653  34.169  29.653  13.795
51871W        W18654  43.372  36.957  13.882
51872W        W18655  33.384  32.883  13.254
51873W        W18656   9.994  41.220  14.416
51874W        W18657  17.153  28.879  12.158
51875W        W18658  39.973  10.789   4.659
51876W        W18659  35.746   3.486  12.985
51877W        W18660   5.748  21.145  14.552
51878W        W18661  36.564  42.637  14.806
51879W        W18662  40.874  14.803  13.069
51880W        W18663  37.724   2.990  11.974
51881W        W18664  32.013  44.230  14.683
51882W        W18665  29.461   4.767  13.360
51883W        W18666  15.848  16.405  12.312
51884W        W18667  17.333   5.332  13.028
51885W        W18668  23.544  39.571  10.019
51886W        W18669  23.959  24.674  13.742
51887W        W18670  24.591  21.734   2.271
51888W        W18671   9.339  40.817  10.562
51889W        W18672  31.633   8.316   4.050
51890W        W18673  17.085  22.680  14.074
51891W        W18674   3.975  21.192   2.802
51892W        W18675  42.851  23.708   0.800
51893W        W18676  40.847  20.064  14.931
51894W        W18677  14.710  17.492  14.338
51895W        W18678  13.134   5.018  11.781
51896W        W18679  41.997  29.526  11.154
51897W        W18680  35.566   5.876   1.836
51898W        W18681  20.192  25.544   4.650
51899W        W18682  41.593  30.656  11.998
51900W        W18683  23.546   8.657  14.979
51901W        W18684  43.535  26.631   0.550
51902W        W18685  14.434  43.924  12.435
51903W        W18686  11.114  42.878   4.107
51904W        W18687  31.036   3.490  13.346
51905W        W18688  18.745  32.440  12.460
51906W        W18689  40.053  14.143  13.605
51907W        W18690  10.160  25.202  11.468
51908W        W18691  10.803  32.455  14.217
51909W        W18692  25.743   6.824   3.198
51910W        W18693  35.478  17.987   2.287
51911W        W18694  24.222  21.770   0.872
51912W        W18695  13.811  40.519   1.716
51913W        W18696  37.564  32.023  12.136
51914W        W18697   1.909  42.072  13.335
51915W        W18698  15.861  15.055   5.687
51916W        W18699  37.465  11.654   1.432
51917W        W18700   8.155  36.886   3.114
51918W        W18701   0.222  22.712  14.332
51919W        W18702  18.829   0.518  12.888
51920W        W18703   9.375  16.255   3.099
51921W        W18704   1.889  35.876   3.810
51922W        W18705  10.390   4.260   0.284
51923W        W18706  20.817  31.918   1.153
51924W        W18707  40.723  36.537   3.026
51925W        W18708   4.728  18.077  11.514
51926W        W18709  13.302  36.098  13.872
51927W        W18710  43.916  22.055  14.595
51928W        W18711  20.331  19.491   9.947
51929W        W18712  44.596  15.035  11.005
51930W        W18713  25.938  18.971  13.721
51931W        W18714  13.671  44.211   3.215
51932W        W18715  19.893  25.506  14.433
51933W        W18716  41.580  39.200  10.993
51934W        W18717   0.813   0.893  12.094
51935W        W18718  33.367  11.259   3.401
51936W        W18719  38.852  30.239  10.991
51937W        W18720  19.018  28.102  14.254
51938W        W18721  14.800  40.824  11.965
51939W        W18722  18.113   3.231   0.842
51940W        W18723  23.017  37.182   0.823
51941W        W18724  35.095   1.251  13.389
51942W        W18725  43.423  12.618  12.372
51943W        W18726  26.141  38.995   3.180
51944W        W18727  28.308   8.427  14.091
51945W        W18728  15.839  12.422   4.117
51946W        W18729  41.020  36.155   3.959
51947W        W18730  17.029  12.796   2.100
51948W        W18731  10.966  39.441  10.173
51949W        W18732  34.751  34.699  13.271
51950W        W18733  25.407  10.925   3.701
51951W        W18734  20.487  25.541   0.285
51952W        W18735  26.538  10.841   4.174
51953W        W18736  32.979  15.262   3.577
51954W        W18737  31.119  13.745   1.839
51955W        W18738  22.020  31.388  13.951
51956W        W18739  38.347  32.546  14.675
51957W        W18740   4.812   9.681  11.949
51958W        W18741  18.672  24.060  14.344
51959W        W18742  43.783  24.722   2.853
51960W        W18743  19.546  38.159   2.968
51961W        W18744  14.778   8.194   1.184
51962W        W18745  17.612  37.394   4.744
51963W        W18746  35.473  10.154  12.417
51964W        W18747  35.928  32.485  11.304
51965W        W18748  15.672  42.329   1.920
51966W        W18749   1.719  21.756  13.463
51967W        W18750  34.155  20.734  14.478
51968W        W18751   4.906  29.955   4.136
51969W        W18752  32.781  39.856  14.277
51970W        W18753   9.474  40.984   0.317
51971W        W18754  39.789  32.494  11.612
51972W        W18755  41.238   7.820   2.856
51973W        W18756   4.346  20.716   0.675
51974W        W18757  25.245  42.764  12.113
51975W        W18758  18.190  26.857   2.687
51976W        W18759   4.315  33.106   0.796
51977W        W18760  38.724  40.496   1.403
51978W        W18761  20.522   3.337   3.672
51979W        W18762   3.338  19.432  11.612
51980W        W18763  33.004  35.858   0.579
51981W        W18764  22.050   3.239  14.686
51982W        W18765  43.254  27.513  12.037
51983W        W18766  13.869  25.106   5.100
51984W        W18767   9.110  44.940   2.275
51985W        W18768   5.955  36.479  14.865
51986W        W18769  21.194  32.388   4.204
51987W        W18770  38.668   5.442  11.116
51988W        W18771   9.639  17.386   2.241
51989W        W18772  35.161  43.840   2.466
51990W        W18773   1.306  38.676   2.678
51991W        W18774  31.862  37.651  12.611
51992W        W18775  43.833   4.050   1.278
51993W        W18776  32.395  24.179   0.837
51994W        W18777  17.098  20.232  12.428
51995W        W18778  44.936  32.751  13.090
51996W        W18779  32.512  30.720   0.324
51997W        W18780  36.478   4.208  13.396
51998W        W18781  33.930  36.893   1.156
51999W        W18782  29.609  38.936  12.458
52000W        W18783  35.145  35.981   2.648
52001W        W18784  19.625   3.485   3.297
52002W        W18785   9.468  41.253  10.784
52003W        W18786   1.732  18.734   2.665
52004W        W18787   8.387  38.351   2.283
52005W        W18788  31.429  40.395  11.256
52006W        W18789  44.407  43.318   0.689
52007W        W18790  39.329  18.503   2.326
52008W        W18791   8.225  38.711   3.612
52009W        W18792   8.905  38.153   0.972
52010W        W18793  10.253  42.700   3.142
52011W        W18794   4.508  15.820  13.065
52012W        W18795  39.520  17.240   0.753
52013W        W18796  24.683  16.413  14.236
52014W        W18797  11.089  32.445  10.913
52015W        W18798  12.555   0.481  11.104
52016W        W18799  38.119  37.437  14.396
52017W        W18800  14.219  31.899  10.756
52018W        W18801  20.092  32.378  14.286
52019W        W18802   5.160  42.009  11.092
52020W        W18803  42.388  16.128  13.926
52021W        W18804   0.760  11.122  14.001
52022W        W18805  18.790  23.529  13.556
52023W        W18806  13.761  16.244  11.522
52024W        W18807   9.921  15.756  14.069
52025W        W18808  27.095  17.296   4.648
52026W        W18809  22.364  42.531   1.139
52027W        W18810   9.936  37.591   2.770
52028W        W18811  11.431  22.652   1.663
52029W        W18812   7.015  26.488   0.261
52030W        W18813   4.269  31.941   1.255
52031W        W18814  11.350  40.750  11.254
52032W        W18815  15.487  29.001   2.613
52033W        W18816   0.777   7.476  14.354
52034W        W18817  29.898   8.722   0.252
52035W        W18818  39.542  11.600  12.577
52036W        W18819  43.148   5.070   4.603
52037W        W18820  30.293  40.311  10.482
52038W        W18821  40.173   1.793  12.540
52039W        W18822  39.336  13.089   3.746
52040W        W18823  43.811  39.578  10.488
52041W        W18824  26.683  20.141   4.539
52042W        W18825  40.050  21.117   0.823
52043W        W18826  35.798  41.548   0.152
52044W        W18827   6.517   3.446  12.800
52045W        W18828   3.615  38.104  11.180
52046W        W18829  33.796  21.108  10.823
52047W        W18830  22.286  38.962  12.949
52048W        W18831   9.338  14.854   2.417
52049W        W18832  40.501  16.994   0.928
52050W        W18833  12.774  44.598  13.309
52051W        W18834  37.096  35.981  14.058
52052W        W18835  36.026  14.667  11.579
52053W        W18836   4.263  31.533   0.937
52054W        W18837  30.747  11.136  14.331
52055W        W18838  22.701  28.346  13.078
52056W        W18839  29.702  32.189   4.550
52057W        W18840  23.745  40.084   1.248
52058W        W18841   9.349  36.606   1.782
52059W        W18842  28.022  39.612  14.558
52060W        W18843  30.076  16.039   1.259
52061W        W18844  33.959  44.486  10.607
52062W        W18845  33.361  43.829   2.841
52063W        W18846  41.507  33.047   4.695
52064W        W18847  44.277  41.961  12.841
52065W        W18848  21.115  14.816  11.214
52066W        W18849  33.494   7.840   2.824
52067W        W18850  34.865  31.408   4.590
52068W        W18851  29.044   0.023   2.735
52069W        W18852  14.726  21.217  14.479
52070W        W18853   9.799  26.514   2.446
52071W        W18854   6.440  29.132  12.478
52072W        W18855   4.946  26.452  12.857
52073W        W18856  12.974  10.842   5.476
52074W        W18857   5.458   0.354   3.666
52075W        W18858  19.477  21.203   1.674
52076W        W18859  40.825  24.599  13.944
52077W        W18860  32.285  19.723  14.720
52078W        W18861  38.336  17.102  12.417
52079W        W18862  14.886   5.251   3.333
52080W        W18863  19.971  42.417   2.687
52081W        W18864   3.063  14.813  13.852
52082W        W18865  29.738   7.786   4.173
52083W        W18866  33.163   9.159   2.717
52084W        W18867   8.820  36.447  12.471
52085W        W18868  16.099   1.738  12.837
52086W        W18869  11.608  17.312  12.060
52087W        W18870  37.878  42.523  10.713
52088W        W18871  16.714   4.721  12.552
52089W        W18872  23.927  21.067  10.251
52090W        W18873  26.601  17.690   1.773
52091W        W18874  24.028  23.714  14.775
52092W        W18875  43.399  28.381   4.142
52093W        W18876  31.714  44.719   2.682
52094W        W18877  11.165  28.714  13.866
52095W        W18878  42.945  10.796   5.437
52096W        W18879  12.676  15.388  13.783
52097W        W18880  11.348  18.120  14.794
52098W        W18881  41.295  17.580   3.673
52099W        W18882   1.446  15.867   2.396
52100W        W18883   6.337  16.385   3.276
52101W        W18884   6.206  15.503   0.028
52102W        W18885  42.856  29.403   3.692
52103W        W18886   3.721  34.960  13.750
52104W        W18887  34.368  15.723  14.002
52105W        W18888   4.580   2.656   1.762
52106W        W18889  27.934  29.174  13.057
52107W        W18890   1.466  10.167  13.805
52108W        W18891  33.850   3.828  11.899
52109W        W18892  18.557   9.697  12.636
52110W        W18893   9.586  26.089   2.234
52111W        W18894  14.101  22.949   3.165
52112W        W18895  10.354   2.259  11.913
52113W        W18896  15.161  27.395   0.855
52114W        W18897  11.391  36.039  14.836
52115W        W18898  15.298  44.669  12.916
52116W        W18899  38.939   9.430   3.583
52117W        W18900   9.052  31.517  14.814
52118W        W18901  14.057  29.866  10.767
52119W        W18902  27.519  13.101   1.987
52120W        W18903  24.085  20.301   3.080
52121W        W18904   4.377  22.678   1.875
52122W        W18905  23.521   0.300   3.779
52123W        W18906  17.540  33.026   2.062
52124W        W18907  26.954  37.415   1.012
52125W        W18908  30.606   9.721   2.337
52126W        W18909  37.880   1.878  11.107
52127W        W18910  29.551   9.293   4.620
52128W        W18911  27.489  28.908  10.628
52129W        W18912  41.104  21.140   1.844
52130W        W18913  41.932  30.858   4.102
52131W        W18914  21.168  19.117  11.516
52132W        W18915  26.800   3.968   1.761
52133W        W18916  33.442  10.341  10.945
52134W        W18917  28.028   9.192   1.229
52135W        W18918  40.993  26.703  11.155
52136W        W18919  39.317   9.795   3.636
52137W        W18920  20.569  42.929   3.722
52138W        W18921  12.881  30.408   0.348
52139W        W18922  18.549  27.927  14.080
52140W        W18923  15.363  33.001   3.231
52141W        W18924  39.579   3.414  10.690
52142W        W18925  15.181   1.797  12.111
52143W        W18926  22.860   7.305   0.510
52144W        W18927   2.573  19.230  13.004
52145W        W18928  30.451  28.730   0.868
52146W        W18929   4.305  20.402  12.986
52147W        W18930  11.077  11.157   0.238
52148W        W18931  11.428   9.133   1.207
52149W        W18932  34.133  16.919  10.683
52150W        W18933   0.852   5.822  14.710
52151W        W18934  20.082  15.249  12.498
52152W        W18935  15.400   7.166  14.821
52153W        W18936   3.865  13.187  14.771
52154W        W18937   9.150   0.407  10.543
52155W        W18938  31.659  40.516   2.446
52156W        W18939  18.310   8.345  10.515
52157W        W18940  11.254  23.426  11.874
52158W        W18941   6.320  18.018  11.260
52159W        W18942   3.263  19.797  11.967
52160W        W18943  29.638   0.985   3.801
52161W        W18944  30.587  35.997   4.726
52162W        W18945  29.115   8.098  13.776
52163W        W18946  29.886   7.708   1.749
52164W        W18947  24.723  41.476  13.081
52165W        W18948  16.020  15.186   0.825
52166W        W18949  44.902  21.229  14.201
52167W        W18950  24.088  14.492   1.780
52168W        W18951  22.508   0.415  11.424
52169W        W18952  15.913  43.006   2.383
52170W        W18953  26.597  22.814   1.528
52171W        W18954   5.839  15.788  11.133
52172W        W18955  31.079  40.389   2.642
52173W        W18956  37.028  12.230  13.540
52174W        W18957  30.419  21.956  12.891
52175W        W18958  31.946  32.608  14.513
52176W        W18959   5.507  35.236   1.981
52177W        W18960  10.274  24.327  14.419
52178W        W18961  20.717  26.055   2.462
52179W        W18962  37.905   5.993   0.763
52180W        W18963  17.655   5.575  13.333
52181W        W18964  34.613  19.649  13.335
52182W        W18965  44.084  44.493  13.713
52183W        W18966  34.571  38.862   3.134
52184W        W18967  15.852   9.199  10.584
52185W        W18968  27.075  36.097  12.639
52186W        W18969  23.497  12.324   4.754
52187W        W18970  30.472  25.628   1.326
52188W        W18971  28.628  34.033   1.953
52189W        W18972  19.088  19.284  10.906
52190W        W18973  35.365  38.922  13.557
52191W        W18974  41.736  44.191   4.084
52192W        W18975  12.359  26.343  14.802
52193W        W18976  14.869   8.813   3.169
52194W        W18977  17.449   6.824   0.169
52195W        W18978  12.882  43.402   3.348
52196W        W18979  37.131  26.292   3.773
52197W        W18980  16.797  39.567   3.223
52198W        W18981   7.985   4.000  10.700
52199W        W18982  26.490   4.245   0.404
52200W        W18983  34.121  38.840   1.392
52201W        W18984   4.277  34.824   2.346
52202W        W18985  11.026  18.313   3.244
52203W        W18986  16.238  25.551   2.313
52204W        W18987  35.930  33.887   3.775
52205W        W18988  19.505   3.268   0.294
52206W        W18989   5.203  39.514   1.297
52207W        W18990  41.537   1.717  10.683
52208W        W18991  31.434  27.947  11.111
52209W        W18992  25.138  34.530  14.867
52210W        W18993  38.393  16.038  14.080
52211W        W18994  19.010  25.743  14.561
52212W        W18995  23.008  11.726   3.813
52213W        W18996  12.236   5.382   4.137
52214W        W18997  13.212  20.728   3.603
52215W        W18998  15.890  37.102  12.394
52216W        W18999  44.163   8.693   3.625
52217W        W19000   9.069  36.343  10.982
52218W        W19001   5.743  20.163  13.381
52219W        W19002   1.962  12.354   2.820
52220W        W19003  37.556   2.522  12.577
52221W        W19004  33.511   2.912   4.399
52222W        W19005  14.326  35.382  14.378
52223W        W19006  26.690  26.897   4.102
52224W        W19007  26.724  28.652   0.514
52225W        W19008  17.319   1.198   4.443
52226W        W19009  20.757  12.489  13.649
52227W        W19010  19.192   6.002  11.621
52228W        W19011  28.195  31.419  14.810
52229W        W19012   8.392  39.309  14.865
52230W        W19013   8.611  41.769   3.208
52231W        W19014   9.575   6.676   4.983
52232W        W19015  44.291  31.503  13.053
52233W        W19016  40.233  36.546   1.443
52234W        W19017  36.486  26.660  10.827
52235W        W19018  43.814  42.362  14.376
52236W        W19019  26.777  23.287   2.802
52237W        W19020   7.940   4.595  12.942
52238W        W19021   6.379  38.057  11.216
52239W        W19022  22.100  22.381   2.755
52240W        W19023  24.573  20.641  12.633
52241W        W19024  33.574   1.208  11.608
52242W        W19025  44.945  30.383  12.734
52243W        W19026  30.859   6.218  14.747
52244W        W19027   1.472   2.318  10.796
52245W        W19028  43.076  31.664   0.561
52246W        W19029  44.997  18.316   0.940
52247W        W19030  21.033  44.543   0.739
52248W        W19031  38.469  35.335  12.518
52249W        W19032  37.778  23.830   3.147
52250W        W19033  11.147   6.158   4.514
52251W        W19034  39.058  27.481  10.802
52252W        W19035  37.763  19.584   0.683
52253W        W19036   8.413  28.296   2.491
52254W        W19037   3.780  23.398   0.522
52255W        W19038  34.563   5.684   9.791
52256W        W19039  21.961   3.986  11.709
52257W        W19040  18.016  16.133  13.009
52258W        W19041  21.562  28.901  10.423
52259W        W19042  44.483  36.409  11.192
52260W        W19043   1.367  11.946   0.880
52261W        W19044  24.390  28.998   2.152
52262W        W19045  38.573  23.961   1.867
52263W        W19046  39.571  39.550   3.254
52264W        W19047  25.638  42.170  14.829
52265W        W19048  34.123   2.676   3.619
52266W        W19049  13.358  43.031  11.153
52267W        W19050  38.216  39.545  13.939
52268W        W19051  37.507   7.861   4.856
52269W        W19052  27.562   4.345  10.604
52270W        W19053   4.243  44.455  10.691
52271W        W19054   1.820  44.093   0.409
52272W        W19055  42.108  22.635   4.935
52273W        W19056  21.283  15.573   4.052
52274W        W19057   4.619   2.405  14.415
52275W        W19058  21.731  31.827  13.919
52276W        W19059  10.773  15.668  12.515
52277W        W19060  44.672  34.127   3.968
52278W        W19061  43.105  13.678   0.410
52279W        W19062  30.038  18.541  11.422
52280W        W19063  34.463  15.274   4.401
52281W        W19064  29.837   9.125  14.800
52282W        W19065  17.116  26.013  11.873
52283W        W19066  30.210  25.165  11.006
52284W        W19067   7.636  18.693  12.586
52285W        W19068   9.414   9.313  11.219
52286W        W19069  14.168  35.917   3.197
52287W        W19070  16.823  29.186   2.116
52288W        W19071   0.768  10.217   0.944
52289W        W19072  31.417  41.471  14.396
52290W        W19073  22.679  20.970  13.195
52291W        W19074   9.896  41.660   4.716
52292W        W19075   7.360  42.762  14.534
52293W        W19076  11.254   2.768   3.934
52294W        W19077  21.434  32.568   0.887
52295W        W19078  32.579  18.570  11.900
52296W        W19079  10.269   3.446  13.727
52297W        W19080  23.115  26.004   4.069
52298W        W19081  23.021  16.795  12.965
52299W        W19082  27.893  43.292  13.010
52300W        W19083  34.510  18.537  11.418
52301W        W19084  27.878  15.348   2.833
52302W        W19085   2.625  28.021   3.351
52303W        W19086  29.740  15.370   0.327
52304W        W19087  14.074  12.653   2.360
52305W        W19088  39.329   2.071  13.989
52306W        W19089   4.207   3.745  13.954
52307W        W19090  26.070  40.675   4.432
52308W        W19091  21.191  24.753   2.129
52309W        W19092   6.179  38.904   0.819
52310W        W19093  43.821   0.954  12.949
52311W        W19094  37.885  34.081   0.077
52312W        W19095  13.198  18.724  12.610
52313W        W19096   9.576  26.135  12.141
52314W        W19097  37.609  43.521   1.356
52315W        W19098  27.480   3.848   4.810
52316W        W19099   3.551   1.275   1.315
52317W        W19100   1.827  10.090   5.181
52318W        W19101  25.764  20.099  14.806
52319W        W19102  31.466  10.670   3.489
52320W        W19103  25.225  10.608   1.943
52321W        W19104  16.689   5.722  12.619
52322W        W19105   4.351   5.764   0.637
52323W        W19106  25.912  30.027   0.774
52324W        W19107   8.796  26.458   0.291
52325W        W19108   7.830  39.515  12.141
52326W        W19109  26.482  16.544   0.723
52327W        W19110  29.445  10.362  13.939
52328W        W19111  37.889  32.272  11.828
52329W        W19112   3.666   1.717  12.492
52330W        W19113  25.402  11.980  12.946
52331W        W19114  15.778  43.905   4.940
52332W        W19115  15.762   4.268  14.512
52333W        W19116  11.773  12.592  14.998
52334W        W19117  31.140  41.044   3.839
52335W        W19118   5.391  28.217   3.754
52336W        W19119  16.887  35.448   4.352
52337W        W19120  40.135  19.762  11.931
52338W        W19121  40.334  14.061   3.753
52339W        W19122  20.778  26.320   5.069
52340W        W19123  16.518   1.861   1.458
52341W        W19124  41.036  27.189  14.301
52342W        W19125  42.914  37.406   3.072
52343W        W19126   0.553  21.745  14.394
52344W        W19127  37.111  28.895  14.428
52345W        W19128  10.976  15.942   2.734
52346W        W19129  42.938  19.820  14.354
52347W        W19130  26.225  30.048  12.846
52348W        W19131   3.859   7.864   1.863
52349W        W19132  20.497  28.158  13.887
52350W        W19133  27.991   2.686   2.244
52351W        W19134  35.081  28.935  12.562
52352W        W19135  12.682   5.678   3.848
52353W        W19136  13.161  17.111  12.932
52354W        W19137  24.228   7.470  13.997
52355W        W19138  10.205  33.405  11.593
52356W        W19139  12.798   3.775  14.344
52357W        W19140   8.407  35.930   0.986
52358W        W19141  24.897   7.163   2.896
52359W        W19142  40.385  36.064   1.216
52360W        W19143  21.110  16.314   0.491
52361W        W19144  13.201  19.216   4.571
52362W        W19145  37.296  14.118   1.277
52363W        W19146  44.729  34.530  11.124
52364W        W19147   8.175   7.774  10.362
52365W        W19148   2.694  37.999  11.859
52366W        W19149   4.323   0.052   1.281
52367W        W19150  15.224  26.501   4.911
52368W        W19151   1.150  32.463   3.202
52369W        W19152  15.590  12.646  11.637
52370W        W19153   7.686  25.247   0.227
52371W        W19154  39.521  22.583   2.685
52372W        W19155   3.329  41.519   0.573
52373W        W19156  23.978  10.187   3.706
52374W        W19157   1.417  43.333  12.123
52375W        W19158  38.089  35.147   4.134
52376W        W19159   3.134   1.736   1.974
52377W        W19160  13.080   8.602   1.612
52378W        W19161  40.576   6.642   2.183
52379W        W19162  33.391   1.870   0.315
52380W        W19163  41.992   5.355  10.442
52381W        W19164   4.176   7.867  13.865
52382W        W19165  43.335  32.366   3.581
52383W        W19166  22.242  12.313  13.927
52384W        W19167  25.127  16.004   0.881
52385W        W19168   2.803  30.629   3.169
52386W        W19169   6.189  35.556   0.798
52387W        W19170  42.276  34.876   3.715
52388W        W19171  37.917  40.481  13.586
52389W        W19172  33.866   2.010  12.159
52390W        W19173  30.009  18.289  14.464
52391W        W19174   5.264   5.394   1.651
52392W        W19175  41.588  30.587  11.123
52393W        W19176  20.711  18.073   4.549
52394W        W19177   0.053  23.626  11.387
52395W        W19178  38.095  22.478   1.455
52396W        W19179   2.271  44.272  13.469
52397W        W19180  20.670   6.004   2.175
52398W        W19181  29.942  36.807  12.499
52399W        W19182  12.695   9.466  11.663
52400W        W19183  29.206  20.048  10.549
52401W        W19184   2.175  31.449  12.420
52402W        W19185  39.389  39.220  11.056
52403W        W19186   3.694  23.810   3.375
52404W        W19187  20.184   6.272   2.221
52405W        W19188  22.687  44.552  11.416
52406W        W19189  12.676  16.916  14.335
52407W        W19190  20.583  19.832   3.863
52408W        W19191  28.322  18.630  14.633
52409W        W19192   0.929  42.036   2.246
52410W        W19193  35.439  38.402   3.422
52411W        W19194   7.242   8.987  10.343
52412W        W19195   3.988  31.491   0.287
52413W        W19196  29.206  40.293  12.092
52414W        W19197  11.823  32.700  10.630
52415W        W19198  14.721  21.093  11.709
52416W        W19199  18.537   4.794   5.066
52417W        W19200  28.100  43.443  11.694
52418W        W19201  14.070  22.128   0.430
52419W        W19202  14.358   2.224   3.271
52420W        W19203  10.267  24.491   3.901
52421W        W19204  20.872  16.855  12.021
52422W        W19205  10.349  32.892   1.821
52423W        W19206  43.239   7.576   1.452
52424W        W19207  34.656  36.991  11.216
52425W        W19208  34.530  28.697  11.458
52426W        W19209   0.655   3.752   3.174
52427W        W19210  10.081   1.869   3.412
52428W        W19211  15.847  28.360  12.027
52429W        W19212  20.487   2.051  11.118
52430W        W19213  40.406  29.940  10.736
52431W        W19214   2.924  25.199   3.665
52432W        W19215  44.754  23.451  10.992
52433W        W19216   5.247   2.871   0.233
52434W        W19217  33.911  24.270   5.314
52435W        W19218  43.966  40.711   4.214
52436W        W19219  39.096  10.537  11.856
52437W        W19220  12.174  12.344  13.482
52438W        W19221  29.464   9.118   0.177
52439W        W19222  33.564  41.913   3.613
52440W        W19223  29.090  36.890  11.199
52441W        W19224   9.533  21.036   2.301
52442W        W19225  26.144  23.175   2.224
52443W        W19226  36.658  15.203   0.819
52444W        W19227  21.146  43.783   0.346
52445W        W19228  43.969  13.161  14.382
52446W        W19229   7.815  23.694  12.083
52447W        W19230  36.035  27.108  13.778
52448W        W19231  25.561   7.170  11.629
52449W        W19232   9.488  41.800  12.845
52450W        W19233  22.075   7.941   1.068
52451W        W19234  36.873  15.311   3.704
52452W        W19235   6.915  41.803  12.154
52453W        W19236   1.991   6.848   0.504
52454W        W19237  18.708   9.396  13.944
52455W        W19238  25.595   6.026   4.133
52456W        W19239  38.639  17.197   3.705
52457W        W19240   1.894  38.668  10.663
52458W        W19241   3.601  19.501   3.733
52459W        W19242  23.583  11.284   4.889
52460W        W19243  37.049  42.847  12.043
52461W        W19244  13.491  21.215   4.469
52462W        W19245  17.190  10.189  11.445
52463W        W19246  42.014  12.113  12.122
52464W        W19247  38.790  22.474  10.514
52465W        W19248  34.145  23.336   5.439
52466W        W19249  25.672   1.881   2.249
52467W        W19250  15.101   1.291  11.191
52468W        W19251  10.821   1.981  10.711
52469W        W19252   8.182  22.242   1.309
52470W        W19253   5.417  11.309   4.683
52471W        W19254  31.459  44.664   4.951
52472W        W19255  26.705   5.208  12.887
52473W        W19256   3.460  26.712   4.233
52474W        W19257  44.393   5.858  13.632
52475W        W19258   8.612  12.158  13.573
52476W        W19259  33.892   9.271   4.113
52477W        W19260   2.854  23.317  12.506
52478W        W19261   6.901  19.828  13.877
52479W        W19262  25.957  43.270   4.970
52480W        W19263  14.409   9.269   5.429
52481W        W19264  31.141  10.142  11.604
52482W        W19265   4.644  24.712  12.380
52483W        W19266  44.413  20.083   2.905
52484W        W19267   2.395   1.204   3.719
52485W        W19268  35.989  34.172  14.289
52486W        W19269  38.386  18.209  13.969
52487W        W19270  36.642  22.135   1.284
52488W        W19271  44.829  21.360   4.765
52489W        W19272  32.188  41.947   4.825
52490W        W19273  26.753  29.660  12.015
52491W        W19274   5.737  21.093  11.986
52492W        W19275  36.752  30.544  10.770
52493W        W19276   2.774  30.112   3.218
52494W        W19277  31.393  42.397   0.320
52495W        W19278  40.246  30.652  12.462
52496W        W19279  40.440  33.492   2.805
52497W        W19280  44.726  31.426  14.995
52498W        W19281  42.879  36.792  13.705
52499W        W19282  40.225  14.768   0.741
52500W        W19283  37.516  27.157   1.441
52501W        W19284   5.750   4.048   0.772
52502W        W19285  32.865  10.924   3.488
52503W        W19286   1.316  11.518   2.846
52504W        W19287  21.425  24.977  11.197
52505W        W19288  38.439  33.027   3.841
52506W        W19289  14.378  13.048  12.334
52507W        W19290  16.780   8.365   1.897
52508W        W19291  16.211  10.423   1.349
52509W        W19292  44.447  30.438  10.631
52510W        W19293   8.625   5.678  13.404
52511W        W19294   0.165  37.264  10.675
52512W        W19295  33.365   6.130   3.732
52513W        W19296  15.292  41.796  10.615
52514W        W19297  22.938   1.731  11.483
52515W        W19298  14.483  31.417  14.719
52516W        W19299  16.158  32.561  10.609
52517W        W19300  40.496  15.334   4.624
52518W        W19301  18.206  16.723   5.605
52519W        W19302  42.448   9.243  10.332
52520W        W19303  25.076   2.757  13.368
52521W        W19304  43.403  36.573  10.676
52522W        W19305  16.699  20.206   1.491
52523W        W19306  33.901  43.158   0.473
52524W        W19307  26.509  24.922  11.924
52525W        W19308  18.105  39.571  11.919
52526W        W19309   8.655  26.435  11.923
52527W        W19310  38.905  44.499   4.231
52528W        W19311  43.348  30.280  14.860
52529W        W19312  27.448   6.118  12.836
52530W        W19313  12.928  40.771   0.318
52531W        W19314  18.053  29.632   2.834
52532W        W19315  27.337  32.008  14.993
52533W        W19316  32.922  33.943   0.907
52534W        W19317  12.717  11.447  11.643
52535W        W19318  23.421  21.661   1.211
52536W        W19319  44.485   2.717  11.898
52537W        W19320  25.453  29.611   2.592
52538W        W19321  13.772  41.314   1.365
52539W        W19322  32.023  43.795  14.957
52540W        W19323   7.252  43.343   3.840
52541W        W19324  25.553  20.550  12.536
52542W        W19325  25.366  12.114   1.167
52543W        W19326   2.818  11.416  10.955
52544W        W19327  17.149   9.366  13.519
52545W        W19328  14.788  32.429  13.561
52546W        W19329  10.440  21.956  10.273
52547W        W19330  41.564  37.198   2.698
52548W        W19331   2.500  44.379   4.091
52549W        W19332  33.397  30.388  13.315
52550W        W19333  19.209   4.606  10.576
52551W        W19334  26.890   5.344   1.823
52552W        W19335  22.894  39.408   4.112
52553W        W19336  10.262   8.160   1.176
52554W        W19337  14.859  34.012   4.806
52555W        W19338  43.431  25.511   4.396
52556W        W19339  43.286   9.656  10.496
52557W        W19340  43.789   9.371   0.918
52558W        W19341  42.069  31.532   1.322
52559W        W19342  24.958  26.402  11.408
52560W        W19343  23.674  43.378   9.439
52561W        W19344  39.928  37.111   3.187
52562W        W19345  24.994  24.012   0.389
52563W        W19346  33.688  19.016   3.278
52564W        W19347  36.373  13.665   2.630
52565W        W19348  21.219  20.825   0.911
52566W        W19349  36.884  19.807   2.774
52567W        W19350  13.825  30.384   1.664
52568W        W19351  43.899  27.478  13.935
52569W        W19352  32.086  23.671   1.840
52570W        W19353  23.630  33.148   2.280
52571W        W19354  39.897  18.984  12.411
52572W        W19355   9.847  41.970   3.725
52573W        W19356  20.853  39.390  10.622
52574W        W19357  34.758  20.780  12.107
52575W        W19358  26.500   2.089   2.879
52576W        W19359  12.652  28.632   1.338
52577W        W19360  36.124  36.379   1.369
52578W        W19361  37.070  43.373   0.064
52579W        W19362  14.590  38.626  14.382
52580W        W19363   9.352  10.315  14.795
52581W        W19364  39.296  24.552   0.730
52582W        W19365  28.919   5.786  10.742
52583W        W19366  19.486  25.514   4.100
52584W        W19367  16.774  14.347  12.454
52585W        W19368   7.760  38.311   0.359
52586W        W19369  18.200  11.046  12.157
52587W        W19370   9.701  41.326  12.928
52588W        W19371   6.137  30.401  11.105
52589W        W19372  23.737  44.583  11.882
52590W        W19373   2.777  20.584  14.380
52591W        W19374  12.543  31.139  14.355
52592W        W19375  17.033  34.880   1.044
52593W        W19376  39.337  40.239   0.129
52594W        W19377  23.107  15.098   2.158
52595W        W19378  32.919  35.179   0.011
52596W        W19379   1.822  26.717  13.374
52597W        W19380  35.878  16.081   4.167
52598W        W19381  41.324  28.165   3.227
52599W        W19382  43.003   3.341  14.433
52600W        W19383  44.416  32.004  12.913
52601W        W19384  27.481  36.898  14.935
52602W        W19385  29.772  24.095   3.910
52603W        W19386  22.250  44.821   4.662
52604W        W19387  43.435  40.909   1.834
52605W        W19388  39.266  38.591   3.182
52606W        W19389   2.172  18.516  11.668
52607W        W19390  44.792  36.877   1.930
52608W        W19391   7.802   3.182  11.918
52609W        W19392  33.098  24.929   3.813
52610W        W19393   2.525  24.636  10.794
52611W        W19394   8.756   4.351  13.827
52612W        W19395  34.992  42.335   1.900
52613W        W19396  39.457   4.847   4.338
52614W        W19397  33.426   3.313  10.103
52615W        W19398  35.601  40.451  10.983
52616W        W19399  26.966  23.687   2.035
52617W        W19400  20.518  24.635   1.309
52618W        W19401  13.737  10.225  14.023
52619W        W19402  33.169   8.488  10.514
52620W        W19403  44.450  34.085   2.431
52621W        W19404  30.272  36.912   1.744
52622W        W19405  11.750  33.432  13.643
52623W        W19406  33.962  32.635   2.822
52624W        W19407  10.008  38.930  14.749
52625W        W19408  26.751  32.973  11.632
52626W        W19409  39.313  40.751   3.728
52627W        W19410  33.567   2.539   1.759
52628W        W19411   2.716  32.682  14.689
52629W        W19412  14.241  18.315  14.485
52630W        W19413   7.289  42.762  12.893
52631W        W19414  24.686  18.030   3.393
52632W        W19415   7.796  18.342  14.440
52633W        W19416  44.285  12.286   3.750
52634W        W19417   0.202  18.655  12.030
52635W        W19418   4.676  32.159  12.860
52636W        W19419  31.320   9.441   2.904
52637W        W19420  38.544  38.553   4.728
52638W        W19421  41.625  29.101  14.794
52639W        W19422   0.320  14.566  13.428
52640W        W19423  41.812   6.394   4.694
52641W        W19424  27.960  24.756  11.341
52642W        W19425  35.423   9.881   3.456
52643W        W19426  25.084  13.731   4.573
52644W        W19427  34.486  15.258   0.861
52645W        W19428  41.868  19.358   3.674
52646W        W19429  32.423  20.716   3.194
52647W        W19430  40.055   8.299  13.038
52648W        W19431  32.215  39.505  13.561
52649W        W19432   8.703  34.602  11.599
52650W        W19433  19.683  31.863  11.996
52651W        W19434  30.244  13.237  11.142
52652W        W19435  10.628  20.007   1.130
52653W        W19436   5.282  32.432   2.676
52654W        W19437  33.068  32.153   4.644
52655W        W19438  11.371  44.251   2.141
52656W        W19439  17.626  29.902   3.390
52657W        W19440  26.089  12.294  13.847
52658W        W19441  37.430  26.484  13.550
52659W        W19442  14.683   4.154  12.070
52660W        W19443  10.861   9.307  11.128
52661W        W19444  25.374   5.557   4.094
52662W        W19445  31.682  19.216  12.982
52663W        W19446   0.328  11.592   4.133
52664W        W19447  16.136   5.633  14.987
52665W        W19448   6.243   5.291   3.672
52666W        W19449  26.547   7.887   4.990
52667W        W19450  26.414  28.695  10.720
52668W        W19451  11.937  25.988   1.995
52669W        W19452  24.759  42.371   2.460
52670W        W19453   9.934  37.058   1.879
52671W        W19454  39.336  34.132   1.916
52672W        W19455   4.837  15.838   2.196
52673W        W19456   0.581  39.813  12.646
52674W        W19457   5.378   9.633   4.266
52675W        W19458  10.171   9.716  11.736
52676W        W19459  27.914  29.483   1.350
52677W        W19460  24.077  38.251   2.259
52678W        W19461  32.129   5.250  10.665
52679W        W19462  22.168   8.874   1.332
52680W        W19463  25.518  34.034  13.136
52681W        W19464  28.698  32.613  12.095
52682W        W19465  17.902  36.940   3.808
52683W        W19466  22.565  27.807  12.879
52684W        W19467  44.278  23.998   3.209
52685W        W19468  12.439  41.106  14.452
52686W        W19469  32.307  37.863   1.182
52687W        W19470   7.445  16.782  12.133
52688W        W19471  24.499  23.396  12.985
52689W        W19472  30.092  29.583  13.533
52690W        W19473   0.623  28.162  13.949
52691W        W19474   8.698  25.243   3.755
52692W        W19475  19.795   4.815  14.361
52693W        W19476   5.840   3.224  14.306
52694W        W19477   7.691   6.013  11.315
52695W        W19478  34.494  30.576   1.895
52696W        W19479  28.975  44.764   4.118
52697W        W19480  35.484  29.491  14.502
52698W        W19481  17.032  19.177  11.159
52699W        W19482  12.378   1.417  11.396
52700W        W19483  19.101  15.656  13.445
52701W        W19484  32.064  40.822   2.227
52702W        W19485   1.389  20.087  10.725
52703W        W19486   3.916  15.295   1.768
52704W        W19487  35.995  39.248   0.693
52705W        W19488   6.106  26.580  13.475
52706W        W19489   8.741  14.904   4.558
52707W        W19490  44.691   0.576  13.389
52708W        W19491  31.050  18.554   0.798
52709W        W19492   3.511  23.302  13.454
52710W        W19493  43.319  29.460  12.149
52711W        W19494  17.652  44.044  11.480
52712W        W19495  23.605  39.300  13.836
52713W        W19496  37.857  34.004   1.102
52714W        W19497  38.017   2.501  13.535
52715W        W19498  13.143  26.436   1.665
52716W        W19499  17.832  41.402   1.063
52717W        W19500  11.291  29.404   0.267
52718W        W19501   1.763  23.595   2.219
52719W        W19502  16.869   6.499   4.575
52720W        W19503  25.510  28.953  11.540
52721W        W19504  21.623  16.150  10.643
52722W        W19505  35.133  38.609  14.622
52723W        W19506  18.490  43.048   0.426
52724W        W19507   3.816  39.284  11.692
52725W        W19508  44.098  41.401  12.559
52726W        W19509  12.924  19.874  14.552
52727W        W19510  19.204  37.881   1.208
52728W        W19511   0.630   5.173   3.351
52729W        W19512  15.189  24.949   2.244
52730W        W19513  34.943  33.392   4.874
52731W        W19514  10.888  36.119   4.672
52732W        W19515  31.415  24.581  13.841
52733W        W19516  20.038  14.068  13.518
52734W        W19517  33.090  21.310   0.961
52735W        W19518  43.241  21.576  10.496
52736W        W19519   4.821  43.598  10.209
52737W        W19520  34.615  40.948  13.468
52738W        W19521   9.114  40.859  11.041
52739W        W19522   2.965  20.096  12.999
52740W        W19523  43.047   7.754  11.160
52741W        W19524   5.688  21.022  11.040
52742W        W19525  12.636  35.366   4.597
52743W        W19526   7.661  14.780  11.133
52744W        W19527  14.928  28.159  13.913
52745W        W19528  25.945   7.391  10.415
52746W        W19529  20.884  44.312   4.529
52747W        W19530   4.544  35.054  11.962
52748W        W19531  19.078  21.321  14.474
52749W        W19532  12.563  31.966   4.632
52750W        W19533  44.646  27.739   0.983
52751W        W19534  31.504  16.286   0.345
52752W        W19535  34.399  36.924   1.359
52753W        W19536  44.355  15.805  11.501
52754W        W19537  26.635  36.564  12.437
52755W        W19538   5.885   6.685   2.785
52756W        W19539  37.301  25.251   1.340
52757W        W19540   6.422  32.057  12.008
52758W        W19541  44.832  36.965   4.644
52759W        W19542  36.506  30.737  11.207
52760W        W19543  24.495   1.450   0.989
52761W        W19544  28.507   9.629   3.678
52762W        W19545  25.721  30.358  12.024
52763W        W19546  24.450  32.556  13.930
52764W        W19547  39.914  25.126  14.712
52765W        W19548  33.624  15.324  13.171
52766W        W19549   7.421   3.800   1.456
52767W        W19550  19.543   8.773   1.188
52768W        W19551  19.048  16.659   3.706
52769W        W19552  23.603   5.050  13.479
52770W        W19553  42.340   1.606  12.946
52771W        W19554  44.324   4.333  11.132
52772W        W19555  26.128  30.648  10.686
52773W        W19556  35.352  33.893   3.314
52774W        W19557  42.817  15.402   0.589
52775W        W19558   8.649  36.861   2.998
52776W        W19559  14.242  32.615  12.840
52777W        W19560  19.224  11.201  14.734
52778W        W19561   1.188  24.678  11.722
52779W        W19562  15.580  38.918  14.269
52780W        W19563  32.379  36.579   4.325
52781W        W19564   4.472  43.907   2.365
52782W        W19565  25.943   0.031  14.277
52783W        W19566   1.823   9.796  12.651
52784W        W19567  38.835  35.150  14.562
52785W        W19568  16.618  10.386  11.585
52786W        W19569   3.986  19.870  11.511
52787W        W19570  38.169  17.607  12.379
52788W        W19571  38.396   0.223  11.125
52789W        W19572  22.885  41.070   0.202
52790W        W19573  13.841  34.865   9.761
52791W        W19574  30.884   2.428   4.560
52792W        W19575   1.908  21.069   4.462
52793W        W19576  19.036  29.390  13.024
52794W        W19577  30.149  41.076  12.970
52795W        W19578  20.056  29.304   4.116
52796W        W19579  12.047  37.146  11.457
52797W        W19580  13.750  12.060  13.841
52798W        W19581  17.549  14.787  13.470
52799W        W19582   2.858   3.998   2.291
52800W        W19583  30.368  11.797  11.170
52801W        W19584  27.011   6.896   0.745
52802W        W19585   7.957  13.187   1.521
52803W        W19586   9.217  28.871  14.550
52804W        W19587  33.964  29.451  11.366
52805W        W19588  23.120   9.580  14.984
52806W        W19589  43.823  16.327   3.693
52807W        W19590  14.436  16.077   3.780
52808W        W19591   4.698   5.823   1.019
52809W        W19592   4.915  40.938  11.174
52810W        W19593  10.729  30.106   4.690
52811W        W19594  15.968  38.660  12.553
52812W        W19595  44.670  15.892  12.483
52813W        W19596   9.201  20.609   4.075
52814W        W19597   5.442  10.814  13.098
52815W        W19598  41.103  43.489   3.718
52816W        W19599  27.708   9.497   0.913
52817W        W19600  20.916  24.902   4.609
52818W        W19601   3.657  15.102   2.171
52819W        W19602  16.925  26.596   1.290
52820W        W19603  27.350  20.004  13.772
52821W        W19604   8.200   6.281   1.448
52822W        W19605  15.155  32.609  11.861
52823W        W19606   6.325  38.416   0.756
52824W        W19607  34.817  41.191  13.868
52825W        W19608  26.061  29.531   2.180
52826W        W19609  19.256  11.741  11.604
52827W        W19610   1.805  27.163   4.541
52828W        W19611  12.392   9.886  12.434
52829W        W19612   6.406  35.045   1.687
52830W        W19613   5.054  20.715  14.419
52831W        W19614  28.474  30.664   0.337
52832W        W19615  23.553  41.459   1.644
52833W        W19616  40.504  13.126   3.550
52834W        W19617  42.421  27.583   2.940
52835W        W19618  14.882  35.491   4.196
52836W        W19619  10.611  30.595   1.188
52837W        W19620  29.214  11.651  13.556
52838W        W19621   5.004  17.230   1.990
52839W        W19622  17.664   3.795   3.912
52840W        W19623  43.469  32.666   2.640
52841W        W19624  14.700  26.390  10.815
52842W        W19625   8.623  24.770  12.971
52843W        W19626   4.001  23.004   0.245
52844W        W19627  10.222  16.546   0.370
52845W        W19628   4.338  39.858   3.644
52846W        W19629  21.829   9.922  11.345
52847W        W19630   2.417  22.157  14.076
52848W        W19631  42.163  38.406  11.979
52849W        W19632   3.289   4.343   3.770
52850W        W19633  24.828   8.743  11.234
52851W        W19634  18.553  20.546  14.838
52852W        W19635  11.358   0.745  14.876
52853W        W19636  28.240  39.978  11.440
52854W        W19637   7.813  38.476  12.012
52855W        W19638  38.879  19.415  10.713
52856W        W19639  19.362  33.031   4.129
52857W        W19640  36.338  23.654   4.507
52858W        W19641  24.410  43.851   2.303
52859W        W19642   9.680  19.665  14.461
52860W        W19643  26.844  43.817   9.860
52861W        W19644  40.971  42.984  14.394
52862W        W19645  11.375  24.007  10.573
52863W        W19646  29.438  32.422  12.489
52864W        W19647  20.272  27.149   1.666
52865W        W19648  29.977  37.918   1.474
52866W        W19649  30.585   6.413   3.358
52867W        W19650  35.817  30.273  11.475
52868W        W19651  30.026  36.077   2.410
52869W        W19652   3.435  12.227  12.944
52870W        W19653   1.620  23.183  11.789
52871W        W19654  42.446  10.844  12.065
52872W        W19655  12.116  24.058  14.532
52873W        W19656  38.099  44.209  13.336
52874W        W19657   9.282  28.398   0.466
52875W        W19658  30.956  35.275   0.707
52876W        W19659  23.071  29.709   2.157
52877W        W19660  17.627  34.207  14.195
52878W        W19661  17.158  22.635  10.707
52879W        W19662   4.853   9.154  12.801
52880W        W19663  40.102  42.500   0.188
52881W        W19664  18.801   7.612   4.123
52882W        W19665   5.783   6.375   1.598
52883W        W19666  30.725  14.446  11.165
52884W        W19667   7.180  43.527   1.223
52885W        W19668  12.176  41.896   3.747
52886W        W19669   4.380  29.510   0.198
52887W        W19670  36.625  16.562  10.729
52888W        W19671  24.293  29.068  10.607
52889W        W19672  20.628   6.843   4.248
52890W        W19673  44.011   3.165   1.439
52891W        W19674  40.817  42.287  11.936
52892W        W19675  23.817   3.407  12.470
52893W        W19676  32.466  31.682  12.492
52894W        W19677  11.626   5.454  12.953
52895W        W19678  26.118  34.083  11.211
52896W        W19679  44.935  23.031  10.744
52897W        W19680  32.065  22.431   1.889
52898W        W19681  22.452  14.075   3.841
52899W        W19682  19.753  34.183   2.679
52900W        W19683  41.454  40.813  11.172
52901W        W19684  24.568  17.123   4.635
52902W        W19685  37.053  33.521   1.771
52903W        W19686  29.437  12.534   4.478
52904W        W19687  43.303  10.586   2.329
52905W        W19688  41.470   3.387   0.686
52906W        W19689  18.521   9.405   4.546
52907W        W19690  42.998  18.173  13.236
52908W        W19691  32.453   0.789   5.202
52909W        W19692  26.925  38.067   3.203
52910W        W19693  14.833  10.689   0.195
52911W        W19694   9.918  24.110  12.505
52912W        W19695  37.335  24.399  14.278
52913W        W19696  18.298  25.366   4.221
52914W        W19697  39.744  22.107   2.715
52915W        W19698  23.730  11.798  13.619
52916W        W19699  28.992  14.091   2.589
52917W        W19700  32.416   5.448  11.098
52918W        W19701  10.890   6.714   1.863
52919W        W19702   1.841  27.099  10.712
52920W        W19703  36.151  33.029  13.332
52921W        W19704  38.982   4.879   4.520
52922W        W19705  40.355  33.607   5.039
52923W        W19706  40.694  35.349   0.309
52924W        W19707  44.559  22.989  11.988
52925W        W19708  38.474  25.121  13.799
52926W        W19709  13.054  12.376  10.327
52927W        W19710  11.334  20.271   3.677
52928W        W19711  17.750  40.815  14.874
52929W        W19712  10.476  18.547   2.436
52930W        W19713  37.422  41.952  12.289
52931W        W19714  30.145  38.373   0.358
52932W        W19715  27.914   2.541  13.802
52933W        W19716   3.214  14.667  11.574
52934W        W19717  32.922  26.260  12.997
52935W        W19718  25.794  43.432  13.946
52936W        W19719  32.546   3.276  12.663
52937W        W19720  35.110  10.650  12.055
52938W        W19721   0.642  14.208  12.041
52939W        W19722  38.790  17.550   1.390
52940W        W19723   5.867  36.859   0.974
52941W        W19724   3.956  24.988  11.210
52942W        W19725  32.576  28.367  13.073
52943W        W19726  25.436  38.306   3.238
52944W        W19727  16.259  17.686  12.604
52945W        W19728  24.429   9.904  11.584
52946W        W19729   8.756  34.958  10.580
52947W        W19730   0.025  41.405   3.206
52948W        W19731  44.141  28.335  11.050
52949W        W19732  34.492  31.562   3.283
52950W        W19733   6.368  40.016  10.197
52951W        W19734  14.983   4.175   3.119
52952W        W19735   4.342  18.368   0.340
52953W        W19736  25.976  28.440   1.416
52954W        W19737  14.063   3.372   4.182
52955W        W19738  24.275  28.107   4.521
52956W        W19739  26.415  24.630   3.370
52957W        W19740  28.850  36.862   3.677
52958W        W19741  15.812  12.636   1.825
52959W        W19742  12.745   9.784  12.074
52960W        W19743  16.314  26.763  13.395
52961W        W19744  31.110  10.761  14.318
52962W        W19745   4.434   3.735  11.416
52963W        W19746  35.078  21.181   3.208
52964W        W19747  24.116  37.373  14.529
52965W        W19748  39.044   3.196  13.372
52966W        W19749   3.736  28.229  11.805
52967W        W19750   7.703  13.780  11.152
52968W        W19751  23.548  24.767   3.258
52969W        W19752   6.279  35.894   3.381
52970W        W19753   3.755  41.997  12.089
52971W        W19754  44.544  42.433  11.216
52972W        W19755  29.644  21.350  13.577
52973W        W19756   2.414  11.132  11.218
52974W        W19757  33.534  21.211   4.009
52975W        W19758   6.626  19.540  13.542
52976W        W19759   8.617  22.545   0.478
52977W        W19760  32.541  21.982   2.626
52978W        W19761   8.346  11.944  11.219
52979W        W19762  38.042   2.325   1.268
52980W        W19763   5.381  34.208   0.911
52981W        W19764  27.621  14.723   3.204
52982W        W19765  42.625  29.111   9.973
52983W        W19766  15.753  42.882   4.663
52984W        W19767  38.802  31.233   1.645
52985W        W19768  27.550  31.719   4.149
52986W        W19769  33.518  41.515   4.274
52987W        W19770  31.021   4.741   0.358
52988W        W19771  21.683  39.726   4.534
52989W        W19772  27.241   6.871  12.983
52990W        W19773   9.065  12.560  12.971
52991W        W19774  14.577  22.393  12.076
52992W        W19775  12.612   8.864  12.496
52993W        W19776  18.592  35.975  11.573
52994W        W19777  23.598  11.404   0.894
52995W        W19778  21.031  24.609  14.485
52996W        W19779  14.254   0.861  13.390
52997W        W19780  42.514  38.859  11.353
52998W        W19781  37.853  12.879   1.358
52999W        W19782   4.970  14.370  10.954
53000W        W19783   7.626  25.294  12.894
53001W        W19784  27.662  27.827   0.928
53002W        W19785   7.373  35.991   1.779
53003W        W19786  17.802   2.293   2.246
53004W        W19787  36.914  23.409   2.905
53005W        W19788  32.675  24.831  14.536
53006W        W19789  10.875  42.970   0.532
53007W        W19790   5.372  41.584  13.947
53008W        W19791  40.483  21.297   4.681
53009W        W19792  32.163  18.240   2.870
53010W        W19793  19.113  22.427   3.898
53011W        W19794  17.002   0.378   1.730
53012W        W19795  30.949  32.637   3.804
53013W        W19796   6.512   9.723   2.609
53014W        W19797  17.650   4.448  10.517
53015W        W19798  22.018   8.644   0.893
53016W        W19799   1.170  16.613   4.579
53017W        W19800  30.014  28.036   0.326
53018W        W19801   6.818  13.279  14.349
53019W        W19802  30.101   6.008  12.413
53020W        W19803  40.009   1.033  14.458
53021W        W19804  22.928   1.773   4.956
53022W        W19805   4.272  34.637  14.877
53023W        W19806  41.055  25.533   2.357
53024W        W19807   0.224  36.622  13.562
53025W        W19808  12.734  39.358  13.066
53026W        W19809  39.472  38.103   1.381
53027W        W19810   1.661  27.930  14.746
53028W        W19811  15.992  26.985   3.925
53029W        W19812  29.125  43.004  13.971
53030W        W19813   8.878  33.942   1.372
53031W        W19814  44.389   5.723   3.333
53032W        W19815   3.208  14.863  10.763
53033W        W19816   2.226  33.717   3.178
53034W        W19817  13.256   9.245  14.869
53035W        W19818  30.517  20.291  13.896
53036W        W19819  18.777  36.456  11.484
53037W        W19820  21.998  26.739   0.474
53038W        W19821  36.887  26.165  11.474
53039W        W19822   0.751  34.935  11.614
53040W        W19823   5.341  13.855   0.044
53041W        W19824  17.511  19.744   1.435
53042W        W19825  20.550  31.240   2.711
53043W        W19826  39.646  40.265  12.822
53044W        W19827  16.063   9.373   2.243
53045W        W19828  17.284   3.996   0.281
53046W        W19829  17.546  35.290   2.441
53047W        W19830  25.794   1.740   0.123
53048W        W19831  26.359  16.511  13.322
53049W        W19832  11.560  24.886   3.425
53050W        W19833   3.277  23.501   3.238
53051W        W19834   4.416  36.477  12.788
53052W        W19835  26.473   7.319  11.550
53053W        W19836  38.487  20.170   4.106
53054W        W19837  14.985  34.098  11.515
53055W        W19838   9.769  35.476   1.196
53056W        W19839  17.646   3.015  11.591
53057W        W19840  29.013  11.564   2.212
53058W        W19841  11.242  31.120  11.019
53059W        W19842  18.564  12.695  13.747
53060W        W19843  26.110   8.650   4.635
53061W        W19844  31.159  33.025  13.026
53062W        W19845  39.237   2.702   0.299
53063W        W19846  22.252  33.971  13.014
53064W        W19847  18.936  40.386   2.319
53065W        W19848  22.184  20.532   1.612
53066W        W19849   1.004  11.149   3.148
53067W        W19850   8.092  42.074  14.025
53068W        W19851  21.118  31.445   4.164
53069W        W19852   3.098  16.594  10.761
53070W        W19853  18.195  29.546  12.676
53071W        W19854  36.613  27.595  12.477
53072W        W19855  42.337  15.703   2.420
53073W        W19856  30.154  39.863  11.403
53074W        W19857  23.161  32.052  13.877
53075W        W19858   1.355  35.435   4.423
53076W        W19859   6.325  12.529  14.480
53077W        W19860  14.323  17.864   4.430
53078W        W19861  36.064  15.754   1.239
53079W        W19862  16.612  33.847   4.220
53080W        W19863   1.407  21.643   1.278
53081W        W19864  30.105  44.992   2.506
53082W        W19865  10.806  12.392  11.487
53083W        W19866  33.370  15.153  11.224
53084W        W19867   4.353  27.097  14.407
53085W        W19868   6.123  22.334   0.363
53086W        W19869  22.630  36.529  13.555
53087W        W19870  39.452   1.539  13.126
53088W        W19871  32.563  35.645   4.111
53089W        W19872  44.390  23.115   5.025
53090W        W19873  21.481  27.286   2.877
53091W        W19874  18.957  40.341   0.657
53092W        W19875  25.509  10.894  14.384
53093W        W19876  31.019  17.615  12.575
53094W        W19877  12.651  12.135   0.287
53095W        W19878  33.480  12.466   4.632
53096W        W19879  21.894   1.008   4.925
53097W        W19880   7.376  38.578  13.301
53098W        W19881  25.376  25.359  10.657
53099W        W19882   6.163  18.921  11.596
53100W        W19883  14.604   8.825   2.171
53101W        W19884  22.138  44.777   0.264
53102W        W19885  15.945  26.149  11.217
53103W        W19886  18.672   1.729   2.980
53104W        W19887  23.039  24.623   1.072
53105W        W19888  40.691   4.445   1.904
53106W        W19889  37.997  43.163   1.316
53107W        W19890   0.284  13.789  11.209
53108W        W19891  27.205  25.442   4.238
53109W        W19892   1.781  12.204   1.542
53110W        W19893  40.989  15.848  12.777
53111W        W19894  11.546  25.525  14.965
53112W        W19895  10.320   9.701  14.969
53113W        W19896  15.772  17.815   1.225
53114W        W19897  17.513   5.854  11.930
53115W        W19898  21.651  33.950  14.896
53116W        W19899  29.253  14.720  13.733
53117W        W19900  15.237  18.160   3.831
53118W        W19901  35.889  32.651   1.761
53119W        W19902  29.074  24.459   4.361
53120W        W19903   3.229   3.379   4.595
53121W        W19904  29.558  39.416   4.164
53122W        W19905  27.625  12.088   0.019
53123W        W19906   5.900  28.876  13.699
53124W        W19907  22.374  22.427   0.708
53125W        W19908   3.745  13.283  12.333
53126W        W19909  39.760   5.422   3.484
53127W        W19910  31.700   1.526  11.271
53128W        W19911   7.032  18.693   2.132
53129W        W19912   6.808  38.468  10.720
53130W        W19913  12.818  37.818  14.637
53131W        W19914  23.524   5.178   2.434
53132W        W19915  34.549   8.117  13.332
53133W        W19916   8.850  19.283   3.440
53134W        W19917   4.415  12.069  14.329
53135W        W19918  42.381   0.452  12.656
53136W        W19919  21.081   6.860   4.703
53137W        W19920  37.794  33.065   0.048
53138W        W19921   7.677  35.380   2.724
53139W        W19922  35.630  29.835  13.540
53140W        W19923   2.695   8.914  14.995
53141W        W19924  14.809  13.186  13.781
53142W        W19925  27.628   4.352   1.698
53143W        W19926  21.953  35.001  10.747
53144W        W19927  27.927  35.644   2.767
53145W        W19928  31.107   6.651   3.219
53146W        W19929  14.611   5.469  12.992
53147W        W19930  20.563  22.473   3.610
53148W        W19931  31.014  36.055  14.452
53149W        W19932  40.813  10.895   2.114
53150W        W19933  43.017  43.796   3.052
53151W        W19934  16.610  14.370   0.394
53152W        W19935   8.557  21.612   0.711
53153W        W19936  32.466   7.666  14.891
53154W        W19937  39.799  24.947  13.893
53155W        W19938  36.844  23.570  14.363
53156W        W19939   8.243  25.274   0.975
53157W        W19940  27.202  44.083   0.292
53158W        W19941  39.838  32.224  12.051
53159W        W19942   6.767  16.123   3.214
53160W        W19943   3.878   6.259  11.735
53161W        W19944  18.622  26.798  13.441
53162W        W19945  29.497  12.349  14.020
53163W        W19946  23.824  16.306  11.129
53164W        W19947  33.528  34.688   4.172
53165W        W19948   1.430  32.307   3.959
53166W        W19949  42.556  18.123   3.759
53167W        W19950  39.027  37.100  11.078
53168W        W19951   9.959  39.252  12.605
53169W        W19952  14.927  21.987   1.364
53170W        W19953   7.203  21.884  11.587
53171W        W19954  14.439  31.832   4.123
53172W        W19955  26.922  27.870   3.017
53173W        W19956  26.051  25.165   3.617
53174W        W19957  27.494   8.515   0.743
53175W        W19958  38.098   1.830  14.283
53176W        W19959  28.323  39.701   2.367
53177W        W19960  40.393  18.546  14.802
53178W        W19961  13.834  11.128  13.502
53179W        W19962  11.376  34.043   4.559
53180W        W19963  42.123   8.158   3.922
53181W        W19964  31.002  19.033   3.355
53182W        W19965  10.092  18.440   3.766
53183W        W19966   2.812  14.807  14.431
53184W        W19967  23.340   5.296  12.139
53185W        W19968   9.148  40.750   1.259
53186W        W19969  22.717  18.786   3.540
53187W        W19970  12.296  29.032   3.065
53188W        W19971  34.061   1.650   2.714
53189W        W19972   0.744  14.779  11.297
53190W        W19973  36.695  23.045  13.507
53191W        W19974  41.994  35.115   3.353
53192W        W19975   3.742  34.955  10.728
53193W        W19976  41.475  22.054  12.746
53194W        W19977  16.227  20.643  10.939
53195W        W19978   8.766  15.386   3.057
53196W        W19979  44.688  33.436   4.622
53197W        W19980  16.437  25.574  10.731
53198W        W19981  44.643  28.186  14.224
53199W        W19982  40.885  29.663   1.967
53200W        W19983  18.525  34.211  14.674
53201W        W19984   0.686  38.028  13.642
53202W        W19985  32.826  36.812  14.279
53203W        W19986   0.334  11.567  11.527
53204W        W19987  26.564   6.055   1.113
53205W        W19988   4.189  25.529   1.190
53206W        W19989  20.537  26.438   2.043
53207W        W19990  19.000   1.556   0.020
53208W        W19991  32.113   1.943  11.448
53209W        W19992  12.144  38.948  12.867
53210W        W19993  14.271  41.401  14.283
53211W        W19994   5.588   2.714   2.054
53212W        W19995  29.389  37.515  14.870
53213W        W19996  15.662  24.202   3.720
53214W        W19997  29.257   3.430  14.228
53215W        W19998  32.146  40.501   3.917
53216W        W19999   7.908  19.753  14.024
53217W        W20000  18.093  33.173  10.458
53218W        W20001  16.246  44.807   3.755
53219W        W20002  44.911  28.421   3.256
53220W        W20003  31.439  15.585  14.378
53221W        W20004  13.628  26.660  12.124
53222W        W20005  23.142   8.736  14.612
53223W        W20006  28.813  18.820  11.947
53224W        W20007  13.608  28.606   0.414
53225W        W20008  35.966  23.954  12.041
53226W        W20009  32.874  21.225   1.497
53227W        W20010  22.800  33.887   1.314
53228W        W20011  39.132  20.712  12.674
53229W        W20012   6.451  33.867  12.340
53230W        W20013  24.119   6.108   2.805
53231W        W20014   7.334   5.239  11.219
53232W        W20015  39.566   9.368  10.737
53233W        W20016  25.997   1.934   2.705
53234W        W20017  17.396  44.249  11.871
53235W        W20018  21.580   6.954   1.359
53236W        W20019  12.204   0.081  13.063
53237W        W20020   5.116  34.426  12.443
53238W        W20021  27.529  38.476  14.182
53239W        W20022  29.121  41.484  13.798
53240W        W20023  38.459  33.975   4.230
53241W        W20024  34.608  22.441   3.235
53242W        W20025  28.190  43.837   0.381
53243W        W20026   3.755  40.343   2.068
53244W        W20027  39.529  14.665   3.870
53245W        W20028  26.198   3.296  14.775
53246W        W20029  34.117  19.425   4.654
53247W        W20030  18.631  25.471  14.374
53248W        W20031  20.783  42.247  14.381
53249W        W20032  33.652  19.458   9.596
53250W        W20033  41.292  11.176  14.807
53251W        W20034   4.035  20.541  14.385
53252W        W20035   1.299  12.125  12.270
53253W        W20036  37.330  18.985  14.996
53254W        W20037  17.665   2.982   1.767
53255W        W20038  34.032   2.785   4.475
53256W        W20039  16.831  29.094   0.752
53257W        W20040  37.389  37.141   2.174
53258W        W20041  29.253  32.364   1.827
53259W        W20042  17.280  25.772  10.999
53260W        W20043  37.124  15.039  13.803
53261W        W20044  34.153  38.616  10.870
53262W        W20045  39.154  14.162  13.981
53263W        W20046  14.825  26.714   5.179
53264W        W20047  17.549  41.589   1.477
53265W        W20048  42.283  20.535  13.014
53266W        W20049  24.825   6.396  13.610
53267W        W20050  36.608  22.127  12.956
53268W        W20051  11.291  12.873   0.761
53269W        W20052  21.444  23.447   3.112
53270W        W20053  33.342  20.300   0.763
53271W        W20054   9.869  22.095   3.261
53272W        W20055  19.973  20.975  13.687
53273W        W20056  26.108   5.881   1.291
53274W        W20057  18.926  31.960   5.009
53275W        W20058  26.470   8.482  12.872
53276W        W20059  23.527  25.050   0.029
53277W        W20060  42.050  17.663  11.478
53278W        W20061  37.505   0.285  13.560
53279W        W20062  44.946  19.183   0.650
53280W        W20063   4.810  26.079  11.230
53281W        W20064  21.631  13.302   4.040
53282W        W20065  34.190  44.029   2.304
53283W        W20066  28.562  24.711  13.857
53284W        W20067   2.467  28.518   1.276
53285W        W20068   8.935   9.112  11.298
53286W        W20069  15.653  33.846   2.483
53287W        W20070  25.515  22.224   0.381
53288W        W20071  35.891  27.668   2.327
53289W        W20072   8.930  16.793  11.942
53290W        W20073  19.852  14.478   2.722
53291W        W20074  42.557  32.430  13.839
53292W        W20075  21.256  33.676   0.247
53293W        W20076  30.497  13.123  11.568
53294W        W20077  23.731  23.108  13.318
53295W        W20078  11.050  31.390   1.322
53296W        W20079  21.026  24.420   2.559
53297W        W20080   1.194  36.904   3.581
53298W        W20081   7.171  37.294   3.070
53299W        W20082  14.629  15.203  12.623
53300W        W20083  32.933  33.527  14.332
53301W        W20084   2.005  41.420   2.924
53302W        W20085   3.370  28.499   3.191
53303W        W20086  24.454  44.390  12.433
53304W        W20087  10.175  28.228   3.918
53305W        W20088  17.612  16.767  10.664
53306W        W20089   3.271  27.051  13.868
53307W        W20090  37.119  26.080  11.018
53308W        W20091   9.584   8.111  12.140
53309W        W20092  35.916  13.320  12.180
53310W        W20093  42.394  21.870  13.882
53311W        W20094  15.183   0.505   1.491
53312W        W20095  30.119   7.902  11.397
53313W        W20096  42.534  25.650  13.569
53314W        W20097  32.172  17.980  10.683
53315W        W20098  25.225  32.281  13.601
53316W        W20099   9.447  41.064  14.428
53317W        W20100  40.807  21.271  13.909
53318W        W20101  34.620   2.803   3.624
53319W        W20102  31.656  12.670   4.031
53320W        W20103   5.095  17.808  12.241
53321W        W20104  19.954  22.039  14.496
53322W        W20105   3.420  31.609  13.779
53323W        W20106  38.831   3.254  11.147
53324W        W20107  29.117  23.066   1.828
53325W        W20108  26.081   3.272  13.859
53326W        W20109  17.986  40.871  13.949
53327W        W20110  23.104  26.904  14.871
53328W        W20111  41.339  32.901  11.957
53329W        W20112  44.562  22.059   2.187
53330W        W20113  11.686  15.610  13.813
53331W        W20114  33.133  28.945   1.906
53332W        W20115   6.249  27.080   1.333
53333W        W20116  21.277  39.013   3.256
53334W        W20117  30.440  11.929   3.500
53335W        W20118  38.383  22.497  14.799
53336W        W20119  21.228  20.190   3.179
53337W        W20120  40.276   8.767   2.822
53338W        W20121  11.129  26.655  14.112
53339W        W20122   0.422  12.912  10.585
53340W        W20123   7.660  28.035   1.805
53341W        W20124  36.019  28.686   3.732
53342W        W20125  39.619  15.143  13.113
53343W        W20126  23.059  20.254   1.495
53344W        W20127   8.744  18.344  11.671
53345W        W20128  11.675  33.056   3.625
53346W        W20129  36.911  30.415   1.804
53347W        W20130  33.852  23.099  11.588
53348W        W20131   3.556   7.177  12.098
53349W        W20132  34.992   1.405   1.390
53350W        W20133  11.778  44.461   2.692
53351W        W20134   7.758  23.781   3.712
53352W        W20135  24.498   3.643   0.784
53353W        W20136  35.549  35.104   3.692
53354W        W20137  39.365   2.564  13.062
53355W        W20138   6.723  15.369  14.987
53356W        W20139   8.438  16.571  14.371
53357W        W20140  35.502  44.106  13.733
53358W        W20141  19.128  36.064   4.068
53359W        W20142  42.601  21.164   0.270
53360W        W20143   7.367   9.883   4.443
53361W        W20144  14.743  21.015  14.950
53362W        W20145   1.220   9.104   2.625
53363W        W20146  34.658  30.096  13.246
53364W        W20147  23.032  39.588   0.434
53365W        W20148  14.546  26.118  13.076
53366W        W20149   2.880  21.535  14.243
53367W        W20150  19.140  32.854   2.822
53368W        W20151  23.673   0.240   4.809
53369W        W20152   8.209   4.897   2.679
53370W        W20153  13.309   2.303   0.363
53371W        W20154   5.581  16.548   2.809
53372W        W20155  35.348  39.407  12.436
53373W        W20156  23.556  33.439   1.768
53374W        W20157  34.838  21.222  12.363
53375W        W20158  25.149   5.735  11.921
53376W        W20159  15.302  35.577   2.749
53377W        W20160  34.528  40.750   1.759
53378W        W20161  12.256   6.405  13.416
53379W        W20162  19.225  39.328  11.535
53380W        W20163  16.616  41.312  12.110
53381W        W20164  16.132   6.845   3.845
53382W        W20165  32.170  14.626  10.679
53383W        W20166  41.072  35.078   4.069
53384W        W20167  41.640  21.160   1.825
53385W        W20168  25.905  15.693  14.743
53386W        W20169  19.496  11.232   4.094
53387W        W20170  31.414  11.992   1.756
53388W        W20171  42.852  28.442   2.824
53389W        W20172  19.389  19.553  12.528
53390W        W20173  34.675  41.939   4.582
53391W        W20174   2.471  18.042  12.497
53392W        W20175  35.338   7.546   1.359
53393W        W20176  26.062  32.497  14.368
53394W        W20177  27.446  43.392   1.067
53395W        W20178  26.062   2.019   1.203
53396W        W20179   3.893  13.144   4.435
53397W        W20180  28.936   4.432  11.242
53398W        W20181   1.311  42.381  13.564
53399W        W20182  27.939  33.487  11.136
53400W        W20183   0.804   1.234  14.438
53401W        W20184  18.526   5.834   0.533
53402W        W20185  10.919   7.258   2.917
53403W        W20186  36.559   3.429   1.395
53404W        W20187  42.434  23.745   3.422
53405W        W20188  13.837  43.890   4.714
53406W        W20189  31.753  15.248   3.912
53407W        W20190  43.939  27.138   3.109
53408W        W20191   3.808   6.405  12.213
53409W        W20192  14.091  18.746   1.210
53410W        W20193  10.228  17.513   0.260
53411W        W20194  28.530   5.191   2.766
53412W        W20195   7.787   7.448  10.197
53413W        W20196  38.941  38.029   3.743
53414W        W20197  39.986  24.112   3.777
53415W        W20198  28.943  36.404  13.130
53416W        W20199  15.951  16.306   4.462
53417W        W20200  16.636  21.178  12.477
53418W        W20201  21.826  40.372   2.745
53419W        W20202  13.831  20.702   3.260
53420W        W20203  12.270  22.290   2.204
53421W        W20204  37.578  41.828   3.391
53422W        W20205   2.212  17.608  12.399
53423W        W20206  21.724  18.981  13.828
53424W        W20207   4.820  35.012  14.309
53425W        W20208  19.004  36.661   2.297
53426W        W20209  12.031   6.634   2.698
53427W        W20210  16.389  35.405   2.662
53428W        W20211  13.210  28.431  12.225
53429W        W20212  17.054  35.486  12.481
53430W        W20213  41.007  24.173  10.416
53431W        W20214  18.845  15.660  12.851
53432W        W20215   1.998   3.309   2.702
53433W        W20216   5.641  26.112   0.325
53434W        W20217   1.425   7.609   3.253
53435W        W20218  26.124  32.947  12.088
53436W        W20219  43.929   3.775   2.603
53437W        W20220  13.912  18.659   1.712
53438W        W20221   8.140   9.000   0.408
53439W        W20222   9.892  37.939   3.641
53440W        W20223  35.537   1.201  11.234
53441W        W20224   2.117  20.059   2.731
53442W        W20225  43.844  17.748   0.727
53443W        W20226  25.799  15.639  12.493
53444W        W20227  24.634   1.480   1.932
53445W        W20228   4.985  11.635  12.579
53446W        W20229  42.541  18.209  11.744
53447W        W20230  41.251  41.338   1.387
53448W        W20231   3.514  15.542  13.266
53449W        W20232   6.310  43.883  12.384
53450W        W20233   4.168  16.227  13.098
53451W        W20234  17.495  24.256  11.180
53452W        W20235  44.922   1.715   0.899
53453W        W20236  40.530  40.408  14.138
53454W        W20237  34.633  17.243   3.220
53455W        W20238  38.637   2.799  12.056
53456W        W20239  27.756  27.703   1.420
53457W        W20240  27.881  33.987   4.949
53458W        W20241  12.734   3.713   0.710
53459W        W20242  19.521   9.279   1.354
53460W        W20243   7.072  19.608   0.345
53461W        W20244   2.333  27.217  11.462
53462W        W20245  14.740   5.697  11.134
53463W        W20246  33.301   3.713   1.306
53464W        W20247  40.952   1.398   1.703
53465W        W20248  34.504  19.844  12.889
53466W        W20249  35.992  19.568   4.027
53467W        W20250  26.843  29.457   1.284
53468W        W20251  10.806  35.983   1.835
53469W        W20252  41.564  23.061   3.339
53470W        W20253  20.548  35.490  13.965
53471W        W20254  16.513  18.813   2.717
53472W        W20255   6.211   7.742  14.152
53473W        W20256  14.778   9.311   4.485
53474W        W20257  40.913  15.321  11.579
53475W        W20258  25.388   8.547   2.700
53476W        W20259  43.396   2.955   4.762
53477W        W20260  36.963  12.082   0.429
53478W        W20261  14.687  10.691  13.374
53479W        W20262   1.708  28.732  14.297
53480W        W20263  35.453   9.250   3.668
53481W        W20264   9.586  21.228   4.105
53482W        W20265   6.989  11.815   0.726
53483W        W20266  23.623  41.316  12.096
53484W        W20267  17.015  41.407   4.230
53485W        W20268   6.420  37.045  13.446
53486W        W20269  29.078  16.285  14.491
53487W        W20270  38.536   0.881  12.799
53488W        W20271  15.091   6.904  10.715
53489W        W20272   2.165  24.676  14.388
53490W        W20273  40.613  25.108  12.381
53491W        W20274  15.783  38.408   4.181
53492W        W20275  33.344  41.005  10.249
53493W        W20276  18.885  35.811   2.852
53494W        W20277  10.058  26.741   4.252
53495W        W20278  12.476  21.480  13.772
53496W        W20279  29.557  17.550   4.656
53497W        W20280  15.345  22.007  10.374
53498W        W20281  10.806  39.377   3.073
53499W        W20282  14.315  38.595   4.169
53500W        W20283  32.050  31.536  10.755
53501W        W20284  37.856  33.775  10.317
53502W        W20285  14.508   5.744  10.008
53503W        W20286  12.078  25.273  10.655
53504W        W20287  13.558   7.036   2.838
53505W        W20288  32.017   5.113  11.165
53506W        W20289   5.778  32.028  13.697
53507W        W20290  21.672   3.401  12.428
53508W        W20291  44.254  43.524  14.737
53509W        W20292  14.758  31.016   1.472
53510W        W20293  18.616  14.642  12.321
53511W        W20294  31.708   2.450   2.522
53512W        W20295  43.223  29.167  13.987
53513W        W20296  11.298  27.662   3.776
53514W        W20297  21.052  42.447   1.238
53515W        W20298  27.083  12.783  11.700
53516W        W20299  36.377  14.457   1.341
53517W        W20300  35.970  11.494  13.051
53518W        W20301   0.279   4.785  10.589
53519W        W20302   0.389   2.184   0.786
53520W        W20303   3.243  40.206   4.406
53521W        W20304  24.464  40.371  13.550
53522W        W20305  43.875  34.553  12.389
53523W        W20306   7.793  26.147   1.008
53524W        W20307  23.620   1.405   2.717
53525W        W20308  15.838  44.094  11.053
53526W        W20309  41.025   1.977   4.696
53527W        W20310  15.657  29.548  12.524
53528W        W20311  30.288   6.878  12.212
53529W        W20312  37.061  40.703  11.990
53530W        W20313  33.227  38.316   1.929
53531W        W20314  33.558  19.312  14.564
53532W        W20315  21.141   5.381  10.929
53533W        W20316   4.264   0.430  14.501
53534W        W20317  21.516  27.931   1.821
53535W        W20318  22.447  13.795  13.121
53536W        W20319  38.386  43.765   0.673
53537W        W20320  14.330  38.092   4.035
53538W        W20321   3.443  40.457   2.886
53539W        W20322   9.283  29.953  11.347
53540W        W20323  13.128   1.653  11.566
53541W        W20324  29.081  14.400  14.233
53542W        W20325  21.211  27.979  14.547
53543W        W20326   1.799  11.128  12.601
53544W        W20327  13.360  31.507  13.418
53545W        W20328  13.535  18.188   4.078
53546W        W20329  25.759  18.012  11.323
53547W        W20330  23.654  11.135   3.345
53548W        W20331   6.960  43.607  12.804
53549W        W20332  37.203  19.837   2.388
53550W        W20333  31.492  24.600   4.923
53551W        W20334  27.969  31.000  10.739
53552W        W20335  33.027  15.096  14.798
53553W        W20336  30.401  43.005   1.721
53554W        W20337  20.511   3.719   2.312
53555W        W20338  29.036  43.752   3.224
53556W        W20339  21.613   9.548   4.423
53557W        W20340  42.020  28.404   4.126
53558W        W20341   6.924  20.687   2.279
53559W        W20342  15.103  17.322  13.089
53560W        W20343  25.070  43.552   2.906
53561W        W20344  11.179  37.373   4.135
53562W        W20345  21.052   8.883  12.455
53563W        W20346  30.512  16.197  13.348
53564W        W20347  32.664  18.608  14.021
53565W        W20348   4.804  38.385   4.391
53566W        W20349  38.283  20.269  10.964
53567W        W20350   4.317  26.428   0.387
53568W        W20351  32.183  11.570  13.523
53569W        W20352  27.379  16.409   0.845
53570W        W20353  22.268  38.507   4.337
53571W        W20354  42.847  28.401   1.862
53572W        W20355  34.168  24.119  11.925
53573W        W20356  31.685  21.271  13.391
53574W        W20357  28.032  43.669   1.856
53575W        W20358   2.077  22.538   1.850
53576W        W20359  40.334  24.306   0.135
53577W        W20360  41.515  17.908  13.441
53578W        W20361  39.410  42.560  13.425
53579W        W20362  15.065  32.800   3.602
53580W        W20363  30.360  12.374   4.266
53581W        W20364  35.424  18.034   4.526
53582W        W20365   5.479   5.558   1.219
53583W        W20366  31.975  23.522  14.327
53584W        W20367  12.912  12.463   4.255
53585W        W20368   3.406  40.554   1.188
53586W        W20369  30.357  33.168   2.813
53587W        W20370  24.179  32.952  10.694
53588W        W20371  22.570  14.532   1.651
53589W        W20372  40.387   4.171   0.296
53590W        W20373   8.351  30.706  12.287
53591W        W20374   9.416  34.798   2.253
53592W        W20375  12.968   7.208  11.122
53593W        W20376  19.335   0.982   4.164
53594W        W20377  41.184   3.441  14.026
53595W        W20378  22.650  16.891   4.703
53596W        W20379  29.895  44.379  13.040
53597W        W20380  24.649  16.959  13.415
53598W        W20381  41.478  21.535  14.271
53599W        W20382  11.594  37.565   2.632
53600W        W20383  34.493  31.482  14.816
53601W        W20384   8.090  40.059   1.260
53602W        W20385  21.733  41.978   3.751
53603W        W20386  22.232  21.245   3.421
53604W        W20387  21.196  10.359   4.498
53605W        W20388  37.179  38.917   4.984
53606W        W20389   4.758  35.363  13.457
53607W        W20390  15.165  11.152   2.604
53608W        W20391  34.018  33.772   2.215
53609W        W20392   1.273  11.154   0.307
53610W        W20393  23.167  31.301  13.396
53611W        W20394  25.062  15.093  14.504
53612W        W20395   1.018  42.884   3.294
53613W        W20396  25.051  30.150  10.656
53614W        W20397  12.617  34.455   4.059
53615W        W20398  30.086  19.054  12.145
53616W        W20399  15.993  13.155  13.348
53617W        W20400  14.095  14.618   2.301
53618W        W20401  40.825  31.503  11.758
53619W        W20402  11.714  14.229   3.173
53620W        W20403  23.386  37.304  14.001
53621W        W20404  44.066  32.038   0.664
53622W        W20405  33.994  15.050   0.820
53623W        W20406  21.469  22.321  14.460
53624W        W20407  32.589  15.092   0.543
53625W        W20408  23.222  38.126   2.807
53626W        W20409  35.484  40.511  14.532
53627W        W20410  23.475  28.391   2.817
53628W        W20411  22.756  29.704   4.263
53629W        W20412   1.942  41.950   2.200
53630W        W20413  36.863  24.798   4.625
53631W        W20414   2.525  27.392   0.621
53632W        W20415  16.513  37.557   0.479
53633W        W20416  14.106  23.522  11.499
53634W        W20417   2.559  44.529   2.601
53635W        W20418  34.605  31.807  12.034
53636W        W20419  10.371   6.543   3.227
53637W        W20420  34.688  39.807  13.993
53638W        W20421  30.652   7.692   1.358
53639W        W20422   2.537  37.559  12.941
53640W        W20423   2.135  36.313  11.560
53641W        W20424  34.622   9.875  11.986
53642W        W20425  44.468  31.567  12.571
53643W        W20426   7.377  25.042  14.375
53644W        W20427  17.694  42.629   4.113
53645W        W20428   9.926   8.684  14.398
53646W        W20429  27.018  39.131  12.529
53647W        W20430   5.433  10.705  10.357
53648W        W20431   1.384  15.380   0.046
53649W        W20432  25.437  12.186  13.427
53650W        W20433  43.054   9.680   1.978
53651W        W20434  18.535  21.035  11.029
53652W        W20435  30.357  26.678   2.221
53653W        W20436  13.287   2.745  13.538
53654W        W20437  32.712  39.341  14.436
53655W        W20438   2.847  22.732  11.134
53656W        W20439  19.754  13.773   1.553
53657W        W20440   4.071   7.369  14.912
53658W        W20441  14.498  33.345   4.088
53659W        W20442  13.671   2.270   2.501
53660W        W20443  24.086  22.781  12.443
53661W        W20444  15.867   4.374   1.410
53662W        W20445  24.849  17.621  10.982
53663W        W20446   4.200  15.022  12.427
53664W        W20447  34.628  33.939   0.434
53665W        W20448  18.779  43.224  11.506
53666W        W20449  33.280   5.370   3.255
53667W        W20450  36.647  11.354  12.963
53668W        W20451  14.281  38.817   1.030
53669W        W20452  40.041  24.669  12.104
53670W        W20453  21.805  10.096  13.926
53671W        W20454  43.316   1.470  13.018
53672W        W20455   7.118  10.152  10.961
53673W        W20456  12.352   9.337  11.310
53674W        W20457   6.200  43.337   1.872
53675W        W20458   7.921   0.389   1.609
53676W        W20459  40.886  29.449  12.441
53677W        W20460  38.898  23.035  12.406
53678W        W20461  20.855  15.571   2.342
53679W        W20462  43.153  33.777   3.715
53680W        W20463  14.871  14.032   0.855
53681W        W20464  24.571  13.752   4.671
53682W        W20465   9.399  10.228  13.360
53683W        W20466  15.683  32.603  14.804
53684W        W20467  39.355  35.920  10.677
53685W        W20468  39.893  34.467   0.803
53686W        W20469  33.945  44.429   1.340
53687W        W20470  24.548  23.456   4.491
53688W        W20471   0.258  25.115   4.180
53689W        W20472  43.254   6.226   1.269
53690W        W20473  20.441   0.889  10.366
53691W        W20474  32.100   9.411  13.945
53692W        W20475  23.320  37.800   1.561
53693W        W20476  40.968  30.506   1.983
53694W        W20477  43.824  17.116  12.865
53695W        W20478  44.431  20.650   1.152
53696W        W20479  31.625  38.789   1.333
53697W        W20480  32.683  36.809   1.448
53698W        W20481  35.825  11.400  12.027
53699W        W20482  40.951  40.810  11.096
53700W        W20483  12.260  29.330   4.585
53701W        W20484  18.546  28.435   1.944
53702W        W20485   9.902  36.380  10.604
53703W        W20486   8.318  21.639   4.423
53704W        W20487   0.296  12.152   4.411
53705W        W20488  18.136  33.585   2.936
53706W        W20489  28.529  34.245  13.811
53707W        W20490   9.310  23.724   4.563
53708W        W20491   6.959   4.817   2.354
53709W        W20492  42.986  16.040   4.037
53710W        W20493  44.062  43.076  13.887
53711W        W20494  18.139  36.826   3.351
53712W        W20495  13.300  44.026   4.727
53713W        W20496  10.146  26.269  10.540
53714W        W20497  37.836   2.848   3.242
53715W        W20498  33.413  42.819  13.493
53716W        W20499   5.520  18.428  13.250
53717W        W20500  24.084  22.590   0.457
53718W        W20501  29.087  26.646   2.129
53719W        W20502  39.123  44.914   1.023
53720W        W20503  29.901  42.328   2.434
53721W        W20504   6.134  18.526  11.280
53722W        W20505  23.014  14.104   4.737
53723W        W20506   9.647  40.221  11.550
53724W        W20507  31.372   7.407   3.646
53725W        W20508  19.474   9.630   1.882
53726W        W20509  20.398  33.194  11.275
53727W        W20510  28.625   1.310  10.535
53728W        W20511   4.520  35.518  13.927
53729W        W20512  19.159   8.869   2.525
53730W        W20513  36.978  12.893   1.363
53731W        W20514  41.462  25.484  11.876
53732W        W20515  23.649  33.509   1.247
53733W        W20516  23.531   7.993  12.606
53734W        W20517  21.142  27.014   1.833
53735W        W20518   0.316  39.933   2.156
53736W        W20519  22.143  22.407  11.629
53737W        W20520  20.195  31.548  13.858
53738W        W20521   0.183   3.365   4.111
53739W        W20522  20.704  33.390   1.388
53740W        W20523  38.589  10.118   0.220
53741W        W20524  12.630  42.671  12.914
53742W        W20525  43.542   4.144   3.695
53743W        W20526  36.943  30.444  11.215
53744W        W20527  32.344   6.097  10.321
53745W        W20528  24.506  27.122   2.824
53746W        W20529  25.496  36.895   1.718
53747W        W20530  20.173  23.313   0.775
53748W        W20531  38.747  34.509  12.099
53749W        W20532   7.714  28.965  14.503
53750W        W20533   7.454  31.915  10.952
53751W        W20534  19.472  38.547  13.625
53752W        W20535  11.256  37.138  12.382
53753W        W20536   2.967  41.806   2.252
53754W        W20537  16.124  33.572   1.688
53755W        W20538   0.062  35.494   0.417
53756W        W20539  33.239  23.266   1.372
53757W        W20540  30.174   1.872   3.607
53758W        W20541  10.114   3.865  14.039
53759W        W20542  14.526  21.087  13.088
53760W        W20543  13.418   8.730  11.618
53761W        W20544   0.775  18.484  10.774
53762W        W20545   9.044  43.265   0.313
53763W        W20546  30.622  21.008   4.109
53764W        W20547   8.729  10.701   2.956
53765W        W20548  24.201  31.513  10.990
53766W        W20549  35.394  30.228  10.695
53767W        W20550  20.770   5.955   3.715
53768W        W20551  42.814  23.704   4.297
53769W        W20552   7.748   2.137   1.782
53770W        W20553  38.853  19.396  11.533
53771W        W20554  33.082  29.339  11.527
53772W        W20555   9.366  17.061  11.970
53773W        W20556  26.872  40.999  13.397
53774W        W20557   2.758  34.896  11.109
53775W        W20558   3.788  12.317   2.760
53776W        W20559  33.725  25.959   1.475
53777W        W20560   5.460  40.989   2.696
53778W        W20561  18.696   1.773  12.018
53779W        W20562  33.500  12.811  11.192
53780W        W20563  14.820  26.428  10.295
53781W        W20564  40.869  36.989   4.150
53782W        W20565  20.662  22.028   0.926
53783W        W20566  44.346  26.895  11.417
53784W        W20567  11.196   9.659   3.215
53785W        W20568  29.481  14.630  14.611
53786W        W20569  39.136  37.627  11.707
53787W        W20570  40.226  28.739   3.789
53788W        W20571  19.524   7.656  13.921
53789W        W20572   6.763   7.271   2.003
53790W        W20573  34.123  19.706  10.948
53791W        W20574  37.911  18.584   2.322
53792W        W20575  17.942  13.805   9.809
53793W        W20576   8.171  19.769   2.854
53794W        W20577  11.329   6.646   4.557
53795W        W20578  22.495  43.249  10.686
53796W        W20579   9.517  11.370  11.780
53797W        W20580  35.101  11.205   3.696
53798W        W20581  34.927  21.664   2.994
53799W        W20582  19.583  28.743  13.878
53800W        W20583  35.336  34.384  11.625
53801W        W20584  34.430  32.090  13.838
53802W        W20585  25.132  35.866   0.799
53803W        W20586  12.847   7.279  13.005
53804W        W20587  12.326   9.166   3.697
53805W        W20588  32.554  12.054   2.787
53806W        W20589  35.878  37.114  12.515
53807W        W20590   6.374  33.524  11.872
53808W        W20591  18.190  31.648  12.158
53809W        W20592   8.208  27.036  12.795
53810W        W20593  29.685  29.918   3.062
53811W        W20594   9.819   6.234  12.470
53812W        W20595  20.820  26.168  11.371
53813W        W20596   0.964  12.887   4.811
53814W        W20597   1.320  13.512   2.322
53815W        W20598  32.629  18.006   2.768
53816W        W20599  37.679  35.790   1.439
53817W        W20600  29.520  40.715  12.922
53818W        W20601  27.735  37.478  12.103
53819W        W20602  36.138  42.457  13.005
53820W        W20603  30.200  15.772  13.352
53821W        W20604  16.187  40.006  13.971
53822W        W20605  31.055   5.401  11.548
53823W        W20606   2.919  28.661  10.642
53824W        W20607  26.207  40.744   2.775
53825W        W20608  40.413  39.965  14.437
53826W        W20609  36.430   5.166  12.489
53827W        W20610  24.705  36.333  12.533
53828W        W20611   7.300  37.394  12.447
53829W        W20612  19.751  24.769   4.149
53830W        W20613  37.961  23.664  11.547
53831W        W20614  31.370  26.865  11.086
53832W        W20615  29.134  23.993  14.869
53833W        W20616   5.472  14.671  10.635
53834W        W20617  42.358  30.186  14.815
53835W        W20618  43.246   7.594   0.934
53836W        W20619  28.165  36.588   3.623
53837W        W20620  14.907  23.251   0.816
53838W        W20621  25.473  37.594  14.391
53839W        W20622  28.377  19.085  11.057
53840W        W20623   5.537  27.536  12.191
53841W        W20624  44.840  37.891  11.470
53842W        W20625   6.704  28.849  14.235
53843W        W20626  19.754  24.601   3.645
53844W        W20627  19.550  43.793  12.450
53845W        W20628   4.859   3.766  10.740
53846W        W20629   8.807  33.602  14.517
53847W        W20630  34.391  26.796   0.467
53848W        W20631   7.593  33.797   4.844
53849W        W20632   7.548  32.892  14.594
53850W        W20633  43.043  44.753   3.322
53851W        W20634  41.079   9.832  13.364
53852W        W20635  33.213  30.367   3.173
53853W        W20636  31.520  19.092   3.383
53854W        W20637  41.576  24.789  13.633
53855W        W20638  34.286  13.650   1.153
53856W        W20639   3.773   9.643   1.380
53857W        W20640  27.370  39.134   1.742
53858W        W20641  41.438   1.904   1.173
53859W        W20642  30.106  31.685  13.478
53860W        W20643  44.963  25.253  11.918
53861W        W20644  14.639  44.472   4.256
53862W        W20645  36.284   3.520  13.011
53863W        W20646  14.073   5.357  13.049
53864W        W20647  38.486  13.546  12.940
53865W        W20648   4.993  17.029   0.033
53866W        W20649  20.010   3.208   1.978
53867W        W20650  27.173  31.508   3.668
53868W        W20651   4.775  27.689  11.084
53869W        W20652  28.266   5.901   1.720
53870W        W20653  10.888  17.589   0.966
53871W        W20654  18.223  36.684   4.237
53872W        W20655   8.283  34.844  14.878
53873W        W20656  37.940  30.205  11.992
53874W        W20657  36.401  36.529   0.951
53875W        W20658  25.653  33.638  11.709
53876W        W20659  19.773  42.507   3.846
53877W        W20660   7.140  33.117   2.416
53878W        W20661   6.783   1.410  13.758
53879W        W20662   6.128  34.177   4.273
53880W        W20663   2.752  37.475  10.561
53881W        W20664  42.896  12.420  14.295
53882W        W20665  27.150  22.938   4.101
53883W        W20666  41.860  24.435   1.951
53884W        W20667  13.845  30.189  13.461
53885W        W20668   3.416   3.182   4.161
53886W        W20669   4.715  25.449  12.089
53887W        W20670  15.223  40.865   0.834
53888W        W20671  21.158   2.917   1.465
53889W        W20672  43.845  26.308  14.943
53890W        W20673  24.383  17.375  11.689
53891W        W20674  44.540   2.400  11.152
53892W        W20675  44.167  10.735  12.315
53893W        W20676  44.021   3.813   0.751
53894W        W20677   9.811  18.104  11.369
53895W        W20678  10.243   1.203   5.226
53896W        W20679  40.936   3.279  14.451
53897W        W20680  31.726  21.720   2.068
53898W        W20681   6.092   4.307   0.416
53899W        W20682  22.602  13.212  13.778
53900W        W20683  16.737  12.733  10.825
53901W        W20684  18.305  18.366  11.909
53902W        W20685  19.563  33.969  10.662
53903W        W20686   5.775  13.732  14.811
53904W        W20687  38.837  26.281  11.433
53905W        W20688  44.331  31.702  10.145
53906W        W20689  11.230  28.585   1.364
53907W        W20690   9.839  31.347  11.106
53908W        W20691  34.629  40.474  10.690
53909W        W20692  26.815  10.167  12.307
53910W        W20693   6.865  22.021  10.687
53911W        W20694  36.286   4.830   2.271
53912W        W20695   6.741   7.186  11.163
53913W        W20696  26.494  16.630  12.430
53914W        W20697  36.449  43.946  12.823
53915W        W20698  37.978  37.526   1.789
53916W        W20699  42.350   6.262   1.839
53917W        W20700  25.255  32.161   0.596
53918W        W20701  18.064   4.942  14.454
53919W        W20702   5.939  38.345  14.765
53920W        W20703  32.491  14.344  12.822
53921W        W20704  35.902  27.710   3.663
53922W        W20705  16.537  15.141   0.836
53923W        W20706   9.791  20.619  11.784
53924W        W20707  25.564  25.090  11.926
53925W        W20708  33.831  22.703  12.023
53926W        W20709  37.588   4.326   4.311
53927W        W20710   5.373  35.310  11.591
53928W        W20711  38.886   6.870  14.954
53929W        W20712  14.263  31.002   0.108
53930W        W20713  41.078  22.034   0.989
53931W        W20714  13.784  13.328  13.042
53932W        W20715  37.119  39.259  11.947
53933W        W20716  11.185  30.020  14.293
53934W        W20717  41.366   6.173   3.607
53935W        W20718  28.354  22.045  14.074
53936W        W20719  32.019   7.188   1.474
53937W        W20720  21.249   1.800  10.781
53938W        W20721   7.198   9.943   2.024
53939W        W20722   8.758   2.427  11.175
53940W        W20723  19.528  13.094   2.778
53941W        W20724  19.890  37.864   4.625
53942W        W20725   2.746   8.934  10.856
53943W        W20726   3.355   5.914  11.568
53944W        W20727  17.238  10.134   1.856
53945W        W20728  20.336  10.380   0.025
53946W        W20729  14.750  16.793   3.306
53947W        W20730  33.769   0.871  14.379
53948W        W20731  27.021  19.077  14.433
53949W        W20732  13.853  33.004  12.073
53950W        W20733  44.740   6.886   0.912
53951W        W20734  44.816  35.965  13.596
53952W        W20735  24.780   9.223   3.105
53953W        W20736  25.162   1.929   2.257
53954W        W20737  22.770  17.275   0.295
53955W        W20738  11.700  20.286  14.396
53956W        W20739   8.860  18.425  14.341
53957W        W20740  36.184  37.351  12.181
53958W        W20741   2.467  35.955  10.269
53959W        W20742  21.288  35.569   2.818
53960W        W20743  38.921  35.973  11.528
53961W        W20744  20.553  34.932  14.633
53962W        W20745  11.052  17.200   2.218
53963W        W20746  44.812  34.161  13.881
53964W        W20747   1.616  41.167  12.414
53965W        W20748  31.891  25.526  13.622
53966W        W20749  43.897  38.400   1.489
53967W        W20750   0.705   8.388   2.307
53968W        W20751   5.937   1.842   2.438
53969W        W20752  10.343  25.255  14.545
53970W        W20753  10.764  20.528  12.685
53971W        W20754   4.242   3.862   1.354
53972W        W20755  36.361   8.929   4.103
53973W        W20756  18.771  28.178   2.324
53974W        W20757  32.266   0.202   1.375
53975W        W20758  30.514   4.906   3.601
53976W        W20759  11.114  26.894  13.630
53977W        W20760  16.613  41.399   0.458
53978W        W20761  29.149  25.623   2.174
53979W        W20762  44.795   6.223  14.407
53980W        W20763  38.414  43.830   3.705
53981W        W20764   6.700   2.427  13.532
53982W        W20765   0.859   2.443  10.681
53983W        W20766  43.933  43.053  10.732
53984W        W20767  34.481  21.000  13.757
53985W        W20768  18.243  27.560   2.291
53986W        W20769   7.649  35.379   0.503
53987W        W20770  35.486  19.715  12.203
53988W        W20771  41.632  19.556  11.046
53989W        W20772  40.365  24.078   1.459
53990W        W20773  31.144   6.442   5.004
53991W        W20774  41.335  21.668   4.850
53992W        W20775  21.027  23.646  10.876
53993W        W20776  37.300  33.314   1.326
53994W        W20777  36.502  19.620  11.079
53995W        W20778  15.882   5.787   0.985
53996W        W20779   1.030  31.166  11.056
53997W        W20780  15.990   7.202   2.198
53998W        W20781  30.613  34.018  14.293
53999W        W20782   1.991   9.945  10.778
54000W        W20783  33.462   0.374  14.939
54001W        W20784  11.838   0.176  12.357
54002W        W20785  33.880  37.813   2.132
54003W        W20786  18.739   0.044  14.069
54004W        W20787   4.900  25.168   3.172
54005W        W20788  21.142  23.648   4.721
54006W        W20789  12.704  21.454  10.553
54007W        W20790   8.929  39.758   2.831
54008W        W20791  33.487  26.540   1.730
54009W        W20792  25.473  20.226  10.568
54010W        W20793  20.429  22.640   2.735
54011W        W20794  29.373   9.857   4.869
54012W        W20795  28.173  40.109  10.939
54013W        W20796   7.188   9.693  12.174
54014W        W20797  34.822   2.818   2.459
54015W        W20798  35.412  14.352  14.880
54016W        W20799  15.648  34.940   1.633
54017W        W20800   9.118   6.708  12.605
54018W        W20801  29.868  20.852   4.114
54019W        W20802  27.024  29.128   3.760
54020W        W20803  23.555  36.495  13.551
54021W        W20804  21.239  15.305  12.903
54022W        W20805  28.517  35.801  12.603
54023W        W20806  35.341  28.036   2.882
54024W        W20807  42.607  19.281   0.848
54025W        W20808  15.300  34.165  13.849
54026W        W20809   3.486   8.687   4.984
54027W        W20810  26.615  37.163   2.424
54028W        W20811  14.560  40.769  10.696
54029W        W20812   3.669   6.436  14.227
54030W        W20813   7.083  30.702   1.346
54031W        W20814   0.485  25.587   4.308
54032W        W20815  24.257   1.052   0.732
54033W        W20816  19.765  21.279  10.964
54034W        W20817  42.826  42.023   1.741
54035W        W20818  13.501  14.741   1.313
54036W        W20819  21.052  15.861   3.662
54037W        W20820  44.762  12.084   1.467
54038W        W20821  13.813   9.258  14.985
54039W        W20822   9.383   9.806  14.045
54040W        W20823  31.133  22.615  13.873
54041W        W20824  14.149  39.173   1.591
54042W        W20825  43.397  11.200  10.671
54043W        W20826  12.653  42.376   3.667
54044W        W20827  35.715  41.052   2.932
54045W        W20828  12.689  35.470  13.750
54046W        W20829  30.546   5.855   4.122
54047W        W20830   0.765   8.688  10.641
54048W        W20831  19.867   3.703  13.409
54049W        W20832   8.222   4.850   4.218
54050W        W20833  36.833   3.220  12.121
54051W        W20834  42.824  31.247  12.560
54052W        W20835   9.394  24.131  12.548
54053W        W20836  30.367   3.430  11.134
54054W        W20837   3.436  36.810   4.533
54055W        W20838   0.530  42.760  13.911
54056W        W20839  43.391  13.653  12.833
54057W        W20840  29.974  17.377   4.943
54058W        W20841  37.505  43.879  13.038
54059W        W20842  25.311  22.125  14.911
54060W        W20843   2.323  19.125   2.257
54061W        W20844  27.650  30.126   4.218
54062W        W20845  15.188   5.311   3.750
54063W        W20846  13.256  21.718   4.612
54064W        W20847  39.771  28.631  10.517
54065W        W20848   5.349  26.975   2.665
54066W        W20849  24.852  27.855  10.341
54067W        W20850  39.942  20.947   2.202
54068W        W20851  16.861  35.047  11.745
54069W        W20852  20.147  38.314   4.499
54070W        W20853   2.398  36.899  11.777
54071W        W20854  16.184   9.276  12.005
54072W        W20855   9.885  27.901  14.840
54073W        W20856  11.883   6.227   2.163
54074W        W20857  25.952  37.515   0.832
54075W        W20858  31.150  16.579  13.419
54076W        W20859  24.074  30.467   1.707
54077W        W20860  37.808  24.427   0.911
54078W        W20861  32.364  36.354  12.653
54079W        W20862  41.049  44.280  10.730
54080W        W20863  10.591  18.539  11.116
54081W        W20864  23.847  40.220   1.841
54082W        W20865  12.572  12.271   3.197
54083W        W20866  44.568  35.057  11.072
54084W        W20867  35.078  43.600   1.848
54085W        W20868  24.748  26.208   0.548
54086W        W20869   8.379  40.362  11.232
54087W        W20870   3.398  12.175  14.484
54088W        W20871  23.173   6.482  10.443
54089W        W20872  20.615  19.762   2.355
54090W        W20873   5.269  22.810  10.737
54091W        W20874   2.898   4.790   4.692
54092W        W20875  11.094  39.884  12.802
54093W        W20876  37.804  18.961   1.335
54094W        W20877  44.985   4.312   3.518
54095W        W20878   4.148  15.846   4.726
54096W        W20879  35.483  34.976  12.835
54097W        W20880   2.845  30.901  12.869
54098W        W20881  25.163  21.103  13.008
54099W        W20882  34.438  43.819   1.866
54100W        W20883  19.566  30.738  13.081
54101W        W20884  18.222  43.568  13.349
54102W        W20885  34.987  27.218  13.076
54103W        W20886  31.146  34.444   4.933
54104W        W20887   9.982  30.485   3.859
54105W        W20888  15.761   8.904   4.183
54106W        W20889  15.068  29.895  14.436
54107W        W20890   0.789  24.016   1.626
54108W        W20891  40.255  43.228  14.935
54109W        W20892  40.263  23.134  11.231
54110W        W20893  37.093   0.926  14.614
54111W        W20894  19.139  15.107  13.836
54112W        W20895  41.616  16.546   4.357
54113W        W20896  19.236  11.843   0.523
54114W        W20897   4.674  15.199   1.000
54115W        W20898  37.382  13.934  11.548
54116W        W20899  28.246  24.134   0.483
54117W        W20900  26.668  37.270   0.396
54118W        W20901  22.500  34.817  14.818
54119W        W20902   9.239  38.590   0.432
54120W        W20903   6.721   1.935  12.447
54121W        W20904  44.017   9.825  14.305
54122W        W20905   6.436  21.525  12.104
54123W        W20906  41.497  12.193   4.236
54124W        W20907  30.147  16.590  13.480
54125W        W20908   5.772  38.780   3.126
54126W        W20909  38.348  15.813  13.378
54127W        W20910  31.064  29.989   1.660
54128W        W20911  32.684   9.555  12.465
54129W        W20912  30.693  32.665   3.363
54130W        W20913   8.337   8.192  10.818
54131W        W20914  31.029  14.628   2.401
54132W        W20915  16.277   2.939  14.006
54133W        W20916  44.315  28.348   4.591
54134W        W20917   9.740  23.588  11.107
54135W        W20918   1.368   7.906  12.333
54136W        W20919  12.803  11.809  13.725
54137W        W20920   2.600  15.791   0.971
54138W        W20921   2.252   8.173  14.945
54139W        W20922   0.812  39.396  11.885
54140W        W20923  23.571  32.072  11.408
54141W        W20924  22.544   4.672   1.229
54142W        W20925  13.610  36.004  11.698
54143W        W20926  44.450  15.092   4.028
54144W        W20927   8.711  42.743  13.248
54145W        W20928  23.040   4.474   1.221
54146W        W20929  42.340  30.455  12.465
54147W        W20930  12.296   8.042  14.192
54148W        W20931  12.470  40.197  14.455
54149W        W20932  37.523  31.874   3.176
54150W        W20933  29.418  16.281   2.743
54151W        W20934  30.558   9.443   3.294
54152W        W20935  14.592  42.024   3.624
54153W        W20936  33.853  31.301   2.497
54154W        W20937   2.144   0.345   1.913
54155W        W20938   7.937  28.434   2.310
54156W        W20939  10.991  23.058  13.435
54157W        W20940  40.536  41.003   0.109
54158W        W20941  37.259  42.535   1.401
54159W        W20942  29.201   5.479   0.752
54160W        W20943  40.681  10.590   2.909
54161W        W20944  25.059  30.159   1.817
54162W        W20945  15.430  38.449   5.117
54163W        W20946  13.108  26.733   2.098
54164W        W20947   7.500  20.999   9.747
54165W        W20948  12.898  32.180   0.520
54166W        W20949   9.773  21.387   2.659
54167W        W20950  19.623  36.017  14.601
54168W        W20951   8.387  33.349   4.554
54169W        W20952   7.693  30.003  13.017
54170W        W20953  37.296  43.403   0.949
54171W        W20954  14.797  17.187  11.075
54172W        W20955  39.299  29.640   3.096
54173W        W20956   3.122   4.395  10.749
54174W        W20957  36.450   7.433   0.382
54175W        W20958   1.169  22.143  12.872
54176W        W20959  22.472   1.528   0.014
54177W        W20960  32.150   3.697  11.380
54178W        W20961  16.051  20.646  11.436
54179W        W20962  22.293  22.309   3.592
54180W        W20963  14.781   1.851  12.492
54181W        W20964  37.681  24.675  14.510
54182W        W20965  37.302  28.249   4.106
54183W        W20966  33.175  23.292  13.909
54184W        W20967  18.536  32.065   0.209
54185W        W20968   9.303   2.927  12.420
54186W        W20969   8.787   5.815  11.658
54187W        W20970   0.375  12.698   3.092
54188W        W20971  25.191  14.146   3.267
54189W        W20972   0.619  17.037   0.912
54190W        W20973  14.621  38.111   5.060
54191W        W20974   2.721  33.585   3.143
54192W        W20975  20.105  25.705   1.989
54193W        W20976  12.268  41.429   0.363
54194W        W20977  44.796  34.657   3.911
54195W        W20978  14.204   2.249  13.560
54196W        W20979  36.239  27.208   1.853
54197W        W20980  30.999  44.031   0.969
54198W        W20981  23.558  15.732  10.171
54199W        W20982  36.953  34.500   2.888
54200W        W20983   0.208   3.687  12.019
54201W        W20984  17.273  12.409  10.594
54202W        W20985  24.650   3.857  10.247
54203W        W20986  31.193  35.116  12.813
54204W        W20987   7.422  20.092  10.582
54205W        W20988  29.478  30.160   4.527
54206W        W20989  31.659  36.528  14.919
54207W        W20990  22.513  19.168   4.308
54208W        W20991  35.220  18.186  13.983
54209W        W20992  28.439   6.398   1.570
54210W        W20993  16.478  16.317   4.308
54211W        W20994  33.107  35.724  11.147
54212W        W20995  32.072  39.483   1.297
54213W        W20996  15.656  13.719   0.332
54214W        W20997  21.515  19.804  13.690
54215W        W20998  35.946  40.882  14.787
54216W        W20999  21.617   1.913  11.852
54217W        W21000  44.064  38.636   2.532
54218W        W21001  27.101   5.427  14.818
54219W        W21002  35.614  20.772  12.819
54220W        W21003  40.625  17.586  13.721
54221W        W21004  34.296  27.156   1.751
54222W        W21005  10.904  11.755   3.727
54223W        W21006  23.712  36.036   3.543
54224W        W21007  16.572  38.776  14.519
54225W        W21008   6.717  14.662  14.263
54226W        W21009  24.970  32.399   2.273
54227W        W21010  33.578  31.735   1.815
54228W        W21011  19.612  30.581  11.214
54229W        W21012   6.218  42.334   2.691
54230W        W21013  14.684  27.265   2.424
54231W        W21014  44.985  40.684   0.830
54232W        W21015  27.120  19.428  10.693
54233W        W21016  43.507  44.803   1.770
54234W        W21017  44.406   9.577   2.380
54235W        W21018   4.826  41.558   2.464
54236W        W21019  27.457  14.134  10.436
54237W        W21020   7.360   5.728   0.189
54238W        W21021  15.065   6.827  14.473
54239W        W21022  22.166  21.813  10.416
54240W        W21023   7.537  24.109  13.308
54241W        W21024  36.909  12.943  12.109
54242W        W21025   7.313   7.223   5.148
54243W        W21026   1.211   8.600   4.795
54244W        W21027  11.918  32.500   2.386
54245W        W21028  24.683  44.354   2.295
54246W        W21029  22.916  21.261  11.676
54247W        W21030  29.500   3.926   4.299
54248W        W21031  18.845   7.133  12.551
54249W        W21032  24.778   2.028  11.107
54250W        W21033   3.466   1.460  14.244
54251W        W21034  12.594  18.747   3.900
54252W        W21035  42.777  17.164  14.298
54253W        W21036  22.745   1.960  13.794
54254W        W21037  36.413  33.570  10.837
54255W        W21038  25.848  43.494   4.043
54256W        W21039  10.712  37.529   4.255
54257W        W21040  12.378  43.360   3.214
54258W        W21041  34.550  28.428  14.345
54259W        W21042  39.938  20.702   4.051
54260W        W21043  16.147  36.085  14.908
54261W        W21044  37.937  14.243  13.136
54262W        W21045  14.194  24.956   1.834
54263W        W21046   6.239  18.847  13.354
54264W        W21047  10.084   1.470   3.755
54265W        W21048  44.409  28.203   0.957
54266W        W21049  35.621  22.027   1.380
54267W        W21050  14.814   9.254  10.675
54268W        W21051  43.742  18.615  13.809
54269W        W21052  23.252   7.257  13.681
54270W        W21053  17.524  41.578   3.209
54271W        W21054  27.460  14.335  11.527
54272W        W21055   4.830  41.386  10.628
54273W        W21056   6.418   9.306  10.651
54274W        W21057  21.691  21.942  14.741
54275W        W21058  37.470  35.846  13.336
54276W        W21059   9.941  41.524   2.503
54277W        W21060   1.156   3.044  10.144
54278W        W21061  10.947  18.729   2.245
54279W        W21062  41.989  23.153   1.143
54280W        W21063  44.960  43.371   4.813
54281W        W21064  29.460  12.320   0.687
54282W        W21065  37.039  19.653  11.077
54283W        W21066  11.371   9.147   0.462
54284W        W21067   3.477  31.966  11.931
54285W        W21068  38.843  18.274  12.827
54286W        W21069  12.873  38.312  12.007
54287W        W21070  41.038  13.421  12.843
54288W        W21071   6.660   0.810   2.780
54289W        W21072   2.884   9.780   3.499
54290W        W21073  24.558  10.137   3.113
54291W        W21074  28.295  12.583  14.512
54292W        W21075   9.258  42.399   4.866
54293W        W21076  31.437  40.715   3.169
54294W        W21077  33.029  20.776   0.222
54295W        W21078  19.018   0.757   0.263
54296W        W21079   8.123  25.057  12.046
54297W        W21080   6.697  28.395   2.717
54298W        W21081   4.368  36.505  13.302
54299W        W21082  35.034  40.908   4.581
54300W        W21083   2.519  41.971   3.567
54301W        W21084   4.767  10.938   0.843
54302W        W21085  38.959  39.450  12.886
54303W        W21086  31.159   0.332  12.024
54304W        W21087  15.335  40.543  12.019
54305W        W21088  38.944   1.574  10.896
54306W        W21089  31.583  15.537   1.691
54307W        W21090  24.242  17.550  13.858
54308W        W21091   4.652  18.017   2.321
54309W        W21092  41.684   9.870   1.885
54310W        W21093  13.631  18.617  12.831
54311W        W21094   7.218  40.311  13.040
54312W        W21095  28.930  31.850   3.691
54313W        W21096  34.553   0.521   4.214
54314W        W21097  36.537   6.926  14.093
54315W        W21098  19.064  27.970   2.682
54316W        W21099  16.677  12.621   3.461
54317W        W21100  17.655   0.753   1.438
54318W        W21101   8.640  38.386  12.050
54319W        W21102   6.950  41.510   2.266
54320W        W21103  27.800   7.856   1.266
54321W        W21104   3.783  34.411  14.965
54322W        W21105  10.327  42.240   3.399
54323W        W21106  29.508  14.730   1.604
54324W        W21107  18.686  13.523  11.472
54325W        W21108  12.333   8.166   0.897
54326W        W21109   6.715  42.543   2.604
54327W        W21110  42.911  35.419  11.831
54328W        W21111  43.937   6.998  14.211
54329W        W21112   8.866  27.161  13.121
54330W        W21113  33.906   9.885  13.078
54331W        W21114  31.198  43.937   3.709
54332W        W21115  43.811  40.771  14.534
54333W        W21116  40.164  32.513   3.839
54334W        W21117  40.293  17.704   1.818
54335W        W21118  40.003  11.904   2.110
54336W        W21119  14.317  15.683   4.611
54337W        W21120  39.986   6.949  13.397
54338W        W21121  43.521  20.838   4.168
54339W        W21122  27.617  14.961   1.831
54340W        W21123  19.298  40.013  14.238
54341W        W21124   6.364  33.728   0.270
54342W        W21125  15.865  13.507  12.879
54343W        W21126   2.692  43.771   0.948
54344W        W21127  14.610  14.695  12.857
54345W        W21128  15.287  26.993   3.182
54346W        W21129  23.896  42.338   4.063
54347W        W21130  14.122  31.528  12.955
54348W        W21131  34.895   7.809  12.678
54349W        W21132  12.117   2.517   2.425
54350W        W21133  42.224  20.842   0.440
54351W        W21134  43.820   4.520   4.434
54352W        W21135  40.890  27.076   1.852
54353W        W21136   7.915  34.200  12.969
54354W        W21137  31.505   2.436   3.835
54355W        W21138  35.703   7.601  13.771
54356W        W21139  32.009   8.296  11.213
54357W        W21140  22.284  26.023   2.256
54358W        W21141   1.222   6.442   4.898
54359W        W21142  11.689  30.422  14.961
54360W        W21143  43.986  13.066   3.951
54361W        W21144   2.272  32.869  12.964
54362W        W21145  40.670   3.899  13.735
54363W        W21146  21.352  32.083   5.066
54364W        W21147  38.477   1.556   0.334
54365W        W21148  14.107   1.805  13.255
54366W        W21149  17.456  13.614   0.012
54367W        W21150  37.469  31.403   3.357
54368W        W21151  10.213  37.139  11.053
54369W        W21152   8.625  25.599   0.242
54370W        W21153  31.474   4.441  13.379
54371W        W21154  43.329  41.593   3.437
54372W        W21155  42.726  34.568   0.187
54373W        W21156  14.309  43.391  10.910
54374W        W21157  27.129   1.213  14.786
54375W        W21158  20.394  33.630   3.482
54376W        W21159  38.107  44.832   3.101
54377W        W21160  42.348  15.935  12.007
54378W        W21161  35.362   9.669   2.140
54379W        W21162  42.084  18.534   4.516
54380W        W21163  27.920  42.085   3.554
54381W        W21164  17.794  21.683   1.364
54382W        W21165  20.724  25.478  11.982
54383W        W21166   7.284  23.492  12.957
54384W        W21167  38.498   3.645  11.141
54385W        W21168  38.447  38.005   0.630
54386W        W21169  14.080  38.853   0.548
54387W        W21170  38.786  26.415   1.334
54388W        W21171  35.510  34.459  12.665
54389W        W21172  11.281   1.721   4.238
54390W        W21173  39.369  23.948  10.747
54391W        W21174  19.748  42.002  12.526
54392W        W21175  24.420  44.346  10.690
54393W        W21176   9.010  33.942   0.246
54394W        W21177  29.415  15.584  13.202
54395W        W21178   1.750  11.332  13.892
54396W        W21179  11.550  41.470  14.455
54397W        W21180  19.413  10.843   1.241
54398W        W21181  26.358  44.056   0.973
54399W        W21182  20.754  21.117  11.279
54400W        W21183  33.294   5.785   0.407
54401W        W21184  15.142  19.178  10.768
54402W        W21185  36.351  32.793  11.131
54403W        W21186  39.000  21.733   2.664
54404W        W21187  40.363  15.032   4.142
54405W        W21188   4.419  31.676  13.925
54406W        W21189  16.846  19.634  12.532
54407W        W21190  32.518   4.837   0.856
54408W        W21191   1.216  15.302  12.767
54409W        W21192  13.367  17.926  13.454
54410W        W21193   2.520  32.269  13.603
54411W        W21194  22.013  31.167   1.776
54412W        W21195  18.275  41.185   2.473
54413W        W21196  29.851  30.073  11.247
54414W        W21197  22.148  15.204   3.364
54415W        W21198  29.968  25.916  14.293
54416W        W21199  21.750  26.831  13.255
54417W        W21200  26.230   9.568   4.629
54418W        W21201   6.892  32.456  13.463
54419W        W21202  44.899  17.050  14.118
54420W        W21203  30.535  44.816   0.997
54421W        W21204  44.368   9.143  14.979
54422W        W21205  43.244  20.545   0.394
54423W        W21206   6.272  33.598   4.488
54424W        W21207   4.392   7.421   1.657
54425W        W21208  28.614  36.084   0.295
54426W        W21209  38.872  13.728  13.788
54427W        W21210   4.295   9.997  12.826
54428W        W21211  20.670   2.062   2.814
54429W        W21212  34.345  14.355   4.474
54430W        W21213  40.399  24.986   3.610
54431W        W21214   0.887  23.544   4.623
54432W        W21215  13.098   5.925   3.670
54433W        W21216  24.488  30.981  13.025
54434W        W21217  28.003  23.017   2.220
54435W        W21218  41.290  43.330  12.538
54436W        W21219  43.451  31.531  10.827
54437W        W21220  13.177  16.192   4.436
54438W        W21221  14.112  13.916   4.609
54439W        W21222  21.320  38.878   2.188
54440W        W21223  10.329  27.128  11.947
54441W        W21224   6.416   1.448  10.763
54442W        W21225  10.925  23.284   4.102
54443W        W21226  31.595   9.803  10.604
54444W        W21227  40.853   0.734   0.943
54445W        W21228  44.592  42.739  13.395
54446W        W21229  24.522   1.938   2.738
54447W        W21230  19.193   4.772  12.961
54448W        W21231  37.456  38.526  14.513
54449W        W21232  41.807  44.760  11.259
54450W        W21233  26.924  19.255  11.135
54451W        W21234  28.161  44.951   2.145
54452W        W21235  31.689  18.277  11.537
54453W        W21236  18.573  44.755   3.220
54454W        W21237   8.754  34.614   1.354
54455W        W21238   7.821  30.473   1.685
54456W        W21239  42.806  41.789   1.299
54457W        W21240  20.149  31.356  12.493
54458W        W21241  24.669   9.592  14.478
54459W        W21242  28.995  32.788  11.636
54460W        W21243  38.097  20.084   3.416
54461W        W21244  29.887  13.668   2.265
54462W        W21245  44.446  41.843  14.856
54463W        W21246   9.845   7.245   2.563
54464W        W21247  23.529   5.922  14.023
54465W        W21248  27.428  37.402   0.756
54466W        W21249  30.377   8.354  11.999
54467W        W21250  19.144  25.564  13.578
54468W        W21251  34.394  37.816  11.143
54469W        W21252  28.777  23.933   3.240
54470W        W21253   9.091   0.044  13.792
54471W        W21254  12.534  19.610   4.581
54472W        W21255  12.318  18.739  10.856
54473W        W21256  24.856  37.382   1.968
54474W        W21257  42.880  41.279  14.368
54475W        W21258   8.492  42.532  11.460
54476W        W21259  12.233  10.238  13.860
54477W        W21260  15.789   8.134   4.584
54478W        W21261   7.905  24.459  13.284
54479W        W21262  30.969  23.993   3.121
54480W        W21263  37.386  38.369  11.233
54481W        W21264   4.620   0.759  12.461
54482W        W21265  35.286  30.934   1.840
54483W        W21266  26.350  34.489  11.619
54484W        W21267  23.201  12.677  12.433
54485W        W21268  18.246  15.665   1.152
54486W        W21269   7.324  25.498   3.624
54487W        W21270  36.021  13.717   4.781
54488W        W21271   0.791  40.883  11.991
54489W        W21272  12.563  11.650  12.823
54490W        W21273  27.142   1.968   0.320
54491W        W21274  21.485  34.468  14.789
54492W        W21275   3.600  11.402  11.140
54493W        W21276  22.979  43.801  13.913
54494W        W21277  11.883  34.360   0.362
54495W        W21278  41.515  17.818  11.677
54496W        W21279   8.304  12.600   0.484
54497W        W21280  41.271  31.644  11.956
54498W        W21281  37.028  29.209   3.802
54499W        W21282  13.783  27.116  11.190
54500W        W21283  38.903  32.485   4.813
54501W        W21284  29.644   4.647   0.150
54502W        W21285  43.872  28.475  11.470
54503W        W21286  18.037  34.101   0.911
54504W        W21287  10.817  27.647  10.897
54505W        W21288  35.498  36.143   4.799
54506W        W21289   5.007  32.885   4.603
54507W        W21290  20.984  17.227  12.392
54508W        W21291  37.861  40.091   1.637
54509W        W21292  30.493   1.513   2.882
54510W        W21293   0.397  34.032   1.687
54511W        W21294   8.604  13.493   0.757
54512W        W21295  37.386  41.217   2.380
54513W        W21296   4.356  16.326   2.907
54514W        W21297  18.741   2.518   0.744
54515W        W21298  35.048  28.293   1.417
54516W        W21299  19.201   1.721   0.883
54517W        W21300  21.725  15.538  12.875
54518W        W21301  20.832  41.375   3.731
54519W        W21302  40.111  24.671   4.653
54520W        W21303  19.066  33.307  13.537
54521W        W21304   2.727  25.200   2.095
54522W        W21305  18.543  31.432   0.902
54523W        W21306  13.706  27.647  13.285
54524W        W21307  10.832  25.631  12.488
54525W        W21308   8.679  20.008   2.612
54526W        W21309  36.324   0.461   3.755
54527W        W21310  42.519   8.245  11.700
54528W        W21311  31.671  19.863  12.985
54529W        W21312  21.177  32.565  13.103
54530W        W21313  44.897   2.854   1.019
54531W        W21314  13.164  25.643   4.563
54532W        W21315  40.525  18.166   1.637
54533W        W21316  25.282  31.203  11.952
54534W        W21317  38.944  41.255   4.116
54535W        W21318  43.208  24.418   3.561
54536W        W21319  28.459  36.567   0.323
54537W        W21320  33.227  30.890  13.912
54538W        W21321  34.491  37.043  13.869
54539W        W21322  29.011  22.135   3.625
54540W        W21323  32.121  25.506  11.117
54541W        W21324   2.807  37.939   4.781
54542W        W21325  35.361  37.208   2.557
54543W        W21326  21.988  19.224   4.279
54544W        W21327   2.889  34.681  10.660
54545W        W21328  42.576  14.228   3.714
54546W        W21329  40.922  23.066   4.623
54547W        W21330  17.802   9.881   0.177
54548W        W21331  20.989  29.566  14.451
54549W        W21332  37.254  42.443  11.496
54550W        W21333  23.298  26.428  14.822
54551W        W21334  35.458  12.609   3.123
54552W        W21335   7.811  31.649  11.430
54553W        W21336  23.232   4.035   2.226
54554W        W21337  20.225  34.551  13.397
54555W        W21338  15.273  31.878  12.583
54556W        W21339  43.576  43.294  13.975
54557W        W21340  18.594  23.251  12.686
54558W        W21341  16.340  24.604  10.709
54559W        W21342  16.142  41.963  11.846
54560W        W21343  38.402  32.029  11.974
54561W        W21344  39.498   7.794   3.814
54562W        W21345  40.602   6.765  13.099
54563W        W21346  34.436  16.566   4.320
54564W        W21347  23.138  11.000   4.788
54565W        W21348   4.051  36.787   1.402
54566W        W21349  36.617  41.274  10.399
54567W        W21350   1.247  38.840  13.541
54568W        W21351  38.615  17.198  11.081
54569W        W21352   7.896  15.245   0.388
54570W        W21353  42.841   9.699  14.100
54571W        W21354  19.179   9.783   4.544
54572W        W21355  20.907  28.493  13.898
54573W        W21356  27.570   5.655  14.178
54574W        W21357  36.954  28.364  14.363
54575W        W21358  34.956   6.731  10.846
54576W        W21359  12.733  25.588   4.242
54577W        W21360  38.478   7.277  11.516
54578W        W21361  11.764   5.565   5.437
54579W        W21362  23.473  40.087   2.660
54580W        W21363   7.320  27.643  11.083
54581W        W21364   3.967  22.778  13.016
54582W        W21365   8.853   5.557  10.321
54583W        W21366   3.113  16.690   0.799
54584W        W21367  33.457  22.864  11.085
54585W        W21368  36.082   6.135  13.964
54586W        W21369   0.364   2.708  10.692
54587W        W21370  17.843  42.598   1.380
54588W        W21371   8.082   8.911  10.101
54589W        W21372  40.772  16.222   1.751
54590W        W21373   9.350  23.760   0.939
54591W        W21374   3.428   7.642  11.210
54592W        W21375  35.464  19.112   1.166
54593W        W21376   0.532  24.222   4.204
54594W        W21377  26.525  18.697  10.681
54595W        W21378  41.951  20.112  12.892
54596W        W21379  10.859  23.246  14.284
54597W        W21380  10.647   9.114   0.875
54598W        W21381  44.043  41.532  14.988
54599W        W21382  43.711  39.744   0.422
54600W        W21383   1.845  37.476  10.863
54601W        W21384  32.648   3.867  11.505
54602W        W21385  40.197  35.269   1.395
54603W        W21386  22.708  23.208  11.570
54604W        W21387  27.502   6.914   2.950
54605W        W21388  13.204  37.332   1.841
54606W        W21389  22.029  19.475   3.820
54607W        W21390  37.480   6.851   2.877
54608W        W21391  23.286  25.479  14.876
54609W        W21392  26.747  19.234   1.156
54610W        W21393  37.031  36.442  12.568
54611W        W21394  30.351  34.182   0.696
54612W        W21395  44.431  40.623  11.205
54613W        W21396  34.448  39.078   4.670
54614W        W21397  42.680  36.101  11.249
54615W        W21398  16.412  20.995  11.565
54616W        W21399  17.777   9.741   1.275
54617W        W21400  27.671  42.217  12.875
54618W        W21401   9.053  42.915   1.211
54619W        W21402  30.145  19.725   1.643
54620W        W21403  18.021  40.800   0.359
54621W        W21404  28.964  38.340   4.134
54622W        W21405   1.591  13.183   3.088
54623W        W21406   5.514  44.002   3.613
54624W        W21407  38.452  15.749   4.834
54625W        W21408  38.331   2.760  14.539
54626W        W21409   4.292  12.430   2.701
54627W        W21410   7.344  33.937   3.634
54628W        W21411  36.362  17.187  13.578
54629W        W21412  32.253  36.246  13.684
54630W        W21413  25.476  12.162   1.677
54631W        W21414  44.408  43.861  11.881
54632W        W21415   0.397  28.144   3.272
54633W        W21416  23.229  41.424   0.444
54634W        W21417  30.650  41.742   4.858
54635W        W21418  27.467  22.400  14.522
54636W        W21419  33.142  43.923   1.414
54637W        W21420   9.114  41.741  13.805
54638W        W21421  33.363  29.553   4.118
54639W        W21422  40.331  32.550   1.958
54640W        W21423   0.302  11.680   3.198
54641W        W21424  44.497  27.410   3.572
54642W        W21425  19.534  39.534  11.168
54643W        W21426  15.107  14.839  12.893
54644W        W21427   8.031  18.373   2.858
54645W        W21428  19.232  11.397  14.262
54646W        W21429   9.223  43.717   0.626
54647W        W21430  10.511  37.585  11.110
54648W        W21431  17.866  31.837  13.785
54649W        W21432   6.493  44.774   0.466
54650W        W21433  21.738  10.712   4.511
54651W        W21434   3.902  22.145  14.599
54652W        W21435   8.333  15.346   3.361
54653W        W21436   9.950  26.090  12.543
54654W        W21437  41.751  37.921   0.800
54655W        W21438  11.648   3.216  13.361
54656W        W21439  34.707   7.436   4.210
54657W        W21440  44.840  27.662   3.842
54658W        W21441  39.204  30.147   1.779
54659W        W21442  17.564  25.149  14.390
54660W        W21443  24.926   9.137  14.317
54661W        W21444  27.515   5.734  14.697
54662W        W21445  43.305  10.492   0.295
54663W        W21446   8.916  11.162  14.434
54664W        W21447  25.616  15.181  13.621
54665W        W21448  29.469  26.612  10.659
54666W        W21449  23.289  42.019   3.591
54667W        W21450  27.631   9.835   1.307
54668W        W21451  13.749  36.512   2.716
54669W        W21452  33.669  40.752   1.156
54670W        W21453  34.242   5.736   0.603
54671W        W21454  31.444  43.798  11.133
54672W        W21455  17.700  23.022  11.464
54673W        W21456  14.083  34.550   3.755
54674W        W21457   5.745  16.751  14.078
54675W        W21458  28.071   4.031  13.482
54676W        W21459  24.147  17.734   2.711
54677W        W21460  25.189  42.831  14.495
54678W        W21461  41.460  36.894  13.179
54679W        W21462  35.799  26.043   3.364
54680W        W21463  22.580   1.000   4.545
54681W        W21464  21.377  11.550   2.704
54682W        W21465  26.860  41.508  12.799
54683W        W21466  19.270  16.696  14.811
54684W        W21467   2.199  39.891  14.569
54685W        W21468  10.461   2.774  12.429
54686W        W21469  27.007   8.603  12.969
54687W        W21470   8.804  43.582  12.110
54688W        W21471   3.231   1.742   1.422
54689W        W21472  42.819  11.753   2.848
54690W        W21473  11.129  40.422  11.590
54691W        W21474  44.868  18.252  13.394
54692W        W21475  10.784   6.165  13.078
54693W        W21476  30.914  31.873  13.794
54694W        W21477  16.670  18.513   2.341
54695W        W21478  15.893  24.221   4.172
54696W        W21479  23.121  27.258   4.778
54697W        W21480  22.641  37.871   4.181
54698W        W21481  35.403  22.415  14.472
54699W        W21482   7.619  19.383  14.223
54700W        W21483  25.913  44.771  13.856
54701W        W21484  16.232  25.066   0.772
54702W        W21485   5.886   9.376  10.699
54703W        W21486  43.405  32.026  12.035
54704W        W21487  16.660  39.982  13.463
54705W        W21488  36.001  15.227  13.890
54706W        W21489  18.782   7.789   1.660
54707W        W21490  34.424  38.910  14.008
54708W        W21491  39.438  37.388   0.114
54709W        W21492  10.279  39.459  12.951
54710W        W21493  26.454  12.215   3.764
54711W        W21494  33.519  14.748  10.903
54712W        W21495   4.147   0.374   3.093
54713W        W21496  34.942  17.922  14.340
54714W        W21497  11.660  42.441  14.495
54715W        W21498  27.627  39.448  13.389
54716W        W21499  14.643  12.128   0.703
54717W        W21500  18.881   3.224   4.124
54718W        W21501  34.558  14.877   1.652
54719W        W21502  14.437  30.052   4.284
54720W        W21503  11.409  38.644  13.795
54721W        W21504  39.768  28.208  11.172
54722W        W21505  25.062  36.788  14.285
54723W        W21506  17.769  33.941   0.477
54724W        W21507  18.607   6.290  13.751
54725W        W21508   9.879  23.503  10.616
54726W        W21509  31.912  12.814   3.613
54727W        W21510   2.023  25.753  13.400
54728W        W21511  38.386   4.718  11.565
54729W        W21512   2.655  10.650  11.611
54730W        W21513  13.565  26.893  13.117
54731W        W21514  15.101  43.771  14.062
54732W        W21515   1.456  37.791  11.551
54733W        W21516  32.088  25.588   4.095
54734W        W21517  22.191   4.121  11.203
54735W        W21518  11.266  12.650   3.536
54736W        W21519  24.254  35.476  10.704
54737W        W21520   2.040   6.388   2.116
54738W        W21521  43.030  13.205   1.826
54739W        W21522   1.726  31.380  12.697
54740W        W21523   5.469   9.690   3.333
54741W        W21524  22.519  31.411  14.013
54742W        W21525  43.951  24.825  13.017
54743W        W21526  32.612  27.397   3.355
54744W        W21527  28.480  13.650  11.643
54745W        W21528  44.135  14.441  11.197
54746W        W21529  36.865  31.484   0.695
54747W        W21530  10.542   5.142   0.429
54748W        W21531  16.316   7.794  11.203
54749W        W21532  30.867   3.721   2.764
54750W        W21533   8.512   4.929   2.268
54751W        W21534   0.513  33.608  14.775
54752W        W21535  22.101  14.367   0.857
54753W        W21536  30.785  13.782   4.903
54754W        W21537  43.433  26.945  10.830
54755W        W21538  36.981   3.030  13.482
54756W        W21539   4.521  29.946  11.673
54757W        W21540  26.708  42.103   4.166
54758W        W21541   3.400  35.469  11.576
54759W        W21542  23.760  44.499  14.791
54760W        W21543   2.808  26.144   3.046
54761W        W21544  11.222  43.416  14.702
54762W        W21545  20.436  21.200  14.562
54763W        W21546  21.826  31.323  11.125
54764W        W21547   3.948   6.712  13.139
54765W        W21548  21.896  32.863  14.430
54766W        W21549  15.380  35.125   3.010
54767W        W21550  41.861  22.965   4.548
54768W        W21551  22.488  39.317   3.355
54769W        W21552  11.739  36.814  14.964
54770W        W21553  41.025   6.024   3.260
54771W        W21554  30.543  21.473  14.294
54772W        W21555   0.808   2.477   4.848
54773W        W21556  21.595  16.418  11.064
54774W        W21557  19.091  12.727   2.591
54775W        W21558  19.172  35.959  14.901
54776W        W21559   5.872  36.862  11.393
54777W        W21560  41.940  31.376   4.162
54778W        W21561  38.029   1.333  14.076
54779W        W21562  16.353  27.991   0.645
54780W        W21563  27.519  33.968  12.620
54781W        W21564   9.893  22.829  13.793
54782W        W21565  44.492   2.548   2.377
54783W        W21566  18.560  18.774   3.604
54784W        W21567  26.223  41.349  10.733
54785W        W21568  38.058   3.727  13.846
54786W        W21569  17.642   2.411   1.750
54787W        W21570  32.918  40.872  12.030
54788W        W21571  23.909  30.038  12.488
54789W        W21572   8.609  36.445   4.896
54790W        W21573  34.143   6.709  11.550
54791W        W21574  26.056  43.288   1.810
54792W        W21575  19.547  31.369  10.768
54793W        W21576   6.778  36.884   2.370
54794W        W21577  21.614  36.006  12.000
54795W        W21578  42.593   1.191  11.272
54796W        W21579  23.231   9.989   4.625
54797W        W21580  34.452  38.091  14.848
54798W        W21581  39.975  41.228  11.596
54799W        W21582  40.868  14.477   2.692
54800W        W21583  38.806  44.433  13.113
54801W        W21584  41.866  15.381  11.600
54802W        W21585   1.481  14.413   0.332
54803W        W21586  11.821  12.921   1.433
54804W        W21587  27.441  19.824  10.052
54805W        W21588  43.357   8.587  13.847
54806W        W21589  29.810  29.903   4.894
54807W        W21590  43.931   4.384   3.940
54808W        W21591  24.448  18.783  14.528
54809W        W21592  21.741  25.010   4.187
54810W        W21593  25.225  14.048  12.139
54811W        W21594  15.414  31.436   3.518
54812W        W21595  33.983  14.921  10.649
54813W        W21596  17.290   4.199  12.059
54814W        W21597  31.641  11.258  14.429
54815W        W21598  44.992   8.856   3.214
54816W        W21599  15.170  19.488   4.644
54817W        W21600  19.971  11.220  13.540
54818W        W21601  44.289  18.737   3.792
54819W        W21602  42.885  25.462   2.904
54820W        W21603   6.229  30.578   0.840
54821W        W21604   2.264  38.870  10.358
54822W        W21605  15.602  12.267  14.336
54823W        W21606  19.824   4.312  12.336
54824W        W21607  10.366  40.855  14.481
54825W        W21608  35.568  17.659  13.125
54826W        W21609  44.449  15.587  12.827
54827W        W21610  25.176   3.781   1.812
54828W        W21611  10.865  22.859  13.890
54829W        W21612  26.884  26.251   2.349
54830W        W21613  21.326  40.229  10.827
54831W        W21614  29.098   5.457  11.103
54832W        W21615   4.754  42.645  12.976
54833W        W21616  42.569   9.418   4.624
54834W        W21617  31.767   6.306  13.698
54835W        W21618  22.217   1.321   2.730
54836W        W21619  28.607  25.628   4.050
54837W        W21620  27.519  25.509  14.288
54838W        W21621  12.193  13.078   4.569
54839W        W21622  23.111   4.435   5.442
54840W        W21623   7.201  40.573   4.968
54841W        W21624  43.890   7.732  12.081
54842W        W21625   5.715  31.262  14.927
54843W        W21626  38.557  13.730   0.265
54844W        W21627  22.873  12.445  10.757
54845W        W21628   9.468  34.651   0.287
54846W        W21629  38.253  39.729  13.425
54847W        W21630  14.227  16.541   1.384
54848W        W21631  17.582  13.358  11.053
54849W        W21632  35.019  39.359  11.012
54850W        W21633  19.715  31.675   2.489
54851W        W21634  20.347  28.439  12.001
54852W        W21635  23.874  42.894   1.940
54853W        W21636   0.362   9.224  13.626
54854W        W21637   4.696  36.382  14.089
54855W        W21638   6.161  31.206  13.520
54856W        W21639  21.091   7.587  11.962
54857W        W21640   9.522  24.608  11.011
54858W        W21641  23.141   3.778  14.692
54859W        W21642  31.699   5.484  10.512
54860W        W21643  12.552   0.292  10.615
54861W        W21644   2.229  24.323  11.742
54862W        W21645  11.686  33.374  12.190
54863W        W21646  37.554  16.623   3.750
54864W        W21647  37.953  16.280   0.747
54865W        W21648   1.721  21.488   4.216
54866W        W21649  23.934  42.073  14.484
54867W        W21650  29.767  36.932   1.863
54868W        W21651  21.965  17.186  11.615
54869W        W21652  34.050  35.025   4.874
54870W        W21653  25.576   1.026   5.185
54871W        W21654  36.574  37.174  14.229
54872W        W21655   4.114  37.466  11.915
54873W        W21656   7.832  34.664   3.773
54874W        W21657  25.588   3.388  13.595
54875W        W21658   3.533  12.372  13.470
54876W        W21659  14.859  28.708   2.274
54877W        W21660  40.405  43.226   1.868
54878W        W21661  33.413  20.696  14.839
54879W        W21662  10.001  42.086  11.162
54880W        W21663   2.463  30.369  14.130
54881W        W21664  21.714  22.613  13.498
54882W        W21665  11.357  13.848   3.199
54883W        W21666   8.812  29.105  10.547
54884W        W21667  33.878   8.912   4.494
54885W        W21668  24.480  20.613   3.220
54886W        W21669  22.137   6.063  10.430
54887W        W21670   6.321   7.511  11.530
54888W        W21671  28.613  41.480  13.713
54889W        W21672  43.378  22.701  13.028
54890W        W21673  33.467  37.339  11.126
54891W        W21674   6.801  36.859  13.806
54892W        W21675  12.099  34.238   5.165
54893W        W21676  22.312  15.444  10.627
54894W        W21677  40.306  10.932   2.793
54895W        W21678  37.790  25.489   0.964
54896W        W21679  17.274  23.229  14.996
54897W        W21680  25.595  30.381  14.418
54898W        W21681  20.281   2.340   1.723
54899W        W21682  38.996  26.535   2.355
54900W        W21683  34.069  37.426  13.775
54901W        W21684  29.081   5.016   4.440
54902W        W21685  28.700  15.753  11.354
54903W        W21686  31.689  21.707   2.582
54904W        W21687   9.103  42.802  13.954
54905W        W21688  33.500  19.342   5.522
54906W        W21689   4.824   9.447  13.321
54907W        W21690  19.748  15.717   2.240
54908W        W21691  13.897  21.972   2.850
54909W        W21692  28.273  40.410   3.624
54910W        W21693  24.024  26.130   1.257
54911W        W21694  43.884  39.631   4.346
54912W        W21695  35.572  11.987  13.996
54913W        W21696  36.116   8.314  12.032
54914W        W21697  42.531  21.179  14.737
54915W        W21698  36.573  12.763   2.078
54916W        W21699  35.025  27.373   3.386
54917W        W21700  36.233  22.033  10.270
54918W        W21701  22.765  19.641  13.049
54919W        W21702   4.742  43.564  14.016
54920W        W21703  19.896  32.963  13.107
54921W        W21704  22.524   8.682  14.369
54922W        W21705  22.257   9.721   0.021
54923W        W21706   6.990  30.999  13.832
54924W        W21707  27.097  28.546  11.936
54925W        W21708  12.592  36.318   3.648
54926W        W21709  15.567  42.483  12.352
54927W        W21710  26.749  14.356   2.703
54928W        W21711  10.305  36.798  10.667
54929W        W21712  37.837  12.259  10.746
54930W        W21713  20.739  16.141  10.194
54931W        W21714  17.604  26.218   0.306
54932W        W21715  27.238  20.531  12.948
54933W        W21716   3.782  33.867  13.571
54934W        W21717  12.000  25.332  13.193
54935W        W21718   4.738  40.874  10.685
54936W        W21719  34.185  38.959  14.982
54937W        W21720  16.271  42.400   3.449
54938W        W21721  23.986  37.486   0.979
54939W        W21722  39.998  28.013   2.729
54940W        W21723  34.424  28.763   4.037
54941W        W21724  40.937  38.140  11.659
54942W        W21725  25.661  21.117   3.215
54943W        W21726  23.316   3.532  12.478
54944W        W21727  17.182  41.037   0.994
54945W        W21728  30.568  37.329   1.887
54946W        W21729  14.755   1.709  11.160
54947W        W21730   1.890  26.050  12.102
54948W        W21731  17.294  34.037   3.708
54949W        W21732  35.397   5.360   1.101
54950W        W21733   1.919  22.258   2.967
54951W        W21734  34.641  27.756   0.280
54952W        W21735  44.963  23.294   1.920
54953W        W21736  43.368  26.064   1.800
54954W        W21737   8.308   7.160  11.189
54955W        W21738   9.156   9.380  12.168
54956W        W21739  14.722   1.254  10.567
54957W        W21740  38.475  20.811   3.834
54958W        W21741  19.351  16.481  14.049
54959W        W21742   1.084  13.386  11.618
54960W        W21743  11.808  39.807   4.116
54961W        W21744  23.030  28.034   0.569
54962W        W21745  32.103  40.526  13.345
54963W        W21746   5.850  24.689   1.766
54964W        W21747  39.891  19.144  13.389
54965W        W21748   7.687  27.257   3.861
54966W        W21749   7.668   3.363   2.784
54967W        W21750   1.192   7.664   2.195
54968W        W21751   4.231  34.294  10.684
54969W        W21752  11.214   2.896   0.410
54970W        W21753  36.110  40.460  12.937
54971W        W21754  43.956   0.525  12.001
54972W        W21755  12.596  10.658  12.078
54973W        W21756  39.008  31.617  10.713
54974W        W21757  35.078   9.904   3.060
54975W        W21758   7.131  13.587   0.782
54976W        W21759   6.697   9.655  11.993
54977W        W21760  19.377  39.093   2.195
54978W        W21761   6.419  34.066   1.775
54979W        W21762  39.598   1.000   0.351
54980W        W21763  24.538   2.222   5.083
54981W        W21764  44.833  25.299  13.114
54982W        W21765  30.252   5.908  11.922
54983W        W21766   7.350   7.029  13.850
54984W        W21767  22.232  33.679   3.527
54985W        W21768  23.593  10.869  12.431
54986W        W21769   6.761  13.842   3.602
54987W        W21770   5.845   3.985   3.850
54988W        W21771   6.286  26.403   0.825
54989W        W21772  30.000   6.383  12.802
54990W        W21773  31.880  15.894   3.070
54991W        W21774   6.293  25.713   4.149
54992W        W21775  34.102   0.181  11.248
54993W        W21776  37.024  20.162   1.345
54994W        W21777  25.518  24.593   3.105
54995W        W21778  26.965   6.066  10.339
54996W        W21779   1.530   0.037   3.566
54997W        W21780  32.543   6.172   2.740
54998W        W21781  15.383  10.909   3.747
54999W        W21782  12.948  19.906   9.944
55000W        W21783   7.962  30.487  12.545
55001W        W21784   3.423  29.432  10.618
55002W        W21785  42.345  34.949   4.657
55003W        W21786  10.676   4.680   3.322
55004W        W21787  40.774  24.043  13.400
55005W        W21788  13.534  28.391  14.942
55006W        W21789  29.724  32.695   4.614
55007W        W21790  15.814  40.339   4.430
55008W        W21791  33.863  41.528  14.406
55009W        W21792  28.380  13.178  11.912
55010W        W21793   8.601   3.262  11.826
55011W        W21794  30.305  33.129   1.919
55012W        W21795  34.074  22.667  13.897
55013W        W21796   9.515   4.872   2.352
55014W        W21797  29.705  38.433  13.784
55015W        W21798  36.908  15.830   1.529
55016W        W21799  20.547  23.184  12.468
55017W        W21800  16.020   1.174  11.076
55018W        W21801  43.863  29.565  13.896
55019W        W21802   5.670  39.621  13.391
55020W        W21803   0.938  15.795   4.049
55021W        W21804  10.934  44.495   1.228
55022W        W21805   8.082  35.394   3.237
55023W        W21806   8.123  11.090  14.969
55024W        W21807  20.932  16.041  12.326
55025W        W21808  28.031  17.693  14.345
55026W        W21809  35.189   4.247   1.661
55027W        W21810  43.600  36.458   2.868
55028W        W21811  38.619   5.604   1.274
55029W        W21812  43.347  14.133  13.586
55030W        W21813  43.949  10.909   0.054
55031W        W21814   3.505  25.147   2.690
55032W        W21815   6.607   0.983  14.988
55033W        W21816  11.935  27.127   2.762
55034W        W21817  23.968   1.409  12.278
55035W        W21818   1.411  14.621  14.501
55036W        W21819  26.665  23.247   2.107
55037W        W21820   9.700  26.733   1.035
55038W        W21821   9.585  22.657   0.369
55039W        W21822   6.200  44.988  12.315
55040W        W21823   3.214  13.748  11.654
55041W        W21824  24.637  19.246  12.573
55042W        W21825  36.224   9.034   1.819
55043W        W21826  13.208  10.770  11.632
55044W        W21827  22.114  37.368  11.886
55045W        W21828  33.659   4.460  14.477
55046W        W21829  17.768  42.957   4.556
55047W        W21830   9.270  41.116  13.097
55048W        W21831  15.855  42.039   1.325
55049W        W21832  13.974  19.796   3.616
55050W        W21833  21.779  21.133  12.652
55051W        W21834   4.388   2.879  11.849
55052W        W21835   2.187   5.582  12.099
55053W        W21836  27.467  25.037   3.321
55054W        W21837   7.185   6.171   0.354
55055W        W21838   3.755   4.357   2.267
55056W        W21839  38.118  24.226   3.081
55057W        W21840  44.257  44.588   4.014
55058W        W21841   8.225  19.973   0.315
55059W        W21842   5.164  16.079   0.561
55060W        W21843  35.865  40.347  14.834
55061W        W21844  38.829  37.653   1.828
55062W        W21845  26.991   9.753   4.838
55063W        W21846  13.663   5.801   0.518
55064W        W21847  21.609  36.805   4.829
55065W        W21848  43.008  27.453  14.538
55066W        W21849   6.256   0.786   4.597
55067W        W21850   8.433   9.411  14.588
55068W        W21851  16.489   5.788  11.716
55069W        W21852  18.575  19.082   0.240
55070W        W21853  16.009  29.849  11.147
55071W        W21854  20.931  43.765  11.023
55072W        W21855  29.855   6.336  11.100
55073W        W21856   8.466  38.892  12.110
55074W        W21857  31.383  19.560   4.050
55075W        W21858  10.076   5.005   5.022
55076W        W21859  23.294  18.394   3.632
55077W        W21860  12.680  26.526  10.933
55078W        W21861  37.281  25.018   2.784
55079W        W21862  24.546   2.015  11.982
55080W        W21863  13.674  27.405  14.679
55081W        W21864  43.922  27.516   3.745
55082W        W21865  28.473  43.881  13.935
55083W        W21866  40.466  43.355  10.769
55084W        W21867  43.847   8.143   2.865
55085W        W21868   0.709  32.043   2.615
55086W        W21869   9.925  16.109   4.770
55087W        W21870  14.700  38.154  14.278
55088W        W21871  11.309   4.217  11.036
55089W        W21872  23.166  30.526   3.724
55090W        W21873   8.970  15.376   4.595
55091W        W21874  24.770  43.746  14.426
55092W        W21875   5.875  41.010   4.332
55093W        W21876   7.968  25.783  14.389
55094W        W21877  27.058  22.998   2.414
55095W        W21878  10.543  21.294   0.377
55096W        W21879  30.858  35.058  14.338
55097W        W21880  40.380  35.406   4.182
55098W        W21881  22.568  33.409   1.409
55099W        W21882  11.250   1.882   1.234
55100W        W21883  34.625  12.777  14.430
55101W        W21884  21.796  32.555   2.835
55102W        W21885  44.498  40.939  13.855
55103W        W21886  35.129  32.324  10.748
55104W        W21887  11.716  26.541  11.967
55105W        W21888   0.983  18.159  13.897
55106W        W21889  19.835  44.004   1.741
55107W        W21890  18.380  24.070   4.980
55108W        W21891  10.578  44.816  12.857
55109W        W21892  40.391  31.805   2.372
55110W        W21893  26.005  27.146   0.904
55111W        W21894   3.476  37.526  13.411
55112W        W21895  33.334  36.605  11.534
55113W        W21896  21.604  26.772   1.762
55114W        W21897  38.340  34.075   0.844
55115W        W21898  43.916  39.117  14.895
55116W        W21899  15.585   1.086   4.301
55117W        W21900  14.317   7.359  10.572
55118W        W21901  15.078  22.794  11.474
55119W        W21902  29.420  37.279   5.006
55120W        W21903  25.644   9.782  12.929
55121W        W21904  18.079  12.153   4.471
55122W        W21905  40.567  41.262  14.546
55123W        W21906  39.170  14.102  14.781
55124W        W21907  21.320   4.120  14.829
55125W        W21908  40.305  13.091   0.213
55126W        W21909  16.291  18.012  11.479
55127W        W21910   2.349  19.540  14.950
55128W        W21911   3.819  28.060   1.070
55129W        W21912  16.202  10.189   2.951
55130W        W21913  35.989  31.492   4.564
55131W        W21914  33.354   4.725  13.081
55132W        W21915  21.827  14.832   2.282
55133W        W21916  41.526  35.854   4.415
55134W        W21917  23.738   6.587   3.222
55135W        W21918   9.344   8.562   3.657
55136W        W21919  37.971  31.759  11.927
55137W        W21920  20.458  28.742  13.832
55138W        W21921  19.750   6.836   3.260
55139W        W21922  33.509  12.411  13.462
55140W        W21923  37.024  18.188  12.119
55141W        W21924   2.205   1.265  12.028
55142W        W21925   9.163  21.264   3.262
55143W        W21926  38.364  24.680  12.901
55144W        W21927  37.828   0.314   2.948
55145W        W21928   1.249  42.509  14.863
55146W        W21929  27.240   1.286  12.501
55147W        W21930  18.545  20.905   2.466
55148W        W21931  27.646  37.638  13.905
55149W        W21932  36.264   4.352   1.457
55150W        W21933  31.917  38.321   0.865
55151W        W21934  41.817   0.775  13.371
55152W        W21935   4.843   0.535  13.786
55153W        W21936  40.604   6.537  13.597
55154W        W21937  17.187  33.858  11.975
55155W        W21938  32.945  10.287  10.170
55156W        W21939  29.003   7.465   3.978
55157W        W21940  10.094   2.957   4.835
55158W        W21941  42.322  31.666   2.285
55159W        W21942  42.035  29.668   2.895
55160W        W21943   3.092   5.250   4.578
55161W        W21944  25.267  22.320  13.996
55162W        W21945   1.397  36.565   3.901
55163W        W21946   2.039  18.322   3.366
55164W        W21947  42.327   5.237  13.796
55165W        W21948   3.351  30.936   3.371
55166W        W21949  40.969  43.510  14.506
55167W        W21950   8.843  13.338   5.145
55168W        W21951  43.775  37.363  10.468
55169W        W21952  38.377  28.820   2.666
55170W        W21953  22.427  40.852   4.778
55171W        W21954  16.770  10.382   1.785
55172W        W21955   7.803  37.010  12.824
55173W        W21956  36.095  20.700  12.644
55174W        W21957   1.296  44.222  12.120
55175W        W21958  33.020  34.172  13.544
55176W        W21959   0.964  19.274  10.566
55177W        W21960  15.317  20.103  11.092
55178W        W21961  31.999  13.992   9.926
55179W        W21962   7.315  25.093  12.468
55180W        W21963  12.229  35.190   5.123
55181W        W21964  42.476  44.351  13.245
55182W        W21965  32.476  27.050  10.255
55183W        W21966   1.170  42.271   0.335
55184W        W21967  18.288  26.689   3.823
55185W        W21968  37.321  39.297  11.471
55186W        W21969  26.722  40.929  14.784
55187W        W21970  28.398  29.743  14.459
55188W        W21971  40.074  42.225   4.118
55189W        W21972  23.272   1.796  13.800
55190W        W21973  27.442   4.858  12.308
55191W        W21974  36.176  15.706   2.972
55192W        W21975  23.031  34.643  14.404
55193W        W21976  28.962  27.205  10.679
55194W        W21977  16.678  10.139   3.162
55195W        W21978  17.242  34.785  11.980
55196W        W21979  10.228  31.641  12.871
55197W        W21980  15.406  43.905  14.463
55198W        W21981  31.368  38.897   1.778
55199W        W21982  37.566  18.585   2.733
55200W        W21983   6.063   1.866   2.962
55201W        W21984  23.617   3.755  11.190
55202W        W21985   2.023   9.893   3.852
55203W        W21986  32.379  17.778   1.829
55204W        W21987  24.185  18.202  14.478
55205W        W21988  44.773  28.110   0.261
55206W        W21989   2.370  22.498  14.956
55207W        W21990  41.341  27.564  12.306
55208W        W21991  36.280  42.866   0.258
55209W        W21992   6.931  33.868   4.522
55210W        W21993  26.232  24.787  13.708
55211W        W21994   7.660  23.282   3.707
55212W        W21995  31.413  35.864   3.440
55213W        W21996  42.950  23.029  14.679
55214W        W21997  17.555  18.036   3.258
55215W        W21998  13.965  12.374  11.921
55216W        W21999   2.023   1.284  13.579
55217W        W22000  20.344  15.703  14.500
55218W        W22001  31.463  22.518  12.084
55219W        W22002  43.518   0.297   3.793
55220W        W22003  36.873  19.288  13.141
55221W        W22004  33.016   0.032  11.894
55222W        W22005  17.288   9.424   0.412
55223W        W22006  14.961  40.782  12.445
55224W        W22007  11.772  38.847   2.609
55225W        W22008  13.880  42.756  13.284
55226W        W22009   0.535  15.756   3.740
55227W        W22010  25.452  27.973  11.531
55228W        W22011  43.261  11.970  14.279
55229W        W22012  32.111  22.227   2.812
55230W        W22013   0.005  43.429  11.533
55231W        W22014  39.180  41.761   1.971
55232W        W22015  30.049  30.621   0.150
55233W        W22016   4.283  16.234  13.979
55234W        W22017   9.388  34.433   0.777
55235W        W22018   3.716  39.286   3.364
55236W        W22019  24.692  18.306  14.396
55237W        W22020  35.354  10.733   3.336
55238W        W22021   9.195  28.003   4.424
55239W        W22022  14.198   1.040  12.422
55240W        W22023  11.249  43.968   4.606
55241W        W22024  15.213  43.208   3.535
55242W        W22025  10.501   6.302   4.971
55243W        W22026  22.994  38.918   4.654
55244W        W22027   5.433   9.895   3.826
55245W        W22028   8.133  37.058  14.323
55246W        W22029   4.673  39.839   0.996
55247W        W22030  21.184  30.398  14.894
55248W        W22031  17.764  38.480   3.134
55249W        W22032  38.932  32.476   2.258
55250W        W22033   0.772   2.878  11.013
55251W        W22034  35.886  39.943  12.953
55252W        W22035   3.040  32.609   3.836
55253W        W22036  31.162  32.922   3.351
55254W        W22037  32.351  12.368   1.915
55255W        W22038  43.299  32.082   0.866
55256W        W22039  22.313  19.966   0.331
55257W        W22040   7.847  19.544   0.866
55258W        W22041  22.538  24.040   0.685
55259W        W22042  21.685  14.186  10.655
55260W        W22043  35.060   2.214  14.489
55261W        W22044  34.339  16.191   1.751
55262W        W22045  23.910  29.175  10.934
55263W        W22046   4.695  21.094  10.931
55264W        W22047   2.763  44.312  10.581
55265W        W22048  12.241   2.161  10.698
55266W        W22049  36.565   6.209  11.272
55267W        W22050  39.896  38.052  14.481
55268W        W22051  22.161  41.904   2.812
55269W        W22052  32.856  14.101   3.197
55270W        W22053  25.533  29.997  14.793
55271W        W22054  28.390  31.058   4.225
55272W        W22055  21.232  20.762  11.426
55273W        W22056  38.938   2.708   1.925
55274W        W22057   0.124  43.143  14.746
55275W        W22058  19.533   5.425   2.115
55276W        W22059  13.857   8.878   3.699
55277W        W22060   0.532  36.442   3.902
55278W        W22061  20.166  25.910  12.538
55279W        W22062  38.283  14.733  11.031
55280W        W22063  36.389  42.451   3.175
55281W        W22064   5.757  41.367  13.341
55282W        W22065  38.470   0.925  14.530
55283W        W22066  36.995  11.598  10.670
55284W        W22067  11.350  44.508   4.825
55285W        W22068  31.365   1.456  14.135
55286W        W22069  36.863  18.594  13.885
55287W        W22070  15.129   5.712  10.616
55288W        W22071  31.585  41.021  14.000
55289W        W22072   4.813   4.530  11.252
55290W        W22073  36.250  37.498   0.094
55291W        W22074  11.158  17.644  13.929
55292W        W22075  27.452  21.480  13.060
55293W        W22076  23.614  31.118  13.547
55294W        W22077  24.234  39.913   1.962
55295W        W22078   8.400   6.567  14.957
55296W        W22079  41.940  32.992  13.965
55297W        W22080  32.143   8.417   3.975
55298W        W22081  16.965  31.941  10.742
55299W        W22082  41.064  28.968   3.621
55300W        W22083  42.391  25.976   3.663
55301W        W22084  33.736  35.092   2.573
55302W        W22085  27.131  18.323   0.364
55303W        W22086  21.622  28.119   4.550
55304W        W22087  21.304  21.099   3.750
55305W        W22088  13.804  25.687  14.277
55306W        W22089  37.501  30.825  12.637
55307W        W22090  38.523   7.812  13.015
55308W        W22091  19.093  10.420  13.057
55309W        W22092  18.266  30.493  10.693
55310W        W22093  18.895  22.973  11.056
55311W        W22094   1.520  22.286   2.594
55312W        W22095  30.121  20.060  11.952
55313W        W22096  38.326  24.534   0.916
55314W        W22097  10.550   7.955   3.492
55315W        W22098  42.029  17.648   3.135
55316W        W22099  43.024  18.486  14.878
55317W        W22100   6.227  24.890  13.118
55318W        W22101  12.352  28.212   2.042
55319W        W22102  36.772  19.951  14.405
55320W        W22103  37.627   2.477   3.598
55321W        W22104  16.895  30.945  13.174
55322W        W22105   3.885  35.480   0.046
55323W        W22106  15.743  25.726  14.521
55324W        W22107   1.529  25.555  12.147
55325W        W22108  22.967  23.124  14.586
55326W        W22109  16.156  15.266   2.387
55327W        W22110   7.201  23.474   4.527
55328W        W22111   5.436   4.425  14.643
55329W        W22112  23.114  17.951  11.597
55330W        W22113  41.718  18.103  14.484
55331W        W22114  23.895   3.205  14.239
55332W        W22115   7.179  12.134   3.379
55333W        W22116   7.238  44.332  12.695
55334W        W22117  18.428  25.565   0.420
55335W        W22118  13.569  15.742   0.477
55336W        W22119  21.060  22.747   2.149
55337W        W22120  12.395   6.134   4.210
55338W        W22121  11.147   8.387   0.892
55339W        W22122   9.266  25.121   4.639
55340W        W22123  34.834  13.689   2.819
55341W        W22124  30.198  12.443  14.432
55342W        W22125  17.160  26.138   3.936
55343W        W22126  28.977  27.710  10.488
55344W        W22127  13.108  20.324   2.769
55345W        W22128  16.986  41.504  11.719
55346W        W22129  31.459   6.801  10.588
55347W        W22130   2.215  26.716  14.452
55348W        W22131  27.735  44.719   3.921
55349W        W22132  36.356  43.931  12.332
55350W        W22133  24.466  22.982  13.742
55351W        W22134  32.372  41.385   1.129
55352W        W22135  25.724  14.238   2.684
55353W        W22136  38.912  19.305  14.380
55354W        W22137  18.120  41.818   0.961
55355W        W22138   7.585  24.227  10.703
55356W        W22139  33.098  33.079   4.645
55357W        W22140  34.491  24.467  10.995
55358W        W22141  33.822  30.006  14.645
55359W        W22142   6.932  39.230   0.571
55360W        W22143  40.291   9.328  11.195
55361W        W22144   2.775  19.057   4.166
55362W        W22145  28.606  10.624   0.819
55363W        W22146  22.543   3.146   3.533
55364W        W22147  44.584  17.105   9.732
55365W        W22148   5.945   1.514  10.949
55366W        W22149  39.791  28.954  11.891
55367W        W22150  25.982  23.670   1.846
55368W        W22151   3.279   3.451   3.747
55369W        W22152  39.144  29.550   2.139
55370W        W22153  40.771  39.500  11.511
55371W        W22154  12.593  22.473   0.743
55372W        W22155   8.497   8.843   4.224
55373W        W22156  31.952  19.320   4.267
55374W        W22157  40.142  30.848   3.347
55375W        W22158   6.381  13.109   0.116
55376W        W22159  34.154  14.866   1.293
55377W        W22160  29.901  14.834   1.912
55378W        W22161  21.180   1.102   1.704
55379W        W22162  32.698  25.432  10.704
55380W        W22163  30.406  25.743   3.203
55381W        W22164  16.572  35.808  14.820
55382W        W22165   5.785  15.485   1.677
55383W        W22166  37.572  27.413   1.884
55384W        W22167  14.775  13.857   3.424
55385W        W22168  11.727  41.223   4.827
55386W        W22169   7.838  29.986  12.506
55387W        W22170  36.655  20.137   3.748
55388W        W22171  37.079  36.120  13.565
55389W        W22172  36.884  42.088   4.872
55390W        W22173   3.698  36.820  12.990
55391W        W22174  29.219  14.143  11.081
55392W        W22175  17.669   4.828   2.743
55393W        W22176  32.559  39.527   2.908
55394W        W22177  28.884  28.139   0.422
55395W        W22178  30.655  36.445  12.087
55396W        W22179  38.189  10.746  10.445
55397W        W22180  24.546  34.519  13.799
55398W        W22181  44.866   3.239   3.276
55399W        W22182  23.945  41.884   4.799
55400W        W22183   8.880  16.805   2.652
55401W        W22184  24.189  20.726   0.883
55402W        W22185  37.394  36.934  13.825
55403W        W22186  27.330  19.779  14.567
55404W        W22187  17.028  32.197   9.931
55405W        W22188  26.174  31.285  14.006
55406W        W22189  34.403  44.846   0.664
55407W        W22190  19.777  30.902  11.676
55408W        W22191  35.066   5.976  13.492
55409W        W22192   5.932   0.965   2.262
55410W        W22193  23.959  23.785   2.107
55411W        W22194  27.590  28.450   0.215
55412W        W22195  42.669   0.505   2.764
55413W        W22196  14.256  40.941  11.138
55414W        W22197   4.917  28.825   0.378
55415W        W22198  39.832  37.575   5.089
55416W        W22199  27.232  27.212  13.736
55417W        W22200  13.089  34.550  10.681
55418W        W22201  43.821  26.536  13.960
55419W        W22202  40.052  21.241  11.220
55420W        W22203  29.053   4.480   2.688
55421W        W22204  29.536  42.978  13.638
55422W        W22205  23.607   3.339   3.558
55423W        W22206   6.826  40.773   0.459
55424W        W22207  20.523  13.548  10.273
55425W        W22208  39.580  29.429   1.287
55426W        W22209  38.549  22.969   0.825
55427W        W22210  15.322  16.571  13.906
55428W        W22211  14.391  32.640   2.889
55429W        W22212  35.510   5.782   4.980
55430W        W22213   0.606  26.734   4.667
55431W        W22214  16.670  11.771   1.771
55432W        W22215   5.996  13.884  14.349
55433W        W22216  42.877  32.861   1.592
55434W        W22217  30.737  35.045  13.808
55435W        W22218  10.691  22.736  14.348
55436W        W22219  36.151  19.774   4.462
55437W        W22220   8.866   4.805  11.550
55438W        W22221  16.196  39.798  10.543
55439W        W22222  25.012  23.642   1.494
55440W        W22223  33.649   0.503   4.424
55441W        W22224   7.726  35.047  12.420
55442W        W22225  38.799  12.939  11.903
55443W        W22226  22.720  37.591   2.269
55444W        W22227  43.800  22.040  12.760
55445W        W22228   1.399  12.297   4.428
55446W        W22229  37.227   8.176  14.396
55447W        W22230  27.104  30.440  12.195
55448W        W22231  44.417  34.344  12.276
55449W        W22232   5.429  30.821  11.977
55450W        W22233  29.295  28.451   5.103
55451W        W22234  34.140  21.510  14.597
55452W        W22235  22.163   1.351   9.738
55453W        W22236  41.340  13.798   2.473
55454W        W22237  14.886  31.634  11.494
55455W        W22238   6.284  16.315  12.111
55456W        W22239   4.154  27.445  14.863
55457W        W22240  39.358  33.546   1.520
55458W        W22241   3.970  29.444  13.313
55459W        W22242  44.455  38.575  11.951
55460W        W22243  30.978  29.493   1.499
55461W        W22244  42.340  10.223  11.175
55462W        W22245   7.872  41.177   4.240
55463W        W22246  25.536  39.069  14.387
55464W        W22247  37.290  41.426  11.076
55465W        W22248  31.460  27.543   0.922
55466W        W22249  44.049  14.324   3.568
55467W        W22250  40.319  15.375   1.792
55468W        W22251   5.551  19.646   1.888
55469W        W22252   0.248  23.251  11.112
55470W        W22253  42.325  15.659  14.161
55471W        W22254  22.016  24.562   2.320
55472W        W22255  13.159   6.371   3.419
55473W        W22256  40.754   9.987  12.104
55474W        W22257  44.865  44.418   1.804
55475W        W22258  37.610   9.900  13.263
55476W        W22259  34.404  24.467  13.077
55477W        W22260  31.332   9.876   3.718
55478W        W22261  18.001  19.006   4.866
55479W        W22262  42.442  37.458   0.306
55480W        W22263  24.659  36.933   0.205
55481W        W22264  12.823  30.855   1.160
55482W        W22265   1.781  38.891   2.685
55483W        W22266  14.838  24.145   3.257
55484W        W22267  44.385  33.028   4.864
55485W        W22268   8.076   6.800   2.313
55486W        W22269  43.789  35.474  11.844
55487W        W22270  10.577   9.875   4.163
55488W        W22271  24.813  40.108  12.076
55489W        W22272  30.600  36.820   0.679
55490W        W22273  18.031  29.615   1.884
55491W        W22274  15.880  43.356   2.947
55492W        W22275  35.635   8.780   3.738
55493W        W22276   5.697   4.202   1.262
55494W        W22277  42.704  33.385  14.087
55495W        W22278  14.238   5.613   3.374
55496W        W22279   2.406  28.956  11.657
55497W        W22280  39.986   4.101  12.401
55498W        W22281  29.350  11.721  11.109
55499W        W22282  17.537   9.382   2.132
55500W        W22283  19.530   6.302   2.370
55501W        W22284  13.769  43.011   4.317
55502W        W22285  29.459  44.294   0.334
55503W        W22286  40.921  18.473   4.797
55504W        W22287  18.627   4.199   4.101
55505W        W22288  18.457  22.671  13.368
55506W        W22289   2.796  22.733   0.756
55507W        W22290  35.929   8.199   1.370
55508W        W22291   6.839  22.488   2.678
55509W        W22292  14.120  23.245  12.898
55510W        W22293  16.876   6.738   0.048
55511W        W22294  36.505  15.233  12.564
55512W        W22295  15.081   4.872  14.473
55513W        W22296  31.925  37.550  13.394
55514W        W22297  21.631  22.547  10.542
55515W        W22298   4.931  28.275   0.405
55516W        W22299   8.980   4.258   0.735
55517W        W22300  44.266  27.216  13.403
55518W        W22301  37.390  33.965  13.448
55519W        W22302  23.905  39.429   4.175
55520W        W22303   6.980  33.609   2.417
55521W        W22304  44.838   2.340   4.087
55522W        W22305  26.303   7.961   2.968
55523W        W22306   0.810  15.530  11.945
55524W        W22307   0.012  28.983  14.027
55525W        W22308  39.566  26.470  11.897
55526W        W22309  18.907  28.199  11.237
55527W        W22310  29.332  42.473  13.695
55528W        W22311  18.214   9.718   4.218
55529W        W22312   8.302  39.840  12.020
55530W        W22313  42.389  31.599  13.984
55531W        W22314  18.018   9.800  13.361
55532W        W22315  43.883  13.307   0.382
55533W        W22316   4.762   3.465   2.130
55534W        W22317  11.824  20.192  11.527
55535W        W22318  26.452   0.797   5.149
55536W        W22319   1.165  21.494   4.979
55537W        W22320  29.747  18.766  14.375
55538W        W22321  11.866  29.032  10.761
55539W        W22322  10.332  20.011  14.957
55540W        W22323  22.709  28.483   3.693
55541W        W22324   3.188  11.164   4.668
55542W        W22325   1.771   8.240  13.076
55543W        W22326   5.347  11.642  12.178
55544W        W22327  38.453  21.190   0.277
55545W        W22328  24.585  34.144   1.808
55546W        W22329  13.339  15.060  11.524
55547W        W22330  13.877   2.257   3.414
55548W        W22331  22.618   6.640  14.775
55549W        W22332  24.781  18.916  14.953
55550W        W22333  44.248  43.782  12.605
55551W        W22334  19.796   7.388  14.439
55552W        W22335  30.911  35.570   0.291
55553W        W22336  34.942  17.545  12.026
55554W        W22337  39.264   7.137   0.872
55555W        W22338  23.299  12.599   1.403
55556W        W22339   8.812   2.728  12.389
55557W        W22340  25.253  14.755   3.690
55558W        W22341   9.389  19.706  14.908
55559W        W22342  33.431   6.678  12.486
55560W        W22343  16.081  43.425   1.326
55561W        W22344  33.634   1.824  10.327
55562W        W22345  32.529  35.413  14.294
55563W        W22346   2.441  33.165   2.974
55564W        W22347  31.662  18.644  11.902
55565W        W22348  36.688  17.532  12.487
55566W        W22349   0.171  17.450  14.615
55567W        W22350  12.375  12.740   3.164
55568W        W22351  36.495  43.048  13.511
55569W        W22352  32.552  30.593   4.354
55570W        W22353  33.458  22.895  12.332
55571W        W22354  25.501  24.687  12.571
55572W        W22355  18.060  18.629   3.722
55573W        W22356  15.339  39.137  12.036
55574W        W22357   9.658  11.369  14.949
55575W        W22358   3.157  18.856   1.601
55576W        W22359  35.405  41.699  13.968
55577W        W22360  25.150   8.355   3.707
55578W        W22361  41.750  27.402   1.396
55579W        W22362  44.086  43.998  14.915
55580W        W22363  24.805   8.728   3.838
55581W        W22364   0.721  11.600   1.865
55582W        W22365  25.103  17.610   1.213
55583W        W22366  12.395  22.001   4.564
55584W        W22367  13.559  31.085   1.851
55585W        W22368  42.131  18.440   3.782
55586W        W22369  35.821  10.342   1.730
55587W        W22370   5.622  10.652   1.209
55588W        W22371  25.060   6.802   4.550
55589W        W22372  33.835  18.855  14.735
55590W        W22373  33.903  15.520   2.335
55591W        W22374  41.874  32.149   3.301
55592W        W22375  31.175  28.077  12.369
55593W        W22376  19.550  15.535   3.567
55594W        W22377  12.579  13.633  11.920
55595W        W22378  19.048  36.524  13.593
55596W        W22379  10.570  26.651   3.293
55597W        W22380  29.625  11.383  13.727
55598W        W22381  16.821  27.163   0.258
55599W        W22382  34.524   4.046  14.390
55600W        W22383  41.268   5.299   0.952
55601W        W22384  37.529  27.455  14.078
55602W        W22385  41.192   6.345  11.790
55603W        W22386  30.171  44.656   2.118
55604W        W22387  27.237  11.282  11.080
55605W        W22388  32.810  18.764  10.096
55606W        W22389   1.038   2.323  12.988
55607W        W22390  30.970  26.514   0.202
55608W        W22391   1.796  38.538  13.452
55609W        W22392  21.248  21.492  14.388
55610W        W22393  38.824  17.690   0.279
55611W        W22394   5.412  17.081   2.270
55612W        W22395   2.917  39.018   4.457
55613W        W22396   1.246  18.641   2.681
55614W        W22397  35.564  42.470  12.311
55615W        W22398  24.424  36.687   4.450
55616W        W22399  26.702  29.608  14.466
55617W        W22400   7.985  27.932   2.197
55618W        W22401   7.625   8.858   0.445
55619W        W22402  22.595   8.073  12.485
55620W        W22403  13.530   3.895   3.249
55621W        W22404  29.061   6.934  14.404
55622W        W22405   1.143  36.842   3.093
55623W        W22406   0.897  38.325   1.963
55624W        W22407  38.800  42.202  11.126
55625W        W22408  14.204   1.962   3.804
55626W        W22409  20.956  22.645   2.657
55627W        W22410  44.514  17.258   4.978
55628W        W22411   8.439  17.195   4.666
55629W        W22412  27.639   3.302  13.805
55630W        W22413  42.353  11.082   3.294
55631W        W22414   3.071  35.809  13.831
55632W        W22415   8.349  29.900   0.187
55633W        W22416  13.167  10.264   1.933
55634W        W22417  31.481  24.295   0.833
55635W        W22418   6.686  30.007   4.226
55636W        W22419  22.218  32.540   0.931
55637W        W22420  17.793  13.928  14.728
55638W        W22421  29.954  35.186  13.457
55639W        W22422  14.259   7.377  14.859
55640W        W22423  19.696  21.760  12.692
55641W        W22424   7.759  41.663   1.708
55642W        W22425  12.578   3.090  13.075
55643W        W22426  38.419  43.100   3.347
55644W        W22427  31.488  30.671  10.649
55645W        W22428   5.786   2.445  12.509
55646W        W22429  25.066   8.051   1.833
55647W        W22430  44.323  40.747   3.769
55648W        W22431   4.686   7.693   3.759
55649W        W22432  19.484   9.159   3.353
55650W        W22433  33.532  18.556   4.026
55651W        W22434   3.865  30.048   1.952
55652W        W22435  22.971  20.523  12.860
55653W        W22436  10.214   9.676  10.748
55654W        W22437  13.551   9.918   1.899
55655W        W22438  14.672  10.161  14.455
55656W        W22439  32.502  13.799   2.251
55657W        W22440  36.150  16.343   1.493
55658W        W22441   9.256  35.689   4.859
55659W        W22442  39.071  14.430  11.261
55660W        W22443   4.433  18.780  12.026
55661W        W22444  40.895  18.228   4.342
55662W        W22445  21.785  24.702   2.808
55663W        W22446  44.420   4.637  12.419
55664W        W22447  10.470  37.442   3.541
55665W        W22448  39.471  42.926   1.348
55666W        W22449  26.270  25.271   0.832
55667W        W22450  14.902  36.249  14.794
55668W        W22451  34.488  36.456  14.547
55669W        W22452  11.664   3.501  11.238
55670W        W22453  21.174   9.670  13.905
55671W        W22454   7.329  40.495  14.416
55672W        W22455  43.251  26.629   1.000
55673W        W22456  33.903   2.144   2.736
55674W        W22457  18.114  37.929   0.427
55675W        W22458  19.580  23.055   2.864
55676W        W22459  30.540  23.523  12.941
55677W        W22460  36.297  16.705   0.793
55678W        W22461  27.068  26.197  13.381
55679W        W22462  44.970  32.868   0.045
55680W        W22463  18.059  10.720   4.060
55681W        W22464  27.015  28.560  13.777
55682W        W22465  30.637  42.447   2.669
55683W        W22466  25.228  27.428   4.125
55684W        W22467   9.223  35.432   2.480
55685W        W22468  36.001  26.978  11.867
55686W        W22469  23.434  18.084  11.169
55687W        W22470  33.037  42.917  10.695
55688W        W22471  36.439  22.609   1.295
55689W        W22472   6.745  38.414   4.722
55690W        W22473  27.007  37.959  12.136
55691W        W22474  22.528  33.884   0.776
55692W        W22475  13.428  12.776   3.318
55693W        W22476  37.667  22.685   4.013
55694W        W22477  24.172  33.552   2.298
55695W        W22478   2.342  27.290   0.143
55696W        W22479   7.880  34.617   1.616
55697W        W22480   2.861  12.339   0.260
55698W        W22481  12.380  28.565  11.631
55699W        W22482  16.621   9.130   1.341
55700W        W22483  19.548  10.721  14.739
55701W        W22484  10.368  35.851  11.389
55702W        W22485  28.494   5.492   3.305
55703W        W22486  17.909  20.473   4.037
55704W        W22487  26.668   8.803  11.687
55705W        W22488  42.809  31.348  13.672
55706W        W22489  44.514  40.088   1.332
55707W        W22490   5.408   6.392   0.723
55708W        W22491  43.763  40.277  14.392
55709W        W22492   3.273   9.564  14.423
55710W        W22493  30.616  18.284   1.384
55711W        W22494  12.343   0.345  13.476
55712W        W22495   9.728  25.298   3.180
55713W        W22496  16.320  20.219  11.238
55714W        W22497  29.620  33.552   4.236
55715W        W22498   9.229  44.749  11.359
55716W        W22499  31.626  10.794  11.026
55717W        W22500  23.760   6.827  14.508
55718W        W22501   3.714  10.806   3.368
55719W        W22502   1.133   2.795  12.781
55720W        W22503   3.459  24.068  13.088
55721W        W22504  22.151  35.642  14.603
55722W        W22505  30.636  39.301   3.179
55723W        W22506  38.477  16.784  10.784
55724W        W22507  11.347  34.341   3.207
55725W        W22508  16.344  18.222  10.759
55726W        W22509  10.296  22.080   2.295
55727W        W22510  28.618  31.464  12.569
55728W        W22511  21.239  25.970  12.068
55729W        W22512  17.602  19.733  14.087
55730W        W22513  12.688   7.443   9.599
55731W        W22514  31.118   5.220   0.005
55732W        W22515  11.125  34.026  14.097
55733W        W22516  23.141  13.409   0.468
55734W        W22517  26.889  12.234   0.285
55735W        W22518  43.056   4.793  10.186
55736W        W22519  10.231  37.467   1.046
55737W        W22520  34.902   5.072   4.227
55738W        W22521  20.242  28.147  10.795
55739W        W22522   5.444  26.458  10.947
55740W        W22523  17.938  36.169   9.812
55741W        W22524  33.800  14.236  13.560
55742W        W22525  27.634  10.221  11.697
55743W        W22526  21.186  13.217   1.820
55744W        W22527  32.659   9.917   3.377
55745W        W22528  16.989  38.314   2.810
55746W        W22529  20.378  43.329  10.604
55747W        W22530  31.928  32.624   1.051
55748W        W22531  25.193  18.261  10.633
55749W        W22532  13.256   0.484  12.032
55750W        W22533   2.918  38.409   4.530
55751W        W22534  37.803  33.418  12.795
55752W        W22535  24.312  38.035  10.626
55753W        W22536  28.959   5.680  13.271
55754W        W22537  37.489   9.884   1.259
55755W        W22538  26.225   3.774  13.909
55756W        W22539   0.392   7.299  12.890
55757W        W22540   1.853  34.094   4.143
55758W        W22541  11.642  35.371  13.553
55759W        W22542   4.377  31.366  12.897
55760W        W22543  10.704  40.975   4.402
55761W        W22544   9.128   3.778   0.854
55762W        W22545   5.989  36.140   3.728
55763W        W22546  31.171  35.333  13.709
55764W        W22547  34.758  44.459  14.773
55765W        W22548  40.981  16.915   9.821
55766W        W22549   6.951  14.090   0.794
55767W        W22550   8.840  32.152   4.050
55768W        W22551  43.203   3.980  11.794
55769W        W22552  32.388  21.855  14.413
55770W        W22553  36.447   1.816   4.627
55771W        W22554  27.768  11.790  13.429
55772W        W22555  14.790  34.439   1.721
55773W        W22556  28.944  19.098  10.982
55774W        W22557  34.289  28.375  13.709
55775W        W22558   6.606  17.142   4.165
55776W        W22559  28.116   9.306  14.140
55777W        W22560   0.391  30.613  14.909
55778W        W22561  23.292  35.940   1.138
55779W        W22562   7.961  33.404   4.991
55780W        W22563   2.473  33.471  13.777
55781W        W22564  18.284  38.627  11.134
55782W        W22565   7.749   6.458  11.555
55783W        W22566  21.563  43.903  11.769
55784W        W22567  24.377  36.317   4.108
55785W        W22568  30.911   8.857   3.642
55786W        W22569  37.959  16.564  14.699
55787W        W22570  22.638   9.789   2.795
55788W        W22571  43.425  42.784   5.003
55789W        W22572   1.114  17.749  13.012
55790W        W22573   5.319  26.406  14.065
55791W        W22574  13.080   3.908   1.043
55792W        W22575  33.389  41.323  13.445
55793W        W22576  34.683  34.980   5.006
55794W        W22577  15.790   4.486  12.923
55795W        W22578  11.259  27.927  13.538
55796W        W22579  36.513   4.825  14.444
55797W        W22580  24.018  32.630  12.045
55798W        W22581  35.541  38.646  14.976
55799W        W22582   4.620  27.268  11.752
55800W        W22583  32.556   1.143   4.832
55801W        W22584   3.240   1.911  11.147
55802W        W22585   3.901   0.808   3.783
55803W        W22586   5.593  39.102  11.698
55804W        W22587   0.417  38.989   2.955
55805W        W22588  33.919  27.333  14.801
55806W        W22589  30.370  12.386   2.252
55807W        W22590  19.777   8.447  14.901
55808W        W22591  27.331  14.698  11.191
55809W        W22592  32.044  13.202   2.579
55810W        W22593  17.822   1.207   4.992
55811W        W22594  15.229  39.445   0.779
55812W        W22595  27.927   1.743  12.103
55813W        W22596  29.454  30.904  10.710
55814W        W22597  42.900  44.579   0.331
55815W        W22598  25.407  34.714   4.191
55816W        W22599  18.237  12.078   0.808
55817W        W22600  36.254  24.453  13.489
55818W        W22601  22.602   9.336  14.862
55819W        W22602  42.859  31.531   2.260
55820W        W22603  24.606  31.591   4.944
55821W        W22604   4.295  38.524  13.734
55822W        W22605   4.455  41.989   3.302
55823W        W22606  15.113   0.976  14.308
55824W        W22607   3.434  40.590  14.656
55825W        W22608  31.645  28.627   4.857
55826W        W22609   3.355  14.693   1.356
55827W        W22610  33.159  16.398   4.080
55828W        W22611   9.268   7.218  12.578
55829W        W22612   4.494   9.808   1.843
55830W        W22613  43.070  10.283   1.684
55831W        W22614  29.830  42.095  12.037
55832W        W22615  18.615  35.463   2.140
55833W        W22616   0.876  30.879  10.666
55834W        W22617  30.180  36.928   1.000
55835W        W22618  16.512   2.887   0.499
55836W        W22619  35.096  29.033  13.447
55837W        W22620   1.797   2.957  14.520
55838W        W22621  31.350  15.939   3.766
55839W        W22622  19.883   4.301   2.577
55840W        W22623  36.507  42.137   1.942
55841W        W22624  43.807   4.988  10.632
55842W        W22625   9.253  13.522   1.695
55843W        W22626  39.472  21.684   2.875
55844W        W22627  28.160   5.251  11.572
55845W        W22628  44.065  39.751  13.550
55846W        W22629  30.711   6.838   3.721
55847W        W22630   4.795  23.584  12.322
55848W        W22631  10.131  29.106   2.346
55849W        W22632  12.163   2.045   2.220
55850W        W22633  11.775  42.942  14.379
55851W        W22634  23.565  29.428  10.657
55852W        W22635  19.358  33.378   3.722
55853W        W22636  36.073  29.235  14.336
55854W        W22637   9.891  35.832   3.160
55855W        W22638  25.157  27.527   1.237
55856W        W22639   0.627   5.578  13.431
55857W        W22640   4.756  34.943  12.436
55858W        W22641  13.210   3.468  14.252
55859W        W22642  25.562  21.728  10.478
55860W        W22643  11.442  30.140   2.889
55861W        W22644  25.889  25.374   2.809
55862W        W22645  27.131   4.163   3.593
55863W        W22646  40.528  31.983   3.396
55864W        W22647  41.347  18.511   4.506
55865W        W22648   6.913  12.029  13.828
55866W        W22649  14.205  16.644   3.373
55867W        W22650  17.591  26.694  13.378
55868W        W22651  16.202  18.094   4.212
55869W        W22652  34.457  33.661   4.116
55870W        W22653  21.598   3.898  12.601
55871W        W22654  18.863  19.587  12.548
55872W        W22655  38.047  41.842  13.929
55873W        W22656  36.279  11.699   4.330
55874W        W22657  20.584  11.308   2.676
55875W        W22658  35.615   0.450  11.232
55876W        W22659  16.693  25.794  14.361
55877W        W22660  27.450  12.113  12.097
55878W        W22661  34.418   3.780   2.225
55879W        W22662  17.804  33.395   0.448
55880W        W22663  18.583  39.452   3.106
55881W        W22664  41.242   8.198   3.857
55882W        W22665  12.638  26.462  14.397
55883W        W22666   7.415  25.060   3.884
55884W        W22667  32.649  32.873  14.482
55885W        W22668  24.981  28.637  13.444
55886W        W22669  19.188  17.639  11.773
55887W        W22670  15.179   1.393   1.535
55888W        W22671  37.316  21.035   2.623
55889W        W22672  16.103  20.112   3.227
55890W        W22673  44.511  13.578   5.397
55891W        W22674  24.883  26.132   3.873
55892W        W22675   3.919  22.988  13.502
55893W        W22676  26.005  31.817  13.078
55894W        W22677  27.652  31.934   4.707
55895W        W22678  41.008  23.166   1.384
55896W        W22679   0.476  17.229   5.326
55897W        W22680  14.086  36.546   4.480
55898W        W22681   9.208  26.951   3.366
55899W        W22682  40.761  42.859  11.597
55900W        W22683  34.105   6.603   2.195
55901W        W22684  28.651  26.778  11.653
55902W        W22685  23.986  12.351  13.454
55903W        W22686  27.725   2.892   4.329
55904W        W22687  30.904  17.049  14.907
55905W        W22688  18.884  42.700  11.529
55906W        W22689   7.710  27.167  12.680
55907W        W22690  16.204  39.954   1.795
55908W        W22691  42.283  43.236  14.466
55909W        W22692  31.190  31.470  11.849
55910W        W22693  35.057  40.987   0.999
55911W        W22694  22.782  25.616   3.135
55912W        W22695   5.190   9.589   0.492
55913W        W22696  11.829  26.946   4.861
55914W        W22697  22.070   4.443   2.496
55915W        W22698  22.349  17.998  14.985
55916W        W22699  30.357   8.665  13.450
55917W        W22700   8.079  38.270  12.798
55918W        W22701  38.697  14.115  10.345
55919W        W22702  43.803  12.276  11.233
55920W        W22703  17.863  39.128  13.068
55921W        W22704   6.377  13.057   3.777
55922W        W22705  21.313  16.031   0.875
55923W        W22706   2.796   6.390   2.198
55924W        W22707   2.809   0.302  14.908
55925W        W22708   5.734   4.730  13.973
55926W        W22709  29.439  17.320   0.261
55927W        W22710  32.376  44.447   4.115
55928W        W22711   4.663   6.971   2.014
55929W        W22712  30.241  24.048   4.590
55930W        W22713  29.059  28.156  11.177
55931W        W22714  24.498  36.077   2.355
55932W        W22715  21.320  38.397  12.343
55933W        W22716   8.695   2.208   3.617
55934W        W22717  44.413  26.877   2.374
55935W        W22718   8.327  42.354  14.739
55936W        W22719  11.805   5.593   3.260
55937W        W22720  23.680  29.563  11.569
55938W        W22721  10.710  19.359  13.457
55939W        W22722  16.660  19.567   2.310
55940W        W22723  38.275   9.406  13.577
55941W        W22724   4.704   8.580   2.523
55942W        W22725  24.818  25.113  11.660
55943W        W22726  36.070  13.832  14.267
55944W        W22727  32.552   2.529  12.920
55945W        W22728  31.330  36.811   2.613
55946W        W22729  10.231  10.742   2.581
55947W        W22730  28.914  12.181   2.847
55948W        W22731  30.978  24.968   0.855
55949W        W22732  29.179  43.843   0.213
55950W        W22733  14.469  20.069  13.601
55951W        W22734  37.966  23.152  11.606
55952W        W22735   0.482  24.124  14.267
55953W        W22736  22.451  21.457   3.917
55954W        W22737  32.882  40.310  14.054
55955W        W22738  21.297  27.713  15.000
55956W        W22739  37.920  44.053  13.823
55957W        W22740  22.533  39.906   2.727
55958W        W22741  10.682  21.090   1.731
55959W        W22742  29.913   9.421   1.500
55960W        W22743  11.391  24.779  11.018
55961W        W22744  31.100  10.610  10.362
55962W        W22745  15.810   3.983   2.782
55963W        W22746  28.902  29.670  12.627
55964W        W22747  36.229   7.031  11.472
55965W        W22748   3.384  38.111  12.435
55966W        W22749  17.324  35.019  12.464
55967W        W22750   4.781   6.101   3.255
55968W        W22751  35.289  44.863  14.017
55969W        W22752  44.112  42.418   1.921
55970W        W22753  40.349  39.275   2.741
55971W        W22754  43.016   4.188   4.445
55972W        W22755  24.496  19.329  13.080
55973W        W22756  10.656  30.696   0.659
55974W        W22757  43.312  17.607  10.704
55975W        W22758  26.547   9.909   4.044
55976W        W22759   1.459  32.513   2.440
55977W        W22760  33.854  44.659   2.945
55978W        W22761  40.587  35.368  11.553
55979W        W22762  40.360  28.495  13.371
55980W        W22763  30.473  38.816  12.201
55981W        W22764  12.207  41.796   4.245
55982W        W22765  15.118  44.396   2.223
55983W        W22766  27.282  16.250  14.800
55984W        W22767  38.043   2.176   0.764
55985W        W22768  29.713   0.533  11.919
55986W        W22769  31.635  32.130   3.374
55987W        W22770   9.662  40.770  12.933
55988W        W22771  21.248   6.356  11.504
55989W        W22772   9.140  30.400  11.681
55990W        W22773   2.429  17.235  10.586
55991W        W22774  26.704  34.761   4.016
55992W        W22775  41.570  19.092   1.733
55993W        W22776  42.270  12.455   4.547
55994W        W22777  34.110  23.155  14.089
55995W        W22778  14.070  13.395   3.667
55996W        W22779  14.337  27.652   1.384
55997W        W22780  15.041  43.388   1.729
55998W        W22781  29.675  18.052   4.561
55999W        W22782  23.055  21.260  13.400
56000W        W22783  33.504  42.334   2.846
56001W        W22784  12.857  22.247  11.044
56002W        W22785   1.438  36.747   4.415
56003W        W22786  25.145  15.173   1.456
56004W        W22787  30.167   9.367  14.470
56005W        W22788   8.496  27.913   2.161
56006W        W22789  29.889  13.803  12.570
56007W        W22790  43.734  37.397  11.865
56008W        W22791  42.012  26.965  13.507
56009W        W22792  18.223  30.058  12.826
56010W        W22793  37.454  29.500  12.213
56011W        W22794   6.198  20.480   2.785
56012W        W22795  31.370   4.933   4.120
56013W        W22796   5.137  15.243   0.733
56014W        W22797  15.264  14.866  11.153
56015W        W22798  28.074  22.101  11.041
56016W        W22799  27.924  40.362  13.843
56017W        W22800   4.434   9.119   0.846
56018W        W22801   2.909  39.416  12.899
56019W        W22802  23.415   4.187  13.019
56020W        W22803  24.673  40.401  11.650
56021W        W22804  32.788  29.007  11.936
56022W        W22805  43.521  16.536  14.296
56023W        W22806  29.836  34.607  14.293
56024W        W22807  16.313  27.494   1.348
56025W        W22808  28.142  37.520   0.392
56026W        W22809  20.623  42.836   1.869
56027W        W22810  16.228  37.112  13.287
56028W        W22811  37.799  19.299   3.744
56029W        W22812  22.505  21.753  13.971
56030W        W22813   5.225   0.333  10.860
56031W        W22814  20.131  37.501  10.398
56032W        W22815   8.901  27.676  13.143
56033W        W22816   0.341   1.164  12.106
56034W        W22817   2.944  25.968   4.183
56035W        W22818  41.509  18.508  11.157
56036W        W22819  30.361  26.326   1.836
56037W        W22820  36.718  42.865  14.355
56038W        W22821  43.302  39.820   4.945
56039W        W22822  32.733  19.073   3.683
56040W        W22823  40.923   4.215  14.516
56041W        W22824  40.935  18.136   1.299
56042W        W22825  25.853   7.789   2.215
56043W        W22826  31.227  36.234   0.763
56044W        W22827  29.079  32.905   0.050
56045W        W22828  36.328  32.762   3.573
56046W        W22829   4.892  24.419  11.162
56047W        W22830  39.327  15.789   4.912
56048W        W22831   1.402  24.464   3.736
56049W        W22832  19.305  34.185  13.353
56050W        W22833  34.970   5.901  10.189
56051W        W22834  41.953  16.395  14.006
56052W        W22835  32.525  32.239   3.677
56053W        W22836  25.084  38.373  12.550
56054W        W22837  17.522  43.652   3.256
56055W        W22838  34.034  31.679   1.530
56056W        W22839  34.697  25.509   3.771
56057W        W22840  21.250   2.215   4.512
56058W        W22841  35.571  22.161  14.925
56059W        W22842  17.776  30.613  10.925
56060W        W22843  38.376  24.776  11.880
56061W        W22844   3.767  12.297  12.579
56062W        W22845  44.719   5.258  11.946
56063W        W22846   2.276  13.091   3.749
56064W        W22847  20.377  22.631   4.090
56065W        W22848  29.079  19.141  12.411
56066W        W22849  33.396  24.227  13.443
56067W        W22850   9.602   2.560  11.739
56068W        W22851  39.886  16.231   1.829
56069W        W22852  14.930  10.668   3.783
56070W        W22853  30.714  18.085   0.892
56071W        W22854  31.349  21.041   1.747
56072W        W22855  21.461  42.593   1.657
56073W        W22856  11.735  22.496  12.665
56074W        W22857  35.245  21.849   4.440
56075W        W22858   0.752  11.778  13.402
56076W        W22859  17.187  43.415   2.238
56077W        W22860  25.578  23.518  10.711
56078W        W22861  10.905  20.571   1.773
56079W        W22862   9.630   0.444  14.712
56080W        W22863  30.991  39.797  12.987
56081W        W22864  43.931  13.264   3.482
56082W        W22865  13.106   8.234  12.911
56083W        W22866  23.243  38.996  14.047
56084W        W22867  41.867  29.712  12.497
56085W        W22868  11.259   0.894  11.632
56086W        W22869  15.326  27.943   2.187
56087W        W22870  21.102   0.918   0.366
56088W        W22871  25.408  44.681   1.330
56089W        W22872  29.001  31.046  10.457
56090W        W22873  28.947   3.208   1.885
56091W        W22874  38.962  28.520   0.329
56092W        W22875  21.139  28.602  10.486
56093W        W22876   3.251   7.308  10.845
56094W        W22877  14.684  27.167   4.958
56095W        W22878  25.010  18.188  11.993
56096W        W22879  41.706  15.743  11.252
56097W        W22880  17.025  32.086   0.367
56098W        W22881  32.572  10.916   1.981
56099W        W22882  26.018  36.653   0.636
56100W        W22883  40.801   5.149  13.369
56101W        W22884  30.217  14.091  14.290
56102W        W22885  40.890   0.813   3.234
56103W        W22886  39.429  27.978  14.731
56104W        W22887  13.379   0.993   2.343
56105W        W22888  16.638  37.448  11.710
56106W        W22889  43.788  25.194   3.206
56107W        W22890  13.117  40.504   0.763
56108W        W22891  23.043  43.910   4.262
56109W        W22892   3.375  23.083  10.513
56110W        W22893   2.317   0.269   3.181
56111W        W22894  29.918  19.748   3.954
56112W        W22895  42.768  19.927  12.533
56113W        W22896  34.425  38.561   4.564
56114W        W22897   3.123  10.516  11.430
56115W        W22898   1.431  23.914  10.494
56116W        W22899  42.687  13.563   2.014
56117W        W22900  41.544  31.689   4.296
56118W        W22901   1.735  16.601  11.092
56119W        W22902  36.965  21.030   1.964
56120W        W22903   8.642   3.709  11.539
56121W        W22904  41.204  25.384  11.040
56122W        W22905  30.371  39.846   4.142
56123W        W22906   3.247  37.271   4.393
56124W        W22907  42.408   1.731   3.851
56125W        W22908  19.017  23.068   1.822
56126W        W22909   3.193  14.094  13.312
56127W        W22910  27.172   0.496   0.011
56128W        W22911   5.286  12.767   1.720
56129W        W22912   4.238  44.143  12.910
56130W        W22913  35.575  18.813   4.096
56131W        W22914   7.225  13.205  13.135
56132W        W22915   9.180  44.786   4.546
56133W        W22916  14.570  25.573  14.659
56134W        W22917  23.405   7.261   1.346
56135W        W22918   9.478  33.650   3.548
56136W        W22919  37.797  20.995   3.356
56137W        W22920  39.807  21.703  13.332
56138W        W22921   9.624   6.937   3.139
56139W        W22922  32.021  42.488  11.462
56140W        W22923  24.225  43.378   2.800
56141W        W22924   1.307  39.906  13.560
56142W        W22925  10.768  12.234   2.913
56143W        W22926   7.866   2.489   0.849
56144W        W22927  42.380   6.692   2.949
56145W        W22928  12.751  13.664  12.403
56146W        W22929  14.185  19.949   0.899
56147W        W22930  40.804   7.746   9.900
56148W        W22931   2.525  29.279   4.209
56149W        W22932  22.204  10.721   4.152
56150W        W22933  38.101  33.552   4.960
56151W        W22934   0.634  18.694  11.752
56152W        W22935  44.545  11.154   1.688
56153W        W22936  43.327  29.641   3.609
56154W        W22937  22.637   0.350  10.467
56155W        W22938   5.769  32.954  10.566
56156W        W22939  40.336  41.203  12.872
56157W        W22940  21.169  16.667  14.719
56158W        W22941  28.976   8.447   2.181
56159W        W22942   6.397  11.738   3.234
56160W        W22943  27.603  42.451   2.776
56161W        W22944  41.466  26.137  14.069
56162W        W22945   1.497  44.247   1.828
56163W        W22946   8.259   7.426  12.102
56164W        W22947  32.525  16.965  10.721
56165W        W22948   6.233  44.913  10.414
56166W        W22949   9.791  42.933   4.522
56167W        W22950  38.068  21.600  14.318
56168W        W22951  10.780  20.055  11.587
56169W        W22952  18.729   2.100  11.063
56170W        W22953  27.255   3.218  11.520
56171W        W22954  20.077  15.175  14.957
56172W        W22955   4.819  21.526  12.420
56173W        W22956  43.532   8.457   3.101
56174W        W22957  39.590  38.513  11.906
56175W        W22958  21.241  30.510   2.570
56176W        W22959  18.655  12.934   1.809
56177W        W22960   0.937   9.033   4.993
56178W        W22961  43.383   9.455   3.523
56179W        W22962  18.212  30.170  11.824
56180W        W22963  32.768  28.709   2.226
56181W        W22964  40.769   0.956   2.753
56182W        W22965  27.461  38.820   0.335
56183W        W22966  20.724   6.343   4.308
56184W        W22967  19.377  17.213   2.228
56185W        W22968  23.029  24.297   9.896
56186W        W22969   9.795  27.649  12.946
56187W        W22970   7.472  17.869  11.156
56188W        W22971  34.059   4.895   2.790
56189W        W22972  15.934  14.339   2.796
56190W        W22973   9.702  11.148  13.316
56191W        W22974  15.861   8.632   3.292
56192W        W22975  28.122  41.835  12.475
56193W        W22976  14.712  18.146   3.732
56194W        W22977   6.708  40.179  14.817
56195W        W22978  14.674  34.433   3.056
56196W        W22979  24.614  24.366  10.260
56197W        W22980   0.525  44.511   1.509
56198W        W22981  27.569  39.409  14.422
56199W        W22982  22.691  24.015   4.524
56200W        W22983  23.263  15.847   0.384
56201W        W22984  24.088  29.582  12.342
56202W        W22985  17.719  22.699  12.373
56203W        W22986  31.106  13.720  12.928
56204W        W22987  19.719  39.581   2.199
56205W        W22988   2.506  38.635   0.873
56206W        W22989   3.396  14.382  13.698
56207W        W22990  22.558   8.279   0.142
56208W        W22991  21.708  17.953   2.063
56209W        W22992   5.290  15.247   2.818
56210W        W22993  10.163  21.276   1.740
56211W        W22994  14.263  14.870  14.528
56212W        W22995  40.372   1.143  14.814
56213W        W22996   7.409  27.591  10.559
56214W        W22997  24.521  27.185   5.054
56215W        W22998  14.143  27.475  13.785
56216W        W22999  10.596  18.546  11.637
56217W        W23000  44.067  14.276   2.704
56218W        W23001   8.191  17.817   3.622
56219W        W23002   6.263  19.277   3.981
56220W        W23003  44.803  40.274  10.763
56221W        W23004  18.061  28.580  11.711
56222W        W23005   4.253  19.036  10.809
56223W        W23006   6.165  11.891   0.481
56224W        W23007  27.603  28.601  12.427
56225W        W23008  44.865  24.861  12.200
56226W        W23009  17.049  29.170   4.045
56227W        W23010  14.971  24.493   3.660
56228W        W23011  16.214  11.455   1.487
56229W        W23012   6.964   4.203   1.684
56230W        W23013  43.402  14.859  12.053
56231W        W23014   6.830  14.257   2.215
56232W        W23015  16.716  23.120   2.787
56233W        W23016  32.992  19.541   5.499
56234W        W23017   0.481  27.093   0.347
56235W        W23018  19.759   8.766   3.666
56236W        W23019  18.638   8.371  13.946
56237W        W23020  27.648   8.647   3.539
56238W        W23021  43.300   1.786   3.789
56239W        W23022  12.390   4.377   4.173
56240W        W23023  25.618   7.419  12.101
56241W        W23024  34.030  30.438   2.644
56242W        W23025  34.683   7.933   2.314
56243W        W23026  31.092   0.967   2.305
56244W        W23027  20.903  42.527   2.364
56245W        W23028  22.962  42.966   0.253
56246W        W23029  39.606  18.024  14.526
56247W        W23030  15.681  12.605  12.539
56248W        W23031  17.158  41.362  10.410
56249W        W23032  22.624  21.738  10.651
56250W        W23033  39.345  28.976   4.950
56251W        W23034  10.695  13.096  13.329
56252W        W23035  35.870  11.370  12.549
56253W        W23036  26.101  29.187   3.286
56254W        W23037  31.117  31.925  12.083
56255W        W23038  19.315  12.336   0.339
56256W        W23039  41.485  43.127  12.987
56257W        W23040  44.391   5.279  10.867
56258W        W23041   6.379  32.014   1.797
56259W        W23042   5.897  16.532   0.042
56260W        W23043   1.315   7.625   0.864
56261W        W23044  23.827  23.076   0.727
56262W        W23045  16.769  21.600  14.946
56263W        W23046  31.004   7.969   0.454
56264W        W23047  32.701  41.515  12.392
56265W        W23048   6.426  17.964   1.244
56266W        W23049  15.732   9.179   1.303
56267W        W23050  34.822  25.553  12.447
56268W        W23051  26.081  29.479   4.359
56269W        W23052  40.722  30.422   4.560
56270W        W23053  22.678  21.035   3.704
56271W        W23054   5.212  31.949  14.436
56272W        W23055   6.148  22.510   1.353
56273W        W23056  11.688   2.919   3.663
56274W        W23057  16.141  40.682   4.806
56275W        W23058  18.752   0.510  13.866
56276W        W23059  37.921  19.017   1.868
56277W        W23060  19.763  29.708   3.908
56278W        W23061  40.161  32.043   1.972
56279W        W23062  17.161   1.885  10.781
56280W        W23063  25.688  39.984  13.329
56281W        W23064  27.498  11.625   1.794
56282W        W23065  12.160  36.112  11.601
56283W        W23066  40.300   7.213   4.626
56284W        W23067  18.113  31.575  14.634
56285W        W23068  27.153  34.117   1.738
56286W        W23069  38.506   6.001   3.840
56287W        W23070  12.673   5.231  12.060
56288W        W23071  28.072  36.278  10.259
56289W        W23072   9.404  21.570   4.717
56290W        W23073  19.923  22.586   2.812
56291W        W23074   4.993  39.021  12.370
56292W        W23075  43.420  23.519  10.946
56293W        W23076   6.784   6.828   4.134
56294W        W23077  10.703  20.589  11.109
56295W        W23078   7.315  21.574   1.262
56296W        W23079  10.245  39.955  14.509
56297W        W23080   0.430  41.897  10.629
56298W        W23081  19.742   1.732  11.974
56299W        W23082   7.215  24.271   0.140
56300W        W23083  44.517  18.791  13.744
56301W        W23084   4.266  43.226  13.848
56302W        W23085  35.580  21.266  11.641
56303W        W23086   7.646  12.197  11.608
56304W        W23087  19.765  35.166  13.927
56305W        W23088   1.257  15.292   4.221
56306W        W23089   2.926  12.214  14.746
56307W        W23090  20.353  35.976   2.441
56308W        W23091  39.878   4.021  13.820
56309W        W23092   7.709  17.619  12.430
56310W        W23093  26.393   7.252   1.678
56311W        W23094  10.143  39.436  10.637
56312W        W23095  33.415  40.289   1.313
56313W        W23096  32.583  16.304  14.451
56314W        W23097   6.106  12.119  14.245
56315W        W23098  26.148  30.487   0.833
56316W        W23099  10.145  11.213   3.609
56317W        W23100   3.203  35.540   5.063
56318W        W23101   5.787  13.808   0.355
56319W        W23102  39.418   9.892  13.056
56320W        W23103  23.922   0.992  13.551
56321W        W23104   6.721  21.415   2.750
56322W        W23105  27.446  41.018  13.349
56323W        W23106  15.860   2.444  11.117
56324W        W23107  39.392  37.297  11.422
56325W        W23108  34.003  32.837  13.863
56326W        W23109   0.975   4.322  14.318
56327W        W23110  36.607  21.204   3.715
56328W        W23111  23.116  20.722  13.350
56329W        W23112  21.620  42.229  10.654
56330W        W23113  18.172  19.147  12.463
56331W        W23114   7.193  34.162  13.850
56332W        W23115  35.171  31.408  10.788
56333W        W23116  26.974  19.889  11.564
56334W        W23117  35.459  22.237   4.169
56335W        W23118  17.977  20.290  11.041
56336W        W23119  25.944  41.223  14.430
56337W        W23120  31.761  18.634   3.583
56338W        W23121  44.617  37.866   0.885
56339W        W23122   4.187  12.612  12.516
56340W        W23123   2.223  37.144  10.970
56341W        W23124  44.461  13.585  12.920
56342W        W23125  19.038   5.610   4.026
56343W        W23126   0.154   5.274   3.629
56344W        W23127  18.415  25.504  12.237
56345W        W23128  38.299  22.568  12.460
56346W        W23129  42.834  16.328   0.896
56347W        W23130  30.500  41.297   1.146
56348W        W23131   6.805  42.384   3.617
56349W        W23132  16.362  13.791  14.600
56350W        W23133   6.104  27.613   1.423
56351W        W23134  15.648  19.104  13.424
56352W        W23135  23.078  15.309  11.568
56353W        W23136  15.714  12.412   2.696
56354W        W23137  33.847   9.122   3.216
56355W        W23138  32.150  26.626  14.983
56356W        W23139   3.748  11.582  14.802
56357W        W23140  38.588  14.850  10.624
56358W        W23141  28.324  43.999  10.563
56359W        W23142   9.644  23.990  12.975
56360W        W23143  16.036  13.693   4.343
56361W        W23144  25.668  22.547   1.381
56362W        W23145  34.459   6.646  14.173
56363W        W23146  34.027  35.337  11.269
56364W        W23147  32.651  34.740   4.243
56365W        W23148   1.351   3.752  11.225
56366W        W23149   5.418  36.036   5.003
56367W        W23150   7.484  19.851   4.616
56368W        W23151  21.711  21.483  10.556
56369W        W23152  36.013  24.648   1.721
56370W        W23153  24.232  15.289   0.471
56371W        W23154  42.564  22.678   0.423
56372W        W23155  42.445  36.942  13.994
56373W        W23156  17.308  12.052  10.997
56374W        W23157  35.047  38.116  12.411
56375W        W23158  30.496  22.654  14.527
56376W        W23159  39.404  17.758   1.957
56377W        W23160  36.589  19.111  13.995
56378W        W23161  35.781  41.551   3.175
56379W        W23162  44.286  34.489   2.143
56380W        W23163  39.436   0.511   0.276
56381W        W23164  21.382  14.371   4.629
56382W        W23165  14.555   3.455  12.641
56383W        W23166  28.617  13.739   0.316
56384W        W23167  36.989  32.496  13.528
56385W        W23168   3.833  27.686   2.837
56386W        W23169  42.696  27.171  12.787
56387W        W23170  35.235  36.068  11.969
56388W        W23171  36.621   8.295  12.004
56389W        W23172  21.165  41.553   4.618
56390W        W23173  26.025  34.303   1.316
56391W        W23174  30.968   7.291  11.117
56392W        W23175  19.563  10.447  11.007
56393W        W23176  38.522  38.069   2.602
56394W        W23177  32.108  19.768   1.340
56395W        W23178   6.751  33.435   1.504
56396W        W23179  30.433  33.641   0.787
56397W        W23180  39.038  10.258   0.432
56398W        W23181  43.081  26.920  14.498
56399W        W23182  16.908  36.417   4.174
56400W        W23183   6.663  26.516  12.435
56401W        W23184  28.345   2.246   2.803
56402W        W23185  21.804  38.903  10.653
56403W        W23186  10.455  30.112   3.233
56404W        W23187  22.007  22.735  13.929
56405W        W23188  40.839  17.108  10.947
56406W        W23189  18.173   3.694   3.801
56407W        W23190   2.009  31.164  11.959
56408W        W23191  33.075   2.815  11.124
56409W        W23192  15.059  30.489  13.353
56410W        W23193  16.050   1.228   2.125
56411W        W23194  24.633  35.399  11.654
56412W        W23195   3.389  13.065   0.742
56413W        W23196  44.676   4.367   0.707
56414W        W23197  11.637  28.711  11.139
56415W        W23198  16.263  22.759   4.266
56416W        W23199   5.344   7.450   1.497
56417W        W23200  39.143  24.423   5.106
56418W        W23201  33.573   8.690  11.589
56419W        W23202  42.025  37.082   0.495
56420W        W23203  34.485  17.831   0.833
56421W        W23204   2.829  23.022   3.845
56422W        W23205  31.726  31.539  14.722
56423W        W23206  21.978  17.724  14.235
56424W        W23207  13.184  44.550  11.192
56425W        W23208   0.869  30.417   0.020
56426W        W23209  36.296   5.808  14.327
56427W        W23210  41.687  32.173   2.287
56428W        W23211  33.882   8.955  11.863
56429W        W23212  29.114   0.048   3.663
56430W        W23213  35.295  31.644   3.663
56431W        W23214  20.719  42.727  11.727
56432W        W23215  16.889  12.439  14.746
56433W        W23216  36.507  18.166  11.991
56434W        W23217  40.407  32.409  10.301
56435W        W23218  25.677  33.926   4.268
56436W        W23219   4.723  31.258  13.318
56437W        W23220  21.530  25.521  11.052
56438W        W23221  14.581  16.624   0.811
56439W        W23222  37.172  27.709   1.719
56440W        W23223  25.683  40.361  12.009
56441W        W23224  13.019  28.965   1.230
56442W        W23225  21.049   1.604   1.595
56443W        W23226  25.900  39.414  14.523
56444W        W23227  25.728  13.348  13.048
56445W        W23228   1.588  29.593   0.456
56446W        W23229  29.584  17.682  10.643
56447W        W23230  40.338  43.423  13.138
56448W        W23231  27.140  24.491  13.708
56449W        W23232  11.618  41.860  14.797
56450W        W23233  37.490  40.707  13.800
56451W        W23234   6.384  27.459  13.409
56452W        W23235  14.797   5.520  14.004
56453W        W23236   6.241  10.780  13.452
56454W        W23237  29.059  24.992  14.969
56455W        W23238  37.024  42.084  12.608
56456W        W23239   3.959  14.862  14.798
56457W        W23240  31.423  32.464   1.248
56458W        W23241  27.943  11.856  14.257
56459W        W23242  12.242   8.927   2.331
56460W        W23243   7.822  16.039  13.438
56461W        W23244  31.629  24.026  10.631
56462W        W23245  37.362  31.627  12.976
56463W        W23246  11.888  16.755   2.424
56464W        W23247  15.701  14.269   0.014
56465W        W23248  16.810  22.612   3.160
56466W        W23249  14.910  11.287   1.331
56467W        W23250  31.031  26.978   4.617
56468W        W23251  37.879  34.032  13.607
56469W        W23252   3.892  12.224  14.279
56470W        W23253  31.472  35.121  13.274
56471W        W23254  29.923  39.314   1.896
56472W        W23255  37.315  10.164  12.720
56473W        W23256  11.386  23.059   4.097
56474W        W23257  30.445   8.823  11.654
56475W        W23258  43.884  32.946   4.672
56476W        W23259  26.892  36.916  11.185
56477W        W23260  23.569   5.971   0.927
56478W        W23261  23.397  36.414   1.416
56479W        W23262   0.231   5.412   3.122
56480W        W23263   4.554  18.574  11.566
56481W        W23264  36.862   4.828   0.630
56482W        W23265  22.596  10.128   0.589
56483W        W23266  38.849  12.563   2.101
56484W        W23267  31.716  20.060   0.475
56485W        W23268  15.813  36.932  13.930
56486W        W23269  17.172  24.367   3.863
56487W        W23270  12.318  15.364   0.195
56488W        W23271  36.888  29.922   3.146
56489W        W23272  13.332  35.948  13.016
56490W        W23273  37.910   0.257  14.372
56491W        W23274  25.631  19.145  10.735
56492W        W23275  24.563  12.157   0.460
56493W        W23276  15.366  44.001   3.689
56494W        W23277  29.497  30.158  14.782
56495W        W23278  24.616   5.503  12.309
56496W        W23279  19.832  37.219  11.649
56497W        W23280  24.266  38.494   3.874
56498W        W23281  33.692   4.462   1.880
56499W        W23282  42.840  35.541  10.850
56500W        W23283  30.075   0.293  12.208
56501W        W23284   6.389  38.359   2.303
56502W        W23285  27.008  27.074   2.766
56503W        W23286  25.879  14.222  13.461
56504W        W23287  14.679  30.602   2.281
56505W        W23288   7.313   5.785   2.400
56506W        W23289  37.595  36.178  12.935
56507W        W23290  15.150  16.120   1.285
56508W        W23291  10.465  27.900  11.990
56509W        W23292  20.283   3.843   3.576
56510W        W23293  26.261  35.960  14.014
56511W        W23294  32.626  10.705   1.489
56512W        W23295  38.531  39.588   2.266
56513W        W23296  14.233  22.972  11.455
56514W        W23297  27.901   9.683  14.458
56515W        W23298  39.587  29.442  11.446
56516W        W23299  44.854   9.234   2.190
56517W        W23300  43.603  16.586   0.314
56518W        W23301  44.266  16.215   1.712
56519W        W23302   9.638  43.429   4.529
56520W        W23303   7.918  27.279  14.564
56521W        W23304  14.028  10.861  15.000
56522W        W23305  21.207  12.618  12.059
56523W        W23306  11.909  37.014   5.438
56524W        W23307  41.834   7.599  12.413
56525W        W23308  11.889  10.981   1.891
56526W        W23309  19.113  41.420  11.448
56527W        W23310  23.131  34.479  10.326
56528W        W23311   3.773  39.024  13.051
56529W        W23312  35.693  40.478   4.930
56530W        W23313  29.376  10.633   4.105
56531W        W23314  22.630  39.101   0.799
56532W        W23315  36.761  20.529   2.080
56533W        W23316  37.850  42.347  14.757
56534W        W23317   4.625  37.367   0.904
56535W        W23318  27.848  36.752   0.279
56536W        W23319  30.666   4.926  11.061
56537W        W23320  20.148  24.218  13.025
56538W        W23321  23.269  27.208  14.484
56539W        W23322  13.725  21.530  11.981
56540W        W23323  23.003  24.940  11.829
56541W        W23324  38.989  44.248  14.087
56542W        W23325  36.531   4.730   4.028
56543W        W23326  14.693   2.748   3.801
56544W        W23327   2.052  26.219  11.619
56545W        W23328   0.751   2.903  13.740
56546W        W23329  22.553  18.279   4.198
56547W        W23330   5.879  13.321  10.672
56548W        W23331  18.812  33.104   1.556
56549W        W23332   5.302   0.926   4.311
56550W        W23333  36.031  44.133  10.970
56551W        W23334  26.760  27.891   2.479
56552W        W23335  34.562   8.265   1.271
56553W        W23336  37.036  34.047   1.108
56554W        W23337  13.246  13.859   0.214
56555W        W23338   0.101   6.458   1.960
56556W        W23339  42.417  36.221   1.994
56557W        W23340   0.906  31.408  10.620
56558W        W23341   3.842  16.720   4.168
56559W        W23342  18.784  17.727  12.991
56560W        W23343  41.178  41.266  11.146
56561W        W23344  43.262  30.481   3.715
56562W        W23345  11.721  32.715   2.827
56563W        W23346   4.188  22.531  14.387
56564W        W23347  27.763   4.242   0.764
56565W        W23348   9.026  39.198  12.897
56566W        W23349  18.024  21.616  10.613
56567W        W23350   7.417  33.344   2.803
56568W        W23351  28.073  23.908  13.979
56569W        W23352   5.505  23.134  11.312
56570W        W23353   7.081   3.560  12.831
56571W        W23354  15.094  41.342   1.486
56572W        W23355  28.482   0.186  13.353
56573W        W23356  42.988  20.221   2.734
56574W        W23357  31.460   7.149  10.936
56575W        W23358  32.103  39.412   3.108
56576W        W23359  22.443  16.154  12.823
56577W        W23360  36.506  18.118   2.236
56578W        W23361  39.019  19.781  12.823
56579W        W23362  19.943  35.562  14.879
56580W        W23363  14.229   5.911   1.730
56581W        W23364  34.914  16.855   0.690
56582W        W23365  19.637  41.715   0.856
56583W        W23366   5.094  36.447   2.427
56584W        W23367   0.259  43.488  14.378
56585W        W23368   0.596   2.827   2.658
56586W        W23369  42.081  40.760   1.913
56587W        W23370  19.952   1.459  12.797
56588W        W23371  12.139   7.699   0.732
56589W        W23372  44.112  40.534  14.084
56590W        W23373  13.413  33.819   1.825
56591W        W23374  14.279  16.685  14.811
56592W        W23375   6.791   0.278  13.479
56593W        W23376   3.133  24.942  14.420
56594W        W23377  44.431  23.789   1.347
56595W        W23378  36.801  32.163   1.892
56596W        W23379   9.366  12.179  12.766
56597W        W23380   9.400  32.343  14.865
56598W        W23381  20.722  11.570   3.695
56599W        W23382  29.421  38.551   4.908
56600W        W23383  37.049  36.893  14.363
56601W        W23384  16.720  25.003   0.661
56602W        W23385  43.451  17.402   0.564
56603W        W23386   7.696  37.103   0.908
56604W        W23387  11.573  31.153   2.183
56605W        W23388  44.328  26.467  10.715
56606W        W23389  23.673  23.382  11.581
56607W        W23390  29.678  26.162   1.516
56608W        W23391   9.501  32.380   3.006
56609W        W23392  42.998  16.670  11.584
56610W        W23393   4.883  18.342  11.975
56611W        W23394  24.660   5.693  12.782
56612W        W23395  41.729  35.380  10.794
56613W        W23396  20.136  43.027   1.862
56614W        W23397  36.604  36.264  11.134
56615W        W23398  17.357  20.517  12.048
56616W        W23399  11.141   9.318   2.833
56617W        W23400  41.962  40.132   4.645
56618W        W23401   2.403  34.462  14.197
56619W        W23402  12.159  22.765   0.750
56620W        W23403  13.289  35.273  14.278
56621W        W23404  22.071   2.896   0.220
56622W        W23405  22.184   7.454  12.087
56623W        W23406  20.819  44.877   3.081
56624W        W23407   3.230  43.370   0.312
56625W        W23408  41.676  17.131  14.382
56626W        W23409  11.934  26.971  14.039
56627W        W23410  14.277  10.259   0.840
56628W        W23411   4.213  23.169   4.514
56629W        W23412   6.843  40.010  13.234
56630W        W23413  32.026   1.467  10.743
56631W        W23414  44.863  17.677  11.005
56632W        W23415  17.136   2.157   4.097
56633W        W23416  21.713  10.591   0.953
56634W        W23417  12.603  36.338  11.766
56635W        W23418  18.697  18.605   9.889
56636W        W23419  20.761  14.883  11.617
56637W        W23420  11.122  43.249   3.222
56638W        W23421  35.572  26.693  12.474
56639W        W23422  32.145  21.544   0.905
56640W        W23423  24.515  36.204   4.640
56641W        W23424   2.983  39.800  11.592
56642W        W23425  20.700  12.370   0.372
56643W        W23426  23.795  32.941   2.739
56644W        W23427  12.958  36.418  10.896
56645W        W23428  34.156  19.471  13.486
56646W        W23429  36.967  17.558  10.544
56647W        W23430  25.071  12.006  12.104
56648W        W23431  14.552  10.777   0.861
56649W        W23432   1.998  40.933  10.740
56650W        W23433   4.863   9.953  12.402
56651W        W23434  26.455  37.445   0.852
56652W        W23435  29.547  10.105  12.518
56653W        W23436   4.955  34.962   3.403
56654W        W23437  35.381  22.701  12.086
56655W        W23438  24.124   9.370   1.180
56656W        W23439  30.050  38.547   2.835
56657W        W23440  40.103  16.647   0.795
56658W        W23441  37.437   9.128   1.033
56659W        W23442  10.794   6.212   3.319
56660W        W23443  23.564  21.468  11.357
56661W        W23444   7.910  35.852  12.090
56662W        W23445  18.788   1.696  14.554
56663W        W23446  20.105  11.164  11.542
56664W        W23447   4.430   6.487  13.083
56665W        W23448  43.129  29.101  10.634
56666W        W23449   5.794  15.670  12.468
56667W        W23450  34.594  12.295   3.901
56668W        W23451  11.542  44.543  11.139
56669W        W23452  39.915   3.144  12.601
56670W        W23453  27.700  32.538   3.104
56671W        W23454  12.613  12.815   1.938
56672W        W23455  22.606  44.342  10.461
56673W        W23456  12.310  39.914   0.835
56674W        W23457  23.472   4.524   2.444
56675W        W23458  42.745  14.428   3.275
56676W        W23459  17.121  20.645   1.798
56677W        W23460  26.108  36.026   4.617
56678W        W23461  17.461   0.449  14.275
56679W        W23462  33.587  10.329   4.255
56680W        W23463   5.304  38.284  14.994
56681W        W23464   8.442  30.425   0.290
56682W        W23465  44.271  22.441  14.581
56683W        W23466  37.928  16.145   3.476
56684W        W23467  31.530   9.733   3.274
56685W        W23468  43.257  18.266   3.248
56686W        W23469  35.403  38.142   0.069
56687W        W23470   7.155  31.398   3.724
56688W        W23471  44.135   7.799   0.382
56689W        W23472  28.470  27.279  12.983
56690W        W23473  10.359  10.397   4.226
56691W        W23474  22.472  44.556   4.307
56692W        W23475  25.776  43.547   3.150
56693W        W23476  30.960   0.507   1.512
56694W        W23477  10.771   4.706   0.278
56695W        W23478  26.630  39.757  11.991
56696W        W23479  30.931  43.738  11.187
56697W        W23480  26.041  22.930  13.249
56698W        W23481  23.017  29.659   2.673
56699W        W23482  15.700   3.377  12.140
56700W        W23483  39.590  16.720   0.900
56701W        W23484  18.134  35.530   2.339
56702W        W23485  14.351   0.302  12.033
56703W        W23486  37.010  16.677   4.959
56704W        W23487  22.919  14.078  11.960
56705W        W23488   1.887  44.713   4.665
56706W        W23489   0.267   1.291  11.608
56707W        W23490  35.342  18.223  12.365
56708W        W23491  22.642  43.416  14.924
56709W        W23492  41.276  14.244   1.192
56710W        W23493  44.456  12.173   1.917
56711W        W23494  15.587  34.626  13.547
56712W        W23495  13.505  14.332   1.721
56713W        W23496  25.178   0.346  10.475
56714W        W23497  40.856   6.188   0.051
56715W        W23498  12.250  11.397   1.701
56716W        W23499  22.089  29.013  14.659
56717W        W23500  16.743  44.845   0.815
56718W        W23501  39.195   6.498   1.646
56719W        W23502  25.900  10.569  14.475
56720W        W23503  40.955  39.870   4.110
56721W        W23504  39.350  35.294  12.424
56722W        W23505  15.576  33.583  10.630
56723W        W23506  13.483  12.350  14.811
56724W        W23507  28.486  21.880   2.425
56725W        W23508   9.319  38.946   4.174
56726W        W23509  40.784  19.750  10.589
56727W        W23510  17.745  25.572  11.075
56728W        W23511  39.410  35.416  10.579
56729W        W23512  27.129   4.925  10.113
56730W        W23513  29.196   8.421  13.398
56731W        W23514  34.288  44.990  13.997
56732W        W23515   6.719  44.835   1.891
56733W        W23516  14.661   8.316   4.776
56734W        W23517  32.905   8.279  14.507
56735W        W23518  18.173  28.018   0.787
56736W        W23519  30.507  15.683   1.803
56737W        W23520  10.902  12.020  10.778
56738W        W23521   5.633  28.924  12.893
56739W        W23522  14.067  42.358  11.532
56740W        W23523  25.731  28.779   0.333
56741W        W23524   8.196  29.088  14.775
56742W        W23525  36.017   9.141   3.703
56743W        W23526  22.503  15.996   2.805
56744W        W23527  17.072  44.894   2.336
56745W        W23528   0.760  38.445   0.357
56746W        W23529  22.583  33.117  12.800
56747W        W23530   5.817  32.520   4.914
56748W        W23531  33.471  10.402  12.373
56749W        W23532  31.423  23.657  14.971
56750W        W23533  24.188  12.193   3.424
56751W        W23534  24.616  29.011  12.491
56752W        W23535  10.729  20.792   0.443
56753W        W23536  16.447  39.596  14.885
56754W        W23537  39.124  34.595   1.716
56755W        W23538  41.978  15.403   1.778
56756W        W23539   8.806  17.610   0.306
56757W        W23540  33.990  29.904   3.410
56758W        W23541   3.913  42.367   4.095
56759W        W23542  16.238  22.258  11.343
56760W        W23543  37.449  22.157   9.917
56761W        W23544  43.328   9.763  11.492
56762W        W23545  21.787  32.928   3.769
56763W        W23546   4.613  26.890  13.476
56764W        W23547   7.336  43.579   0.724
56765W        W23548  24.013   3.659  14.470
56766W        W23549  30.453  35.438   1.534
56767W        W23550  41.325   0.126  11.264
56768W        W23551  26.037  38.971  12.119
56769W        W23552  43.013   2.284  11.958
56770W        W23553  43.844  18.110   4.231
56771W        W23554  19.665   5.418   3.027
56772W        W23555  28.675  22.614  14.552
56773W        W23556  20.040  13.080   3.676
56774W        W23557  26.406   5.153   4.198
56775W        W23558  36.634   6.742   2.293
56776W        W23559  28.870  18.015  10.715
56777W        W23560   2.875  10.188   1.297
56778W        W23561  36.766   4.752  12.445
56779W        W23562  17.945  36.340  11.985
56780W        W23563  13.456  35.162  13.787
56781W        W23564  34.146   4.458  13.380
56782W        W23565  15.904   3.630   4.066
56783W        W23566  21.725  23.169   3.640
56784W        W23567  39.078  41.784  14.832
56785W        W23568  26.504  35.404   1.798
56786W        W23569  40.998  40.388   3.769
56787W        W23570  22.004  36.805   4.355
56788W        W23571  37.659  16.580   3.249
56789W        W23572  13.689  38.008  12.928
56790W        W23573  27.463  44.236   4.361
56791W        W23574  24.162  25.274   1.710
56792W        W23575  41.474  10.304  14.393
56793W        W23576   8.146  32.490  10.570
56794W        W23577  34.368  14.037   1.493
56795W        W23578  43.752   3.617   3.769
56796W        W23579  15.765   9.070   3.581
56797W        W23580  27.377  30.403   1.279
56798W        W23581  17.146  11.981  12.413
56799W        W23582  30.015  20.114   0.609
56800W        W23583  38.120   5.749   1.262
56801W        W23584  40.986   4.542  10.856
56802W        W23585   9.292   7.779  11.411
56803W        W23586  43.242  29.191  11.698
56804W        W23587  40.586  36.990  14.437
56805W        W23588  14.349  28.469   0.906
56806W        W23589  35.485  41.520   4.633
56807W        W23590  27.147  27.114  14.904
56808W        W23591  39.946  40.675   2.708
56809W        W23592  23.492  13.136  12.386
56810W        W23593   9.911  29.679   1.239
56811W        W23594  35.523  38.481   4.910
56812W        W23595  19.371  32.945  11.144
56813W        W23596  28.507   8.207  11.614
56814W        W23597  36.343   1.013   3.763
56815W        W23598  34.415  10.160  11.537
56816W        W23599  20.752  26.981  11.403
56817W        W23600   7.458  18.995  13.896
56818W        W23601  10.260  29.943   4.590
56819W        W23602  21.435  37.410   0.347
56820W        W23603  17.656  30.386   1.896
56821W        W23604  44.212  16.009   3.693
56822W        W23605  33.032  22.133  10.895
56823W        W23606   0.236  15.819  11.121
56824W        W23607  33.802  39.893  12.891
56825W        W23608  11.295   3.667   1.770
56826W        W23609  35.409  36.296  12.419
56827W        W23610  29.018  23.627   4.133
56828W        W23611  39.720  34.496  11.955
56829W        W23612  12.144   3.667  11.151
56830W        W23613  27.165  15.876  12.570
56831W        W23614  12.828  18.012   0.678
56832W        W23615   1.993  13.306  10.372
56833W        W23616  20.722  43.542   0.462
56834W        W23617  38.096  23.802   1.631
56835W        W23618  18.757   5.764  12.439
56836W        W23619   0.689  35.549  12.175
56837W        W23620  37.514  20.127   4.160
56838W        W23621   5.434  43.525   0.295
56839W        W23622   4.677  13.244   3.100
56840W        W23623  15.320  38.639  12.169
56841W        W23624   2.453   0.265   1.269
56842W        W23625  43.693  34.947   2.856
56843W        W23626   3.214  26.463   2.912
56844W        W23627  37.526  41.362  13.460
56845W        W23628  17.353  35.398  13.820
56846W        W23629   8.553  33.224   0.308
56847W        W23630  37.250  31.448  13.959
56848W        W23631   0.383  17.452   1.296
56849W        W23632   9.834  23.766  12.096
56850W        W23633  27.624   4.768  12.910
56851W        W23634   4.709  37.035  12.972
56852W        W23635   4.011   2.900   0.953
56853W        W23636  17.683   4.357   2.154
56854W        W23637  26.419  31.096  10.673
56855W        W23638  39.998   2.625  14.794
56856W        W23639  28.080  11.750   2.154
56857W        W23640  28.718   3.802   3.743
56858W        W23641  23.478  28.493  11.387
56859W        W23642  35.461   4.681  11.073
56860W        W23643  39.305  44.281  14.956
56861W        W23644  42.856  41.770  12.918
56862W        W23645   5.247  22.532  12.567
56863W        W23646  12.558  33.856   1.491
56864W        W23647  36.348  25.756   3.834
56865W        W23648  19.951  40.297  11.798
56866W        W23649   0.971  43.358   1.278
56867W        W23650  24.995   1.696   2.825
56868W        W23651  22.613  36.128  10.743
56869W        W23652   1.819   2.791   4.858
56870W        W23653  27.502  25.482  11.125
56871W        W23654  16.710  36.539   2.577
56872W        W23655   1.790   9.239   3.707
56873W        W23656  16.755  38.201  14.604
56874W        W23657   2.474  35.019   0.261
56875W        W23658  34.009   3.204  11.265
56876W        W23659   2.388   5.250   2.826
56877W        W23660  12.827   2.939  11.293
56878W        W23661  24.731  30.046  14.572
56879W        W23662   4.889  44.078   0.881
56880W        W23663  24.725  26.947  11.418
56881W        W23664  42.921   6.806   0.297
56882W        W23665   9.790  16.198  12.332
56883W        W23666  13.712  42.714   4.741
56884W        W23667  33.656   5.857  11.408
56885W        W23668   8.420  32.878  14.932
56886W        W23669  19.568  14.700   0.175
56887W        W23670  38.800  23.194   1.241
56888W        W23671  19.056  26.525  13.584
56889W        W23672  23.181  44.926  12.007
56890W        W23673  38.760  26.622   2.835
56891W        W23674  44.908  38.005  10.617
56892W        W23675  41.866  27.025   2.836
56893W        W23676  25.657  37.046   0.144
56894W        W23677  30.868  40.292  12.913
56895W        W23678   0.952  27.424   3.347
56896W        W23679  40.417  16.804   2.280
56897W        W23680   0.398   5.114  12.297
56898W        W23681  43.092   7.127   3.346
56899W        W23682  24.738   6.383   0.428
56900W        W23683  41.473  11.527   4.847
56901W        W23684   0.752  25.456   1.620
56902W        W23685  12.245  35.015  14.912
56903W        W23686  23.740  43.099   3.669
56904W        W23687  40.772   2.977  11.593
56905W        W23688   9.630  32.955  13.459
56906W        W23689  26.478  24.506  11.051
56907W        W23690  18.217  17.283  10.134
56908W        W23691  22.186  27.752  12.025
56909W        W23692  16.810  24.517   0.836
56910W        W23693  30.947   6.704  10.631
56911W        W23694   0.791  41.075  13.776
56912W        W23695  26.199  31.054   1.357
56913W        W23696  21.447  25.191   5.442
56914W        W23697  39.257   0.500  12.464
56915W        W23698  37.895  22.257  14.713
56916W        W23699  43.491  18.234  13.027
56917W        W23700  39.260  33.514  13.591
56918W        W23701  15.268  40.902   0.187
56919W        W23702  25.125   7.542   1.697
56920W        W23703   6.284  31.667  14.419
56921W        W23704   0.989  17.262   1.762
56922W        W23705   3.999  30.380   2.844
56923W        W23706   4.820  36.945  14.967
56924W        W23707  22.564  27.128   3.206
56925W        W23708  12.004  13.280  14.587
56926W        W23709  42.431   2.909   4.768
56927W        W23710  36.074  38.341  13.310
56928W        W23711  44.554  22.947  14.393
56929W        W23712  13.005  17.276  12.224
56930W        W23713  12.213  26.204  11.654
56931W        W23714   6.981  22.166   2.298
56932W        W23715  25.084  36.872   0.889
56933W        W23716   9.242   1.091   4.152
56934W        W23717  32.121  28.755  14.345
56935W        W23718  40.370  33.106   1.960
56936W        W23719  16.709  32.410   2.791
56937W        W23720  16.617  12.851  12.271
56938W        W23721  43.006  36.475  11.032
56939W        W23722  28.968   6.665   2.791
56940W        W23723  24.315   0.850   1.284
56941W        W23724  43.217  38.807  14.404
56942W        W23725  17.513   7.294   3.780
56943W        W23726  40.816  35.404   1.728
56944W        W23727  16.042   2.213   5.058
56945W        W23728   7.659   9.318  12.044
56946W        W23729  36.044  29.942  12.964
56947W        W23730  33.200  25.950   3.669
56948W        W23731  29.527  39.877  10.785
56949W        W23732   7.217  35.939   3.193
56950W        W23733  37.036  43.464  10.827
56951W        W23734   6.018  33.145  11.905
56952W        W23735  24.241  17.057  10.611
56953W        W23736  35.054  33.405   1.123
56954W        W23737  28.109  19.521   2.391
56955W        W23738  19.143  31.883   0.818
56956W        W23739  20.019   3.532   2.371
56957W        W23740  22.553  31.452  10.403
56958W        W23741   6.139  12.667   2.873
56959W        W23742   6.269   8.150  12.437
56960W        W23743   4.198  19.746  13.522
56961W        W23744  33.727  40.530   0.685
56962W        W23745  26.994   6.613  11.628
56963W        W23746  14.699  13.168   1.260
56964W        W23747  20.208  27.190   0.252
56965W        W23748   7.653  31.787   1.457
56966W        W23749  27.426  16.838   3.917
56967W        W23750  41.454  35.982   1.394
56968W        W23751  18.750  11.731   4.166
56969W        W23752  44.565  30.547  13.539
56970W        W23753  29.502  41.547  10.722
56971W        W23754  11.845  44.128   0.903
56972W        W23755  43.828  18.636  13.004
56973W        W23756   0.926   5.686   4.222
56974W        W23757  44.321  36.877  12.564
56975W        W23758  31.799   1.973  11.026
56976W        W23759   0.462  29.604  12.570
56977W        W23760   1.964  21.938   4.320
56978W        W23761   3.299  10.681   4.895
56979W        W23762  25.099  17.954  14.870
56980W        W23763  13.822  25.629  11.959
56981W        W23764  43.212   8.964   3.650
56982W        W23765  18.165  31.454  13.623
56983W        W23766  13.825   3.469   2.848
56984W        W23767  42.433  24.560  11.630
56985W        W23768  24.577  29.960  13.991
56986W        W23769  22.583  15.659  12.900
56987W        W23770  26.604  35.759  11.252
56988W        W23771   4.636  22.139  11.882
56989W        W23772  15.038  15.809   0.520
56990W        W23773   8.534  28.987  13.407
56991W        W23774  35.945  18.017   1.555
56992W        W23775  21.297  23.522  13.515
56993W        W23776  18.566  17.915   4.002
56994W        W23777  19.585  19.101  10.679
56995W        W23778  32.662  35.798  12.068
56996W        W23779  36.314  11.882  12.975
56997W        W23780   9.321  37.159  11.979
56998W        W23781   4.368  20.714   1.188
56999W        W23782  26.511   2.295   1.199
57000W        W23783  19.630  42.977  13.070
57001W        W23784  34.101  41.949   1.426
57002W        W23785  33.179  16.775  12.827
57003W        W23786  27.642  29.418  14.919
57004W        W23787   1.309  19.580  14.960
57005W        W23788  40.901  10.584  10.728
57006W        W23789  16.615  21.432  11.286
57007W        W23790  18.606  30.243  11.089
57008W        W23791  36.568  26.730  12.062
57009W        W23792  11.279  25.718  13.684
57010W        W23793  10.233   4.917  12.107
57011W        W23794  44.583  12.334  10.548
57012W        W23795   0.064  11.214   3.236
57013W        W23796  24.718  41.093   0.012
57014W        W23797  32.085  24.502  13.398
57015W        W23798  27.230  11.834  13.588
57016W        W23799  38.287   1.398   4.817
57017W        W23800  21.325  32.528  10.376
57018W        W23801  32.887  27.626   1.859
57019W        W23802  42.232  33.005  12.551
57020W        W23803   3.202  17.535  12.643
57021W        W23804  40.936   6.341  13.049
57022W        W23805  13.820  31.502   1.687
57023W        W23806   8.099  18.839  13.579
57024W        W23807  15.571  20.240   2.323
57025W        W23808   5.754   6.916  12.070
57026W        W23809   9.653  24.134   4.610
57027W        W23810  43.509  40.529   3.310
57028W        W23811   6.770  21.533  10.899
57029W        W23812  22.499  26.105  12.516
57030W        W23813  32.889  31.326  14.020
57031W        W23814  38.070  10.560  12.953
57032W        W23815  23.198   4.357  12.540
57033W        W23816  33.386  36.303  11.937
57034W        W23817   3.758  21.988  13.601
57035W        W23818  19.710  25.584   0.877
57036W        W23819  34.550  24.169  14.376
57037W        W23820  15.365  23.880  13.095
57038W        W23821   9.885  19.859  12.320
57039W        W23822  36.939  44.302   2.432
57040W        W23823   6.415  19.984  13.926
57041W        W23824   1.982  43.927   1.369
57042W        W23825  16.894  44.340   0.800
57043W        W23826  30.471   8.704   1.453
57044W        W23827  29.489  23.259  11.093
57045W        W23828  17.239  13.282  12.841
57046W        W23829  25.036  38.624  11.121
57047W        W23830  14.147   8.951  11.253
57048W        W23831  39.214  34.538  11.906
57049W        W23832  24.004   1.998   0.844
57050W        W23833  37.477  19.488  15.000
57051W        W23834  43.173  19.803   3.513
57052W        W23835   7.209  32.441   3.648
57053W        W23836  10.516  38.463   4.633
57054W        W23837  43.660  23.589   4.057
57055W        W23838  31.814  40.818   5.084
57056W        W23839  44.306  23.725  12.506
57057W        W23840   0.498  28.861   3.722
57058W        W23841  41.059  11.419   3.093
57059W        W23842  22.158  33.001  12.553
57060W        W23843  15.691  41.847   3.753
57061W        W23844   4.510   8.893  12.450
57062W        W23845  11.512  43.080  12.554
57063W        W23846   3.308  12.116   0.434
57064W        W23847  14.153  12.399  11.045
57065W        W23848   3.181  42.883   4.924
57066W        W23849   4.312   6.221   2.284
57067W        W23850  12.674   8.757   0.809
57068W        W23851  26.969  37.359  14.808
57069W        W23852  22.972   4.359   4.025
57070W        W23853  32.446  39.300   3.893
57071W        W23854  37.436  20.821   3.684
57072W        W23855  27.744  10.027   0.819
57073W        W23856  12.605  38.622  14.397
57074W        W23857  28.015  18.823   0.535
57075W        W23858   8.315  19.212  12.266
57076W        W23859  11.678  16.796  12.025
57077W        W23860   6.722  20.048  12.892
57078W        W23861  42.442   5.777   0.768
57079W        W23862  11.375  43.083   2.758
57080W        W23863  22.204  28.411   1.865
57081W        W23864  15.665  38.771   2.764
57082W        W23865  42.662   2.418   4.074
57083W        W23866  36.036  15.175  11.491
57084W        W23867   7.194   6.448   1.688
57085W        W23868  26.492  10.530   2.194
57086W        W23869   8.716  25.416   1.133
57087W        W23870  22.614  11.610   0.269
57088W        W23871  31.771  43.779   1.768
57089W        W23872  30.578  39.625   1.979
57090W        W23873  13.924  30.157  11.732
57091W        W23874  25.276  21.526   2.752
57092W        W23875  10.882  19.656  14.116
57093W        W23876  36.825  30.452   3.265
57094W        W23877  13.368  24.730   3.779
57095W        W23878  29.517  11.935  10.254
57096W        W23879  34.518  15.388  12.804
57097W        W23880   9.766  15.017   4.749
57098W        W23881  28.237   9.294   3.241
57099W        W23882   5.038  13.806  13.937
57100W        W23883  17.291  41.941  14.789
57101W        W23884  37.236   2.998  10.776
57102W        W23885  29.618  35.116   4.201
57103W        W23886  12.926   6.856   5.098
57104W        W23887  39.461  26.281  13.209
57105W        W23888  11.761  37.809   0.232
57106W        W23889   0.024  37.059   4.175
57107W        W23890   9.897  31.459  14.894
57108W        W23891  30.633  29.329   4.779
57109W        W23892  39.115  25.759  14.702
57110W        W23893  38.368  27.637   0.447
57111W        W23894  34.624  22.468  14.677
57112W        W23895  34.871  22.949   3.224
57113W        W23896  19.562  44.268   4.239
57114W        W23897  42.029   6.196   3.270
57115W        W23898  21.442  26.544  11.216
57116W        W23899  19.794  14.017   3.645
57117W        W23900  12.274  41.889   4.800
57118W        W23901  27.620  18.154   3.689
57119W        W23902  29.450  24.242   3.560
57120W        W23903  23.935  24.726   0.864
57121W        W23904   8.720  19.147  12.593
57122W        W23905  17.561  39.848  13.436
57123W        W23906  15.301  36.522   3.027
57124W        W23907  42.964  12.233   2.670
57125W        W23908   8.781  20.505   2.698
57126W        W23909  39.657  40.525   4.050
57127W        W23910  30.120  12.054   2.913
57128W        W23911  21.734  22.469   3.101
57129W        W23912  28.539  35.361   4.495
57130W        W23913   9.176  26.121  11.192
57131W        W23914  31.574  17.884   4.134
57132W        W23915  17.580  12.866  12.743
57133W        W23916  27.914  25.711   9.922
57134W        W23917   8.269  27.045   3.248
57135W        W23918   8.108  21.359  11.043
57136W        W23919  15.604   1.575  11.718
57137W        W23920  25.672  37.573   1.271
57138W        W23921  38.585  30.524   1.238
57139W        W23922  19.268   6.450  12.578
57140W        W23923  21.062  14.171   4.985
57141W        W23924  43.723   2.801  14.096
57142W        W23925  21.142  23.335   0.743
57143W        W23926  11.876  34.017  11.117
57144W        W23927  35.602   5.820   4.471
57145W        W23928  38.924   2.925   4.945
57146W        W23929  13.507  20.711   2.766
57147W        W23930  17.463  11.682  12.850
57148W        W23931  26.656  12.113  13.905
57149W        W23932  34.054  19.121   4.259
57150W        W23933  39.194  16.427   0.332
57151W        W23934  15.147   5.203  12.094
57152W        W23935  29.243  32.119   4.082
57153W        W23936  17.824   8.188  14.531
57154W        W23937  41.762  40.909  10.618
57155W        W23938   3.364   8.727  13.084
57156W        W23939  43.998  24.167   4.583
57157W        W23940  35.282  42.310   0.808
57158W        W23941  14.735  44.547  10.356
57159W        W23942   2.146  33.559   4.801
57160W        W23943  31.880   0.195   2.541
57161W        W23944  29.035  28.663  12.554
57162W        W23945   9.868  38.661   0.664
57163W        W23946  42.825  19.584  12.164
57164W        W23947  11.040  40.427   0.450
57165W        W23948  24.762   4.761   3.602
57166W        W23949  26.817  14.594   4.026
57167W        W23950  37.227  18.553   2.328
57168W        W23951   0.936  31.350  13.163
57169W        W23952  12.434  27.289   2.827
57170W        W23953  10.809  31.046   2.856
57171W        W23954  41.512   9.651  13.116
57172W        W23955  23.288  36.348  11.552
57173W        W23956  32.559  27.488   3.869
57174W        W23957   9.089  24.984   3.566
57175W        W23958  17.641  15.484   2.050
57176W        W23959  35.005  39.899   0.381
57177W        W23960  23.486  26.363  12.725
57178W        W23961  36.426  40.591  12.084
57179W        W23962  24.018  32.643   4.889
57180W        W23963  39.317  27.127  10.490
57181W        W23964   9.746  15.652  10.717
57182W        W23965   2.270  18.294  14.366
57183W        W23966  14.257  16.037  13.376
57184W        W23967  39.909  11.262   2.742
57185W        W23968   7.185  22.054  13.078
57186W        W23969   5.387  19.236  12.618
57187W        W23970  16.579  25.390  13.508
57188W        W23971  32.609   5.249  13.309
57189W        W23972  11.312  41.442   3.959
57190W        W23973  30.399  33.423   2.355
57191W        W23974   4.750  12.696  13.378
57192W        W23975  32.564  44.394  11.986
57193W        W23976   3.330  29.009  11.830
57194W        W23977   7.542  40.864  12.047
57195W        W23978  29.117  21.480   4.660
57196W        W23979  16.203  11.223  13.016
57197W        W23980   7.732  32.470   2.718
57198W        W23981  34.135   6.713   3.561
57199W        W23982  28.426   9.178   1.830
57200W        W23983  15.774  30.489  14.412
57201W        W23984  25.465   7.434   2.124
57202W        W23985  13.734  38.457  12.130
57203W        W23986  23.668  24.234   2.203
57204W        W23987  33.926  20.614  11.540
57205W        W23988   9.616   2.534  12.263
57206W        W23989  30.484  36.827   2.671
57207W        W23990  43.400  36.842   4.666
57208W        W23991  17.579  44.544  11.498
57209W        W23992  16.877  35.812  14.413
57210W        W23993  18.724  37.629   0.936
57211W        W23994  19.205  40.787   1.252
57212W        W23995  43.695  28.282  11.951
57213W        W23996   1.309  15.093   4.714
57214W        W23997  17.070  27.558  12.080
57215W        W23998  37.238   5.526   0.251
57216W        W23999  17.726  12.647  12.259
57217W        W24000   7.234  10.856   2.096
57218W        W24001  32.142   2.782   4.554
57219W        W24002  14.359   6.687   3.171
57220W        W24003  31.867  32.923   4.387
57221W        W24004  41.163   1.508   0.217
57222W        W24005  27.545  36.280  13.445
57223W        W24006  26.402  41.394   0.944
57224W        W24007   3.290   9.693  12.987
57225W        W24008  41.566  22.194   0.901
57226W        W24009  30.448  27.127  13.060
57227W        W24010  25.373  23.727   2.834
57228W        W24011  44.659   5.981   3.782
57229W        W24012  19.591  28.091   4.520
57230W        W24013  37.089  26.618   3.297
57231W        W24014  42.378  20.618   0.883
57232W        W24015  13.892   6.508  13.521
57233W        W24016  22.751  31.036   3.134
57234W        W24017  24.467  31.235   4.227
57235W        W24018  38.695  39.428   3.570
57236W        W24019   9.955  11.119  14.298
57237W        W24020  14.896  38.840  12.007
57238W        W24021  39.014  33.832  12.713
57239W        W24022   5.778  24.277  10.779
57240W        W24023   4.880   0.910   3.131
57241W        W24024   0.809   1.454  10.894
57242W        W24025  33.356  32.626   1.806
57243W        W24026  30.964   3.385  12.478
57244W        W24027  42.760   5.448  13.556
57245W        W24028  10.649  35.882   0.321
57246W        W24029  31.489  34.438   4.534
57247W        W24030   3.439  42.381   4.346
57248W        W24031   9.049  27.024  10.687
57249W        W24032  40.034  43.008  14.337
57250W        W24033  43.313  39.429  14.794
57251W        W24034   3.196  11.973   1.478
57252W        W24035  42.530  43.329  14.022
57253W        W24036  16.227  44.220   4.962
57254W        W24037  34.917  31.437   1.276
57255W        W24038  11.185  10.289  14.608
57256W        W24039  36.400   1.004  12.476
57257W        W24040  17.644  21.272   4.465
57258W        W24041  19.743  12.590   0.744
57259W        W24042   3.315   5.237   0.006
57260W        W24043   0.481  20.750  12.510
57261W        W24044  33.595  10.264  14.032
57262W        W24045  25.000  41.063   2.631
57263W        W24046  11.702   5.976  12.950
57264W        W24047  30.365  14.159   3.226
57265W        W24048  17.024  27.545  13.379
57266W        W24049  37.533  26.640   1.379
57267W        W24050  30.655  28.072  12.465
57268W        W24051  14.441  17.129  12.362
57269W        W24052  28.510  25.090   1.884
57270W        W24053  35.496  12.119   3.236
57271W        W24054  37.137  17.639  13.884
57272W        W24055   3.959  10.173  13.654
57273W        W24056  15.677  18.229  14.555
57274W        W24057   7.986   4.904  14.271
57275W        W24058  33.639  37.510  10.662
57276W        W24059  44.048  12.801   0.058
57277W        W24060  34.114  39.569  12.058
57278W        W24061  29.127   9.784   2.647
57279W        W24062  44.487  17.314   4.119
57280W        W24063  32.567   6.121  12.000
57281W        W24064  31.702  30.432   3.898
57282W        W24065  35.032   9.362   4.580
57283W        W24066  21.284  41.576  14.849
57284W        W24067  31.804   6.681   9.853
57285W        W24068  23.112  17.960   0.226
57286W        W24069  41.863   5.447  11.376
57287W        W24070   7.403  32.510   0.905
57288W        W24071  40.367  26.522  14.411
57289W        W24072   5.856  35.531  10.892
57290W        W24073  17.231   0.472   2.220
57291W        W24074  42.251  22.721   2.351
57292W        W24075  33.411   5.391  13.543
57293W        W24076  12.068  13.546  11.945
57294W        W24077   1.255  26.169   0.980
57295W        W24078  36.805  44.168   1.445
57296W        W24079  19.178   1.495  10.503
57297W        W24080  12.152  37.555   3.345
57298W        W24081  26.544  43.418   4.544
57299W        W24082   9.857  36.576   4.118
57300W        W24083  29.190  39.097  12.202
57301W        W24084   3.973  28.463  14.942
57302W        W24085  35.435  13.193  10.915
57303W        W24086  39.064  40.387  10.148
57304W        W24087  44.811  34.048  12.487
57305W        W24088   8.219  27.467  13.535
57306W        W24089  27.694  18.048  14.116
57307W        W24090   0.883  13.360  13.147
57308W        W24091  43.587  32.118  10.593
57309W        W24092   3.048  23.809   2.741
57310W        W24093  12.168  26.730  14.427
57311W        W24094  26.250  33.853  14.925
57312W        W24095  30.668   6.727  13.086
57313W        W24096   0.535  39.567  10.992
57314W        W24097  17.037   2.248  14.914
57315W        W24098   0.468  37.585  11.876
57316W        W24099  27.383  19.477   1.294
57317W        W24100  35.097  40.986  13.325
57318W        W24101  20.476  27.588   0.438
57319W        W24102  28.134   2.510  14.833
57320W        W24103  34.673  23.975  14.858
57321W        W24104  18.651  25.969  11.280
57322W        W24105   3.195   2.904   3.186
57323W        W24106  13.970  16.703   0.301
57324W        W24107   8.239  20.105   3.348
57325W        W24108  23.284  21.547   2.729
57326W        W24109  26.128  43.011  13.977
57327W        W24110  33.059  31.965   2.256
57328W        W24111  15.823  21.017  13.465
57329W        W24112   3.230   1.934   3.706
57330W        W24113  32.463  18.717  10.475
57331W        W24114  38.549   8.382  14.964
57332W        W24115  34.845  42.841   1.739
57333W        W24116  26.880   4.957   0.800
57334W        W24117  42.495   1.780  10.423
57335W        W24118  12.689  23.611  13.517
57336W        W24119  34.070  16.611  14.482
57337W        W24120  33.137   8.800  11.891
57338W        W24121  23.061  15.251  14.073
57339W        W24122  11.774  29.469  14.123
57340W        W24123  24.462  22.335   3.725
57341W        W24124  15.377   6.330  11.344
57342W        W24125   6.739  41.447   2.757
57343W        W24126   1.185   4.869   2.319
57344W        W24127  21.724  10.083   3.749
57345W        W24128  17.899  12.241   4.957
57346W        W24129  37.497  16.057  14.423
57347W        W24130  44.750  43.405   1.927
57348W        W24131  18.220  35.095  14.998
57349W        W24132  14.148  21.776   4.416
57350W        W24133  22.813  29.148  12.422
57351W        W24134  26.596   9.825  11.697
57352W        W24135  38.862  22.003  14.436
57353W        W24136  25.754  26.050   0.411
57354W        W24137  31.314  21.018  14.017
57355W        W24138  43.900  26.550   1.506
57356W        W24139  42.363   9.874  14.091
57357W        W24140   5.923  14.255  11.094
57358W        W24141  27.374  25.983  12.474
57359W        W24142  14.698  25.005   3.656
57360W        W24143  30.969  42.816   4.162
57361W        W24144   6.266  44.998  10.933
57362W        W24145  35.914  33.842   2.455
57363W        W24146  26.950   6.927  14.025
57364W        W24147  16.666  20.261  10.537
57365W        W24148  25.041  34.869   0.835
57366W        W24149  13.909  35.988   2.381
57367W        W24150  29.019  15.975  13.028
57368W        W24151  21.395  32.519   4.742
57369W        W24152  34.873  36.268   1.752
57370W        W24153  23.503  35.583   1.814
57371W        W24154  39.981   4.866  12.810
57372W        W24155  34.086  29.978   3.966
57373W        W24156  14.133  32.080  14.989
57374W        W24157  22.492   0.122  14.968
57375W        W24158  27.459  20.168  11.950
57376W        W24159  35.526   5.402  10.782
57377W        W24160  44.264  24.048   0.398
57378W        W24161  42.384  11.459   4.608
57379W        W24162  33.371   7.534  13.033
57380W        W24163  25.522  17.195   0.471
57381W        W24164  22.298   7.783   4.654
57382W        W24165  24.748   5.832   1.697
57383W        W24166  32.140   7.275  11.658
57384W        W24167  17.771  18.769  12.419
57385W        W24168  12.176  36.670  12.496
57386W        W24169  15.791  41.039   5.007
57387W        W24170  20.859  10.813  14.748
57388W        W24171  22.248  43.577   4.061
57389W        W24172  43.835  33.450  10.657
57390W        W24173  10.780   9.717   1.312
57391W        W24174   9.697  40.508   1.223
57392W        W24175  10.649  22.037   1.928
57393W        W24176   1.133  33.206   3.855
57394W        W24177   0.842  34.162   1.925
57395W        W24178  39.425  17.219  11.595
57396W        W24179  40.282  39.923  13.481
57397W        W24180  41.948  26.597   4.139
57398W        W24181  10.070   2.592   0.922
57399W        W24182  27.141   1.230  10.801
57400W        W24183  30.821  32.556  13.007
57401W        W24184  42.382  25.706   1.661
57402W        W24185  37.390  24.801   9.992
57403W        W24186  38.775   1.977  11.158
57404W        W24187  10.214   2.131   0.334
57405W        W24188  41.235   1.601  13.816
57406W        W24189  31.863  39.127   1.685
57407W        W24190   8.517  20.055  13.468
57408W        W24191   1.401   9.607   2.463
57409W        W24192  40.232  25.256  13.906
57410W        W24193  19.957   0.191   2.752
57411W        W24194  36.975   4.771   1.135
57412W        W24195   8.663  42.941  14.237
57413W        W24196   8.009  29.007  13.475
57414W        W24197   8.171  15.256  10.649
57415W        W24198  30.970  41.824   4.063
57416W        W24199  41.122   0.607  11.159
57417W        W24200  39.240  44.432   2.284
57418W        W24201  39.662  19.572   3.507
57419W        W24202  34.979   1.913   2.833
57420W        W24203   0.329   0.388  12.584
57421W        W24204  13.047  12.763  11.569
57422W        W24205  29.259  11.597   1.214
57423W        W24206  35.448  19.311   1.889
57424W        W24207   5.434   7.409   0.011
57425W        W24208  33.502  23.096   0.352
57426W        W24209  25.171   6.660   2.200
57427W        W24210  40.440  27.146  10.809
57428W        W24211  18.220  44.251   1.228
57429W        W24212  27.997  29.394   4.465
57430W        W24213   6.881  33.958  13.466
57431W        W24214   7.206  14.171   2.583
57432W        W24215   9.295  20.007  12.421
57433W        W24216  17.973   9.205  11.673
57434W        W24217  39.790  27.620  13.578
57435W        W24218  40.230  43.820   4.656
57436W        W24219  15.101  40.305   2.286
57437W        W24220   0.603  34.849   0.363
57438W        W24221  14.603  41.234   3.283
57439W        W24222  10.127  26.037  14.973
57440W        W24223   5.767  25.171   4.798
57441W        W24224  21.016  11.723   1.659
57442W        W24225  26.118  23.080  10.399
57443W        W24226  30.634  22.224  12.494
57444W        W24227  26.506   9.945  14.549
57445W        W24228  29.418  20.582   4.103
57446W        W24229  17.230  25.154  14.840
57447W        W24230   9.094  41.859   1.723
57448W        W24231  40.827  24.725  13.066
57449W        W24232  21.361  17.504  12.204
57450W        W24233   9.682  20.259   4.567
57451W        W24234  26.485  13.968   4.584
57452W        W24235  31.859   9.347   1.485
57453W        W24236  27.117  36.544   2.138
57454W        W24237  14.100  18.257  11.401
57455W        W24238  15.206  21.195  11.920
57456W        W24239  11.123  44.141  13.912
57457W        W24240  12.109  43.417  12.552
57458W        W24241  19.795  11.037  12.675
57459W        W24242  24.493   7.775   1.968
57460W        W24243   6.927  36.942   4.472
57461W        W24244   4.352   5.418  12.893
57462W        W24245  36.951  23.219   2.038
57463W        W24246  34.179  42.707  12.912
57464W        W24247  12.872  16.849  10.879
57465W        W24248  15.835  40.842  13.572
57466W        W24249  35.344  27.855   4.171
57467W        W24250  35.073  26.613  10.716
57468W        W24251   4.921  17.208   2.827
57469W        W24252  33.086   3.520   3.319
57470W        W24253  20.308  38.774  10.913
57471W        W24254  13.120   2.245  10.670
57472W        W24255  26.731  16.880  13.332
57473W        W24256  36.477  23.178   0.482
57474W        W24257  16.328  26.673   9.923
57475W        W24258  43.274  36.771   3.142
57476W        W24259  20.116  10.222   3.882
57477W        W24260  24.641  32.513   2.828
57478W        W24261  38.895  43.984  12.365
57479W        W24262  24.729  12.805  13.914
57480W        W24263  23.053   7.285   3.581
57481W        W24264   5.296   7.952  11.444
57482W        W24265  27.037  26.707   3.646
57483W        W24266  28.038  34.000  11.049
57484W        W24267   2.812  19.542  12.062
57485W        W24268  43.302  24.043  10.790
57486W        W24269  17.727   6.679  11.152
57487W        W24270  21.196  20.395   4.108
57488W        W24271   7.719  17.211  14.768
57489W        W24272  38.575  42.876  14.311
57490W        W24273  35.631   6.677   1.334
57491W        W24274  35.943  18.211  11.281
57492W        W24275  41.605  16.701   3.404
57493W        W24276   1.178  28.667  14.349
57494W        W24277  31.998  32.760   3.434
57495W        W24278  40.599  36.809   2.611
57496W        W24279  27.472   6.146   1.848
57497W        W24280  24.743  14.709  10.947
57498W        W24281  16.034  22.596  11.698
57499W        W24282  31.124   7.349  11.615
57500W        W24283  27.891   6.238  10.739
57501W        W24284  21.677  12.373   3.591
57502W        W24285  26.245  19.175   1.217
57503W        W24286  41.055  24.464  14.932
57504W        W24287  25.609  33.439   0.438
57505W        W24288  10.843  24.762   4.658
57506W        W24289  17.091   6.352  13.426
57507W        W24290  14.536   1.731  10.706
57508W        W24291   7.018   4.431   0.462
57509W        W24292  44.779  12.330  12.956
57510W        W24293  35.915  37.394  12.947
57511W        W24294  14.572   4.231   0.822
57512W        W24295  17.053  25.633  14.972
57513W        W24296   1.050  25.361   4.817
57514W        W24297   5.525  39.147  13.233
57515W        W24298   7.667  27.225  14.070
57516W        W24299   8.720  24.087   1.623
57517W        W24300  18.640  43.183   1.316
57518W        W24301  18.350  30.993  13.312
57519W        W24302  19.144  37.090  11.249
57520W        W24303  36.092   4.997  12.129
57521W        W24304   3.217  26.530   3.800
57522W        W24305   2.470  12.294   2.114
57523W        W24306   7.878  32.165  13.090
57524W        W24307  12.124  39.005  10.899
57525W        W24308  17.005  18.285  10.236
57526W        W24309  18.317  11.029   3.698
57527W        W24310  40.555  23.989  10.601
57528W        W24311   7.455   1.267   1.467
57529W        W24312  38.871  11.625  14.992
57530W        W24313  41.051  32.926   2.682
57531W        W24314  26.815   3.800   3.042
57532W        W24315  44.663   4.452  10.754
57533W        W24316  38.479  26.542  14.350
57534W        W24317   2.196  29.873  12.974
57535W        W24318  33.912  12.073   0.356
57536W        W24319  15.498  16.638   0.718
57537W        W24320  22.303  30.033   2.676
57538W        W24321   2.784   6.112   4.656
57539W        W24322  13.335  10.542  14.084
57540W        W24323   6.586  23.747   3.190
57541W        W24324  39.429  38.992   4.720
57542W        W24325  24.154  11.326   3.383
57543W        W24326   2.759  41.399   4.204
57544W        W24327  38.794  20.574   2.166
57545W        W24328  21.789  18.484  13.811
57546W        W24329  25.123  13.309  11.544
57547W        W24330  21.738  31.080   2.204
57548W        W24331   2.464  29.882  14.341
57549W        W24332  38.621  25.893  11.156
57550W        W24333  40.237  27.028  11.701
57551W        W24334  25.110  27.971   5.218
57552W        W24335   3.278  20.583   2.799
57553W        W24336  36.438  20.190   5.166
57554W        W24337  37.290  44.307   3.702
57555W        W24338   7.771   4.462  10.799
57556W        W24339  28.942  44.154  11.906
57557W        W24340   7.738   5.024   4.449
57558W        W24341  32.220  44.292  11.282
57559W        W24342  42.306  35.532   3.286
57560W        W24343  33.000   6.513  10.985
57561W        W24344  40.545  17.529   4.277
57562W        W24345  34.633  27.997  12.464
57563W        W24346   6.623  31.422   2.283
57564W        W24347  35.190   8.342   2.558
57565W        W24348  36.978   7.086   0.931
57566W        W24349  12.473   9.619   3.492
57567W        W24350  15.386   5.551  12.398
57568W        W24351  10.751  15.693  14.411
57569W        W24352  16.345  29.939   3.072
57570W        W24353  24.334  21.109   9.950
57571W        W24354  20.827  12.734   3.154
57572W        W24355   0.797  38.806  11.221
57573W        W24356  43.242  43.469   1.717
57574W        W24357  20.468  16.344   3.493
57575W        W24358   5.607  14.135  12.887
57576W        W24359   3.186   4.361  13.085
57577W        W24360  28.595  21.625  11.668
57578W        W24361  27.868   3.042   1.072
57579W        W24362   1.410  23.074   4.091
57580W        W24363  12.469  34.029  12.502
57581W        W24364  14.712   5.374   0.012
57582W        W24365  34.404  13.844   4.067
57583W        W24366  24.925  36.068   0.338
57584W        W24367  35.478  41.105  12.586
57585W        W24368  12.266  11.701   4.983
57586W        W24369   2.601  16.211   1.942
57587W        W24370  30.114  13.264   0.459
57588W        W24371  17.193  41.965  11.947
57589W        W24372  29.070   2.304  11.080
57590W        W24373  43.691  38.653   4.411
57591W        W24374  39.897   8.786   1.932
57592W        W24375  44.268  20.154   1.325
57593W        W24376  36.918  26.420  10.633
57594W        W24377  24.058  30.628   3.191
57595W        W24378  31.800   0.698  14.374
57596W        W24379  14.566  14.462  11.007
57597W        W24380   0.791   5.662   2.457
57598W        W24381   0.173  13.638   3.122
57599W        W24382  34.784  31.085  11.485
57600W        W24383   1.220  17.089   3.669
57601W        W24384  40.489   7.160  13.455
57602W        W24385  16.597  25.818   3.257
57603W        W24386  36.486  12.075  12.421
57604W        W24387   6.657  35.907  14.380
57605W        W24388   5.414  27.588  14.978
57606W        W24389  29.653  16.080   2.272
57607W        W24390  29.914  35.137   4.762
57608W        W24391   3.165   3.952  11.993
57609W        W24392  27.145   7.275   2.420
57610W        W24393  23.427  34.662  11.161
57611W        W24394   7.006  20.584  12.781
57612W        W24395  10.695  43.257   4.538
57613W        W24396   8.359  41.251  14.332
57614W        W24397   7.653   1.652  10.831
57615W        W24398  28.886   7.869  14.696
57616W        W24399  29.103   8.639  10.528
57617W        W24400   0.836  38.890  12.096
57618W        W24401   6.846  15.698  11.001
57619W        W24402  36.006  32.640   0.942
57620W        W24403  30.673  19.093   3.807
57621W        W24404  11.877  14.872  11.038
57622W        W24405  32.541  39.763   1.390
57623W        W24406  15.640  28.851   1.290
57624W        W24407  35.427  14.172   4.588
57625W        W24408  11.663   9.236  13.892
57626W        W24409   9.733  31.478  13.564
57627W        W24410  13.718  27.590   1.197
57628W        W24411   7.359  17.227  12.453
57629W        W24412  42.407  28.662  13.064
57630W        W24413  33.507  44.466  13.788
57631W        W24414  22.168   7.496  10.684
57632W        W24415  23.224  40.342   5.182
57633W        W24416  27.460  15.895   0.839
57634W        W24417  34.043  17.428  10.592
57635W        W24418   6.324  10.221   0.752
57636W        W24419  22.476   8.161  14.294
57637W        W24420  20.255  37.294   2.793
57638W        W24421  31.610  38.605  12.749
57639W        W24422  29.425  41.033  10.612
57640W        W24423  40.795  10.272  14.910
57641W        W24424  16.153  37.847   2.781
57642W        W24425   2.845  34.657  11.542
57643W        W24426  43.401  31.599  14.282
57644W        W24427   2.253   6.098   0.917
57645W        W24428  34.567  13.614  13.491
57646W        W24429  29.387   2.988  12.081
57647W        W24430  38.374  33.802  10.544
57648W        W24431  19.496  29.024  12.935
57649W        W24432  35.546  18.006  10.971
57650W        W24433  15.812  19.605  13.484
57651W        W24434  35.495  21.639   0.846
57652W        W24435  39.271  12.812   2.791
57653W        W24436  43.577  16.811   3.273
57654W        W24437   8.408   4.362   2.807
57655W        W24438  32.019   6.281   3.374
57656W        W24439   0.938  42.013  10.535
57657W        W24440  31.407   1.069  14.539
57658W        W24441  43.779  39.431  11.512
57659W        W24442  33.381  16.975   2.387
57660W        W24443  19.149   9.225  12.224
57661W        W24444   8.842  44.089  12.845
57662W        W24445  15.401  24.492   2.471
57663W        W24446   5.371  44.814   1.218
57664W        W24447  44.256  15.065  14.977
57665W        W24448   5.243  33.471  12.290
57666W        W24449  24.757  20.231  13.489
57667W        W24450  35.148  21.759  11.150
57668W        W24451  34.544   8.547  13.080
57669W        W24452  31.485  27.700   3.319
57670W        W24453  22.952  17.349  13.967
57671W        W24454   9.966  31.881   4.434
57672W        W24455  32.583  26.607   2.871
57673W        W24456  44.343  21.004  11.590
57674W        W24457  33.184   8.901  14.816
57675W        W24458  40.017  42.453  10.616
57676W        W24459  39.316  40.947  14.461
57677W        W24460  27.980  36.250  11.498
57678W        W24461  17.298  28.669  14.361
57679W        W24462  40.939  31.360   1.712
57680W        W24463  35.589  16.568  10.768
57681W        W24464  25.243  12.606   1.080
57682W        W24465   1.665   0.960   3.243
57683W        W24466  35.242   3.990   5.067
57684W        W24467  39.351  43.245  10.277
57685W        W24468   6.877  26.652   0.739
57686W        W24469  30.377  39.507   4.558
57687W        W24470   7.671  14.602   1.742
57688W        W24471  44.062  36.608   2.614
57689W        W24472  39.867  10.670  14.881
57690W        W24473   5.682  26.644   4.758
57691W        W24474  18.275  13.892   1.483
57692W        W24475   7.156  38.315   4.443
57693W        W24476   9.743  25.112  12.643
57694W        W24477  11.149  12.725   4.597
57695W        W24478  38.338  15.785   0.939
57696W        W24479  25.883  32.480   1.329
57697W        W24480  13.698  30.056   2.657
57698W        W24481  43.218  18.278   4.430
57699W        W24482  26.467   7.888  13.409
57700W        W24483  17.167  32.634   1.312
57701W        W24484  41.449   9.739   2.937
57702W        W24485   5.831  29.494   0.323
57703W        W24486  42.755   2.187  10.664
57704W        W24487  19.357  34.549   2.626
57705W        W24488   8.244  42.941  13.401
57706W        W24489   3.568  13.288   1.194
57707W        W24490  31.062   0.062   1.814
57708W        W24491  10.285   2.801   2.940
57709W        W24492   3.404  15.525   3.235
57710W        W24493  26.405  30.579   1.432
57711W        W24494   4.252  27.071  10.633
57712W        W24495  28.409  21.506   3.335
57713W        W24496  25.913  19.248   3.390
57714W        W24497   7.807  19.143  12.485
57715W        W24498  21.787  17.664  11.532
57716W        W24499  36.110   5.413  13.073
57717W        W24500  43.924  35.431   0.402
57718W        W24501  10.724  36.582  11.770
57719W        W24502  13.747   9.476   0.460
57720W        W24503  30.348   7.925   0.876
57721W        W24504  27.089  37.331   1.858
57722W        W24505  19.608  20.799  13.039
57723W        W24506   0.409  19.619  12.807
57724W        W24507  20.288  15.665   2.224
57725W        W24508   1.875   9.988  14.851
57726W        W24509  26.147  11.971  12.439
57727W        W24510  18.705  35.350   2.646
57728W        W24511  10.174  39.853   0.508
57729W        W24512   7.318  16.579  14.882
57730W        W24513  14.817   6.210   3.912
57731W        W24514   3.893   1.247   1.769
57732W        W24515  12.760   1.666  12.523
57733W        W24516  40.587  18.600  12.867
57734W        W24517  16.992  10.762  13.056
57735W        W24518   2.997  18.248  11.240
57736W        W24519  37.305  40.258  11.065
57737W        W24520   7.876   1.828  14.481
57738W        W24521  37.950  10.763   3.572
57739W        W24522   0.350  28.317  13.074
57740W        W24523  41.395   4.222   1.206
57741W        W24524  35.945  35.575   2.682
57742W        W24525  38.957   5.846   2.392
57743W        W24526  13.707  11.255   0.048
57744W        W24527   5.857  25.116   3.604
57745W        W24528  10.060  31.659   1.225
57746W        W24529  13.643  42.637  14.983
57747W        W24530  20.992  17.618   3.769
57748W        W24531  13.845  23.965   4.084
57749W        W24532  40.846  21.931  12.112
57750W        W24533  21.111   8.627  14.749
57751W        W24534   5.655  39.426   0.326
57752W        W24535  44.833  26.999   4.206
57753W        W24536  15.862  12.926   3.746
57754W        W24537   1.360  20.983  14.470
57755W        W24538   2.739  26.047   1.140
57756W        W24539  19.735  37.836  10.582
57757W        W24540   3.400  15.891   3.679
57758W        W24541   2.664  17.973   1.232
57759W        W24542   7.629  43.670   2.269
57760W        W24543  16.325  43.947   0.345
57761W        W24544  12.789  42.764   4.580
57762W        W24545  34.243  35.098   2.438
57763W        W24546  16.241   1.776  13.710
57764W        W24547  43.480   5.412  10.668
57765W        W24548   7.457   9.839   2.882
57766W        W24549  29.455   8.039   2.827
57767W        W24550  37.240  13.314  14.406
57768W        W24551  33.938   8.823  12.351
57769W        W24552   2.458  36.257   0.784
57770W        W24553  23.013  26.883  12.065
57771W        W24554  29.590  12.870  13.379
57772W        W24555  35.534  29.471   3.339
57773W        W24556   5.345  40.273  11.137
57774W        W24557  20.470   0.914   5.569
57775W        W24558   9.980  26.750  13.328
57776W        W24559  22.650  34.894   1.387
57777W        W24560   5.359   5.743  10.625
57778W        W24561   6.780  43.395  13.271
57779W        W24562  20.166  30.859  12.441
57780W        W24563  35.631  22.603  11.655
57781W        W24564  14.501  22.641   4.458
57782W        W24565   5.438  43.022  13.680
57783W        W24566  43.486  39.016  11.606
57784W        W24567  43.901   8.570  10.589
57785W        W24568  20.619  40.448   3.614
57786W        W24569  20.606   2.387  14.328
57787W        W24570  41.235   8.729   2.365
57788W        W24571   7.813  11.297  11.657
57789W        W24572  26.885  22.730   2.819
57790W        W24573  39.346  18.983   0.173
57791W        W24574   9.848  20.610  12.795
57792W        W24575  12.291  40.412   0.947
57793W        W24576   8.902  12.568   3.299
57794W        W24577  36.571   5.970  10.798
57795W        W24578  19.318   8.098   4.103
57796W        W24579   5.665  39.970  14.058
57797W        W24580   0.330  43.349  12.834
57798W        W24581  44.944   8.371  13.858
57799W        W24582   0.046  24.622  13.987
57800W        W24583  16.654  27.647   0.027
57801W        W24584  25.896  15.690  10.550
57802W        W24585  22.078  27.028   1.795
57803W        W24586  42.661  30.906  13.414
57804W        W24587  23.089  28.491  13.413
57805W        W24588  32.044  29.270   0.807
57806W        W24589  12.265   9.980   1.428
57807W        W24590  27.884  17.084  10.659
57808W        W24591   9.891  31.419  12.543
57809W        W24592   9.496  34.124   0.350
57810W        W24593   5.150  31.589  11.758
57811W        W24594  37.954  40.542   3.407
57812W        W24595   4.448   6.287   0.899
57813W        W24596  36.320   4.409  11.344
57814W        W24597   1.729  37.771   0.502
57815W        W24598  31.909  27.299   0.933
57816W        W24599  36.965  20.618  13.354
57817W        W24600  26.117  42.703   0.375
57818W        W24601  42.528   4.817  14.874
57819W        W24602  14.151  21.332  11.100
57820W        W24603  42.509  31.131  11.658
57821W        W24604  39.329   9.204  11.172
57822W        W24605  15.648  30.205  11.138
57823W        W24606  13.306  31.468  12.520
57824W        W24607  27.323  13.132  12.020
57825W        W24608   4.368  13.954   2.866
57826W        W24609  42.898  16.581   1.374
57827W        W24610   7.829  40.642   1.742
57828W        W24611  14.046  16.599   0.843
57829W        W24612  13.651  32.271  11.540
57830W        W24613  34.152  23.238  10.675
57831W        W24614  17.748  42.335   4.547
57832W        W24615   8.717   3.804   1.170
57833W        W24616  34.686  28.551  12.446
57834W        W24617  30.499  29.685   0.859
57835W        W24618  17.144  14.321   0.971
57836W        W24619  21.977   7.148  11.056
57837W        W24620  36.373   0.418  10.658
57838W        W24621   7.448  13.970   3.023
57839W        W24622  31.537  38.253   2.807
57840W        W24623   2.379  38.448  10.707
57841W        W24624  30.733  35.354   2.782
57842W        W24625  40.047  16.202  11.177
57843W        W24626  44.425  13.672  14.804
57844W        W24627  32.397   9.727  11.729
57845W        W24628  39.831  40.413   2.261
57846W        W24629  13.182  15.128   2.369
57847W        W24630  21.221  35.448  14.868
57848W        W24631   6.712   2.928   3.704
57849W        W24632  11.792  36.032   4.773
57850W        W24633  15.910   1.054   5.165
57851W        W24634  27.925  18.668   3.662
57852W        W24635  14.768  18.901   4.358
57853W        W24636   6.254  14.204   4.991
57854W        W24637  43.935   9.959   1.476
57855W        W24638  23.947  14.090  12.961
57856W        W24639  18.469  30.992  10.696
57857W        W24640   8.434  29.502  13.377
57858W        W24641  43.564  15.550  11.683
57859W        W24642   1.526  28.215   0.677
57860W        W24643  29.612  41.479   5.469
57861W        W24644   1.844  20.285  10.812
57862W        W24645  28.882  24.757  11.118
57863W        W24646  32.005   2.549  12.288
57864W        W24647   5.304  21.742   4.526
57865W        W24648  33.673  38.837  11.666
57866W        W24649  34.827  26.740  11.161
57867W        W24650   8.744  12.860   0.283
57868W        W24651   5.746  28.612   3.774
57869W        W24652  39.330  30.069   4.704
57870W        W24653  25.226  33.494   3.076
57871W        W24654  19.492   1.431  11.612
57872W        W24655  27.595  20.005   3.923
57873W        W24656  43.006  27.870  13.447
57874W        W24657  20.254  25.903  12.015
57875W        W24658  39.926  19.563  12.356
57876W        W24659  20.122  37.572   0.785
57877W        W24660  18.765  15.121   2.767
57878W        W24661  36.104   0.328   1.018
57879W        W24662   6.715  21.452  10.400
57880W        W24663  44.318  36.924  14.906
57881W        W24664  42.909  28.197   4.720
57882W        W24665  44.506  22.778  10.931
57883W        W24666   5.799  27.017  12.983
57884W        W24667  22.140  31.670  12.619
57885W        W24668  32.261  37.072   2.769
57886W        W24669  32.185  12.370  12.532
57887W        W24670  12.423  40.468   4.615
57888W        W24671  31.030   6.144   3.262
57889W        W24672   1.193  26.468  11.691
57890W        W24673  43.827   7.257   2.846
57891W        W24674   6.693  35.106  13.024
57892W        W24675  38.484  29.283   3.229
57893W        W24676  39.098  42.886   4.606
57894W        W24677  33.456  22.959  14.836
57895W        W24678  34.497  40.935   2.284
57896W        W24679  38.384  12.601  14.313
57897W        W24680  36.109  26.851   1.442
57898W        W24681  34.953  34.041   4.671
57899W        W24682  23.207  13.493   2.902
57900W        W24683   8.760  18.385   1.889
57901W        W24684  29.185  35.435  11.849
57902W        W24685  34.565  19.362   4.952
57903W        W24686  43.931  19.559  12.934
57904W        W24687  28.099  11.259   0.002
57905W        W24688  15.888   0.771   3.702
57906W        W24689  38.157   9.184  13.133
57907W        W24690  43.058  20.784   1.483
57908W        W24691  33.046  12.765  14.258
57909W        W24692  17.360  13.229  14.232
57910W        W24693   9.037  40.892  11.987
57911W        W24694  27.257  10.615  12.227
57912W        W24695  35.154  15.069  12.433
57913W        W24696  39.253  36.521  14.080
57914W        W24697  37.284  24.563   2.207
57915W        W24698  12.251  44.937  11.466
57916W        W24699  25.288   1.024  12.575
57917W        W24700   6.559  14.802  13.270
57918W        W24701  20.260  14.719  12.490
57919W        W24702   8.529   1.909  10.792
57920W        W24703  10.296  38.464  12.736
57921W        W24704  35.134  20.556   3.875
57922W        W24705  29.527  10.218  11.091
57923W        W24706   7.784  33.298  14.208
57924W        W24707  20.255  25.955  11.070
57925W        W24708  25.729  18.659  14.100
57926W        W24709  22.120  16.941  12.991
57927W        W24710  31.043  36.254   4.837
57928W        W24711  12.972  19.608  13.083
57929W        W24712  19.316  18.136  11.761
57930W        W24713  36.105  31.885  10.772
57931W        W24714  20.660  11.754   0.369
57932W        W24715  13.009  20.506  13.366
57933W        W24716  25.158  41.708  10.202
57934W        W24717   3.011  30.334   0.615
57935W        W24718  26.464  36.498  10.537
57936W        W24719  13.928  37.109   0.158
57937W        W24720  23.501  15.123  14.501
57938W        W24721   6.969  11.883  10.728
57939W        W24722  35.092   2.276   0.011
57940W        W24723  31.604   3.432   2.677
57941W        W24724   2.466  43.429  12.069
57942W        W24725   3.821  31.977  11.540
57943W        W24726  25.859  24.233  11.556
57944W        W24727   7.656  27.715  13.223
57945W        W24728   0.558  20.737  14.455
57946W        W24729  33.115  33.364   1.235
57947W        W24730  14.604   4.432  12.508
57948W        W24731  42.813   6.042   4.619
57949W        W24732  23.186  30.716  11.241
57950W        W24733  42.387  43.885  10.718
57951W        W24734  38.800  34.598  11.575
57952W        W24735  22.684  14.561  10.575
57953W        W24736  43.671  10.742  13.590
57954W        W24737  28.537   3.520   1.004
57955W        W24738  12.059   6.358  12.794
57956W        W24739  19.259  20.718  13.511
57957W        W24740   4.209   9.366   4.005
57958W        W24741  22.842   5.151  12.163
57959W        W24742  15.132  36.362  11.865
57960W        W24743  32.555   1.817   0.788
57961W        W24744  10.098   3.313   0.291
57962W        W24745  10.062  22.847   0.394
57963W        W24746  21.792  16.598   2.789
57964W        W24747   7.338  27.479   3.204
57965W        W24748   5.286  23.579   3.675
57966W        W24749  29.892  11.169  10.786
57967W        W24750   1.441  18.054  14.887
57968W        W24751  14.890  43.367   2.256
57969W        W24752  44.216  37.561  12.070
57970W        W24753   7.151  22.814   1.738
57971W        W24754  34.964  43.804  12.773
57972W        W24755  23.682  12.774  10.543
57973W        W24756  39.758   3.210   3.596
57974W        W24757  38.615  20.331  13.329
57975W        W24758  20.521  20.030  13.971
57976W        W24759   1.755  24.977  12.055
57977W        W24760  20.264  34.972  11.938
57978W        W24761  10.727  24.413   1.298
57979W        W24762  32.626  12.587  12.753
57980W        W24763  44.145  35.486  14.899
57981W        W24764  38.903  15.861  14.207
57982W        W24765  25.257  29.691   9.886
57983W        W24766  44.620  15.579   3.724
57984W        W24767  16.189  13.865   3.866
57985W        W24768   6.603  42.919   1.950
57986W        W24769  35.334  16.681   1.416
57987W        W24770   0.161  28.110  14.900
57988W        W24771  27.193  25.145  13.510
57989W        W24772  14.512  11.931  13.858
57990W        W24773  25.505  16.075   2.320
57991W        W24774  34.529  30.890  11.082
57992W        W24775  29.183  16.654  12.176
57993W        W24776   2.406  36.521  12.750
57994W        W24777  17.542   1.954  14.871
57995W        W24778  23.909  34.492  14.868
57996W        W24779  33.646  27.566  13.041
57997W        W24780  40.923  27.603  12.027
57998W        W24781   9.618  14.364  12.059
57999W        W24782  38.604  39.195  11.990
58000W        W24783  22.581   6.128  14.868
58001W        W24784  12.395  33.910   2.838
58002W        W24785  39.967  18.771  14.591
58003W        W24786  31.437  35.510   2.218
58004W        W24787  17.326  19.244   4.125
58005W        W24788   0.036  24.105  11.228
58006W        W24789  20.673  42.828  14.971
58007W        W24790   1.189  41.002   4.540
58008W        W24791  18.259  32.557  12.587
58009W        W24792  30.104  36.626  14.495
58010W        W24793  11.683   2.244  10.610
58011W        W24794  43.881   1.839  12.638
58012W        W24795   1.291  20.303   4.139
58013W        W24796  25.909   3.729   4.110
58014W        W24797  18.873  43.417   0.231
58015W        W24798  28.508   5.774  13.898
58016W        W24799  12.213  24.202  12.400
58017W        W24800  33.139   2.243  12.774
58018W        W24801  33.100   6.334   5.294
58019W        W24802   6.947  23.650   4.054
58020W        W24803  33.111   4.446   3.674
58021W        W24804   5.244  31.579  13.287
58022W        W24805  30.967   0.456  11.564
58023W        W24806  41.311   7.870  12.143
58024W        W24807  22.775  15.691  10.575
58025W        W24808  23.643   1.831  14.527
58026W        W24809  34.722   7.848   0.496
58027W        W24810  24.091  44.807  13.579
58028W        W24811   2.001  35.818  11.704
58029W        W24812  28.724  18.743   1.200
58030W        W24813   9.205   1.333   3.698
58031W        W24814  18.341  19.665  12.427
58032W        W24815  40.506  34.509  12.411
58033W        W24816  32.903   8.271   4.562
58034W        W24817   1.832   9.192   4.488
58035W        W24818  44.949  28.498  12.543
58036W        W24819  35.763  13.266   4.941
58037W        W24820   8.394  22.564   4.597
58038W        W24821  18.501  22.559  10.263
58039W        W24822   2.406  16.205  13.065
58040W        W24823   2.394  13.685  10.421
58041W        W24824  44.008  26.629   3.225
58042W        W24825  30.010  38.820   1.963
58043W        W24826  20.009  35.132  10.694
58044W        W24827   8.459  37.813   0.868
58045W        W24828  41.198  19.417  13.106
58046W        W24829  43.903  42.874   3.191
58047W        W24830  20.348  38.954   0.897
58048W        W24831  15.053  10.634   0.850
58049W        W24832  20.785  36.566   1.906
58050W        W24833  43.329   6.639   2.756
58051W        W24834  16.604  26.970   4.777
58052W        W24835  21.630   1.034   0.484
58053W        W24836  22.553  35.268  13.882
58054W        W24837  36.933  14.638   4.315
58055W        W24838  15.367   0.756   3.331
58056W        W24839  37.492   9.272  12.471
58057W        W24840  11.813  28.723   1.885
58058W        W24841  30.039  42.924  13.822
58059W        W24842  24.200  14.348  14.344
58060W        W24843  38.705   6.024   0.366
58061W        W24844   4.801  17.772   2.774
58062W        W24845  15.286   2.866  11.399
58063W        W24846  21.951  18.809  13.353
58064W        W24847  14.735  11.219   3.852
58065W        W24848   6.569  11.189   2.495
58066W        W24849   7.297  24.189   0.928
58067W        W24850  16.112  35.055  13.417
58068W        W24851  13.104  14.608  13.815
58069W        W24852   6.332  21.767   1.622
58070W        W24853   1.075   6.257   2.221
58071W        W24854  25.946  31.873   2.358
58072W        W24855  32.413  12.756   3.654
58073W        W24856  14.038  41.794   1.374
58074W        W24857  18.344  26.207  14.165
58075W        W24858  12.303  25.522   2.941
58076W        W24859  33.164  27.097  12.531
58077W        W24860  34.856   0.619  12.530
58078W        W24861   6.221  23.362   4.653
58079W        W24862  19.796  22.291   3.303
58080W        W24863   6.198   0.795   1.852
58081W        W24864  24.197  43.230  10.902
58082W        W24865  31.363  22.514   1.664
58083W        W24866  25.024   9.787   3.255
58084W        W24867  10.936  38.799   3.682
58085W        W24868  33.561  12.548  14.248
58086W        W24869  13.643  17.075   3.682
58087W        W24870   1.040  10.368  13.576
58088W        W24871   9.392  23.519  12.044
58089W        W24872  36.607  30.473  15.000
58090W        W24873  28.604  25.704  12.852
58091W        W24874  10.122  38.926   1.459
58092W        W24875  34.971  38.134  14.771
58093W        W24876  10.643  17.067   3.556
58094W        W24877  44.967  34.930  12.015
58095W        W24878  28.216  33.747   4.597
58096W        W24879  23.195   7.346  11.581
58097W        W24880  35.240  15.006   0.367
58098W        W24881  10.192  19.736   1.306
58099W        W24882  31.451  28.728   3.428
58100W        W24883  33.089  22.155  10.391
58101W        W24884  10.423  27.021   2.822
58102W        W24885  29.704  13.213  14.081
58103W        W24886  32.313  41.815  14.819
58104W        W24887  28.055   3.523   1.219
58105W        W24888  30.363   8.106  12.793
58106W        W24889  44.217  18.140   2.316
58107W        W24890  22.061   9.111  12.873
58108W        W24891  25.644  20.107   1.253
58109W        W24892  29.107  12.639  14.251
58110W        W24893  14.563  18.266   3.248
58111W        W24894   9.095  32.092   1.344
58112W        W24895  22.684  36.282  14.002
58113W        W24896  11.282  27.373   4.201
58114W        W24897  12.121  12.696  13.094
58115W        W24898   0.124  10.857  11.175
58116W        W24899  27.810  14.229   5.049
58117W        W24900  39.507   5.236  13.764
58118W        W24901  38.091  20.128   2.882
58119W        W24902  13.604   6.899  14.448
58120W        W24903  35.398  23.952   0.302
58121W        W24904  10.771   1.796  14.524
58122W        W24905  33.538  15.361   3.641
58123W        W24906  26.198  38.087  11.809
58124W        W24907  11.077  15.198   2.051
58125W        W24908   7.354  44.860  12.571
58126W        W24909   9.082  28.836   2.829
58127W        W24910  23.242  37.887   1.074
58128W        W24911  25.859  12.228   0.472
58129W        W24912  25.459   6.580  13.871
58130W        W24913  27.152  11.062   3.124
58131W        W24914   7.287   1.713  13.043
58132W        W24915  31.436   9.239  14.847
58133W        W24916  41.019  38.000   2.084
58134W        W24917  41.331  37.899  11.049
58135W        W24918  39.772  39.873  12.517
58136W        W24919   6.198   2.812  13.840
58137W        W24920  38.491   4.826   1.386
58138W        W24921   7.674   0.920  12.570
58139W        W24922   7.428  18.656   0.862
58140W        W24923   9.160  39.901  13.883
58141W        W24924   8.471  24.499  14.771
58142W        W24925  10.237  40.408  14.271
58143W        W24926  42.504  31.236   1.379
58144W        W24927   5.739  39.382  11.310
58145W        W24928   9.828  16.706  10.438
58146W        W24929  39.516  13.262  11.580
58147W        W24930  18.094  30.019  10.824
58148W        W24931  10.292  16.096   0.888
58149W        W24932  28.222  28.920   2.776
58150W        W24933  41.536  11.551  12.363
58151W        W24934  37.507   6.742  12.903
58152W        W24935  38.920   9.399  11.983
58153W        W24936  44.066   7.098  12.578
58154W        W24937  21.712  29.836   1.620
58155W        W24938  30.783  33.189   3.118
58156W        W24939  19.218  24.996   1.967
58157W        W24940  22.017   6.925   4.164
58158W        W24941  10.175   8.347   2.686
58159W        W24942   3.399  12.263  11.887
58160W        W24943  19.823   9.394  12.043
58161W        W24944  25.088  24.689  12.916
58162W        W24945  14.159  34.025  11.895
58163W        W24946  37.073  14.262   2.987
58164W        W24947   0.794  18.789   0.864
58165W        W24948  40.356   0.760   0.766
58166W        W24949  12.802  29.466  14.479
58167W        W24950   9.374  15.308   1.164
58168W        W24951  22.662  26.422   1.164
58169W        W24952   9.558  11.309   2.583
58170W        W24953  21.640  29.601  13.092
58171W        W24954   3.136  43.955   3.630
58172W        W24955  11.825  21.114   1.827
58173W        W24956   1.815  21.006   3.975
58174W        W24957  12.909   2.807   2.765
58175W        W24958  28.965  33.288  11.111
58176W        W24959  13.150  30.616  11.532
58177W        W24960  31.147   6.922   0.289
58178W        W24961  44.394  41.428  14.560
58179W        W24962   1.405   5.008  14.345
58180W        W24963  29.561  43.009  12.169
58181W        W24964   8.723   8.397   0.163
58182W        W24965   2.191  14.528  11.038
58183W        W24966  17.618  25.775   3.222
58184W        W24967  36.146   5.270   2.027
58185W        W24968  19.804  42.600  11.549
58186W        W24969   6.920  44.058   4.539
58187W        W24970  21.476  36.447   0.367
58188W        W24971   2.776   3.376  14.471
58189W        W24972  32.096  32.595  11.502
58190W        W24973  34.456  34.450   0.541
58191W        W24974  23.123   4.964   3.143
58192W        W24975  39.602  35.756   3.621
58193W        W24976  12.236   7.255   5.351
58194W        W24977   1.874  43.035   0.332
58195W        W24978  39.897  40.082   3.783
58196W        W24979  11.340  35.083   2.780
58197W        W24980  26.140   0.788  12.127
58198W        W24981  31.499  28.402   3.842
58199W        W24982  44.558  30.176  12.452
58200W        W24983  44.998  38.510  12.662
58201W        W24984  37.960  37.595  12.609
58202W        W24985  36.406  25.119  12.934
58203W        W24986   0.650  32.897   4.304
58204W        W24987  33.452   3.422  10.638
58205W        W24988  32.697   7.809  12.990
58206W        W24989   2.907  33.583   3.630
58207W        W24990  30.210   2.260   2.266
58208W        W24991  20.693  37.705   4.123
58209W        W24992   1.952  24.785   0.232
58210W        W24993  24.615  11.756  14.760
58211W        W24994  13.026  38.650   2.392
58212W        W24995  38.067  14.650   0.833
58213W        W24996  20.497  40.995   3.640
58214W        W24997  34.377   8.799   4.522
58215W        W24998  32.024  26.141   4.182
58216W        W24999  34.668  12.302   1.476
58217W        W25000  20.506  42.974  13.961
58218W        W25001   1.012  15.649   2.186
58219W        W25002   5.647  39.634  11.775
58220W        W25003  32.477  18.497   1.139
58221W        W25004   9.771  21.439   1.023
58222W        W25005  34.382  44.062  11.623
58223W        W25006  29.490  32.339   3.674
58224W        W25007  16.658   5.224  12.589
58225W        W25008  43.500   6.308   4.151
58226W        W25009  32.968  11.110   2.657
58227W        W25010  40.772  32.586   2.254
58228W        W25011  29.756  29.075  14.415
58229W        W25012  37.095  17.297  13.296
58230W        W25013  11.318   4.171   1.754
58231W        W25014  33.308  18.881  14.787
58232W        W25015  21.634   7.465   1.422
58233W        W25016  35.923  12.652   0.369
58234W        W25017  13.926  13.814  14.938
58235W        W25018   4.260   8.828   1.269
58236W        W25019  27.143  33.809  10.149
58237W        W25020   3.206   8.818  14.852
58238W        W25021  35.175  22.812   3.719
58239W        W25022   1.173   2.286   0.329
58240W        W25023  22.642  44.349   3.124
58241W        W25024   3.247   5.011  14.287
58242W        W25025  41.723  15.598   2.332
58243W        W25026  41.942  10.834   3.611
58244W        W25027  26.747   2.986  14.776
58245W        W25028  19.107   8.910   1.480
58246W        W25029  30.858  26.452  12.641
58247W        W25030  12.844  32.575  12.710
58248W        W25031  37.485  16.606  12.995
58249W        W25032  30.543  24.041   0.774
58250W        W25033  15.999  42.569   5.009
58251W        W25034  40.438   3.270  14.537
58252W        W25035  15.136   4.467   4.251
58253W        W25036  13.113   7.304   1.659
58254W        W25037   2.748  11.850  14.154
58255W        W25038  40.741  22.055   0.417
58256W        W25039   1.249  25.229   1.448
58257W        W25040  44.923  40.107   3.319
58258W        W25041  33.293  43.369   4.108
58259W        W25042  10.382  39.605   4.213
58260W        W25043  15.853  10.619   1.823
58261W        W25044   2.156   2.779  11.280
58262W        W25045   0.107  12.660  11.182
58263W        W25046  43.938  28.570   3.412
58264W        W25047  12.885  31.796   1.577
58265W        W25048  21.542  17.604   0.015
58266W        W25049  31.406  28.050   1.019
58267W        W25050  42.375  44.998  14.895
58268W        W25051   0.610  36.001  11.987
58269W        W25052   2.811  36.796  12.524
58270W        W25053  43.263  25.774   3.079
58271W        W25054  35.138  17.720   3.243
58272W        W25055  35.974  37.873  14.477
58273W        W25056  28.365  20.145  13.798
58274W        W25057  18.133  39.301   4.246
58275W        W25058  26.554   7.320  12.065
58276W        W25059  25.284  43.579  13.972
58277W        W25060  31.563  36.415   1.725
58278W        W25061  14.799  44.780  11.917
58279W        W25062  43.789  13.024   2.652
58280W        W25063  24.287  15.750   0.245
58281W        W25064  31.738  29.403   2.168
58282W        W25065  43.157  24.275  14.896
58283W        W25066  35.922  44.423  11.872
58284W        W25067  34.360  41.427  13.661
58285W        W25068  44.971  20.175   1.002
58286W        W25069   5.203  38.572   4.666
58287W        W25070   8.349  34.480  14.429
58288W        W25071   0.023  36.113   0.893
58289W        W25072  19.929  12.092  14.286
58290W        W25073   6.808  27.968  14.327
58291W        W25074  14.361  42.413   2.253
58292W        W25075   2.296  30.510  10.746
58293W        W25076   5.747   8.614   4.934
58294W        W25077   8.666  21.494   3.122
58295W        W25078  30.488  34.626   4.427
58296W        W25079  14.775  23.156  14.448
58297W        W25080  43.367  18.488  11.494
58298W        W25081   2.180  13.527  13.022
58299W        W25082  33.140  39.915  13.822
58300W        W25083   8.885  43.003   3.619
58301W        W25084   7.954  39.559  14.968
58302W        W25085  15.366  31.500  13.429
58303W        W25086  26.578  42.597   4.099
58304W        W25087  30.028  39.413   0.389
58305W        W25088  37.877  41.510   1.684
58306W        W25089  42.045  35.595  12.349
58307W        W25090   8.373   4.350   4.570
58308W        W25091  36.526  20.371  12.092
58309W        W25092  17.162  29.405  12.616
58310W        W25093  35.427  19.286   2.799
58311W        W25094  39.080   8.533   1.668
58312W        W25095  12.185  36.326   4.892
58313W        W25096  39.487   6.844  11.571
58314W        W25097  39.122  31.864   9.991
58315W        W25098  21.644  15.605   4.580
58316W        W25099  14.415   2.985   1.811
58317W        W25100  14.554   8.419   3.316
58318W        W25101   0.891  23.478  14.379
58319W        W25102  40.985   5.075  12.038
58320W        W25103  13.838  34.523  14.162
58321W        W25104  15.726  39.037  11.655
58322W        W25105   2.388  35.817   4.013
58323W        W25106  15.841  28.395   1.366
58324W        W25107  18.840  42.295  12.409
58325W        W25108  28.221   1.730  13.804
58326W        W25109  44.248  18.767   2.903
58327W        W25110  38.820  33.117   0.882
58328W        W25111  40.751  16.413   2.349
58329W        W25112  31.004  40.624  11.051
58330W        W25113   5.964  43.824  11.145
58331W        W25114  17.716  23.398   0.246
58332W        W25115   8.361  34.652  10.705
58333W        W25116   4.628  21.143  13.400
58334W        W25117  34.377  40.227  13.893
58335W        W25118  33.388   4.400   4.138
58336W        W25119  27.188  40.998   1.300
58337W        W25120   6.687  17.669   0.511
58338W        W25121  44.566  34.478   1.664
58339W        W25122  21.551  19.616   3.664
58340W        W25123   8.320  26.274   1.028
58341W        W25124  21.159  33.553   1.654
58342W        W25125  37.032  37.920   2.709
58343W        W25126  39.217   3.182   2.901
58344W        W25127   6.352  21.794  13.064
58345W        W25128  13.818  23.253  11.155
58346W        W25129  42.866  40.039  12.918
58347W        W25130  39.818  28.892   1.724
58348W        W25131  15.545  25.587   0.910
58349W        W25132  30.196  24.045  12.524
58350W        W25133  25.670  41.992   0.870
58351W        W25134  14.580  35.330   3.757
58352W        W25135  26.497   8.062   4.106
58353W        W25136  22.734  30.250   2.868
58354W        W25137  13.361  39.466   3.905
58355W        W25138  14.366  44.288   3.630
58356W        W25139  43.809  35.659   4.118
58357W        W25140   3.452   7.452   3.283
58358W        W25141  31.004  30.330   1.287
58359W        W25142  31.010  19.372  10.183
58360W        W25143  24.396  36.401   1.199
58361W        W25144  10.617   5.479  14.366
58362W        W25145  35.505  19.669   3.738
58363W        W25146   8.615  10.308  10.722
58364W        W25147  27.673  13.116  12.426
58365W        W25148   9.627  31.912   2.104
58366W        W25149  35.533  29.329  13.509
58367W        W25150  28.669  20.561   1.737
58368W        W25151  15.560  20.324   4.106
58369W        W25152  35.438   6.349   1.688
58370W        W25153  41.585  32.266  14.524
58371W        W25154   7.345   5.713  11.030
58372W        W25155   9.637   4.864  10.239
58373W        W25156  32.294   3.311   4.590
58374W        W25157   2.146  28.078  14.811
58375W        W25158  13.665  37.986  13.912
58376W        W25159  16.095   6.170  13.114
58377W        W25160  17.352  34.964  14.602
58378W        W25161  24.365  29.644  10.193
58379W        W25162  15.933   0.690  10.007
58380W        W25163  20.118  33.845  13.793
58381W        W25164   6.642  31.858   4.065
58382W        W25165  20.547  24.382   2.280
58383W        W25166  43.793  30.325   4.933
58384W        W25167  36.364  18.809   1.920
58385W        W25168  30.469  34.942   1.256
58386W        W25169  44.217  13.839  12.473
58387W        W25170  24.845  21.346   5.250
58388W        W25171  42.960  13.615  14.084
58389W        W25172  36.886  26.174   4.220
58390W        W25173  29.700  44.699   0.564
58391W        W25174  28.935  28.223  11.680
58392W        W25175   2.778  23.995   1.247
58393W        W25176  15.246   6.613   3.235
58394W        W25177  44.396  22.734  11.449
58395W        W25178   8.870  34.853  12.035
58396W        W25179  31.935  31.231  11.175
58397W        W25180  18.349  11.395   0.235
58398W        W25181  25.126  26.636  12.292
58399W        W25182  10.697  38.931  10.296
58400W        W25183  35.273  29.029  13.927
58401W        W25184  12.851  39.369  13.930
58402W        W25185  16.306  38.263  10.285
58403W        W25186  35.822   3.216   0.682
58404W        W25187  44.569   2.960  12.906
58405W        W25188  13.234  32.742   1.979
58406W        W25189  35.291  36.590   4.009
58407W        W25190  31.628   3.963   1.613
58408W        W25191  20.761  39.399   2.085
58409W        W25192  22.194  16.030   0.272
58410W        W25193  27.717   4.500   4.764
58411W        W25194  24.033   7.393   4.450
58412W        W25195  38.560   0.501  11.958
58413W        W25196  27.607  23.056  11.916
58414W        W25197   6.283   0.856  12.462
58415W        W25198  14.047  40.776  11.604
58416W        W25199   1.911  11.559   2.156
58417W        W25200  11.095  26.669   1.575
58418W        W25201  44.906   7.214  10.765
58419W        W25202  17.058  34.900   0.465
58420W        W25203   1.969  42.872  12.405
58421W        W25204  20.826  30.215   3.824
58422W        W25205  17.561  19.349   2.199
58423W        W25206  16.158   2.816   3.725
58424W        W25207  37.518   7.126  11.660
58425W        W25208  14.678  20.152   2.421
58426W        W25209   9.215   1.798   1.494
58427W        W25210  29.461  44.014  11.947
58428W        W25211  25.459  15.908   5.127
58429W        W25212   9.033   5.256   2.759
58430W        W25213  12.563   8.638   1.694
58431W        W25214  37.244   6.427   3.179
58432W        W25215  26.523  38.900   5.377
58433W        W25216  29.729   9.769   0.910
58434W        W25217  16.409  10.893   3.782
58435W        W25218  34.436   0.857  11.580
58436W        W25219  10.382   5.277  11.450
58437W        W25220  16.109   8.990  11.398
58438W        W25221  38.338  22.295   0.339
58439W        W25222  14.191   1.362  13.540
58440W        W25223  25.732  34.829   0.514
58441W        W25224  43.944   2.439   1.860
58442W        W25225  32.776  39.562  11.132
58443W        W25226  31.310  16.114  13.115
58444W        W25227   1.156   5.277   2.655
58445W        W25228  43.995   8.144  12.791
58446W        W25229   7.984  21.934  14.963
58447W        W25230  28.603  38.749   1.998
58448W        W25231  21.479  37.636  13.938
58449W        W25232   3.557  24.042  11.198
58450W        W25233  18.335   4.715  11.608
58451W        W25234   8.253   6.676   1.835
58452W        W25235  27.554   8.345  10.579
58453W        W25236  14.376   2.952  14.766
58454W        W25237  16.170  21.077  14.251
58455W        W25238   3.254  33.171   0.736
58456W        W25239  23.774  22.838  11.482
58457W        W25240  44.591  43.339  10.291
58458W        W25241  40.099  13.640   2.804
58459W        W25242   9.838  28.452   0.950
58460W        W25243   7.552  35.980  10.889
58461W        W25244  22.666   5.708  11.860
58462W        W25245  27.100  43.051  10.206
58463W        W25246  37.162  28.668  11.611
58464W        W25247  20.097  21.382  12.004
58465W        W25248  20.769  18.709   3.171
58466W        W25249  42.370  31.544  13.467
58467W        W25250  39.409  22.462  11.712
58468W        W25251   5.964  25.532  12.640
58469W        W25252  28.194  26.253   5.062
58470W        W25253  18.826  13.649   4.564
58471W        W25254  30.980  22.322   1.320
58472W        W25255  15.912  19.663  10.566
58473W        W25256  20.738  15.004  14.886
58474W        W25257   0.362  43.896   0.253
58475W        W25258  14.081  22.762   2.644
58476W        W25259  32.174  14.140   2.744
58477W        W25260  39.793   7.846  10.124
58478W        W25261  17.373   5.143   3.643
58479W        W25262   4.722  20.110  14.857
58480W        W25263  43.963   5.296  14.733
58481W        W25264   5.457  20.398   2.289
58482W        W25265  44.038  16.959  13.345
58483W        W25266  26.461   1.855  10.571
58484W        W25267  22.682  23.126   0.032
58485W        W25268  11.659   2.375  11.539
58486W        W25269   2.010  30.352  11.681
58487W        W25270  15.672  14.339  11.500
58488W        W25271  17.533  37.469   2.768
58489W        W25272  37.106  44.007  13.390
58490W        W25273   5.648  15.165  12.556
58491W        W25274  31.455  14.300  14.985
58492W        W25275  34.488   9.746  14.752
58493W        W25276   3.936  32.590  12.506
58494W        W25277  37.903  28.391   0.944
58495W        W25278  11.309  17.734   3.653
58496W        W25279  44.703  41.498   0.537
58497W        W25280   6.802  14.819   1.271
58498W        W25281  11.791  22.043  11.341
58499W        W25282  28.032  41.849  13.588
58500W        W25283   9.011  22.231  14.828
58501W        W25284   9.556  34.951   3.822
58502W        W25285  30.631  13.586   0.065
58503W        W25286  29.544  36.835  13.869
58504W        W25287  17.511  44.710   3.182
58505W        W25288  31.542  44.670   1.281
58506W        W25289  10.249  41.306   4.772
58507W        W25290  42.430  35.434  12.045
58508W        W25291  41.832  23.813   2.726
58509W        W25292  41.447   7.714  13.989
58510W        W25293   3.234  29.920  10.632
58511W        W25294  44.296  30.480  12.139
58512W        W25295   3.474  27.155   0.935
58513W        W25296  41.321  39.913  14.560
58514W        W25297  17.369   1.667   4.262
58515W        W25298  39.299   1.271   0.733
58516W        W25299  40.344  21.177   0.408
58517W        W25300  44.994  13.613  10.825
58518W        W25301  26.937   3.687  12.317
58519W        W25302  18.686  25.769  13.370
58520W        W25303   3.206  16.732   2.738
58521W        W25304  44.660  25.434  11.181
58522W        W25305  15.697  18.546  13.497
58523W        W25306  22.247  22.486   4.081
58524W        W25307  30.475  23.637  10.984
58525W        W25308  30.460   2.368   1.795
58526W        W25309  10.265   0.395   4.543
58527W        W25310  37.535  13.561   2.802
58528W        W25311  11.626   0.509  11.042
58529W        W25312  33.969   2.525  12.145
58530W        W25313  34.037  17.071   1.771
58531W        W25314   9.221  42.730   2.079
58532W        W25315   4.800   8.015  14.594
58533W        W25316  20.633   9.454  13.051
58534W        W25317  44.798  32.338   0.929
58535W        W25318   5.310  30.979  14.679
58536W        W25319  33.684  31.582  14.314
58537W        W25320  35.038  14.061   0.063
58538W        W25321  27.843  36.026   0.747
58539W        W25322  27.343  38.623   4.178
58540W        W25323  34.208  27.178  12.462
58541W        W25324  23.628   1.199   3.741
58542W        W25325  38.113  38.547   0.108
58543W        W25326   7.828   9.659  13.793
58544W        W25327   5.907  32.277   1.063
58545W        W25328  44.477  28.616  12.414
58546W        W25329  15.386   2.300  11.217
58547W        W25330   3.764  24.707   1.758
58548W        W25331  29.974   5.879   0.359
58549W        W25332  28.545   6.212   2.036
58550W        W25333  42.873   4.634   3.319
58551W        W25334  33.483  10.340   4.767
58552W        W25335  15.036   6.111  10.976
58553W        W25336  39.270  19.061  13.056
58554W        W25337  44.769  29.709   0.340
58555W        W25338  31.102  34.087  10.546
58556W        W25339  28.376  21.218   1.839
58557W        W25340  25.381  22.457   4.206
58558W        W25341  23.481  44.207  13.468
58559W        W25342  30.031  17.223  12.236
58560W        W25343  10.207  16.324   2.919
58561W        W25344   7.581  44.285   2.739
58562W        W25345   5.611  21.066   1.394
58563W        W25346   8.674  20.401   2.211
58564W        W25347  23.503  23.418  14.011
58565W        W25348  33.557  44.357   1.844
58566W        W25349  21.663   6.720   0.821
58567W        W25350   5.745   1.943   3.375
58568W        W25351   0.354  14.925  10.714
58569W        W25352  22.098   5.249  13.617
58570W        W25353  30.433   6.934   0.893
58571W        W25354   5.319  20.816   4.427
58572W        W25355  15.133  29.510  14.810
58573W        W25356  40.379  19.751   2.688
58574W        W25357   2.824  41.896  10.477
58575W        W25358  40.822  43.785  10.686
58576W        W25359  41.969  44.459   3.202
58577W        W25360   0.382  40.344   0.839
58578W        W25361   8.603   1.900  11.457
58579W        W25362  16.864  34.427   0.438
58580W        W25363  16.920  28.184  10.519
58581W        W25364  38.440  39.846  12.573
58582W        W25365  17.494  10.377  13.999
58583W        W25366   1.387   8.626   0.001
58584W        W25367  20.963  26.148  12.480
58585W        W25368  33.005  41.316  11.519
58586W        W25369  16.796  17.553  14.807
58587W        W25370  31.593  18.681   1.853
58588W        W25371  16.643   1.467  11.492
58589W        W25372  34.825  25.732  12.933
58590W        W25373   7.314  11.587  14.447
58591W        W25374  24.220  17.974   3.699
58592W        W25375  15.636  13.732  10.700
58593W        W25376  25.883  42.233   0.276
58594W        W25377  31.431   0.596  14.743
58595W        W25378  26.087  13.595   1.464
58596W        W25379   9.846  43.411  12.101
58597W        W25380  32.101  14.369   0.364
58598W        W25381  25.241  14.808   5.027
58599W        W25382  24.997  11.856  11.106
58600W        W25383  33.758  32.116  14.419
58601W        W25384  25.127  40.014  14.441
58602W        W25385  29.989   0.236  13.136
58603W        W25386  23.055   3.229   1.818
58604W        W25387  29.282  13.217   4.948
58605W        W25388  42.723  32.228   1.505
58606W        W25389   0.491  32.744  14.196
58607W        W25390  28.205  18.098   1.830
58608W        W25391  39.864   1.169  10.711
58609W        W25392  16.086  21.121  14.745
58610W        W25393   0.358   1.671  11.940
58611W        W25394  30.357  23.931  12.056
58612W        W25395  25.430  19.230  11.188
58613W        W25396  38.415  18.681   2.529
58614W        W25397   4.796  27.289   1.342
58615W        W25398   5.853  14.297  12.430
58616W        W25399   5.818   7.663  13.844
58617W        W25400  37.981  16.031  13.769
58618W        W25401   2.932   6.709  13.973
58619W        W25402   4.897  15.588   0.363
58620W        W25403  29.171  34.020  13.060
58621W        W25404  23.039   9.747   2.414
58622W        W25405   2.333  41.972  10.656
58623W        W25406  19.217  16.223  12.291
58624W        W25407  36.895  11.231   2.931
58625W        W25408   8.353  43.831   2.805
58626W        W25409   6.903  10.915  14.881
58627W        W25410  17.145  37.965   3.689
58628W        W25411  26.594  21.218   4.082
58629W        W25412  20.299   9.478  14.832
58630W        W25413  31.077   9.385   0.394
58631W        W25414  43.290  13.748  14.769
58632W        W25415   3.391  14.434   0.277
58633W        W25416  42.317  42.560  13.746
58634W        W25417  10.721   0.972   1.625
58635W        W25418  34.163  12.476   3.200
58636W        W25419   2.252  19.167   3.159
58637W        W25420  44.442   9.899  12.588
58638W        W25421  27.650  41.218  13.993
58639W        W25422  36.730  33.929  10.567
58640W        W25423   3.783  15.794   0.258
58641W        W25424  26.925  22.991   9.852
58642W        W25425  10.421  41.784   4.687
58643W        W25426  24.106  25.601  12.939
58644W        W25427  43.418  34.825  11.429
58645W        W25428  41.757   3.008  12.188
58646W        W25429  22.448  43.900   2.942
58647W        W25430  31.638  10.735  14.261
58648W        W25431  27.052  25.765  11.156
58649W        W25432  37.779  34.958  10.194
58650W        W25433  21.600   9.387  13.014
58651W        W25434  33.676  25.055  12.129
58652W        W25435  26.798  34.031  12.581
58653W        W25436  18.883  23.246   4.182
58654W        W25437  36.033  23.766   3.302
58655W        W25438  13.838  22.626   4.473
58656W        W25439  24.193  19.527  13.615
58657W        W25440  16.585  41.913   0.516
58658W        W25441  17.975   2.337  12.407
58659W        W25442  18.189  37.044   0.406
58660W        W25443  26.528  24.863  14.190
58661W        W25444   1.819  40.003   3.415
58662W        W25445  32.876   4.451   4.119
58663W        W25446  32.573  15.356  13.054
58664W        W25447  41.263  25.229   4.077
58665W        W25448   3.514  16.612  12.575
58666W        W25449  37.483   0.591  14.532
58667W        W25450  14.052  31.078   3.696
58668W        W25451  26.142  27.233  12.455
58669W        W25452  34.853  21.782  11.559
58670W        W25453  42.024  10.135  11.572
58671W        W25454  34.187  16.218  14.091
58672W        W25455  39.530   7.935   4.513
58673W        W25456  28.012  10.088  13.122
58674W        W25457   1.731  13.102  11.314
58675W        W25458  37.055  17.714   2.776
58676W        W25459   1.188  10.664   1.699
58677W        W25460  41.682  33.310   1.839
58678W        W25461  43.981  44.879  13.372
58679W        W25462  11.689  11.957  10.640
58680W        W25463   6.530   0.091   2.355
58681W        W25464   0.979   9.258  11.720
58682W        W25465  11.185  24.515   3.276
58683W        W25466  32.315  40.046  11.904
58684W        W25467  31.270  35.467  11.560
58685W        W25468  28.207  26.983   2.293
58686W        W25469  44.954  32.108  10.879
58687W        W25470  26.101  24.278  13.768
58688W        W25471   6.616   0.713  11.152
58689W        W25472  18.425  12.158   4.062
58690W        W25473  42.298  30.736  13.086
58691W        W25474  14.701   5.971  13.123
58692W        W25475   7.417  17.073   3.592
58693W        W25476  11.437  15.094   2.900
58694W        W25477  35.844  21.717   3.355
58695W        W25478  31.028  24.218  14.479
58696W        W25479  42.678  14.842  12.978
58697W        W25480  12.305  15.764  13.565
58698W        W25481  42.781  40.072  14.001
58699W        W25482  32.392   5.898   2.170
58700W        W25483  34.906  44.973   9.855
58701W        W25484   8.758  25.107  10.527
58702W        W25485  44.902  11.230   4.574
58703W        W25486  28.538  32.275   2.759
58704W        W25487  15.532   3.337  10.723
58705W        W25488  29.515  25.904   4.588
58706W        W25489   8.079  33.047  14.543
58707W        W25490  10.979  32.874  11.627
58708W        W25491  40.734  27.891  13.936
58709W        W25492  37.946   4.903   1.455
58710W        W25493  35.479  13.178  13.954
58711W        W25494  38.047  14.848   3.652
58712W        W25495  44.418  17.338  13.345
58713W        W25496  15.887  15.081   4.367
58714W        W25497  19.908  39.483  10.761
58715W        W25498  16.536  39.778   2.788
58716W        W25499  28.662   1.812  10.344
58717W        W25500  36.024  32.391   0.448
58718W        W25501  42.028  43.382   4.397
58719W        W25502   1.674  39.504   3.555
58720W        W25503   1.797  33.598   0.995
58721W        W25504  12.336  27.624   3.740
58722W        W25505  25.218   5.802   1.488
58723W        W25506  20.972  27.453  11.395
58724W        W25507  10.893  20.978   4.624
58725W        W25508  28.062  26.112  13.663
58726W        W25509  35.824  26.112   4.293
58727W        W25510  14.574  13.401   3.599
58728W        W25511  34.359   9.334   0.765
58729W        W25512  41.494  28.913  12.628
58730W        W25513  32.720  24.697   1.482
58731W        W25514  36.632  17.556  13.788
58732W        W25515  42.124  14.825  12.445
58733W        W25516   5.649  29.065   2.647
58734W        W25517   6.009   8.730   4.490
58735W        W25518  41.564  42.632  11.515
58736W        W25519  10.596  14.205  14.329
58737W        W25520  27.755  13.254   3.877
58738W        W25521  26.723   7.620  14.476
58739W        W25522  14.354  33.117   4.568
58740W        W25523  29.305  21.316   5.341
58741W        W25524   3.373  34.089  13.356
58742W        W25525  30.059  12.349  11.383
58743W        W25526   3.399  43.902  11.385
58744W        W25527  43.094   4.777  13.867
58745W        W25528  18.585  36.313  13.449
58746W        W25529  16.376   2.425  11.105
58747W        W25530  34.547   1.282   3.660
58748W        W25531  43.619  31.740   0.650
58749W        W25532  32.524  10.289  13.887
58750W        W25533  26.606  32.884  13.856
58751W        W25534  18.481  23.523  13.147
58752W        W25535  30.166  25.625  12.909
58753W        W25536  28.707   8.736   2.681
58754W        W25537  39.837  31.615  11.315
58755W        W25538  31.470  23.548  11.993
58756W        W25539  20.035   9.270   3.036
58757W        W25540   4.869  36.762   3.362
58758W        W25541  28.519  44.745   4.354
58759W        W25542  26.735  43.401  10.148
58760W        W25543  22.734  33.446   2.316
58761W        W25544  17.734  13.597   3.807
58762W        W25545   9.708  37.904  12.640
58763W        W25546  11.975  24.617  13.281
58764W        W25547  18.547  34.369  12.526
58765W        W25548  18.266  18.578   3.229
58766W        W25549  37.814  13.875  12.382
58767W        W25550  35.173  10.928  11.106
58768W        W25551  36.877   2.900  11.655
58769W        W25552  19.626  42.761  14.082
58770W        W25553  26.549  31.992  14.101
58771W        W25554   2.703  40.793   1.784
58772W        W25555  24.469  10.095  11.100
58773W        W25556  13.399  39.490  11.913
58774W        W25557  25.733   9.676  10.702
58775W        W25558  23.278   3.319   2.680
58776W        W25559  12.887  39.442  11.021
58777W        W25560  35.367  24.450  11.917
58778W        W25561   6.170   0.891   2.717
58779W        W25562  19.566  19.260  14.829
58780W        W25563   0.795  41.859   0.184
58781W        W25564  33.065   8.832   3.101
58782W        W25565  12.210  34.427  11.646
58783W        W25566  20.662  23.753  14.419
58784W        W25567  10.140  42.148  12.928
58785W        W25568  19.319  38.937   0.845
58786W        W25569  14.627   2.267   3.914
58787W        W25570   5.930  25.690  11.548
58788W        W25571  24.593  33.862   2.333
58789W        W25572  40.439  39.346  10.489
58790W        W25573  27.514  43.843   3.586
58791W        W25574  17.876  15.688  13.806
58792W        W25575  29.725  18.538   3.319
58793W        W25576  22.656   8.382  13.817
58794W        W25577  37.724  44.452   3.431
58795W        W25578  31.068  36.507  10.674
58796W        W25579   6.166  27.095  13.914
58797W        W25580  41.853  41.795  11.042
58798W        W25581  38.104  35.092   3.291
58799W        W25582   4.413  16.491   1.208
58800W        W25583  23.548  30.595   2.389
58801W        W25584  42.483  44.502   4.155
58802W        W25585  43.863   4.784  14.860
58803W        W25586  33.990  44.568  14.029
58804W        W25587  20.060  21.397  12.520
58805W        W25588  37.945  27.929  11.600
58806W        W25589  26.489   1.367   3.364
58807W        W25590  26.729  20.599   2.379
58808W        W25591  27.134  39.526   1.501
58809W        W25592  20.258  29.540  11.564
58810W        W25593   7.738  42.989  13.031
58811W        W25594   0.886  44.432  12.359
58812W        W25595  40.105  43.351  12.162
58813W        W25596   0.300  36.600  13.054
58814W        W25597  42.454  30.177  13.478
58815W        W25598  10.092  35.572  11.068
58816W        W25599  31.157  24.549   1.146
58817W        W25600  32.772   0.131  14.044
58818W        W25601  43.484  20.534  12.527
58819W        W25602   7.462  37.361   1.705
58820W        W25603  22.135  18.695  10.575
58821W        W25604  42.158  38.625   3.036
58822W        W25605  20.202  17.713  12.052
58823W        W25606   3.106  15.212   2.926
58824W        W25607  36.100  27.362   1.367
58825W        W25608  19.737  29.149  12.473
58826W        W25609  37.474  27.621   3.312
58827W        W25610  32.603  29.879  12.920
58828W        W25611  33.052  36.008  13.718
58829W        W25612   2.091  41.388  12.334
58830W        W25613  38.053  19.966   1.321
58831W        W25614  12.523  19.208  10.665
58832W        W25615  24.272  40.327   0.042
58833W        W25616  35.609  24.933   1.823
58834W        W25617  28.236  36.109  14.440
58835W        W25618  26.899   7.366  10.587
58836W        W25619  35.344  32.415   1.730
58837W        W25620  16.038  28.451  13.240
58838W        W25621  44.755  42.809   3.612
58839W        W25622  30.686  16.573   1.714
58840W        W25623   5.782  37.290   2.818
58841W        W25624  43.429  32.735  13.478
58842W        W25625  44.768  37.887   4.780
58843W        W25626  33.895   5.453  13.346
58844W        W25627  24.720  19.231   5.030
58845W        W25628  27.188   2.464  12.969
58846W        W25629  13.271   2.973  14.402
58847W        W25630  36.630  43.825  13.292
58848W        W25631  17.669   8.315   0.548
58849W        W25632  15.030  16.358  11.992
58850W        W25633  17.085  14.791   1.255
58851W        W25634   7.236  39.255   3.766
58852W        W25635   7.394  41.574  13.767
58853W        W25636  18.749  41.424   3.631
58854W        W25637  11.202  34.541  11.720
58855W        W25638  19.602   2.594  11.088
58856W        W25639  43.377  37.904  14.038
58857W        W25640  25.223   3.847   0.297
58858W        W25641  32.415  13.636   4.633
58859W        W25642  28.157  39.853   2.819
58860W        W25643   4.143  23.762  11.567
58861W        W25644  27.669  39.104  14.915
58862W        W25645  28.729  24.929  12.096
58863W        W25646  16.584  16.628  13.488
58864W        W25647  42.395  40.028   1.428
58865W        W25648  25.396  31.880   1.468
58866W        W25649  16.823  19.716   4.165
58867W        W25650  37.005  24.670  13.155
58868W        W25651   7.185  15.623  14.719
58869W        W25652  34.034  11.859   2.286
58870W        W25653  39.395  38.280   3.621
58871W        W25654  18.185  18.580   0.180
58872W        W25655  18.182  42.717  10.783
58873W        W25656  18.023   0.397   2.737
58874W        W25657  28.435   2.351  14.417
58875W        W25658   9.430  44.443  10.038
58876W        W25659  28.125   1.368  12.420
58877W        W25660  36.815  19.752  11.526
58878W        W25661  34.924   9.413   5.098
58879W        W25662  27.791  16.790   1.493
58880W        W25663  33.851  16.704  13.553
58881W        W25664  27.994  38.350  13.989
58882W        W25665  21.824  43.374   1.889
58883W        W25666  12.169  38.596   0.911
58884W        W25667   6.856  20.033   2.749
58885W        W25668  11.578   5.728  12.472
58886W        W25669  36.003  19.739   1.364
58887W        W25670  33.901  29.236   1.250
58888W        W25671  25.528   1.228  12.992
58889W        W25672  27.223   0.199   2.818
58890W        W25673  19.122  28.117  13.331
58891W        W25674   5.717   5.021   0.874
58892W        W25675  13.330  20.153   1.186
58893W        W25676   8.874  29.551   0.236
58894W        W25677  13.756  23.648  12.912
58895W        W25678  19.758  14.276  13.916
58896W        W25679  33.670  42.411  11.124
58897W        W25680   6.046  13.732   4.242
58898W        W25681  40.957  10.424  14.397
58899W        W25682  37.762  13.593   4.071
58900W        W25683   5.841   8.147  14.054
58901W        W25684   5.999  15.069   3.301
58902W        W25685  23.509  36.567  14.460
58903W        W25686  38.038  43.982  10.949
58904W        W25687  31.726   9.855  10.047
58905W        W25688  17.516  27.021   2.178
58906W        W25689  32.146  19.121   0.533
58907W        W25690   7.281  27.172   4.530
58908W        W25691  27.952  41.408   1.761
58909W        W25692  27.153  34.024   4.185
58910W        W25693  18.436  35.424  11.562
58911W        W25694  20.266  29.006  14.750
58912W        W25695  38.141  14.482   5.107
58913W        W25696  32.931  43.007  13.458
58914W        W25697  29.553   0.781  13.629
58915W        W25698  22.645  21.956   3.838
58916W        W25699  10.461  34.958   4.767
58917W        W25700  10.411  27.139   0.904
58918W        W25701  11.744  16.717  12.890
58919W        W25702  20.763   5.970  13.441
58920W        W25703  19.992  43.941   2.659
58921W        W25704  31.384   5.741   4.094
58922W        W25705  24.511  29.732   0.421
58923W        W25706  38.964  20.548   1.280
58924W        W25707  30.027  25.140  10.530
58925W        W25708  41.334  11.959  10.632
58926W        W25709  36.108   0.445  11.145
58927W        W25710  36.972  43.263   0.557
58928W        W25711  12.351  16.001   2.735
58929W        W25712  39.827  22.556   1.641
58930W        W25713  42.030  38.184   3.350
58931W        W25714  39.658  12.299  13.013
58932W        W25715  36.219  31.973   4.474
58933W        W25716  42.795  43.623  12.648
58934W        W25717  41.511   3.685  12.524
58935W        W25718  32.097  38.031  10.461
58936W        W25719  39.975  19.184   2.080
58937W        W25720   3.146  29.164   4.828
58938W        W25721   5.076  39.060  11.846
58939W        W25722  38.321  38.753  11.923
58940W        W25723  34.578   2.119   0.197
58941W        W25724   1.272  41.755   0.363
58942W        W25725  39.873  36.567   0.503
58943W        W25726  41.554  33.065   2.801
58944W        W25727   1.713  15.596  14.719
58945W        W25728  33.540   5.648   2.851
58946W        W25729  31.399   7.388  12.071
58947W        W25730   9.370  20.073  13.942
58948W        W25731  34.060  10.979   4.735
58949W        W25732  19.281  34.536   0.344
58950W        W25733  28.243  37.659  11.609
58951W        W25734  38.307  24.280   4.502
58952W        W25735  32.333  42.503  12.717
58953W        W25736  29.207   0.968   0.824
58954W        W25737  25.104  25.017   3.261
58955W        W25738  25.594  20.339   0.784
58956W        W25739  19.079   4.319   4.324
58957W        W25740  21.777  41.573  11.115
58958W        W25741  28.586  17.096   4.374
58959W        W25742  21.130  28.093  11.215
58960W        W25743  14.231   4.009   0.360
58961W        W25744  24.429  26.111   2.684
58962W        W25745  32.826  16.286   1.879
58963W        W25746  44.076  33.812  11.066
58964W        W25747  28.032  37.590  13.506
58965W        W25748   9.237  44.483  13.947
58966W        W25749  19.115  22.382   1.168
58967W        W25750  37.767  28.632  13.510
58968W        W25751  14.730  21.422  12.089
58969W        W25752  43.629   5.918  10.143
58970W        W25753  19.359  25.708  12.206
58971W        W25754   1.088  43.028  14.881
58972W        W25755   7.959  28.629  10.943
58973W        W25756  26.571   4.690   1.245
58974W        W25757  19.364   0.896  13.897
58975W        W25758  13.305  42.539   3.602
58976W        W25759  39.838  25.665   3.738
58977W        W25760  24.494  29.088   4.628
58978W        W25761  32.916   4.845  11.670
58979W        W25762   6.788   0.033  11.697
58980W        W25763  23.212  43.094   3.708
58981W        W25764   3.903  11.420   0.502
58982W        W25765   8.637   9.357  13.732
58983W        W25766  22.989  26.078   5.706
58984W        W25767  32.561  43.494   0.923
58985W        W25768   5.892  19.131   3.642
58986W        W25769  19.024  16.142  12.785
58987W        W25770  24.967  37.417  10.750
58988W        W25771   3.247   0.524   0.826
58989W        W25772  34.545  37.614   4.917
58990W        W25773  37.401   6.317   5.018
58991W        W25774  32.283  43.585   4.235
58992W        W25775  25.544  39.538   1.339
58993W        W25776  17.833  35.071   4.081
58994W        W25777  42.545   6.008   2.235
58995W        W25778  10.762  26.738  11.090
58996W        W25779   7.896  17.680   3.173
58997W        W25780  17.117  22.518   0.864
58998W        W25781  25.703  38.927  14.881
58999W        W25782  23.102  11.866  12.067
59000W        W25783  27.439  10.060  13.852
59001W        W25784   9.956   2.933  12.407
59002W        W25785  18.701  30.773   5.030
59003W        W25786   8.462  32.776  10.894
59004W        W25787  18.336  26.584  13.826
59005W        W25788   2.899  31.458   3.569
59006W        W25789   1.159  41.472  12.558
59007W        W25790  42.486  19.274  10.984
59008W        W25791  38.721  24.373  13.334
59009W        W25792   9.236  38.064   0.376
59010W        W25793  22.743  14.286   2.084
59011W        W25794  19.601  17.876  13.311
59012W        W25795  28.982  37.522  14.453
59013W        W25796  33.453  14.365   4.187
59014W        W25797  17.590   0.847   4.691
59015W        W25798  43.544  19.093  13.898
59016W        W25799  29.838  43.511   4.312
59017W        W25800  22.313  31.333  13.529
59018W        W25801  44.399   1.796   2.162
59019W        W25802  36.541   5.917   4.061
59020W        W25803  40.091  23.229   3.323
59021W        W25804  31.071  17.565  11.554
59022W        W25805   7.360  18.486  14.029
59023W        W25806  27.491  38.899  14.471
59024W        W25807   2.427  22.791   5.105
59025W        W25808  26.167  42.755  10.461
59026W        W25809  35.365  11.403  11.135
59027W        W25810  37.771  10.532  11.725
59028W        W25811  32.764  44.277  13.032
59029W        W25812   3.425  32.032   0.789
59030W        W25813   6.008  20.404   0.368
59031W        W25814   9.456  28.130  11.155
59032W        W25815  38.925  38.457  13.009
59033W        W25816  37.614   7.898   4.079
59034W        W25817  12.341  34.612   0.393
59035W        W25818  29.095  41.819  10.501
59036W        W25819  21.701  39.039  13.741
59037W        W25820  43.297  18.746  12.968
59038W        W25821  29.456  25.475  12.409
59039W        W25822  36.423   2.883  11.435
59040W        W25823  42.506  11.874   0.463
59041W        W25824  13.990  14.335  13.021
59042W        W25825  28.965  35.825  14.871
59043W        W25826  14.695   5.391   0.967
59044W        W25827  15.076  12.814   2.321
59045W        W25828  40.552  13.338   0.745
59046W        W25829  22.005  43.768   0.232
59047W        W25830  27.543  44.215  14.224
59048W        W25831  38.161  23.257   4.469
59049W        W25832  27.695  25.535  11.616
59050W        W25833  14.732   3.844  13.356
59051W        W25834  43.729  39.060  11.149
59052W        W25835  23.249  34.535  13.940
59053W        W25836  23.310   9.471   4.646
59054W        W25837   2.426  35.046  13.810
59055W        W25838   2.680  26.988   1.604
59056W        W25839  21.526  40.372   4.652
59057W        W25840  38.172   1.971  11.543
59058W        W25841   7.367  32.414  11.111
59059W        W25842  13.798   7.641   5.080
59060W        W25843  22.630  28.158  11.105
59061W        W25844  36.789  34.570  14.889
59062W        W25845   7.996   0.337  12.197
59063W        W25846  27.196  22.163  10.475
59064W        W25847  20.915  36.591   3.244
59065W        W25848  38.758  44.988   1.523
59066W        W25849  41.734  35.019  14.827
59067W        W25850  21.599  21.111   1.192
59068W        W25851  44.497   7.262  11.200
59069W        W25852   5.918  41.788  13.554
59070W        W25853   4.169  22.570  12.540
59071W        W25854   0.315  11.899  14.691
59072W        W25855  20.998   7.482   2.245
59073W        W25856  19.824  24.112   4.587
59074W        W25857  13.927  19.995  13.438
59075W        W25858  34.558  32.617  12.480
59076W        W25859  12.484  35.646   2.234
59077W        W25860   5.273  11.068   3.251
59078W        W25861  11.322   6.265  14.775
59079W        W25862  14.417  21.758  12.905
59080W        W25863  30.556  16.212  14.832
59081W        W25864  22.140  15.765  10.150
59082W        W25865  33.842  43.666   0.208
59083W        W25866  29.245  28.203  13.559
59084W        W25867  11.098   8.428  13.902
59085W        W25868  12.835  38.121   1.535
59086W        W25869  42.331  30.586  10.640
59087W        W25870  27.955  37.443  13.009
59088W        W25871  26.281  35.986   4.125
59089W        W25872   5.321  15.161   0.243
59090W        W25873  32.509  38.905   4.730
59091W        W25874   8.930  24.000  11.624
59092W        W25875   2.568  41.224  12.438
59093W        W25876  44.796  10.122   2.595
59094W        W25877  43.859  44.758   4.346
59095W        W25878  19.776  36.132   5.064
59096W        W25879  11.167  18.106   2.014
59097W        W25880  22.730   5.986   3.759
59098W        W25881  11.392  16.231  10.947
59099W        W25882  28.229  22.036  11.981
59100W        W25883  13.832   8.650   4.960
59101W        W25884   2.576  23.841   5.020
59102W        W25885  27.183  15.224   1.957
59103W        W25886  40.760   1.583  12.065
59104W        W25887  31.098  12.529  11.130
59105W        W25888  37.514  28.406   2.193
59106W        W25889  37.827  39.574   0.410
59107W        W25890  27.660  19.298   2.241
59108W        W25891  36.106   6.723   2.183
59109W        W25892  16.128  24.745  11.181
59110W        W25893   6.359  20.223   1.834
59111W        W25894  22.752  43.334  13.916
59112W        W25895  39.523  29.968   0.459
59113W        W25896   3.498   8.829  13.571
59114W        W25897  43.551  14.334   2.694
59115W        W25898  42.238  10.233  12.043
59116W        W25899  23.057   3.878  12.762
59117W        W25900   3.378  28.533   2.229
59118W        W25901  19.710  29.983  14.676
59119W        W25902   7.831   0.102  11.710
59120W        W25903  27.729  24.129   0.518
59121W        W25904  37.872  27.994  10.726
59122W        W25905  31.636   6.605   0.323
59123W        W25906  39.591   6.610  13.541
59124W        W25907  20.547  25.455  13.784
59125W        W25908  31.469  39.500  12.401
59126W        W25909   1.170  31.144  14.705
59127W        W25910  23.418  19.035  14.398
59128W        W25911   9.868  21.092  13.529
59129W        W25912   1.024   4.447  10.088
59130W        W25913  32.944   8.831   4.087
59131W        W25914   6.982  40.395  10.987
59132W        W25915  43.053  11.575  13.840
59133W        W25916  15.714   2.435   3.302
59134W        W25917  37.590   1.409  13.043
59135W        W25918  42.471  27.595   2.424
59136W        W25919  43.825  44.751   2.906
59137W        W25920  39.828  20.133  14.885
59138W        W25921  17.653  21.132   2.262
59139W        W25922   9.477  26.710   4.762
59140W        W25923  13.614   9.783  11.203
59141W        W25924   1.768  28.201   3.684
59142W        W25925   4.840  39.966  13.338
59143W        W25926  10.164  11.434  14.734
59144W        W25927  41.867  26.441  10.698
59145W        W25928  18.083  34.510   2.631
59146W        W25929  43.474  24.812  12.046
59147W        W25930  35.913   0.459  11.700
59148W        W25931   4.460  25.227   1.868
59149W        W25932  14.504  19.637   1.201
59150W        W25933  19.338  40.608   1.800
59151W        W25934  10.208  39.243  11.560
59152W        W25935  33.029  19.215  11.490
59153W        W25936  37.567  32.408  12.484
59154W        W25937  40.097  40.056  12.980
59155W        W25938  40.710  25.274  11.048
59156W        W25939  33.774   5.683  12.887
59157W        W25940   5.908  39.546  13.865
59158W        W25941  23.035  31.087  11.644
59159W        W25942   0.771  39.346  12.910
59160W        W25943  19.891  14.726  14.769
59161W        W25944  13.640  35.296  14.649
59162W        W25945  26.017  10.757   4.128
59163W        W25946  43.277  26.607  11.932
59164W        W25947  21.687  11.680   4.149
59165W        W25948  25.080  17.259  13.328
59166W        W25949  21.381   6.469  14.892
59167W        W25950   1.466   3.887   2.200
59168W        W25951  20.844  10.105  12.462
59169W        W25952   4.079  30.443  12.374
59170W        W25953  41.827  18.194   1.509
59171W        W25954  19.368  35.389  12.579
59172W        W25955   5.325  22.755   4.704
59173W        W25956  10.099   5.805  12.407
59174W        W25957   2.460  18.188   9.917
59175W        W25958  39.044  25.424   3.274
59176W        W25959  33.417  37.042   4.329
59177W        W25960   7.694  28.575  12.772
59178W        W25961   0.996   4.380   0.232
59179W        W25962  36.550   9.656  14.831
59180W        W25963  17.543  18.306   2.277
59181W        W25964  16.796  12.237  11.531
59182W        W25965  27.419  37.794  12.520
59183W        W25966  10.152  30.914   2.651
59184W        W25967   9.812  24.067   0.911
59185W        W25968   9.343  40.408   0.853
59186W        W25969  10.110  29.340  14.947
59187W        W25970  20.048  17.848   0.573
59188W        W25971   2.921  35.705  14.319
59189W        W25972  34.277  14.068  13.410
59190W        W25973  36.513  27.092  11.693
59191W        W25974  38.524   3.841  14.129
59192W        W25975  33.634  31.092  12.167
59193W        W25976  21.726  32.849  12.313
59194W        W25977  16.404  25.958   0.930
59195W        W25978  40.118  39.425  13.371
59196W        W25979  40.830  18.958  13.674
59197W        W25980  26.728   2.303   4.529
59198W        W25981  11.193  40.511   3.998
59199W        W25982   4.471   8.717   3.426
59200W        W25983  44.467  40.267  12.506
59201W        W25984  26.895  38.997   1.630
59202W        W25985   8.095  31.234  11.593
59203W        W25986  25.450  26.663   1.356
59204W        W25987  43.373  40.920  14.761
59205W        W25988  10.285  29.911  11.115
59206W        W25989  20.716   0.966  14.485
59207W        W25990  21.601  40.327  14.041
59208W        W25991   5.329   5.820   4.625
59209W        W25992  42.360   7.742  11.858
59210W        W25993  26.504  36.156   2.218
59211W        W25994  40.155  40.249  12.516
59212W        W25995  44.886  23.788   1.878
59213W        W25996   6.860  35.631  12.541
59214W        W25997  25.936   4.007  11.938
59215W        W25998  36.571  36.560   3.930
59216W        W25999   4.639   8.254   1.678
59217W        W26000  42.844  17.950   4.155
59218W        W26001  12.500  29.887  14.553
59219W        W26002   3.378  11.587   4.369
59220W        W26003   2.241  19.769   3.747
59221W        W26004  14.531   6.221  11.098
59222W        W26005  14.598  37.119  12.899
59223W        W26006  40.906  39.506  13.869
59224W        W26007   1.926  44.988  11.171
59225W        W26008  37.890  34.954   1.399
59226W        W26009   2.417   4.370   1.256
59227W        W26010  41.476  24.188   2.749
59228W        W26011  15.206  39.941  13.872
59229W        W26012   9.711  34.899  13.076
59230W        W26013  23.396  42.606   4.483
59231W        W26014  40.576   7.277   0.432
59232W        W26015  16.305  38.298  13.841
59233W        W26016  32.461   8.840   1.760
59234W        W26017  31.822  37.038  11.605
59235W        W26018  44.944  42.242   1.518
59236W        W26019  17.129  33.081  10.530
59237W        W26020   1.310   1.764   2.274
59238W        W26021  13.745  29.136   2.412
59239W        W26022  11.484  41.968   3.206
59240W        W26023  39.336  22.216  14.383
59241W        W26024  29.181  41.835   3.855
59242W        W26025  44.781   3.889   0.043
59243W        W26026   4.366   1.938   4.632
59244W        W26027  19.915   4.780  12.540
59245W        W26028  19.462  39.421   3.356
59246W        W26029   2.952  33.508  12.464
59247W        W26030  40.671   8.813  13.972
59248W        W26031  17.331   7.627   2.629
59249W        W26032  12.640  38.918   3.218
59250W        W26033  10.300  42.819   1.170
59251W        W26034  21.277  30.516   2.048
59252W        W26035  38.046   0.718   4.223
59253W        W26036  16.115   0.644  14.184
59254W        W26037  23.578  19.843  12.382
59255W        W26038  35.115  27.113  10.902
59256W        W26039  22.002   4.941  13.169
59257W        W26040   2.986  14.102   0.384
59258W        W26041  11.915  10.644  13.931
59259W        W26042  30.127   9.708   2.137
59260W        W26043   4.827   5.762   4.389
59261W        W26044   2.292  40.899  14.865
59262W        W26045  10.095  16.250  14.071
59263W        W26046   2.492  33.263  12.465
59264W        W26047  10.143  33.043  13.395
59265W        W26048   2.602   2.137   0.207
59266W        W26049  18.020  17.096   1.917
59267W        W26050  22.989  27.793  13.810
59268W        W26051  34.570  13.338   0.459
59269W        W26052  35.917  18.744   1.666
59270W        W26053  38.478  40.482   4.193
59271W        W26054   3.430   2.375  14.952
59272W        W26055  28.384  42.948  14.470
59273W        W26056  42.856  28.978   0.794
59274W        W26057  42.328   9.704   2.607
59275W        W26058  15.657  21.224   0.913
59276W        W26059  35.842  42.460   3.191
59277W        W26060   2.665  31.458  12.228
59278W        W26061  13.262  35.444  12.980
59279W        W26062   0.279   1.915  12.403
59280W        W26063   2.814  40.965  11.165
59281W        W26064   2.757  22.508   0.297
59282W        W26065   4.528  21.459   3.834
59283W        W26066  22.528   2.887   1.740
59284W        W26067  14.333  41.049   0.383
59285W        W26068  33.817  17.323   5.179
59286W        W26069   8.557  16.345   3.731
59287W        W26070  18.177  23.126   0.408
59288W        W26071  43.669  13.252  13.465
59289W        W26072  11.723  27.137  13.566
59290W        W26073   3.425  38.779   1.339
59291W        W26074  21.959   1.643  13.366
59292W        W26075  15.387  17.666  10.646
59293W        W26076  39.453  31.122  11.279
59294W        W26077  24.150  41.387   3.631
59295W        W26078  13.360  43.420   0.881
59296W        W26079   7.237  19.250   3.944
59297W        W26080  38.660  26.497   5.057
59298W        W26081   8.900  38.511   1.365
59299W        W26082  21.030   6.707   2.668
59300W        W26083  15.753   7.821  13.856
59301W        W26084  24.803  10.047   1.419
59302W        W26085   4.335   6.322  12.608
59303W        W26086  16.791  18.751   4.450
59304W        W26087  26.411  10.451  14.424
59305W        W26088  33.805  37.536  14.778
59306W        W26089  26.013  32.711  11.632
59307W        W26090  19.179  26.999  14.813
59308W        W26091  17.051  23.908  12.636
59309W        W26092  13.373  13.695  11.237
59310W        W26093   6.409  12.035   3.766
59311W        W26094  41.291  18.418   2.708
59312W        W26095  39.523  17.713   0.994
59313W        W26096  11.429  41.990   1.801
59314W        W26097  24.201  38.338   1.214
59315W        W26098  15.340   8.866  12.792
59316W        W26099   5.317  44.533   0.299
59317W        W26100  12.685  29.141  12.012
59318W        W26101  15.125   6.806   3.719
59319W        W26102  24.280  24.752   0.304
59320W        W26103  20.699  44.859   2.502
59321W        W26104  22.450  28.549  13.892
59322W        W26105   8.196  11.334   3.282
59323W        W26106   1.086  14.636   4.684
59324W        W26107  26.639  31.027   0.548
59325W        W26108   0.774  43.836   1.535
59326W        W26109  39.337   0.700   2.112
59327W        W26110  37.939  43.925  12.389
59328W        W26111  31.554  37.859  14.342
59329W        W26112  37.289  37.541  11.800
59330W        W26113   2.214  20.648   4.621
59331W        W26114  39.849  15.817  14.455
59332W        W26115  30.634  36.827   1.202
59333W        W26116   2.430  31.201   3.553
59334W        W26117  18.114   1.875   2.317
59335W        W26118   8.725  36.593   1.457
59336W        W26119   3.609  16.098   1.894
59337W        W26120   7.310  17.194   4.716
59338W        W26121  29.118  14.414   1.701
59339W        W26122  14.327  13.924   1.755
59340W        W26123  19.591  21.295  13.854
59341W        W26124   0.245  42.099   3.307
59342W        W26125   0.022  39.453  13.229
59343W        W26126  40.061  29.058  14.679
59344W        W26127  36.591  11.618   1.235
59345W        W26128  17.341  39.740  10.227
59346W        W26129   7.267   9.373   2.615
59347W        W26130  16.885  12.494   3.926
59348W        W26131  18.731  41.507  10.758
59349W        W26132  19.020  17.238  10.765
59350W        W26133   7.738   2.769   3.759
59351W        W26134  22.514  11.540  14.391
59352W        W26135  17.416  20.026  12.044
59353W        W26136  13.289   1.443   2.921
59354W        W26137  41.839  36.858  12.811
59355W        W26138   7.692  32.578   4.641
59356W        W26139  11.934  10.154   2.285
59357W        W26140  37.039  14.715  14.733
59358W        W26141  41.392  12.940   1.900
59359W        W26142  29.968  35.637   2.754
59360W        W26143  27.509   3.314  14.313
59361W        W26144  43.969   3.700   4.781
59362W        W26145  39.564  38.266  14.895
59363W        W26146  15.558  13.332  11.729
59364W        W26147  44.794  18.295   3.280
59365W        W26148   6.905  30.480  13.414
59366W        W26149   9.400  29.580   2.573
59367W        W26150  32.866  38.096  14.089
59368W        W26151  16.592  40.398   4.925
59369W        W26152  18.193  15.511  11.229
59370W        W26153  23.949  34.171   2.222
59371W        W26154  24.007  32.140  13.309
59372W        W26155  20.641  12.656  12.319
59373W        W26156   9.664   6.852   0.808
59374W        W26157  37.858  37.911  14.492
59375W        W26158  26.497  34.060   0.331
59376W        W26159  22.741  42.786  10.748
59377W        W26160  26.196  21.315   1.853
59378W        W26161  20.235  21.263  11.177
59379W        W26162  29.029  23.256   0.457
59380W        W26163   0.418   6.406   1.167
59381W        W26164  13.191   2.299   1.370
59382W        W26165   1.983  35.566   0.849
59383W        W26166  20.588  34.770   4.645
59384W        W26167   5.934  43.122   4.588
59385W        W26168   4.881   3.165   3.731
59386W        W26169  27.579  23.238  14.127
59387W        W26170   9.267  20.380  11.092
59388W        W26171  43.375  13.251   0.526
59389W        W26172   8.191  11.212   4.211
59390W        W26173  12.179   1.909   0.018
59391W        W26174   9.318  44.795   1.271
59392W        W26175  20.161   8.756   4.881
59393W        W26176  33.482  44.106   0.255
59394W        W26177  16.590  27.683   2.257
59395W        W26178  41.858  40.346   4.177
59396W        W26179   1.156  14.873   5.150
59397W        W26180  36.785   2.664  10.703
59398W        W26181   4.508  24.485   4.566
59399W        W26182  44.920   4.512   2.140
59400W        W26183  41.703  42.744   4.570
59401W        W26184  35.189  43.810  13.451
59402W        W26185   0.226   7.770  13.401
59403W        W26186   2.530  23.316   2.585
59404W        W26187  20.041  26.009   1.277
59405W        W26188  16.570   7.243   1.315
59406W        W26189  15.838   3.213   5.055
59407W        W26190  36.775   8.024   1.109
59408W        W26191  41.906  27.886  12.972
59409W        W26192  22.954  17.549  13.480
59410W        W26193  19.034  41.472   5.034
59411W        W26194  34.599  18.122   3.290
59412W        W26195  10.875   2.230   1.685
59413W        W26196  14.081  25.640  14.715
59414W        W26197  16.814  29.170   1.264
59415W        W26198  13.807   8.364   3.713
59416W        W26199  10.730  37.489  14.111
59417W        W26200  39.123  20.652   0.735
59418W        W26201  15.891  24.655  13.518
59419W        W26202  44.358  34.751  11.423
59420W        W26203   4.783  27.960   4.866
59421W        W26204  16.056  43.480   4.124
59422W        W26205  18.046  40.287   0.488
59423W        W26206  42.846  34.964  13.985
59424W        W26207  18.570  10.657   3.977
59425W        W26208  30.439  35.378  14.424
59426W        W26209  10.738  37.402   2.339
59427W        W26210  42.322  29.036  11.248
59428W        W26211  16.551  35.453   0.822
59429W        W26212  40.567  43.808  12.817
59430W        W26213   1.969  38.542  14.890
59431W        W26214  42.056  26.209   0.331
59432W        W26215  41.075   5.247   3.663
59433W        W26216  30.234  16.107  12.907
59434W        W26217   6.655  29.946  12.913
59435W        W26218   3.688  13.182   3.494
59436W        W26219   5.174  22.043   0.306
59437W        W26220  11.584  10.668  11.941
59438W        W26221  41.598  43.512   3.223
59439W        W26222  37.656  31.266  13.662
59440W        W26223  40.359   7.891  11.549
59441W        W26224   3.979  28.200  13.429
59442W        W26225  38.188  28.066  11.147
59443W        W26226  30.160  14.432   0.353
59444W        W26227  24.286  34.689  14.334
59445W        W26228   2.032  23.977  12.911
59446W        W26229  12.773  20.334  11.706
59447W        W26230  30.098  44.262  13.567
59448W        W26231  21.949  30.193  12.421
59449W        W26232  20.119  40.101   4.601
59450W        W26233  19.821  22.201   4.662
59451W        W26234  38.392  42.817   3.766
59452W        W26235  23.085  26.577  13.041
59453W        W26236  20.482  20.806  14.166
59454W        W26237  25.972  38.201   4.110
59455W        W26238  26.046  27.462   2.655
59456W        W26239  33.362  24.745   9.762
59457W        W26240  30.970  39.219  13.924
59458W        W26241  14.416  18.568   3.637
59459W        W26242  30.206  20.546  12.675
59460W        W26243  28.795  31.917  14.175
59461W        W26244  44.853  17.548   0.450
59462W        W26245  38.319   1.879   4.119
59463W        W26246  14.395  31.420  11.551
59464W        W26247  23.842   7.726   3.669
59465W        W26248  20.577  32.711   0.753
59466W        W26249  18.128   1.318   4.035
59467W        W26250  26.395   5.306  12.467
59468W        W26251  24.209  40.809  14.828
59469W        W26252  29.915  15.419  14.100
59470W        W26253  30.586  33.526  11.546
59471W        W26254  35.632  41.914   4.284
59472W        W26255  24.146  31.359  12.581
59473W        W26256   8.283   2.627  12.465
59474W        W26257  37.282  26.412   0.013
59475W        W26258  20.875  20.790   3.901
59476W        W26259  19.064  18.221  14.460
59477W        W26260  15.103   0.028   0.564
59478W        W26261  20.119  38.117   3.272
59479W        W26262  24.383  28.558   4.769
59480W        W26263  41.579  31.206   2.907
59481W        W26264  14.998   4.200  14.871
59482W        W26265  11.970   2.864  14.854
59483W        W26266  25.916  28.613  10.886
59484W        W26267   8.619  31.144  11.591
59485W        W26268  13.864   2.793   0.926
59486W        W26269  19.298  20.247   0.353
59487W        W26270   3.509  21.492  13.056
59488W        W26271  33.261  22.710   2.338
59489W        W26272   3.222  36.125  13.394
59490W        W26273  19.158  37.190   3.252
59491W        W26274  22.569  13.797   2.236
59492W        W26275  29.181   8.678  12.063
59493W        W26276  17.780  20.068   1.741
59494W        W26277  36.562  30.667  10.313
59495W        W26278   0.767  10.874   4.634
59496W        W26279   5.418   4.756   2.359
59497W        W26280  39.521   9.389  12.492
59498W        W26281  36.085  42.292   2.767
59499W        W26282   4.665   1.873   0.730
59500W        W26283  41.502  29.678  11.252
59501W        W26284   8.314   1.402  10.722
59502W        W26285   8.276  18.294  14.213
59503W        W26286  27.494   7.883   3.101
59504W        W26287  25.198  39.101   0.784
59505W        W26288   2.810  23.768   1.698
59506W        W26289  15.580  11.130  11.104
59507W        W26290  14.950  44.275  11.812
59508W        W26291  11.819  31.442   4.409
59509W        W26292   5.396  36.584  12.900
59510W        W26293  14.541  34.696  10.728
59511W        W26294  37.321  17.932   0.638
59512W        W26295  29.179  30.405  13.099
59513W        W26296   7.330  42.657   0.588
59514W        W26297   2.171  33.403  10.599
59515W        W26298   6.008   0.430  11.552
59516W        W26299  40.502   2.501  10.682
59517W        W26300   9.167  26.485  13.354
59518W        W26301  31.037  16.772   1.386
59519W        W26302  17.483   0.946   2.350
59520W        W26303  29.878   5.347  14.096
59521W        W26304  38.599  16.289   3.322
59522W        W26305   5.235   8.573   0.356
59523W        W26306  32.101  25.708   3.596
59524W        W26307  38.741  37.279   3.065
59525W        W26308   6.659  11.209   1.987
59526W        W26309  14.940   5.729   1.303
59527W        W26310  41.799  19.192   4.159
59528W        W26311   0.054  27.912  14.400
59529W        W26312  28.845  24.826   3.185
59530W        W26313  27.936   2.096  13.531
59531W        W26314  39.331  11.743   1.720
59532W        W26315  41.339   9.575  14.085
59533W        W26316  34.591  18.333  11.879
59534W        W26317  13.202  40.996   4.868
59535W        W26318  30.543  13.470   3.642
59536W        W26319   7.174   0.780  12.569
59537W        W26320   9.919  27.192   1.066
59538W        W26321   8.946   6.771  11.023
59539W        W26322  33.997  32.622   3.740
59540W        W26323  20.722  43.022   0.463
59541W        W26324  27.509  32.089  12.555
59542W        W26325  18.433  17.121  12.260
59543W        W26326  13.741  42.382  14.186
59544W        W26327  29.021  23.153  14.422
59545W        W26328  38.079  20.726  10.745
59546W        W26329  16.330  38.773   0.302
59547W        W26330  10.385  28.977   1.872
59548W        W26331  18.546  38.612  14.790
59549W        W26332  19.272  32.460  13.112
59550W        W26333  28.531  41.016   3.932
59551W        W26334  40.622   3.044   3.311
59552W        W26335   5.663  14.680   3.345
59553W        W26336  23.580  11.818   2.733
59554W        W26337  27.351  17.746  13.868
59555W        W26338   4.567  27.858   0.489
59556W        W26339  31.569  38.990  12.396
59557W        W26340  16.103   0.206   1.351
59558W        W26341  39.357  25.495  11.589
59559W        W26342  20.699   8.295  11.722
59560W        W26343  29.227  14.601  11.382
59561W        W26344  21.526  42.793   4.242
59562W        W26345  25.640  38.417  14.891
59563W        W26346   3.414  38.251   4.628
59564W        W26347  22.821  38.111  14.546
59565W        W26348  18.133  39.925   1.638
59566W        W26349   9.470   4.987  11.478
59567W        W26350  44.023  26.724   0.705
59568W        W26351  43.016   9.247  13.891
59569W        W26352   2.204   5.965   4.684
59570W        W26353   3.780  34.833  11.525
59571W        W26354  40.875  34.321   0.661
59572W        W26355  36.070  26.970  10.871
59573W        W26356  11.405  44.464  12.326
59574W        W26357  34.390   7.145  12.469
59575W        W26358  43.420   0.193  14.072
59576W        W26359  12.719  35.859   3.880
59577W        W26360  43.977  34.109  14.008
59578W        W26361   8.295   4.930   3.208
59579W        W26362   6.679  34.316  14.082
59580W        W26363  40.734   6.878   4.550
59581W        W26364  18.155  36.854  13.967
59582W        W26365  22.249  14.299  13.121
59583W        W26366  21.660   4.011  13.981
59584W        W26367  25.232  16.029   1.814
59585W        W26368  12.369  42.471   4.287
59586W        W26369  27.238  42.325  12.231
59587W        W26370  39.814  25.172  10.744
59588W        W26371  25.104  28.396   4.161
59589W        W26372  40.848  15.755  10.661
59590W        W26373  16.804   0.825   3.549
59591W        W26374  26.023  37.551   4.770
59592W        W26375   8.118  25.174  11.144
59593W        W26376  29.050   0.445   0.027
59594W        W26377  35.198   7.238   4.155
59595W        W26378  37.521   4.462  10.728
59596W        W26379  16.601  16.139  11.896
59597W        W26380  12.832   8.689  12.933
59598W        W26381  35.827  32.966   3.385
59599W        W26382  38.003   5.807   4.454
59600W        W26383  16.781  12.277  10.553
59601W        W26384   0.773  13.182   5.166
59602W        W26385  30.695   5.033  13.976
59603W        W26386   8.203   5.130   3.689
59604W        W26387  26.705  20.607  12.105
59605W        W26388  34.521  30.388  11.214
59606W        W26389  11.291  33.128   2.660
59607W        W26390   0.270  24.199   3.389
59608W        W26391  30.328  44.273  14.045
59609W        W26392  32.535  39.430   4.673
59610W        W26393   9.349  15.145   1.728
59611W        W26394  23.963  14.729  11.556
59612W        W26395  35.193  26.858   3.349
59613W        W26396   1.934  14.624  14.736
59614W        W26397  35.897  26.008  11.552
59615W        W26398   0.294  10.718   2.030
59616W        W26399  30.708  40.910  13.119
59617W        W26400  38.927  44.482  10.714
59618W        W26401  40.782  11.861   3.103
59619W        W26402  36.224   5.722   1.227
59620W        W26403  28.447  24.995  14.277
59621W        W26404  32.916   1.664  12.113
59622W        W26405  14.659  34.192   1.273
59623W        W26406  21.455  29.884  12.369
59624W        W26407  33.480  22.624   5.352
59625W        W26408  41.412   1.199  13.525
59626W        W26409  19.243  25.121   0.221
59627W        W26410   0.832  35.457   4.678
59628W        W26411  10.353  20.130  13.101
59629W        W26412  40.401  39.025   2.284
59630W        W26413   3.409   1.320   4.843
59631W        W26414  34.348   2.439   2.583
59632W        W26415  42.298  14.672   3.633
59633W        W26416  23.933  35.468  14.491
59634W        W26417  37.420  35.608   3.458
59635W        W26418   6.916  35.924  11.991
59636W        W26419   2.497  24.179   0.631
59637W        W26420  15.501  38.921  12.545
59638W        W26421  23.231  35.349  11.672
59639W        W26422  17.023  18.886  10.174
59640W        W26423   0.193  32.628   1.900
59641W        W26424  28.891  10.269   1.874
59642W        W26425  39.051  23.165   0.759
59643W        W26426   5.543  18.393  12.745
59644W        W26427  42.429  14.019   3.255
59645W        W26428  23.474  26.689   0.216
59646W        W26429  42.529  18.974  10.577
59647W        W26430  24.061   3.874   0.980
59648W        W26431  31.903  34.301  13.030
59649W        W26432   8.882   6.095   4.926
59650W        W26433  21.644  17.328  11.190
59651W        W26434   1.925  16.714  12.416
59652W        W26435  41.851  17.192   0.858
59653W        W26436  34.467   4.889   4.005
59654W        W26437  19.718  40.328  10.483
59655W        W26438   9.822  20.653   3.364
59656W        W26439   9.376   0.960  13.136
59657W        W26440  24.055   6.733  11.403
59658W        W26441   5.143  30.699   3.228
59659W        W26442  29.911  43.394   0.319
59660W        W26443  10.237   3.677  12.731
59661W        W26444  13.974  35.342  12.074
59662W        W26445  34.682  40.048   4.830
59663W        W26446  35.562   8.833   0.809
59664W        W26447  28.457  26.043  11.145
59665W        W26448  40.460  23.023   1.352
59666W        W26449  32.711  34.607  14.216
59667W        W26450  29.880   2.316   0.927
59668W        W26451  20.469   3.039   0.607
59669W        W26452   8.006   5.324   4.134
59670W        W26453   6.437   9.248   0.511
59671W        W26454   1.366   3.009  14.241
59672W        W26455  13.721  20.785   3.763
59673W        W26456  25.480   7.858  13.912
59674W        W26457   6.339  14.653   3.364
59675W        W26458  43.997  32.106  10.123
59676W        W26459   8.740   8.254   1.657
59677W        W26460  23.965  11.185  14.507
59678W        W26461  15.093  13.908  13.333
59679W        W26462  35.052  17.295   0.276
59680W        W26463   6.455   7.271   0.962
59681W        W26464   0.914  22.173   3.299
59682W        W26465  31.470  13.933   4.131
59683W        W26466  14.719  28.601   0.558
59684W        W26467  10.846  28.251  12.038
59685W        W26468   4.259  25.606   4.074
59686W        W26469  12.363   2.118  11.940
59687W        W26470  26.580   7.524  12.553
59688W        W26471   9.343  12.363   2.277
59689W        W26472  16.073  44.794  10.525
59690W        W26473  22.708  38.954   2.858
59691W        W26474  43.342  11.568   2.760
59692W        W26475   8.915   4.916   4.099
59693W        W26476   8.135  13.741   3.234
59694W        W26477  20.515  29.071   2.478
59695W        W26478  12.474  15.329   1.730
59696W        W26479  11.020  24.898  12.320
59697W        W26480  42.365  12.585   0.872
59698W        W26481  38.835   8.356  12.966
59699W        W26482  17.037  21.631  11.556
59700W        W26483  10.405  15.755   9.918
59701W        W26484  26.953  25.203   4.639
59702W        W26485  32.535  18.496   2.541
59703W        W26486  35.147   1.797   1.913
59704W        W26487  21.855   6.843   3.650
59705W        W26488   1.501  36.270  14.910
59706W        W26489   9.152  42.997  13.472
59707W        W26490  17.665  44.349  12.427
59708W        W26491  42.464  24.061   4.370
59709W        W26492  40.492   8.699   3.295
59710W        W26493  32.444  24.534   2.770
59711W        W26494  41.511   9.738   2.350
59712W        W26495  27.261  39.575   0.284
59713W        W26496  31.483   5.907   3.179
59714W        W26497  39.605  36.437   2.439
59715W        W26498  35.583  18.756  13.184
59716W        W26499  16.705  22.495   4.955
59717W        W26500  26.679   8.608  14.636
59718W        W26501  12.135  38.515  11.087
59719W        W26502  16.714  15.479   1.700
59720W        W26503  40.905  39.150  13.016
59721W        W26504  26.840   8.128  13.092
59722W        W26505  35.544  22.312   1.800
59723W        W26506  44.176  17.557  12.923
59724W        W26507  24.521  21.780   0.381
59725W        W26508   3.900   0.040   0.485
59726W        W26509  24.347   7.447  12.356
59727W        W26510  26.193  29.933  11.134
59728W        W26511  37.427   2.805  13.344
59729W        W26512  39.875  26.096  12.955
59730W        W26513  37.943  16.786  12.426
59731W        W26514   2.044  30.309   5.066
59732W        W26515   9.931   3.801  13.533
59733W        W26516  38.561  24.777   3.600
59734W        W26517  27.159  17.899  12.030
59735W        W26518  11.200  40.507  14.962
59736W        W26519   5.817  36.737   2.007
59737W        W26520  31.932   7.918  10.521
59738W        W26521  41.550   8.667   0.503
59739W        W26522  39.803   2.773   0.344
59740W        W26523  23.259  12.172   1.764
59741W        W26524  36.059  33.657   1.682
59742W        W26525  38.852  11.298  14.579
59743W        W26526   3.255  13.381   2.143
59744W        W26527  31.051  29.500  11.620
59745W        W26528  27.646  26.391   1.858
59746W        W26529   7.155   5.863  12.365
59747W        W26530  22.499  23.693   4.098
59748W        W26531  43.864   8.200  13.284
59749W        W26532  13.838  25.517   3.334
59750W        W26533  39.819  21.038   3.675
59751W        W26534  38.222  23.260   0.536
59752W        W26535  20.035  13.372   0.872
59753W        W26536   6.169  19.855   5.099
59754W        W26537  44.892  26.602   0.324
59755W        W26538   4.547   3.266   3.315
59756W        W26539  24.835  16.420  11.103
59757W        W26540  41.342  30.044   3.116
59758W        W26541  30.050  14.103   1.931
59759W        W26542  31.181  26.824   1.571
59760W        W26543  29.588  44.336  12.574
59761W        W26544  24.130   8.781  10.185
59762W        W26545  35.608   9.653  13.384
59763W        W26546  12.190  43.917  12.779
59764W        W26547  43.244  15.633   2.852
59765W        W26548  33.930  18.703   2.721
59766W        W26549  34.860  21.770   2.006
59767W        W26550  14.329  44.191   2.769
59768W        W26551  29.036  35.672  12.712
59769W        W26552  13.859  22.829  12.630
59770W        W26553  30.706   6.847  11.083
59771W        W26554  42.481  29.173  14.879
59772W        W26555  11.401  28.844   0.527
59773W        W26556  20.199  23.158  12.115
59774W        W26557   1.558   9.339   1.670
59775W        W26558   8.479  35.592   0.397
59776W        W26559   7.427  31.571   0.929
59777W        W26560  21.420  17.078  13.250
59778W        W26561  10.217  38.050  11.004
59779W        W26562  32.130  33.365  10.562
59780W        W26563  28.509   2.740   0.814
59781W        W26564  12.571  37.749   0.147
59782W        W26565  11.630  43.170   1.028
59783W        W26566  11.858  23.478  10.850
59784W        W26567  11.205  13.183   0.258
59785W        W26568  11.142  39.794   3.832
59786W        W26569  16.575  36.794   4.066
59787W        W26570   5.419  13.345  14.748
59788W        W26571   8.305  37.054   0.215
59789W        W26572   2.914  40.461  13.332
59790W        W26573  11.410  32.370   2.202
59791W        W26574  43.126  33.848  14.907
59792W        W26575   2.947  11.394   2.313
59793W        W26576  20.472  30.894   4.463
59794W        W26577  39.770  14.588  11.196
59795W        W26578  24.648   0.262  14.409
59796W        W26579   0.767   4.863  12.618
59797W        W26580  43.891   5.601   3.190
59798W        W26581  25.010  29.496  11.394
59799W        W26582   8.190  20.055  12.487
59800W        W26583  33.935  20.468  13.336
59801W        W26584  21.181   4.098  11.169
59802W        W26585  33.974  25.189  14.756
59803W        W26586  33.193  25.958   1.418
59804W        W26587  22.639  42.322  12.552
59805W        W26588  43.855  10.751   2.851
59806W        W26589   1.232  32.179   1.303
59807W        W26590   7.990  22.863  10.240
59808W        W26591  17.632   6.772   4.186
59809W        W26592  37.303  38.511  12.576
59810W        W26593  30.860  33.930  14.777
59811W        W26594  10.346   6.929   3.687
59812W        W26595  31.711  35.549  14.083
59813W        W26596  37.779  17.843  11.905
59814W        W26597  41.187  41.747   2.807
59815W        W26598  23.090  28.037  14.930
59816W        W26599  25.580  12.396  10.725
59817W        W26600  27.618  22.068  11.256
59818W        W26601   0.636  17.738  13.798
59819W        W26602  13.865  40.878   3.728
59820W        W26603  29.790   1.424  11.526
59821W        W26604   1.195  33.386   2.599
59822W        W26605  32.983  38.479   4.317
59823W        W26606  10.804  42.142  12.333
59824W        W26607  41.110   7.557  11.130
59825W        W26608  36.999   9.414  12.449
59826W        W26609  11.066  38.153   2.957
59827W        W26610  42.418  36.273  14.600
59828W        W26611  42.342  23.119  11.432
59829W        W26612  37.539   8.860   4.934
59830W        W26613  36.023  26.507   3.323
59831W        W26614  16.427  25.775  13.833
59832W        W26615  17.749   0.409  14.944
59833W        W26616   4.861  24.111  11.574
59834W        W26617  26.713  27.943   4.130
59835W        W26618  19.691  15.280  12.150
59836W        W26619   3.877   2.017  10.682
59837W        W26620  21.768  25.040  10.206
59838W        W26621  32.071  11.461   2.277
59839W        W26622  14.744   7.145   3.882
59840W        W26623  27.694  36.127  11.937
59841W        W26624  40.541  26.044  10.720
59842W        W26625   5.901  24.730  10.566
59843W        W26626  28.174  25.137  13.419
59844W        W26627   6.929  40.283   4.629
59845W        W26628  19.462  41.817   1.359
59846W        W26629  13.061  17.247   2.825
59847W        W26630  15.624  24.329   1.684
59848W        W26631  12.365   5.427  13.386
59849W        W26632   4.152  14.755  13.974
59850W        W26633   6.400  37.044   4.665
59851W        W26634  19.975  15.517   2.748
59852W        W26635   6.374  35.637   4.560
59853W        W26636  19.642  21.234  13.336
59854W        W26637  25.284   8.331   3.197
59855W        W26638  32.684   2.757   0.982
59856W        W26639  42.917  18.105   0.299
59857W        W26640  22.044  43.113  12.305
59858W        W26641   5.546  28.132   2.636
59859W        W26642   3.360  39.789  11.957
59860W        W26643  41.779  42.896  11.951
59861W        W26644  22.536  31.035  10.733
59862W        W26645  26.579   6.028  12.452
59863W        W26646   8.428  18.690  12.957
59864W        W26647   0.965  26.962   0.326
59865W        W26648  31.578  22.766  12.519
59866W        W26649   6.726  19.211  12.668
59867W        W26650   8.279   6.132   4.605
59868W        W26651  20.502  17.850   1.369
59869W        W26652  39.849  27.547  14.094
59870W        W26653  17.075  36.483  10.178
59871W        W26654  38.142  31.425  13.883
59872W        W26655  20.637  26.720  14.467
59873W        W26656  16.315  24.515   3.818
59874W        W26657  14.609  28.230   4.537
59875W        W26658   5.532  15.572  12.901
59876W        W26659  18.157  42.865   0.790
59877W        W26660   7.126   8.672   0.437
59878W        W26661  10.865  40.323  12.075
59879W        W26662   1.765  13.951  11.581
59880W        W26663  17.330  15.705   3.436
59881W        W26664  12.609   2.807   0.420
59882W        W26665  17.402  20.517   4.049
59883W        W26666  35.119   7.166  12.140
59884W        W26667  36.103  18.713  10.570
59885W        W26668  15.669  22.084  14.537
59886W        W26669  37.393   0.289  13.040
59887W        W26670  15.568   0.242   0.752
59888W        W26671  31.759  37.798   4.109
59889W        W26672   5.059  12.937   2.169
59890W        W26673  24.151  26.018  12.008
59891W        W26674  33.945  33.705   4.633
59892W        W26675   0.551   7.089   3.741
59893W        W26676  12.276   1.401  14.247
59894W        W26677  23.516  37.336   3.176
59895W        W26678  23.428  33.319   2.741
59896W        W26679  18.667  19.037   0.757
59897W        W26680   3.331  16.194  13.773
59898W        W26681  22.063  17.042   3.400
59899W        W26682  28.494   3.827   4.640
59900W        W26683  16.973   1.458  11.054
59901W        W26684  13.210  26.594   4.820
59902W        W26685   1.006  31.110   3.685
59903W        W26686  36.466  32.966  14.536
59904W        W26687   1.064  32.647   0.452
59905W        W26688  14.384  27.509  12.379
59906W        W26689  42.758   9.200  14.353
59907W        W26690  38.371  19.648  12.195
59908W        W26691  32.977  30.674   2.845
59909W        W26692  24.230   9.254  14.865
59910W        W26693  20.738  43.344   3.259
59911W        W26694  43.582   6.106  13.893
59912W        W26695  23.728  37.496  12.181
59913W        W26696  22.558  19.382  13.437
59914W        W26697  19.090  42.874   4.102
59915W        W26698  27.516   5.223  10.948
59916W        W26699  23.591   4.350  12.182
59917W        W26700  16.432  23.614   0.250
59918W        W26701  44.450  35.582   4.839
59919W        W26702   6.666  28.579   0.198
59920W        W26703  23.912  42.496  12.451
59921W        W26704  44.747  31.218   4.195
59922W        W26705   4.217  37.153   0.617
59923W        W26706  21.558   6.104   1.768
59924W        W26707  24.472  30.119  13.015
59925W        W26708  19.395  30.105  13.457
59926W        W26709  14.123  25.846   2.716
59927W        W26710  11.501   5.696  14.447
59928W        W26711  14.123  39.275  13.049
59929W        W26712   9.255  20.871  12.905
59930W        W26713   7.951  26.976   1.335
59931W        W26714  12.294  36.429  10.293
59932W        W26715  10.755  25.941  11.563
59933W        W26716  30.107  16.348  11.361
59934W        W26717   1.441  35.823   4.092
59935W        W26718  21.324  33.306   2.590
59936W        W26719  17.839  36.718   4.996
59937W        W26720  15.719  12.658  10.185
59938W        W26721  28.426  34.549  12.935
59939W        W26722   2.642  12.725  10.732
59940W        W26723  21.661  13.396  13.313
59941W        W26724  24.651  21.473   0.808
59942W        W26725  11.239  26.511  13.278
59943W        W26726  13.794  28.932   4.383
59944W        W26727   6.465  32.643   4.529
59945W        W26728   0.532   1.498   3.283
59946W        W26729  12.817  21.888  14.973
59947W        W26730  40.476  27.530  14.300
59948W        W26731  42.269   5.101   3.672
59949W        W26732   2.713   0.234   4.064
59950W        W26733  37.638  27.002  12.807
59951W        W26734  15.858  35.432   1.253
59952W        W26735   9.607  36.315   1.427
59953W        W26736  33.895  37.625  11.135
59954W        W26737  17.347   3.442   2.490
59955W        W26738  40.033  28.099   4.277
59956W        W26739  41.779   3.512   3.798
59957W        W26740  36.313  12.535  12.214
59958W        W26741   7.337  34.863  11.552
59959W        W26742  25.454  23.519   3.762
59960W        W26743  13.312  38.437  11.079
59961W        W26744  12.699  38.159  10.701
59962W        W26745  24.221  11.427  11.089
59963W        W26746  13.301   7.448  13.312
59964W        W26747  21.682  22.161   0.240
59965W        W26748  22.216  22.658   3.193
59966W        W26749  39.081  28.942  14.811
59967W        W26750  11.070   6.316  11.083
59968W        W26751  44.921  36.982   1.351
59969W        W26752  27.442  28.614   1.186
59970W        W26753  36.510  35.385   1.473
59971W        W26754  35.910  31.094   1.944
59972W        W26755  10.237   4.955   1.976
59973W        W26756  37.897  36.844  10.411
59974W        W26757  13.056  13.225  14.391
59975W        W26758  44.200  26.070   4.128
59976W        W26759  41.268  18.787  10.794
59977W        W26760   8.198  17.110   3.163
59978W        W26761  28.833  25.680  11.119
59979W        W26762  14.062  18.687  12.517
59980W        W26763  18.229  22.580   2.810
59981W        W26764  31.596  44.211   4.706
59982W        W26765   1.778  13.090   4.450
59983W        W26766   1.766   6.025  12.852
59984W        W26767   7.673  39.753  13.608
59985W        W26768  40.845  24.106  11.420
59986W        W26769  19.823  21.226  11.480
59987W        W26770  26.225  10.914   0.362
59988W        W26771   9.430   3.934  13.478
59989W        W26772   4.194  15.100  14.358
59990W        W26773  25.662  41.637  14.865
59991W        W26774  20.099  42.290   2.208
59992W        W26775   9.622  36.322  11.034
59993W        W26776   4.362   0.536  12.057
59994W        W26777  30.030  36.553   2.664
59995W        W26778  15.713  23.728  10.741
59996W        W26779   9.573  34.861  14.008
59997W        W26780   1.135   5.438  11.098
59998W        W26781  43.683  11.675  11.891
59999W        W26782  27.083   2.417  13.462
60000W        W26783   4.236  39.002  13.909
60001W        W26784   3.789  27.045  10.873
60002W        W26785  40.818  40.429   2.324
60003W        W26786   2.756  22.176  11.644
60004W        W26787   4.365   8.741  14.258
60005W        W26788  17.050  32.387   2.086
60006W        W26789   9.161  21.866   1.300
60007W        W26790  39.406   0.727   0.764
60008W        W26791  19.616  44.546  13.033
60009W        W26792   8.235   2.013   3.804
60010W        W26793  11.771   3.122  10.589
60011W        W26794  21.687  31.508  10.650
60012W        W26795  20.592  13.849  14.694
60013W        W26796  12.591  18.581  12.013
60014W        W26797  19.803  42.771   0.917
60015W        W26798  28.054  36.837   4.075
60016W        W26799  41.346  36.433  14.429
60017W        W26800   3.344  20.951  12.981
60018W        W26801  15.793  14.131   4.735
60019W        W26802  26.087  16.884   3.103
60020W        W26803  17.394  44.308   0.677
60021W        W26804  37.636  31.996  13.175
60022W        W26805   6.753   0.538  11.787
60023W        W26806  23.039   8.146  11.181
60024W        W26807  26.947  14.404  11.449
60025W        W26808  18.839   0.131  11.607
60026W        W26809  19.742  17.491   2.466
60027W        W26810   2.800  18.742  12.936
60028W        W26811  40.565  26.212  14.010
60029W        W26812   6.880   4.995  11.373
60030W        W26813  20.525   5.705   4.084
60031W        W26814  18.516   9.893  14.809
60032W        W26815  34.617  27.198   2.729
60033W        W26816  12.103   1.743  11.664
60034W        W26817  29.873  37.344  12.523
60035W        W26818   9.185  24.125   3.187
60036W        W26819  32.057   8.902   3.796
60037W        W26820  32.389  15.783  14.396
60038W        W26821  41.992  31.108  10.480
60039W        W26822  33.116  42.405  11.996
60040W        W26823  27.016  27.180  10.685
60041W        W26824  32.993   2.433   2.432
60042W        W26825  32.514  28.877  12.952
60043W        W26826  37.449  15.546  14.439
60044W        W26827  26.453   1.896  11.552
60045W        W26828  42.483  15.857  12.914
60046W        W26829  17.018   5.545   3.685
60047W        W26830  25.016  33.003  10.626
60048W        W26831  38.325  28.696   0.868
60049W        W26832  25.009  17.018  14.584
60050W        W26833  44.282  37.242   2.226
60051W        W26834  44.240  37.916   0.501
60052W        W26835  10.115   3.265   1.175
60053W        W26836  27.471  26.727   4.984
60054W        W26837  33.644   4.078  11.114
60055W        W26838  35.204  17.724  12.441
60056W        W26839  12.826  14.113  11.478
60057W        W26840   9.631  20.736  10.354
60058W        W26841   4.001  17.135  14.785
60059W        W26842  33.938  27.867  14.853
60060W        W26843   4.773  42.556   0.815
60061W        W26844   2.326  39.551   0.381
60062W        W26845  33.901  40.373   0.219
60063W        W26846  13.741  22.138   1.549
60064W        W26847  34.726  33.960  12.952
60065W        W26848  25.198  12.323  12.508
60066W        W26849  12.731  10.169   0.522
60067W        W26850   1.433   0.423   4.226
60068W        W26851  33.373   0.540   4.864
60069W        W26852  12.009  35.439   2.167
60070W        W26853  23.874  38.467   0.314
60071W        W26854  25.471  15.101   0.797
60072W        W26855  37.941   6.445  12.005
60073W        W26856  41.812  22.730  10.663
60074W        W26857  30.534  17.341   3.352
60075W        W26858  41.326  18.276   2.211
60076W        W26859  36.044  29.397   0.311
60077W        W26860  24.532  36.319   3.103
60078W        W26861   0.260   9.377   3.723
60079W        W26862  36.922  27.488   1.315
60080W        W26863  33.144  12.860  10.657
60081W        W26864   8.375  29.366   0.181
60082W        W26865   7.361  41.070  13.639
60083W        W26866  13.883  40.775   2.249
60084W        W26867   5.688  27.593  12.707
60085W        W26868   8.846  11.927  10.588
60086W        W26869  14.783  10.763  12.465
60087W        W26870   4.790  15.489   1.814
60088W        W26871  29.146   0.233  12.964
60089W        W26872  12.197  33.149   0.187
60090W        W26873  31.029  41.463  13.404
60091W        W26874  22.992  23.361  12.044
60092W        W26875  33.601  25.657   4.561
60093W        W26876  18.607  34.554   4.926
60094W        W26877  31.393  23.733   4.593
60095W        W26878  16.525   5.158  10.678
60096W        W26879  25.784  28.140   2.201
60097W        W26880  41.728  10.797  11.057
60098W        W26881  43.173   0.190   2.036
60099W        W26882  26.232  42.371  10.793
60100W        W26883  39.312  36.590  11.135
60101W        W26884  18.868  36.976  14.727
60102W        W26885  41.332  11.278   1.243
60103W        W26886  16.311  40.344  11.628
60104W        W26887  38.719  29.865   0.051
60105W        W26888  33.588  26.604  13.073
60106W        W26889   6.359  18.477   1.178
60107W        W26890  29.966  16.206   4.158
60108W        W26891  24.578  36.937  11.398
60109W        W26892   5.229  43.447  12.382
60110W        W26893  44.503  33.836   0.892
60111W        W26894  26.843   6.337  12.062
60112W        W26895   7.896  30.466  12.036
60113W        W26896  25.041   0.231  11.420
60114W        W26897   4.359  27.015  12.111
60115W        W26898  40.796   6.421  12.156
60116W        W26899  15.219  43.495  12.139
60117W        W26900  21.021  22.675   1.227
60118W        W26901  39.909   8.300  10.967
60119W        W26902  35.846  42.072  11.092
60120W        W26903  15.577  20.184  12.844
60121W        W26904   1.211  42.648  13.997
60122W        W26905  14.684  33.664   0.252
60123W        W26906  44.435  11.857  14.765
60124W        W26907   5.685  38.796   3.639
60125W        W26908  27.631   3.994   2.361
60126W        W26909  23.479   3.007  12.519
60127W        W26910  22.147  35.825  13.283
60128W        W26911  38.011  33.538  11.158
60129W        W26912  15.215  11.858   1.436
60130W        W26913  38.533   4.685   4.299
60131W        W26914   5.802  18.910  11.947
60132W        W26915  30.562  26.741   3.104
60133W        W26916  37.038  33.133   3.003
60134W        W26917  27.133   3.329  13.875
60135W        W26918  21.191  10.794   2.231
60136W        W26919  30.000   4.121  11.540
60137W        W26920  43.275  41.094   1.342
60138W        W26921  44.417  10.473  13.177
60139W        W26922  31.007  30.127  14.276
60140W        W26923  40.270  23.314  11.722
60141W        W26924  11.750  29.255   0.584
60142W        W26925   3.908   7.659  11.431
60143W        W26926  21.915   5.319  12.055
60144W        W26927  21.198  29.198   4.618
60145W        W26928  32.095   4.340   3.682
60146W        W26929   8.653  12.144   2.730
60147W        W26930  20.739  37.821   0.409
60148W        W26931   8.714  37.809   3.268
60149W        W26932  35.141   9.736  10.582
60150W        W26933  13.295  36.330  11.315
60151W        W26934  13.660  26.076   1.160
60152W        W26935  38.229   8.081   5.055
60153W        W26936  14.761  34.139  14.390
60154W        W26937  25.212  35.097  12.969
60155W        W26938  41.602  32.170   4.121
60156W        W26939  22.180  29.871   2.181
60157W        W26940  24.096  10.195   4.586
60158W        W26941  32.553   8.429  11.123
60159W        W26942  18.692   3.525  10.627
60160W        W26943  20.175  30.612  11.982
60161W        W26944  18.269  29.583   0.388
60162W        W26945   7.844   5.994   1.160
60163W        W26946  11.108  35.327   3.193
60164W        W26947   5.004   5.278   4.252
60165W        W26948   8.530  38.116  11.626
60166W        W26949  27.462  31.606   0.878
60167W        W26950  41.828  24.717   2.409
60168W        W26951  32.432   9.161   4.507
60169W        W26952  32.374  36.411  11.704
60170W        W26953  18.285  42.781  12.985
60171W        W26954   0.868  29.049  10.697
60172W        W26955  41.368  17.280  11.637
60173W        W26956   2.399  28.908  13.622
60174W        W26957  38.786  22.642   1.992
60175W        W26958   6.169   9.887   2.211
60176W        W26959  36.781   7.507   1.200
60177W        W26960   9.708  10.566   0.785
60178W        W26961  37.536  40.987   1.905
60179W        W26962  24.149  10.931  11.023
60180W        W26963  40.573  10.163   4.944
60181W        W26964  42.536  44.888  12.472
60182W        W26965   5.802  16.767   2.393
60183W        W26966  26.766   3.327   3.215
60184W        W26967  31.045  15.910  14.285
60185W        W26968  16.177  13.625  12.386
60186W        W26969  44.357   2.294  12.583
60187W        W26970   0.002   0.944  13.596
60188W        W26971   6.227   6.706   3.302
60189W        W26972  14.672  15.826   4.178
60190W        W26973  13.831   5.017   0.041
60191W        W26974   4.730  34.071  10.455
60192W        W26975  26.068  17.920   0.922
60193W        W26976  32.566   8.981   3.202
60194W        W26977  16.810  44.090   1.271
60195W        W26978  13.545  13.038  12.637
60196W        W26979  17.562  10.789  11.384
60197W        W26980   5.862  12.163   2.291
60198W        W26981   3.827  38.951   2.033
60199W        W26982  27.955   5.489  14.592
60200W        W26983  11.714  43.522  10.632
60201W        W26984  30.148  44.770   3.498
60202W        W26985  30.978  25.615  13.381
60203W        W26986  25.226  22.136   3.828
60204W        W26987   5.317  17.596  11.380
60205W        W26988  35.087  10.804   0.363
60206W        W26989  30.589  11.248  12.072
60207W        W26990  13.673  26.524  14.518
60208W        W26991  41.171  17.268   2.357
60209W        W26992  36.431  36.562  10.726
60210W        W26993  39.024  13.479   5.077
60211W        W26994   6.563   2.964   2.128
60212W        W26995  36.024  30.719   1.603
60213W        W26996   5.408  25.438   2.831
60214W        W26997  24.596   4.883  11.782
60215W        W26998  44.847   0.492  12.017
60216W        W26999  24.753  44.750  10.755
60217W        W27000  25.715  16.984  11.034
60218W        W27001  42.981  26.996   3.166
60219W        W27002  44.964  15.609  12.166
60220W        W27003  21.580  23.081   4.535
60221W        W27004  39.761  39.333  11.412
60222W        W27005  22.189   7.411   4.300
60223W        W27006  11.280  15.339   1.160
60224W        W27007  33.970  29.211   4.658
60225W        W27008  16.761  20.476  13.237
60226W        W27009  19.792  26.006   0.588
60227W        W27010   4.219  36.356  10.694
60228W        W27011  14.709  28.656  11.267
60229W        W27012  22.029   8.801  14.856
60230W        W27013  35.880  14.068  13.064
60231W        W27014   9.877  44.765  13.535
60232W        W27015   4.657  10.191  11.931
60233W        W27016  11.201  25.011   1.209
60234W        W27017   4.921  21.172   3.674
60235W        W27018   9.579  37.262   4.066
60236W        W27019  11.681  20.936   2.716
60237W        W27020  33.626   2.352  13.031
60238W        W27021  35.453   1.724   0.228
60239W        W27022  10.637  29.025  12.505
60240W        W27023  14.931   5.374  14.515
60241W        W27024  21.314   7.732   3.709
60242W        W27025  24.928  38.366  14.780
60243W        W27026  35.260  23.455  14.520
60244W        W27027  34.074   6.263  13.838
60245W        W27028  24.932  31.392   0.856
60246W        W27029  11.890  34.527  11.246
60247W        W27030  33.572  17.077   0.121
60248W        W27031  42.553  35.008  14.434
60249W        W27032   2.483  18.270  11.290
60250W        W27033  13.937  14.712   4.914
60251W        W27034   7.889   9.955   4.343
60252W        W27035  18.969  32.694   4.159
60253W        W27036  27.089  13.862   2.353
60254W        W27037  32.431  18.706  11.384
60255W        W27038  40.375  13.031  13.033
60256W        W27039  15.779  33.508  11.503
60257W        W27040  34.580  23.655  13.602
60258W        W27041   5.482  20.147   3.155
60259W        W27042  40.670  36.877   3.685
60260W        W27043   8.749  11.198   2.782
60261W        W27044  15.699  20.954   1.882
60262W        W27045   2.373  41.195  11.939
60263W        W27046  28.057   5.887   4.790
60264W        W27047  29.599  34.335   4.670
60265W        W27048  41.402   2.216   3.537
60266W        W27049  26.270   1.815  11.056
60267W        W27050  39.258  33.892   3.653
60268W        W27051   9.508  14.793  13.986
60269W        W27052  13.561  39.411   2.728
60270W        W27053  43.350  27.099   0.841
60271W        W27054   6.902  40.480  13.443
60272W        W27055  27.119  42.244  10.662
60273W        W27056  15.616   2.810   0.435
60274W        W27057  29.644  25.885   2.926
60275W        W27058  43.979  10.192  13.949
60276W        W27059  17.134  35.796  12.082
60277W        W27060  31.461  37.990  13.836
60278W        W27061  39.312   5.703  13.323
60279W        W27062  15.094  41.899   1.224
60280W        W27063  35.541  11.778  13.111
60281W        W27064   1.999   7.899   1.890
60282W        W27065  13.715  12.827  12.129
60283W        W27066  24.216  34.570  12.970
60284W        W27067  35.116   3.608  13.540
60285W        W27068  34.876  40.913  10.629
60286W        W27069  25.893  18.413   1.815
60287W        W27070   4.880  38.427  14.745
60288W        W27071  16.184  29.374  13.956
60289W        W27072   3.624  41.378  14.846
60290W        W27073  13.610   5.246   1.702
60291W        W27074  44.701  18.073   1.300
60292W        W27075  10.584  42.825  13.737
60293W        W27076  14.745  15.408   0.321
60294W        W27077  19.251  20.778   0.346
60295W        W27078  11.322  42.013  11.638
60296W        W27079  15.296  44.889  12.075
60297W        W27080  14.865  41.932   1.700
60298W        W27081  16.243   9.899   0.275
60299W        W27082   3.431  12.679   3.341
60300W        W27083  43.497   2.018   3.159
60301W        W27084   7.793   7.198  13.001
60302W        W27085  31.172  17.599  10.721
60303W        W27086  43.293  24.660   2.715
60304W        W27087   7.898  40.694  13.445
60305W        W27088  28.073  39.924  11.992
60306W        W27089  41.849  42.815   2.999
60307W        W27090  32.744  20.194  11.903
60308W        W27091   6.515  18.379   5.185
60309W        W27092  34.018  42.462   2.865
60310W        W27093  21.326  12.412   1.421
60311W        W27094  25.172  14.786   2.473
60312W        W27095  17.309  26.659  10.220
60313W        W27096   7.737   0.299  10.814
60314W        W27097  15.316  14.810  12.017
60315W        W27098  25.397   5.605   0.796
60316W        W27099  14.735  24.225   0.486
60317W        W27100  42.265  37.848   2.811
60318W        W27101   6.644   4.698  12.272
60319W        W27102  39.507  33.950   3.201
60320W        W27103  28.042   5.256   3.121
60321W        W27104  29.773  24.025   4.406
60322W        W27105  11.254  38.638   2.214
60323W        W27106  44.768  39.607   0.646
60324W        W27107  22.910  15.426   4.551
60325W        W27108   5.294  17.486  11.889
60326W        W27109  25.666   2.739  11.754
60327W        W27110   7.150  15.209   2.359
60328W        W27111   1.849  38.142  11.631
60329W        W27112  37.646  10.773   1.934
60330W        W27113  28.789  16.235  14.935
60331W        W27114  39.594  37.901  10.754
60332W        W27115  31.575   7.310   2.581
60333W        W27116  41.930   1.772   9.862
60334W        W27117  41.401  12.664   4.074
60335W        W27118  15.273   8.959   3.449
60336W        W27119  20.279  17.840   4.268
60337W        W27120  20.593  12.797  13.264
60338W        W27121  33.389  37.224  13.344
60339W        W27122   0.399  36.955  11.157
60340W        W27123  16.521  43.817   2.204
60341W        W27124  32.125  11.870  12.518
60342W        W27125  25.008  35.992   2.166
60343W        W27126  27.632  21.462  14.959
60344W        W27127  39.867  12.833   3.294
60345W        W27128  17.145  24.956  10.723
60346W        W27129  25.496  32.012  11.313
60347W        W27130  17.039   9.363  12.029
60348W        W27131  38.841   3.692  10.406
60349W        W27132  38.350  12.113  10.701
60350W        W27133  41.125  25.199  12.257
60351W        W27134  18.607   5.004   4.586
60352W        W27135  31.862  22.953   3.264
60353W        W27136   2.420  35.518   1.790
60354W        W27137  34.334  14.421  13.002
60355W        W27138  30.135   7.200  10.692
60356W        W27139   1.312  42.207  11.564
60357W        W27140  44.301  18.698   0.466
60358W        W27141  23.618  28.918  12.822
60359W        W27142   2.690  44.481  11.061
60360W        W27143  12.509  25.993  12.047
60361W        W27144  11.692   8.899  12.910
60362W        W27145   8.871   2.293  10.673
60363W        W27146  34.894   4.204   1.240
60364W        W27147  11.258   6.883   2.173
60365W        W27148  32.146  17.105  11.080
60366W        W27149  38.323  38.675   3.927
60367W        W27150  14.300   1.881   1.031
60368W        W27151  42.413  33.406   2.754
60369W        W27152  23.977   9.219   0.307
60370W        W27153   3.311  20.072  12.629
60371W        W27154  24.355  43.840  13.491
60372W        W27155   7.998   4.337  12.484
60373W        W27156  32.001   9.866   3.863
60374W        W27157  39.868  36.085  11.571
60375W        W27158  35.595  17.426   3.100
60376W        W27159   2.418  37.940  14.427
60377W        W27160  33.120  40.359  12.081
60378W        W27161  18.827  44.736   0.390
60379W        W27162   2.802  36.910   0.274
60380W        W27163  17.247  37.909  11.481
60381W        W27164  19.530  11.941   2.129
60382W        W27165  32.532  34.888  11.923
60383W        W27166  35.547  43.480  14.347
60384W        W27167  10.258   2.949   4.360
60385W        W27168   2.957   9.264  11.865
60386W        W27169  21.075   7.893   1.944
60387W        W27170   6.995  15.274   3.262
60388W        W27171  35.676  27.039   4.661
60389W        W27172  35.054  36.201   1.261
60390W        W27173  23.258  29.145  13.887
60391W        W27174  23.081  25.691   2.437
60392W        W27175  22.740  30.316  14.270
60393W        W27176   8.233  41.450   1.793
60394W        W27177  38.794  29.953   4.702
60395W        W27178  31.979  18.091  13.129
60396W        W27179  43.570  10.266   9.750
60397W        W27180  25.063  20.812  12.587
60398W        W27181  28.180  37.053  14.347
60399W        W27182  36.603  41.290   0.382
60400W        W27183   9.681  35.903  14.305
60401W        W27184  33.802   5.868   3.918
60402W        W27185   2.472  35.651  12.980
60403W        W27186  33.375  17.625   0.927
60404W        W27187  37.925  17.839  13.325
60405W        W27188  31.735   2.148   1.390
60406W        W27189  22.132   4.377   1.046
60407W        W27190  23.193  22.978   2.638
60408W        W27191   7.411  41.360   2.442
60409W        W27192  29.973  34.050   2.948
60410W        W27193  41.874  19.942  11.915
60411W        W27194  31.547  31.139  11.998
60412W        W27195  40.823  43.521  12.462
60413W        W27196  29.371   7.240  11.984
60414W        W27197  19.019  33.041  14.923
60415W        W27198  27.714  34.060  11.444
60416W        W27199   4.220  26.821  11.648
60417W        W27200  44.276  41.122   2.245
60418W        W27201  28.199  24.119  12.419
60419W        W27202  10.351  36.018  12.486
60420W        W27203  22.008   8.690  12.604
60421W        W27204  13.501  16.746  13.471
60422W        W27205   4.948   9.393  10.973
60423W        W27206  16.549  11.913   0.763
60424W        W27207  25.075  34.492  13.814
60425W        W27208  26.810  40.530  12.511
60426W        W27209   9.286  23.267   4.911
60427W        W27210  31.235  40.468  13.483
60428W        W27211  24.994  30.485   0.370
60429W        W27212  26.001  43.074  14.489
60430W        W27213  30.784  27.491   3.751
60431W        W27214   1.752  31.928   3.635
60432W        W27215  42.683  11.618  13.327
60433W        W27216  16.033  21.491   3.766
60434W        W27217  23.134  23.500  14.923
60435W        W27218  23.777  27.948   2.642
60436W        W27219  39.320  16.140   3.025
60437W        W27220  21.454   9.317  13.567
60438W        W27221   0.380  41.510   0.965
60439W        W27222  20.802   7.207   2.623
60440W        W27223  12.758  13.121  10.734
60441W        W27224  22.121   3.567  13.299
60442W        W27225  16.377  37.570  13.059
60443W        W27226  11.199   5.651   4.569
60444W        W27227  13.422  41.617  12.526
60445W        W27228   3.367   7.839   4.082
60446W        W27229  24.852  27.816  12.129
60447W        W27230  41.914  22.833   2.744
60448W        W27231  20.432  31.197  13.415
60449W        W27232   8.320  26.538   2.311
60450W        W27233  34.639  24.069   4.631
60451W        W27234  35.030  32.875  11.573
60452W        W27235   4.309  12.841   4.615
60453W        W27236  40.030   5.710  13.366
60454W        W27237   7.733  38.852  10.630
60455W        W27238  40.077  31.470  10.882
60456W        W27239  29.037  18.864  13.438
60457W        W27240   1.941  24.199   3.700
60458W        W27241  44.284  17.602   2.829
60459W        W27242  11.196  31.427   3.938
60460W        W27243  24.024   2.806  13.459
60461W        W27244  22.694  15.795   3.264
60462W        W27245  42.597   1.891   2.917
60463W        W27246  33.445  35.476   2.782
60464W        W27247  20.981  19.026  13.412
60465W        W27248  39.409  40.982  13.451
60466W        W27249  33.271   0.400  11.083
60467W        W27250  37.837  15.667  13.442
60468W        W27251  13.373  34.111   2.816
60469W        W27252  20.830   0.764   1.949
60470W        W27253  16.925  25.439  10.794
60471W        W27254   8.730  30.030  12.081
60472W        W27255  20.905  23.768  10.388
60473W        W27256  12.935  33.584  14.106
60474W        W27257  32.022   6.934   0.994
60475W        W27258  17.549  21.072  11.065
60476W        W27259   9.402  37.703   1.587
60477W        W27260  16.804  32.152   0.852
60478W        W27261  40.824  18.274  14.879
60479W        W27262  44.554   4.721   4.087
60480W        W27263  18.840   2.938  14.815
60481W        W27264  39.612  30.561   1.308
60482W        W27265  24.948  27.773  10.899
60483W        W27266  31.974  22.997   2.375
60484W        W27267   6.771  18.225   3.570
60485W        W27268  10.099  42.932   4.115
60486W        W27269  29.020  18.581  10.726
60487W        W27270  26.867  22.855   5.024
60488W        W27271  21.099   8.370   4.806
60489W        W27272  33.539   4.621   4.577
60490W        W27273  30.998   6.098   4.056
60491W        W27274   8.137   5.241  10.932
60492W        W27275   5.734  10.440   1.675
60493W        W27276   5.338   7.249  12.063
60494W        W27277  42.935  21.098  13.441
60495W        W27278  37.943   7.792  11.061
60496W        W27279  14.545  36.374   4.156
60497W        W27280  16.110   8.728  14.453
60498W        W27281  32.905  26.183  11.155
60499W        W27282   4.331  21.837   4.144
60500W        W27283  38.844  32.431   1.155
60501W        W27284   7.149  13.675  10.672
60502W        W27285  31.589  40.526  12.198
60503W        W27286  18.258  27.184   4.730
60504W        W27287  19.577  44.503   4.692
60505W        W27288  41.543  12.480   5.547
60506W        W27289  25.832   6.254   3.746
60507W        W27290  16.284  18.057   2.799
60508W        W27291   1.760  12.097   3.262
60509W        W27292  11.140  40.790   2.736
60510W        W27293  18.598  44.698  14.500
60511W        W27294  20.512  34.959   2.856
60512W        W27295  43.291   6.757  10.274
60513W        W27296   4.406   6.651   3.693
60514W        W27297  32.597  21.474   2.626
60515W        W27298  36.621  21.217  11.646
60516W        W27299   0.819  28.407   3.103
60517W        W27300  15.673   6.689   0.651
60518W        W27301  24.455   4.062   4.237
60519W        W27302  18.704  22.605   3.643
60520W        W27303  25.997  16.217   2.279
60521W        W27304   0.855  44.417  10.867
60522W        W27305  21.005  29.389  12.872
60523W        W27306  11.900  41.010   0.389
60524W        W27307  30.566  13.564   4.495
60525W        W27308  14.122  25.635  12.421
60526W        W27309  21.922  18.730   1.679
60527W        W27310  38.380  35.494  12.009
60528W        W27311  29.446   3.187   4.153
60529W        W27312   7.442  19.145  12.927
60530W        W27313  20.835  16.907  11.000
60531W        W27314  26.045  21.478   3.130
60532W        W27315  13.125  39.844  13.875
60533W        W27316   1.208  38.508   1.190
60534W        W27317  37.389  11.603  10.320
60535W        W27318  18.503  27.134   2.392
60536W        W27319   9.894  38.441  11.452
60537W        W27320  25.564  27.909   3.847
60538W        W27321   1.535  26.448  13.022
60539W        W27322  22.109  27.422  14.523
60540W        W27323  26.419  26.638  10.058
60541W        W27324  24.151  19.552   3.787
60542W        W27325  30.408   3.701  12.874
60543W        W27326  23.529   1.002  11.145
60544W        W27327  24.868  11.649   4.111
60545W        W27328  18.862  25.197  10.702
60546W        W27329  14.119  15.757  14.701
60547W        W27330  40.462  15.329   2.724
60548W        W27331   6.855  17.496   4.710
60549W        W27332  29.107  28.528  13.085
60550W        W27333  19.716   1.939   1.392
60551W        W27334   4.627   3.790  14.819
60552W        W27335  44.824  18.831  11.702
60553W        W27336  42.292  10.414  14.081
60554W        W27337  32.188  26.101  12.548
60555W        W27338   1.965  13.182   4.917
60556W        W27339  28.998   6.084   4.646
60557W        W27340   3.964  19.040   3.713
60558W        W27341  39.262  20.113  11.170
60559W        W27342   1.115  26.013   0.489
60560W        W27343  42.355  13.205  12.266
60561W        W27344   8.207  21.095   3.176
60562W        W27345  41.340  19.726  13.501
60563W        W27346  35.560  44.293  11.536
60564W        W27347  15.183  29.962   4.810
60565W        W27348   3.296  43.430  11.513
60566W        W27349  19.165  36.529   3.838
60567W        W27350  38.623  41.085   2.269
60568W        W27351  32.618  27.500  12.903
60569W        W27352   6.371  16.132  14.484
60570W        W27353  41.302  12.424  10.428
60571W        W27354   2.512  12.204  13.794
60572W        W27355   9.269   8.357  13.653
60573W        W27356   0.116   2.872  12.378
60574W        W27357   6.232  24.855  14.043
60575W        W27358  44.363  29.660   1.276
60576W        W27359   5.181  29.867  12.121
60577W        W27360  17.138   1.471   3.288
60578W        W27361  23.791  19.618  10.666
60579W        W27362   9.893  43.914   1.832
60580W        W27363  26.426  36.149  10.936
60581W        W27364  24.939  12.129  13.423
60582W        W27365  39.356   0.982   4.545
60583W        W27366  13.294  21.651  14.874
60584W        W27367  17.158  21.654   4.680
60585W        W27368  26.989  20.160   2.228
60586W        W27369  38.448  29.668   3.644
60587W        W27370   4.238  42.571  13.476
60588W        W27371  17.745  12.701   1.351
60589W        W27372  22.617  12.303   3.400
60590W        W27373  15.545  13.339   3.645
60591W        W27374  41.408  29.960  12.512
60592W        W27375   5.584  18.166   0.926
60593W        W27376   7.182  21.482  11.209
60594W        W27377  28.581  30.523   3.429
60595W        W27378   8.574  36.803   1.016
60596W        W27379  31.066  10.376   1.187
60597W        W27380  14.370  44.245   1.867
60598W        W27381  37.787  21.067   2.858
60599W        W27382  20.105  14.479  12.018
60600W        W27383  34.955  24.723  11.154
60601W        W27384  17.885  42.525  12.774
60602W        W27385  15.674  19.541   1.305
60603W        W27386  36.495   6.281  14.243
60604W        W27387  40.683  43.969  13.779
60605W        W27388  43.430  16.254   1.521
60606W        W27389  26.033   5.856   1.809
60607W        W27390  41.054   3.470   3.277
60608W        W27391   3.452  12.846   1.434
60609W        W27392  33.373  22.289   2.695
60610W        W27393   0.870  21.515   1.015
60611W        W27394  37.274   8.246   1.088
60612W        W27395  31.630  21.467   1.636
60613W        W27396   9.105  40.598   0.322
60614W        W27397  16.599  28.561  13.991
60615W        W27398   9.239  41.306  12.180
60616W        W27399   4.449  35.921   2.886
60617W        W27400  15.675  44.832  11.738
60618W        W27401   2.332   7.704  10.454
60619W        W27402   0.995   1.222   0.888
60620W        W27403  30.348   9.290   2.850
60621W        W27404  20.163  31.648   4.548
60622W        W27405  35.421  33.940   2.649
60623W        W27406   8.943  42.389   1.793
60624W        W27407  10.784  33.805  13.444
60625W        W27408  25.761  18.875   1.991
60626W        W27409  34.482   5.244   3.623
60627W        W27410   6.612  30.979   4.021
60628W        W27411  40.076  28.509  11.944
60629W        W27412  26.135  22.045   4.416
60630W        W27413   1.503  40.459   3.329
60631W        W27414  29.638  24.494  12.434
60632W        W27415  34.576  11.755   1.397
60633W        W27416  31.233   9.737  12.423
60634W        W27417  23.512  28.024   1.707
60635W        W27418  31.344  29.646  12.114
60636W        W27419  27.045  42.506   4.357
60637W        W27420  23.667  26.205  13.473
60638W        W27421  21.901  23.249  12.645
60639W        W27422  25.041  31.646   1.802
60640W        W27423   6.642  16.487  13.780
60641W        W27424  12.685   3.255  14.418
60642W        W27425   1.214  36.880  13.525
60643W        W27426  30.023  26.100  14.786
60644W        W27427  24.854   1.552   4.025
60645W        W27428   2.199   9.754   2.133
60646W        W27429   5.955   6.965  14.731
60647W        W27430  17.894  31.893  10.771
60648W        W27431   4.709  44.842   4.577
60649W        W27432  32.214  25.183  14.717
60650W        W27433   4.745  35.408   3.581
60651W        W27434   2.513   6.734   0.414
60652W        W27435  15.723  14.590   4.444
60653W        W27436  14.678   9.735   1.225
60654W        W27437  44.895  12.126   3.626
60655W        W27438  20.138   0.729  13.393
60656W        W27439  19.711  21.055  11.938
60657W        W27440   7.797  24.909   4.628
60658W        W27441  11.250  23.577   0.743
60659W        W27442  40.712   3.750   0.211
60660W        W27443  13.310  37.655  14.150
60661W        W27444  40.364  31.959  10.027
60662W        W27445  36.029  20.771  10.785
60663W        W27446   0.253   7.800  14.250
60664W        W27447  14.861   3.715  14.704
60665W        W27448  36.992  38.890   3.723
60666W        W27449  18.710  38.622  12.988
60667W        W27450   4.797  29.200  13.369
60668W        W27451  14.812  44.486   2.779
60669W        W27452  27.656  33.915  14.797
60670W        W27453  32.871  15.282   3.048
60671W        W27454  15.526  14.793   2.153
60672W        W27455  23.131  21.171   3.948
60673W        W27456  28.948  17.990   0.302
60674W        W27457  21.483  37.953   0.895
60675W        W27458   9.578   5.240  11.045
60676W        W27459   7.748   8.948   1.180
60677W        W27460  17.187   3.173  13.886
60678W        W27461  17.006  38.114  11.024
60679W        W27462  41.456  44.413   3.118
60680W        W27463  20.214  31.595   1.616
60681W        W27464  26.209  24.924  14.624
60682W        W27465  24.110  30.653  14.497
60683W        W27466  30.503  43.254  13.500
60684W        W27467  37.492  16.538   4.254
60685W        W27468  42.428  21.103   2.802
60686W        W27469  34.975  42.423  10.709
60687W        W27470  12.331   7.782  13.752
60688W        W27471  31.229  30.398   4.183
60689W        W27472  17.882  39.594  14.452
60690W        W27473  29.390  30.568   2.363
60691W        W27474  41.435   9.834   1.440
60692W        W27475   1.848   5.651   3.278
60693W        W27476   3.198   8.233  12.923
60694W        W27477  25.588  24.042   1.880
60695W        W27478  11.497  24.148  13.896
60696W        W27479   5.894  20.166   0.875
60697W        W27480  30.135  39.350  10.405
60698W        W27481   9.752  38.019  13.684
60699W        W27482  29.647  20.065  14.755
60700W        W27483  26.505   2.336   2.430
60701W        W27484  39.634   1.830   4.908
60702W        W27485  44.249  41.812   4.450
60703W        W27486  34.441  35.550   2.254
60704W        W27487  38.061   2.300  13.037
60705W        W27488  36.743  39.712   2.181
60706W        W27489  33.022  17.600   3.627
60707W        W27490   7.700   0.621  11.713
60708W        W27491  19.499  30.051  10.586
60709W        W27492  17.846  38.900   4.431
60710W        W27493  30.136  19.019   3.327
60711W        W27494  38.535   0.301   3.802
60712W        W27495  22.230   7.114   3.353
60713W        W27496  33.037  37.133  14.884
60714W        W27497  10.540  21.604  14.161
60715W        W27498  11.107  33.624   2.697
60716W        W27499  42.920  39.222   1.234
60717W        W27500  44.298  18.562   4.644
60718W        W27501  10.424   4.522  12.944
60719W        W27502   5.912  34.838   4.637
60720W        W27503  33.154  11.113  12.789
60721W        W27504  33.329  35.438   4.584
60722W        W27505  26.352  38.869   1.653
60723W        W27506  14.880  17.143  12.647
60724W        W27507   4.159  14.219  10.826
60725W        W27508  29.910  41.516  14.372
60726W        W27509   1.487  22.057   1.595
60727W        W27510   3.151   3.230   1.949
60728W        W27511  23.994  29.910  12.996
60729W        W27512  21.047  38.373   0.404
60730W        W27513  14.985  42.005  10.961
60731W        W27514   8.331  17.463   0.388
60732W        W27515  27.011  35.524   1.909
60733W        W27516   4.428  34.383   3.841
60734W        W27517  17.192  36.511   2.807
60735W        W27518  33.836  25.787   3.191
60736W        W27519   1.266  42.409   1.706
60737W        W27520  31.538  27.542  13.867
60738W        W27521  24.419  42.805  13.554
60739W        W27522  19.123  10.535  12.255
60740W        W27523  40.552   4.439  11.718
60741W        W27524  40.785  28.435  10.621
60742W        W27525   2.459  28.951  10.698
60743W        W27526  29.461  26.204  11.003
60744W        W27527  20.561   0.394   5.601
60745W        W27528  34.939  25.232  10.230
60746W        W27529   9.971  24.109  11.677
60747W        W27530  43.020  41.307  12.067
60748W        W27531   5.692   3.001  11.109
60749W        W27532  39.414  18.948  13.532
60750W        W27533  19.809  33.380  12.829
60751W        W27534   3.847   5.341   2.273
60752W        W27535  12.751  13.141  12.251
60753W        W27536  42.864   1.257  10.517
60754W        W27537   4.379   7.454  11.528
60755W        W27538  38.798  21.156   3.611
60756W        W27539  42.957   5.115   2.412
60757W        W27540  26.944  17.864   4.772
60758W        W27541  36.101  33.627   4.204
60759W        W27542  12.675  35.453   1.281
60760W        W27543  36.005  28.408   5.125
60761W        W27544  29.405  27.506   3.876
60762W        W27545   7.918  32.995  11.562
60763W        W27546  40.257  43.304  14.004
60764W        W27547  14.277  36.145  14.747
60765W        W27548  16.108  27.982  10.719
60766W        W27549  22.547   7.328   0.948
60767W        W27550  10.371  28.330  14.012
60768W        W27551  38.552  39.289  13.382
60769W        W27552  19.679  39.871   1.555
60770W        W27553  44.760  14.624   0.302
60771W        W27554  11.289  42.062  12.545
60772W        W27555  16.391  35.920  10.728
60773W        W27556  21.722  19.621   5.072
60774W        W27557  39.849  10.163  14.791
60775W        W27558  42.668   4.182  13.013
60776W        W27559  31.718  35.696  11.410
60777W        W27560  22.487  27.105   2.692
60778W        W27561  36.824  37.657   3.272
60779W        W27562   7.609   4.292   3.234
60780W        W27563  25.990  23.631   3.704
60781W        W27564  38.215  35.536   2.203
60782W        W27565   7.699  23.024   0.676
60783W        W27566   1.607   7.705   4.492
60784W        W27567  31.208  28.721   4.621
60785W        W27568  23.002  11.279   3.414
60786W        W27569  12.959   0.046  14.075
60787W        W27570  34.423  25.723  14.507
60788W        W27571  20.720  24.413  11.171
60789W        W27572  26.126  36.492   1.351
60790W        W27573  44.530  38.784  13.779
60791W        W27574  25.435  15.595   2.176
60792W        W27575  26.973  42.765  14.914
60793W        W27576  11.463  28.659   2.305
60794W        W27577  16.686  34.942   2.729
60795W        W27578   2.279  13.754   4.581
60796W        W27579  37.861   2.337  11.804
60797W        W27580  43.738  30.095  10.599
60798W        W27581  35.558  30.504   1.790
60799W        W27582  29.362  37.933  12.248
60800W        W27583  24.888  20.799  13.928
60801W        W27584  36.631  42.901   4.476
60802W        W27585  33.916  31.398  13.858
60803W        W27586  39.056  18.088   3.611
60804W        W27587  31.961  14.606   1.642
60805W        W27588  32.156  24.539   2.341
60806W        W27589  38.477  33.398   3.012
60807W        W27590   8.895   8.099  11.526
60808W        W27591   5.230  33.881  12.639
60809W        W27592  20.337  19.512   1.828
60810W        W27593  25.179  18.190   3.351
60811W        W27594  29.649  28.626   3.205
60812W        W27595   6.367  22.167  14.929
60813W        W27596  43.596  24.197  10.402
60814W        W27597   3.184  20.707  13.430
60815W        W27598  12.072  27.193   3.632
60816W        W27599  24.070   9.446   3.132
60817W        W27600  33.087  21.473   3.973
60818W        W27601   4.961   0.811  12.948
60819W        W27602   9.641  30.887   2.170
60820W        W27603  34.497   5.248  13.849
60821W        W27604  36.076  36.117  11.536
60822W        W27605   7.227  29.109  12.902
60823W        W27606  30.034  16.123   3.107
60824W        W27607  29.407   5.643  13.517
60825W        W27608  19.628  11.170  10.572
60826W        W27609  11.680   0.925  10.713
60827W        W27610  35.543  39.465   1.408
60828W        W27611  16.244  10.044  13.907
60829W        W27612   0.890  11.715   2.331
60830W        W27613  38.422  25.415  14.267
60831W        W27614  44.486   2.446  13.068
60832W        W27615   1.725  15.276   4.481
60833W        W27616  21.158  17.979  12.100
60834W        W27617  43.005  11.879   0.189
60835W        W27618  25.641  16.596  12.328
60836W        W27619  41.574  29.103  13.300
60837W        W27620   5.656  10.934   4.048
60838W        W27621  42.441  14.279   4.444
60839W        W27622   9.383  15.768   2.235
60840W        W27623  11.423  28.604  12.972
60841W        W27624  29.877  27.831   1.283
60842W        W27625  44.311  26.992   4.369
60843W        W27626  44.663   1.250   0.972
60844W        W27627  24.635  23.761  11.542
60845W        W27628  30.504  11.217  13.851
60846W        W27629  12.147  24.008   0.271
60847W        W27630  23.961  37.950   0.408
60848W        W27631  27.121   0.958   3.680
60849W        W27632   4.627  13.991  10.799
60850W        W27633  15.816  21.089   2.685
60851W        W27634  37.997   9.181  11.642
60852W        W27635   2.741   8.113  13.843
60853W        W27636  14.605  27.929   1.730
60854W        W27637   1.941   5.463  11.658
60855W        W27638  27.397  26.161  12.966
60856W        W27639  22.726   3.970   0.451
60857W        W27640  38.410  41.263   4.656
60858W        W27641  39.941  15.628  13.982
60859W        W27642  42.791  40.298   2.160
60860W        W27643  21.966  33.673  12.386
60861W        W27644  37.959   5.265  13.809
60862W        W27645  20.823  15.539   3.287
60863W        W27646  17.360   4.332   2.915
60864W        W27647   7.888  39.181  13.052
60865W        W27648  15.555   7.935   2.728
60866W        W27649  34.097  24.422  14.256
60867W        W27650   7.106  18.697   1.285
60868W        W27651  44.342  44.876   2.682
60869W        W27652  25.543   5.684  11.611
60870W        W27653   6.175  43.463  13.815
60871W        W27654  22.460   2.229  12.925
60872W        W27655  41.369  33.549   2.581
60873W        W27656  20.486  11.255  13.550
60874W        W27657  13.761   7.152  14.011
60875W        W27658  21.553  31.375  11.569
60876W        W27659  35.406  26.545   2.820
60877W        W27660  33.859  14.546  12.816
60878W        W27661  44.421  37.535   4.527
60879W        W27662  29.715  20.636   1.785
60880W        W27663  24.713   5.674  10.331
60881W        W27664  15.829  30.060  10.260
60882W        W27665   1.890   3.415  14.700
60883W        W27666   9.115  33.679  10.799
60884W        W27667   7.825  35.911  14.794
60885W        W27668   6.418   5.308   4.316
60886W        W27669  19.405  14.162  12.431
60887W        W27670  14.434  20.639   0.158
60888W        W27671  34.831   5.549  12.001
60889W        W27672  34.114  22.038  14.534
60890W        W27673  40.838   5.837   2.002
60891W        W27674  14.906  11.989   9.663
60892W        W27675  10.231  28.536  13.314
60893W        W27676  32.228  41.345  12.247
60894W        W27677  17.701  38.757  14.788
60895W        W27678   0.113  13.401   0.838
60896W        W27679  28.668   1.417  12.347
60897W        W27680  24.459  30.794   1.326
60898W        W27681   5.974  29.167  11.199
60899W        W27682  42.848   5.703  10.566
60900W        W27683   4.822  15.459   3.632
60901W        W27684  17.699   4.261   3.645
60902W        W27685  20.538  27.925   4.802
60903W        W27686   2.742  17.595  12.415
60904W        W27687  18.279  11.442  14.268
60905W        W27688  13.148  14.025   4.939
60906W        W27689  38.962   8.864  12.866
60907W        W27690  36.593  27.918   4.624
60908W        W27691  17.582  13.784  12.425
60909W        W27692  40.107   6.419  14.487
60910W        W27693  22.630  39.033  14.787
60911W        W27694  38.011  17.623   0.755
60912W        W27695   8.264  23.494  12.911
60913W        W27696  34.034  15.300  14.047
60914W        W27697  18.286  14.600   4.048
60915W        W27698  35.394  15.839   4.121
60916W        W27699  23.191   9.891   0.423
60917W        W27700  37.379  23.582   4.209
60918W        W27701  10.370   4.848  13.540
60919W        W27702  14.608  43.821  12.911
60920W        W27703   0.864  33.769   3.370
60921W        W27704  14.505   8.317   2.201
60922W        W27705   2.948  16.884  13.395
60923W        W27706  40.361  34.821  12.974
60924W        W27707  40.418  39.789   2.766
60925W        W27708   6.365  21.990   3.903
60926W        W27709  43.622  33.964  12.979
60927W        W27710   9.690   3.844  11.329
60928W        W27711  23.160  22.052   4.589
60929W        W27712  36.018   3.949  13.088
60930W        W27713  23.555   6.890  10.244
60931W        W27714  31.118  26.923   1.042
60932W        W27715  32.404  16.046   1.519
60933W        W27716  32.751  39.980  12.871
60934W        W27717   0.832   0.427  11.875
60935W        W27718  28.711  17.791   2.651
60936W        W27719  25.074  10.292   9.919
60937W        W27720  13.628   3.828  14.218
60938W        W27721  34.252  17.916   4.597
60939W        W27722  24.643  41.609   3.751
60940W        W27723  13.310  21.930   1.748
60941W        W27724  12.988  34.907   0.736
60942W        W27725  20.664  42.448   4.495
60943W        W27726   9.412   8.733  14.826
60944W        W27727   5.716  36.399  12.219
60945W        W27728   0.913   2.740  13.277
60946W        W27729  15.786  17.162  11.096
60947W        W27730  25.942  20.785   0.479
60948W        W27731  44.197   5.698   3.815
60949W        W27732   6.625  27.998   1.872
60950W        W27733  38.563  43.810   1.702
60951W        W27734  14.287  30.503  10.125
60952W        W27735  28.980   3.850  13.533
60953W        W27736  35.049  30.153  12.888
60954W        W27737  38.399   8.290  11.653
60955W        W27738  21.329  37.864  13.503
60956W        W27739  40.701  34.183   4.066
60957W        W27740   2.440   7.800  13.515
60958W        W27741  39.954  11.142  14.454
60959W        W27742   3.898   2.281  13.016
60960W        W27743  44.819  24.600   2.616
60961W        W27744   7.330   9.287   9.902
60962W        W27745  22.054  14.781  13.289
60963W        W27746   1.602  29.576  14.570
60964W        W27747  22.563  24.234   0.207
60965W        W27748  28.608  23.255  10.563
60966W        W27749   2.432  34.267  12.395
60967W        W27750   1.820   6.865  11.682
60968W        W27751  18.058  14.824   3.641
60969W        W27752  36.777  39.086   2.862
60970W        W27753   2.210   1.191   2.691
60971W        W27754  19.629  24.122  12.278
60972W        W27755   8.740  40.214   1.958
60973W        W27756  44.881  25.857   4.752
60974W        W27757  42.052   4.810   0.807
60975W        W27758  22.000  33.622  11.495
60976W        W27759  34.503   5.587   4.680
60977W        W27760  25.298  44.448  14.771
60978W        W27761  41.031  26.576   0.831
60979W        W27762   3.674  39.333   0.296
60980W        W27763  22.971  20.285   1.981
60981W        W27764  32.644  44.900   4.156
60982W        W27765  21.163   9.914   2.348
60983W        W27766  31.917  43.298   0.233
60984W        W27767  32.972  30.484   1.861
60985W        W27768   1.687   3.808   3.219
60986W        W27769  28.110  22.583   3.993
60987W        W27770  30.990  27.191   0.027
60988W        W27771   8.875  31.467  13.593
60989W        W27772  32.012   0.780   3.202
60990W        W27773  42.974  15.082   0.971
60991W        W27774   0.032  25.166   3.714
60992W        W27775  26.584  42.366   4.594
60993W        W27776  28.646  37.325  11.555
60994W        W27777  26.889  22.494   4.124
60995W        W27778  11.076  17.968  14.358
60996W        W27779  38.075   9.329  12.134
60997W        W27780   3.387  21.431   1.595
60998W        W27781  35.573   0.745  11.964
60999W        W27782  41.988  43.837  12.015
61000W        W27783  28.252  35.260   4.073
61001W        W27784  10.296  33.385  10.684
61002W        W27785  20.867  18.242  12.749
61003W        W27786  26.261   3.348   4.139
61004W        W27787  25.626  18.379   1.191
61005W        W27788   3.417  10.982   1.216
61006W        W27789  16.215  25.283   3.324
61007W        W27790  25.039  32.422   3.149
61008W        W27791  36.985  34.484   1.394
61009W        W27792  20.225   5.710   4.497
61010W        W27793   7.151  41.388   1.463
61011W        W27794  31.448   5.812  10.824
61012W        W27795  14.208  44.369  12.566
61013W        W27796  34.678  44.335  11.222
61014W        W27797  21.228  41.361   1.334
61015W        W27798   5.580  34.842  11.568
61016W        W27799  12.692  38.846  13.003
61017W        W27800  10.731  43.816  13.870
61018W        W27801  42.723  18.230   1.762
61019W        W27802   9.411  16.630  11.670
61020W        W27803  29.894  10.677  11.604
61021W        W27804   9.748  35.451  13.939
61022W        W27805  44.790  22.044  14.291
61023W        W27806  19.591   8.648   2.668
61024W        W27807   2.419  12.597   2.856
61025W        W27808  42.286  16.816  13.198
61026W        W27809   4.378  42.021   4.690
61027W        W27810  13.782  31.711   0.420
61028W        W27811   8.758   6.010  14.685
61029W        W27812  14.533  26.525   0.896
61030W        W27813  18.658   4.890  13.676
61031W        W27814   3.886   6.806  11.929
61032W        W27815  26.778  42.843   4.607
61033W        W27816  20.045  37.985  14.297
61034W        W27817  10.863  24.163  10.629
61035W        W27818  18.222  42.250   1.249
61036W        W27819   1.025  32.420   3.689
61037W        W27820   6.386  34.085  13.331
61038W        W27821  33.809  21.924   2.300
61039W        W27822  30.708  20.151  10.762
61040W        W27823  33.091  16.658   2.123
61041W        W27824  35.439  16.282  12.118
61042W        W27825  34.336  23.965  11.047
61043W        W27826  30.767  18.756  11.924
61044W        W27827  27.017   9.714   3.163
61045W        W27828  11.672   8.715  14.746
61046W        W27829  40.890  27.013   2.357
61047W        W27830  30.147  37.934  14.447
61048W        W27831  29.430  19.959   1.339
61049W        W27832  30.080   7.727  10.926
61050W        W27833  21.264   2.440   1.808
61051W        W27834  43.480  24.546  11.626
61052W        W27835  18.222  42.695  14.407
61053W        W27836  32.347  21.261  12.671
61054W        W27837   8.716  41.474   3.618
61055W        W27838  19.020  21.602   3.699
61056W        W27839   5.644   2.545  12.014
61057W        W27840  24.751   1.909  13.810
61058W        W27841  29.308  15.998  11.160
61059W        W27842  43.613  40.722  10.328
61060W        W27843  14.283  22.578  13.367
61061W        W27844  23.076  19.729  12.298
61062W        W27845  23.546  40.610  10.978
61063W        W27846   1.554  32.605   2.935
61064W        W27847  41.326   1.279  14.213
61065W        W27848  42.990  37.946  13.681
61066W        W27849  38.960  17.841  11.497
61067W        W27850  27.614   2.328   2.310
61068W        W27851  19.655  43.419  12.801
61069W        W27852   2.496  31.671   3.822
61070W        W27853  10.629  39.646   2.215
61071W        W27854   4.364  35.788   2.397
61072W        W27855  19.078  28.977  11.874
61073W        W27856  12.478  29.972  14.022
61074W        W27857  16.257  34.291  14.238
61075W        W27858   7.132   3.534   3.677
61076W        W27859   8.401  41.102  11.652
61077W        W27860  43.536  21.926   2.788
61078W        W27861  35.153   9.886   5.195
61079W        W27862  33.622  42.543   4.166
61080W        W27863   8.103  16.103   2.224
61081W        W27864  20.626  16.760   0.176
61082W        W27865  24.864   3.219  11.203
61083W        W27866  16.622  32.974  12.115
61084W        W27867  30.109  21.389   3.276
61085W        W27868  11.840  11.276  11.520
61086W        W27869  41.455   6.398  13.168
61087W        W27870   8.027   9.775  14.246
61088W        W27871  24.936   1.323  10.743
61089W        W27872  43.555  36.410   4.434
61090W        W27873   6.963  26.522   4.111
61091W        W27874   7.331  44.035  10.914
61092W        W27875  37.338  22.018   1.823
61093W        W27876  13.883  44.292  10.619
61094W        W27877   9.050   6.337  13.057
61095W        W27878  39.620  23.574   2.816
61096W        W27879   0.135  33.440  10.575
61097W        W27880  35.808  20.469  11.679
61098W        W27881  23.957  10.715   2.629
61099W        W27882   4.763   8.323  11.567
61100W        W27883  39.732   5.232  13.311
61101W        W27884  17.863  10.407   3.304
61102W        W27885   6.946   0.752  13.027
61103W        W27886  34.040  11.808   1.389
61104W        W27887  10.100  21.850  14.297
61105W        W27888  19.062  35.111   3.339
61106W        W27889   8.452  44.741   1.329
61107W        W27890  24.065  36.514   3.255
61108W        W27891  39.017  20.199   3.383
61109W        W27892  29.488   2.407   4.505
61110W        W27893  25.931  39.444   3.079
61111W        W27894  11.704  36.105  11.952
61112W        W27895  23.095   7.279   3.082
61113W        W27896  34.194   8.058  14.426
61114W        W27897  25.165  40.843  14.834
61115W        W27898   3.655  14.097   4.262
61116W        W27899   3.711  25.227  13.082
61117W        W27900  34.690  43.977   4.192
61118W        W27901  18.714  35.822  13.474
61119W        W27902  14.077  20.952  13.751
61120W        W27903  36.492  36.473  11.592
61121W        W27904  11.794   4.533  12.975
61122W        W27905  25.745   8.701  11.167
61123W        W27906  32.239  18.152   4.803
61124W        W27907  43.047  38.325  13.311
61125W        W27908  24.499  31.178  11.524
61126W        W27909  28.884   5.820   0.482
61127W        W27910  26.081  39.265   2.619
61128W        W27911  34.320   4.453  12.401
61129W        W27912   2.077  11.073   2.273
61130W        W27913   3.959  36.112  14.896
61131W        W27914  36.080  29.224  12.544
61132W        W27915  19.864  22.742   4.112
61133W        W27916   6.825  41.473  11.754
61134W        W27917  31.880  21.235   2.808
61135W        W27918  39.375   6.245  13.849
61136W        W27919  28.463  20.053  14.759
61137W        W27920  34.981  13.819   3.298
61138W        W27921   2.753  38.863   3.196
61139W        W27922  41.883  19.473   9.854
61140W        W27923   7.682   4.758  12.495
61141W        W27924  17.629   5.688   3.172
61142W        W27925  13.835  28.165   4.022
61143W        W27926  15.669  21.857   3.619
61144W        W27927   9.350  38.481  14.334
61145W        W27928  35.994  34.297  12.583
61146W        W27929  18.738  39.914   2.283
61147W        W27930   9.827   7.886   1.260
61148W        W27931   9.759  40.551  14.937
61149W        W27932  31.506  29.618  10.685
61150W        W27933   9.548  38.590   4.506
61151W        W27934  34.913  16.377   1.781
61152W        W27935  22.679  23.765   1.781
61153W        W27936  38.861  30.497  10.541
61154W        W27937  19.332   8.676  11.127
61155W        W27938  43.153  17.177   4.564
61156W        W27939  16.015  44.564   4.178
61157W        W27940  26.219  31.201   4.605
61158W        W27941  18.961  21.705  10.615
61159W        W27942  44.962  21.000   2.890
61160W        W27943  40.024  16.762  13.816
61161W        W27944  44.835   3.669  11.270
61162W        W27945  24.393  24.183  10.684
61163W        W27946  36.599   9.817  13.360
61164W        W27947  35.348  31.137   1.380
61165W        W27948  37.922  34.525  11.391
61166W        W27949  17.660  25.751   2.180
61167W        W27950  25.681   7.842   4.529
61168W        W27951  21.922   7.392   1.872
61169W        W27952   6.276  18.714  12.063
61170W        W27953  20.713   4.909  14.460
61171W        W27954   6.215  26.693  14.914
61172W        W27955  19.091  19.316  11.464
61173W        W27956   1.649  28.920   0.766
61174W        W27957  17.095  15.737  13.559
61175W        W27958   0.981  40.360   3.514
61176W        W27959  21.699  23.684   3.700
61177W        W27960  17.295  39.025  14.278
61178W        W27961  17.343  35.530   2.863
61179W        W27962  25.721  29.870  14.314
61180W        W27963   2.936  43.022   2.680
61181W        W27964   7.692   1.881  11.296
61182W        W27965  15.819  37.627   3.128
61183W        W27966  40.249   9.791   3.520
61184W        W27967  21.157  11.715  12.001
61185W        W27968  37.546  14.068   2.798
61186W        W27969  17.419  27.540   1.052
61187W        W27970   9.209  26.009  13.102
61188W        W27971  10.196  23.095  10.639
61189W        W27972  16.843  44.392  10.534
61190W        W27973  26.634  35.801  11.770
61191W        W27974   8.671  41.175   4.728
61192W        W27975  18.037  33.354   4.482
61193W        W27976  41.813  20.889   4.203
61194W        W27977  39.962  40.304  13.600
61195W        W27978  43.949   8.107   0.029
61196W        W27979  34.470   6.149  14.370
61197W        W27980  27.155  29.064  12.031
61198W        W27981  26.377  42.835   3.260
61199W        W27982  36.027   1.885  11.878
61200W        W27983  19.798  44.344  11.174
61201W        W27984   8.895   0.492  14.007
61202W        W27985  44.862   5.632  13.658
61203W        W27986   0.967  24.099  10.640
61204W        W27987  23.864  31.587  13.448
61205W        W27988   8.957  38.516  11.006
61206W        W27989  35.774  14.517  12.003
61207W        W27990  36.893  41.992   3.828
61208W        W27991  29.690  28.978   1.455
61209W        W27992   3.173  35.288  12.003
61210W        W27993   4.487  36.985  13.431
61211W        W27994  24.909  30.913  11.733
61212W        W27995  26.774  33.933  10.582
61213W        W27996  44.077   7.745   2.627
61214W        W27997  23.037  12.086   2.265
61215W        W27998  27.829   1.890   4.082
61216W        W27999  22.156  27.575   0.029
61217W        W28000  14.686  21.590  14.921
61218W        W28001  28.099  31.557   3.664
61219W        W28002  34.786  19.165   0.514
61220W        W28003  33.014  19.009  12.394
61221W        W28004  11.752  12.333  13.149
61222W        W28005  10.099   9.859  12.208
61223W        W28006   9.359  21.868   0.406
61224W        W28007  32.871  44.413   3.298
61225W        W28008  42.438   6.746  11.967
61226W        W28009   1.187  19.646  11.448
61227W        W28010   9.204  24.312  11.293
61228W        W28011   6.431   8.937  13.910
61229W        W28012  34.612  14.693  13.423
61230W        W28013  10.021  28.238   5.003
61231W        W28014   2.316  20.442   1.295
61232W        W28015  11.247   7.346  14.772
61233W        W28016  17.879  28.984  12.631
61234W        W28017  27.050  29.015   0.739
61235W        W28018  20.877  14.105   3.346
61236W        W28019   2.975  19.483  11.054
61237W        W28020  20.192   7.329   3.756
61238W        W28021  19.820  44.877   1.930
61239W        W28022   3.987  12.075   3.703
61240W        W28023   5.856  37.118   3.328
61241W        W28024   5.270  24.389  10.814
61242W        W28025  33.576  29.137   1.658
61243W        W28026  24.753  14.554   2.780
61244W        W28027  33.991  42.017  10.689
61245W        W28028  23.621  34.220  10.873
61246W        W28029  13.876  31.581   4.661
61247W        W28030   4.494  21.190   2.854
61248W        W28031  31.565  24.287  11.090
61249W        W28032  29.961  19.465   3.163
61250W        W28033  29.787   6.599  13.474
61251W        W28034  42.981  28.675   0.376
61252W        W28035  11.568  25.059  13.245
61253W        W28036   3.997  19.461  11.008
61254W        W28037  41.803   8.802   5.613
61255W        W28038  27.926  16.586  10.495
61256W        W28039  20.579  14.587   3.387
61257W        W28040  33.908  37.188  11.410
61258W        W28041  19.072  38.320   1.524
61259W        W28042   4.031  19.291  13.359
61260W        W28043  11.705  32.649   0.071
61261W        W28044   2.591  24.690   0.835
61262W        W28045  27.856  29.676  14.519
61263W        W28046   2.231   4.860   0.292
61264W        W28047  22.991  18.147   2.162
61265W        W28048   6.366   4.330  14.803
61266W        W28049  31.419  36.901   1.746
61267W        W28050  44.715  11.473  12.634
61268W        W28051   1.842  30.049   3.272
61269W        W28052  12.414  22.546  14.018
61270W        W28053  37.891   8.900   2.773
61271W        W28054  16.193  44.546  13.863
61272W        W28055  38.264  12.105  14.365
61273W        W28056  22.315  35.041   1.774
61274W        W28057   0.441  21.770  11.203
61275W        W28058  23.436  17.724  10.745
61276W        W28059  31.135  42.318   4.099
61277W        W28060  44.943  27.640   2.790
61278W        W28061  38.937  36.442  13.100
61279W        W28062  39.512  24.528  14.324
61280W        W28063  29.958   5.420   3.732
61281W        W28064  43.821  21.554  14.705
61282W        W28065  35.924   0.964   3.136
61283W        W28066  16.643  39.316   1.978
61284W        W28067  23.577  37.517  13.430
61285W        W28068   1.944  23.782   3.310
61286W        W28069  39.747  31.957  12.828
61287W        W28070  36.172   0.040  14.869
61288W        W28071  16.404   2.787   1.831
61289W        W28072  16.081  34.726  12.008
61290W        W28073  26.535  43.952  10.380
61291W        W28074  20.602   0.764   2.929
61292W        W28075  40.417   2.233  14.063
61293W        W28076  21.954  44.847  13.821
61294W        W28077   8.817  43.555   2.231
61295W        W28078  23.118  36.016  14.172
61296W        W28079  33.381   4.865  14.324
61297W        W28080  12.112  17.681  14.941
61298W        W28081  17.812  44.483  12.958
61299W        W28082   3.214  14.379   2.150
61300W        W28083   5.829  36.210  13.599
61301W        W28084  22.725  23.700   0.248
61302W        W28085  19.514  31.663  13.404
61303W        W28086  33.077  18.372   3.348
61304W        W28087  13.771  30.687  13.436
61305W        W28088   7.282  31.142   1.154
61306W        W28089  22.541  40.960   0.902
61307W        W28090  37.619   2.983   0.915
61308W        W28091  21.560   1.235   3.434
61309W        W28092  37.484  36.266  14.975
61310W        W28093  41.309  37.900  14.765
61311W        W28094  28.212  24.630   2.133
61312W        W28095  12.306  33.704  11.005
61313W        W28096  33.047  25.783  12.902
61314W        W28097   2.767  39.808   0.400
61315W        W28098   0.091   1.153   2.792
61316W        W28099  22.231  18.502   0.200
61317W        W28100  21.394   7.989  14.278
61318W        W28101  39.688  40.338  12.287
61319W        W28102   7.856  34.883  13.485
61320W        W28103  38.975  34.111   3.270
61321W        W28104  22.442  42.299   0.255
61322W        W28105  37.912  37.067  12.349
61323W        W28106  43.233  19.294   2.220
61324W        W28107   2.302  18.080   1.747
61325W        W28108  16.348  19.601   3.386
61326W        W28109   8.365   7.122  14.033
61327W        W28110  34.984  43.964   0.797
61328W        W28111  20.302  35.101   2.201
61329W        W28112   5.067  11.777   2.873
61330W        W28113  14.193  16.982  13.378
61331W        W28114  43.316   4.870  12.670
61332W        W28115  26.423  32.875  11.244
61333W        W28116  41.369  41.372   3.103
61334W        W28117   0.857  33.036  13.452
61335W        W28118   6.653  34.921  14.781
61336W        W28119  14.214  24.926  14.369
61337W        W28120  18.105   8.740  12.794
61338W        W28121  24.025  14.141  10.766
61339W        W28122  11.354   1.817  10.600
61340W        W28123   1.120   6.068   0.770
61341W        W28124  12.320   8.276   3.414
61342W        W28125  25.868  16.668  13.394
61343W        W28126  32.979   5.785  12.092
61344W        W28127  22.827  33.559  12.729
61345W        W28128  26.188  36.835   2.672
61346W        W28129  19.427  40.739  10.727
61347W        W28130  23.828  31.900   2.557
61348W        W28131  17.839  13.459   4.806
61349W        W28132  13.039  15.616  12.924
61350W        W28133  18.153  16.599  13.472
61351W        W28134   3.972  36.849  13.475
61352W        W28135  29.447  39.878   3.766
61353W        W28136  33.580  38.489  14.399
61354W        W28137  40.067  22.536   2.640
61355W        W28138  35.861  29.126   0.880
61356W        W28139   5.803   7.224   2.740
61357W        W28140  20.553  15.788   1.793
61358W        W28141  25.188  44.015   4.454
61359W        W28142  18.668  13.456   1.745
61360W        W28143  25.731  20.821   3.671
61361W        W28144  29.411  14.804   2.106
61362W        W28145  24.633  23.523   3.259
61363W        W28146  43.502  39.298  10.763
61364W        W28147  13.067  12.680  14.060
61365W        W28148   9.247  42.886  11.126
61366W        W28149  26.101  21.624  13.186
61367W        W28150  33.539  33.953  14.195
61368W        W28151  23.224  28.930  11.180
61369W        W28152  27.140  23.434  13.861
61370W        W28153  20.339   7.271   0.870
61371W        W28154   5.810   2.828   3.712
61372W        W28155  11.041  29.736  14.763
61373W        W28156  10.782  32.948   4.476
61374W        W28157   1.493  42.493  12.728
61375W        W28158  32.858  23.143   2.677
61376W        W28159  35.028   1.443   0.428
61377W        W28160  44.144   5.868   2.799
61378W        W28161   9.210   5.960   2.275
61379W        W28162   9.587  20.275   4.061
61380W        W28163  39.077  14.875  11.564
61381W        W28164  15.481  34.629   2.886
61382W        W28165  31.975  37.311   2.368
61383W        W28166  16.190  41.629   1.920
61384W        W28167  19.712  40.793  11.149
61385W        W28168  24.347  41.872  11.160
61386W        W28169  21.543  35.161  10.428
61387W        W28170  22.544  23.584   2.252
61388W        W28171  21.115  41.505  13.864
61389W        W28172  16.150  35.750   0.932
61390W        W28173  12.249  31.582  14.280
61391W        W28174   2.804   0.859  14.878
61392W        W28175   1.497  11.091  13.511
61393W        W28176   3.850  19.176  12.879
61394W        W28177  34.293  27.465   3.778
61395W        W28178  25.075  21.929   4.926
61396W        W28179  36.131  24.261   4.194
61397W        W28180   7.233   3.008   3.725
61398W        W28181   7.739  14.351   4.086
61399W        W28182  32.060   3.460   2.424
61400W        W28183   3.350  24.472   4.084
61401W        W28184   7.785  32.941   1.882
61402W        W28185  28.322  44.203  13.110
61403W        W28186  30.474  30.918   0.249
61404W        W28187  38.979  43.078  12.843
61405W        W28188   6.589  20.554  13.333
61406W        W28189  39.957   1.379   3.253
61407W        W28190  36.533   0.818  14.755
61408W        W28191  24.537  44.556  11.958
61409W        W28192  12.674  20.027   2.865
61410W        W28193  41.910   9.724   1.200
61411W        W28194   3.829  39.468   4.669
61412W        W28195  27.742   1.499  13.961
61413W        W28196  32.885   5.721   2.201
61414W        W28197   1.415   9.586  12.921
61415W        W28198  12.072  41.201  12.512
61416W        W28199  22.664  23.228  10.621
61417W        W28200  33.708  36.184   4.071
61418W        W28201  35.343  32.347  13.202
61419W        W28202  29.517  32.661   2.751
61420W        W28203  20.815  22.289  11.449
61421W        W28204  22.787  36.594  11.653
61422W        W28205  15.592  36.496  11.660
61423W        W28206  13.397  19.604  12.830
61424W        W28207  36.536  22.876   0.880
61425W        W28208   9.606  25.038  11.568
61426W        W28209  42.542   6.982   2.551
61427W        W28210  44.972  43.009  12.646
61428W        W28211  16.655  22.449   4.443
61429W        W28212  42.985   1.268  11.610
61430W        W28213  18.648  31.172   0.458
61431W        W28214  18.118   4.485   3.439
61432W        W28215  10.643  26.121  13.407
61433W        W28216  35.118  14.358   4.957
61434W        W28217   5.680  19.356  14.758
61435W        W28218  39.224  18.687  10.725
61436W        W28219   3.982  39.504  13.044
61437W        W28220  36.967  14.697   0.249
61438W        W28221   6.957  23.714  12.533
61439W        W28222  16.152  31.216   3.656
61440W        W28223  27.909  40.936  14.348
61441W        W28224  16.021  25.992   4.673
61442W        W28225  11.830  39.967  13.405
61443W        W28226  38.918  10.803   0.517
61444W        W28227   5.223   5.434  12.828
61445W        W28228   5.268  15.774   4.866
61446W        W28229  15.171   7.389   3.783
61447W        W28230  23.484  12.230  12.404
61448W        W28231  12.838  39.526   3.907
61449W        W28232  22.197  40.702   2.968
61450W        W28233  12.674  44.915   3.314
61451W        W28234  33.722  43.505   4.462
61452W        W28235  42.877   5.221  14.002
61453W        W28236   1.350   3.271  12.922
61454W        W28237  35.331  23.147  14.938
61455W        W28238  23.589  25.182  13.556
61456W        W28239  24.738  39.969  12.943
61457W        W28240  27.289   8.891   3.211
61458W        W28241  32.679  26.396  10.242
61459W        W28242  23.257  43.819  11.543
61460W        W28243  40.038   8.096  12.570
61461W        W28244   8.129   6.259  11.204
61462W        W28245  39.791  36.927  14.936
61463W        W28246  34.502  14.484   1.298
61464W        W28247  29.511  23.320  13.872
61465W        W28248  16.650  42.914  13.197
61466W        W28249  41.645   3.761  11.622
61467W        W28250  34.380   9.669   3.606
61468W        W28251   4.009   9.393   1.775
61469W        W28252  37.091   3.928  11.039
61470W        W28253  38.099  39.331  14.411
61471W        W28254  41.396  40.851   0.678
61472W        W28255  40.760   4.338  13.509
61473W        W28256  40.344  33.156  11.962
61474W        W28257  23.278  26.777   4.595
61475W        W28258   5.005  22.509   2.827
61476W        W28259  43.675  19.500   1.371
61477W        W28260  14.644  37.959  12.372
61478W        W28261  23.071   3.990   4.667
61479W        W28262   9.285   2.395  10.947
61480W        W28263   7.389   4.111  13.738
61481W        W28264  37.411  12.619   0.620
61482W        W28265   7.858  10.757   0.981
61483W        W28266  18.003  38.038  12.155
61484W        W28267  40.354   3.303   1.453
61485W        W28268  32.555  38.812  12.360
61486W        W28269   5.775  19.071  10.663
61487W        W28270  42.341  26.441  11.949
61488W        W28271  43.337  43.950  10.684
61489W        W28272  38.659   4.270  11.471
61490W        W28273  35.055  41.660   2.432
61491W        W28274  30.195  20.862  11.334
61492W        W28275  42.658   6.467  13.572
61493W        W28276  25.735  35.093  12.916
61494W        W28277  42.930  35.616  12.817
61495W        W28278   0.911   1.952   0.002
61496W        W28279  18.948  39.898  13.287
61497W        W28280   2.103   5.423  11.153
61498W        W28281  30.651  17.212  13.449
61499W        W28282   0.761   6.899  12.720
61500W        W28283  13.597  40.741  12.398
61501W        W28284  11.921  22.139   3.217
61502W        W28285  32.566  44.724  13.772
61503W        W28286  11.768  21.248  14.816
61504W        W28287  33.459   6.799  13.389
61505W        W28288  42.805  44.398  12.014
61506W        W28289  31.176  22.010   0.831
61507W        W28290  33.544  41.737  10.806
61508W        W28291  33.365  34.430   4.630
61509W        W28292  41.298  14.167  13.427
61510W        W28293  18.630  38.368  10.829
61511W        W28294  25.082  32.031  11.645
61512W        W28295  43.838  43.276   1.780
61513W        W28296  22.169   8.995   2.869
61514W        W28297   3.927  36.959  11.623
61515W        W28298  25.001  15.231  12.368
61516W        W28299  22.483  36.450   0.350
61517W        W28300  19.471  18.809   1.166
61518W        W28301   2.744  38.143  13.636
61519W        W28302  24.329  12.166  10.516
61520W        W28303  22.842  14.717   2.356
61521W        W28304  15.629  24.544  11.132
61522W        W28305  23.993  33.148   0.295
61523W        W28306  30.108   3.405   3.180
61524W        W28307   5.643   3.966  12.493
61525W        W28308  41.039  26.207  11.264
61526W        W28309  25.511   6.584   1.035
61527W        W28310  19.595  44.396   1.996
61528W        W28311  35.928  41.786   4.706
61529W        W28312   4.784  23.488   4.429
61530W        W28313  33.155  33.921   0.426
61531W        W28314   8.311  20.185   4.362
61532W        W28315  35.009  31.600   1.777
61533W        W28316  15.542  26.657  10.572
61534W        W28317  31.120   8.356  13.976
61535W        W28318  24.929  27.877   3.250
61536W        W28319  19.589  13.770  11.880
61537W        W28320  22.751  31.556  14.463
61538W        W28321   8.326   9.786   2.704
61539W        W28322  19.112   3.475  14.547
61540W        W28323  43.285  17.229  11.043
61541W        W28324  19.272  10.175  12.614
61542W        W28325  21.592  44.352   0.076
61543W        W28326  36.548  38.041   4.530
61544W        W28327  35.467  22.504   1.306
61545W        W28328  27.892  10.750  10.734
61546W        W28329  37.415  21.498  13.957
61547W        W28330  32.105  40.926  14.410
61548W        W28331   0.041   9.778  10.614
61549W        W28332  28.092   2.647   4.065
61550W        W28333  28.220   3.660  11.619
61551W        W28334  11.843  35.065   4.072
61552W        W28335  12.655  33.122   3.794
61553W        W28336  19.680   1.931   0.857
61554W        W28337  35.296  34.850   2.196
61555W        W28338  33.819  28.568  13.557
61556W        W28339  23.708  32.518   4.282
61557W        W28340   4.519  17.502   1.084
61558W        W28341  36.058  15.778  10.191
61559W        W28342   9.885  23.460   0.254
61560W        W28343   1.813  11.666   4.012
61561W        W28344  11.956  41.773   3.285
61562W        W28345  40.741   5.802  11.084
61563W        W28346  11.699  27.948   2.297
61564W        W28347  37.328  25.125  10.522
61565W        W28348  33.357  10.187   0.390
61566W        W28349  31.116  19.541   3.172
61567W        W28350  26.864  36.390  11.158
61568W        W28351  31.384  23.539   2.836
61569W        W28352  22.245  32.634   3.661
61570W        W28353  29.902  35.106  12.171
61571W        W28354  25.199   3.022  13.995
61572W        W28355   2.849  19.692  14.979
61573W        W28356  30.604  14.995  11.993
61574W        W28357   3.793  41.530  13.432
61575W        W28358  12.759  41.463  11.129
61576W        W28359  15.001  34.612  11.584
61577W        W28360  13.656  38.725   0.287
61578W        W28361   3.342  23.430   4.149
61579W        W28362  16.497   7.759  13.066
61580W        W28363  26.907  18.546   1.754
61581W        W28364   9.840  20.429  12.290
61582W        W28365  35.542  15.024  14.512
61583W        W28366  14.859  17.188   1.714
61584W        W28367  32.875  12.246  13.519
61585W        W28368  21.533  23.021  12.364
61586W        W28369  17.119  14.023   9.662
61587W        W28370  20.407   4.358   1.812
61588W        W28371  39.943  11.649   3.095
61589W        W28372   0.283  40.655   0.396
61590W        W28373   1.272  41.691  11.586
61591W        W28374   4.947  15.607   4.497
61592W        W28375  10.232  24.686   3.419
61593W        W28376  19.207  34.456  11.857
61594W        W28377  16.908  28.653   1.252
61595W        W28378   8.304   8.456   1.875
61596W        W28379   9.078  31.965   0.409
61597W        W28380  23.518  42.579  11.842
61598W        W28381  29.202  36.027   0.859
61599W        W28382   0.943  16.275   3.872
61600W        W28383  25.565  23.245   0.453
61601W        W28384   7.071  21.246  14.301
61602W        W28385  27.112  13.771  13.224
61603W        W28386  42.597   1.920   4.308
61604W        W28387   0.717   8.240  11.034
61605W        W28388   7.471   3.711   4.031
61606W        W28389  28.540  29.999   4.157
61607W        W28390   9.357  29.481  11.571
61608W        W28391  34.613  14.039   3.602
61609W        W28392   3.688  21.226   1.146
61610W        W28393   2.210  38.045   0.317
61611W        W28394  27.686  23.719   0.817
61612W        W28395  35.709  30.751  14.815
61613W        W28396   7.406  24.615  13.340
61614W        W28397  18.221  39.398  13.446
61615W        W28398  34.437  18.881   2.684
61616W        W28399   1.314   0.996   1.799
61617W        W28400  41.807  31.556  13.086
61618W        W28401  19.348  12.926  14.832
61619W        W28402  24.503  16.295   4.967
61620W        W28403  29.546   4.329  11.486
61621W        W28404  13.117   4.404   4.678
61622W        W28405   9.722  37.530   0.884
61623W        W28406  32.516  30.449   0.769
61624W        W28407  42.581  40.066  12.481
61625W        W28408  33.082  15.232  13.022
61626W        W28409  16.543  33.057  14.404
61627W        W28410  16.814  39.744  12.420
61628W        W28411  38.556  30.093   3.911
61629W        W28412  19.368   8.173  11.176
61630W        W28413   9.759   1.866   0.670
61631W        W28414  32.540  21.241   0.725
61632W        W28415  24.989  19.062  11.382
61633W        W28416  11.794  33.610  10.780
61634W        W28417  19.890   2.273   4.281
61635W        W28418   1.875   6.822  12.191
61636W        W28419  23.309  12.836  11.591
61637W        W28420  27.575   9.416   0.313
61638W        W28421  32.416   6.637  11.724
61639W        W28422  32.068  40.482  12.017
61640W        W28423   6.168   0.323   4.132
61641W        W28424  31.102  10.653  10.897
61642W        W28425  33.550  39.072   4.499
61643W        W28426   4.389  32.827  12.475
61644W        W28427  40.983  15.678   3.038
61645W        W28428  22.950  31.051   4.290
61646W        W28429  37.888  32.895  12.867
61647W        W28430  41.016  28.906  12.472
61648W        W28431  11.143  15.349   3.294
61649W        W28432  28.492  14.322   4.680
61650W        W28433   6.209   1.308  14.289
61651W        W28434  36.278  33.155   0.936
61652W        W28435  15.450   3.642   4.308
61653W        W28436  32.651  17.848   5.058
61654W        W28437  27.485   2.431  11.779
61655W        W28438  33.928  42.154   0.243
61656W        W28439  31.378   2.713  10.709
61657W        W28440  15.828  40.794   1.765
61658W        W28441  25.188  27.625   3.622
61659W        W28442  43.024   7.667   1.918
61660W        W28443  38.549   8.712  12.035
61661W        W28444  14.666  22.543   3.960
61662W        W28445  28.494  12.153   0.496
61663W        W28446  22.444   8.947   1.773
61664W        W28447  26.973  44.300   0.750
61665W        W28448  43.881   7.278  14.640
61666W        W28449  13.583   8.818   3.255
61667W        W28450   3.463  39.096  12.528
61668W        W28451  17.845  29.582   1.391
61669W        W28452  29.089  12.795   1.791
61670W        W28453  27.041  36.951   3.822
61671W        W28454  28.099  27.858  12.611
61672W        W28455  14.139   9.888  11.170
61673W        W28456  40.466  38.233   4.646
61674W        W28457  15.061   4.306  10.807
61675W        W28458  22.654  37.537  13.385
61676W        W28459  15.624  19.752   2.421
61677W        W28460  16.541  32.080   3.192
61678W        W28461  31.929  36.581  11.403
61679W        W28462  16.813  15.933  12.311
61680W        W28463   3.387  26.553  13.886
61681W        W28464  20.165   2.665   4.064
61682W        W28465   6.744  44.879   4.923
61683W        W28466  35.810  19.078  10.799
61684W        W28467  13.660  24.995  11.546
61685W        W28468   2.529   4.849   1.469
61686W        W28469  38.038  36.468  11.572
61687W        W28470  10.332  21.411  13.723
61688W        W28471  28.587  24.282   4.538
61689W        W28472  15.372  33.906  13.378
61690W        W28473  11.144  31.440  13.381
61691W        W28474   7.674  14.857  12.020
61692W        W28475  17.662  39.311  12.611
61693W        W28476  27.246  23.446  10.953
61694W        W28477   6.849  14.894  12.097
61695W        W28478   7.580  12.439  10.281
61696W        W28479  41.369  20.688   3.963
61697W        W28480   3.634  24.421   2.288
61698W        W28481  38.282   4.904   1.876
61699W        W28482  11.403  41.423   4.466
61700W        W28483  37.313  39.101  13.390
61701W        W28484  34.081   1.908  13.679
61702W        W28485  11.678  24.773  14.517
61703W        W28486  27.221  30.596   2.686
61704W        W28487   8.874  43.600  13.020
61705W        W28488   6.894  22.706  13.052
61706W        W28489   6.305  39.053  11.110
61707W        W28490  18.668   9.818   1.869
61708W        W28491  12.707  44.784   3.847
61709W        W28492   4.540   4.449   0.390
61710W        W28493   0.029   9.194  14.047
61711W        W28494  27.577   3.404  12.809
61712W        W28495  16.625  17.545  11.855
61713W        W28496  34.254  31.426  11.940
61714W        W28497  25.077  16.703  13.537
61715W        W28498  42.580   5.152   4.583
61716W        W28499  43.977  25.387   2.139
61717W        W28500   2.083  34.352  12.009
61718W        W28501  15.839  18.040  13.577
61719W        W28502  43.116  17.997  14.822
61720W        W28503   3.282  21.139  10.731
61721W        W28504  40.745  43.742   0.753
61722W        W28505  13.701  27.932  14.764
61723W        W28506  12.705  35.091   1.685
61724W        W28507   4.418  14.640   4.055
61725W        W28508   1.311   4.715  11.965
61726W        W28509  29.943  33.048   1.461
61727W        W28510  21.477  15.657  11.962
61728W        W28511   7.963  42.803  11.221
61729W        W28512  31.135   4.723   3.696
61730W        W28513  12.671  16.591  14.764
61731W        W28514  14.720  12.321   1.717
61732W        W28515  34.489  43.839  11.185
61733W        W28516  23.175  17.277  12.184
61734W        W28517   8.905  33.636  13.314
61735W        W28518  36.619  15.978   0.728
61736W        W28519  10.233  22.345  13.436
61737W        W28520  29.584   6.279   3.351
61738W        W28521   4.401  40.035  12.194
61739W        W28522  18.853   3.106  10.863
61740W        W28523  32.536  22.545  12.585
61741W        W28524   6.838  23.612  11.008
61742W        W28525  39.417   6.890  10.629
61743W        W28526  31.357  20.168  10.084
61744W        W28527   0.647  39.027   1.705
61745W        W28528  10.616   5.880  12.426
61746W        W28529   2.652  11.730  14.666
61747W        W28530  25.600  24.511  13.037
61748W        W28531  38.433   9.353   0.728
61749W        W28532  30.942  28.463  13.777
61750W        W28533   0.355  20.008   2.279
61751W        W28534  33.894  32.707  13.110
61752W        W28535  33.901  13.016   4.074
61753W        W28536   7.678  27.129  10.743
61754W        W28537  14.415  44.261  13.072
61755W        W28538  14.529  12.705  11.540
61756W        W28539  31.065  22.216   2.825
61757W        W28540  27.048  34.403  14.443
61758W        W28541   1.459  41.920   2.392
61759W        W28542  18.562   4.055  14.836
61760W        W28543   8.599  16.771   3.087
61761W        W28544  10.817   6.295   5.385
61762W        W28545  23.378  10.584  12.046
61763W        W28546  29.397   3.870  14.501
61764W        W28547   0.026  35.613   4.195
61765W        W28548   3.438   3.933  11.526
61766W        W28549  44.047  10.127  13.007
61767W        W28550  35.855   2.945   0.120
61768W        W28551   5.988  29.931   3.556
61769W        W28552  42.826  21.583  13.633
61770W        W28553  20.184  11.650  13.371
61771W        W28554  15.246  24.975  11.948
61772W        W28555  26.549   5.906   0.232
61773W        W28556  12.075   4.452   4.571
61774W        W28557  25.409  19.683  14.966
61775W        W28558  39.443  13.593  12.612
61776W        W28559  30.923  33.349   2.243
61777W        W28560   5.346  18.002   4.783
61778W        W28561  22.505  25.076  10.988
61779W        W28562  40.358   8.385  11.715
61780W        W28563  10.146  34.258  13.913
61781W        W28564  44.070  17.223   1.361
61782W        W28565  35.948   1.440   2.841
61783W        W28566   1.772  21.177  11.502
61784W        W28567  18.343  16.880   1.255
61785W        W28568   9.921  41.229   0.944
61786W        W28569  43.878   0.366  13.877
61787W        W28570  28.137  31.854   4.519
61788W        W28571   5.922  31.427  12.823
61789W        W28572  42.673  21.551   2.739
61790W        W28573  32.742   6.150   4.959
61791W        W28574  21.424   7.200  11.106
61792W        W28575  26.566  40.581   1.471
61793W        W28576  36.902   8.445   4.732
61794W        W28577  44.260  32.618  14.332
61795W        W28578   1.327  33.804  10.967
61796W        W28579   7.929   8.172   0.691
61797W        W28580   0.120  16.801  12.340
61798W        W28581  40.311  19.571  13.340
61799W        W28582   8.702   1.974   2.672
61800W        W28583  40.492  41.543  10.797
61801W        W28584  34.641  39.569  10.731
61802W        W28585   4.792   1.792  12.886
61803W        W28586  13.070  34.250   4.220
61804W        W28587  42.372  19.165   3.009
61805W        W28588  11.397  14.233   4.588
61806W        W28589  26.383   2.414  12.676
61807W        W28590  42.002  18.982  12.137
61808W        W28591  37.138  30.549  13.779
61809W        W28592   4.675   8.661  12.886
61810W        W28593  33.580   4.915   4.170
61811W        W28594   7.845  12.283  10.697
61812W        W28595   5.978  22.767   4.547
61813W        W28596  19.981  11.294   2.934
61814W        W28597   7.655  34.408  13.394
61815W        W28598  40.275   8.320   4.064
61816W        W28599   0.182  36.249  11.895
61817W        W28600  16.537  42.485   0.847
61818W        W28601   8.716  39.712   2.044
61819W        W28602  22.075  28.327   2.372
61820W        W28603  32.644   1.758   1.319
61821W        W28604  33.021  14.069   4.110
61822W        W28605  23.513  23.800  10.526
61823W        W28606  39.285   7.800   3.347
61824W        W28607  24.613  28.114  10.710
61825W        W28608   1.891  42.783   4.075
61826W        W28609  20.096   5.680   2.870
61827W        W28610  13.392  23.087  12.459
61828W        W28611  31.090  19.942  11.072
61829W        W28612  16.860  33.540   0.855
61830W        W28613   4.292  24.977   4.722
61831W        W28614   9.822   6.686   3.992
61832W        W28615   7.830  39.063   0.025
61833W        W28616  42.899  19.550   1.447
61834W        W28617  33.916  19.587   0.298
61835W        W28618  38.349  28.143   0.924
61836W        W28619  26.166  30.445   3.838
61837W        W28620  40.103  24.206  10.717
61838W        W28621  42.726  33.506   4.615
61839W        W28622  33.509  13.347   4.156
61840W        W28623   1.737  26.005   0.969
61841W        W28624   7.235  21.254   1.700
61842W        W28625  20.980  33.680   2.356
61843W        W28626   7.886  34.931   2.509
61844W        W28627  23.017   5.325   2.429
61845W        W28628   0.708  17.773   2.669
61846W        W28629   7.065  22.777  12.560
61847W        W28630  21.698  20.217   4.151
61848W        W28631  12.826  15.709  14.304
61849W        W28632  24.718  13.809   3.776
61850W        W28633  18.868  34.120  12.025
61851W        W28634  11.245  36.791   2.749
61852W        W28635  22.587   0.386  12.405
61853W        W28636  18.064  31.239   3.739
61854W        W28637   9.808  14.613  13.495
61855W        W28638   7.737  36.870   1.401
61856W        W28639  14.600  14.278   3.651
61857W        W28640  35.805  14.273  13.539
61858W        W28641  15.156  44.172  10.443
61859W        W28642  43.005  19.834   2.342
61860W        W28643  43.831  15.271  10.695
61861W        W28644  36.631  27.000  11.194
61862W        W28645   3.009  33.131  13.388
61863W        W28646  35.911   3.887   3.029
61864W        W28647  24.693  37.479   1.482
61865W        W28648  28.912  35.451  12.276
61866W        W28649   9.335  30.957   2.923
61867W        W28650   5.073  42.061  10.584
61868W        W28651  42.408  19.622  12.762
61869W        W28652  44.524   5.287   0.365
61870W        W28653  31.183  26.103   0.457
61871W        W28654  13.730   0.602  14.474
61872W        W28655  35.706   7.801  13.292
61873W        W28656  35.475   5.977  12.024
61874W        W28657  42.862  43.770   2.553
61875W        W28658  11.859  31.687   0.434
61876W        W28659   5.452   5.988   1.753
61877W        W28660  12.785   3.939  13.537
61878W        W28661  22.713   0.723   1.222
61879W        W28662  43.424  39.340   3.310
61880W        W28663  39.994  31.810   9.701
61881W        W28664  22.139   6.470  14.952
61882W        W28665   4.368  32.483   4.632
61883W        W28666  22.209  35.389  10.977
61884W        W28667  36.046  16.580   4.136
61885W        W28668  35.716  18.476   0.742
61886W        W28669   9.598  34.124  11.569
61887W        W28670   6.442   6.293  12.077
61888W        W28671  15.078  20.255   4.252
61889W        W28672  40.864   2.661  11.967
61890W        W28673  10.346  43.219  13.997
61891W        W28674  44.543  26.585   1.580
61892W        W28675  40.732   4.193  12.590
61893W        W28676  29.552   3.246   4.975
61894W        W28677  37.065  43.883  14.875
61895W        W28678  40.472   1.362   1.907
61896W        W28679  18.373  32.003  10.954
61897W        W28680  35.589  10.658  10.092
61898W        W28681  15.733   7.337  10.724
61899W        W28682   9.814  10.607  12.535
61900W        W28683  22.504  37.463   1.352
61901W        W28684  14.042  14.365   1.816
61902W        W28685  25.644  26.206   2.337
61903W        W28686   3.094  35.903   1.673
61904W        W28687  15.823  23.685   2.883
61905W        W28688   0.783  23.253   0.495
61906W        W28689  29.388  20.689  12.339
61907W        W28690  29.400  24.746   0.521
61908W        W28691  28.124  41.369  13.851
61909W        W28692   1.568   6.434   1.836
61910W        W28693  34.506   5.112   2.221
61911W        W28694  18.603  33.650  13.835
61912W        W28695   4.768   1.489  14.082
61913W        W28696  35.429  44.588  13.557
61914W        W28697   6.359   9.789   3.896
61915W        W28698   6.736  17.617  11.651
61916W        W28699  30.053  13.605   1.768
61917W        W28700  43.762  15.036   3.112
61918W        W28701  38.481  13.085  14.434
61919W        W28702  25.520  40.388  13.053
61920W        W28703  16.706  20.083   2.345
61921W        W28704   8.662   3.985   4.822
61922W        W28705  22.126   1.023   2.297
61923W        W28706  15.012  23.778   0.554
61924W        W28707  28.183  22.848  14.750
61925W        W28708  19.752  30.849  14.861
61926W        W28709  43.427   7.131   1.213
61927W        W28710   9.205  31.578   2.219
61928W        W28711  33.106  13.910  10.697
61929W        W28712  20.479  37.553  13.045
61930W        W28713  43.978   4.707   2.557
61931W        W28714  43.246  27.736   1.341
61932W        W28715  10.751   3.938  14.604
61933W        W28716   7.167  43.144  13.966
61934W        W28717  39.641   9.899  12.471
61935W        W28718   9.076   6.700  13.446
61936W        W28719  14.112   9.309   0.799
61937W        W28720   4.768  38.387   4.906
61938W        W28721  35.557  26.325   0.373
61939W        W28722  34.582   2.903   1.764
61940W        W28723  22.258  30.717   1.813
61941W        W28724  35.879  24.956   3.603
61942W        W28725  35.143  23.433   1.045
61943W        W28726  21.450  16.201  11.496
61944W        W28727   2.684  11.356   2.759
61945W        W28728  30.548  22.235   4.202
61946W        W28729  27.936  39.978   0.985
61947W        W28730  28.628  38.924   0.962
61948W        W28731   8.159  23.670   1.905
61949W        W28732  31.537  10.938  13.347
61950W        W28733  24.581  19.280   3.634
61951W        W28734   3.719  29.548   1.900
61952W        W28735  35.395   6.994   3.183
61953W        W28736  41.796   5.257   0.961
61954W        W28737  31.659   6.827   1.353
61955W        W28738  15.349  40.664   4.319
61956W        W28739   9.205   0.839   1.966
61957W        W28740  22.536  44.419   1.179
61958W        W28741  12.255  44.892   3.628
61959W        W28742  23.718  19.270   3.635
61960W        W28743  34.893  44.621   1.827
61961W        W28744   3.418  33.013   3.093
61962W        W28745  19.345  33.912   1.332
61963W        W28746  41.451  26.369  11.568
61964W        W28747  34.473  19.987   1.042
61965W        W28748  44.687  11.892  11.044
61966W        W28749  38.706  38.181   1.469
61967W        W28750   1.131  38.012   4.286
61968W        W28751  44.027  10.188   1.955
61969W        W28752  13.730   1.878  11.165
61970W        W28753  12.137   7.112   1.226
61971W        W28754  15.031  44.540   1.263
61972W        W28755   2.771  31.668  11.758
61973W        W28756  17.193  16.941  10.896
61974W        W28757   2.847   2.831   3.603
61975W        W28758  17.377  32.610  13.452
61976W        W28759  36.091   7.245  13.452
61977W        W28760  43.349  11.593   2.136
61978W        W28761   2.112   6.663   2.908
61979W        W28762   6.333   4.941  14.947
61980W        W28763  21.229  15.509   0.637
61981W        W28764  19.424   6.983  11.761
61982W        W28765  32.372  14.638  14.764
61983W        W28766   6.223  14.771   0.400
61984W        W28767  11.575  23.574   3.320
61985W        W28768  33.585  19.579  10.993
61986W        W28769   4.181  14.113   2.216
61987W        W28770  32.121  14.340   1.212
61988W        W28771  18.350  34.939   0.495
61989W        W28772   2.471   0.017  11.459
61990W        W28773  33.014  12.331  14.537
61991W        W28774  17.506  30.729  10.464
61992W        W28775  15.147  17.258  14.975
61993W        W28776   9.820  28.669   2.313
61994W        W28777  20.863  26.668  14.001
61995W        W28778   8.123  10.695  14.340
61996W        W28779  25.696  22.475  14.935
61997W        W28780   9.889  18.088   1.249
61998W        W28781   9.301  29.882   0.264
61999W        W28782  44.982  44.199  13.972
62000W        W28783   2.327  35.327  13.352
62001W        W28784   3.503  30.089   3.856
62002W        W28785  37.297   4.810   2.130
62003W        W28786  29.053  28.170  14.545
62004W        W28787  35.543  44.465   4.121
62005W        W28788  12.870  12.969  13.684
62006W        W28789  39.896  20.438   2.267
62007W        W28790  14.633  41.073   1.485
62008W        W28791  37.532  14.703  12.547
62009W        W28792  41.528  10.881   2.713
62010W        W28793  16.786   1.885   0.503
62011W        W28794  13.482  38.742   1.191
62012W        W28795  24.765  21.109   4.429
62013W        W28796  44.877   9.387  13.596
62014W        W28797  26.634  41.881   0.358
62015W        W28798  42.109  44.996  12.715
62016W        W28799  35.017   7.889  11.291
62017W        W28800   3.793  28.574  14.006
62018W        W28801   7.471   2.296  14.017
62019W        W28802  16.720  11.301  12.858
62020W        W28803  40.880  44.130  13.104
62021W        W28804  36.002  35.731  14.987
62022W        W28805  44.855  32.081   3.142
62023W        W28806   7.620  25.155  11.163
62024W        W28807   9.503  42.480  11.293
62025W        W28808  42.306   1.251  12.089
62026W        W28809   3.863  41.452   4.158
62027W        W28810   1.860  14.364   4.572
62028W        W28811   6.680   8.622   3.307
62029W        W28812  26.592  23.647  11.526
62030W        W28813  17.245   8.571   1.732
62031W        W28814  34.324  43.243  11.953
62032W        W28815  41.517  11.294   1.775
62033W        W28816  19.618  32.091  13.147
62034W        W28817  12.072  15.682   0.984
62035W        W28818  17.569  35.428   0.497
62036W        W28819   4.848  44.071  14.043
62037W        W28820   2.900  31.020  12.354
62038W        W28821  35.979  11.323  13.540
62039W        W28822   8.379   6.705   2.703
62040W        W28823  35.515  39.123   0.953
62041W        W28824  44.726  32.195  11.854
62042W        W28825  12.438  32.672   3.170
62043W        W28826   5.142  14.211   2.194
62044W        W28827  18.545  28.923   2.750
62045W        W28828  29.111  26.249  10.586
62046W        W28829  27.767  23.691  14.341
62047W        W28830  10.290   7.262   2.820
62048W        W28831  27.531  23.336  11.467
62049W        W28832  24.372  11.211  13.582
62050W        W28833   0.573  34.382  11.481
62051W        W28834  38.299   2.957  10.638
62052W        W28835  33.451   0.161  10.664
62053W        W28836  12.122  34.373  10.822
62054W        W28837  21.564  18.361  11.164
62055W        W28838  39.852  14.903   4.185
62056W        W28839   1.513  39.458  10.814
62057W        W28840   3.103  34.411   2.744
62058W        W28841  10.832  20.440   3.743
62059W        W28842  17.179  37.626  11.924
62060W        W28843  10.033  24.536   0.738
62061W        W28844  44.653  17.387  14.495
62062W        W28845   3.726  25.764   1.283
62063W        W28846   1.553  32.554   1.485
62064W        W28847   0.539   8.681  12.851
62065W        W28848  24.250   3.483  13.970
62066W        W28849  25.673   4.949  14.554
62067W        W28850  23.039   3.931   3.217
62068W        W28851  44.475  19.098  13.334
62069W        W28852  28.207  24.224  10.583
62070W        W28853  22.212   1.773   4.470
62071W        W28854  23.493  10.892   0.865
62072W        W28855  44.009   2.829  14.558
62073W        W28856   7.504  26.993   3.433
62074W        W28857   6.783  43.268   3.539
62075W        W28858  11.523  19.264   3.212
62076W        W28859   3.403  30.468  11.365
62077W        W28860  16.526  31.119   2.167
62078W        W28861  40.487  12.130  14.254
62079W        W28862  35.715  16.165   1.186
62080W        W28863   2.774  23.928  14.280
62081W        W28864  16.611  28.391   0.876
62082W        W28865  20.035  18.768   1.241
62083W        W28866  18.849  26.581  14.843
62084W        W28867  13.356  32.788  12.035
62085W        W28868   8.975  37.112  13.322
62086W        W28869  21.243  34.633  13.048
62087W        W28870  34.602  25.708  14.030
62088W        W28871  14.673  44.881   0.817
62089W        W28872  34.375   2.979   2.676
62090W        W28873  30.374  18.513   4.543
62091W        W28874  42.527  38.985  13.048
62092W        W28875   0.422  38.491   3.165
62093W        W28876  15.100  36.280  11.369
62094W        W28877  12.077  15.783  13.109
62095W        W28878  39.939  23.704  13.412
62096W        W28879  35.364  21.582  14.276
62097W        W28880  10.922  40.397   0.942
62098W        W28881  15.058  20.148  11.583
62099W        W28882  37.116   3.555  13.426
62100W        W28883  39.975   6.926   3.812
62101W        W28884   5.734  35.674  13.539
62102W        W28885  32.635  34.718   2.097
62103W        W28886  14.985  17.730   1.873
62104W        W28887  33.111  24.756  13.863
62105W        W28888  24.952  34.969   4.282
62106W        W28889  16.823   5.382  13.038
62107W        W28890  26.971  41.667  14.531
62108W        W28891   5.689  19.295   4.616
62109W        W28892  10.685  20.998   1.223
62110W        W28893   6.830  23.213   1.712
62111W        W28894  18.503   4.914   0.401
62112W        W28895   7.532  14.160   4.527
62113W        W28896  42.946  35.392   4.135
62114W        W28897  14.150  40.481   4.877
62115W        W28898  17.253  15.231  12.762
62116W        W28899  10.814  36.008  13.391
62117W        W28900  14.544  35.608   1.413
62118W        W28901  33.379   8.794   0.267
62119W        W28902   3.771  28.170   3.032
62120W        W28903  23.282  37.603  11.225
62121W        W28904  31.451   8.376   1.336
62122W        W28905  20.066  34.463  11.178
62123W        W28906  21.865  44.396   1.863
62124W        W28907  34.378  41.833  12.085
62125W        W28908  16.083   6.211   1.173
62126W        W28909   0.489  39.969   4.736
62127W        W28910   8.367  25.007   2.011
62128W        W28911   0.401  27.221  14.317
62129W        W28912   0.254  18.050   2.360
62130W        W28913  41.108   8.295   0.758
62131W        W28914   2.162  30.853   1.741
62132W        W28915  43.381  38.732  12.042
62133W        W28916  28.566  29.476  11.690
62134W        W28917  23.515   5.136  11.611
62135W        W28918   2.898  18.166  12.743
62136W        W28919  13.198  37.853   1.813
62137W        W28920  37.947  31.044  12.381
62138W        W28921  41.289   1.448  12.077
62139W        W28922  43.263  14.153   1.566
62140W        W28923  28.896  20.791   4.103
62141W        W28924  41.287  11.448  11.410
62142W        W28925  11.160   3.375   1.350
62143W        W28926  25.798   9.414  13.876
62144W        W28927   7.809  41.872   3.702
62145W        W28928   0.201  15.054  13.500
62146W        W28929   8.334  10.250  14.920
62147W        W28930  35.799  35.590  10.772
62148W        W28931   0.612  42.391  12.458
62149W        W28932   8.859  19.561   3.884
62150W        W28933  31.959   2.733   0.218
62151W        W28934  19.138  44.186   4.570
62152W        W28935  29.878  27.186   2.678
62153W        W28936  38.520  28.481  11.083
62154W        W28937  18.056  13.107   4.503
62155W        W28938  25.953  30.450  12.946
62156W        W28939  18.098  39.487  13.967
62157W        W28940  34.629  38.529  10.683
62158W        W28941  30.641  32.468  14.319
62159W        W28942  28.646   3.087  11.125
62160W        W28943  34.134  36.092   1.180
62161W        W28944  24.040  35.928  14.796
62162W        W28945  41.030  27.115   0.203
62163W        W28946  13.049  17.590   2.428
62164W        W28947  42.545  34.127  14.361
62165W        W28948  31.004  23.765  12.809
62166W        W28949   0.024  35.343  14.913
62167W        W28950  23.056  11.806   0.462
62168W        W28951   3.370   0.726  13.300
62169W        W28952  38.507  31.771  12.418
62170W        W28953  19.141  23.030  13.598
62171W        W28954  31.020  20.232   4.561
62172W        W28955  42.062   4.936   2.310
62173W        W28956  39.597  20.122  11.617
62174W        W28957  38.896  41.036   3.613
62175W        W28958   4.755  23.511  11.015
62176W        W28959  24.652  15.217   1.343
62177W        W28960  14.243  31.246   3.235
62178W        W28961  38.603   7.625   2.589
62179W        W28962  21.491  12.737  10.342
62180W        W28963  15.072   4.485   4.757
62181W        W28964  19.826  12.332   0.295
62182W        W28965  22.312  37.942   1.320
62183W        W28966  18.611  10.532  13.394
62184W        W28967  44.275  39.065  12.006
62185W        W28968  27.157  41.498  12.371
62186W        W28969  42.963  32.189   0.474
62187W        W28970  26.607  39.043   1.206
62188W        W28971  18.064  33.049   2.135
62189W        W28972   7.317  35.444  11.552
62190W        W28973  38.441  19.688   2.752
62191W        W28974  44.409  16.914  10.594
62192W        W28975  18.713  26.192  14.526
62193W        W28976   4.817  22.210  14.231
62194W        W28977  34.518  17.094   1.338
62195W        W28978  37.995  21.539   2.370
62196W        W28979   9.268  11.785  13.358
62197W        W28980  30.971   4.408  11.499
62198W        W28981  17.589   7.618   0.857
62199W        W28982  26.742  29.521  12.500
62200W        W28983  33.025  32.127  10.759
62201W        W28984  38.451  39.435  11.196
62202W        W28985  36.187  35.419  14.597
62203W        W28986   8.826  30.442  14.939
62204W        W28987  37.590  20.444  12.578
62205W        W28988  33.983  37.591  12.307
62206W        W28989  36.922  13.217   4.630
62207W        W28990  38.848  27.302  11.678
62208W        W28991  13.615  34.252   0.882
62209W        W28992  43.474  32.110   0.296
62210W        W28993  36.821  16.280   4.685
62211W        W28994  39.025   3.683  10.898
62212W        W28995  35.639  22.696   4.019
62213W        W28996  44.791  39.070  12.027
62214W        W28997  35.580  38.979   3.697
62215W        W28998  41.574  22.573   3.671
62216W        W28999  36.368  42.459   0.791
62217W        W29000  39.116   3.492  12.455
62218W        W29001  37.356   4.796   2.646
62219W        W29002  33.132  38.999   1.235
62220W        W29003  28.515  18.138  13.520
62221W        W29004  39.843   3.949   4.098
62222W        W29005  27.525  16.544   1.852
62223W        W29006  30.026  15.756  10.693
62224W        W29007   3.156  34.041  14.303
62225W        W29008  11.320   6.335   5.335
62226W        W29009  28.384  12.732   4.496
62227W        W29010   2.263  17.677   2.644
62228W        W29011   5.026   4.769  14.551
62229W        W29012   2.844  16.884   2.424
62230W        W29013  39.335  36.336   4.621
62231W        W29014  40.003  35.714   1.272
62232W        W29015  44.668   3.923   3.725
62233W        W29016  18.272  22.962   0.898
62234W        W29017  17.799   2.910  14.980
62235W        W29018  36.832  22.182   2.158
62236W        W29019  12.157  44.292  11.600
62237W        W29020  11.678   5.871   1.334
62238W        W29021   0.938   7.760  11.095
62239W        W29022  14.608  10.710   1.757
62240W        W29023  38.692  10.796   1.009
62241W        W29024   0.550  17.086  12.430
62242W        W29025   8.540  39.229  13.852
62243W        W29026  22.606  17.324  11.025
62244W        W29027  41.554   0.258   2.621
62245W        W29028  18.684  43.312  12.401
62246W        W29029  27.556   4.858   1.828
62247W        W29030  20.671  17.351   1.416
62248W        W29031   6.884  31.394   4.146
62249W        W29032   0.351  36.832   4.769
62250W        W29033  14.494   6.413  12.969
62251W        W29034  10.550   6.808   2.816
62252W        W29035  25.003   0.495   1.826
62253W        W29036  11.428  41.490  11.903
62254W        W29037  43.369  27.596   2.670
62255W        W29038  20.425  36.679   3.387
62256W        W29039  39.415  20.590  11.092
62257W        W29040  22.689  29.806  11.113
62258W        W29041  12.218  25.391   4.976
62259W        W29042  33.878  12.767   3.583
62260W        W29043  16.558  30.698  13.557
62261W        W29044  29.732  29.022   4.464
62262W        W29045   3.420  30.878  14.965
62263W        W29046  30.326  15.902  11.091
62264W        W29047  16.621  35.888   2.681
62265W        W29048  16.165  27.965   1.137
62266W        W29049  25.019   0.533  12.885
62267W        W29050  18.541  42.415   2.973
62268W        W29051  17.714   5.192   1.378
62269W        W29052  34.174  34.872  13.940
62270W        W29053  37.565   4.845  11.056
62271W        W29054  27.646  20.660   1.966
62272W        W29055   8.134   9.309  13.595
62273W        W29056   9.861  14.917   2.430
62274W        W29057  40.104   9.333   3.169
62275W        W29058  31.119  36.440   4.370
62276W        W29059  17.628  24.678   4.489
62277W        W29060   1.782  20.453   2.624
62278W        W29061   2.396   9.779  14.945
62279W        W29062  22.757   5.773   1.828
62280W        W29063   5.422  11.741  10.654
62281W        W29064  33.925   1.707   0.896
62282W        W29065  17.258  17.226   2.662
62283W        W29066  38.340   0.875  12.302
62284W        W29067  12.068  16.357   0.279
62285W        W29068   9.808  13.558  13.561
62286W        W29069   1.132   3.885   4.107
62287W        W29070  39.617  44.066   1.324
62288W        W29071   3.414  30.416  13.856
62289W        W29072  16.616  25.438   3.613
62290W        W29073  44.821  44.689  11.025
62291W        W29074   0.101  42.630  14.599
62292W        W29075  10.043  37.067   4.094
62293W        W29076  21.547  17.115  12.506
62294W        W29077  23.581  27.348  10.698
62295W        W29078  38.043  11.600  12.904
62296W        W29079  37.800   5.186  10.785
62297W        W29080  33.918  31.193   1.358
62298W        W29081  21.147   4.735  12.434
62299W        W29082   1.058  38.073  13.989
62300W        W29083   0.675  15.311   3.501
62301W        W29084  17.232  21.608   0.503
62302W        W29085  30.909  23.464   2.209
62303W        W29086  22.196   3.493  14.257
62304W        W29087   1.834  29.548   3.149
62305W        W29088  31.430  37.822   1.754
62306W        W29089  29.232  12.492  13.356
62307W        W29090  37.939  22.257   4.696
62308W        W29091  15.281   5.601   3.240
62309W        W29092   6.076  38.471   3.527
62310W        W29093  21.570  32.848  10.840
62311W        W29094  32.246   5.740   3.659
62312W        W29095  22.733  31.305   1.276
62313W        W29096  14.168  38.962   3.372
62314W        W29097  30.590   5.285  14.426
62315W        W29098  13.307  16.662   4.156
62316W        W29099  39.092   9.799  13.502
62317W        W29100  33.218  26.501  12.041
62318W        W29101  24.072  40.815  13.628
62319W        W29102  10.445  26.551   4.629
62320W        W29103   6.600  14.048  11.695
62321W        W29104  21.212   7.617  12.922
62322W        W29105  12.907  20.145   0.887
62323W        W29106  27.680   0.440   0.031
62324W        W29107  28.384  14.423   2.176
62325W        W29108   8.754  29.809   2.724
62326W        W29109  25.915  38.016   0.444
62327W        W29110  22.488  11.474   5.078
62328W        W29111  16.773  30.707  12.337
62329W        W29112   7.910  31.177   2.352
62330W        W29113   4.660  40.582  14.729
62331W        W29114  29.128  35.186  10.809
62332W        W29115  37.554  34.368   4.402
62333W        W29116  33.655  26.213  11.656
62334W        W29117  19.860  21.142   2.622
62335W        W29118   4.236   6.880  14.834
62336W        W29119  21.003  42.373   1.753
62337W        W29120  28.659  15.716  14.474
62338W        W29121  35.397  32.049  12.372
62339W        W29122  15.815  26.233  14.395
62340W        W29123  29.449   4.355  10.684
62341W        W29124  44.975  15.850  11.599
62342W        W29125  30.698   3.745   1.830
62343W        W29126  34.647   8.703  12.594
62344W        W29127   8.351  16.529  12.148
62345W        W29128  33.092  29.079  13.431
62346W        W29129  18.526  35.975   3.215
62347W        W29130  33.118  24.142   4.501
62348W        W29131  26.982  27.921  14.399
62349W        W29132  35.355  33.683  11.607
62350W        W29133  28.942  40.044   5.376
62351W        W29134   0.353  13.279  14.880
62352W        W29135  24.445  16.828  11.032
62353W        W29136  36.664   0.091  11.567
62354W        W29137  11.817  27.656   3.608
62355W        W29138   0.768   9.840   0.375
62356W        W29139  21.017   0.366   3.734
62357W        W29140  16.255  44.882   0.952
62358W        W29141  39.374  16.622   1.399
62359W        W29142   5.485   5.307  12.374
62360W        W29143   2.423  21.684  13.853
62361W        W29144   8.661  29.058  11.953
62362W        W29145  36.844  21.825   1.712
62363W        W29146  42.634  18.619   3.654
62364W        W29147  17.375  27.075   4.277
62365W        W29148   9.408  31.462   1.709
62366W        W29149  11.594  32.098  11.266
62367W        W29150  27.178  16.394   4.117
62368W        W29151  12.408  43.031   2.788
62369W        W29152  15.835  19.752  11.465
62370W        W29153  30.587  23.058   3.844
62371W        W29154   9.221  43.699  14.590
62372W        W29155  29.169  13.868  11.859
62373W        W29156  42.290  16.087  12.492
62374W        W29157  19.054  12.588   1.644
62375W        W29158  44.450  23.275   1.167
62376W        W29159  18.841  39.117  12.907
62377W        W29160  18.860   8.589   3.326
62378W        W29161   8.380  24.192  12.447
62379W        W29162  31.574  32.167  12.103
62380W        W29163   6.486  24.022   0.827
62381W        W29164  43.653  21.795  13.256
62382W        W29165  41.710  20.260   1.139
62383W        W29166   3.995  32.507  13.844
62384W        W29167  35.839  42.962   4.811
62385W        W29168  32.700   3.521  13.090
62386W        W29169  20.986   2.230  10.554
62387W        W29170   3.298  28.744  12.856
62388W        W29171  25.075  11.305  12.513
62389W        W29172  28.421  15.725  13.314
62390W        W29173   2.342  20.345   2.359
62391W        W29174  10.846   0.267  12.011
62392W        W29175  23.053   3.534   2.245
62393W        W29176   8.857  35.874  10.379
62394W        W29177  25.715  13.629   0.537
62395W        W29178  35.843  17.807   4.316
62396W        W29179  20.605  39.860   2.234
62397W        W29180  31.771  34.506   2.054
62398W        W29181  43.585  30.614   1.866
62399W        W29182  21.615  20.240  11.170
62400W        W29183   4.712  23.993   4.513
62401W        W29184  19.755  23.122  14.497
62402W        W29185  40.773   7.663   1.489
62403W        W29186  20.489  44.011   3.827
62404W        W29187  41.447  17.540   4.291
62405W        W29188  35.085  31.051  12.090
62406W        W29189  29.959  24.880   3.974
62407W        W29190  22.056  28.174   2.878
62408W        W29191   5.844  30.412  10.673
62409W        W29192  22.580  25.495  12.958
62410W        W29193   0.578  30.352  12.034
62411W        W29194  42.065   4.693   3.301
62412W        W29195   8.618  11.170   5.166
62413W        W29196  10.399  44.335  12.084
62414W        W29197   7.317   4.221   4.584
62415W        W29198   8.662  43.381   4.083
62416W        W29199  18.658  17.797   4.493
62417W        W29200  31.520   1.947   2.430
62418W        W29201  30.861   6.384  12.746
62419W        W29202   5.829  27.147  10.385
62420W        W29203  16.341  19.747  12.562
62421W        W29204   6.346  10.264  12.407
62422W        W29205   5.268  21.552   3.005
62423W        W29206  24.062  17.266  11.046
62424W        W29207  21.348  31.925   1.200
62425W        W29208   2.670  20.890   4.599
62426W        W29209  41.358   9.201   4.953
62427W        W29210  40.318  15.596   2.307
62428W        W29211  18.089  24.487   4.909
62429W        W29212  12.538  12.247  12.157
62430W        W29213  18.168  12.909   2.694
62431W        W29214  28.558  10.125   3.933
62432W        W29215   2.942  29.119  14.490
62433W        W29216  19.009  21.618   2.787
62434W        W29217  38.740  39.462   4.104
62435W        W29218  24.022  20.823  14.916
62436W        W29219  24.119   0.363   1.390
62437W        W29220   9.574  38.660   3.233
62438W        W29221  40.387  35.480  12.024
62439W        W29222  14.878   0.274  13.843
62440W        W29223   5.485  41.859   2.465
62441W        W29224  33.957  25.065   0.677
62442W        W29225  26.928  35.301  11.066
62443W        W29226  22.789  20.906  13.712
62444W        W29227   5.291   2.023  14.844
62445W        W29228  20.470  19.216  10.388
62446W        W29229  38.215  30.938  10.674
62447W        W29230   6.727  22.013   1.859
62448W        W29231  12.938  39.432   0.191
62449W        W29232  43.041  32.377   2.496
62450W        W29233  41.442  35.807   3.390
62451W        W29234  13.194  26.070  10.657
62452W        W29235  24.634  14.235   2.342
62453W        W29236  31.235   1.514  11.568
62454W        W29237  24.954   7.265   4.255
62455W        W29238  11.447   2.750  10.665
62456W        W29239   4.953  12.371  12.991
62457W        W29240  38.944  17.095   4.525
62458W        W29241  33.272  31.221  11.347
62459W        W29242  39.059  25.198  12.530
62460W        W29243  30.956  37.125  14.484
62461W        W29244   7.434  29.971  11.679
62462W        W29245  31.493  43.558   2.906
62463W        W29246  38.865  27.497   1.195
62464W        W29247  43.563  33.018  13.025
62465W        W29248  23.944  22.304   3.458
62466W        W29249  12.580   8.177   2.640
62467W        W29250  18.167  33.340   0.036
62468W        W29251  43.892   8.852   3.220
62469W        W29252  35.449  11.196  12.317
62470W        W29253  17.034  12.744   0.419
62471W        W29254  44.363  27.725  13.503
62472W        W29255  15.259  11.749   3.997
62473W        W29256   8.439  35.573   1.394
62474W        W29257  44.510  26.486   4.081
62475W        W29258  27.187   3.171  12.459
62476W        W29259  27.647  33.134   0.465
62477W        W29260   6.168  19.078   2.260
62478W        W29261  33.880  22.125   2.777
62479W        W29262  34.555  20.072   1.822
62480W        W29263  30.906  12.150  10.804
62481W        W29264  27.061   9.713   0.749
62482W        W29265  25.748  39.733  12.310
62483W        W29266  42.347  41.499   3.193
62484W        W29267   3.052  22.173  14.994
62485W        W29268  10.593   6.645   5.702
62486W        W29269  24.426   2.225   1.394
62487W        W29270  41.841  31.085  13.818
62488W        W29271  15.210  24.060  13.548
62489W        W29272   6.720   4.332  11.572
62490W        W29273   0.987   3.758   0.911
62491W        W29274  29.222  23.191   0.935
62492W        W29275  41.332  36.898  10.683
62493W        W29276  29.704   1.621   4.154
62494W        W29277  14.868  44.082   1.849
62495W        W29278  25.666  11.476   4.557
62496W        W29279  22.713  40.494   2.237
62497W        W29280   2.353   8.938  13.875
62498W        W29281  36.066   7.786  14.113
62499W        W29282  21.204  39.376   4.751
62500W        W29283  34.454  10.426  14.495
62501W        W29284  30.065  25.428  14.494
62502W        W29285  13.034  22.970  13.711
62503W        W29286   3.176  34.448   1.925
62504W        W29287  43.576  21.026   0.360
62505W        W29288  28.239  42.307  13.475
62506W        W29289  11.904  42.073  13.303
62507W        W29290  30.159  26.158   4.611
62508W        W29291   6.357  11.112   0.304
62509W        W29292  17.122  20.527  14.942
62510W        W29293  11.668  14.684   0.961
62511W        W29294   4.385  29.918  13.471
62512W        W29295  42.432  23.590  10.467
62513W        W29296  21.754  33.094  13.568
62514W        W29297  34.938  24.451  11.625
62515W        W29298   7.878  22.665   4.370
62516W        W29299  23.038  26.021   3.310
62517W        W29300  34.905  17.505   4.202
62518W        W29301  23.464  37.091   0.230
62519W        W29302   7.673  30.549  11.137
62520W        W29303   1.853  15.790   4.540
62521W        W29304  32.224   0.152  11.064
62522W        W29305  11.245  33.588  13.303
62523W        W29306  30.239  39.551   1.563
62524W        W29307   9.299   1.308  13.500
62525W        W29308  30.343   2.293  11.562
62526W        W29309  15.349  18.703  10.867
62527W        W29310  33.921  18.841   0.767
62528W        W29311  43.334  31.216   4.201
62529W        W29312  23.194  34.924  12.015
62530W        W29313  25.430  25.697   1.307
62531W        W29314  41.943  33.047   3.796
62532W        W29315  33.606   0.419   2.609
62533W        W29316  25.168  37.012   2.406
62534W        W29317  34.909   0.906  13.869
62535W        W29318  26.245   4.760  14.034
62536W        W29319  30.633   4.162  12.800
62537W        W29320  36.112  22.534   1.689
62538W        W29321  32.928   1.543   0.519
62539W        W29322  17.296   1.272   4.938
62540W        W29323  23.922  25.127   2.578
62541W        W29324  21.131  17.108   1.213
62542W        W29325   5.238  26.556   3.691
62543W        W29326  41.428  20.607   3.466
62544W        W29327   1.251  17.062  13.012
62545W        W29328  24.177   4.813   0.666
62546W        W29329  21.337  29.694   3.714
62547W        W29330  17.041  12.241   3.442
62548W        W29331   2.943  20.574   1.889
62549W        W29332  42.142   9.963   3.701
62550W        W29333  30.683  14.352   5.069
62551W        W29334  16.767  42.320  11.085
62552W        W29335  30.677  25.673  12.961
62553W        W29336  20.913  10.092   2.859
62554W        W29337  28.796  31.480  10.683
62555W        W29338  30.641  36.751  10.540
62556W        W29339  34.763  32.142  14.246
62557W        W29340  30.006  37.403  11.634
62558W        W29341  34.196  21.835   0.016
62559W        W29342  27.019  12.137  11.030
62560W        W29343  35.350  17.095  10.388
62561W        W29344  20.888  30.249  10.575
62562W        W29345  37.548  32.932  13.592
62563W        W29346  23.994  28.463  14.730
62564W        W29347  43.874  34.910   3.769
62565W        W29348  28.196  12.236   3.253
62566W        W29349  42.894   9.501  10.153
62567W        W29350  37.498  31.004  12.158
62568W        W29351  16.780  25.943  10.887
62569W        W29352   5.388  32.364  11.979
62570W        W29353  13.683   5.687  13.994
62571W        W29354  19.754  29.127  14.235
62572W        W29355  30.435  42.735  10.650
62573W        W29356  33.001  31.203  10.886
62574W        W29357   7.757  22.599  11.471
62575W        W29358  33.180  19.763   3.226
62576W        W29359   3.282  35.537   0.355
62577W        W29360   4.702  16.812   1.927
62578W        W29361  35.216   9.699   3.870
62579W        W29362  18.068   9.222  11.164
62580W        W29363   1.246  38.530  11.667
62581W        W29364  38.396  14.350  13.412
62582W        W29365  13.695  40.517  14.434
62583W        W29366  30.004  24.286   1.361
62584W        W29367  33.364   7.050   3.214
62585W        W29368   3.129  33.909  12.916
62586W        W29369  19.211  35.869  10.748
62587W        W29370  40.448  18.232   1.134
62588W        W29371  25.687  33.927   3.751
62589W        W29372  26.103  31.441  14.501
62590W        W29373  35.911  35.925   4.414
62591W        W29374   8.086  27.280   2.652
62592W        W29375  32.689  11.264   0.440
62593W        W29376  21.145  37.917   1.292
62594W        W29377  36.943  33.118  12.353
62595W        W29378  43.258  11.898  12.065
62596W        W29379  27.903  14.656   2.201
62597W        W29380   7.302  30.065   0.784
62598W        W29381  21.108   8.882  14.303
62599W        W29382  39.586  23.136   3.339
62600W        W29383  34.061  36.896  12.039
62601W        W29384  12.725  15.752  10.658
62602W        W29385  37.070  25.048  14.107
62603W        W29386   0.024  18.167  12.066
62604W        W29387  35.522  10.942  11.877
62605W        W29388  35.182  28.434  12.477
62606W        W29389  33.795  32.008   1.196
62607W        W29390  24.225  23.075  14.782
62608W        W29391  26.005  38.818   5.350
62609W        W29392  29.548  42.797  12.740
62610W        W29393  24.058   1.979   4.977
62611W        W29394  31.048  27.423   3.329
62612W        W29395  22.009  41.473  12.896
62613W        W29396  22.468  31.546   2.256
62614W        W29397  42.063  41.321  11.557
62615W        W29398  21.119  43.888   2.283
62616W        W29399  41.738   2.855   4.733
62617W        W29400   6.706  12.064  13.356
62618W        W29401  13.175   4.595  11.501
62619W        W29402   8.889   2.307   0.033
62620W        W29403  16.700  37.186  13.026
62621W        W29404  33.418  35.666  13.873
62622W        W29405  24.122  22.321   1.782
62623W        W29406  31.111  25.938  11.667
62624W        W29407  37.574  29.819   4.216
62625W        W29408  25.255  26.140   1.518
62626W        W29409  29.540   9.691   2.359
62627W        W29410  19.995  43.978  14.015
62628W        W29411  18.822  25.032  12.979
62629W        W29412  27.076  18.388   4.918
62630W        W29413   5.738  32.638  11.050
62631W        W29414   5.675  12.903   2.799
62632W        W29415  21.457   4.622  14.858
62633W        W29416  21.160  22.123   3.592
62634W        W29417   4.940  25.063  14.991
62635W        W29418  33.270  40.738  10.714
62636W        W29419   2.430  32.277  12.588
62637W        W29420   8.791  24.560   1.348
62638W        W29421   0.774  44.821  11.174
62639W        W29422  31.779   4.290  13.776
62640W        W29423  37.395  20.717  13.044
62641W        W29424  34.356  10.348   3.186
62642W        W29425  41.293  38.597   1.455
62643W        W29426  38.045   6.178  10.669
62644W        W29427  23.067  44.567  10.664
62645W        W29428  35.080  22.682  14.823
62646W        W29429  37.466  38.557   0.887
62647W        W29430  15.480  36.891  14.925
62648W        W29431   0.520  33.438  10.923
62649W        W29432  17.731  33.686   4.739
62650W        W29433  33.040  17.954   2.334
62651W        W29434  23.220   8.363  11.655
62652W        W29435  11.368  17.193   4.611
62653W        W29436  32.817  25.580   3.305
62654W        W29437  34.701  16.087  14.143
62655W        W29438  24.947  38.847   0.368
62656W        W29439  21.555  10.251   3.279
62657W        W29440  36.573  22.594  14.886
62658W        W29441  12.202  40.087  11.504
62659W        W29442  27.160  21.105  14.311
62660W        W29443  41.934  38.793   4.072
62661W        W29444   2.658  28.965  14.897
62662W        W29445  30.893  15.159  10.696
62663W        W29446  20.275  18.303   1.268
62664W        W29447  21.054  19.030   3.970
62665W        W29448  24.924  29.176  13.324
62666W        W29449  18.377  42.721   5.312
62667W        W29450  12.248  12.572   0.754
62668W        W29451  25.489  38.042  12.480
62669W        W29452  37.994  18.890  14.111
62670W        W29453   4.814  18.493   0.110
62671W        W29454  14.375  20.175   2.860
62672W        W29455  17.333  25.022   3.210
62673W        W29456  16.219  16.793  12.171
62674W        W29457   1.832  33.449  11.026
62675W        W29458  17.284  33.385   4.951
62676W        W29459   7.384   4.774   3.200
62677W        W29460  36.883   2.965  12.570
62678W        W29461  13.722  12.071   1.260
62679W        W29462  22.255  43.985   1.210
62680W        W29463  38.735  11.643   1.804
62681W        W29464  35.102  33.200  13.264
62682W        W29465  26.788  14.635   3.518
62683W        W29466  32.893  24.235   3.222
62684W        W29467  15.929  17.382   2.315
62685W        W29468   4.651  27.574   0.034
62686W        W29469  26.045   4.382  10.772
62687W        W29470   2.465  28.467  10.465
62688W        W29471  30.717  22.266   0.872
62689W        W29472  30.755  13.391  12.602
62690W        W29473  27.156  21.753  13.419
62691W        W29474  27.676   3.287  14.812
62692W        W29475   9.237   4.739   2.779
62693W        W29476   6.760  37.998   1.955
62694W        W29477  37.832  32.387  12.920
62695W        W29478  31.086  18.094   5.060
62696W        W29479   8.480  38.323  10.842
62697W        W29480   8.875   7.351   2.551
62698W        W29481  30.968   4.003  13.402
62699W        W29482   5.103  20.479   3.234
62700W        W29483  29.561  29.235   2.380
62701W        W29484  41.962   9.768  13.326
62702W        W29485   6.170  24.682   3.310
62703W        W29486  36.384  29.554  14.921
62704W        W29487  12.596  42.165  12.988
62705W        W29488  24.097  41.313   2.739
62706W        W29489  16.144  10.615  12.590
62707W        W29490  31.847   5.293   1.351
62708W        W29491  27.925  20.815  12.469
62709W        W29492   5.100   8.593   2.859
62710W        W29493   7.668   7.378   3.748
62711W        W29494  43.620  41.225  10.646
62712W        W29495  41.786  33.905  14.373
62713W        W29496  39.294  42.261   1.912
62714W        W29497  21.554  20.151   3.637
62715W        W29498   6.878  22.286  11.671
62716W        W29499   6.378  13.090  14.579
62717W        W29500  20.434   8.085  14.410
62718W        W29501  25.465  38.315  12.903
62719W        W29502  31.041  26.406  12.175
62720W        W29503  26.278  13.219   3.118
62721W        W29504  22.151  44.726   3.704
62722W        W29505  24.499  18.432   0.793
62723W        W29506  22.027   7.171  14.464
62724W        W29507  32.149  20.573   1.780
62725W        W29508  40.906  39.829  14.282
62726W        W29509  37.058  24.169  11.437
62727W        W29510   7.305   1.243  12.387
62728W        W29511  38.290  44.363  14.969
62729W        W29512   5.238  43.173   1.808
62730W        W29513   0.809  31.930  14.931
62731W        W29514  29.522  11.228  11.127
62732W        W29515  32.835  27.704   0.870
62733W        W29516  21.394  20.112  10.726
62734W        W29517  20.038  13.702  11.623
62735W        W29518  11.281  22.637   3.796
62736W        W29519   8.446   5.705  13.927
62737W        W29520  17.221  14.825  13.091
62738W        W29521  32.520   0.949   1.266
62739W        W29522  18.641  17.206  10.398
62740W        W29523   9.237  13.159   4.791
62741W        W29524   9.979  41.705  12.733
62742W        W29525  24.464   5.033   3.962
62743W        W29526   6.159  39.457  13.433
62744W        W29527  37.096   5.418  14.254
62745W        W29528  25.702  29.059  11.088
62746W        W29529  11.775  38.281  13.762
62747W        W29530  29.399  31.430  10.711
62748W        W29531  35.495  15.654   1.479
62749W        W29532  37.079  17.305  11.959
62750W        W29533   6.535  39.180   2.569
62751W        W29534  39.198  40.904   5.184
62752W        W29535  19.149  15.207   1.804
62753W        W29536  10.424  29.663  13.793
62754W        W29537  23.868  35.534   4.128
62755W        W29538   8.078  38.546   1.871
62756W        W29539  27.397  27.632   0.009
62757W        W29540  42.837  14.691   2.845
62758W        W29541  31.328  30.028  11.453
62759W        W29542  32.536  34.487   2.743
62760W        W29543  28.150  42.442  12.026
62761W        W29544  11.344  39.939  13.245
62762W        W29545  13.444  19.711   3.750
62763W        W29546  12.689  13.424   0.033
62764W        W29547  10.050  41.106   2.201
62765W        W29548  42.018  35.422  14.997
62766W        W29549  30.597  31.953  14.315
62767W        W29550  33.118  23.657   0.917
62768W        W29551  35.286  28.798  14.836
62769W        W29552  30.689  10.327   3.771
62770W        W29553  12.205  23.309  13.029
62771W        W29554  25.919  23.936   1.355
62772W        W29555  23.842  19.097   4.591
62773W        W29556  37.349  18.122   2.592
62774W        W29557   0.129  39.481   2.305
62775W        W29558   1.285   1.764  12.471
62776W        W29559  33.356  15.891   4.162
62777W        W29560  13.119   4.993  12.288
62778W        W29561   4.269  22.711   4.284
62779W        W29562   4.800  23.118   2.000
62780W        W29563  25.729  11.697   0.530
62781W        W29564   9.921  10.959   9.353
62782W        W29565  42.248  17.619  12.837
62783W        W29566  41.157   3.336  11.618
62784W        W29567  17.701  29.364   3.767
62785W        W29568  29.415  32.515   1.341
62786W        W29569  23.902  34.644  11.006
62787W        W29570  42.845   9.813   0.872
62788W        W29571  19.652   9.674   4.803
62789W        W29572  11.843   4.798  13.627
62790W        W29573   8.467  28.426   3.374
62791W        W29574   6.838  13.607   2.077
62792W        W29575   0.883   4.294   4.388
62793W        W29576  33.493   7.308  13.543
62794W        W29577  24.698  15.994  14.515
62795W        W29578  31.498  34.669   1.167
62796W        W29579  18.133  22.411  12.891
62797W        W29580  15.279  25.684   0.471
62798W        W29581  15.621  16.156  12.822
62799W        W29582   4.009  43.360  11.968
62800W        W29583  13.200  39.603  13.011
62801W        W29584   1.360  25.980  12.414
62802W        W29585  25.744  38.444  14.371
62803W        W29586  35.755  13.391  13.558
62804W        W29587   5.646  20.620   3.155
62805W        W29588  30.983  11.206  11.701
62806W        W29589   2.427   1.251   4.605
62807W        W29590  30.900   4.436   0.763
62808W        W29591  16.007  42.062   2.229
62809W        W29592  17.712  42.983   1.076
62810W        W29593  18.346  42.332  12.505
62811W        W29594  43.412  10.148  14.831
62812W        W29595   8.257  20.598  13.591
62813W        W29596  31.071   8.009   1.420
62814W        W29597  12.597  38.118  14.277
62815W        W29598  35.560  28.288  13.537
62816W        W29599  34.805  11.564   1.822
62817W        W29600  34.441  36.334   4.216
62818W        W29601  27.564  15.584  12.345
62819W        W29602  19.756  20.794   2.225
62820W        W29603  44.994  33.347   0.966
62821W        W29604  20.533  23.136   2.794
62822W        W29605   7.763   7.651   2.845
62823W        W29606  36.125  21.743   4.444
62824W        W29607  36.836  37.786  12.907
62825W        W29608  38.651  31.188   3.229
62826W        W29609  23.381  34.594   2.623
62827W        W29610  40.332  28.606  12.443
62828W        W29611   2.683  35.962   0.388
62829W        W29612   6.641  28.545  13.036
62830W        W29613  40.450  24.246  12.534
62831W        W29614  40.785  32.880  12.006
62832W        W29615  25.135  22.223  10.956
62833W        W29616  35.796   9.245  10.723
62834W        W29617  38.933  33.565  10.466
62835W        W29618  41.716  17.138   5.110
62836W        W29619   5.671  25.581   4.492
62837W        W29620   7.769  13.174  13.939
62838W        W29621  37.489  40.339   1.978
62839W        W29622  11.732  17.693   0.872
62840W        W29623  38.983  19.738  14.787
62841W        W29624   1.643  16.619  14.726
62842W        W29625  20.434  42.858   4.289
62843W        W29626  10.801  31.103  11.614
62844W        W29627  38.235  43.913  10.466
62845W        W29628  32.645  26.713  11.970
62846W        W29629  25.676  18.026  11.846
62847W        W29630  10.765   1.529  10.939
62848W        W29631  44.874  19.341  11.677
62849W        W29632   2.520  11.458  12.642
62850W        W29633  22.603  18.443  14.073
62851W        W29634  20.518  11.902  11.153
62852W        W29635  24.140  29.593  10.657
62853W        W29636  28.125  30.662   3.100
62854W        W29637   2.231  14.207  14.076
62855W        W29638  39.753  28.789   3.573
62856W        W29639   1.326   9.827  12.471
62857W        W29640   7.757  41.407   1.249
62858W        W29641  22.133  25.928  11.681
62859W        W29642  22.169  42.891  11.873
62860W        W29643  19.234  22.197  14.838
62861W        W29644   3.327  22.981   3.176
62862W        W29645   9.410  23.136  12.379
62863W        W29646   6.614  32.387  10.655
62864W        W29647  34.334  10.630  12.466
62865W        W29648  38.000  35.957   2.479
62866W        W29649  29.617  37.374  12.973
62867W        W29650  36.602  37.041   1.732
62868W        W29651   5.370  26.512  14.562
62869W        W29652  43.485   4.308   3.152
62870W        W29653   3.340  21.348   4.121
62871W        W29654   2.984  15.706  12.506
62872W        W29655  19.155   0.539  11.647
62873W        W29656   5.912  28.891   2.221
62874W        W29657  12.246  26.720  13.117
62875W        W29658   5.354  30.323  11.954
62876W        W29659  12.748   4.714   2.792
62877W        W29660   3.771  10.883  11.058
62878W        W29661  25.646  43.352  11.496
62879W        W29662  41.574   9.151  13.883
62880W        W29663  22.520  21.099   9.860
62881W        W29664  39.320  27.446  12.522
62882W        W29665  27.126  19.403  11.591
62883W        W29666  28.435  15.318   3.757
62884W        W29667  41.573  29.673   1.334
62885W        W29668  27.432  23.602  10.192
62886W        W29669  27.104  23.685  13.407
62887W        W29670   4.044  19.464   3.415
62888W        W29671  26.062   6.662   2.320
62889W        W29672   8.766  10.942   1.265
62890W        W29673  28.606  10.839  14.858
62891W        W29674   9.243   6.633  10.604
62892W        W29675  44.739  39.496  13.804
62893W        W29676   5.550  21.646  14.398
62894W        W29677  26.247  19.305  11.595
62895W        W29678   3.162  15.428   0.288
62896W        W29679  27.448  28.497   1.710
62897W        W29680   3.386  17.359   4.263
62898W        W29681   1.653   8.740   2.357
62899W        W29682  13.636  35.551   2.416
62900W        W29683  27.133  36.607  12.533
62901W        W29684  14.278  12.121   1.481
62902W        W29685  26.245  27.297  11.187
62903W        W29686  33.670  35.958  12.867
62904W        W29687  17.755  15.270   0.299
62905W        W29688  44.215  15.479  11.054
62906W        W29689  37.859  35.373   3.723
62907W        W29690  37.823  31.630  14.550
62908W        W29691  38.667  19.534  13.112
62909W        W29692   3.158  24.984  13.703
62910W        W29693  38.883  31.140   2.761
62911W        W29694  19.456  21.490   1.214
62912W        W29695  21.195  25.993   1.665
62913W        W29696  30.671  24.978   4.625
62914W        W29697  12.647  39.100   4.121
62915W        W29698   7.412  17.772   2.458
62916W        W29699   1.774  21.324  14.804
62917W        W29700   6.867  25.485   1.216
62918W        W29701   5.638   3.749   4.662
62919W        W29702  28.566  22.691   0.053
62920W        W29703  33.689  13.393   0.340
62921W        W29704  31.661   9.135  14.005
62922W        W29705   3.917   1.392  13.990
62923W        W29706  19.657  16.832   2.713
62924W        W29707  19.511   2.564   9.789
62925W        W29708  36.306  43.723  11.116
62926W        W29709  38.812  38.836  13.342
62927W        W29710  44.292  28.196   3.261
62928W        W29711  24.022  34.974  14.678
62929W        W29712  29.410  25.955   2.482
62930W        W29713  14.729  28.771   3.667
62931W        W29714   3.903  17.689   4.895
62932W        W29715  41.776  38.984  12.515
62933W        W29716   0.120  11.709   4.613
62934W        W29717  19.882  14.052   9.841
62935W        W29718  37.653  32.078  13.683
62936W        W29719  14.335  25.966  13.539
62937W        W29720  31.879  22.625  14.891
62938W        W29721   4.942  20.521  12.308
62939W        W29722  26.796  13.147   3.869
62940W        W29723  16.630  39.175   0.402
62941W        W29724  34.314  28.557  14.850
62942W        W29725  10.805  12.941   0.509
62943W        W29726  22.857  19.209   2.646
62944W        W29727  30.589  22.703  13.440
62945W        W29728  40.501  39.103   0.480
62946W        W29729  30.366   7.756  12.409
62947W        W29730  40.278  20.972  14.945
62948W        W29731  21.077  42.221   0.462
62949W        W29732  21.608  17.521  13.498
62950W        W29733  24.483  36.360  12.083
62951W        W29734  25.018  37.490   3.287
62952W        W29735  25.454  20.632   4.080
62953W        W29736   2.151  22.581   9.936
62954W        W29737   4.922  17.621   4.574
62955W        W29738   2.234   7.314   3.673
62956W        W29739   4.457  21.187   3.380
62957W        W29740  43.132  38.607   1.901
62958W        W29741  36.411  13.461  14.074
62959W        W29742  43.784  22.540   2.350
62960W        W29743   7.613  31.753  13.276
62961W        W29744  31.536  25.184   2.119
62962W        W29745   7.201  23.769  11.370
62963W        W29746  19.667  30.017   0.981
62964W        W29747  21.730   4.860  13.612
62965W        W29748  17.058   2.334  11.458
62966W        W29749  23.139  26.746  12.562
62967W        W29750  42.337  40.371   4.366
62968W        W29751  36.273   3.670   3.304
62969W        W29752  40.517  15.072  14.275
62970W        W29753  42.853   3.212  10.696
62971W        W29754  30.130  20.680   3.692
62972W        W29755  22.359   4.775  12.730
62973W        W29756  24.318  24.118  14.840
62974W        W29757  23.632  31.686   3.848
62975W        W29758  36.532   3.951  12.923
62976W        W29759   0.019   5.300   0.474
62977W        W29760   7.934  12.758  11.126
62978W        W29761  32.120  19.733  13.832
62979W        W29762  13.022   8.361   2.365
62980W        W29763  13.816  22.299  12.649
62981W        W29764  11.886  40.464  11.079
62982W        W29765  27.011  32.427   4.904
62983W        W29766  18.741  17.430   4.117
62984W        W29767  14.087  15.342  14.353
62985W        W29768  29.382  42.951   0.949
62986W        W29769  10.018  18.489  10.320
62987W        W29770  28.884  30.639   2.485
62988W        W29771  24.006  27.964  12.950
62989W        W29772  35.682  17.550  11.657
62990W        W29773  13.197  11.341   1.403
62991W        W29774  38.669   1.871  11.636
62992W        W29775  13.790   7.737   2.310
62993W        W29776  43.503  40.057   3.003
62994W        W29777  42.743   5.964   3.637
62995W        W29778  13.131  22.730   3.667
62996W        W29779  19.003  31.556  14.397
62997W        W29780  10.616   5.357   0.895
62998W        W29781  36.404  40.645  11.195
62999W        W29782  13.835  43.506   4.371
63000W        W29783  32.874  38.989   3.719
63001W        W29784  22.575   4.049  13.954
63002W        W29785   8.913  26.083  11.635
63003W        W29786  41.394  42.239   2.818
63004W        W29787   8.748  18.283  13.861
63005W        W29788  29.925   0.524  14.461
63006W        W29789  16.073  29.742  13.409
63007W        W29790  20.767   8.292   1.989
63008W        W29791  30.989  41.477   0.268
63009W        W29792   6.741   3.738  14.994
63010W        W29793   1.671  28.999  14.891
63011W        W29794  24.028  33.648   0.182
63012W        W29795  32.640  19.166   9.759
63013W        W29796  18.173  40.115  10.672
63014W        W29797   3.561  13.647  12.622
63015W        W29798   6.617  19.405   0.196
63016W        W29799   9.135  20.477   0.329
63017W        W29800  44.911  23.960   1.387
63018W        W29801  33.426  37.329   3.282
63019W        W29802  10.625  29.069   1.252
63020W        W29803  14.940  19.778  13.790
63021W        W29804  30.568   7.191  13.606
63022W        W29805  38.048  42.845   4.524
63023W        W29806   1.434   8.865  12.471
63024W        W29807  17.278  23.853   3.981
63025W        W29808  31.609  31.359  12.508
63026W        W29809  16.304  12.709   1.690
63027W        W29810  24.886  27.382  12.956
63028W        W29811  35.195  29.213   4.163
63029W        W29812  26.566   7.057   3.044
63030W        W29813  42.372  22.911   0.872
63031W        W29814  18.285   1.493  12.123
63032W        W29815  20.044  42.830   0.368
63033W        W29816  30.563  12.596   0.988
63034W        W29817  35.664  37.395   0.242
63035W        W29818  18.375   9.655   3.291
63036W        W29819  42.354   7.337  13.259
63037W        W29820  27.217   6.051   0.370
63038W        W29821  15.696  22.581   3.053
63039W        W29822   9.620  10.268   2.678
63040W        W29823  14.083   7.185   0.780
63041W        W29824  26.101  40.703   0.513
63042W        W29825  11.680  41.051   2.827
63043W        W29826  15.875  12.308  14.808
63044W        W29827  26.353  25.181  12.351
63045W        W29828  24.081  13.228   3.188
63046W        W29829  19.953  39.132   9.984
63047W        W29830  43.896  44.749   3.445
63048W        W29831  41.246  33.879   4.864
63049W        W29832   7.776   2.765   2.850
63050W        W29833  24.188  26.797  10.330
63051W        W29834   0.424  24.967  12.835
63052W        W29835   9.855  40.924   3.429
63053W        W29836   5.416  34.511  12.002
63054W        W29837  41.937  35.865   0.258
63055W        W29838  12.597  33.802  11.629
63056W        W29839  16.097   1.500  11.497
63057W        W29840  30.542  18.823  12.920
63058W        W29841   7.289   6.787   2.765
63059W        W29842  11.714  13.673  13.039
63060W        W29843  25.889   9.045  12.225
63061W        W29844  42.176  39.443   3.335
63062W        W29845   2.973  22.706   1.773
63063W        W29846  32.576  42.898   1.672
63064W        W29847   7.397  34.381  10.617
63065W        W29848   2.415  22.157   2.806
63066W        W29849  24.668  21.118  12.878
63067W        W29850  24.547   1.031  13.981
63068W        W29851   0.811   4.953   1.352
63069W        W29852   4.764  36.398   4.469
63070W        W29853  37.076   4.726  13.980
63071W        W29854   6.897  37.051   3.928
63072W        W29855   3.219  29.946  13.918
63073W        W29856  39.894  31.736   0.833
63074W        W29857  14.373  10.105  12.101
63075W        W29858  17.308  39.290   1.424
63076W        W29859  43.303  38.826   4.119
63077W        W29860  32.744  41.079  12.900
63078W        W29861  17.637   3.007   0.859
63079W        W29862  44.957  35.126   3.610
63080W        W29863  25.727   8.663  11.695
63081W        W29864  44.945   6.253  11.096
63082W        W29865  10.906  15.311   4.125
63083W        W29866  37.447  40.405   1.481
63084W        W29867  29.576  23.585   1.656
63085W        W29868   7.424   8.762  11.302
63086W        W29869  18.033  17.234   3.225
63087W        W29870  20.077  23.986   2.869
63088W        W29871  10.615  12.859  11.509
63089W        W29872  34.142   4.399  14.335
63090W        W29873  13.636  12.279  10.700
63091W        W29874  16.167  37.091  11.768
63092W        W29875  16.651  42.967   4.164
63093W        W29876  34.952  38.286   2.752
63094W        W29877  15.298   4.443  13.910
63095W        W29878  18.968  19.260   1.893
63096W        W29879   4.937  10.276   2.269
63097W        W29880  44.415  26.053   4.600
63098W        W29881  29.851  10.283  10.627
63099W        W29882  15.762  31.248   0.109
63100W        W29883  15.865  18.765   0.822
63101W        W29884  10.325   6.008   3.268
63102W        W29885  44.976  20.861  12.401
63103W        W29886  41.240  37.420  10.825
63104W        W29887  41.704  41.829  12.831
63105W        W29888  33.721  42.833  13.089
63106W        W29889   2.285  31.607  11.919
63107W        W29890  43.481  42.399   4.633
63108W        W29891  19.252  25.724  11.187
63109W        W29892  25.286  44.867   2.805
63110W        W29893  21.861  39.870  12.873
63111W        W29894  31.252  25.572   2.311
63112W        W29895  28.651  37.442   0.356
63113W        W29896   9.332  12.773  12.012
63114W        W29897   9.888  10.144  11.125
63115W        W29898   2.374  37.151   1.403
63116W        W29899   1.871  43.247   1.795
63117W        W29900  10.451  37.006  12.024
63118W        W29901  21.065  19.441   3.676
63119W        W29902  28.981  11.852   3.252
63120W        W29903  28.639   9.157  14.553
63121W        W29904   3.341  11.787   3.875
63122W        W29905  10.145  11.848   0.858
63123W        W29906  15.627  28.258  13.463
63124W        W29907  31.098  39.380   4.189
63125W        W29908  16.725  41.335  14.015
63126W        W29909  18.283  42.201  10.894
63127W        W29910  37.929  34.373   2.834
63128W        W29911  35.607  42.550   4.535
63129W        W29912  36.074  21.560  14.480
63130W        W29913  43.779  23.097   0.134
63131W        W29914  13.123   3.036  13.103
63132W        W29915  42.499  42.343  11.743
63133W        W29916  22.752  20.520   2.420
63134W        W29917  18.214  21.092  10.625
63135W        W29918  13.867  38.103   9.917
63136W        W29919  14.305  27.566  10.100
63137W        W29920  11.865  43.399   1.450
63138W        W29921   2.878  40.004  12.051
63139W        W29922  11.817  39.283   2.876
63140W        W29923   0.998  36.029  14.017
63141W        W29924   5.688  18.758  11.449
63142W        W29925  39.752  14.191  13.154
63143W        W29926  23.364  27.186  11.144
63144W        W29927  31.037  33.192   0.263
63145W        W29928  40.393  23.599  13.900
63146W        W29929  43.279  40.023   0.384
63147W        W29930  38.944  28.701   4.263
63148W        W29931  31.893   9.816   1.835
63149W        W29932   0.572  30.186   4.698
63150W        W29933  11.688   9.178   4.950
63151W        W29934  15.194  38.596   5.556
63152W        W29935  39.289  41.331   2.849
63153W        W29936  34.055  42.880  14.608
63154W        W29937  27.702   7.639  13.009
63155W        W29938   0.566   6.271   2.154
63156W        W29939  10.877  30.460  14.167
63157W        W29940  31.957   5.734   3.226
63158W        W29941  13.986  31.480   1.192
63159W        W29942   2.334  21.871   2.196
63160W        W29943  43.901   0.252   1.461
63161W        W29944  19.474  41.465  12.935
63162W        W29945   6.424  34.654  11.242
63163W        W29946  40.900  19.746   3.323
63164W        W29947   2.374  40.595   4.273
63165W        W29948   4.195  43.705  13.155
63166W        W29949  42.366   2.471  11.618
63167W        W29950  36.765  14.657  13.746
63168W        W29951   2.805  38.004  13.149
63169W        W29952  27.709  29.168   4.103
63170W        W29953  16.579   0.544   2.597
63171W        W29954  20.052   4.930   4.078
63172W        W29955  34.061  43.258  14.067
63173W        W29956  39.069   2.822  11.043
63174W        W29957  41.946  13.862   0.924
63175W        W29958   4.451  14.682   2.211
63176W        W29959  21.652  42.311  13.901
63177W        W29960  27.809  31.038   4.300
63178W        W29961   2.819  44.497  13.480
63179W        W29962   3.894  38.072   4.404
63180W        W29963  40.497  31.804  12.998
63181W        W29964  22.950  39.930   2.425
63182W        W29965  18.347  38.022   2.798
63183W        W29966  24.511  28.121   3.055
63184W        W29967  39.997  44.031   3.025
63185W        W29968   2.327  19.840   4.244
63186W        W29969  37.876   9.142  14.965
63187W        W29970  25.243  28.643   3.674
63188W        W29971   8.738  15.849  14.738
63189W        W29972  12.484   7.400   0.983
63190W        W29973   0.753  32.822   3.818
63191W        W29974  43.834  41.526   3.532
63192W        W29975  42.895  23.498   1.775
63193W        W29976  38.483  20.699   4.339
63194W        W29977  37.484  40.885  12.238
63195W        W29978  21.001  43.898  14.069
63196W        W29979   6.294  38.230  10.743
63197W        W29980  18.056  12.775   2.187
63198W        W29981  25.176  23.569   3.279
63199W        W29982  17.124  12.417   1.320
63200W        W29983  31.852  43.581  13.276
63201W        W29984   6.412  39.628  11.538
63202W        W29985  43.953  32.629  13.926
63203W        W29986  28.959   0.717  11.173
63204W        W29987  15.786   5.681   1.995
63205W        W29988  36.373  18.837  11.834
63206W        W29989   9.265  31.144  12.488
63207W        W29990  28.636  31.126  13.886
63208W        W29991  10.754   3.365   3.020
63209W        W29992  17.104  43.777   3.873
63210W        W29993  24.346  22.244   2.277
63211W        W29994  39.272  23.456   4.145
63212W        W29995  27.491   4.837   3.287
63213W        W29996  35.495  23.685  12.581
63214W        W29997  22.391  32.451   1.946
63215W        W29998  20.313  25.545   3.782
63216W        W29999  20.768   7.319  11.629
63217W        W30000   3.151  43.778   2.700
63218W        W30001  16.240  40.212  12.163
63219W        W30002  36.069  23.262   3.377
63220W        W30003  15.655  10.787   2.293
63221W        W30004  43.916  16.672  11.263
63222W        W30005  36.972  28.921   0.254
63223W        W30006  17.685  15.927   1.689
63224W        W30007  12.596   3.912   4.109
63225W        W30008  30.622  34.562   3.946
63226W        W30009  23.003  12.641   4.621
63227W        W30010  18.626  27.913  12.654
63228W        W30011  35.026   2.511  11.462
63229W        W30012  44.956  41.113   4.383
63230W        W30013  32.643  19.637  13.739
63231W        W30014   7.600  18.830  14.366
63232W        W30015  35.484  18.794   1.941
63233W        W30016  25.103  31.721   3.699
63234W        W30017  44.964  17.062   4.080
63235W        W30018  22.487  24.034  12.124
63236W        W30019  25.228  15.747   3.909
63237W        W30020  32.890  10.761  10.540
63238W        W30021  37.416  21.195   4.092
63239W        W30022  13.945   4.038  13.024
63240W        W30023  24.704  41.044   2.178
63241W        W30024  33.017  16.894   4.627
63242W        W30025   4.325   7.830  12.428
63243W        W30026   6.639  17.088  11.061
63244W        W30027   2.038  22.776   1.371
63245W        W30028  40.833  43.386  12.966
63246W        W30029  34.165  36.802  11.197
63247W        W30030   4.956   5.736  14.958
63248W        W30031  14.386  25.128   3.257
63249W        W30032  32.052  16.090  12.585
63250W        W30033   5.893  32.191  11.965
63251W        W30034  14.544  31.595  13.834
63252W        W30035  30.902  31.079   0.946
63253W        W30036  39.013  17.671   3.244
63254W        W30037  30.441   6.031  12.798
63255W        W30038  33.614  40.500  12.067
63256W        W30039   5.134  24.062  14.468
63257W        W30040  23.624   2.366   2.725
63258W        W30041  13.758  15.161   3.690
63259W        W30042  32.954  16.905  11.022
63260W        W30043   8.968  18.956  14.437
63261W        W30044   3.312  37.604  10.577
63262W        W30045  26.231  30.490  13.385
63263W        W30046  19.778   0.282   2.260
63264W        W30047   1.842  26.023  14.561
63265W        W30048  29.565  13.247  10.971
63266W        W30049  17.511  27.426  14.278
63267W        W30050   9.210  37.948  12.777
63268W        W30051  36.007  39.301  14.688
63269W        W30052  24.044  40.448  12.791
63270W        W30053  36.006  36.055   2.480
63271W        W30054  40.964   1.911   2.868
63272W        W30055  40.430  20.988  12.921
63273W        W30056  33.018  29.340  12.422
63274W        W30057  26.795  41.808   0.859
63275W        W30058  19.401  36.970  11.659
63276W        W30059  13.100  39.880   4.194
63277W        W30060   7.825  26.558   9.892
63278W        W30061  27.681  28.228   3.619
63279W        W30062   5.503  22.638  11.170
63280W        W30063  20.989   1.239  12.391
63281W        W30064  43.643   2.843  14.932
63282W        W30065   2.098  13.675  12.512
63283W        W30066  11.676  20.703  13.526
63284W        W30067   3.982   2.958  12.213
63285W        W30068   3.284   0.644   3.045
63286W        W30069  33.000  41.222   3.122
63287W        W30070  42.098  25.904  11.934
63288W        W30071  42.688   3.939  11.677
63289W        W30072   6.657  34.157  11.545
63290W        W30073  31.087  15.124  14.054
63291W        W30074   4.168  44.064   3.668
63292W        W30075  19.548  36.891   1.736
63293W        W30076  42.969   6.678   4.935
63294W        W30077   5.284  35.926  13.453
63295W        W30078   3.730  43.838   1.013
63296W        W30079   5.717   6.060  14.443
63297W        W30080  28.100  26.716  14.038
63298W        W30081  10.901  43.852   1.878
63299W        W30082   3.270   6.788   1.320
63300W        W30083  11.779  32.476  14.596
63301W        W30084  17.118   3.207  14.412
63302W        W30085  18.161   3.211  13.877
63303W        W30086   6.073  30.142  11.547
63304W        W30087  25.002   3.712  11.178
63305W        W30088  22.306  43.571  13.700
63306W        W30089  23.903   7.292  10.280
63307W        W30090   1.228  34.315  12.130
63308W        W30091   3.964  44.867   2.368
63309W        W30092  15.098  11.630  14.758
63310W        W30093  26.006  34.075  11.715
63311W        W30094  42.722  21.612   4.636
63312W        W30095  11.525  39.524  13.518
63313W        W30096   2.244  13.339  13.671
63314W        W30097   4.844  36.003  10.944
63315W        W30098  23.731  17.541  13.787
63316W        W30099  24.813  21.599  13.624
63317W        W30100  29.979   2.311   4.274
63318W        W30101  20.244   3.930   2.699
63319W        W30102  26.654  18.275  11.209
63320W        W30103   2.427   1.617  12.961
63321W        W30104  34.021  24.621  13.783
63322W        W30105   8.492  28.103   0.267
63323W        W30106  18.536  20.545   1.552
63324W        W30107  29.716   2.923   4.589
63325W        W30108   5.042   4.640   1.987
63326W        W30109  42.958  42.476   2.818
63327W        W30110  30.624  38.582   0.379
63328W        W30111  38.003  26.923  11.515
63329W        W30112  28.450   4.988   3.288
63330W        W30113  33.715  36.089   3.366
63331W        W30114  13.338   6.198   4.440
63332W        W30115  39.770  37.496   0.491
63333W        W30116  24.277  16.201   0.490
63334W        W30117  29.297   4.106  11.121
63335W        W30118  29.399  23.506  14.359
63336W        W30119  37.451  43.313   4.617
63337W        W30120   9.852  25.140   4.716
63338W        W30121   3.900  16.033  10.435
63339W        W30122  26.773  10.033   0.450
63340W        W30123  10.548  29.783  12.021
63341W        W30124  38.594  22.151  11.194
63342W        W30125   9.788  14.584   1.537
63343W        W30126  19.589   2.719   0.288
63344W        W30127   1.269  31.017   4.157
63345W        W30128   8.263   2.821   2.657
63346W        W30129  21.735  21.145   3.100
63347W        W30130  37.705   4.572   3.773
63348W        W30131  34.056   1.458   1.367
63349W        W30132  19.534  43.333   2.773
63350W        W30133  12.252  33.631   4.906
63351W        W30134  30.641  42.337  14.857
63352W        W30135  28.697  10.988   1.162
63353W        W30136   5.678  13.778  12.495
63354W        W30137  20.818  20.141   1.487
63355W        W30138   1.142  30.474   2.105
63356W        W30139  34.036   3.660  10.517
63357W        W30140  23.027  20.735   4.310
63358W        W30141  14.862  23.628   3.382
63359W        W30142  37.430   7.848  11.022
63360W        W30143  19.639   4.722  13.862
63361W        W30144   7.835  30.986   4.120
63362W        W30145  12.602  15.226  10.614
63363W        W30146  29.949  31.204  11.074
63364W        W30147   1.749  24.602  14.760
63365W        W30148  20.921  23.886  13.459
63366W        W30149  32.443  27.971  12.775
63367W        W30150  40.473  28.154  14.817
63368W        W30151  10.738  32.417   3.742
63369W        W30152  44.066  22.812  12.507
63370W        W30153  21.142   7.237   3.770
63371W        W30154   6.084  19.582   4.358
63372W        W30155  25.004  43.223   4.224
63373W        W30156  28.926  10.177  13.245
63374W        W30157   4.110  38.458   3.265
63375W        W30158  16.525  22.618   2.718
63376W        W30159  10.876  25.257   4.792
63377W        W30160   8.146  18.356  11.911
63378W        W30161  10.382  27.208  13.977
63379W        W30162   3.934  22.686  13.926
63380W        W30163  39.971  12.723   4.367
63381W        W30164  30.622  38.994  11.518
63382W        W30165  12.178  26.573   0.754
63383W        W30166  43.897  31.685  10.511
63384W        W30167  18.713  21.216  12.830
63385W        W30168  30.605  13.670  14.232
63386W        W30169  15.529  28.628   4.179
63387W        W30170  15.560  43.777   2.934
63388W        W30171  36.402  41.605   4.606
63389W        W30172  17.220  27.003   2.910
63390W        W30173  13.143  10.766   2.163
63391W        W30174  41.442  35.388   4.599
63392W        W30175   3.415  33.859  12.465
63393W        W30176   6.213  20.871  10.881
63394W        W30177  26.062   6.424  12.488
63395W        W30178  21.240  36.121   1.813
63396W        W30179  44.275  37.039  10.566
63397W        W30180  19.280  23.800   2.683
63398W        W30181  16.893  33.717   4.838
63399W        W30182  28.953  32.438  14.849
63400W        W30183  14.080  30.356  10.655
63401W        W30184  29.189   2.935   1.492
63402W        W30185  40.134  37.016  11.429
63403W        W30186  25.748   0.754  14.815
63404W        W30187  39.531  28.437  13.743
63405W        W30188  35.389  31.361  13.087
63406W        W30189   3.619  30.518   2.034
63407W        W30190   9.719  39.665   1.771
63408W        W30191  38.342   3.322  12.897
63409W        W30192  18.637  16.405   4.928
63410W        W30193  30.660  14.957  11.146
63411W        W30194  14.896  29.548   3.140
63412W        W30195  41.592  40.553   2.826
63413W        W30196  41.834  11.838   3.590
63414W        W30197  18.153  20.365   1.923
63415W        W30198   7.317  18.058  12.890
63416W        W30199  18.158   7.352   2.749
63417W        W30200   4.225   1.984   3.024
63418W        W30201  10.615   6.877  12.556
63419W        W30202  15.223  39.725   9.852
63420W        W30203   2.861  43.000   3.683
63421W        W30204  28.353   3.933   4.155
63422W        W30205   9.964  19.289   4.660
63423W        W30206  17.243   1.945  10.263
63424W        W30207  24.024   7.953   3.189
63425W        W30208  26.325  16.166  12.900
63426W        W30209  26.136  17.890   1.832
63427W        W30210  18.122  14.274  12.962
63428W        W30211   7.721  36.326   1.405
63429W        W30212   1.943  25.134  14.204
63430W        W30213  37.206  28.533   4.838
63431W        W30214  36.755  15.126  13.431
63432W        W30215  15.876  23.682   4.633
63433W        W30216   6.980  34.188  12.963
63434W        W30217   2.175  35.892   0.428
63435W        W30218  29.705   7.824  12.117
63436W        W30219  36.076  37.971  11.515
63437W        W30220  36.706  31.944   4.729
63438W        W30221  30.488  33.670   2.810
63439W        W30222   3.951  15.309   0.338
63440W        W30223  19.429   8.564   0.258
63441W        W30224  19.692  37.309  13.966
63442W        W30225   5.723  12.473   4.166
63443W        W30226  11.665   9.025   5.443
63444W        W30227  35.821  17.227  10.556
63445W        W30228  36.370  26.491   4.609
63446W        W30229   3.021  44.847   3.640
63447W        W30230  25.173  26.407   3.534
63448W        W30231   7.830  11.862  13.484
63449W        W30232  36.522  32.305  13.350
63450W        W30233  19.673  31.139  11.222
63451W        W30234   0.520  29.680   2.370
63452W        W30235  15.777   9.569   0.059
63453W        W30236  34.331   3.199   5.228
63454W        W30237  21.701  12.358   2.686
63455W        W30238  32.892  18.809   1.266
63456W        W30239   5.454  14.508  11.123
63457W        W30240  21.318  36.878  11.584
63458W        W30241  25.545  38.827  11.938
63459W        W30242  36.074  11.174  10.606
63460W        W30243   3.783  11.103  12.603
63461W        W30244  36.987  37.959   4.203
63462W        W30245   9.907  36.983  11.550
63463W        W30246  40.199  18.975   0.059
63464W        W30247   7.996  33.774   1.811
63465W        W30248  15.369  41.765   4.575
63466W        W30249  44.765  11.134   1.205
63467W        W30250  38.654  22.162   2.215
63468W        W30251  38.336   0.277  14.762
63469W        W30252   1.655  25.525  11.178
63470W        W30253  25.936  29.048  12.489
63471W        W30254  14.613  41.023  13.040
63472W        W30255  39.819   8.494   2.844
63473W        W30256  34.411  27.995   2.224
63474W        W30257   4.362   0.962   2.227
63475W        W30258  31.396   4.660  11.620
63476W        W30259  10.293  25.962  14.472
63477W        W30260  12.707   7.148   3.031
63478W        W30261  39.269  28.822  14.022
63479W        W30262  11.890  26.627   4.432
63480W        W30263  41.555  42.423  11.985
63481W        W30264   8.901  44.187  10.538
63482W        W30265  40.807  13.077  11.171
63483W        W30266  28.802  32.864   3.728
63484W        W30267  42.904  37.962  12.770
63485W        W30268   9.148  43.793   1.381
63486W        W30269  18.270   5.196   3.636
63487W        W30270  11.364  19.776   3.890
63488W        W30271  44.243  32.631   4.027
63489W        W30272  18.988  10.213   1.248
63490W        W30273  15.535  21.449   0.424
63491W        W30274  40.588  38.545   0.775
63492W        W30275  24.038  29.344  14.220
63493W        W30276  41.609  10.029   0.237
63494W        W30277  17.190   1.687   2.777
63495W        W30278  10.337  19.694   4.911
63496W        W30279  32.654  32.463  10.648
63497W        W30280   9.633  25.906   0.102
63498W        W30281  12.929  10.271  11.990
63499W        W30282  18.736  15.160  11.668
63500W        W30283  43.740   7.056   0.089
63501W        W30284  41.441   7.632   2.428
63502W        W30285   2.772  37.648  12.261
63503W        W30286  33.226   3.441  14.529
63504W        W30287  44.713  10.422   0.775
63505W        W30288   8.920  24.362  13.293
63506W        W30289  28.499  36.875  10.782
63507W        W30290  15.106   1.987  13.442
63508W        W30291  21.099  19.955   3.809
63509W        W30292  36.660  32.308  12.450
63510W        W30293  16.387  26.524   4.566
63511W        W30294  10.039  29.964   5.051
63512W        W30295  34.583  39.344  12.918
63513W        W30296  11.950   1.313  10.491
63514W        W30297  18.616  31.532  13.888
63515W        W30298   6.387  19.122   2.744
63516W        W30299   0.975   1.026   3.933
63517W        W30300  39.462  26.162  12.661
63518W        W30301   5.893   6.120   4.819
63519W        W30302  27.629  24.675  11.769
63520W        W30303  17.105  31.863  11.216
63521W        W30304  14.380  27.488  10.611
63522W        W30305   4.992  17.612  12.710
63523W        W30306  21.872  36.911  10.673
63524W        W30307  39.021   5.925   3.735
63525W        W30308  19.757   1.018  11.126
63526W        W30309  37.370  24.669   3.156
63527W        W30310   3.715  37.152  12.060
63528W        W30311  11.730  39.575  13.030
63529W        W30312   6.413   3.307   1.775
63530W        W30313  24.660   4.904  11.281
63531W        W30314  40.348  20.005  14.765
63532W        W30315  34.469  42.316   1.264
63533W        W30316   9.273  33.188  10.887
63534W        W30317  35.987  35.887   1.990
63535W        W30318  23.686   9.112   1.267
63536W        W30319  40.572  43.370   3.062
63537W        W30320  42.809  43.143  11.232
63538W        W30321   9.260   0.910  10.762
63539W        W30322  21.026  37.861  12.509
63540W        W30323  25.029   1.832  10.693
63541W        W30324  44.342  44.259  10.731
63542W        W30325  22.007  13.756  12.856
63543W        W30326  19.710   0.964  14.777
63544W        W30327  31.786  36.967  14.109
63545W        W30328  20.816  44.743   4.263
63546W        W30329  28.987  36.536   1.816
63547W        W30330  43.855  38.361   0.946
63548W        W30331  41.599   2.701  12.655
63549W        W30332  24.587  26.602   2.767
63550W        W30333   0.700  22.489   2.631
63551W        W30334  26.077  44.268   2.789
63552W        W30335  20.392   7.670  11.719
63553W        W30336   8.654  36.376   4.383
63554W        W30337  44.235  17.863  13.371
63555W        W30338  18.231  17.703   3.296
63556W        W30339  26.180  26.469  12.885
63557W        W30340  31.474  35.923   3.955
63558W        W30341  22.502  43.950  13.989
63559W        W30342  39.425  41.864   1.138
63560W        W30343  29.085  22.691  13.011
63561W        W30344  44.585  27.991  10.725
63562W        W30345   7.801  39.032   0.973
63563W        W30346   7.593  36.325   0.051
63564W        W30347   7.269   0.026  13.474
63565W        W30348  11.435  24.565   0.024
63566W        W30349  16.747  34.004   2.837
63567W        W30350  43.014  17.073  12.410
63568W        W30351  38.496  27.649  11.886
63569W        W30352  23.988  30.884  12.812
63570W        W30353  44.671   5.799  11.136
63571W        W30354  32.425  42.122  10.545
63572W        W30355  26.235  27.474  11.976
63573W        W30356  30.114  28.567   1.799
63574W        W30357  25.549  36.602  14.346
63575W        W30358   9.581  20.652   4.878
63576W        W30359  15.352  36.080  13.073
63577W        W30360  42.849  11.348   2.081
63578W        W30361  31.598  29.319  12.424
63579W        W30362  14.150   6.652   1.092
63580W        W30363  42.222  16.308  14.865
63581W        W30364  18.720  31.740  14.815
63582W        W30365  12.224  20.025   3.635
63583W        W30366  40.110  15.061  13.204
63584W        W30367  25.951  39.950  11.243
63585W        W30368  21.742  41.779  12.576
63586W        W30369   4.098  28.103   3.838
63587W        W30370  28.466  16.650   4.132
63588W        W30371  22.149   3.858   2.647
63589W        W30372  29.062  38.727  10.231
63590W        W30373  30.189  44.797  12.950
63591W        W30374  26.417  21.600   1.156
63592W        W30375  26.674  11.842  13.463
63593W        W30376  24.452  30.722   4.176
63594W        W30377  31.113  29.735   4.281
63595W        W30378  13.906  12.162   2.303
63596W        W30379  10.298  35.323   1.664
63597W        W30380   3.942  37.429  10.150
63598W        W30381   6.841   8.162  11.986
63599W        W30382  24.152  33.451   1.163
63600W        W30383  28.373   2.858  12.069
63601W        W30384  11.839  41.915   1.447
63602W        W30385  17.481  30.102   1.477
63603W        W30386  19.732  29.462  10.642
63604W        W30387  27.086   9.800  11.466
63605W        W30388  17.597  38.966  10.834
63606W        W30389  40.897   4.314   1.015
63607W        W30390  23.958  28.061   0.476
63608W        W30391   5.975  28.515  11.989
63609W        W30392   2.957  42.440   4.530
63610W        W30393  21.052  30.945   4.472
63611W        W30394   9.509  18.045   4.273
63612W        W30395  11.040   7.908   3.631
63613W        W30396  31.690  35.431   3.599
63614W        W30397   2.140   4.706   2.395
63615W        W30398  38.316  11.064  11.492
63616W        W30399  34.794  32.068  11.069
63617W        W30400   9.699   1.096   3.684
63618W        W30401  21.190  42.828  11.994
63619W        W30402  39.320  43.735   0.759
63620W        W30403  33.015  22.241   3.654
63621W        W30404  34.069   6.762   0.158
63622W        W30405  44.473  40.887   0.797
63623W        W30406   1.791  35.908  13.604
63624W        W30407  17.335  10.174   3.924
63625W        W30408   2.348  43.251  11.543
63626W        W30409  17.345  25.634   1.317
63627W        W30410   8.854  21.938   0.229
63628W        W30411   9.890  23.427   1.786
63629W        W30412  33.379  33.988  11.786
63630W        W30413  10.298  10.251   2.311
63631W        W30414   4.350  12.080  12.940
63632W        W30415  35.766   7.719   0.494
63633W        W30416   3.098  21.041  14.294
63634W        W30417   6.391   9.146   1.030
63635W        W30418  32.436  41.854  13.479
63636W        W30419  36.148  13.736  11.986
63637W        W30420  38.745  36.027  12.869
63638W        W30421   2.078  19.037   0.657
63639W        W30422  18.164  21.246   2.355
63640W        W30423  17.637  11.475   4.384
63641W        W30424  29.447   3.732   2.928
63642W        W30425  29.008  42.915   1.346
63643W        W30426  27.645   1.806   0.430
63644W        W30427   1.489  21.464  11.120
63645W        W30428  44.554  11.762   3.742
63646W        W30429  15.374   6.938  12.158
63647W        W30430  42.485  20.260   0.484
63648W        W30431  40.897  44.507   1.268
63649W        W30432   6.203  39.268   4.107
63650W        W30433  41.080  24.858   3.040
63651W        W30434  33.495  30.905   4.600
63652W        W30435  29.993  40.311   3.261
63653W        W30436  44.353   1.188  13.839
63654W        W30437  30.755  13.017  12.012
63655W        W30438  35.391  41.526  12.214
63656W        W30439  16.620  30.439   3.776
63657W        W30440  34.619  24.712  10.537
63658W        W30441  14.248  33.859  12.768
63659W        W30442  43.390  27.727  14.253
63660W        W30443  19.113  27.524   1.907
63661W        W30444  19.823  16.888   1.321
63662W        W30445  42.292  15.172   2.323
63663W        W30446  26.236  16.815  11.134
63664W        W30447   5.950  35.179  11.652
63665W        W30448   3.454  24.228   3.628
63666W        W30449  25.067   2.127   0.708
63667W        W30450  33.611  35.338   5.027
63668W        W30451  36.444  38.856  11.675
63669W        W30452  31.250  41.774   2.805
63670W        W30453  36.564  42.865   3.432
63671W        W30454  22.753   6.377  13.920
63672W        W30455  44.934  37.250   3.707
63673W        W30456  22.148  11.106  14.782
63674W        W30457  23.696  16.582  12.469
63675W        W30458  14.662  24.006   2.247
63676W        W30459  39.313  41.285   3.766
63677W        W30460  26.518  11.593  12.457
63678W        W30461  16.179  39.229  11.865
63679W        W30462  38.830  10.721  10.034
63680W        W30463  34.181  37.560  13.282
63681W        W30464  20.521  32.616  13.918
63682W        W30465   4.596   4.373   5.014
63683W        W30466  40.079  10.869  11.621
63684W        W30467  13.380  23.609   2.390
63685W        W30468  12.887  28.952  10.653
63686W        W30469  30.635  35.349   2.016
63687W        W30470   2.416  13.604   2.782
63688W        W30471  16.733  21.709   5.012
63689W        W30472  29.579  41.936   2.469
63690W        W30473   8.571  23.647   3.391
63691W        W30474  11.314  17.380   0.807
63692W        W30475  20.321  17.115   0.386
63693W        W30476  20.196   5.313   0.009
63694W        W30477  34.652  25.649   2.818
63695W        W30478  42.093   2.793   2.166
63696W        W30479  32.997  12.147  11.944
63697W        W30480   3.768   4.297  10.197
63698W        W30481   4.038  19.316   1.301
63699W        W30482   7.713   4.385   2.326
63700W        W30483  13.485   0.237  14.042
63701W        W30484  30.143   7.611   3.330
63702W        W30485  23.812  11.297  12.588
63703W        W30486  37.159   1.159   0.441
63704W        W30487  41.462  40.480  13.927
63705W        W30488   3.959  29.249   0.458
63706W        W30489  19.208  20.080   4.391
63707W        W30490  22.501   6.605   2.980
63708W        W30491  20.734   4.833   1.966
63709W        W30492  11.592   6.662   0.684
63710W        W30493  29.717  21.808  11.528
63711W        W30494  41.506  41.947   4.835
63712W        W30495  39.453  16.884   0.369
63713W        W30496  19.676  16.220   2.075
63714W        W30497  23.449  41.816   4.935
63715W        W30498  29.067  44.484  13.510
63716W        W30499   8.528   2.037   3.166
63717W        W30500   6.709   2.893   0.412
63718W        W30501   0.371  23.137  11.967
63719W        W30502  19.109  34.638   3.105
63720W        W30503  43.512   1.357  14.549
63721W        W30504   0.288  12.137  12.513
63722W        W30505   4.842   2.900   2.124
63723W        W30506  15.107   3.139  10.976
63724W        W30507   3.717  31.611  12.883
63725W        W30508   2.335   3.654  14.448
63726W        W30509  44.757  27.795  13.846
63727W        W30510  25.466  10.548  11.104
63728W        W30511   1.907   7.245   2.340
63729W        W30512  29.753  19.694  11.923
63730W        W30513  29.587   2.691  12.509
63731W        W30514  30.197  26.088   1.399
63732W        W30515  22.073  34.153  14.571
63733W        W30516  13.249  14.324   3.226
63734W        W30517  13.174   2.320  14.850
63735W        W30518  26.697  31.951  10.230
63736W        W30519  15.665  22.057   3.088
63737W        W30520  17.199  13.265  14.723
63738W        W30521  12.590  18.326  14.326
63739W        W30522  23.953  39.292   0.772
63740W        W30523   1.050   9.369   1.730
63741W        W30524  40.350  22.694  14.948
63742W        W30525  27.959   0.898   1.848
63743W        W30526  43.038  10.305  12.462
63744W        W30527  31.625  28.975  10.914
63745W        W30528  13.244   4.388   1.230
63746W        W30529  23.470  22.216  14.544
63747W        W30530   0.563  32.972   3.154
63748W        W30531  38.894  14.628  13.860
63749W        W30532  41.298  34.908   3.598
63750W        W30533  36.014  21.845  14.060
63751W        W30534  14.346  25.995  12.116
63752W        W30535  14.234  13.675  10.610
63753W        W30536   7.324   4.981   4.098
63754W        W30537  42.817  34.053   1.681
63755W        W30538  28.505  29.861  10.880
63756W        W30539  39.652   4.916   3.315
63757W        W30540  44.464   4.263   1.979
63758W        W30541  32.151   1.804  11.987
63759W        W30542  27.152  20.293   2.689
63760W        W30543  34.356   3.250  13.883
63761W        W30544  32.581  43.355   1.958
63762W        W30545  12.191  32.682  13.203
63763W        W30546  38.293  35.826  12.749
63764W        W30547   4.954  13.271   0.629
63765W        W30548   7.034   1.876   3.246
63766W        W30549  27.492  30.548   5.074
63767W        W30550  30.397  12.146  12.870
63768W        W30551  23.033   2.776  13.553
63769W        W30552   2.454   3.300  13.536
63770W        W30553  20.434   2.704   3.286
63771W        W30554  44.929  17.829   4.721
63772W        W30555  43.500  10.320   1.378
63773W        W30556  28.338   0.366   1.337
63774W        W30557   8.638  43.901   0.768
63775W        W30558  37.641  22.667   4.519
63776W        W30559  34.841  44.974  14.896
63777W        W30560   9.432  25.921  14.637
63778W        W30561  11.802  19.574   0.185
63779W        W30562  28.995  24.906   1.892
63780W        W30563  25.979  36.047  12.628
63781W        W30564  22.249  43.483   3.175
63782W        W30565  33.497  43.676  10.856
63783W        W30566  25.218  43.830  10.646
63784W        W30567   9.260  36.381  14.026
63785W        W30568  42.766   6.611   5.412
63786W        W30569  40.808  17.506   4.818
63787W        W30570  34.554   2.301  10.513
63788W        W30571  16.181  17.843   4.661
63789W        W30572  15.712  37.824   0.356
63790W        W30573  27.994  38.569  14.465
63791W        W30574  27.092  34.784  11.795
63792W        W30575  10.125  26.752  12.226
63793W        W30576  39.776  38.359  11.478
63794W        W30577  32.888   8.359  12.059
63795W        W30578   9.910  32.504  14.745
63796W        W30579  20.508   8.132  12.528
63797W        W30580  33.071  43.953  10.626
63798W        W30581  20.369   5.111   1.238
63799W        W30582  33.882  17.798   0.021
63800W        W30583  31.009  20.171  14.105
63801W        W30584  16.349  29.548  12.153
63802W        W30585  42.495  10.581   2.491
63803W        W30586  31.826  39.055  14.496
63804W        W30587  42.836  20.387  12.311
63805W        W30588  10.259  26.619   2.212
63806W        W30589  40.899  40.904  13.401
63807W        W30590  19.533  15.347   2.565
63808W        W30591  11.297  19.669  10.762
63809W        W30592  37.117  34.627   4.210
63810W        W30593  13.092   6.925  10.230
63811W        W30594  23.567   9.551   0.305
63812W        W30595  40.043  32.515  14.260
63813W        W30596   0.336  37.347   1.323
63814W        W30597   6.840  40.037  13.749
63815W        W30598   6.865  44.438   1.186
63816W        W30599   9.720   6.317   4.359
63817W        W30600  11.074  29.873   4.389
63818W        W30601  27.257  39.387   5.599
63819W        W30602  37.786  30.637  10.731
63820W        W30603  16.644  29.063   3.098
63821W        W30604   7.811  26.809  14.378
63822W        W30605  24.445  42.995  14.028
63823W        W30606  43.474   5.332  12.464
63824W        W30607  38.467  43.502   2.923
63825W        W30608  24.782  38.666  14.358
63826W        W30609  41.403  11.070  12.339
63827W        W30610  25.220  12.064   3.182
63828W        W30611  41.372  39.906   2.242
63829W        W30612  18.723   9.924  11.659
63830W        W30613   4.274  26.178   3.856
63831W        W30614   2.660  26.439  11.628
63832W        W30615  38.898  18.308  13.970
63833W        W30616  30.174  16.099   0.695
63834W        W30617  44.522  16.719   0.546
63835W        W30618  21.195  36.960   4.076
63836W        W30619  24.626  26.939   2.336
63837W        W30620  16.689  13.288  12.560
63838W        W30621   2.749  16.625  12.979
63839W        W30622  42.712  37.886  13.237
63840W        W30623  24.923  15.007   0.914
63841W        W30624   8.131  43.003   3.061
63842W        W30625  38.650  37.433   1.385
63843W        W30626  14.556  39.880  11.690
63844W        W30627  42.439  13.037  13.774
63845W        W30628  32.967  15.261  11.553
63846W        W30629   8.717  24.529   4.628
63847W        W30630  21.573  10.451  10.240
63848W        W30631   7.495   5.306  14.936
63849W        W30632  38.172   4.539  14.449
63850W        W30633  26.947  22.591   0.626
63851W        W30634  37.588   0.515   4.188
63852W        W30635  12.630  30.672  14.999
63853W        W30636   6.763  11.346  12.068
63854W        W30637  15.984  10.758   0.870
63855W        W30638  36.593   1.695   9.979
63856W        W30639  13.122   1.971  12.941
63857W        W30640  30.572  38.638  13.613
63858W        W30641  16.859   7.694   1.423
63859W        W30642   6.281  43.521  13.313
63860W        W30643  38.885  37.790  13.299
63861W        W30644  43.289   4.941  10.649
63862W        W30645  34.988  16.498   4.164
63863W        W30646   0.505  40.326   3.920
63864W        W30647  25.100  31.149   0.424
63865W        W30648  10.761   0.588  10.703
63866W        W30649  16.159  17.517  11.507
63867W        W30650  35.423   0.774  13.935
63868W        W30651  31.593  12.987   4.421
63869W        W30652  14.110  16.770  14.318
63870W        W30653  44.960   2.516  12.007
63871W        W30654  35.606  11.338   3.773
63872W        W30655  17.867  34.493   3.371
63873W        W30656  43.305  12.283   0.467
63874W        W30657  15.950  43.414  11.358
63875W        W30658  13.200  26.058   0.218
63876W        W30659  42.390  28.739  12.199
63877W        W30660  28.556   6.239   1.078
63878W        W30661  13.847  15.844   4.403
63879W        W30662  32.507  16.642  12.136
63880W        W30663   2.874  34.391   1.493
63881W        W30664   8.595  24.836   4.201
63882W        W30665   0.951  24.098   1.144
63883W        W30666  23.948  34.547  12.514
63884W        W30667  38.474  15.834   1.968
63885W        W30668   0.803  25.183  13.139
63886W        W30669  40.862   3.971   1.417
63887W        W30670  11.351   6.866   1.661
63888W        W30671   2.265   7.751   3.416
63889W        W30672  30.454   0.010  14.495
63890W        W30673  40.111  36.455   4.157
63891W        W30674  42.301  28.789  10.254
63892W        W30675  35.339   2.888  12.561
63893W        W30676  20.537  38.948  14.769
63894W        W30677   7.929   1.814   5.025
63895W        W30678  12.666   8.301   0.494
63896W        W30679  18.776  31.945  10.157
63897W        W30680   7.633  40.354  11.549
63898W        W30681   2.913  12.625   3.282
63899W        W30682  37.473  16.208  11.505
63900W        W30683  40.910  16.179   3.263
63901W        W30684  12.891  42.410  14.802
63902W        W30685  40.589  25.025   1.708
63903W        W30686  41.457  26.413   3.369
63904W        W30687   9.492   8.330  13.186
63905W        W30688   9.169  17.430  11.660
63906W        W30689  17.948  21.107  14.497
63907W        W30690  25.752  20.556  10.858
63908W        W30691  14.222   6.732  12.389
63909W        W30692  33.601  27.652  14.524
63910W        W30693  39.764  14.379   0.413
63911W        W30694  42.816   0.518   4.009
63912W        W30695  21.693  42.489  13.394
63913W        W30696  22.313  37.643  12.989
63914W        W30697   7.127  17.814  13.319
63915W        W30698  41.578  18.677  11.983
63916W        W30699  26.160  22.045  12.859
63917W        W30700  30.458  22.478  12.952
63918W        W30701  40.988   7.383  11.931
63919W        W30702  31.089  18.826   1.916
63920W        W30703  22.729  10.667   2.269
63921W        W30704   7.169  37.836  12.949
63922W        W30705   1.758  24.026  13.801
63923W        W30706  11.381  36.184   4.480
63924W        W30707  13.131  10.937   0.664
63925W        W30708  42.855  23.758  10.738
63926W        W30709   1.679  37.003   1.876
63927W        W30710  21.701  36.902   1.790
63928W        W30711  26.448  17.635   3.209
63929W        W30712   9.844  35.986   2.665
63930W        W30713  33.338  41.877   2.598
63931W        W30714  38.616   6.228   2.231
63932W        W30715  38.379  41.931  12.598
63933W        W30716  30.721  24.498   2.428
63934W        W30717  10.799  11.637  12.550
63935W        W30718   7.364  37.653   1.269
63936W        W30719  17.623  26.181  13.414
63937W        W30720  20.019  42.968  12.463
63938W        W30721  44.378  35.011  12.947
63939W        W30722  29.499   6.422   0.816
63940W        W30723  11.288  21.654  12.965
63941W        W30724  11.088  44.779  12.009
63942W        W30725   4.254  30.852  12.660
63943W        W30726  17.360   8.722   3.222
63944W        W30727   9.692  29.317  11.215
63945W        W30728  21.265  13.096   4.342
63946W        W30729  35.402  23.245  14.071
63947W        W30730  12.050  42.112  14.585
63948W        W30731  15.051  30.670  13.837
63949W        W30732  35.170  15.197  11.521
63950W        W30733  18.178   8.911   2.840
63951W        W30734  13.591  16.757  14.403
63952W        W30735   7.381  41.379   1.931
63953W        W30736   4.198   1.601   3.362
63954W        W30737  34.747  34.536   4.732
63955W        W30738  15.695  33.315   1.839
63956W        W30739  23.015  20.094  13.118
63957W        W30740  37.562  21.903  12.568
63958W        W30741  11.842  21.971  12.371
63959W        W30742  17.814  24.547  12.385
63960W        W30743  16.024  14.345   3.733
63961W        W30744  34.544  39.602   4.449
63962W        W30745  43.981   8.451  11.871
63963W        W30746  30.819  17.245   0.401
63964W        W30747  33.137   5.305   4.204
63965W        W30748  18.197   8.931   1.954
63966W        W30749  23.144  40.527   4.186
63967W        W30750   4.142  25.139  13.357
63968W        W30751  24.979  29.593   2.832
63969W        W30752  34.794  21.538   3.479
63970W        W30753  33.939  32.879   0.905
63971W        W30754  41.649  20.046   0.497
63972W        W30755   2.821  36.344   4.666
63973W        W30756  39.003  20.212  12.523
63974W        W30757  34.150  44.343   2.707
63975W        W30758  20.297   8.823   3.109
63976W        W30759  15.990  28.868   4.269
63977W        W30760  23.025  10.767   3.608
63978W        W30761   0.731  40.966  11.389
63979W        W30762  44.448  23.214  10.632
63980W        W30763  31.902   8.356   2.274
63981W        W30764   1.475  44.543   0.694
63982W        W30765  33.627  22.177  14.368
63983W        W30766   0.687  39.746  10.204
63984W        W30767  12.721  14.998  12.330
63985W        W30768  36.357  38.383  11.551
63986W        W30769  39.460   3.184   1.977
63987W        W30770  18.071  36.661  14.964
63988W        W30771  23.937  29.954   3.287
63989W        W30772  35.229  41.859   1.965
63990W        W30773  24.258  18.978  14.989
63991W        W30774   5.178   8.376  14.704
63992W        W30775  30.411  17.243   2.858
63993W        W30776   1.925   2.929  11.855
63994W        W30777  41.298   6.942   0.391
63995W        W30778  28.065  27.545  10.841
63996W        W30779  25.192   8.675  14.327
63997W        W30780  39.074  13.637   4.514
63998W        W30781  31.723  29.376   0.386
63999W        W30782  10.122  25.514   2.849
64000W        W30783  19.209  40.435   4.356
64001W        W30784   5.911  23.134  11.693
64002W        W30785  33.547   7.186   2.727
64003W        W30786  29.681   7.236  13.877
64004W        W30787  34.800  12.635   4.268
64005W        W30788   7.351   1.993   4.635
64006W        W30789   0.980   8.682  11.110
64007W        W30790  13.760  35.862   3.777
64008W        W30791  25.634  32.183  14.280
64009W        W30792  35.560  24.155  14.400
64010W        W30793  26.449  44.252  12.349
64011W        W30794  30.353  22.145  13.830
64012W        W30795  27.762  39.804   2.269
64013W        W30796  15.555  29.616   4.865
64014W        W30797  34.758  23.051  11.952
64015W        W30798   8.201  25.781   1.013
64016W        W30799  22.373  24.273  10.707
64017W        W30800  40.404  30.414  13.451
64018W        W30801  25.327  23.984  14.986
64019W        W30802  42.352  15.723   1.104
64020W        W30803  26.633   5.807  14.667
64021W        W30804  37.620  20.574   4.659
64022W        W30805   6.443  27.433  11.496
64023W        W30806  41.238  41.378  13.520
64024W        W30807  41.905  26.661  11.156
64025W        W30808  43.461  43.518   3.160
64026W        W30809  40.215  19.549  12.775
64027W        W30810  13.025   4.817   2.359
64028W        W30811  43.358  37.597   1.296
64029W        W30812  39.422  16.183   1.119
64030W        W30813  27.160  19.939  10.670
64031W        W30814  24.128  35.886  14.258
64032W        W30815   7.793  20.188  14.264
64033W        W30816  20.296   3.262  11.441
64034W        W30817  12.328  33.426  11.441
64035W        W30818  44.357  24.389  12.986
64036W        W30819  37.764  17.380  13.979
64037W        W30820  10.454  27.613  14.312
64038W        W30821  16.817   5.345   2.844
64039W        W30822  39.278  22.446   0.295
64040W        W30823  16.619  11.713  11.733
64041W        W30824  33.426  41.900   0.588
64042W        W30825  42.722  35.005   1.746
64043W        W30826   7.308   0.715  10.317
64044W        W30827  41.885  38.047  11.733
64045W        W30828   7.580   5.577   1.334
64046W        W30829  22.151  30.477   2.846
64047W        W30830  25.920  26.807   0.061
64048W        W30831  38.678  15.852   4.366
64049W        W30832  39.229  32.117  12.905
64050W        W30833  24.133  29.905   0.053
64051W        W30834  20.214  41.243  12.965
64052W        W30835  25.766  29.162   1.940
64053W        W30836   7.795  33.912   2.366
64054W        W30837  28.988  35.621   4.503
64055W        W30838  15.110  34.333   2.730
64056W        W30839  25.169  35.430  12.558
64057W        W30840  38.384  34.808   3.633
64058W        W30841  40.612  24.248  14.692
64059W        W30842   1.990   9.746   0.857
64060W        W30843  37.062  28.639   2.280
64061W        W30844  24.935   4.335   0.962
64062W        W30845   0.486  42.372  14.390
64063W        W30846   9.856  31.969  10.548
64064W        W30847   3.210  32.979  13.840
64065W        W30848  36.341  31.936   2.040
64066W        W30849  34.607  28.252  11.662
64067W        W30850  18.919  12.246   4.194
64068W        W30851  38.233  20.605  13.491
64069W        W30852  27.438  43.751   2.594
64070W        W30853  32.091  44.851   4.266
64071W        W30854  31.147  42.342   1.724
64072W        W30855   2.337  27.503   2.840
64073W        W30856  43.046   4.465  12.462
64074W        W30857   3.309  33.840   4.150
64075W        W30858  17.323  19.027  14.679
64076W        W30859  36.557   8.234   2.197
64077W        W30860  16.201  12.035   2.908
64078W        W30861   0.407  40.028  11.681
64079W        W30862   9.195   8.608   1.415
64080W        W30863  14.298  44.405  14.764
64081W        W30864  10.879  35.406   0.302
64082W        W30865   0.420   3.938   1.785
64083W        W30866  13.691  42.539   1.907
64084W        W30867  20.492  13.598  12.888
64085W        W30868   6.436  30.115   2.401
64086W        W30869  20.978  38.451   1.231
64087W        W30870  40.940  15.600  14.259
64088W        W30871  44.892  23.718  14.567
64089W        W30872  32.028   7.213   0.462
64090W        W30873  13.158  38.155   2.289
64091W        W30874  23.029  31.661  14.892
64092W        W30875  36.870  12.202  14.928
64093W        W30876   8.970  27.700   1.747
64094W        W30877  12.654   1.710  14.924
64095W        W30878  12.571   9.711  14.804
64096W        W30879  44.773  41.992   4.235
64097W        W30880  44.525  29.975   2.028
64098W        W30881  21.495  21.557  13.905
64099W        W30882  37.965  29.645  12.908
64100W        W30883  35.643  30.953  12.910
64101W        W30884   5.177  27.762   2.387
64102W        W30885  44.286  34.112  10.265
64103W        W30886  38.055  10.844   1.630
64104W        W30887  33.172  12.836   0.198
64105W        W30888   6.810  13.274   3.940
64106W        W30889  44.884  35.120  13.832
64107W        W30890   8.724   6.739  12.929
64108W        W30891   1.661  22.567  12.034
64109W        W30892   1.755  29.186  11.178
64110W        W30893  36.314  11.694   1.764
64111W        W30894  24.069  44.789  12.717
64112W        W30895  30.910  25.929  14.533
64113W        W30896   8.551  11.652   4.042
64114W        W30897  39.589  35.551  12.821
64115W        W30898  28.437  40.154   5.341
64116W        W30899  28.273  30.377   4.450
64117W        W30900  15.139  41.310  12.493
64118W        W30901  22.174  28.303  11.983
64119W        W30902   6.851  38.678  13.257
64120W        W30903  30.362   6.936  12.722
64121W        W30904   9.705  39.989   0.314
64122W        W30905  23.117  17.537   0.543
64123W        W30906   5.772  18.014  13.087
64124W        W30907  15.119  43.480   1.230
64125W        W30908   9.668  30.533   4.262
64126W        W30909  44.434  17.902  11.179
64127W        W30910  31.466  28.495  11.080
64128W        W30911  11.241  21.616   3.913
64129W        W30912   0.870  35.010   0.757
64130W        W30913   4.802  42.275   3.739
64131W        W30914   9.711  26.768  14.627
64132W        W30915  22.321  40.365  12.136
64133W        W30916  44.823   5.522  11.537
64134W        W30917  40.569  35.816  13.100
64135W        W30918  25.029  44.907   3.355
64136W        W30919  35.468  34.877   2.716
64137W        W30920   0.751   8.404   0.972
64138W        W30921  20.559  32.130  12.586
64139W        W30922  39.000  35.551  13.997
64140W        W30923  14.746  21.232   0.919
64141W        W30924   5.845  22.133  14.781
64142W        W30925  28.083   0.521  14.582
64143W        W30926  27.123  10.924   1.729
64144W        W30927  12.664  19.829   1.254
64145W        W30928  34.684   4.402   1.721
64146W        W30929  13.544  32.871  14.867
64147W        W30930  29.498  31.917  12.482
64148W        W30931  32.122  12.089  14.679
64149W        W30932  38.083  21.267  12.745
64150W        W30933  27.999  23.093   4.126
64151W        W30934  36.420  34.700   3.612
64152W        W30935  38.498   7.579  12.550
64153W        W30936  28.369  29.259  12.277
64154W        W30937  13.743  44.297   2.278
64155W        W30938   0.288  14.199  14.822
64156W        W30939  23.471  27.870  13.034
64157W        W30940  14.702  44.726   2.328
64158W        W30941  26.178   0.332   3.567
64159W        W30942   7.842  11.054  13.954
64160W        W30943  15.956  33.049   0.456
64161W        W30944   5.327  44.762  13.763
64162W        W30945  13.392   3.573   3.674
64163W        W30946  25.977  17.715   3.651
64164W        W30947  20.897  31.911   4.175
64165W        W30948  16.399  26.502  14.786
64166W        W30949  38.310  14.628   0.343
64167W        W30950   6.890  39.084  12.865
64168W        W30951  13.835  13.687   3.316
64169W        W30952  12.394  28.016   4.066
64170W        W30953  40.075   0.737  14.893
64171W        W30954  33.395  20.432   4.038
64172W        W30955  18.140  19.132  11.479
64173W        W30956  25.061  19.478   4.628
64174W        W30957   1.426  26.291   2.674
64175W        W30958  18.730  13.771  12.398
64176W        W30959  24.751  32.069   0.658
64177W        W30960   7.685  44.952  14.747
64178W        W30961   5.256  25.867  14.939
64179W        W30962  33.099  20.263  13.055
64180W        W30963  10.585   4.362   3.732
64181W        W30964  31.623  43.535  13.878
64182W        W30965   2.258  38.838   1.785
64183W        W30966  20.259  29.027  14.224
64184W        W30967   3.355  32.049   3.853
64185W        W30968  37.354  17.936  14.875
64186W        W30969   8.734   3.305  14.718
64187W        W30970  36.375  32.463  14.305
64188W        W30971  25.896  26.030  12.829
64189W        W30972  26.126  42.718   2.804
64190W        W30973   2.473  43.429   3.727
64191W        W30974  26.768  32.116   4.584
64192W        W30975  19.601  19.744  13.967
64193W        W30976  27.426   6.859  13.844
64194W        W30977   9.230  30.525   2.127
64195W        W30978   2.825  16.242  13.950
64196W        W30979  36.361  40.122  14.342
64197W        W30980  32.660   6.119  14.876
64198W        W30981   5.488  28.630   2.419
64199W        W30982  16.613  10.575   4.148
64200W        W30983  42.750  26.441  14.254
64201W        W30984  42.508  42.739  12.498
64202W        W30985  22.571  31.906   0.565
64203W        W30986  34.814  10.684   1.976
64204W        W30987  28.915   5.866   0.995
64205W        W30988   2.278  36.165  13.861
64206W        W30989  29.000  36.499   3.202
64207W        W30990   6.786   1.441  14.833
64208W        W30991  29.159  26.960   4.189
64209W        W30992  34.841  27.421   0.636
64210W        W30993  10.619   4.197   2.401
64211W        W30994  15.671  27.919   3.700
64212W        W30995  40.975  11.268   3.594
64213W        W30996  21.187  18.736   2.241
64214W        W30997  22.505   9.641   2.305
64215W        W30998  12.622   6.804  13.764
64216W        W30999  29.260   1.151  12.450
64217W        W31000   1.147  20.943  12.337
64218W        W31001  33.816   3.251  12.596
64219W        W31002  13.694  37.052  12.496
64220W        W31003  35.077   9.810   0.723
64221W        W31004  12.288   5.301   0.214
64222W        W31005  31.437   3.695  14.365
64223W        W31006  33.392  24.188   1.855
64224W        W31007  16.674  13.152  11.121
64225W        W31008  40.962   9.101  11.686
64226W        W31009   7.102  10.151   0.341
64227W        W31010  29.047   3.797   3.270
64228W        W31011   6.786  42.287   4.179
64229W        W31012  31.378  38.759  14.548
64230W        W31013  20.204  34.484   1.929
64231W        W31014  10.693  38.020  10.827
64232W        W31015  25.910  11.778  12.830
64233W        W31016  33.119  22.238   5.391
64234W        W31017  26.214  40.815  10.754
64235W        W31018  30.855  20.142   1.807
64236W        W31019  38.407  14.039  11.613
64237W        W31020   0.524  25.242  11.162
64238W        W31021  35.326  40.945  10.918
64239W        W31022  33.931  26.470  13.771
64240W        W31023   3.507   9.225  12.826
64241W        W31024   6.907  11.758   3.117
64242W        W31025   4.239   7.371  12.913
64243W        W31026  27.077  10.806   4.155
64244W        W31027  37.998  17.123  10.268
64245W        W31028  23.520  23.574   1.927
64246W        W31029  28.495  38.097  11.715
64247W        W31030  11.302  24.182   1.809
64248W        W31031   7.784  39.290  11.654
64249W        W31032  12.355  15.752   1.410
64250W        W31033  23.048   8.524   0.071
64251W        W31034   2.176   1.473  10.791
64252W        W31035  39.865  25.471   2.959
64253W        W31036  42.965  36.921  14.701
64254W        W31037   7.380  33.022  12.691
64255W        W31038  33.241  21.651  10.285
64256W        W31039  14.903  37.277  12.496
64257W        W31040  38.998  36.434   3.323
64258W        W31041  32.950  13.273   0.020
64259W        W31042  35.998  18.527  13.406
64260W        W31043  28.996   3.354  12.020
64261W        W31044  23.049   1.313  12.615
64262W        W31045   1.860  36.421   3.126
64263W        W31046  14.224  29.657   4.554
64264W        W31047  10.337  15.192   0.735
64265W        W31048  10.201  14.782   2.996
64266W        W31049  25.871   7.835   2.740
64267W        W31050  27.055  20.516   0.872
64268W        W31051  25.437  22.533  10.033
64269W        W31052   2.086   8.531   1.292
64270W        W31053  29.016  29.104  10.624
64271W        W31054  39.240  41.760   0.666
64272W        W31055   5.878  39.143   2.283
64273W        W31056  10.929  44.387   4.522
64274W        W31057   8.158   7.292   4.606
64275W        W31058  19.279   6.310   4.584
64276W        W31059  42.128  30.955  14.762
64277W        W31060  37.748  26.472  11.519
64278W        W31061  37.469  16.491   0.893
64279W        W31062  35.467  33.170   1.364
64280W        W31063  21.551  35.104  13.207
64281W        W31064  34.504   1.244  11.229
64282W        W31065  34.797  19.357  12.944
64283W        W31066   4.447  30.767  13.918
64284W        W31067   0.537  29.365  12.118
64285W        W31068   5.323  31.450   1.479
64286W        W31069  24.745  33.017   0.805
64287W        W31070  39.418  23.655  11.999
64288W        W31071  26.842  29.556  10.774
64289W        W31072  29.894   8.809   0.835
64290W        W31073  13.096  43.097   2.668
64291W        W31074   9.424  36.518   4.477
64292W        W31075   3.171  24.638  12.493
64293W        W31076   1.306  38.713  11.156
64294W        W31077  41.623  13.018   4.390
64295W        W31078  12.860  41.437   3.240
64296W        W31079  18.090  12.664  13.992
64297W        W31080   7.585  36.513  11.589
64298W        W31081  43.719  25.537  14.044
64299W        W31082  21.186  44.458   4.056
64300W        W31083   6.458   0.949  11.985
64301W        W31084  18.344  18.273  13.772
64302W        W31085  10.403  41.716  13.028
64303W        W31086  15.674  18.577   2.340
64304W        W31087  35.850   4.831  14.868
64305W        W31088  32.896  17.369   4.455
64306W        W31089  11.427  26.944   3.317
64307W        W31090  15.661  41.027   2.198
64308W        W31091  38.775   5.611  12.123
64309W        W31092  18.026  25.086  11.275
64310W        W31093  34.589  32.562  11.580
64311W        W31094  32.996  14.420   0.516
64312W        W31095   6.182   0.742   0.147
64313W        W31096  33.127  35.593   4.134
64314W        W31097  38.088  26.104   2.012
64315W        W31098  37.528  16.350  14.850
64316W        W31099   1.762  14.237   0.927
64317W        W31100   6.428   1.793   2.590
64318W        W31101  37.836  28.199  13.828
64319W        W31102  31.804  33.900   2.660
64320W        W31103  16.293   8.384  14.823
64321W        W31104   9.607  29.934   4.226
64322W        W31105  29.631  19.700  13.507
64323W        W31106   1.416  27.526   4.492
64324W        W31107  10.046  30.525  11.701
64325W        W31108  33.007  26.080   2.264
64326W        W31109  16.086  38.319   0.267
64327W        W31110  32.034  42.857   3.116
64328W        W31111  28.551  31.343  11.122
64329W        W31112  15.724  23.835  14.652
64330W        W31113   2.709  14.151  14.969
64331W        W31114  36.311  44.291  10.524
64332W        W31115  29.950  18.591  13.868
64333W        W31116  13.196  21.075  13.657
64334W        W31117  23.758  26.159  14.444
64335W        W31118  28.895   2.843  12.032
64336W        W31119  29.226  37.067  14.251
64337W        W31120  22.603  16.428   2.255
64338W        W31121  19.605  44.237   0.540
64339W        W31122  32.973   8.688  12.475
64340W        W31123   0.220  35.653  11.973
64341W        W31124  39.231  27.495   2.584
64342W        W31125  22.442   5.708   4.090
64343W        W31126  21.902   1.748   1.812
64344W        W31127   7.227  20.703   0.878
64345W        W31128   7.109  13.044   3.226
64346W        W31129   9.395  27.624  11.464
64347W        W31130  25.724  22.217   2.206
64348W        W31131  15.935  39.511  14.936
64349W        W31132   2.817  22.200   4.585
64350W        W31133  30.648  20.688   3.712
64351W        W31134   9.744   1.643  13.418
64352W        W31135   5.730  24.791  13.926
64353W        W31136  21.690  21.799   4.196
64354W        W31137  38.342  19.055   2.889
64355W        W31138  36.339   2.954  10.433
64356W        W31139  25.116  19.304  10.799
64357W        W31140  39.974  17.735  14.772
64358W        W31141  11.741   6.290  13.399
64359W        W31142  30.650  29.135  14.235
64360W        W31143  13.214  30.614   4.091
64361W        W31144  20.850   5.433  14.494
64362W        W31145  43.596  18.219  14.728
64363W        W31146  17.761   3.708   2.863
64364W        W31147  15.033  14.624   1.327
64365W        W31148  10.441  21.232   3.277
64366W        W31149  22.626  30.393   4.598
64367W        W31150  25.517   0.857   3.216
64368W        W31151   1.719  16.306  11.521
64369W        W31152   4.956  43.827   2.194
64370W        W31153   6.757   8.875   3.772
64371W        W31154  24.983   2.637  12.432
64372W        W31155  19.019  42.976   0.447
64373W        W31156  15.137  16.065  14.510
64374W        W31157  16.143  35.705  14.497
64375W        W31158  27.101  19.060   1.553
64376W        W31159  11.762  18.854   1.782
64377W        W31160  26.889   1.707   2.206
64378W        W31161  10.370  14.798  11.482
64379W        W31162  17.542   6.730   3.221
64380W        W31163  23.071  31.344  12.482
64381W        W31164  37.451  25.162   0.795
64382W        W31165  15.517  25.456   1.753
64383W        W31166  12.830  26.023  12.465
64384W        W31167  44.223  26.330  12.092
64385W        W31168  19.056  38.331   2.831
64386W        W31169   5.865  10.160  10.141
64387W        W31170  18.599   0.454  13.347
64388W        W31171  16.547  25.476  12.540
64389W        W31172  37.492   5.203  12.419
64390W        W31173   4.481  27.854  11.550
64391W        W31174  10.614  30.513  13.332
64392W        W31175   8.414  32.991   2.874
64393W        W31176   1.940  31.993  10.373
64394W        W31177  18.928  17.131  12.922
64395W        W31178  33.156  28.674   4.487
64396W        W31179  41.901  32.295   9.799
64397W        W31180   9.781  30.672   0.376
64398W        W31181  37.773  20.288  10.822
64399W        W31182   8.357  30.614   2.851
64400W        W31183  39.570   5.302  11.998
64401W        W31184  29.634  31.614  11.137
64402W        W31185  16.340  36.860   1.787
64403W        W31186  43.488  19.220  10.775
64404W        W31187  23.878  34.484   1.746
64405W        W31188   6.445  12.346   1.932
64406W        W31189   7.285   8.893   3.793
64407W        W31190  32.354  42.037  12.984
64408W        W31191  30.613  28.922  11.860
64409W        W31192  23.513  42.890   1.000
64410W        W31193   4.492  42.961  12.675
64411W        W31194   2.172   8.162  12.229
64412W        W31195  43.972  17.389  14.725
64413W        W31196  37.077  25.460   4.109
64414W        W31197  41.288  21.847  10.896
64415W        W31198  14.358   8.493  12.083
64416W        W31199  10.959   9.370  10.294
64417W        W31200   8.129  38.997   4.694
64418W        W31201   1.992   6.745  13.605
64419W        W31202  36.468  37.096  13.609
64420W        W31203  18.607  23.064  13.675
64421W        W31204  40.878  37.862  12.092
64422W        W31205  26.927  30.957   4.233
64423W        W31206   5.265   6.209  13.542
64424W        W31207  10.981  40.904   0.253
64425W        W31208  14.999  22.660   2.717
64426W        W31209  32.886  29.604  13.308
64427W        W31210   5.329  17.366  10.611
64428W        W31211  43.445   4.468  14.964
64429W        W31212   6.408   9.676   0.886
64430W        W31213  10.223  14.780   5.003
64431W        W31214  25.526  21.345  10.833
64432W        W31215  12.790  42.286   1.409
64433W        W31216   5.116  13.424   2.321
64434W        W31217  26.074  23.643   0.048
64435W        W31218  29.712   6.216   3.881
64436W        W31219  25.653   8.893   4.657
64437W        W31220  27.100  34.736   2.897
64438W        W31221  38.505  38.778  11.026
64439W        W31222   2.719  15.279  12.699
64440W        W31223  13.792   7.669  10.119
64441W        W31224   9.673  12.133  11.150
64442W        W31225  21.511   0.027   1.425
64443W        W31226   5.772  30.383   4.887
64444W        W31227  22.559  25.138   3.095
64445W        W31228   4.321  33.836   2.249
64446W        W31229  20.603   6.592  10.900
64447W        W31230  34.846   7.163   3.796
64448W        W31231   4.136  24.705  11.602
64449W        W31232  19.728   0.190   0.245
64450W        W31233  34.970  36.488   2.214
64451W        W31234   5.288   4.757   3.224
64452W        W31235  39.336  19.858   2.642
64453W        W31236  22.675  35.691   0.859
64454W        W31237  24.931   1.883   1.781
64455W        W31238   6.660   1.912   3.608
64456W        W31239   8.391  17.984  11.619
64457W        W31240  26.727  20.359   3.544
64458W        W31241  25.802  39.522  13.554
64459W        W31242  21.692  35.106  11.775
64460W        W31243  23.502  34.162   1.957
64461W        W31244  21.095  30.561  12.016
64462W        W31245  17.834  26.950  11.383
64463W        W31246  10.077  25.537  12.948
64464W        W31247  14.262  43.345   0.492
64465W        W31248  30.301  29.825  12.576
64466W        W31249   0.903  36.927  10.417
64467W        W31250  35.686  14.758  12.445
64468W        W31251  40.627  29.557  13.443
64469W        W31252  13.847  39.162  14.395
64470W        W31253  34.360   8.841  12.075
64471W        W31254  31.142  41.138   4.862
64472W        W31255  34.102  35.153   0.117
64473W        W31256  12.610  38.321   2.354
64474W        W31257   0.741  41.432   0.506
64475W        W31258  23.696   4.142  11.666
64476W        W31259  24.055  33.453  10.780
64477W        W31260  23.966  31.587  14.031
64478W        W31261  40.102  16.280   3.647
64479W        W31262   5.424  14.799  14.864
64480W        W31263  19.692   5.872   0.324
64481W        W31264  32.916  23.701   4.300
64482W        W31265  19.897  27.151   3.434
64483W        W31266  35.260  32.887   0.901
64484W        W31267  26.621   1.676  13.384
64485W        W31268  20.260   6.155  14.644
64486W        W31269  13.804   9.064  11.608
64487W        W31270   0.197  22.431  13.884
64488W        W31271  21.177   4.976   2.401
64489W        W31272   6.843  22.054   4.092
64490W        W31273  31.474  17.622   4.595
64491W        W31274   1.731   0.681   1.849
64492W        W31275   7.807   7.258  11.226
64493W        W31276  39.101  26.127   1.050
64494W        W31277  26.943  23.052  10.757
64495W        W31278   6.200   6.444   2.345
64496W        W31279   1.287  41.333   3.699
64497W        W31280  23.709  30.180  11.105
64498W        W31281  15.076  31.948  13.495
64499W        W31282  39.497   1.560  14.023
64500W        W31283  43.710  39.256   1.813
64501W        W31284  26.245  34.224   4.278
64502W        W31285  39.271  38.467   0.301
64503W        W31286  28.519  29.131   3.349
64504W        W31287  13.113  10.418  14.639
64505W        W31288  15.309  24.715   3.983
64506W        W31289  35.094  42.592   2.761
64507W        W31290  10.124  12.400  11.171
64508W        W31291   0.903  31.607   3.453
64509W        W31292  36.298  15.385  13.482
64510W        W31293  30.431   7.674   2.296
64511W        W31294  44.653  16.214  10.786
64512W        W31295  31.567  20.546   1.412
64513W        W31296   3.754  16.891  13.777
64514W        W31297  15.626  26.652   0.304
64515W        W31298  15.216  28.437  14.258
64516W        W31299  39.084  35.861   4.697
64517W        W31300   8.072  12.304  12.546
64518W        W31301   5.882  13.177  12.998
64519W        W31302  16.680  40.788  14.045
64520W        W31303  20.402  13.637  11.267
64521W        W31304  13.001  13.740   1.336
64522W        W31305   8.333  10.225   2.429
64523W        W31306  43.599  42.959  14.768
64524W        W31307  28.751   3.319  14.166
64525W        W31308  36.413  14.570   4.127
64526W        W31309  13.614  35.513  12.451
64527W        W31310   5.218   1.014   3.821
64528W        W31311  16.760  15.288  11.608
64529W        W31312  31.836  23.244  12.634
64530W        W31313  44.931  35.938  11.147
64531W        W31314  29.116  41.919   2.265
64532W        W31315   0.302  12.702   1.173
64533W        W31316   7.215  40.115   1.314
64534W        W31317  16.589  12.150   3.686
64535W        W31318  22.674  32.536   2.378
64536W        W31319  39.289  41.797   3.774
64537W        W31320  37.710  10.449   4.223
64538W        W31321   2.722  22.830   2.694
64539W        W31322  24.656  24.004  12.415
64540W        W31323  33.354  27.697   2.786
64541W        W31324  28.908   8.842  13.474
64542W        W31325  27.153  31.391  14.171
64543W        W31326   4.797  40.502   3.763
64544W        W31327  29.916  25.476   2.748
64545W        W31328  20.137  20.139  13.443
64546W        W31329  28.599   0.929   3.695
64547W        W31330  24.640  37.001   1.238
64548W        W31331  30.083  23.534   0.751
64549W        W31332   0.656  36.453  10.376
64550W        W31333  27.953  13.514  14.778
64551W        W31334   6.641  35.542  11.691
64552W        W31335   2.943  14.540  11.991
64553W        W31336  13.120  16.208   2.181
64554W        W31337  17.774  19.724  14.576
64555W        W31338   3.499  23.594   4.610
64556W        W31339   7.789  10.721   1.482
64557W        W31340  12.295  34.881  10.292
64558W        W31341  32.734   6.941  11.144
64559W        W31342   4.402  18.273  14.835
64560W        W31343  24.191  17.546  12.895
64561W        W31344  39.373  25.157   1.349
64562W        W31345  17.160  34.057  13.969
64563W        W31346  10.453   8.635  14.359
64564W        W31347   8.625   7.721   2.247
64565W        W31348  19.723  39.442  12.778
64566W        W31349  41.080  19.214  11.864
64567W        W31350   1.964  16.535   3.231
64568W        W31351  27.445  21.795   1.289
64569W        W31352  27.745  13.022  13.305
64570W        W31353  21.197  33.403  11.879
64571W        W31354  33.854  43.973   2.883
64572W        W31355  17.313  17.286   3.746
64573W        W31356  21.910  18.971   3.793
64574W        W31357  43.725  34.567   0.328
64575W        W31358  14.751  29.124   5.054
64576W        W31359  42.278  19.806  12.317
64577W        W31360  44.821  27.168  13.645
64578W        W31361  14.391   1.284  12.020
64579W        W31362  40.260  18.586  11.593
64580W        W31363  15.271  42.770  13.993
64581W        W31364   8.796  25.678  13.376
64582W        W31365  14.174   2.378   2.182
64583W        W31366  20.528  15.112   1.033
64584W        W31367  42.749  19.478   4.376
64585W        W31368  34.041   6.146  12.935
64586W        W31369   2.588  33.958  13.671
64587W        W31370  41.459  16.140   4.111
64588W        W31371  31.090  10.563   1.687
64589W        W31372  19.223   5.791   4.475
64590W        W31373  18.762  11.163  14.981
64591W        W31374  40.045  13.289  14.776
64592W        W31375  29.428  13.382   2.315
64593W        W31376   6.215  42.029  10.657
64594W        W31377   4.987  34.539   1.915
64595W        W31378  15.237  28.073  11.459
64596W        W31379  34.575   0.437  14.902
64597W        W31380  30.333  41.917  14.846
64598W        W31381  11.765  41.501   0.488
64599W        W31382  16.844  12.295  13.830
64600W        W31383  36.588  39.039   3.391
64601W        W31384  28.131  16.750  13.466
64602W        W31385  40.212  17.801   2.891
64603W        W31386  24.010  36.261   0.420
64604W        W31387  40.288  31.858  11.167
64605W        W31388  33.431   0.052   4.641
64606W        W31389  36.530  19.784   1.702
64607W        W31390  10.795  32.324  13.353
64608W        W31391  44.591  14.144   1.856
64609W        W31392   0.314  38.356   1.339
64610W        W31393  23.711  34.794   0.497
64611W        W31394  43.756  23.082  11.180
64612W        W31395  35.565  33.422   3.364
64613W        W31396  22.054  21.035   1.436
64614W        W31397  21.085  29.692   1.413
64615W        W31398  38.346   6.845   0.855
64616W        W31399  37.084   0.420  11.526
64617W        W31400  24.048  36.395   2.217
64618W        W31401  43.741   9.105   3.658
64619W        W31402  40.996  37.628  11.648
64620W        W31403  12.745  11.556   1.857
64621W        W31404   3.022   4.336  12.578
64622W        W31405   8.467   0.441   3.851
64623W        W31406  25.565  19.687  12.907
64624W        W31407   2.988  40.567   3.107
64625W        W31408   7.765   1.192   3.660
64626W        W31409  19.075   3.860  10.770
64627W        W31410  32.300  33.898   2.502
64628W        W31411  30.491   4.726   0.465
64629W        W31412  13.352  36.567   0.821
64630W        W31413  25.935  29.671   1.173
64631W        W31414  21.751  25.650  10.186
64632W        W31415  42.806  22.276   4.386
64633W        W31416  17.963  22.258  13.822
64634W        W31417  23.438   7.648   0.947
64635W        W31418  39.844  22.155  14.300
64636W        W31419  42.751   5.946   2.793
64637W        W31420  33.176  12.602  12.021
64638W        W31421  38.559  13.708   2.618
64639W        W31422   7.714  42.162   4.152
64640W        W31423   5.375  33.106   4.314
64641W        W31424  10.832  39.693  14.963
64642W        W31425  37.267  11.283  12.160
64643W        W31426  27.392   8.106  10.999
64644W        W31427   3.762  35.423  13.477
64645W        W31428   0.667  31.753   9.644
64646W        W31429  42.085  22.117   3.190
64647W        W31430  39.985  27.193   2.764
64648W        W31431  41.005  12.275  14.353
64649W        W31432  12.396  11.701   3.719
64650W        W31433  10.721  42.610  11.495
64651W        W31434  42.011   4.463  10.469
64652W        W31435   2.884   2.978   1.603
64653W        W31436  20.045  36.094   1.488
64654W        W31437  19.723  27.879  11.395
64655W        W31438  22.657  35.271  11.175
64656W        W31439  37.496  35.714   3.946
64657W        W31440  18.353   2.432  11.270
64658W        W31441  34.985  36.354   4.850
64659W        W31442  26.616  42.823  13.917
64660W        W31443  14.476   8.615  11.073
64661W        W31444   3.867  21.891   0.518
64662W        W31445  15.724  19.842   4.022
64663W        W31446  14.303  38.986   2.381
64664W        W31447  37.771  33.169  11.919
64665W        W31448  39.535  10.835  11.749
64666W        W31449  32.832  28.905  11.405
64667W        W31450  17.078  43.531   1.708
64668W        W31451  22.615  44.036  12.092
64669W        W31452  11.209  41.850  11.027
64670W        W31453  26.065  33.704  10.845
64671W        W31454  12.768  40.449  11.228
64672W        W31455   2.718  19.385  13.535
64673W        W31456  31.371  20.159   1.829
64674W        W31457  16.528  28.277  10.855
64675W        W31458  39.740   0.741  11.740
64676W        W31459  14.285  32.174   1.812
64677W        W31460  27.993  10.179   5.073
64678W        W31461   9.262  22.147   2.614
64679W        W31462   3.307  23.577  12.075
64680W        W31463   3.898  35.452  14.539
64681W        W31464  20.137   9.429  13.418
64682W        W31465  41.485  25.592  10.640
64683W        W31466  15.121  29.937   0.176
64684W        W31467   4.383   9.685  14.169
64685W        W31468  31.500  13.477   4.353
64686W        W31469  11.704  33.091   4.299
64687W        W31470  35.841  25.906   2.474
64688W        W31471   2.301  10.900   0.923
64689W        W31472  11.178   6.623   3.749
64690W        W31473  36.512  29.090   1.782
64691W        W31474  33.799   9.852   4.332
64692W        W31475  23.052  28.967   3.806
64693W        W31476   6.186  35.849   1.287
64694W        W31477  14.459  33.785   2.502
64695W        W31478   5.359  41.343   0.807
64696W        W31479  12.756  32.483   2.764
64697W        W31480  29.777   7.325   0.658
64698W        W31481   6.453  39.464  13.003
64699W        W31482  32.917  27.650  13.343
64700W        W31483   3.769  44.502   3.486
64701W        W31484  28.996  40.343   0.272
64702W        W31485  36.996   3.381   2.192
64703W        W31486  24.533  39.152  14.404
64704W        W31487  33.231  19.385   5.064
64705W        W31488  39.485   8.763   0.217
64706W        W31489  23.305   8.264  14.693
64707W        W31490   3.988   5.247   1.374
64708W        W31491  16.477  19.193   3.088
64709W        W31492   5.774  14.814  11.466
64710W        W31493  32.620   3.290   2.644
64711W        W31494  11.730  17.572   4.611
64712W        W31495  10.141  32.903   3.246
64713W        W31496  32.139  28.235   2.821
64714W        W31497   2.787   1.935  14.737
64715W        W31498   0.513  31.023   0.912
64716W        W31499   8.158  38.837  13.937
64717W        W31500   0.216   6.740   3.934
64718W        W31501   1.380  23.582  11.483
64719W        W31502  29.431  39.434   4.684
64720W        W31503  40.267   3.171   2.934
64721W        W31504  17.445  42.602  13.848
64722W        W31505   5.144  33.994  14.910
64723W        W31506   3.157  12.874  11.182
64724W        W31507  26.574  33.542  13.380
64725W        W31508  19.613  26.942   0.928
64726W        W31509  28.319  14.746  14.358
64727W        W31510   4.008  43.490   0.734
64728W        W31511   9.757   6.172   3.860
64729W        W31512  39.614  34.282   3.622
64730W        W31513  14.503  40.976  14.468
64731W        W31514  13.813  16.838   4.133
64732W        W31515  41.581   3.488   2.947
64733W        W31516  38.531   2.456   0.759
64734W        W31517  30.642  41.962  11.676
64735W        W31518  25.424   0.317  11.095
64736W        W31519  22.564  42.616   3.136
64737W        W31520  14.730   9.793  13.801
64738W        W31521  31.597  11.800  10.757
64739W        W31522  33.581   6.275  13.532
64740W        W31523   1.433  16.022   1.394
64741W        W31524  22.040   0.661  13.650
64742W        W31525  22.265  18.705  13.769
64743W        W31526   6.058  34.916  12.133
64744W        W31527  15.222  16.001  13.462
64745W        W31528  42.842  40.241  11.216
64746W        W31529  21.534   1.314  13.394
64747W        W31530  40.991  41.968   2.221
64748W        W31531  20.143   0.648   2.649
64749W        W31532  37.052  14.301   3.919
64750W        W31533   4.108   6.211   0.475
64751W        W31534  19.569  32.070   0.488
64752W        W31535  31.136  12.227  12.411
64753W        W31536  41.703  24.585   1.030
64754W        W31537  42.768   9.757  12.566
64755W        W31538  38.534  29.425   4.629
64756W        W31539  28.048  15.370  13.459
64757W        W31540  18.814  32.873  13.361
64758W        W31541   1.073   2.248  11.103
64759W        W31542  23.162  25.199  12.969
64760W        W31543  22.543  31.037  14.366
64761W        W31544  17.910  32.404  12.947
64762W        W31545  40.493  32.462   4.237
64763W        W31546  11.524  35.506  11.174
64764W        W31547   5.230  13.231   3.827
64765W        W31548   0.760   4.444   1.379
64766W        W31549  22.708  10.220   0.081
64767W        W31550  11.364  19.806   0.057
64768W        W31551  21.553  11.873  13.024
64769W        W31552  31.439   0.509   4.328
64770W        W31553   1.434  32.790   3.768
64771W        W31554  22.276  33.818   1.243
64772W        W31555  23.233  28.975   0.206
64773W        W31556  42.331  31.980  12.499
64774W        W31557   4.758  40.784  12.998
64775W        W31558  11.600  14.681  14.990
64776W        W31559   4.820  12.342   3.283
64777W        W31560  16.160   8.090   1.662
64778W        W31561  32.877   2.008  14.030
64779W        W31562  14.748   2.740  10.602
64780W        W31563  36.252  13.777   0.739
64781W        W31564  26.886  32.072   2.261
64782W        W31565  11.673  31.702   2.871
64783W        W31566   7.420  30.588  13.494
64784W        W31567  29.389  18.676   0.397
64785W        W31568  12.776  39.911   3.009
64786W        W31569  43.351  15.475   3.741
64787W        W31570  32.561   8.599  13.900
64788W        W31571  37.503  17.511  12.943
64789W        W31572  13.435  41.507  13.904
64790W        W31573  19.269  18.639   4.285
64791W        W31574   9.739  26.929   0.127
64792W        W31575  39.975  42.696   1.189
64793W        W31576   4.365   3.015  10.418
64794W        W31577  40.807   0.518   2.000
64795W        W31578  30.455  35.167  13.392
64796W        W31579  42.835   8.945   3.206
64797W        W31580   9.690  10.169  12.312
64798W        W31581  25.694  29.521   4.042
64799W        W31582  38.810   4.886  10.690
64800W        W31583  17.630   6.897  13.783
64801W        W31584  10.671  25.562   0.752
64802W        W31585  31.877  40.290  10.663
64803W        W31586  18.751   1.402   2.189
64804W        W31587  10.137  34.972  13.374
64805W        W31588  30.462  31.510  13.139
64806W        W31589  29.385  35.216  14.092
64807W        W31590  39.736  38.845   0.899
64808W        W31591  24.324   2.895  11.669
64809W        W31592  25.107  25.537  14.463
64810W        W31593  36.004   1.331  13.529
64811W        W31594  31.620   6.464   2.618
64812W        W31595  14.245  10.810  11.471
64813W        W31596  11.859  11.616  14.750
64814W        W31597  31.543  21.207  12.410
64815W        W31598  14.122  41.419  14.804
64816W        W31599  21.169  40.077  14.141
64817W        W31600  10.983  11.874  11.350
64818W        W31601  14.888  10.426   5.434
64819W        W31602  17.689   5.136   4.051
64820W        W31603  12.874  10.136   0.017
64821W        W31604  31.374  26.082   1.808
64822W        W31605   0.883  39.287  14.409
64823W        W31606   9.834  25.127  14.590
64824W        W31607   2.618  38.425   4.106
64825W        W31608   9.405   3.466   4.199
64826W        W31609   2.842  17.806   0.301
64827W        W31610   4.883  33.276   4.268
64828W        W31611   5.475  38.844   2.097
64829W        W31612  14.777  12.129   2.877
64830W        W31613  26.259   0.919   3.651
64831W        W31614  25.427  31.049   4.144
64832W        W31615  22.961  31.576  13.837
64833W        W31616   8.629   2.949  12.861
64834W        W31617  28.198  44.995  10.957
64835W        W31618  21.720  35.262  14.173
64836W        W31619  42.886  15.577   1.103
64837W        W31620   0.437  30.057   4.220
64838W        W31621  30.079   8.295  13.759
64839W        W31622  32.792   9.212  14.430
64840W        W31623  22.421  21.623   0.873
64841W        W31624  40.304   2.133   0.946
64842W        W31625  13.612  19.355  14.056
64843W        W31626   5.131  22.102   3.764
64844W        W31627   9.867  14.283  14.829
64845W        W31628   3.249  22.595   0.213
64846W        W31629  41.585   9.421   4.534
64847W        W31630  36.346  28.251  10.888
64848W        W31631  34.875  37.093   1.380
64849W        W31632  21.664  19.112  12.514
64850W        W31633  41.049  43.256   3.254
64851W        W31634  38.078   6.083  14.926
64852W        W31635  19.616  15.745  13.906
64853W        W31636  41.393  41.267  14.559
64854W        W31637  15.761  40.009   3.983
64855W        W31638  41.409   2.355   4.574
64856W        W31639   5.812   7.604   1.305
64857W        W31640  27.131   2.292  14.864
64858W        W31641   2.061  43.701   4.646
64859W        W31642  10.545  37.138   3.978
64860W        W31643  27.054  38.276  14.872
64861W        W31644  22.635   6.158   4.278
64862W        W31645  15.013   0.933   1.740
64863W        W31646  39.274  25.223   5.032
64864W        W31647   9.989  32.412   3.192
64865W        W31648   5.020  34.120   3.279
64866W        W31649  28.283   3.746   0.324
64867W        W31650  22.688  17.383   4.535
64868W        W31651  36.297  23.956  13.589
64869W        W31652  31.472  27.027  14.862
64870W        W31653  16.211   7.695  13.508
64871W        W31654   3.854  44.430   2.984
64872W        W31655  26.427  38.037   3.237
64873W        W31656  38.397  12.776  13.432
64874W        W31657  10.242  11.676  14.274
64875W        W31658   8.662  23.008   0.723
64876W        W31659  27.741   5.044   4.668
64877W        W31660   7.847  32.326   4.208
64878W        W31661  31.052   1.543  12.451
64879W        W31662  35.903  10.159   3.815
64880W        W31663  10.252   1.035   0.851
64881W        W31664  12.416  10.181  11.990
64882W        W31665  39.825   1.785  12.094
64883W        W31666   3.859   8.873  13.172
64884W        W31667  17.701  32.192  11.641
64885W        W31668   1.969  41.060   2.255
64886W        W31669  10.387  43.929  13.432
64887W        W31670  29.687  42.040   2.956
64888W        W31671  29.015   6.420  14.329
64889W        W31672  43.359  14.787   2.838
64890W        W31673  41.235  22.993   1.839
64891W        W31674  10.293  30.717  10.864
64892W        W31675  16.873  16.039   4.528
64893W        W31676  23.937  40.256   2.825
64894W        W31677   0.455  23.076   0.132
64895W        W31678  14.390  35.105   1.257
64896W        W31679  37.505  29.098   2.830
64897W        W31680   9.341  18.556  12.350
64898W        W31681  12.737   7.712  12.038
64899W        W31682  37.726  30.758   2.398
64900W        W31683  19.612  31.252  13.117
64901W        W31684  36.482   9.109  14.873
64902W        W31685  17.606  14.855  14.415
64903W        W31686  32.076  23.050   1.014
64904W        W31687  42.947  30.856  11.648
64905W        W31688  33.305   2.432   0.377
64906W        W31689  14.767  37.790   4.646
64907W        W31690   3.949  11.284   3.288
64908W        W31691  44.936  37.467   4.513
64909W        W31692  17.227  28.926   4.466
64910W        W31693  27.368  24.141   1.486
64911W        W31694  18.190  21.137  14.039
64912W        W31695  38.857  19.447   4.525
64913W        W31696  44.449  35.820  11.377
64914W        W31697  29.901  32.042  12.170
64915W        W31698  34.893  36.314  12.695
64916W        W31699  33.977  29.491   3.765
64917W        W31700  24.646   1.971   2.224
64918W        W31701  11.669  34.348   1.433
64919W        W31702  18.563  21.700  13.592
64920W        W31703  44.274  37.636  14.317
64921W        W31704   1.999  41.537   4.693
64922W        W31705  36.907  37.927  11.944
64923W        W31706  28.145  29.079  13.901
64924W        W31707   9.960   2.349  12.875
64925W        W31708  41.632  21.765   4.072
64926W        W31709  18.594  44.955   3.701
64927W        W31710   7.454   4.261  12.504
64928W        W31711  33.426  24.655   4.620
64929W        W31712  19.036  37.854   1.741
64930W        W31713  24.082  37.046   3.392
64931W        W31714  24.196  26.108  12.886
64932W        W31715  13.007  41.517   0.901
64933W        W31716   6.471  26.141  14.469
64934W        W31717   6.865   9.392  14.883
64935W        W31718  31.489  41.863  11.293
64936W        W31719   8.402   8.842  11.451
64937W        W31720  11.744  25.286   2.228
64938W        W31721  23.574  15.080  11.562
64939W        W31722  41.980  24.177  10.647
64940W        W31723  13.777  42.234  13.279
64941W        W31724  22.144  31.316  13.029
64942W        W31725  34.320   7.192   3.661
64943W        W31726  33.060  24.028   2.206
64944W        W31727   2.006  32.830   1.571
64945W        W31728  16.652  37.024  11.996
64946W        W31729   9.387  35.234   1.470
64947W        W31730  18.641  19.073  10.697
64948W        W31731  15.249  23.263  12.960
64949W        W31732  42.916  12.110   3.245
64950W        W31733  36.858   1.930   1.112
64951W        W31734   5.441  26.967  11.148
64952W        W31735  41.818  11.375   4.452
64953W        W31736  23.031  38.016   4.564
64954W        W31737  10.566  32.619   2.221
64955W        W31738  42.229  11.822  13.348
64956W        W31739   0.710  16.075  12.416
64957W        W31740  32.069  14.706   4.573
64958W        W31741  23.141  17.623   4.662
64959W        W31742   7.779  39.265   2.854
64960W        W31743  30.408  21.652  10.135
64961W        W31744  16.812  28.747   4.206
64962W        W31745  41.866  32.797  14.432
64963W        W31746   9.312   5.539  12.830
64964W        W31747  32.779  14.075  11.054
64965W        W31748  36.371  34.177   4.257
64966W        W31749  23.501   2.927   1.623
64967W        W31750  18.795   3.716  11.866
64968W        W31751  38.970   7.361   2.848
64969W        W31752  36.354  31.298  13.484
64970W        W31753   0.349  14.037  11.640
64971W        W31754  44.411  33.995   2.940
64972W        W31755   9.269  32.439   4.195
64973W        W31756  38.084   7.378   0.213
64974W        W31757  21.601   6.618   4.108
64975W        W31758  19.728  12.557  14.821
64976W        W31759  22.745  25.770  13.398
64977W        W31760  16.037  40.410   3.504
64978W        W31761  13.956  13.758  12.328
64979W        W31762  29.009  19.610   2.204
64980W        W31763   7.442   6.314  12.173
64981W        W31764  22.880   3.878  11.658
64982W        W31765   3.972  12.616   2.354
64983W        W31766  22.254  38.118   2.674
64984W        W31767  12.077   1.020   4.067
64985W        W31768  19.581  44.560   1.502
64986W        W31769  21.780  11.747  10.892
64987W        W31770  31.558  16.659   1.547
64988W        W31771   2.046  10.494  10.770
64989W        W31772  26.051   6.908   1.854
64990W        W31773  28.392  29.711  12.608
64991W        W31774  26.714  28.598   4.541
64992W        W31775   7.739  30.182   2.717
64993W        W31776   3.900  16.670   0.255
64994W        W31777  23.884  28.434  11.730
64995W        W31778  38.546  33.493  10.144
64996W        W31779   7.961   5.764   1.632
64997W        W31780  41.342  20.804   4.455
64998W        W31781  24.478   5.044   1.424
64999W        W31782  12.681  11.309   1.410
65000W        W31783  25.482  36.123  14.569
65001W        W31784  33.013  25.690  14.447
65002W        W31785  11.747   2.891  14.377
65003W        W31786  38.007  35.939  11.601
65004W        W31787  22.562  10.308   1.067
65005W        W31788   8.327   9.798  13.820
65006W        W31789  38.507  38.300  12.086
65007W        W31790  14.841  17.839   1.365
65008W        W31791  14.507  38.094   3.262
65009W        W31792  40.912   8.053   1.182
65010W        W31793  10.371  11.554   1.257
65011W        W31794  27.120  42.876  14.419
65012W        W31795  42.239   0.294   1.872
65013W        W31796  31.979  31.502  13.736
65014W        W31797  36.827  33.236  14.846
65015W        W31798  29.632  14.795   1.112
65016W        W31799  14.997  37.353   3.588
65017W        W31800  21.437  30.970   2.716
65018W        W31801  28.154  26.915   1.375
65019W        W31802  11.100  15.674  13.406
65020W        W31803  26.612  11.703   2.900
65021W        W31804  26.889  33.527   4.467
65022W        W31805  41.728   1.981  12.215
65023W        W31806  11.081  11.362  11.103
65024W        W31807  21.296  24.088  11.638
65025W        W31808  28.979  32.964  13.074
65026W        W31809  11.323  38.064   3.499
65027W        W31810  44.585   5.698  14.103
65028W        W31811  43.258  16.226   0.103
65029W        W31812  14.751  41.447  14.459
65030W        W31813  38.247   5.240   1.192
65031W        W31814  26.655  36.878   2.852
65032W        W31815  30.833  17.567  11.101
65033W        W31816  12.040   0.594  13.147
65034W        W31817  30.436  15.189  13.874
65035W        W31818  30.668  11.636  11.700
65036W        W31819   2.724  14.290  13.245
65037W        W31820  18.096  13.888   4.941
65038W        W31821  23.983  35.057   3.284
65039W        W31822  21.026  32.370  12.600
65040W        W31823  28.606  38.200  12.226
65041W        W31824  37.867  26.275  12.369
65042W        W31825  35.887  18.955  14.385
65043W        W31826  31.511  34.490  11.595
65044W        W31827   3.381   2.547  11.567
65045W        W31828  22.752  17.809   3.819
65046W        W31829  20.043  28.154  14.820
65047W        W31830  20.559  25.398   1.944
65048W        W31831  32.942  17.332  10.749
65049W        W31832  20.184   7.894   2.918
65050W        W31833  18.114  42.624   2.769
65051W        W31834   0.200  43.989   2.688
65052W        W31835  20.529  20.070   4.691
65053W        W31836  44.906  12.949   0.978
65054W        W31837  40.139  44.862   3.280
65055W        W31838  38.390  42.315   3.768
65056W        W31839  33.487  10.915  12.416
65057W        W31840  25.617   4.376  12.080
65058W        W31841  38.466  36.274  12.508
65059W        W31842  40.066  21.604  12.016
65060W        W31843   6.779   4.754  13.833
65061W        W31844  28.485   4.422  11.502
65062W        W31845  44.438  13.115   4.210
65063W        W31846  40.335  44.275  13.977
65064W        W31847  44.600   6.621  13.091
65065W        W31848   0.389  12.143  10.203
65066W        W31849   4.066  10.745  10.649
65067W        W31850   1.451  25.542   3.588
65068W        W31851  18.246  40.942  11.215
65069W        W31852  42.832   5.265  11.346
65070W        W31853  14.892   0.836   3.101
65071W        W31854  11.708  11.791   1.209
65072W        W31855  40.826  28.710   4.012
65073W        W31856  24.618  25.163   0.935
65074W        W31857  26.371  23.414   4.850
65075W        W31858  21.612   3.716   0.355
65076W        W31859  33.075  30.919   0.320
65077W        W31860   0.805  28.950   3.118
65078W        W31861   7.973  25.002   1.346
65079W        W31862   3.267  21.330  12.621
65080W        W31863  33.767  15.593   4.062
65081W        W31864  11.356   7.131  11.075
65082W        W31865   2.242  44.408   0.302
65083W        W31866  26.019  11.439  12.440
65084W        W31867  20.711  20.781  14.651
65085W        W31868  36.092   4.789   1.764
65086W        W31869  34.157  38.601   3.289
65087W        W31870   5.566  21.824   1.179
65088W        W31871   0.856  35.481   2.020
65089W        W31872  23.201  41.805   1.788
65090W        W31873  41.879   7.897  12.016
65091W        W31874  28.926  41.151  12.403
65092W        W31875  32.935  23.276   3.177
65093W        W31876  33.660   7.697   0.765
65094W        W31877  29.397  28.278  12.744
65095W        W31878  37.973  35.597  14.720
65096W        W31879  44.277  22.053  14.215
65097W        W31880   5.735  14.061  11.994
65098W        W31881  38.405  26.781   0.946
65099W        W31882  35.377  43.005   4.546
65100W        W31883  21.140  32.053   4.606
65101W        W31884  41.275  34.015  10.758
65102W        W31885  22.577   0.750  12.043
65103W        W31886  39.874  35.372  12.372
65104W        W31887  14.974  42.327  13.890
65105W        W31888  26.045  25.064  11.759
65106W        W31889  29.423  23.568  11.977
65107W        W31890  21.620  33.507   1.871
65108W        W31891  21.193  24.312  14.931
65109W        W31892  38.228   3.306   2.669
65110W        W31893   8.285  27.680  14.968
65111W        W31894  34.312  25.512  12.613
65112W        W31895  17.367  24.021   3.117
65113W        W31896  38.443  15.136  13.996
65114W        W31897  26.098   9.907  11.989
65115W        W31898  20.214  36.501   3.817
65116W        W31899  30.579  19.792   3.598
65117W        W31900  16.158  14.017  10.604
65118W        W31901   4.803  25.921   4.671
65119W        W31902  23.677   3.718  12.965
65120W        W31903  36.005   0.759   4.577
65121W        W31904  41.040   9.408   3.100
65122W        W31905   7.292  34.084   1.226
65123W        W31906   1.354  40.222  14.492
65124W        W31907  19.372  26.530  14.002
65125W        W31908  16.826  31.727  12.355
65126W        W31909  16.659  17.800  13.817
65127W        W31910  10.743  18.549   1.274
65128W        W31911  28.664  14.173   1.785
65129W        W31912  36.125  22.137   1.358
65130W        W31913  26.691  13.153  14.934
65131W        W31914  24.011  29.964   1.910
65132W        W31915  20.159  31.430   2.405
65133W        W31916  26.708  26.620  14.073
65134W        W31917  30.557  39.349  14.780
65135W        W31918  29.638  37.869  13.105
65136W        W31919   5.770   8.091  11.188
65137W        W31920  44.801  42.279  13.843
65138W        W31921   1.108   7.446   1.727
65139W        W31922  17.872  27.093   1.762
65140W        W31923  44.947  17.269   3.063
65141W        W31924  43.539   3.628  11.507
65142W        W31925   9.123  42.972  10.639
65143W        W31926   7.704  13.089   1.070
65144W        W31927  40.804   6.658  12.625
65145W        W31928  29.019  29.884   0.925
65146W        W31929  44.340  19.507  14.989
65147W        W31930  10.126  34.431  11.528
65148W        W31931  15.648   9.574   0.931
65149W        W31932   0.753  20.563   2.775
65150W        W31933  32.361  40.764  14.892
65151W        W31934  37.414  41.664  11.874
65152W        W31935  37.406  43.287   4.064
65153W        W31936  25.261  35.055  14.693
65154W        W31937  42.292  19.513  14.214
65155W        W31938  38.826  25.025  10.361
65156W        W31939  40.020  39.356   3.128
65157W        W31940  39.760  43.468  14.034
65158W        W31941  30.909  25.939   3.237
65159W        W31942   8.312  42.978   1.774
65160W        W31943  23.543  12.646   3.126
65161W        W31944  31.695  24.721   4.461
65162W        W31945  24.194  42.206  12.952
65163W        W31946   7.803   1.713   0.538
65164W        W31947  13.508  17.277  12.590
65165W        W31948  39.319   1.822   3.767
65166W        W31949  33.604   1.062   0.881
65167W        W31950  37.637   1.165  13.504
65168W        W31951   3.832  20.658  13.046
65169W        W31952  27.814   5.817  12.559
65170W        W31953  10.847   2.391  14.785
65171W        W31954  40.715  25.706   3.476
65172W        W31955  36.124   9.295  14.008
65173W        W31956   4.943  42.249   1.194
65174W        W31957  41.816   0.703   4.357
65175W        W31958   2.862  40.374   4.082
65176W        W31959   7.325  18.739   4.085
65177W        W31960  33.166  25.913   2.718
65178W        W31961   7.262  21.567  10.711
65179W        W31962  34.581  22.191  11.732
65180W        W31963   5.918   1.267   1.326
65181W        W31964   4.434   4.822   2.604
65182W        W31965  26.033  33.459  12.025
65183W        W31966  23.656  22.655   4.740
65184W        W31967  29.007  17.508  10.747
65185W        W31968  22.762  38.901   1.314
65186W        W31969  17.695  32.300  13.790
65187W        W31970  26.430  13.440   4.673
65188W        W31971  35.817  42.080   0.200
65189W        W31972  26.610   3.380   4.528
65190W        W31973  23.842  22.502  12.810
65191W        W31974   7.805   1.446   4.096
65192W        W31975  11.763  31.832  14.020
65193W        W31976  18.387  44.506   0.217
65194W        W31977  37.271  25.144   4.805
65195W        W31978   2.955  26.932   3.990
65196W        W31979  12.479   2.888  10.911
65197W        W31980  26.214  30.434  11.151
65198W        W31981  37.243   3.653   4.183
65199W        W31982  20.736   4.429  11.896
65200W        W31983   7.778  17.764   0.520
65201W        W31984  26.032  40.820  11.584
65202W        W31985  11.289   9.424  12.408
65203W        W31986  35.430  38.332  12.129
65204W        W31987  13.016  31.913  13.395
65205W        W31988  32.715  38.877  14.700
65206W        W31989  44.881   1.554   4.561
65207W        W31990   0.376  35.963  11.519
65208W        W31991   8.192   3.552  11.941
65209W        W31992  21.162  15.814   4.473
65210W        W31993  35.789  44.182   1.686
65211W        W31994  35.542  37.034  12.897
65212W        W31995   2.355  23.825   1.959
65213W        W31996  14.777  25.740  13.343
65214W        W31997  29.995  29.326  13.096
65215W        W31998  10.590   3.718  11.428
65216W        W31999  22.971  36.486  14.397
65217W        W32000  43.233   2.391   0.948
65218W        W32001  20.625  30.741  13.571
65219W        W32002  16.881  10.623   3.706
65220W        W32003  40.474  11.566  13.503
65221W        W32004  30.860  22.151  13.848
65222W        W32005  38.484   7.728   2.113
65223W        W32006  15.147   5.780  12.842
65224W        W32007   0.337   6.170  12.420
65225W        W32008  43.981  43.940  13.020
65226W        W32009  14.319  30.884   1.231
65227W        W32010  39.490  22.152   3.192
65228W        W32011  32.457  35.409  11.811
65229W        W32012  36.536  10.330  10.938
65230W        W32013  20.035  15.830  12.398
65231W        W32014  18.140  36.834  10.632
65232W        W32015   3.683  11.823   2.581
65233W        W32016   1.221  30.647  13.233
65234W        W32017  12.106  42.972   1.191
65235W        W32018   5.655  34.369   0.283
65236W        W32019   6.257  23.848   4.816
65237W        W32020  42.029   4.152   4.619
65238W        W32021   0.362  32.677  14.727
65239W        W32022  23.335  38.835  12.959
65240W        W32023   7.030  32.030   4.487
65241W        W32024  44.905  15.208  10.625
65242W        W32025   2.055  18.690   2.273
65243W        W32026  14.159  40.912  14.902
65244W        W32027  42.711  44.332   1.944
65245W        W32028  16.238  22.505  12.150
65246W        W32029  24.672  26.584   1.790
65247W        W32030  25.169  42.059  11.526
65248W        W32031   8.812  12.446   2.260
65249W        W32032  27.614  40.181  12.073
65250W        W32033  22.361  36.005  12.519
65251W        W32034  17.552  32.972   1.453
65252W        W32035  42.515  25.509   4.320
65253W        W32036  10.188   3.943  11.680
65254W        W32037   2.257  23.774   3.740
65255W        W32038  26.802  23.516   4.446
65256W        W32039  14.814  30.597   4.713
65257W        W32040  14.239  17.859   3.099
65258W        W32041  13.414  10.862   0.248
65259W        W32042  37.688  18.998  10.849
65260W        W32043  24.834  22.805   0.072
65261W        W32044  37.613  36.309   2.446
65262W        W32045  26.912   6.183  14.419
65263W        W32046  17.350   0.921  14.447
65264W        W32047  10.393  25.998   0.867
65265W        W32048  39.402   7.674   2.872
65266W        W32049  28.242   0.496   2.707
65267W        W32050  26.119  15.660  12.024
65268W        W32051  18.069  17.397  11.098
65269W        W32052   7.129  25.528   4.519
65270W        W32053  30.736  35.561  13.545
65271W        W32054  18.936  32.641   2.344
65272W        W32055  17.992   7.144   4.103
65273W        W32056  10.611  10.407  14.752
65274W        W32057   1.015   4.760   1.795
65275W        W32058   7.726  31.989   0.966
65276W        W32059   2.726   9.794  12.010
65277W        W32060   6.468  22.779   1.034
65278W        W32061  32.662   7.891  12.078
65279W        W32062  25.675  25.133  11.368
65280W        W32063  14.010   0.733   2.614
65281W        W32064  40.234  24.136  13.403
65282W        W32065  32.570  28.882  10.959
65283W        W32066  35.471   1.837  14.210
65284W        W32067  41.743  12.737  14.773
65285W        W32068  29.555  21.898  12.906
65286W        W32069  22.613  24.202  10.234
65287W        W32070  36.908   6.117   2.783
65288W        W32071  25.597  33.658  12.225
65289W        W32072   9.141  11.658  13.854
65290W        W32073  25.280  30.911  14.988
65291W        W32074  22.672  26.876  10.731
65292W        W32075   2.689  32.615   4.297
65293W        W32076  36.089  13.805   1.785
65294W        W32077   9.168  42.736  12.999
65295W        W32078   6.841  24.059  11.786
65296W        W32079  10.392  34.861   4.271
65297W        W32080  13.304  40.530  10.528
65298W        W32081  36.905  18.110  11.627
65299W        W32082  17.281  19.788  11.610
65300W        W32083  19.155   4.207   3.071
65301W        W32084   3.911   2.913  14.153
65302W        W32085   5.012  40.615   4.546
65303W        W32086  43.769  39.982   4.788
65304W        W32087  27.502   2.771  14.075
65305W        W32088  19.513   0.372   0.657
65306W        W32089  29.647  38.873  13.456
65307W        W32090   9.363  35.490  14.305
65308W        W32091  17.211   2.727   1.785
65309W        W32092   1.677  22.711  11.066
65310W        W32093  19.276   3.729  12.096
65311W        W32094  18.747  12.816  12.747
65312W        W32095  25.750  39.475   3.571
65313W        W32096   0.625  12.519  12.747
65314W        W32097  28.706  27.762  11.571
65315W        W32098  18.532  44.297  13.554
65316W        W32099   6.496   2.340   0.792
65317W        W32100  18.339  38.383   0.250
65318W        W32101  21.043   7.847  13.374
65319W        W32102   5.023  11.829   5.200
65320W        W32103   3.957  33.557   2.525
65321W        W32104  33.691  23.169   3.625
65322W        W32105  32.535  44.405   0.979
65323W        W32106   3.713   5.344  10.742
65324W        W32107  12.848  21.066   3.392
65325W        W32108   2.893  11.509  11.945
65326W        W32109   4.790  35.944   3.689
65327W        W32110  42.893  24.770  13.526
65328W        W32111   6.258  44.043  13.374
65329W        W32112  34.503  22.080  12.730
65330W        W32113  38.751  14.461   4.164
65331W        W32114  22.698  23.586   2.964
65332W        W32115  26.781   1.684  11.071
65333W        W32116   8.231   6.856  13.613
65334W        W32117   9.906  43.857   4.314
65335W        W32118  18.776  31.142   3.197
65336W        W32119   0.864   9.017   2.211
65337W        W32120  20.359  39.307   3.644
65338W        W32121   9.386  40.325  12.001
65339W        W32122  11.708   4.222  14.893
65340W        W32123  19.228  27.001   1.774
65341W        W32124  36.473  44.925  14.436
65342W        W32125  16.188   5.403  11.954
65343W        W32126   5.581  16.033  12.127
65344W        W32127  38.865  35.912   0.007
65345W        W32128  39.128  27.973   1.071
65346W        W32129  26.291  15.349  14.764
65347W        W32130  42.498   2.749  14.923
65348W        W32131  44.703  39.542   1.162
65349W        W32132  44.701   7.169  13.469
65350W        W32133  42.204  16.665   1.406
65351W        W32134  20.173  17.570  14.574
65352W        W32135  22.676  36.212   0.851
65353W        W32136   1.311  43.752  11.347
65354W        W32137   0.994   8.870   0.894
65355W        W32138   9.946  29.100   3.152
65356W        W32139  44.356  43.345  10.755
65357W        W32140  27.059  36.485   4.104
65358W        W32141  26.162  32.882   4.490
65359W        W32142   9.215  26.505   3.651
65360W        W32143   1.702  41.334  10.640
65361W        W32144   8.108  32.599   3.024
65362W        W32145   8.724   3.599   3.274
65363W        W32146   4.994   2.331   3.380
65364W        W32147  14.389   6.357  14.825
65365W        W32148   8.724  28.158   1.765
65366W        W32149   1.368  15.595   4.676
65367W        W32150  12.625  32.103  12.400
65368W        W32151  13.629   0.385  11.516
65369W        W32152  37.085  23.425   1.581
65370W        W32153   2.671  36.920   2.766
65371W        W32154   5.917  42.125   2.311
65372W        W32155  18.522  40.481   0.308
65373W        W32156  42.370   8.131  12.182
65374W        W32157  14.639  35.890   0.959
65375W        W32158  32.013   8.458  12.642
65376W        W32159   5.948  29.430  12.026
65377W        W32160  22.039  25.060   1.879
65378W        W32161  41.060  33.869  12.137
65379W        W32162  12.384  18.664   0.463
65380W        W32163  14.637  14.030   2.191
65381W        W32164  44.611  32.534   3.338
65382W        W32165  15.291  23.710  13.918
65383W        W32166  23.754  25.237   3.392
65384W        W32167  43.065  30.974   5.252
65385W        W32168  41.705  44.981   1.453
65386W        W32169   8.076   4.698   0.698
65387W        W32170  15.779  44.881   1.126
65388W        W32171  25.080  38.070  12.145
65389W        W32172  13.296  41.511  13.020
65390W        W32173  33.460   3.744  13.996
65391W        W32174  19.985  35.601  11.672
65392W        W32175  29.838  14.124   2.498
65393W        W32176  43.849  22.412   1.512
65394W        W32177  27.703   8.909   9.840
65395W        W32178  34.029  30.610  10.421
65396W        W32179  35.304  24.936   1.415
65397W        W32180  41.996  42.080   0.170
65398W        W32181  17.683  36.225   4.955
65399W        W32182  38.879  25.221  10.825
65400W        W32183   9.073  37.859  14.392
65401W        W32184  28.807   3.856   0.381
65402W        W32185  14.225  35.100  11.544
65403W        W32186  31.694  18.297   4.424
65404W        W32187  30.640  30.779  11.575
65405W        W32188   7.679  36.521   4.738
65406W        W32189  26.675  11.657   3.760
65407W        W32190  24.632   6.320   1.479
65408W        W32191  31.516   6.225   4.148
65409W        W32192  36.486  23.428  11.602
65410W        W32193  22.141  32.418  14.548
65411W        W32194  33.577  18.442   5.021
65412W        W32195  15.707  40.835  11.040
65413W        W32196   1.853  41.794  10.799
65414W        W32197  36.031  24.303  14.553
65415W        W32198  37.602  43.815  10.720
65416W        W32199  41.703   0.915   0.927
65417W        W32200  42.911  31.151   0.520
65418W        W32201  18.212  40.992  11.716
65419W        W32202  24.344  14.053  13.402
65420W        W32203  27.949  13.303   2.274
65421W        W32204   6.900  39.023   3.425
65422W        W32205  17.365  18.057  12.267
65423W        W32206   8.903   0.969  12.346
65424W        W32207  16.083  40.296  10.219
65425W        W32208   6.942  38.034   0.411
65426W        W32209  20.205   6.339  11.520
65427W        W32210  26.570  43.959   4.028
65428W        W32211  16.087   9.577  13.736
65429W        W32212  11.460  35.766  14.354
65430W        W32213  41.374  30.864  14.039
65431W        W32214  37.307  12.249  10.780
65432W        W32215  13.095  38.912  14.009
65433W        W32216  39.858  41.250  12.644
65434W        W32217  31.176  43.895  12.935
65435W        W32218  30.512  25.734   0.788
65436W        W32219  37.407  30.724  13.120
65437W        W32220  32.053  32.080   5.040
65438W        W32221   0.249   9.843  14.879
65439W        W32222   4.503  23.053  11.111
65440W        W32223  13.023  15.847   1.182
65441W        W32224   1.468  18.695   3.801
65442W        W32225  42.794  28.190   0.374
65443W        W32226  37.873  32.579   2.306
65444W        W32227  34.358  11.831   1.858
65445W        W32228  25.213   0.004   1.774
65446W        W32229  38.834  10.855   1.987
65447W        W32230  31.393  16.751  11.583
65448W        W32231  13.440   7.255   5.135
65449W        W32232   7.338  24.597  11.945
65450W        W32233  12.650   6.691  14.265
65451W        W32234  34.964  27.765  13.045
65452W        W32235   0.342  17.869   4.371
65453W        W32236  30.893  20.086   5.452
65454W        W32237  28.036  33.465  14.190
65455W        W32238  13.668   0.058  13.512
65456W        W32239  41.984  12.839   4.715
65457W        W32240  44.383  13.777  11.580
65458W        W32241  31.692  34.495   2.569
65459W        W32242   0.577  42.886   1.672
65460W        W32243   7.185  16.648   2.619
65461W        W32244  12.759   7.613   1.379
65462W        W32245   7.330  22.699   0.453
65463W        W32246  16.646  39.894   5.125
65464W        W32247  35.573  31.878  13.085
65465W        W32248   6.256  13.105  10.375
65466W        W32249  18.824   5.095   0.017
65467W        W32250   9.982  24.480   2.821
65468W        W32251  18.125   6.335  11.137
65469W        W32252  23.091  22.522  13.038
65470W        W32253  13.745   9.657   4.345
65471W        W32254  18.862  21.193   0.365
65472W        W32255  28.820  41.675   3.450
65473W        W32256   3.385  17.269   2.514
65474W        W32257  36.580  44.341  13.473
65475W        W32258  12.544   4.585   0.456
65476W        W32259  12.841  33.527   3.023
65477W        W32260  20.902  32.831   4.107
65478W        W32261  31.130  14.097   5.088
65479W        W32262  14.047  43.435  10.478
65480W        W32263  12.350  31.371  11.077
65481W        W32264  40.986  15.018  12.631
65482W        W32265  15.787  29.258  10.730
65483W        W32266  25.353  19.469  12.483
65484W        W32267  36.482  44.451   2.117
65485W        W32268  30.645  17.568  10.621
65486W        W32269  26.513  27.786   1.513
65487W        W32270  29.422  27.622   4.410
65488W        W32271  30.978  11.431  13.931
65489W        W32272   4.087  21.143   3.727
65490W        W32273  33.462  13.786   0.973
65491W        W32274   6.459   0.268  11.370
65492W        W32275   8.805   6.782   1.779
65493W        W32276   9.431   4.737   1.211
65494W        W32277  15.646  41.346   3.672
65495W        W32278  41.775  39.574   3.041
65496W        W32279  39.689  12.062   2.916
65497W        W32280   2.067  44.386   2.666
65498W        W32281   9.728  44.376  13.821
65499W        W32282  14.909  28.941  14.546
65500W        W32283  36.684   7.278  11.575
65501W        W32284   9.392  26.418  14.385
65502W        W32285   6.216  24.740   0.347
65503W        W32286   4.395  44.987  14.262
65504W        W32287  16.663  22.035   4.126
65505W        W32288  44.570  30.991   2.000
65506W        W32289  28.561  21.267  12.583
65507W        W32290  44.259  42.977   2.843
65508W        W32291  44.843  38.392  14.537
65509W        W32292  27.334  18.954   2.586
65510W        W32293  42.308  44.923  14.017
65511W        W32294  13.046   5.624   1.113
65512W        W32295  16.206  15.117  14.379
65513W        W32296   0.714  31.415  14.622
65514W        W32297  19.577  36.626   5.006
65515W        W32298  22.294   6.546  10.495
65516W        W32299  11.843   5.811  11.112
65517W        W32300  13.786  20.273   0.764
65518W        W32301  28.471  40.832  14.539
65519W        W32302  43.812   2.357   0.380
65520W        W32303   4.437  20.555   4.563
65521W        W32304  31.211  16.198  11.179
65522W        W32305  16.101  13.918   1.244
65523W        W32306  34.793  28.391   2.223
65524W        W32307   4.377  41.425  12.005
65525W        W32308  41.289   4.799  12.484
65526W        W32309   7.879  20.631  13.998
65527W        W32310  29.018  24.207  11.053
65528W        W32311  10.735  14.825   4.225
65529W        W32312  35.865  17.682   0.206
65530W        W32313   1.481   2.528   1.791
65531W        W32314  28.951  30.905   2.918
65532W        W32315  17.625  32.500   2.873
65533W        W32316  20.983  10.740   3.765
65534W        W32317  16.228  42.430  14.775
65535W        W32318  39.297   1.906   2.785
65536W        W32319  32.699  25.958  11.610
65537W        W32320   8.943  30.661  10.614
65538W        W32321  39.362  29.167  14.407
65539W        W32322  18.995  23.226  10.624
65540W        W32323  25.175  12.363  13.853
65541W        W32324  44.669  23.702  11.707
65542W        W32325  14.856   3.222   4.681
65543W        W32326  38.602  22.642   4.219
65544W        W32327  41.563  38.340  11.222
65545W        W32328  36.128  37.810  10.572
65546W        W32329  10.607  29.187  14.985
65547W        W32330   9.668  19.600   2.781
65548W        W32331   7.774  16.181   3.068
65549W        W32332  37.094   1.359  12.981
65550W        W32333  25.650  19.189  14.942
65551W        W32334   3.468   2.696   2.782
65552W        W32335   7.646  18.561  13.603
65553W        W32336  13.359  25.119  10.242
65554W        W32337  12.059  24.775   0.842
65555W        W32338  16.094  11.829  13.023
65556W        W32339  28.447  10.776   0.346
65557W        W32340   5.297  35.149   2.466
65558W        W32341  13.888  38.513  13.938
65559W        W32342   8.172  40.859   2.125
65560W        W32343   5.228   7.782   2.905
65561W        W32344  15.028  24.159  14.560
65562W        W32345  33.046  29.200  11.030
65563W        W32346  41.421  37.275  14.271
65564W        W32347  23.671  38.792  13.814
65565W        W32348   7.842   9.252   9.777
65566W        W32349  38.870  42.281  13.444
65567W        W32350  26.146   5.892  13.922
65568W        W32351  34.583  18.403   2.812
65569W        W32352  33.497  26.675   2.673
65570W        W32353   6.076  33.402   2.818
65571W        W32354  23.680  31.628   4.727
65572W        W32355  35.902  28.540   2.324
65573W        W32356  35.761  23.344   5.142
65574W        W32357  12.050  10.083  14.310
65575W        W32358   8.271  26.196  13.815
65576W        W32359   4.834  16.206  10.506
65577W        W32360   8.534  39.361   4.623
65578W        W32361  18.760   3.317  11.523
65579W        W32362  40.972  40.364   4.278
65580W        W32363   0.804  31.674   0.554
65581W        W32364  35.113   1.451  14.919
65582W        W32365   9.868  41.924   2.812
65583W        W32366  38.795  28.384   0.819
65584W        W32367  17.066  38.430  14.964
65585W        W32368  30.631   1.011  14.170
65586W        W32369  28.172  35.257  11.571
65587W        W32370  24.465  10.348   3.651
65588W        W32371  27.002   7.246  12.301
65589W        W32372   8.855   2.830  13.310
65590W        W32373  37.714  44.013   1.415
65591W        W32374  36.309   6.169   3.376
65592W        W32375  34.940  23.911  12.550
65593W        W32376  44.376  34.373  11.759
65594W        W32377  19.293  28.139   4.112
65595W        W32378  35.330  21.433   4.158
65596W        W32379  40.372  25.384   1.190
65597W        W32380  26.376  32.383  14.955
65598W        W32381  44.224   8.465   0.308
65599W        W32382  18.140  31.771   3.736
65600W        W32383   8.088   8.861   3.298
65601W        W32384  27.663  16.617   4.871
65602W        W32385  12.412  25.125   4.583
65603W        W32386   4.852  43.782   5.189
65604W        W32387  14.626  33.029   3.715
65605W        W32388  16.107  41.493   2.918
65606W        W32389  23.948  21.643   1.315
65607W        W32390  37.588  44.467  13.975
65608W        W32391   6.317   1.345  12.332
65609W        W32392   5.799  38.304   4.376
65610W        W32393  38.883  31.392   3.777
65611W        W32394  28.157  16.646  14.268
65612W        W32395  43.391  34.076  10.556
65613W        W32396  13.961  18.554  14.018
65614W        W32397  30.092   5.546  13.029
65615W        W32398  39.252   8.151  13.254
65616W        W32399   8.001  44.694   3.664
65617W        W32400  41.468  27.472  13.564
65618W        W32401  11.863   5.259  13.400
65619W        W32402  19.227  30.841  14.951
65620W        W32403   7.613  20.806   2.882
65621W        W32404  10.616  34.534   2.657
65622W        W32405  27.636  17.179  13.895
65623W        W32406  16.342  16.471   0.699
65624W        W32407  19.019  36.075   0.436
65625W        W32408  32.412   4.197   1.486
65626W        W32409   0.878   6.902  11.152
65627W        W32410  13.792  32.558  10.988
65628W        W32411  29.724  30.159   2.094
65629W        W32412  26.720   5.454   3.750
65630W        W32413  11.586   0.682  13.366
65631W        W32414  16.355  40.330  13.052
65632W        W32415  32.198   9.497  12.672
65633W        W32416  25.299   0.921   1.732
65634W        W32417  18.884  18.764  14.514
65635W        W32418  30.232  39.524  13.312
65636W        W32419  14.295   2.739  10.946
65637W        W32420  31.213  30.935  14.156
65638W        W32421  22.909  34.403   2.704
65639W        W32422  44.500  32.020   2.582
65640W        W32423   2.254  18.748  13.841
65641W        W32424  12.057  11.611  12.861
65642W        W32425  25.733  21.299   2.740
65643W        W32426   9.363   7.602   0.341
65644W        W32427  11.376  19.286   0.068
65645W        W32428   6.843   7.402  11.607
65646W        W32429  36.947  42.350  14.975
65647W        W32430   2.340  13.877  12.035
65648W        W32431  29.423  12.926  14.824
65649W        W32432  33.557   6.765   0.872
65650W        W32433  24.573  44.613   1.798
65651W        W32434  36.042   1.323  12.670
65652W        W32435  24.588   0.852  12.924
65653W        W32436  19.657  33.100  11.539
65654W        W32437  36.927  24.956   4.130
65655W        W32438  30.919  38.726   0.926
65656W        W32439   2.994  20.764  11.510
65657W        W32440   8.689  26.121  10.688
65658W        W32441  13.253  24.431   5.066
65659W        W32442  21.502  11.222   3.937
65660W        W32443  25.244  35.654  10.757
65661W        W32444   0.513  37.153  12.156
65662W        W32445  25.123   1.555  13.049
65663W        W32446  20.554  17.741  10.641
65664W        W32447   9.932  10.973  14.790
65665W        W32448  39.017  10.344  14.395
65666W        W32449  12.813   4.757   0.896
65667W        W32450  32.526   5.338  14.286
65668W        W32451  29.131  25.059   2.769
65669W        W32452   3.287  24.518   3.099
65670W        W32453   7.189  21.652   4.355
65671W        W32454  32.086  40.793  10.612
65672W        W32455  22.544  12.101   0.654
65673W        W32456  34.570  12.087   4.890
65674W        W32457  11.100  40.287   2.648
65675W        W32458  12.145  23.257   3.579
65676W        W32459  41.559  24.686  12.130
65677W        W32460  42.954  31.079   3.404
65678W        W32461  21.738  19.181  11.586
65679W        W32462  32.488  42.452   0.348
65680W        W32463  41.196   0.195   0.479
65681W        W32464  35.863  27.576  11.199
65682W        W32465  40.489  19.748  12.339
65683W        W32466  31.667  24.543   1.327
65684W        W32467  39.497  24.493  13.029
65685W        W32468   2.293  23.103  14.099
65686W        W32469   0.259  31.982  13.087
65687W        W32470  21.206  16.448  12.192
65688W        W32471  29.625  42.443  14.681
65689W        W32472  25.338  27.503   5.149
65690W        W32473  22.294   2.725   0.745
65691W        W32474   2.745   2.521  12.077
65692W        W32475  29.673  11.651  13.296
65693W        W32476  16.794  34.720   9.804
65694W        W32477  38.587  28.393   4.522
65695W        W32478  34.491  28.388   2.677
65696W        W32479   7.211  18.084   3.846
65697W        W32480  29.674  16.791   1.827
65698W        W32481  12.193  34.151   3.326
65699W        W32482  16.003   7.778   2.921
65700W        W32483   0.319  16.604   2.867
65701W        W32484  37.392   8.740  12.988
65702W        W32485  29.429  43.795   1.721
65703W        W32486  37.126   9.183  12.909
65704W        W32487  15.170  40.084  11.676
65705W        W32488   8.750   5.145   1.829
65706W        W32489  43.233  37.859  13.180
65707W        W32490  23.767   4.390   3.688
65708W        W32491  16.970  27.856   3.425
65709W        W32492  28.670   5.786  12.870
65710W        W32493   9.969  21.687   2.309
65711W        W32494  19.104  36.508   4.348
65712W        W32495  25.168  16.301   2.736
65713W        W32496  24.693  29.865  11.098
65714W        W32497  19.339  19.674   3.220
65715W        W32498   4.540  19.350  13.348
65716W        W32499  40.379  16.045   3.271
65717W        W32500   0.390  40.233  12.374
65718W        W32501  24.691  42.513  14.986
65719W        W32502  43.742   6.234   2.767
65720W        W32503  19.110  14.304   1.969
65721W        W32504  33.944  33.148   2.834
65722W        W32505   1.041  30.133  11.962
65723W        W32506  39.964   6.611  11.411
65724W        W32507  14.098  22.988   0.672
65725W        W32508  27.188  41.003  12.123
65726W        W32509   6.613  27.456   1.328
65727W        W32510  17.138  30.676   4.984
65728W        W32511   2.517  42.294  14.189
65729W        W32512  11.605  41.400  12.431
65730W        W32513  28.630  29.000   0.892
65731W        W32514  22.502  14.777  12.993
65732W        W32515  29.727  10.115  13.575
65733W        W32516  43.829   2.936  10.676
65734W        W32517  29.432   4.266   1.445
65735W        W32518  35.525  44.044  11.089
65736W        W32519  17.012  37.460   2.879
65737W        W32520  24.105  43.910   4.634
65738W        W32521  43.257  38.015  14.511
65739W        W32522   8.529  24.443   0.752
65740W        W32523  44.837   2.705   2.021
65741W        W32524   1.888   5.894   2.268
65742W        W32525   8.463  43.931  11.909
65743W        W32526  42.415  17.372   5.244
65744W        W32527   0.873  27.194   2.848
65745W        W32528  26.990   2.962   1.725
65746W        W32529   3.796   5.958  12.439
65747W        W32530  25.485  20.768   1.352
65748W        W32531  20.265   4.251  12.065
65749W        W32532  32.623  37.656   3.513
65750W        W32533   6.822  20.454   1.808
65751W        W32534  28.646  37.441   2.765
65752W        W32535  20.575  44.433  13.144
65753W        W32536  22.733  40.372  10.383
65754W        W32537  15.531   3.418  12.658
65755W        W32538   5.766  19.113   0.667
65756W        W32539  25.517  43.984   1.751
65757W        W32540  16.618  27.679   3.101
65758W        W32541  13.805  13.893   1.818
65759W        W32542  13.348  17.737   1.464
65760W        W32543  42.430   1.243   3.706
65761W        W32544  26.214  16.091   2.734
65762W        W32545  26.394  41.239   3.845
65763W        W32546  31.106  13.120   4.222
65764W        W32547   1.479   4.513  14.268
65765W        W32548  31.584  27.206   4.655
65766W        W32549   0.366  28.247   1.220
65767W        W32550  38.937  13.949  11.103
65768W        W32551  27.012  14.355   2.203
65769W        W32552  41.059   9.921  14.383
65770W        W32553  41.908  17.252   1.855
65771W        W32554  30.906  23.711   1.390
65772W        W32555  16.129   4.820  10.988
65773W        W32556   9.787  13.790   0.885
65774W        W32557  18.173   1.309  12.585
65775W        W32558  10.091   7.787   2.671
65776W        W32559  15.716  15.341  14.479
65777W        W32560  27.234  27.218   2.304
65778W        W32561  26.977  11.710   2.516
65779W        W32562  24.705  33.988  12.032
65780W        W32563  43.257  12.134   3.769
65781W        W32564  28.006  37.161  12.500
65782W        W32565  11.804  25.119  11.096
65783W        W32566   3.004   8.878   3.842
65784W        W32567   6.163  39.009   4.564
65785W        W32568   6.419  39.974   0.333
65786W        W32569  20.255  13.986   0.299
65787W        W32570  23.645  35.283   0.703
65788W        W32571  19.976  42.554   5.079
65789W        W32572  31.551   4.674  12.921
65790W        W32573  33.003   0.426  10.630
65791W        W32574   4.180  33.961  12.953
65792W        W32575  44.804  31.474  14.498
65793W        W32576   2.723  33.003  12.076
65794W        W32577  27.413  17.629   3.393
65795W        W32578  35.979  41.128   3.376
65796W        W32579   8.870  36.380  13.012
65797W        W32580  28.712  22.117  11.724
65798W        W32581  21.685  15.607   1.871
65799W        W32582   4.901   8.309   4.513
65800W        W32583  38.602  23.473   2.765
65801W        W32584  39.594  20.545   1.548
65802W        W32585  19.193  28.108   0.267
65803W        W32586  29.222  18.773  14.451
65804W        W32587  15.601  26.917   2.756
65805W        W32588  27.546  10.793  10.359
65806W        W32589  22.276   6.340  11.386
65807W        W32590  38.514  32.529   3.662
65808W        W32591  23.122  11.516  12.985
65809W        W32592   0.858  14.717  12.675
65810W        W32593  13.586  41.938  14.394
65811W        W32594  25.740   6.807  14.440
65812W        W32595  14.198  20.694   1.966
65813W        W32596   6.032  17.124  13.904
65814W        W32597  29.996  17.276  12.746
65815W        W32598  40.819  35.092   2.174
65816W        W32599  43.913  31.379   0.438
65817W        W32600  40.301  16.800   3.703
65818W        W32601  17.302  23.121   0.491
65819W        W32602  28.620   6.548  11.718
65820W        W32603  27.249  28.625   3.710
65821W        W32604  18.195   4.519   0.237
65822W        W32605  35.848  22.737  13.552
65823W        W32606  19.245   3.806   0.386
65824W        W32607   5.304  39.390  10.526
65825W        W32608  37.875  34.879   3.738
65826W        W32609  23.454  10.911  13.959
65827W        W32610  44.096  21.302  12.060
65828W        W32611   9.379  30.026   2.314
65829W        W32612  28.681  38.431   1.237
65830W        W32613  18.449   7.720  11.600
65831W        W32614  18.295   7.731  12.547
65832W        W32615  20.712  13.747   0.703
65833W        W32616  19.149  35.357   2.136
65834W        W32617   9.797   5.857  14.273
65835W        W32618  23.110  31.235   1.860
65836W        W32619   7.391  26.079  13.322
65837W        W32620   8.929   1.755   3.430
65838W        W32621  44.441   7.961   3.140
65839W        W32622  13.165  27.117   4.071
65840W        W32623  39.992  24.495  14.534
65841W        W32624  29.926  13.365  12.922
65842W        W32625   5.702  28.945  12.046
65843W        W32626  27.006  31.072   2.611
65844W        W32627  23.238  13.772  10.750
65845W        W32628  31.604  13.526  12.081
65846W        W32629  17.656  44.798  10.588
65847W        W32630   5.703  32.924  13.943
65848W        W32631  36.814  23.861   3.167
65849W        W32632  21.913   6.671  10.166
65850W        W32633  28.217  26.140  10.690
65851W        W32634   1.363  22.687   0.448
65852W        W32635  20.139  22.799   0.851
65853W        W32636  34.959  37.474   3.285
65854W        W32637  37.354  23.302  12.955
65855W        W32638  30.929  42.881  10.728
65856W        W32639  11.639  33.115  11.008
65857W        W32640   1.341  26.811   2.707
65858W        W32641   0.405   8.945  11.962
65859W        W32642  20.137  25.226  14.010
65860W        W32643  11.857   5.355  10.756
65861W        W32644  24.784  13.773  10.800
65862W        W32645  15.537  31.034   1.568
65863W        W32646   7.401  36.973   4.104
65864W        W32647  12.213  40.024   4.347
65865W        W32648  20.457   1.205  11.585
65866W        W32649  23.151  36.625  12.705
65867W        W32650   5.496  33.586  14.136
65868W        W32651  39.639  14.359  13.875
65869W        W32652   3.492   1.850   4.719
65870W        W32653  29.425   0.930  11.129
65871W        W32654  21.905  14.772   3.256
65872W        W32655  42.509  14.046  10.796
65873W        W32656   3.719  38.287  14.388
65874W        W32657  11.301  33.650  11.935
65875W        W32658  12.821  16.400  14.092
65876W        W32659  36.685   6.503  13.847
65877W        W32660   8.868  44.874   1.006
65878W        W32661  12.151  42.732  13.816
65879W        W32662  12.409  40.491  14.989
65880W        W32663  14.498  26.092  11.225
65881W        W32664  12.074   9.401   2.383
65882W        W32665  33.363  33.923   3.706
65883W        W32666  22.594  35.428  14.417
65884W        W32667   6.831   9.404   0.829
65885W        W32668  13.332  28.496   0.827
65886W        W32669  10.365  22.625  14.763
65887W        W32670  16.486  25.079   4.369
65888W        W32671  44.804  15.047   1.818
65889W        W32672   0.486  10.197  11.877
65890W        W32673  16.097  42.343  12.672
65891W        W32674   3.378  15.095  12.960
65892W        W32675  25.086  44.928  14.773
65893W        W32676  44.415   4.190  11.617
65894W        W32677  16.115  36.249   3.208
65895W        W32678   1.713  30.005  13.906
65896W        W32679  31.610   7.169  12.496
65897W        W32680  38.494   1.831   2.136
65898W        W32681  12.743  40.454   4.175
65899W        W32682  21.818  37.797  12.831
65900W        W32683  18.057  27.461  11.975
65901W        W32684  33.596   2.577   0.824
65902W        W32685   4.788  32.002   2.237
65903W        W32686   3.797  39.028  10.306
65904W        W32687  44.318  23.112  13.940
65905W        W32688  23.665  44.483  11.369
65906W        W32689   1.652   5.252   3.609
65907W        W32690   2.158  22.559  11.143
65908W        W32691  36.416   8.844  11.159
65909W        W32692   4.405  16.860   0.308
65910W        W32693  31.160  16.826   2.918
65911W        W32694  38.251  17.250  14.026
65912W        W32695  34.941   6.384  14.284
65913W        W32696  16.302  24.665  14.831
65914W        W32697  23.991  40.961  12.555
65915W        W32698  16.781  13.991   4.554
65916W        W32699  16.540  31.096   1.320
65917W        W32700  40.268   9.952  12.455
65918W        W32701  18.683  22.442  11.583
65919W        W32702  33.664  39.302  10.622
65920W        W32703  32.940  28.473  14.030
65921W        W32704  32.859   5.411   1.182
65922W        W32705  30.657   0.354   0.834
65923W        W32706  27.088   8.814  12.503
65924W        W32707  35.342  11.073  13.687
65925W        W32708   7.363  31.063   3.215
65926W        W32709  42.357  43.745  14.457
65927W        W32710  44.390  17.093   2.824
65928W        W32711  24.610   5.950   0.195
65929W        W32712  24.602  24.471  12.643
65930W        W32713  10.848  15.926  13.768
65931W        W32714   5.173  33.275  14.384
65932W        W32715  15.037   3.437  12.459
65933W        W32716   5.304  34.925  12.480
65934W        W32717   6.931  12.812   0.338
65935W        W32718  29.627   7.736   3.251
65936W        W32719  43.889  36.041   1.331
65937W        W32720  23.040   1.816   9.628
65938W        W32721  44.387  34.960   2.324
65939W        W32722  22.288  22.221   2.315
65940W        W32723  20.262  17.812  13.602
65941W        W32724   4.080  23.605   2.908
65942W        W32725  38.399  26.724   1.475
65943W        W32726  11.316  15.429  14.489
65944W        W32727  14.758  41.864  12.038
65945W        W32728  13.290  17.662  10.530
65946W        W32729   7.301   0.285  11.736
65947W        W32730  37.854  21.076   3.857
65948W        W32731   2.531   7.741   1.823
65949W        W32732  22.137   6.154  14.560
65950W        W32733  28.505  11.664   4.160
65951W        W32734   8.641  15.814   3.315
65952W        W32735   4.692  18.880  11.151
65953W        W32736  10.090  43.497  13.477
65954W        W32737  22.035  29.434   0.711
65955W        W32738  10.157   9.517   4.181
65956W        W32739  20.708   6.407  14.373
65957W        W32740  28.324  38.067  10.378
65958W        W32741  15.224  34.496  11.079
65959W        W32742  33.105  22.433  14.404
65960W        W32743  31.652  38.022  12.954
65961W        W32744  37.492   1.872   0.001
65962W        W32745  44.243  21.784   3.550
65963W        W32746  22.016  14.872  14.326
65964W        W32747  23.899  22.353   0.023
65965W        W32748  30.904   8.418  14.443
65966W        W32749  23.686   5.721  12.188
65967W        W32750  12.240  41.548   2.225
65968W        W32751  21.279  19.052   0.360
65969W        W32752  18.738  28.346   0.054
65970W        W32753  16.864   3.823   3.133
65971W        W32754  31.951  24.630  12.528
65972W        W32755  34.531  28.767  11.966
65973W        W32756  10.864  36.985  14.803
65974W        W32757  38.286  36.039   3.969
65975W        W32758  39.424  27.426   1.156
65976W        W32759  44.708  24.657  14.402
65977W        W32760  32.442  11.297  13.910
65978W        W32761  14.058  37.983   0.944
65979W        W32762  23.602  37.436  10.836
65980W        W32763  24.119   9.272  12.578
65981W        W32764   7.273  14.553   2.925
65982W        W32765  15.312   9.282   2.679
65983W        W32766   8.623  16.566   0.254
65984W        W32767   3.507  17.278  13.969
65985W        W32768  39.446  22.903  10.925
65986W        W32769   1.988  10.851   1.394
65987W        W32770  33.080  16.572  13.300
65988W        W32771  13.388   5.381  12.521
65989W        W32772  17.599   0.643   0.399
65990W        W32773   6.459  13.889  12.973
65991W        W32774  41.892   2.485   1.752
65992W        W32775   7.698  22.087  14.415
65993W        W32776  19.818  19.869   3.202
65994W        W32777  21.978  11.892  12.724
65995W        W32778   2.362   0.264   4.644
65996W        W32779  14.303  16.970   1.115
65997W        W32780  34.988   1.691  12.494
65998W        W32781   6.307  16.038   0.849
65999W        W32782   7.801   7.994   3.755
66000W        W32783  21.678  32.931  10.347
66001W        W32784   9.803  13.203  12.075
66002W        W32785  41.928  31.841   1.950
66003W        W32786   5.636  16.101   0.326
66004W        W32787   0.929  10.767  12.714
66005W        W32788   9.377  17.996  11.065
66006W        W32789  13.157  29.761   1.528
66007W        W32790  42.904  11.253   3.993
66008W        W32791  36.291  34.044   1.941
66009W        W32792  35.552  27.795  13.369
66010W        W32793  15.102   2.472   0.624
66011W        W32794  32.317  23.205  11.904
66012W        W32795  26.736  11.136   3.768
66013W        W32796  37.446   5.705   0.741
66014W        W32797  20.524  40.865  13.340
66015W        W32798  18.812  24.519   3.396
66016W        W32799  34.787  13.570   3.793
66017W        W32800  35.342  15.292  14.902
66018W        W32801  34.033   2.187  10.490
66019W        W32802  27.456  41.988   1.398
66020W        W32803   7.336   1.546   2.957
66021W        W32804  17.304  13.345   4.072
66022W        W32805   7.965  11.655   1.061
66023W        W32806  18.402   0.733   4.313
66024W        W32807  11.779   5.257  11.603
66025W        W32808  33.870  28.909  13.953
66026W        W32809   9.315   0.023   0.777
66027W        W32810  27.692   7.672   3.550
66028W        W32811  14.572  36.146   1.417
66029W        W32812  38.025  40.586  14.723
66030W        W32813  32.991  23.146  14.981
66031W        W32814  10.679   3.821   1.408
66032W        W32815  20.216  38.777   4.242
66033W        W32816  30.471  37.648  11.565
66034W        W32817   4.195  23.842  14.825
66035W        W32818  21.181   3.772   4.059
66036W        W32819   6.430  40.506   2.293
66037W        W32820  15.381  23.545   2.609
66038W        W32821  41.502  28.018  14.820
66039W        W32822  41.912  36.647  10.996
66040W        W32823  36.482  37.316   4.577
66041W        W32824   6.313   3.365   0.854
66042W        W32825  38.338  20.178  13.749
66043W        W32826  37.313  19.766  11.916
66044W        W32827  10.344  27.209   1.402
66045W        W32828   9.037   5.828  12.465
66046W        W32829   3.802   6.663   1.353
66047W        W32830  42.416  25.004   0.029
66048W        W32831  43.155  22.565  14.530
66049W        W32832  35.460  41.408   1.159
66050W        W32833  39.520  19.221   1.836
66051W        W32834  28.075  18.841  13.562
66052W        W32835  22.753   8.205   0.913
66053W        W32836  44.927  30.041   3.459
66054W        W32837  13.118   1.014   0.227
66055W        W32838  32.135  22.300   3.660
66056W        W32839  41.243  10.775   0.387
66057W        W32840  29.921  16.959  13.154
66058W        W32841  16.736  26.800  14.480
66059W        W32842   1.086  36.544  14.770
66060W        W32843  21.343  38.152   2.671
66061W        W32844  11.163  18.797  14.050
66062W        W32845  15.045  33.605   3.249
66063W        W32846   2.185  31.122   1.298
66064W        W32847  16.215  12.662  14.991
66065W        W32848  17.240   5.865  13.292
66066W        W32849   2.559   7.222   1.712
66067W        W32850   6.018   0.016   2.221
66068W        W32851  40.431  39.333  14.944
66069W        W32852  16.348  21.852   2.848
66070W        W32853   5.123  38.829   2.490
66071W        W32854  25.226  30.391  14.910
66072W        W32855   0.846  27.608  14.996
66073W        W32856  41.677  36.319  14.049
66074W        W32857  24.617  24.363   3.011
66075W        W32858  14.574  19.637  12.858
66076W        W32859  42.978  27.931   2.726
66077W        W32860   3.257  34.562  14.296
66078W        W32861  41.595  23.774   0.428
66079W        W32862  27.074  21.783   1.699
66080W        W32863  29.633  27.558   0.346
66081W        W32864  31.179  29.236   4.503
66082W        W32865  39.364   6.721   2.080
66083W        W32866  14.070  26.604   0.471
66084W        W32867  11.074  37.993   4.437
66085W        W32868  18.382   3.180   4.017
66086W        W32869  22.586   3.019   0.426
66087W        W32870  39.566  41.440  14.401
66088W        W32871  25.530  11.580  12.553
66089W        W32872  27.398  12.318   2.785
66090W        W32873   7.928  12.630   3.206
66091W        W32874  10.596  13.249   3.626
66092W        W32875  30.206  30.999   2.740
66093W        W32876   5.125  35.148  11.170
66094W        W32877   0.718  15.645  11.093
66095W        W32878  27.539  25.517  13.618
66096W        W32879  20.793  27.224  14.421
66097W        W32880  11.728  30.811  14.035
66098W        W32881  44.552  41.568  11.568
66099W        W32882  29.970  31.219   1.422
66100W        W32883  13.822   6.807   3.241
66101W        W32884  40.514  30.915   1.141
66102W        W32885  38.003  19.459  10.642
66103W        W32886   5.588   5.073  11.887
66104W        W32887  14.789  29.876  13.596
66105W        W32888  16.217  38.939  10.891
66106W        W32889  25.043  30.453   0.916
66107W        W32890   6.132  43.383  12.455
66108W        W32891   6.788  36.135  12.438
66109W        W32892   8.121  21.348   1.845
66110W        W32893  36.354  24.590  14.000
66111W        W32894   1.260  28.380  12.532
66112W        W32895  43.403  42.477   3.170
66113W        W32896  39.944   2.445  10.792
66114W        W32897  10.362  27.549   3.680
66115W        W32898  39.093   0.002   3.389
66116W        W32899   6.300  10.367  14.287
66117W        W32900  20.673  32.001  11.562
66118W        W32901  24.202  42.044   3.331
66119W        W32902   8.618  32.637   3.197
66120W        W32903  40.834  19.298   3.561
66121W        W32904  44.933  20.256   3.801
66122W        W32905  37.328   5.395   4.082
66123W        W32906  35.588  25.411  14.951
66124W        W32907   5.367  39.096  12.738
66125W        W32908  41.841  34.918   2.903
66126W        W32909   8.347  13.716  11.952
66127W        W32910  39.032  17.300  12.159
66128W        W32911   0.946  16.147   2.370
66129W        W32912  33.294  40.871   4.994
66130W        W32913  14.357   3.059   4.612
66131W        W32914  35.602  37.941   3.604
66132W        W32915   3.131   9.665  11.080
66133W        W32916  29.217   4.739  12.101
66134W        W32917   2.720   2.554  14.385
66135W        W32918  38.354   0.975   1.794
66136W        W32919  14.808  18.632   0.138
66137W        W32920  28.591  34.370  10.594
66138W        W32921  27.162   1.516   1.824
66139W        W32922  27.553  17.132   3.256
66140W        W32923  10.244  25.058  13.787
66141W        W32924  34.591  38.290  11.130
66142W        W32925  20.817  19.693   1.853
66143W        W32926  24.969  23.979  10.218
66144W        W32927   1.478   9.733   0.908
66145W        W32928  23.438  29.027   4.141
66146W        W32929  25.436  29.203   1.021
66147W        W32930   7.322  25.012  11.570
66148W        W32931  16.265  32.870   0.866
66149W        W32932   5.905  17.568  10.637
66150W        W32933   2.281  37.076   0.321
66151W        W32934   2.097  29.933   2.687
66152W        W32935  35.571  22.693   0.838
66153W        W32936   1.758   7.379  10.895
66154W        W32937  11.545  26.068  11.930
66155W        W32938   9.946  33.552  12.847
66156W        W32939  28.297  34.723  14.591
66157W        W32940   6.463  38.803   4.171
66158W        W32941  20.056   9.286  14.396
66159W        W32942   1.618  13.644  14.387
66160W        W32943  13.116  25.587  12.558
66161W        W32944  30.646  34.508  14.501
66162W        W32945  16.606  40.036   4.117
66163W        W32946  25.296   3.768   3.282
66164W        W32947  11.799  26.712  12.442
66165W        W32948  31.596  28.263   1.932
66166W        W32949   5.705  12.095  11.121
66167W        W32950  14.580  34.936   3.088
66168W        W32951  34.090  17.034  12.071
66169W        W32952   1.426  15.360   2.359
66170W        W32953   8.172  16.116   0.870
66171W        W32954  26.778  23.797  12.404
66172W        W32955  18.801  44.410  14.901
66173W        W32956   0.367  20.288  10.770
66174W        W32957  27.098  18.808   3.130
66175W        W32958  26.173  36.635  13.382
66176W        W32959  22.643  44.767   2.356
66177W        W32960  31.934  42.356   5.040
66178W        W32961   9.000  24.350   2.725
66179W        W32962  39.413   0.400   3.187
66180W        W32963  16.672  36.470   3.662
66181W        W32964  23.233  30.123   2.758
66182W        W32965  41.875  36.556  12.399
66183W        W32966   0.776   0.376   1.408
66184W        W32967  22.692  11.865   2.622
66185W        W32968  12.247  27.619   3.233
66186W        W32969  22.492  13.611   4.181
66187W        W32970  25.485  29.872  10.738
66188W        W32971  23.472  34.276  12.584
66189W        W32972  43.133  21.718   2.297
66190W        W32973  21.835   8.675  11.171
66191W        W32974  33.437  26.698  11.619
66192W        W32975  13.054  13.069  14.888
66193W        W32976  39.453  25.297  13.316
66194W        W32977  36.065  23.519   2.655
66195W        W32978  42.975   5.105  13.152
66196W        W32979  23.244  36.900   3.125
66197W        W32980  20.070  30.674   4.101
66198W        W32981   5.617  27.775  13.998
66199W        W32982  14.996  22.482   4.340
66200W        W32983  15.717   1.719   0.782
66201W        W32984   4.040  15.592   4.276
66202W        W32985  43.436  16.049   4.330
66203W        W32986  24.102  28.020  11.469
66204W        W32987  27.256  31.726  14.557
66205W        W32988  29.886  27.891  14.037
66206W        W32989  29.992  22.997  12.269
66207W        W32990  42.980  16.360  13.061
66208W        W32991  24.160  42.467  10.700
66209W        W32992   0.242  17.237  10.539
66210W        W32993  17.302  28.979  11.685
66211W        W32994  22.508  22.945   3.650
66212W        W32995  22.774  32.642  12.934
66213W        W32996  42.717   2.309   2.586
66214W        W32997  16.333  26.046   4.247
66215W        W32998  32.520  29.586  13.732
66216W        W32999  28.031  17.066  13.012
66217W        W33000  16.390  19.103  12.119
66218W        W33001  23.552  33.918  13.422
66219W        W33002   2.997   5.877  14.843
66220W        W33003   2.402  40.098   1.241
66221W        W33004  13.319  34.987   1.247
66222W        W33005  10.288   0.999  13.096
66223W        W33006  18.505  37.503  13.346
66224W        W33007  28.144   7.456   4.482
66225W        W33008   5.272  42.534  10.852
66226W        W33009  27.172  34.563   2.008
66227W        W33010  24.293  20.779  13.043
66228W        W33011   1.947  22.550   4.268
66229W        W33012  29.038   6.401  11.478
66230W        W33013  37.895  24.501  13.004
66231W        W33014  42.515   4.883  11.026
66232W        W33015  27.637  35.300  12.460
66233W        W33016  13.046   4.508   1.700
66234W        W33017  33.731  36.291   4.962
66235W        W33018  12.738  20.842  13.706
66236W        W33019  26.982  39.191   5.208
66237W        W33020  36.917   1.301   0.893
66238W        W33021  14.914  34.962  12.497
66239W        W33022  27.150  17.107  10.230
66240W        W33023  23.694  14.122   4.199
66241W        W33024   4.719   2.426   0.485
66242W        W33025   7.396  36.339  13.843
66243W        W33026  19.721  33.626   4.569
66244W        W33027  24.931  21.057  13.486
66245W        W33028  28.541  33.549   4.248
66246W        W33029  29.996  21.129   4.942
66247W        W33030  14.367  41.799   4.881
66248W        W33031  13.649  28.060   1.987
66249W        W33032   3.759  42.449  12.812
66250W        W33033  21.148  28.536  11.493
66251W        W33034  24.691   3.905   1.614
66252W        W33035  37.952  35.810  13.144
66253W        W33036  24.215  13.071   2.267
66254W        W33037   4.225  31.988  11.100
66255W        W33038  28.536  13.882  14.348
66256W        W33039  41.451  15.218   3.621
66257W        W33040  27.127  27.691   2.137
66258W        W33041   1.814  11.641   3.509
66259W        W33042  33.906  30.158   1.149
66260W        W33043   3.341  27.606   1.839
66261W        W33044  28.736  40.569   4.142
66262W        W33045  41.996   7.825   3.010
66263W        W33046   8.368  29.059   0.695
66264W        W33047  23.633  36.336   0.796
66265W        W33048  11.406  30.091  11.923
66266W        W33049   0.042  33.129  11.418
66267W        W33050  18.576  40.478   5.212
66268W        W33051  22.238  19.027   4.727
66269W        W33052  20.581  35.689   3.340
66270W        W33053  27.307  15.121   1.447
66271W        W33054  12.935  10.243  14.194
66272W        W33055   2.736   1.959  11.173
66273W        W33056   2.546  40.383   3.287
66274W        W33057  32.251  18.572  14.327
66275W        W33058  21.527  14.436   0.021
66276W        W33059  41.715  20.594  10.558
66277W        W33060  44.514   0.488  14.799
66278W        W33061   9.293  15.737  12.720
66279W        W33062   1.317  15.168  14.569
66280W        W33063  36.734  18.283   3.136
66281W        W33064  24.202  16.685  13.521
66282W        W33065  34.994  21.452  10.740
66283W        W33066  23.976   6.781  14.980
66284W        W33067   7.936  13.604   1.198
66285W        W33068  30.883  27.009  12.826
66286W        W33069  39.106  11.756   2.209
66287W        W33070   1.811   4.720   1.204
66288W        W33071   0.732  29.282   2.655
66289W        W33072   9.587  44.075   0.825
66290W        W33073  27.075  27.633   3.809
66291W        W33074  21.113  38.596   2.575
66292W        W33075  32.426  15.122  14.509
66293W        W33076   6.056  28.902   4.883
66294W        W33077  40.756  30.494  12.447
66295W        W33078  30.342  27.948   4.055
66296W        W33079  14.573   7.821  10.479
66297W        W33080  33.458   9.474   4.370
66298W        W33081  18.588   8.992   3.199
66299W        W33082  36.949   8.916   2.742
66300W        W33083  25.322  22.174  12.192
66301W        W33084  25.952   1.199   0.770
66302W        W33085  33.243   1.719   3.569
66303W        W33086  15.231  28.426   4.917
66304W        W33087   0.120  43.209   2.329
66305W        W33088  16.708  30.106   0.381
66306W        W33089  41.245   2.112  13.788
66307W        W33090  38.446  28.081  11.599
66308W        W33091  38.140   4.266  11.525
66309W        W33092   9.752  32.601   0.223
66310W        W33093  44.296  42.668   1.456
66311W        W33094  43.703   6.397   3.685
66312W        W33095  25.718  26.578   5.072
66313W        W33096   4.526  14.643   1.708
66314W        W33097  18.620  13.756  12.902
66315W        W33098  42.194   7.284   2.825
66316W        W33099  17.989  26.060  14.991
66317W        W33100  31.597  12.612   0.882
66318W        W33101  21.620  18.547   3.703
66319W        W33102  38.929  44.027   4.012
66320W        W33103  17.554  16.276   1.324
66321W        W33104  44.467  27.916   2.810
66322W        W33105   9.247   9.086  12.968
66323W        W33106  25.565  41.839  13.473
66324W        W33107  36.331  16.210   4.896
66325W        W33108  40.283  35.638  13.503
66326W        W33109  19.126   7.458   1.440
66327W        W33110   0.780  39.945  13.589
66328W        W33111  30.580  32.024  12.036
66329W        W33112   5.260  29.330   2.863
66330W        W33113   5.289  18.828  12.963
66331W        W33114   4.406  18.675   3.726
66332W        W33115  34.952   1.999  10.128
66333W        W33116  29.618  19.724   0.776
66334W        W33117  41.024  36.513  13.455
66335W        W33118   7.687   3.975   1.984
66336W        W33119   0.552  18.287  12.074
66337W        W33120   6.749  28.383   1.140
66338W        W33121  35.356   9.761  14.268
66339W        W33122  22.329   5.504  14.051
66340W        W33123  17.845   7.798   1.285
66341W        W33124  28.115  12.743  10.742
66342W        W33125  32.866  27.992  11.006
66343W        W33126  20.053  38.268   2.034
66344W        W33127   9.659  12.814  14.955
66345W        W33128   4.205  17.252   1.417
66346W        W33129  27.021  43.792  14.833
66347W        W33130  28.519  19.592   0.986
66348W        W33131   5.456   3.917   4.199
66349W        W33132  32.195   0.509  11.897
66350W        W33133  26.995  29.693   2.789
66351W        W33134  16.191  43.539  12.437
66352W        W33135  38.526  16.245  10.534
66353W        W33136  35.417  11.617   4.566
66354W        W33137  32.017  16.661  12.386
66355W        W33138   5.959  25.487  10.708
66356W        W33139  33.951   4.843  12.636
66357W        W33140  40.227  43.554   2.239
66358W        W33141  20.730  13.795  10.702
66359W        W33142  28.904  43.378   0.241
66360W        W33143  38.333  30.886   4.607
66361W        W33144  39.751  21.054  14.784
66362W        W33145   3.665  24.563  12.437
66363W        W33146  36.352  31.020  13.967
66364W        W33147   2.229   5.444  14.787
66365W        W33148   9.468  32.112   4.592
66366W        W33149  21.727  42.081  14.366
66367W        W33150   4.290   7.188  13.388
66368W        W33151  37.484  12.349  12.535
66369W        W33152  41.609  33.124  10.742
66370W        W33153  14.255  10.671   4.073
66371W        W33154  23.927  16.238  13.814
66372W        W33155   0.375  18.457  12.838
66373W        W33156  35.345  38.956  14.092
66374W        W33157  42.426  28.052   1.758
66375W        W33158  35.926  17.275   1.999
66376W        W33159   8.101  28.969  11.705
66377W        W33160  38.925  18.379   1.984
66378W        W33161   8.419  42.149   1.382
66379W        W33162  19.077  29.068   0.476
66380W        W33163  11.551  31.020  14.494
66381W        W33164  27.178   8.108   4.688
66382W        W33165  40.373  35.917   2.203
66383W        W33166  39.048   4.421  10.720
66384W        W33167   2.324  29.935  10.821
66385W        W33168  15.212  11.899  12.326
66386W        W33169  24.143  21.324   4.979
66387W        W33170   9.193   8.777  13.366
66388W        W33171  31.351  41.570   0.922
66389W        W33172  37.175  19.998   3.766
66390W        W33173   1.794  12.156   4.139
66391W        W33174  35.440   4.794   2.754
66392W        W33175  34.480  44.418  13.462
66393W        W33176  42.062   6.724  11.634
66394W        W33177   9.218  36.967   0.289
66395W        W33178  43.172   5.619   2.804
66396W        W33179  14.621   0.742  14.343
66397W        W33180   0.387  14.173   1.424
66398W        W33181   4.816  37.597   1.354
66399W        W33182  39.475  32.588   2.826
66400W        W33183  16.828  20.844   3.177
66401W        W33184  10.337  29.209  12.920
66402W        W33185   2.993   7.571  11.596
66403W        W33186  37.511  34.680   2.165
66404W        W33187  36.917  12.088   3.261
66405W        W33188  14.186  31.132  10.972
66406W        W33189  33.138  19.076   9.839
66407W        W33190  33.667   7.977  12.979
66408W        W33191   4.694  27.879  12.069
66409W        W33192  35.056  28.337   4.522
66410W        W33193  29.741  12.221  14.459
66411W        W33194  26.342  34.141   3.798
66412W        W33195   8.672   0.419   1.084
66413W        W33196  40.480  38.762   4.660
66414W        W33197  41.286  10.123  14.833
66415W        W33198  38.482   9.643  12.074
66416W        W33199  16.082  34.610   4.195
66417W        W33200   8.327  35.711   2.384
66418W        W33201  33.386  21.143   0.105
66419W        W33202  26.801  33.079  13.433
66420W        W33203  38.563  19.623   4.085
66421W        W33204  22.104  19.145   1.951
66422W        W33205  34.516  16.106   4.110
66423W        W33206  14.547  19.851   9.893
66424W        W33207  44.983  35.450   1.909
66425W        W33208  11.723   7.907  14.364
66426W        W33209  19.270  43.752  12.918
66427W        W33210  13.511  23.428   4.031
66428W        W33211  14.705  39.054  10.257
66429W        W33212  35.473  16.702  13.613
66430W        W33213  16.607   1.231   3.286
66431W        W33214  43.506   1.879   4.661
66432W        W33215  18.550   6.268   2.215
66433W        W33216  26.081  39.852   3.354
66434W        W33217  19.354  34.628   4.127
66435W        W33218  16.822   6.262  10.556
66436W        W33219  14.406   8.896   9.773
66437W        W33220  10.300  44.680   0.525
66438W        W33221  27.586  42.040  11.545
66439W        W33222  25.616  14.415  10.729
66440W        W33223  41.929  18.221   1.009
66441W        W33224  28.442  18.686   3.648
66442W        W33225  38.053  14.202  11.159
66443W        W33226   8.980  26.274   5.061
66444W        W33227  13.824  22.572   1.268
66445W        W33228  44.813  19.022   1.735
66446W        W33229   6.862  14.367   0.351
66447W        W33230  27.099  15.183   0.618
66448W        W33231  10.092  32.603  13.742
66449W        W33232  27.199   6.507  14.171
66450W        W33233   6.718  18.338  12.868
66451W        W33234  11.604  38.920  12.970
66452W        W33235  20.177  17.307  10.994
66453W        W33236  40.547  29.047  12.354
66454W        W33237  28.447  11.268  11.479
66455W        W33238   7.858  17.170   4.530
66456W        W33239  32.888  42.004   2.330
66457W        W33240  16.326  36.916   0.237
66458W        W33241  42.777  10.429  10.070
66459W        W33242  39.976  43.207   1.228
66460W        W33243  13.079  30.935   2.015
66461W        W33244  27.087  24.579   1.622
66462W        W33245  16.925  20.085   2.824
66463W        W33246  34.089  24.761  11.148
66464W        W33247  11.403  31.589   2.436
66465W        W33248  38.780  17.681  10.968
66466W        W33249  44.493  31.048  12.865
66467W        W33250  44.736   0.130   5.297
66468W        W33251   5.686  33.189  14.395
66469W        W33252  25.639  27.672   3.369
66470W        W33253  15.668  30.583  12.433
66471W        W33254  14.562  42.120  11.614
66472W        W33255  14.668  44.608  14.368
66473W        W33256  36.566  38.094   3.597
66474W        W33257  36.619  36.610   1.423
66475W        W33258  10.244  30.139  14.783
66476W        W33259   4.404  42.418  11.644
66477W        W33260  36.035  42.216   1.740
66478W        W33261   5.353  20.086  12.371
66479W        W33262   8.305   9.909  10.445
66480W        W33263  42.007  20.377   0.285
66481W        W33264  28.901  25.775  13.576
66482W        W33265  27.140  40.876  12.973
66483W        W33266  14.063  40.816  10.669
66484W        W33267  20.660  44.550  12.551
66485W        W33268  35.451  20.238   0.333
66486W        W33269  33.933  27.608  11.525
66487W        W33270  14.704  20.405  11.885
66488W        W33271  33.453  12.991   3.791
66489W        W33272  37.261   1.947  10.762
66490W        W33273   9.410  32.103  13.987
66491W        W33274   4.447   9.379  12.216
66492W        W33275  17.671  26.283   1.323
66493W        W33276  23.539  33.449  10.661
66494W        W33277   8.250  44.766   4.669
66495W        W33278   0.821   4.270   1.851
66496W        W33279  23.969   5.833  10.520
66497W        W33280  22.756  10.497  12.061
66498W        W33281  39.137  32.921  13.951
66499W        W33282  33.397  40.798  13.523
66500W        W33283  11.629   8.479   1.125
66501W        W33284  13.370   4.336  14.044
66502W        W33285  17.621  11.744   2.293
66503W        W33286   8.599   2.884  11.010
66504W        W33287  30.303  32.556  11.222
66505W        W33288   4.353  15.497   1.542
66506W        W33289  12.703  10.422   4.154
66507W        W33290   2.939  24.517  13.799
66508W        W33291   7.688  37.004  14.068
66509W        W33292  11.194  33.820   2.194
66510W        W33293  15.157  35.460  10.674
66511W        W33294  29.355  44.943   0.884
66512W        W33295   9.705  31.384   3.558
66513W        W33296  36.444  39.310   1.604
66514W        W33297  30.695  24.320   1.951
66515W        W33298  37.204  23.794  11.070
66516W        W33299   6.574  33.880   4.157
66517W        W33300  25.874  31.648   3.159
66518W        W33301  15.287  11.093  14.768
66519W        W33302  20.728  20.373  14.315
66520W        W33303  39.416  25.664   1.939
66521W        W33304   5.689  39.807   0.994
66522W        W33305  29.151  42.906  12.445
66523W        W33306   0.101  20.750   4.570
66524W        W33307  42.081  12.347  14.928
66525W        W33308  14.092  22.494  11.058
66526W        W33309  33.421  18.538  11.537
66527W        W33310  39.012  37.749   9.949
66528W        W33311  28.066   8.556   4.768
66529W        W33312   0.436   5.322  10.512
66530W        W33313  11.776  39.305   1.247
66531W        W33314  41.972  20.635  12.531
66532W        W33315   3.681  16.716  14.798
66533W        W33316   4.487  36.142   4.108
66534W        W33317   7.811  38.349  10.830
66535W        W33318  23.506  22.590   1.301
66536W        W33319  16.551  42.817   3.672
66537W        W33320  29.617  25.591  12.922
66538W        W33321   8.822  17.567  13.357
66539W        W33322  21.264  10.303  13.307
66540W        W33323  34.417  21.846  13.358
66541W        W33324  42.347   8.443   2.295
66542W        W33325  36.438   1.215  14.442
66543W        W33326  28.902  36.237   4.951
66544W        W33327  29.957  24.149   2.177
66545W        W33328  33.374  34.950  14.957
66546W        W33329  35.892   3.229  10.470
66547W        W33330  19.499  23.835   4.190
66548W        W33331  27.461  24.523   3.227
66549W        W33332  35.638  29.888   4.202
66550W        W33333  38.900   0.356   1.185
66551W        W33334  19.838  33.426  10.734
66552W        W33335  21.581  10.420   1.459
66553W        W33336   1.850  15.032  12.523
66554W        W33337  41.444  31.146   2.123
66555W        W33338  18.567  28.933  14.746
66556W        W33339  19.143   5.199  12.069
66557W        W33340  37.425  32.108   4.118
66558W        W33341  29.992  22.264  12.845
66559W        W33342   9.231  17.328   0.964
66560W        W33343   0.026  39.392  10.414
66561W        W33344   6.857  42.000   3.289
66562W        W33345   9.586   1.561  14.792
66563W        W33346  34.999   0.415  12.987
66564W        W33347  22.546  30.103  10.702
66565W        W33348  24.547  15.286   2.276
66566W        W33349  10.222  38.974   9.997
66567W        W33350  38.906  25.256  13.499
66568W        W33351  41.570  43.260   0.348
66569W        W33352  17.198  40.246  12.544
66570W        W33353  30.506  19.281  10.737
66571W        W33354   7.690  44.247   3.537
66572W        W33355  26.992  16.273  10.736
66573W        W33356  33.576   6.203  14.077
66574W        W33357  22.835  32.693   2.851
66575W        W33358  29.902  29.082  11.660
66576W        W33359  23.935  23.492   4.322
66577W        W33360  37.655  35.931  10.291
66578W        W33361   8.814  37.412  14.514
66579W        W33362  25.679  20.771  12.063
66580W        W33363  35.016  29.138   1.097
66581W        W33364  20.575  21.701  12.792
66582W        W33365  31.238  18.070   0.722
66583W        W33366  21.400  21.844  13.120
66584W        W33367  43.368  38.445  14.741
66585W        W33368  12.637  36.334   9.917
66586W        W33369  13.179  19.158   1.870
66587W        W33370  22.193  35.034   4.573
66588W        W33371  15.784  13.715  14.031
66589W        W33372  38.382  30.237  11.174
66590W        W33373  17.775  37.871   0.010
66591W        W33374   4.221  21.163   0.957
66592W        W33375  32.944  32.239  13.926
66593W        W33376  19.072  36.486  11.914
66594W        W33377   4.319   2.394   4.401
66595W        W33378  12.447  41.489  12.100
66596W        W33379  21.425  26.369  10.409
66597W        W33380   7.884  11.855   2.830
66598W        W33381  42.060  28.883  14.998
66599W        W33382  33.520  33.046  14.687
66600W        W33383  12.316  11.212   9.832
66601W        W33384  36.546  37.461   0.526
66602W        W33385  20.182  28.181   1.762
66603W        W33386  29.712  22.739   2.211
66604W        W33387  40.826  32.053  13.981
66605W        W33388  34.053  40.396   2.663
66606W        W33389   3.925  20.545   4.185
66607W        W33390   2.895  21.844  11.287
66608W        W33391  24.136  14.839  13.718
66609W        W33392   7.660  10.295   4.680
66610W        W33393  30.095  32.218  13.464
66611W        W33394  19.114   5.713  12.063
66612W        W33395  42.711  44.862   1.397
66613W        W33396  22.385   0.192   0.468
66614W        W33397  43.688   2.873   1.804
66615W        W33398  38.029  19.337  11.137
66616W        W33399  22.741  20.458  11.136
66617W        W33400   9.751  41.081  14.864
66618W        W33401   6.363  40.491   0.476
66619W        W33402  29.131  22.989  13.936
66620W        W33403   5.192  10.160  11.989
66621W        W33404  36.167   3.335   0.292
66622W        W33405  16.323  15.755   2.478
66623W        W33406  15.153  16.377   2.241
66624W        W33407  26.008   0.672   4.048
66625W        W33408  41.781  25.284   4.220
66626W        W33409  38.520   4.324   3.913
66627W        W33410  40.193  26.193  11.604
66628W        W33411  18.794  26.910  11.505
66629W        W33412  37.651   6.340  13.504
66630W        W33413  23.779  37.543  11.315
66631W        W33414   2.781  33.545   1.534
66632W        W33415  29.550  33.795   0.655
66633W        W33416   7.830  33.158  12.914
66634W        W33417   5.286  32.099   3.898
66635W        W33418  19.126  36.074  11.580
66636W        W33419  27.105   5.724  14.388
66637W        W33420   0.131  32.817   0.940
66638W        W33421  36.785   4.809  14.903
66639W        W33422  33.029   0.751   3.193
66640W        W33423  31.892   7.270  13.098
66641W        W33424   9.239  15.135  11.907
66642W        W33425  24.658  30.526  12.758
66643W        W33426   4.589  37.413  11.428
66644W        W33427  38.052  16.593   4.235
66645W        W33428  27.118  29.939   1.366
66646W        W33429  35.092   8.594   0.736
66647W        W33430  24.669  37.403  11.186
66648W        W33431   5.846  21.329   3.753
66649W        W33432  32.495  17.778  11.310
66650W        W33433  21.935   0.371   5.468
66651W        W33434  34.082  25.169   3.250
66652W        W33435  14.797  35.653  14.497
66653W        W33436  34.820   2.421   2.835
66654W        W33437  19.133   8.771   2.001
66655W        W33438   5.338  35.942   3.110
66656W        W33439  41.753   8.784   3.632
66657W        W33440  27.319   5.685  12.572
66658W        W33441  31.687  25.959  14.865
66659W        W33442  35.734  24.524  12.799
66660W        W33443  14.488  12.891  14.936
66661W        W33444  11.780  42.532  13.484
66662W        W33445  18.702  14.333  14.014
66663W        W33446  25.572  41.657   1.336
66664W        W33447  12.739  33.360  11.139
66665W        W33448  39.124  26.582  10.550
66666W        W33449  22.486  41.883   3.271
66667W        W33450  42.427  29.698  12.006
66668W        W33451  23.616   0.431  11.320
66669W        W33452  32.434  44.753   2.268
66670W        W33453  15.269  14.633   4.163
66671W        W33454   8.635  24.171  10.668
66672W        W33455   3.377  43.350   2.877
66673W        W33456   2.084  27.044  13.089
66674W        W33457  35.438  32.689   4.653
66675W        W33458  42.027   4.257  14.414
66676W        W33459  32.999  28.648  13.044
66677W        W33460  32.499  37.294   1.309
66678W        W33461  20.667   2.774  13.101
66679W        W33462  10.835  18.992   0.871
66680W        W33463  14.742  38.348  12.024
66681W        W33464  33.548   8.868  14.404
66682W        W33465  13.254  11.089  13.340
66683W        W33466  41.035  31.570   4.414
66684W        W33467  29.202  13.178  12.227
66685W        W33468  43.068  26.508   1.740
66686W        W33469   5.660   0.879   3.593
66687W        W33470   7.263   9.432   4.241
66688W        W33471  14.564  28.243   0.210
66689W        W33472  11.575  15.620   0.835
66690W        W33473  13.620  39.541   2.226
66691W        W33474  34.807  32.991   3.234
66692W        W33475  21.790   9.095   0.957
66693W        W33476  35.746   9.650   3.817
66694W        W33477   2.099   4.343   2.796
66695W        W33478  17.831  16.825  11.743
66696W        W33479  37.109  22.583   4.059
66697W        W33480  42.848  11.131  11.987
66698W        W33481  37.890  33.880   1.995
66699W        W33482  42.249  34.410   1.043
66700W        W33483  10.384  10.784  13.143
66701W        W33484  40.799  33.030  14.272
66702W        W33485  32.379  31.604   1.790
66703W        W33486   3.408  44.699  10.522
66704W        W33487  23.622  14.759  14.862
66705W        W33488  22.986  41.112   2.668
66706W        W33489  29.393  31.898   2.008
66707W        W33490  23.969  19.967  11.563
66708W        W33491  29.910  38.052   2.903
66709W        W33492  41.239  19.057   1.305
66710W        W33493  16.104  38.400  12.983
66711W        W33494  37.437   6.708  11.363
66712W        W33495  20.372  38.287  14.568
66713W        W33496  39.870   5.377   4.834
66714W        W33497  29.550  12.888  12.846
66715W        W33498  39.991  18.677   4.436
66716W        W33499  16.214   3.539  13.278
66717W        W33500  40.417  23.545   1.442
66718W        W33501  42.247  35.981   4.922
66719W        W33502   7.824  18.587  11.548
66720W        W33503  32.075  27.384   4.480
66721W        W33504  15.183  28.123  12.497
66722W        W33505  19.467   1.705   3.660
66723W        W33506  27.021   7.620  11.945
66724W        W33507   9.766  35.848   4.620
66725W        W33508   1.110  12.352   0.486
66726W        W33509  10.286  18.031  12.119
66727W        W33510   0.788  39.730   2.288
66728W        W33511   0.811   1.559   4.690
66729W        W33512  41.887  37.408   9.965
66730W        W33513  28.939  20.514   2.208
66731W        W33514  40.971  18.807   0.617
66732W        W33515   2.398   2.125  13.025
66733W        W33516   5.368   7.257   3.060
66734W        W33517  22.426   9.941   4.338
66735W        W33518  37.937   9.319  10.667
66736W        W33519  26.872  23.196  14.852
66737W        W33520   4.181  17.501   0.705
66738W        W33521  41.399  35.927  12.851
66739W        W33522  18.048  39.486   3.729
66740W        W33523  38.419   5.645   2.789
66741W        W33524  32.891  32.979  13.506
66742W        W33525  13.773   1.399  10.973
66743W        W33526  24.503   0.371   2.676
66744W        W33527  36.793  11.674   4.952
66745W        W33528  16.336  27.986   4.021
66746W        W33529  24.434  41.656  14.636
66747W        W33530  11.619  18.958  13.871
66748W        W33531  24.528  22.752  10.299
66749W        W33532  36.389   2.951   3.636
66750W        W33533  14.210  27.140   0.129
66751W        W33534  26.546  37.570   4.789
66752W        W33535  41.279  39.483  11.621
66753W        W33536   2.395  18.054   0.796
66754W        W33537  33.534  40.037   0.839
66755W        W33538  44.636  38.844   4.320
66756W        W33539  22.260  30.979   3.031
66757W        W33540   1.560  12.184  14.190
66758W        W33541   7.875  33.722  12.047
66759W        W33542  22.065  18.519   4.636
66760W        W33543   9.318  29.123  10.715
66761W        W33544   2.701   7.843   2.495
66762W        W33545   4.832  37.902   1.784
66763W        W33546  34.189  19.503   3.331
66764W        W33547  29.695  30.674  11.177
66765W        W33548  18.595   6.324   1.226
66766W        W33549  17.185  23.613  11.678
66767W        W33550  29.650   8.070   1.347
66768W        W33551  26.313  27.113   4.451
66769W        W33552  37.426   7.967  11.870
66770W        W33553   0.398  15.976  13.284
66771W        W33554  24.026  15.294  12.389
66772W        W33555  38.153  24.125   4.028
66773W        W33556   9.743  11.609  14.483
66774W        W33557  26.251  17.669  11.210
66775W        W33558  39.418  15.734   3.370
66776W        W33559  39.493  13.480  12.066
66777W        W33560  22.951  42.517  14.409
66778W        W33561  30.162  15.025  14.561
66779W        W33562  22.302  44.847  11.636
66780W        W33563  12.288   3.317   3.112
66781W        W33564   7.387  23.582   1.164
66782W        W33565  12.777  40.239   4.985
66783W        W33566  12.891  34.601   1.703
66784W        W33567  14.180   5.293   2.190
66785W        W33568  24.473  11.265   0.757
66786W        W33569  17.214  30.025   2.232
66787W        W33570  13.726  37.331  12.029
66788W        W33571  37.222  43.019  14.320
66789W        W33572  33.434  20.609   1.172
66790W        W33573  25.757  29.162   2.830
66791W        W33574   3.746   2.044  14.748
66792W        W33575  10.416   6.719   1.664
66793W        W33576  44.986  39.411  14.274
66794W        W33577   8.456  19.021   3.245
66795W        W33578  42.888   6.334   1.701
66796W        W33579  29.805   5.729   2.488
66797W        W33580  19.575   2.840   2.704
66798W        W33581  13.762  27.091   0.410
66799W        W33582  40.449   2.820   1.670
66800W        W33583  37.530  20.750  10.778
66801W        W33584  22.650  17.037  14.872
66802W        W33585  16.377   9.151  10.764
66803W        W33586  43.993  19.300  12.500
66804W        W33587  35.955  19.720  14.934
66805W        W33588  25.165   2.533   1.399
66806W        W33589  35.056  17.005   4.177
66807W        W33590  34.681  36.107  11.132
66808W        W33591  43.943   4.421  11.505
66809W        W33592  14.003  21.164  10.645
66810W        W33593  10.300  42.153   3.893
66811W        W33594   9.690  24.528  11.505
66812W        W33595  31.665  44.031   2.752
66813W        W33596  14.964  21.965  11.215
66814W        W33597  35.657  37.063  14.244
66815W        W33598  14.946  29.889  11.772
66816W        W33599   0.394  34.981  13.916
66817W        W33600  41.471  37.106   3.590
66818W        W33601  18.572  31.946  12.437
66819W        W33602   4.642  33.052  12.899
66820W        W33603   6.377   0.450  12.152
66821W        W33604  33.418  22.013   1.684
66822W        W33605  15.078  41.831   2.475
66823W        W33606  25.708  26.528   2.734
66824W        W33607  30.441   6.426  11.975
66825W        W33608  41.038  32.064  11.511
66826W        W33609   6.748   5.246  12.039
66827W        W33610   7.511   7.911   2.011
66828W        W33611  26.760  39.746   4.118
66829W        W33612  38.926  33.004  13.083
66830W        W33613   7.394  18.237  11.511
66831W        W33614  35.789  24.649  13.320
66832W        W33615  11.781  35.570   1.679
66833W        W33616  14.566  36.136   0.406
66834W        W33617   6.101  14.259  12.917
66835W        W33618  17.597   5.823   0.224
66836W        W33619  19.436  10.939  10.974
66837W        W33620  24.232  32.018  12.877
66838W        W33621  16.791  34.616   4.848
66839W        W33622  42.998  24.075   2.777
66840W        W33623  20.300  14.165  10.701
66841W        W33624  29.991  17.174   4.095
66842W        W33625  37.095   8.410  12.608
66843W        W33626  12.313  11.067   3.138
66844W        W33627   7.575   8.845  12.299
66845W        W33628   9.403  36.928  14.728
66846W        W33629   8.302   6.873  14.521
66847W        W33630  34.041  22.532  14.415
66848W        W33631  16.480  41.572   4.179
66849W        W33632   0.344  40.919  11.710
66850W        W33633  24.325  31.023   2.445
66851W        W33634  24.639  41.276   3.373
66852W        W33635  33.195  39.593  14.407
66853W        W33636  36.492  23.812   3.586
66854W        W33637  35.094  41.939  13.438
66855W        W33638  43.018  17.780   3.277
66856W        W33639  33.553  41.030   1.643
66857W        W33640   4.435   4.552  13.744
66858W        W33641  21.018  17.603   2.812
66859W        W33642   8.154  16.580  13.885
66860W        W33643   3.421   3.733   2.853
66861W        W33644   0.537  40.888  14.195
66862W        W33645  43.222   3.114   1.766
66863W        W33646  12.533  21.660  12.410
66864W        W33647  32.480   9.645   4.334
66865W        W33648   3.584  30.140  10.920
66866W        W33649  40.591  33.667   0.697
66867W        W33650  12.780  20.198   2.383
66868W        W33651  10.760  41.580   2.713
66869W        W33652  37.750  42.427   3.988
66870W        W33653  21.153  26.923   4.332
66871W        W33654  22.668  15.388  10.993
66872W        W33655   8.700  26.117  13.010
66873W        W33656  17.094  39.509   4.522
66874W        W33657  28.106  10.186   0.451
66875W        W33658  43.933  32.664  13.075
66876W        W33659   4.616  30.916  10.741
66877W        W33660  34.585  32.910   2.707
66878W        W33661  44.651  37.437   4.081
66879W        W33662  23.851  41.770  11.275
66880W        W33663  13.047  18.453   4.097
66881W        W33664  36.809  16.977   0.922
66882W        W33665  39.636  12.630   3.753
66883W        W33666  36.839  20.656   2.596
66884W        W33667  40.375  15.263   0.924
66885W        W33668  25.498  25.625   0.263
66886W        W33669   3.156  19.980   1.336
66887W        W33670  43.459  22.204   3.622
66888W        W33671  15.415  33.652  13.835
66889W        W33672  17.240   9.179  14.911
66890W        W33673  35.569  31.884   0.882
66891W        W33674  37.092   5.932   4.193
66892W        W33675  10.234  40.272  10.683
66893W        W33676  24.126  30.067  10.400
66894W        W33677  14.840  25.930   1.286
66895W        W33678  11.884  34.066  14.848
66896W        W33679  43.376  22.820   0.934
66897W        W33680  26.239  36.007  13.092
66898W        W33681   5.408  34.506  14.238
66899W        W33682  23.936  14.397  11.188
66900W        W33683  41.552   6.655  11.590
66901W        W33684  36.549   1.388  12.996
66902W        W33685  25.192  19.134  14.742
66903W        W33686  14.018  21.670   3.933
66904W        W33687  36.397  44.436  14.537
66905W        W33688   4.287  14.604   3.076
66906W        W33689   1.704   2.098  13.540
66907W        W33690  23.084  34.420   3.546
66908W        W33691   0.863  29.935  10.596
66909W        W33692   6.453  26.615   4.078
66910W        W33693   2.422  38.310  14.795
66911W        W33694   7.656  38.256   2.868
66912W        W33695   3.941   5.847   2.216
66913W        W33696  23.619   9.157  10.725
66914W        W33697  32.474  25.673  12.523
66915W        W33698  30.777  19.288  13.002
66916W        W33699  34.103   5.792  12.523
66917W        W33700   7.985  23.577  10.767
66918W        W33701  27.669  35.836   0.310
66919W        W33702  16.694  27.196  12.098
66920W        W33703  12.725  26.222   1.457
66921W        W33704   5.868  33.493  11.113
66922W        W33705  20.835  20.043   4.258
66923W        W33706   7.279  20.018   2.441
66924W        W33707   5.149  25.559  14.509
66925W        W33708  35.441  13.066   2.258
66926W        W33709  18.310   8.487   0.941
66927W        W33710  22.129   9.867  12.396
66928W        W33711  20.395  27.474   2.078
66929W        W33712  27.775  21.789   0.351
66930W        W33713  33.282  34.835   4.979
66931W        W33714  29.200  30.134   0.489
66932W        W33715   7.991  21.424   0.041
66933W        W33716  13.710  18.103  11.108
66934W        W33717   4.645   5.116  14.402
66935W        W33718   7.970   0.958   4.080
66936W        W33719  15.144  13.538  11.491
66937W        W33720  37.551  32.335   3.649
66938W        W33721  17.702   7.717   3.554
66939W        W33722  18.819  26.392  11.622
66940W        W33723  13.737   4.468  12.324
66941W        W33724  30.670  11.922  12.504
66942W        W33725  10.326  40.422  12.784
66943W        W33726  34.086  26.517   4.544
66944W        W33727  24.008  13.216  10.642
66945W        W33728  26.539   9.738  12.195
66946W        W33729  26.418  34.614  12.945
66947W        W33730  34.500  25.215   1.408
66948W        W33731  14.841  36.770  12.567
66949W        W33732  30.860  15.187  13.569
66950W        W33733  14.417  15.718  14.292
66951W        W33734  12.585  38.816   2.193
66952W        W33735  12.073  22.463   4.549
66953W        W33736  39.375  34.186  14.068
66954W        W33737  43.505  36.300   1.849
66955W        W33738  14.293  44.976   4.892
66956W        W33739  33.542  11.644   1.492
66957W        W33740  39.531  19.702   1.090
66958W        W33741  10.403  23.782  11.641
66959W        W33742   5.413  17.461   4.695
66960W        W33743  36.834  43.428   3.652
66961W        W33744  32.482  20.754  13.381
66962W        W33745  15.598  11.437   4.321
66963W        W33746  21.703   1.608   3.780
66964W        W33747  20.406   3.948  12.459
66965W        W33748   5.034   0.433   9.974
66966W        W33749  40.104  38.292   4.296
66967W        W33750  23.239  44.851  10.153
66968W        W33751   0.963   1.895   4.036
66969W        W33752  41.384  17.107   2.811
66970W        W33753  37.490  36.375  13.399
66971W        W33754  13.788  39.841   3.461
66972W        W33755   8.693   9.139  12.291
66973W        W33756   2.519  17.111   4.587
66974W        W33757  14.542   5.903   2.659
66975W        W33758  36.630  27.847   2.292
66976W        W33759  19.538  12.091   3.036
66977W        W33760  16.640   7.652   0.047
66978W        W33761  35.437   3.204   0.323
66979W        W33762  12.173  21.686   0.906
66980W        W33763  24.074   1.294  13.974
66981W        W33764   8.827  28.096  13.877
66982W        W33765   2.933  15.845   1.506
66983W        W33766  38.088  42.928   2.138
66984W        W33767  28.806  22.393  13.378
66985W        W33768   4.233   1.822  14.829
66986W        W33769  20.154  39.100   0.433
66987W        W33770  22.722  28.003   1.171
66988W        W33771  21.913   9.321   4.944
66989W        W33772   8.194  18.819  10.482
66990W        W33773  28.183  37.915   1.862
66991W        W33774  13.007   6.314  11.482
66992W        W33775  25.176  29.619  13.438
66993W        W33776  27.753  41.519  14.863
66994W        W33777  40.379  11.993   2.787
66995W        W33778  37.901  20.391   2.354
66996W        W33779  39.412   3.403  12.018
66997W        W33780  33.673  21.371  12.020
66998W        W33781  40.821  20.993  12.015
66999W        W33782  32.993  10.360   2.310
67000W        W33783  35.543  20.544  12.378
67001W        W33784  38.877  38.156   4.717
67002W        W33785   4.597   5.748   1.525
67003W        W33786  28.243  21.048  11.069
67004W        W33787   2.873  26.033  11.869
67005W        W33788   1.732  12.142  11.647
67006W        W33789  35.394  24.654  13.660
67007W        W33790   8.651  15.187  14.068
67008W        W33791   9.633  38.543  13.857
67009W        W33792  43.543  40.675  11.147
67010W        W33793  28.775  19.848  13.975
67011W        W33794  17.042  22.524   4.094
67012W        W33795  36.826  43.444  13.593
67013W        W33796   7.395   0.249   2.833
67014W        W33797  44.253  17.491   0.931
67015W        W33798  44.269   9.194   0.892
67016W        W33799   6.262  42.159  11.494
67017W        W33800  17.024   3.824   1.258
67018W        W33801  40.105  14.876   3.713
67019W        W33802  17.307  42.934   4.331
67020W        W33803  17.193  29.916  12.443
67021W        W33804  16.759   6.817   2.371
67022W        W33805  32.117  37.289  13.834
67023W        W33806  14.647  27.914  13.471
67024W        W33807  42.765  36.306   2.380
67025W        W33808  37.438  33.807   1.345
67026W        W33809  31.907  10.206   5.113
67027W        W33810  29.515  18.050   5.114
67028W        W33811  39.630  44.898   3.406
67029W        W33812  24.989  42.416  12.459
67030W        W33813  15.175   3.811   3.421
67031W        W33814  39.362  28.501  14.993
67032W        W33815  41.063  40.932   2.298
67033W        W33816  22.519   6.168   2.640
67034W        W33817  10.883  41.136   2.419
67035W        W33818  41.286  40.038   0.409
67036W        W33819  32.974  26.709   3.691
67037W        W33820  11.052  20.176  14.313
67038W        W33821   0.052  14.564  10.285
67039W        W33822   3.506  39.906  10.702
67040W        W33823  44.991  33.111   1.812
67041W        W33824  42.065  32.053   3.763
67042W        W33825  38.295  41.475  14.828
67043W        W33826  18.045  28.999   2.814
67044W        W33827  23.238  21.522  12.012
67045W        W33828  19.510  36.501  10.785
67046W        W33829  28.456  24.509  12.158
67047W        W33830  37.080  17.175   1.422
67048W        W33831   9.472   1.822  11.105
67049W        W33832  18.032  28.546   1.906
67050W        W33833   4.802  27.431  12.801
67051W        W33834  10.764  22.203  13.324
67052W        W33835  32.687  42.619   4.287
67053W        W33836   1.853   3.115  12.894
67054W        W33837  38.021   6.715   3.211
67055W        W33838  13.519  25.667  13.837
67056W        W33839   3.667  14.137  10.965
67057W        W33840   7.634   3.003  10.637
67058W        W33841   8.266  25.659  11.084
67059W        W33842  26.937  31.129   0.154
67060W        W33843  42.536  10.177  10.693
67061W        W33844  22.574  25.952   3.558
67062W        W33845  22.155  11.281   4.717
67063W        W33846  40.060   5.122   1.328
67064W        W33847  36.096   0.546  14.802
67065W        W33848   0.295   6.267   4.623
67066W        W33849  11.693  12.872  14.559
67067W        W33850  11.665   2.746   0.257
67068W        W33851  42.449  36.062   0.091
67069W        W33852   0.693  21.491  11.606
67070W        W33853  15.862  39.132  13.885
67071W        W33854  38.314  43.328   1.908
67072W        W33855   9.712   2.918  14.813
67073W        W33856  10.340  12.394   4.159
67074W        W33857  33.532  29.358   2.548
67075W        W33858  39.483  41.369   4.768
67076W        W33859  34.344   5.458  11.847
67077W        W33860  13.536  40.767  11.673
67078W        W33861  40.524  15.155  12.935
67079W        W33862  27.603  26.552  14.460
67080W        W33863  35.436   4.834  13.955
67081W        W33864   6.471   0.984   2.280
67082W        W33865   8.710  27.411  12.187
67083W        W33866   8.802  40.257   4.628
67084W        W33867  43.352  39.727  14.013
67085W        W33868  32.964  16.608  11.449
67086W        W33869  32.864  38.549   0.978
67087W        W33870  18.154  15.328  12.938
67088W        W33871  27.332   1.960   4.095
67089W        W33872   7.566  12.193  14.347
67090W        W33873  35.970  43.936   4.185
67091W        W33874  35.439  42.497  11.834
67092W        W33875  21.092  12.669   1.826
67093W        W33876   6.366  24.192   4.401
67094W        W33877  15.222  19.604  14.960
67095W        W33878  19.856  36.341  11.183
67096W        W33879  42.267  33.690  14.359
67097W        W33880   5.773  19.260  11.565
67098W        W33881   2.495  42.867   1.817
67099W        W33882  38.659   5.526   0.544
67100W        W33883  16.654  24.151  13.200
67101W        W33884   5.662  26.637  12.086
67102W        W33885  42.419  21.663   0.276
67103W        W33886  34.908  27.510  11.172
67104W        W33887  43.460   7.747   3.984
67105W        W33888  21.380  28.586   4.611
67106W        W33889   0.894  29.098  11.204
67107W        W33890  36.494  19.181   2.242
67108W        W33891  42.869  22.196  14.329
67109W        W33892  19.066  29.680  12.593
67110W        W33893   5.641  36.432   0.807
67111W        W33894   3.676  31.963  14.986
67112W        W33895  18.086  41.371  13.927
67113W        W33896   1.432  28.522  13.884
67114W        W33897  27.996  14.812  12.554
67115W        W33898  30.723  44.670   2.889
67116W        W33899  37.904   3.710  10.745
67117W        W33900  40.314  22.565  14.009
67118W        W33901   3.603  44.311  12.183
67119W        W33902  39.493  19.578   3.041
67120W        W33903  41.782  17.279   1.355
67121W        W33904  40.165  25.993   2.814
67122W        W33905  44.572  32.796  14.691
67123W        W33906  32.926   0.247   3.229
67124W        W33907   3.379   7.883   0.246
67125W        W33908  20.013   4.808   2.776
67126W        W33909  41.576  34.568   2.303
67127W        W33910   4.700   6.377  12.234
67128W        W33911  15.872  30.152  14.803
67129W        W33912  43.828  27.673   0.462
67130W        W33913  19.320  41.573   2.825
67131W        W33914  40.551  39.324   4.703
67132W        W33915  23.615  20.634  11.226
67133W        W33916  16.077  30.708  12.692
67134W        W33917  42.990   3.671   4.694
67135W        W33918   5.336  44.783   3.152
67136W        W33919  42.461   2.694   3.247
67137W        W33920   6.185   3.832   0.623
67138W        W33921  21.351  17.811   3.268
67139W        W33922  27.783  27.975  10.712
67140W        W33923  33.315  17.810  14.967
67141W        W33924  14.603  13.831   4.442
67142W        W33925  15.397   8.153   2.299
67143W        W33926  12.770  16.820  12.170
67144W        W33927  39.160   9.749  12.610
67145W        W33928  42.251  35.453   0.460
67146W        W33929  20.445  38.817   2.169
67147W        W33930  18.623  44.548  14.003
67148W        W33931  13.778  43.129   0.073
67149W        W33932  35.636  28.880   4.073
67150W        W33933  42.099  34.136  14.035
67151W        W33934   7.924   2.357  14.961
67152W        W33935   3.907  10.313  13.043
67153W        W33936  38.061  29.932  14.545
67154W        W33937  38.479  21.154   4.610
67155W        W33938  24.534   6.751  13.916
67156W        W33939  11.236  10.256  13.588
67157W        W33940   1.611  15.235   1.884
67158W        W33941  10.328  14.026   5.087
67159W        W33942  23.542  21.096  11.007
67160W        W33943  39.486  18.100  12.123
67161W        W33944  24.596   1.248  11.579
67162W        W33945  11.166  20.017   1.644
67163W        W33946  39.114  12.396  11.074
67164W        W33947  35.432  44.368  14.603
67165W        W33948   5.733  18.517   2.920
67166W        W33949  16.082  11.362   2.239
67167W        W33950   7.154  24.779  13.761
67168W        W33951  42.527  27.487  12.444
67169W        W33952   3.383  17.567  10.740
67170W        W33953  14.741  24.506  14.221
67171W        W33954   4.378  16.848   3.402
67172W        W33955   8.904   6.213   3.920
67173W        W33956  20.358  42.563  12.509
67174W        W33957  20.191  37.442  13.932
67175W        W33958  29.507  41.351  14.718
67176W        W33959  35.318  41.894   3.858
67177W        W33960  12.365   3.819   3.658
67178W        W33961  34.344  41.539  14.635
67179W        W33962  40.673  36.259  14.041
67180W        W33963   5.987  14.159   1.605
67181W        W33964  29.431   0.941  11.999
67182W        W33965  42.319  39.375   4.195
67183W        W33966  43.380   2.728   3.706
67184W        W33967  44.458   5.341  10.364
67185W        W33968  41.806  23.658  14.965
67186W        W33969  10.320  36.542   0.925
67187W        W33970  23.601   2.960   1.109
67188W        W33971  36.577  28.318  10.433
67189W        W33972   8.783   6.291  12.612
67190W        W33973  17.774  29.841  12.958
67191W        W33974  33.311   2.897   3.271
67192W        W33975  14.668  41.523   3.719
67193W        W33976  15.189  32.806  12.934
67194W        W33977  10.810   6.211   1.865
67195W        W33978  42.035  25.395   2.841
67196W        W33979  12.751  40.302  13.115
67197W        W33980  42.256  27.536  11.998
67198W        W33981  35.825  37.249   1.059
67199W        W33982  19.356  32.156   4.140
67200W        W33983  14.064   3.203   3.234
67201W        W33984  20.038  29.172   2.704
67202W        W33985   6.391  37.427  11.851
67203W        W33986  15.417  28.085   0.505
67204W        W33987  38.339  40.212   4.636
67205W        W33988  13.595  23.746   3.233
67206W        W33989  41.088  21.421  12.089
67207W        W33990  38.157  11.368   2.710
67208W        W33991   7.321  41.307   2.944
67209W        W33992   0.519  22.021   2.814
67210W        W33993   1.994  37.962   2.072
67211W        W33994  23.204  21.237  13.917
67212W        W33995  27.985  40.814  12.497
67213W        W33996   1.954  18.604   4.560
67214W        W33997  27.593  27.311  11.924
67215W        W33998   6.373  14.705  12.021
67216W        W33999  28.007  28.575  11.621
67217W        W34000  22.171   5.470  11.216
67218W        W34001  10.634   0.771   2.096
67219W        W34002  37.838  28.659  14.979
67220W        W34003  21.628  31.104   0.663
67221W        W34004  15.670  34.462   1.308
67222W        W34005   0.015   9.410   1.692
67223W        W34006  34.929   7.118   0.794
67224W        W34007  43.515  41.979   2.853
67225W        W34008  20.247  11.277  14.965
67226W        W34009  38.439  21.358  11.964
67227W        W34010  41.799  11.350  14.858
67228W        W34011  27.560  38.143  13.786
67229W        W34012  43.026  23.263  10.721
67230W        W34013   9.812  39.733  14.340
67231W        W34014  32.536  11.270   2.402
67232W        W34015  32.841  13.544   2.825
67233W        W34016  23.918  41.760  12.054
67234W        W34017  11.308   0.141  11.234
67235W        W34018   7.843   2.775  13.376
67236W        W34019  13.869   5.211   1.261
67237W        W34020  24.549   9.661   1.232
67238W        W34021  15.974  31.928  14.876
67239W        W34022  12.630  27.984   1.128
67240W        W34023   2.787  10.745   4.735
67241W        W34024   2.330  23.715  11.845
67242W        W34025  22.227  40.576   1.493
67243W        W34026   2.250  39.730   2.166
67244W        W34027  38.220  43.808  14.381
67245W        W34028  36.536  18.733   2.875
67246W        W34029  26.341   4.903   5.030
67247W        W34030  15.756  12.431   3.618
67248W        W34031  37.485  43.966  11.645
67249W        W34032  34.456  37.886  12.967
67250W        W34033  15.837  33.549   3.766
67251W        W34034  29.139  31.574   3.314
67252W        W34035  44.240  39.892   3.767
67253W        W34036  25.473  41.505   1.830
67254W        W34037   7.944   1.072  11.628
67255W        W34038   0.460  38.854  13.929
67256W        W34039   3.249  23.634  11.161
67257W        W34040  21.151  21.621   1.832
67258W        W34041   4.186  28.930  13.874
67259W        W34042   8.741  22.092  11.213
67260W        W34043   0.195   8.794  11.526
67261W        W34044  12.853   2.602  13.281
67262W        W34045  24.730  25.827  12.666
67263W        W34046  42.498  19.826   4.106
67264W        W34047   5.198  38.492  11.672
67265W        W34048  23.516  27.024   0.596
67266W        W34049  15.932  11.123  12.438
67267W        W34050  21.815  33.528   0.837
67268W        W34051   2.479  14.836   4.753
67269W        W34052  21.006   4.061  11.646
67270W        W34053  15.699   1.338   0.413
67271W        W34054  11.099  10.888  13.679
67272W        W34055   8.991  27.038  12.437
67273W        W34056  11.088   9.493   1.753
67274W        W34057  34.958   7.397  11.671
67275W        W34058  40.899   9.576   0.349
67276W        W34059  16.587  16.162  14.051
67277W        W34060  34.717  33.468   3.059
67278W        W34061  29.000  23.583  11.698
67279W        W34062   3.322   2.867  13.664
67280W        W34063  39.293   5.706   1.910
67281W        W34064  31.868  10.263   0.173
67282W        W34065   8.825  36.372   2.857
67283W        W34066   5.257  23.346  10.903
67284W        W34067  19.513  15.839   2.713
67285W        W34068   9.086  34.444   3.107
67286W        W34069  44.075  22.308  12.420
67287W        W34070  29.007  27.541  13.019
67288W        W34071  16.015  44.810   0.135
67289W        W34072  31.704   4.301   0.580
67290W        W34073  43.763  43.491  14.932
67291W        W34074   7.793   9.597   0.028
67292W        W34075  17.009   7.307   2.326
67293W        W34076   0.058  13.371  11.394
67294W        W34077   5.881  42.955  10.950
67295W        W34078  12.570  24.730  11.089
67296W        W34079  18.254  21.856  14.825
67297W        W34080  28.432  42.449   3.673
67298W        W34081  29.444  42.260   3.684
67299W        W34082  25.027  19.487  12.908
67300W        W34083   7.753  36.394   4.219
67301W        W34084  20.186  26.917   2.737
67302W        W34085  44.822  11.571  11.431
67303W        W34086   4.248  10.112   3.391
67304W        W34087  30.984   3.169  13.831
67305W        W34088  14.821  35.719   0.493
67306W        W34089  25.168   9.726   4.511
67307W        W34090  44.618  22.282  11.637
67308W        W34091  39.146  42.578  12.955
67309W        W34092  31.688  36.163  11.208
67310W        W34093  10.738  28.961  14.540
67311W        W34094   0.341   5.361   4.101
67312W        W34095   4.919  30.542   2.798
67313W        W34096  44.579  38.424  13.396
67314W        W34097  39.386   0.325   2.610
67315W        W34098   8.237  19.482   3.271
67316W        W34099   8.109   1.485  12.932
67317W        W34100  11.210  26.922   9.988
67318W        W34101  25.526  42.435   0.609
67319W        W34102  11.067  26.559   3.242
67320W        W34103  42.348  16.706   2.670
67321W        W34104  11.147  28.457  13.400
67322W        W34105  30.780  10.207   4.652
67323W        W34106  19.268  10.446   0.895
67324W        W34107  16.661  41.017  10.993
67325W        W34108  23.700  43.581   4.506
67326W        W34109  32.330  23.138   4.552
67327W        W34110  44.016  17.649   2.342
67328W        W34111  17.638  36.952   1.159
67329W        W34112   6.910   8.199   0.590
67330W        W34113  13.384  33.077  13.899
67331W        W34114  41.080  42.400  10.613
67332W        W34115   1.448   1.499   0.882
67333W        W34116  29.503  37.932   4.742
67334W        W34117   6.681   2.440  12.542
67335W        W34118  16.281  31.758  14.473
67336W        W34119   1.221  20.510   1.908
67337W        W34120  16.536  30.456   0.840
67338W        W34121   3.226   6.654  14.420
67339W        W34122   3.366  28.043  12.164
67340W        W34123  18.652   6.821  13.762
67341W        W34124  25.885   1.290  11.029
67342W        W34125  38.006   1.761   0.466
67343W        W34126  29.022   4.744  10.773
67344W        W34127  17.054   8.945   0.348
67345W        W34128   7.406  43.983   3.161
67346W        W34129  30.460  31.721   0.743
67347W        W34130   5.364  42.186  14.794
67348W        W34131  12.085  31.931   4.833
67349W        W34132   1.440   8.849   3.783
67350W        W34133  16.207  29.653   3.504
67351W        W34134   8.129  24.582  13.763
67352W        W34135  44.419   8.350  12.603
67353W        W34136   2.455  24.726  13.017
67354W        W34137  31.903  28.576   3.161
67355W        W34138   6.598  11.873  11.100
67356W        W34139  12.131  30.205  12.480
67357W        W34140  33.065   2.739   4.235
67358W        W34141  39.992   9.860   2.463
67359W        W34142  39.565  44.387   3.644
67360W        W34143  14.682  13.857   0.409
67361W        W34144   8.095  28.636   3.635
67362W        W34145  28.566  43.292  11.128
67363W        W34146  30.979  22.503  14.382
67364W        W34147  10.070  43.206  11.674
67365W        W34148  26.431  20.656   0.452
67366W        W34149  24.969  22.745   4.307
67367W        W34150  16.689  40.541  11.907
67368W        W34151  15.722   9.570  13.340
67369W        W34152  42.557  26.732   0.493
67370W        W34153  29.230  39.564  14.349
67371W        W34154  37.739  15.666   1.591
67372W        W34155  15.499   7.169   2.278
67373W        W34156   2.665  22.859  12.429
67374W        W34157  19.652   6.213  12.858
67375W        W34158  20.825  21.560   3.223
67376W        W34159  23.421  30.069  13.505
67377W        W34160  40.436  26.983   3.559
67378W        W34161  22.277  38.898   3.124
67379W        W34162  26.505  31.362  14.962
67380W        W34163  27.993  41.701   2.197
67381W        W34164  27.757  31.521  14.407
67382W        W34165  13.260  40.402   4.161
67383W        W34166  17.507  21.489   2.626
67384W        W34167  41.501  13.195  14.905
67385W        W34168  33.170  14.698   1.430
67386W        W34169  11.630  25.339  12.795
67387W        W34170  37.776  38.096   2.332
67388W        W34171  39.520   2.366   0.567
67389W        W34172  33.126  41.441  12.045
67390W        W34173  38.761  28.096  12.888
67391W        W34174  44.896  12.643   3.632
67392W        W34175  39.709  29.918   3.259
67393W        W34176  33.076  13.314  14.519
67394W        W34177  24.172  35.426   2.141
67395W        W34178  39.502  12.730  11.604
67396W        W34179  39.953  31.389   1.233
67397W        W34180  25.027  24.505   3.280
67398W        W34181  38.992   8.881  11.848
67399W        W34182  16.611  36.761   0.659
67400W        W34183  19.866  38.449   4.069
67401W        W34184  31.557  31.625   2.293
67402W        W34185  13.084   7.928  13.327
67403W        W34186   8.292  12.692   3.612
67404W        W34187  23.866  14.935  11.098
67405W        W34188  13.644  26.140   0.615
67406W        W34189  42.602  25.019   5.159
67407W        W34190   0.152   9.405   2.596
67408W        W34191  38.886  34.437  14.013
67409W        W34192  36.484  35.795   1.827
67410W        W34193  37.036  28.642   4.349
67411W        W34194  27.553   3.717  13.507
67412W        W34195   6.966   6.720  14.834
67413W        W34196  19.268  11.867   3.447
67414W        W34197  24.907  35.501  14.776
67415W        W34198  42.499   4.191   3.914
67416W        W34199   8.006   1.796  13.551
67417W        W34200  15.860  35.977  10.685
67418W        W34201  31.224  27.510   4.436
67419W        W34202  20.670  34.627  12.936
67420W        W34203  32.829  43.300  13.032
67421W        W34204  34.958  13.953  14.059
67422W        W34205  39.928  31.750  14.953
67423W        W34206  33.686  18.047   0.796
67424W        W34207  11.755   9.659   0.207
67425W        W34208   6.491  19.793   2.081
67426W        W34209  17.618   8.082   2.343
67427W        W34210  34.927  22.782   2.325
67428W        W34211  36.923   8.718  12.002
67429W        W34212   7.645   6.901   0.437
67430W        W34213  31.584  43.684   4.756
67431W        W34214  36.825  13.353  11.147
67432W        W34215  25.894  23.697   2.831
67433W        W34216  36.394  36.288   5.006
67434W        W34217  42.543  32.936   2.956
67435W        W34218   6.600  12.164   1.457
67436W        W34219  14.675  12.262  12.430
67437W        W34220  17.365   9.739  11.215
67438W        W34221  44.428  34.161   4.835
67439W        W34222   4.338  27.438  11.003
67440W        W34223   7.384  37.507   2.634
67441W        W34224  32.165   3.489   0.926
67442W        W34225  41.015  39.063   0.687
67443W        W34226   7.947  31.520   0.825
67444W        W34227  24.656   3.686   0.276
67445W        W34228  24.219   8.359  14.752
67446W        W34229  14.491   6.771   2.611
67447W        W34230  28.085  27.853  12.100
67448W        W34231  27.136   8.763   0.997
67449W        W34232  37.545  43.472  12.513
67450W        W34233   4.953  30.124  12.563
67451W        W34234  11.790  18.403  13.856
67452W        W34235  16.652  11.667  12.265
67453W        W34236  37.326  43.422   1.791
67454W        W34237  32.929   3.018  11.557
67455W        W34238  39.092  39.361  12.007
67456W        W34239  25.828  23.393   4.122
67457W        W34240  15.926  16.764   0.469
67458W        W34241  37.073  35.298   3.222
67459W        W34242  20.935  34.509  10.794
67460W        W34243  32.906   4.404   3.217
67461W        W34244  40.393   7.707   4.639
67462W        W34245  11.122  33.617  14.971
67463W        W34246   6.611  12.690   4.134
67464W        W34247  24.103   6.326  10.621
67465W        W34248  15.089   9.778   4.559
67466W        W34249   4.196  20.227   0.500
67467W        W34250  26.666  27.468  14.528
67468W        W34251  12.867  14.704  14.520
67469W        W34252   5.863  22.221   2.722
67470W        W34253  38.948  33.301   5.011
67471W        W34254  43.724   5.354  13.415
67472W        W34255   3.868  16.140   2.400
67473W        W34256  21.139  35.384   2.346
67474W        W34257   0.185  25.597  14.494
67475W        W34258  23.779  25.537  12.541
67476W        W34259  44.456  38.996   4.803
67477W        W34260  39.165   4.852   3.132
67478W        W34261  25.128   1.292  14.739
67479W        W34262  38.075  22.552  11.229
67480W        W34263  18.374  19.301   2.688
67481W        W34264  20.894  31.441   2.390
67482W        W34265  44.033  11.653   0.916
67483W        W34266  39.863   7.059   4.296
67484W        W34267  20.388  15.749   0.359
67485W        W34268  19.194  37.427   3.702
67486W        W34269  15.602   7.088  11.639
67487W        W34270   9.332  25.600   0.466
67488W        W34271   5.050  19.402  11.836
67489W        W34272  12.224   5.304   4.658
67490W        W34273  26.548  40.958   0.759
67491W        W34274  23.979   0.785  11.218
67492W        W34275   1.979  18.824  14.781
67493W        W34276   3.805  27.967  10.974
67494W        W34277  40.601  27.493   1.865
67495W        W34278  36.995  33.531   3.809
67496W        W34279  20.353  20.700   3.971
67497W        W34280  36.061  15.279  10.983
67498W        W34281   8.761  18.282  12.987
67499W        W34282  28.527  10.358  10.613
67500W        W34283  18.538  19.040  14.260
67501W        W34284  24.562  28.600   2.912
67502W        W34285   1.865  20.041   2.279
67503W        W34286  44.304  24.719  10.636
67504W        W34287  35.819  43.923   1.220
67505W        W34288  42.126  24.399  11.090
67506W        W34289  34.328  41.296   3.351
67507W        W34290  40.925  12.558   0.849
67508W        W34291  11.296   7.675   4.609
67509W        W34292  44.850  20.201  11.433
67510W        W34293  41.227   0.396   1.728
67511W        W34294  16.447  30.469   2.915
67512W        W34295  17.642  18.976  11.429
67513W        W34296   8.257  20.276   2.810
67514W        W34297  24.947  20.805   3.244
67515W        W34298   0.591  44.052  13.441
67516W        W34299  40.128  19.923  10.262
67517W        W34300  40.621   1.918  13.463
67518W        W34301  37.310  42.374   1.915
67519W        W34302  43.879  18.215   4.731
67520W        W34303  14.744   0.464  12.977
67521W        W34304   8.624  22.639  10.965
67522W        W34305   8.342  21.975   0.361
67523W        W34306  10.690  24.085  13.164
67524W        W34307  27.663  14.380   2.810
67525W        W34308   4.863  43.882  11.698
67526W        W34309  18.250  37.610  13.793
67527W        W34310   2.924  41.005  14.368
67528W        W34311  26.168  11.628   4.592
67529W        W34312   5.774  25.692   0.012
67530W        W34313  44.707   2.297  14.438
67531W        W34314  28.147   5.913  10.377
67532W        W34315  17.125  11.768   2.058
67533W        W34316  25.426   5.008   4.148
67534W        W34317  27.882  32.599   1.307
67535W        W34318  28.929  24.795  14.438
67536W        W34319  27.527  26.541  12.625
67537W        W34320  15.354   7.836   4.607
67538W        W34321  38.437  13.873   4.495
67539W        W34322  25.928  31.200  11.646
67540W        W34323   8.203  28.143   3.816
67541W        W34324   7.704   3.845  14.544
67542W        W34325  25.021  19.253   3.210
67543W        W34326  34.290  40.782  14.702
67544W        W34327  28.514  34.628  14.146
67545W        W34328  40.600  30.971   0.099
67546W        W34329   2.855  35.412   2.504
67547W        W34330  21.747  41.760  13.961
67548W        W34331  33.854  28.845  14.888
67549W        W34332  11.369  28.449   1.841
67550W        W34333  28.069  44.748   3.113
67551W        W34334  41.808   9.286   2.069
67552W        W34335  20.126  12.587  10.782
67553W        W34336  29.042  38.221  12.518
67554W        W34337   4.159  38.524  13.209
67555W        W34338  25.596  33.238   0.938
67556W        W34339  32.418  13.373  14.038
67557W        W34340  11.951   9.688   3.542
67558W        W34341  18.774  29.664   0.427
67559W        W34342   3.958  12.662   1.462
67560W        W34343   4.509  41.073   0.285
67561W        W34344  42.558  31.995   3.673
67562W        W34345  27.983  19.592   4.999
67563W        W34346   7.200  40.365  12.525
67564W        W34347   3.185  27.399   3.270
67565W        W34348  38.346   3.736  12.106
67566W        W34349  11.249  14.900   4.095
67567W        W34350   2.285  39.604   2.671
67568W        W34351   7.375  33.832   2.686
67569W        W34352  20.821   9.926  14.214
67570W        W34353  18.298   5.402  11.051
67571W        W34354  20.101   2.738  10.238
67572W        W34355  19.205  37.592   0.729
67573W        W34356  20.385  23.616  14.855
67574W        W34357  11.728   6.729  12.468
67575W        W34358  18.842   3.341  12.842
67576W        W34359  14.538  21.243  10.741
67577W        W34360  23.019  17.775  12.543
67578W        W34361  35.749  30.481   2.562
67579W        W34362  19.923  17.286  11.946
67580W        W34363  23.935  14.502   3.103
67581W        W34364  27.378   8.238   0.323
67582W        W34365  13.656  33.378  14.875
67583W        W34366  10.874  30.168  11.931
67584W        W34367  20.201  18.201   3.692
67585W        W34368   9.372  17.746   3.855
67586W        W34369  12.405  23.293  14.574
67587W        W34370  16.831  13.741   1.759
67588W        W34371  21.998  16.806  12.111
67589W        W34372   9.688  34.656  12.613
67590W        W34373  13.668  42.405   0.964
67591W        W34374  10.244  38.499  10.186
67592W        W34375  38.316  26.653  13.338
67593W        W34376   6.162  15.706   3.122
67594W        W34377   4.852  17.740   1.923
67595W        W34378  41.498  15.903   1.028
67596W        W34379  25.042  27.552   1.729
67597W        W34380  42.195  22.923  10.969
67598W        W34381  14.897  43.983  14.981
67599W        W34382  27.999  28.963  12.074
67600W        W34383  13.883  23.067  13.359
67601W        W34384  37.529  28.221   1.307
67602W        W34385  27.444   9.410  11.430
67603W        W34386  22.469  21.284  11.426
67604W        W34387  34.061  25.725  10.714
67605W        W34388  14.034  30.994  11.448
67606W        W34389   3.860  20.071  14.689
67607W        W34390  42.927  11.310  10.017
67608W        W34391  27.566  22.221   4.654
67609W        W34392  24.348  35.587   1.209
67610W        W34393  11.430  18.806   0.855
67611W        W34394  31.975   6.904   0.053
67612W        W34395  35.588  14.669  13.282
67613W        W34396  24.630  20.112   3.214
67614W        W34397  17.676   5.090  12.319
67615W        W34398  21.737   1.187  14.303
67616W        W34399  21.265  13.199   2.856
67617W        W34400  43.941  44.058  13.961
67618W        W34401  14.008  41.772  13.977
67619W        W34402  28.062   6.259  12.617
67620W        W34403  32.929  31.974  12.521
67621W        W34404  18.415  23.136  11.069
67622W        W34405   1.179  26.904  11.325
67623W        W34406  38.957   7.480  13.982
67624W        W34407  11.234  13.746  12.878
67625W        W34408  28.588  23.724   3.865
67626W        W34409   4.783  41.344   4.092
67627W        W34410  17.080  39.484   0.567
67628W        W34411  39.502   3.156   4.590
67629W        W34412   4.510  37.141   3.234
67630W        W34413   4.243  27.570  11.922
67631W        W34414  28.824  42.337   2.225
67632W        W34415  16.493  21.190  13.016
67633W        W34416  43.714  22.671   3.791
67634W        W34417  20.813  29.707   3.758
67635W        W34418   9.141  20.692  13.429
67636W        W34419  33.369  36.420   3.198
67637W        W34420  10.197  20.659  11.004
67638W        W34421  10.846   9.200  14.259
67639W        W34422  42.207   2.755  12.053
67640W        W34423  14.536  38.388   0.255
67641W        W34424  20.630   3.350   1.808
67642W        W34425  26.110  37.937  10.818
67643W        W34426  25.542   6.127  14.781
67644W        W34427  38.589  26.756   3.306
67645W        W34428  11.195  19.596   0.510
67646W        W34429  25.189  33.296   4.437
67647W        W34430   7.863  15.556   3.556
67648W        W34431  44.910  15.176   1.150
67649W        W34432  44.294  41.436  12.022
67650W        W34433  10.615  43.717  14.651
67651W        W34434  22.452  18.339   5.003
67652W        W34435   5.829   4.699  12.972
67653W        W34436  16.919  20.569   2.352
67654W        W34437  27.091   4.901   1.596
67655W        W34438  40.377  16.082   2.402
67656W        W34439  32.577   4.035   4.127
67657W        W34440  25.580  23.512  14.881
67658W        W34441  30.844  13.096  14.852
67659W        W34442  16.740  22.931   4.661
67660W        W34443   5.105  23.686  14.877
67661W        W34444  25.960   6.170   2.214
67662W        W34445   0.278  20.293  14.509
67663W        W34446   2.407  37.520   2.798
67664W        W34447  29.550  22.058  14.314
67665W        W34448  40.342  43.739   2.763
67666W        W34449  26.658  26.166   4.824
67667W        W34450  24.678   8.696  10.753
67668W        W34451  18.111  39.462   1.884
67669W        W34452  23.013  10.621   2.709
67670W        W34453   4.653  32.745   1.567
67671W        W34454  17.549  14.659   2.743
67672W        W34455   1.028  43.219   0.798
67673W        W34456  41.224   7.465   3.215
67674W        W34457  27.219   0.350  11.460
67675W        W34458  40.772  38.262   1.674
67676W        W34459   6.165  40.580  11.451
67677W        W34460   8.898  19.256   1.538
67678W        W34461  20.118  26.045  13.517
67679W        W34462  14.994  12.318  12.040
67680W        W34463   7.190  28.178  11.936
67681W        W34464   4.644  28.085   0.013
67682W        W34465  44.743  19.754  14.815
67683W        W34466  33.748  30.024   2.455
67684W        W34467  15.088  44.403  13.602
67685W        W34468  23.831  44.351   1.425
67686W        W34469  38.493  17.293   4.719
67687W        W34470  24.862  10.616  11.958
67688W        W34471  34.865  16.568   4.652
67689W        W34472  36.708  24.686   0.016
67690W        W34473  31.514   3.922  12.549
67691W        W34474  38.643  18.441   1.229
67692W        W34475  23.605  29.369   0.354
67693W        W34476  15.833  16.646  13.974
67694W        W34477   9.994  37.179   4.938
67695W        W34478  27.114  15.653   3.929
67696W        W34479  14.033   2.551  11.619
67697W        W34480  40.839  38.484  12.542
67698W        W34481  29.949  19.133   2.353
67699W        W34482  28.165   9.807  14.010
67700W        W34483  38.862  22.192   1.727
67701W        W34484  41.049  22.993  14.475
67702W        W34485   7.113  12.371  13.429
67703W        W34486  32.386   8.812  13.471
67704W        W34487  42.538   0.963   2.329
67705W        W34488  19.749   7.953  13.419
67706W        W34489  34.391  12.263  12.940
67707W        W34490   0.479   9.436  11.079
67708W        W34491  22.253  27.552  11.546
67709W        W34492  21.267  22.236   2.594
67710W        W34493  11.822   8.116   0.779
67711W        W34494  12.834  13.661   0.480
67712W        W34495  10.264  28.148  12.958
67713W        W34496  21.565   2.766  11.589
67714W        W34497   6.978  42.989   2.382
67715W        W34498  15.518  16.019   2.982
67716W        W34499  44.909   5.941  10.702
67717W        W34500  14.672  34.880   4.850
67718W        W34501  28.049  35.386   2.332
67719W        W34502  41.362  17.716  12.477
67720W        W34503   2.536  34.404   3.811
67721W        W34504  27.046  32.611  14.010
67722W        W34505  40.601  31.356   0.443
67723W        W34506  14.867   3.034  14.979
67724W        W34507  30.782   3.963   2.299
67725W        W34508  41.759  16.785   1.655
67726W        W34509  20.703  12.273   1.902
67727W        W34510  24.703  20.219   2.318
67728W        W34511  16.717   5.668  14.015
67729W        W34512  12.396  18.103  12.177
67730W        W34513  19.137  42.789  13.920
67731W        W34514  18.001   6.268   2.244
67732W        W34515   7.120  17.298  13.335
67733W        W34516  20.362  21.214   2.687
67734W        W34517  17.628  21.585  10.975
67735W        W34518   7.835  28.168  11.185
67736W        W34519  13.726  13.316  11.211
67737W        W34520  35.358  13.711   2.885
67738W        W34521   7.874  36.841  10.918
67739W        W34522  37.091  33.987  10.938
67740W        W34523   9.041  12.355  11.824
67741W        W34524   5.644  24.671   3.310
67742W        W34525   2.416  16.597   4.582
67743W        W34526  24.557  28.553   1.133
67744W        W34527  20.706  13.760   0.192
67745W        W34528   0.563  25.712   1.208
67746W        W34529  25.444  11.625  11.164
67747W        W34530  28.164  38.374  12.007
67748W        W34531  23.667  22.476  12.342
67749W        W34532  16.206  26.564  11.063
67750W        W34533  21.001  41.133   1.735
67751W        W34534   1.882   8.259  13.992
67752W        W34535  12.387  39.403  12.671
67753W        W34536  37.878  20.127  14.775
67754W        W34537  14.328  19.647  13.324
67755W        W34538  28.603  12.615  10.755
67756W        W34539  37.440  35.260   1.487
67757W        W34540  25.543  18.634  10.657
67758W        W34541   7.504  43.397   1.859
67759W        W34542  44.451   6.834   3.993
67760W        W34543   9.839   2.183  14.088
67761W        W34544   7.439  16.888  13.368
67762W        W34545   5.396  28.911  11.275
67763W        W34546  12.445  20.842   3.163
67764W        W34547  41.361  33.527   1.083
67765W        W34548  23.670  39.789  14.823
67766W        W34549  21.167  19.633  10.650
67767W        W34550  10.422  36.155   3.802
67768W        W34551  29.996  14.927  11.498
67769W        W34552  23.190   9.586  11.206
67770W        W34553  22.678   9.261   2.876
67771W        W34554  31.645  14.158  11.401
67772W        W34555  37.737  43.282  13.887
67773W        W34556   5.678   0.246  11.175
67774W        W34557  27.119  10.961  14.585
67775W        W34558   8.032  16.630  12.540
67776W        W34559   6.183   6.010  13.273
67777W        W34560  13.524  23.111  13.772
67778W        W34561  32.035  38.739   5.110
67779W        W34562  30.441  23.525   1.545
67780W        W34563  37.245  16.719  13.975
67781W        W34564  15.886  19.038  12.095
67782W        W34565   1.204   0.404  10.677
67783W        W34566  36.133  28.199  12.571
67784W        W34567  35.347  23.756  14.112
67785W        W34568  34.782  37.487  11.120
67786W        W34569  34.355  32.413   1.832
67787W        W34570  34.427  40.410   2.252
67788W        W34571  14.326  35.091   0.248
67789W        W34572   1.928  43.764   0.868
67790W        W34573  31.047   7.583   1.702
67791W        W34574   9.385  29.157   0.854
67792W        W34575  42.310  11.250  14.720
67793W        W34576  39.079  12.123  14.954
67794W        W34577  43.488  44.907  11.959
67795W        W34578  24.274  19.491   5.239
67796W        W34579  18.580  25.068  12.001
67797W        W34580   5.193   2.693   2.949
67798W        W34581  35.421   3.073  14.802
67799W        W34582  16.625   7.291  13.823
67800W        W34583  31.241  38.400  12.379
67801W        W34584   3.198  38.103   4.185
67802W        W34585  16.588  14.117  10.855
67803W        W34586   9.887  38.434  10.950
67804W        W34587   1.498  24.421  12.939
67805W        W34588   4.347   4.363   1.392
67806W        W34589  35.451   7.406  10.179
67807W        W34590  35.036  17.837   0.306
67808W        W34591  33.437   4.938  11.654
67809W        W34592   8.377   5.341  12.419
67810W        W34593  16.112  23.221   0.454
67811W        W34594   6.332   7.240   0.008
67812W        W34595  40.845  37.131  10.712
67813W        W34596  38.911  34.001  12.218
67814W        W34597  40.036  22.254  11.007
67815W        W34598   2.191  34.921   4.572
67816W        W34599  34.420  30.147  10.781
67817W        W34600  34.919  36.773   3.711
67818W        W34601  38.560  16.693   2.936
67819W        W34602   1.412  31.189  10.698
67820W        W34603   5.568  11.591  13.166
67821W        W34604  35.947  18.245   4.543
67822W        W34605  35.850  37.987   1.324
67823W        W34606  42.279  10.630   2.021
67824W        W34607  35.971  20.554  14.496
67825W        W34608  17.586  27.943  14.093
67826W        W34609   0.536  42.440   0.930
67827W        W34610  11.830  14.606  11.471
67828W        W34611   7.512   1.937  13.442
67829W        W34612  28.126   4.025   2.611
67830W        W34613  22.477  33.391  14.938
67831W        W34614   4.872  39.740  13.792
67832W        W34615   3.484  23.239   1.701
67833W        W34616  10.737  16.532  10.966
67834W        W34617  31.541  21.718  12.438
67835W        W34618  17.554  20.191  10.773
67836W        W34619   0.336  32.038   3.363
67837W        W34620  10.883  38.621  11.155
67838W        W34621  20.544  24.081   1.665
67839W        W34622  38.893   5.257   2.944
67840W        W34623  16.661  33.424   3.068
67841W        W34624  29.678  44.441   2.142
67842W        W34625  13.372  37.599  12.276
67843W        W34626   2.968  18.155   2.912
67844W        W34627  29.810  32.679  11.264
67845W        W34628   4.187   2.368   4.929
67846W        W34629   2.964  43.297   0.849
67847W        W34630  30.516  26.526   0.455
67848W        W34631  13.631  28.481   1.704
67849W        W34632  13.265  38.429  12.356
67850W        W34633   9.538  17.032  10.128
67851W        W34634  32.446  30.963   3.283
67852W        W34635  25.559  27.932   0.673
67853W        W34636   2.861   3.917  14.700
67854W        W34637  34.027  26.275   3.186
67855W        W34638  26.097   1.287   1.711
67856W        W34639   7.946   1.755  12.181
67857W        W34640   1.018  13.108   2.238
67858W        W34641   7.979  14.093   0.967
67859W        W34642  33.008  41.466   3.702
67860W        W34643   1.011  44.419  13.951
67861W        W34644   1.242  12.360   3.410
67862W        W34645  22.057  26.945   4.064
67863W        W34646  39.390  40.634   0.490
67864W        W34647  20.829  22.111   4.809
67865W        W34648  32.013  14.256   4.091
67866W        W34649  21.442   8.701   4.591
67867W        W34650  24.508  36.004  10.975
67868W        W34651  17.898  41.557  12.503
67869W        W34652   7.547  26.085   3.079
67870W        W34653  39.278  37.378   3.871
67871W        W34654  43.032   0.238  13.719
67872W        W34655  16.260   0.732  13.696
67873W        W34656  11.971   8.446   3.038
67874W        W34657  10.751  44.009   3.294
67875W        W34658  24.596   3.070  13.382
67876W        W34659  35.922   2.793  11.740
67877W        W34660  41.281   5.897   4.037
67878W        W34661   1.003  42.399  14.407
67879W        W34662  34.062  20.295  11.960
67880W        W34663   3.380  39.492  13.880
67881W        W34664  10.213  26.588   3.738
67882W        W34665   7.242  28.231   2.758
67883W        W34666  11.366  42.031  13.365
67884W        W34667  12.380  22.552  11.449
67885W        W34668  36.137  22.580  13.998
67886W        W34669  36.814  14.777   2.319
67887W        W34670  31.614  36.581   0.778
67888W        W34671  17.686   4.818  12.782
67889W        W34672  22.780  11.209  12.611
67890W        W34673  24.901  35.876   3.843
67891W        W34674  37.808   9.450  13.412
67892W        W34675  43.450   6.822  13.429
67893W        W34676  29.416  12.860  11.890
67894W        W34677  44.346  32.202   3.035
67895W        W34678  32.979  21.304  13.925
67896W        W34679   9.885   8.796   2.688
67897W        W34680  32.644  33.638   4.371
67898W        W34681  12.195  28.583  12.485
67899W        W34682   0.890  37.881  12.131
67900W        W34683  15.530  37.828  12.194
67901W        W34684  22.250  33.934   3.052
67902W        W34685  42.958   9.446   3.176
67903W        W34686   6.376  17.590   1.901
67904W        W34687   4.971  39.832   2.956
67905W        W34688  40.043  31.503   1.736
67906W        W34689  37.479   6.809  12.383
67907W        W34690  21.176  34.325  13.494
67908W        W34691  29.495  40.511   3.180
67909W        W34692  10.712  22.954   2.797
67910W        W34693  40.342   2.765   2.186
67911W        W34694  36.390  42.794  11.146
67912W        W34695  24.506   7.936   3.010
67913W        W34696  22.538   1.978   2.850
67914W        W34697  11.394   9.268  13.123
67915W        W34698  43.782   4.304   0.803
67916W        W34699  37.945  29.600   3.880
67917W        W34700  38.434  19.694  13.944
67918W        W34701   5.183  23.694   1.386
67919W        W34702  44.422  39.857   2.667
67920W        W34703  29.047   9.848  12.458
67921W        W34704  10.863   4.234   0.484
67922W        W34705   6.433  34.507  12.120
67923W        W34706  14.334  42.248   4.061
67924W        W34707  18.592   1.708   1.206
67925W        W34708   3.770  44.282   1.387
67926W        W34709  22.142  26.030   3.851
67927W        W34710  15.187  41.957  13.269
67928W        W34711  44.115   1.307  11.672
67929W        W34712  39.569  28.472  11.858
67930W        W34713  12.695  17.474   4.934
67931W        W34714   5.243  43.728  13.959
67932W        W34715  40.326  10.896  14.962
67933W        W34716   9.589  43.345  13.461
67934W        W34717  26.720  14.137  13.984
67935W        W34718  33.669  13.283  11.289
67936W        W34719  19.618  37.076  13.017
67937W        W34720  15.195  27.917   0.966
67938W        W34721  20.488  19.162  13.374
67939W        W34722  22.941  28.614  10.547
67940W        W34723  24.059  18.723  11.337
67941W        W34724  24.063  37.381  12.627
67942W        W34725  29.219  18.986   1.188
67943W        W34726  24.635  19.354  14.066
67944W        W34727  29.299  40.399   3.636
67945W        W34728  19.609  14.835   2.381
67946W        W34729  37.486  39.477  12.360
67947W        W34730  34.405  23.139   0.938
67948W        W34731   0.438  13.093  13.922
67949W        W34732   0.758   0.638   3.543
67950W        W34733  32.865  11.627   2.664
67951W        W34734  44.902  22.511  12.607
67952W        W34735  17.159  20.735  13.480
67953W        W34736   2.119  40.604  12.988
67954W        W34737  10.286  17.412  12.352
67955W        W34738  36.306  23.817   1.166
67956W        W34739  16.915  23.648  11.222
67957W        W34740  16.347  16.624   2.605
67958W        W34741  33.966  37.177   3.232
67959W        W34742   1.455  16.900   3.258
67960W        W34743  28.521  30.832  11.170
67961W        W34744  11.335  10.798   5.144
67962W        W34745   1.424  24.987   3.651
67963W        W34746  40.296   6.471  11.836
67964W        W34747  13.843  10.669  11.151
67965W        W34748  39.040   3.763   1.759
67966W        W34749  28.159   2.632  11.629
67967W        W34750   3.156  27.514  14.028
67968W        W34751  12.963  11.703   0.436
67969W        W34752  24.478  34.805   4.049
67970W        W34753  31.146  11.585  11.037
67971W        W34754  44.919  31.483   1.172
67972W        W34755   9.269   5.012   1.895
67973W        W34756  26.753  29.134   0.331
67974W        W34757  37.925  34.420   1.419
67975W        W34758  41.731   7.939  14.407
67976W        W34759   1.992  14.861   4.590
67977W        W34760  34.983  24.966  11.619
67978W        W34761  43.940  39.915  11.300
67979W        W34762  30.554  21.173   9.957
67980W        W34763  15.712  23.640  12.355
67981W        W34764  35.956  29.879   1.350
67982W        W34765  26.569  23.526  12.781
67983W        W34766  18.959  24.482  14.459
67984W        W34767  16.812  10.782   0.266
67985W        W34768  41.510  31.322   0.424
67986W        W34769  33.450   6.164   2.780
67987W        W34770  21.846  39.253   1.407
67988W        W34771  21.605  11.909  10.443
67989W        W34772   8.933  25.597  11.836
67990W        W34773   0.354  24.619   3.104
67991W        W34774  12.715  44.004   0.773
67992W        W34775   0.109   7.831  12.899
67993W        W34776  37.029  11.895   1.314
67994W        W34777  11.998   3.635  14.956
67995W        W34778   5.287  15.804  12.478
67996W        W34779  40.274   6.751   2.871
67997W        W34780  22.211  15.339   3.856
67998W        W34781  11.211   2.283  13.951
67999W        W34782  17.207  29.647  14.478
68000W        W34783  44.552  34.100  14.746
68001W        W34784  40.335  17.286   2.772
68002W        W34785   7.650  20.061  11.577
68003W        W34786  23.756  11.939   0.031
68004W        W34787  34.097   8.298   0.430
68005W        W34788  21.028  23.558   1.660
68006W        W34789  31.197  20.065  13.051
68007W        W34790  24.912  35.862  12.468
68008W        W34791  36.244   9.685   3.686
68009W        W34792  19.602  31.504   2.951
68010W        W34793  24.555  14.520  13.589
68011W        W34794   0.602  21.159   1.336
68012W        W34795  16.786  29.680   1.345
68013W        W34796  32.040  28.674  13.045
68014W        W34797   9.369  19.556  11.500
68015W        W34798  25.033  10.254   2.927
68016W        W34799  37.848  38.547   3.286
68017W        W34800  28.492  37.797  10.785
68018W        W34801   2.188  12.068  12.437
68019W        W34802  29.368   9.867  14.407
68020W        W34803   5.446   5.229  13.951
68021W        W34804  36.931  20.678   1.199
68022W        W34805  17.173  40.047   0.830
68023W        W34806  21.639  12.890   3.623
68024W        W34807  23.511   2.911  14.385
68025W        W34808  24.545  42.553  13.130
68026W        W34809  31.912  39.578  14.430
68027W        W34810  38.804   4.800   1.866
68028W        W34811  21.068  44.210  11.191
68029W        W34812  40.576  29.195  11.591
68030W        W34813  26.935   2.666   1.222
68031W        W34814  35.873  19.328   4.477
68032W        W34815  37.017  31.577   4.554
68033W        W34816  29.975  36.074   0.537
68034W        W34817  26.939  36.572  14.331
68035W        W34818  24.470  16.132  14.961
68036W        W34819  20.812   5.980   5.110
68037W        W34820  39.751  41.555   3.725
68038W        W34821  36.006  12.143   3.285
68039W        W34822  19.243  33.929   4.644
68040W        W34823  26.758   7.854   4.500
68041W        W34824   8.860  25.139  11.048
68042W        W34825  18.730  34.010   3.720
68043W        W34826   4.758  32.000  10.977
68044W        W34827  25.084  22.023  11.482
68045W        W34828  21.652  43.311  12.567
68046W        W34829  37.531  39.873  10.245
68047W        W34830  32.043   1.067  12.509
68048W        W34831   2.717   6.254   0.256
68049W        W34832  20.179  25.512   2.924
68050W        W34833  33.140  10.223  13.143
68051W        W34834  27.691  35.944   4.145
68052W        W34835  32.610   0.619   1.644
68053W        W34836  16.732  33.316  14.831
68054W        W34837  33.716  34.736   0.955
68055W        W34838  41.911   5.175  10.925
68056W        W34839  35.564  13.856  13.409
68057W        W34840  18.755  15.619   1.034
68058W        W34841   1.474  38.875   1.466
68059W        W34842  41.557  25.258   1.743
68060W        W34843  31.701   2.654   1.557
68061W        W34844  23.248  42.838  10.617
68062W        W34845  26.371  21.520  12.019
68063W        W34846  28.585   7.369   1.447
68064W        W34847  35.794   3.909   2.263
68065W        W34848   0.262   3.526  11.538
68066W        W34849  21.255  18.088   3.698
68067W        W34850  35.288  42.894  12.498
68068W        W34851   3.862  25.899  10.922
68069W        W34852  40.335   4.153  14.012
68070W        W34853  23.040  19.560   4.687
68071W        W34854  43.309  31.400  13.814
68072W        W34855  18.711  19.671  14.895
68073W        W34856  38.085  18.218  10.450
68074W        W34857  19.799  18.204  11.571
68075W        W34858  36.151  34.565  10.767
68076W        W34859  37.307  31.556   0.408
68077W        W34860  34.022  36.097  10.776
68078W        W34861  13.082   0.516   4.325
68079W        W34862  43.566  11.172  12.507
68080W        W34863  11.155  20.135  13.800
68081W        W34864  42.734  17.793  14.532
68082W        W34865  14.298  23.992  12.026
68083W        W34866  41.284  38.786  11.127
68084W        W34867  39.485   7.370   1.309
68085W        W34868  30.748  38.022   4.242
68086W        W34869  15.171   4.817  10.750
68087W        W34870   9.134  38.887  12.502
68088W        W34871  40.776  35.862  10.455
68089W        W34872  38.693   6.444  13.500
68090W        W34873  20.533   4.226   2.298
68091W        W34874  30.087  29.989  11.714
68092W        W34875  38.733  43.089  10.801
68093W        W34876  43.842  16.747   2.837
68094W        W34877   5.504  35.924   3.607
68095W        W34878   5.353   0.442   4.528
68096W        W34879  33.783   9.904   2.436
68097W        W34880  15.609  42.337   2.889
68098W        W34881  33.452  29.454  14.374
68099W        W34882  44.398   8.348   1.200
68100W        W34883  10.616  21.554  11.185
68101W        W34884  17.678  32.504  11.181
68102W        W34885  13.092  35.804   1.208
68103W        W34886  13.021  31.056  11.762
68104W        W34887   8.982  39.056   3.665
68105W        W34888  37.741   3.312  13.973
68106W        W34889  41.540  27.119   0.245
68107W        W34890  33.122  23.514   1.825
68108W        W34891  21.460  32.313  14.015
68109W        W34892  18.780  24.025  10.290
68110W        W34893  28.592  15.321  14.113
68111W        W34894  12.303  29.974   0.903
68112W        W34895  33.475  44.333   2.805
68113W        W34896  35.799  13.052  14.634
68114W        W34897  15.829  29.911   0.290
68115W        W34898  38.374  20.200   2.194
68116W        W34899  43.893  41.503  14.080
68117W        W34900  35.860   1.005   0.338
68118W        W34901  43.961  43.336   3.434
68119W        W34902  22.972  42.856  13.762
68120W        W34903  34.321  40.035  12.044
68121W        W34904  10.600  17.803  14.559
68122W        W34905  28.092  44.464  14.899
68123W        W34906  12.516  20.315  11.260
68124W        W34907  28.672   9.933  12.830
68125W        W34908  12.732  30.443  10.582
68126W        W34909  21.646   3.170   0.915
68127W        W34910  11.801  30.101   0.857
68128W        W34911   1.569  27.747   0.408
68129W        W34912  12.270  33.537  12.417
68130W        W34913  24.249   4.229   3.780
68131W        W34914  37.001  28.173   0.773
68132W        W34915   7.924   4.908  10.593
68133W        W34916  37.586   7.372  10.236
68134W        W34917  25.205  41.773   2.202
68135W        W34918  39.072  29.977   3.825
68136W        W34919   3.927  24.972  12.111
68137W        W34920  24.752  23.069   1.831
68138W        W34921  32.394  38.552  12.771
68139W        W34922  39.323  23.011   3.792
68140W        W34923  27.671  32.043  14.535
68141W        W34924   3.440  32.227  13.160
68142W        W34925  35.735  44.761   3.683
68143W        W34926  26.091  38.767   2.726
68144W        W34927  44.766  16.710  10.018
68145W        W34928  16.808   4.439   3.779
68146W        W34929  27.261  31.453   1.361
68147W        W34930  42.496  40.337   0.890
68148W        W34931  22.796  38.092   0.904
68149W        W34932  20.713  33.404   1.967
68150W        W34933  26.185  37.015   0.959
68151W        W34934  22.001   1.916   3.162
68152W        W34935  15.914  23.290   0.940
68153W        W34936   3.897  16.265  10.909
68154W        W34937  31.889  10.577  13.443
68155W        W34938  27.953  35.946  14.884
68156W        W34939   3.032  31.476   4.470
68157W        W34940  33.177  38.991  11.570
68158W        W34941   6.983  43.060  11.045
68159W        W34942  24.762  15.065   2.698
68160W        W34943  25.578  44.025   3.077
68161W        W34944   0.720   6.746  14.088
68162W        W34945  21.702  40.538  11.076
68163W        W34946   8.240  26.279   1.889
68164W        W34947  22.679   8.894  10.688
68165W        W34948  39.263   5.972   0.422
68166W        W34949  23.187  17.055   0.807
68167W        W34950  38.044  34.483  10.900
68168W        W34951  38.588  24.594  10.544
68169W        W34952  35.310  37.135   1.107
68170W        W34953   0.852   5.254   0.385
68171W        W34954  34.892  27.977  13.992
68172W        W34955   9.306  17.518  13.999
68173W        W34956  24.783  39.364   2.334
68174W        W34957  21.759  38.624  12.445
68175W        W34958  34.521  33.086  11.565
68176W        W34959   4.007  23.113  11.075
68177W        W34960  14.901  21.998  12.932
68178W        W34961  16.027  18.104  12.412
68179W        W34962  11.296  16.974  12.956
68180W        W34963  10.306   2.905  14.973
68181W        W34964  16.628  11.716   1.262
68182W        W34965   8.204  19.970   2.373
68183W        W34966  36.645  15.773   2.779
68184W        W34967  33.754  17.323  10.169
68185W        W34968  34.864  14.146   1.533
68186W        W34969  14.806   0.034   2.798
68187W        W34970   9.482   0.350  12.121
68188W        W34971  27.679  42.099  12.368
68189W        W34972  29.717   9.279   4.144
68190W        W34973  12.429  23.056  11.394
68191W        W34974  24.655  42.125  11.491
68192W        W34975  22.499  13.869  11.154
68193W        W34976  19.525   5.247   1.631
68194W        W34977  18.075  26.508  11.915
68195W        W34978   1.715  30.822   1.983
68196W        W34979  30.036  31.173   3.655
68197W        W34980   9.939   1.318   1.428
68198W        W34981  43.767   6.032   0.350
68199W        W34982  26.170   7.635   1.390
68200W        W34983  40.779  15.520  11.128
68201W        W34984  10.916  19.563   0.046
68202W        W34985  19.878  26.646  13.956
68203W        W34986  21.195   1.811   2.271
68204W        W34987  26.141  12.876   0.755
68205W        W34988   0.718   0.752  11.167
68206W        W34989  42.218  23.207  13.079
68207W        W34990  39.980  23.261   1.406
68208W        W34991  28.407  11.435   0.954
68209W        W34992  33.080  25.515  13.356
68210W        W34993  25.027  28.049   1.952
68211W        W34994  21.817   7.777   3.757
68212W        W34995  26.598  27.192   1.767
68213W        W34996  19.121  37.117   0.423
68214W        W34997  35.915  21.627   2.201
68215W        W34998  14.381  40.546   1.140
68216W        W34999   1.057   6.517   1.766
68217W        W35000  36.094  13.284   0.925
68218W        W35001  19.561  43.353  13.415
68219W        W35002  31.933  19.539   3.802
68220W        W35003  39.086   6.762  14.471
68221W        W35004  27.678  11.579  14.950
68222W        W35005   0.390  23.935  14.768
68223W        W35006  16.637   0.764  14.937
68224W        W35007  25.400   6.317  12.186
68225W        W35008  21.150  28.128  10.712
68226W        W35009  19.894  39.902  11.122
68227W        W35010  37.770  23.760   3.930
68228W        W35011  10.714  22.285  14.586
68229W        W35012  20.045  44.396  13.265
68230W        W35013  33.663  28.489  14.548
68231W        W35014  42.879   5.864  11.976
68232W        W35015  19.699  31.681  13.877
68233W        W35016  20.825   5.353   1.133
68234W        W35017  40.069  13.146  10.727
68235W        W35018  29.433  26.132   3.335
68236W        W35019  39.595  37.340  13.537
68237W        W35020  40.002  17.637   1.144
68238W        W35021  29.554  26.830   1.369
68239W        W35022  33.674   4.923   5.518
68240W        W35023  27.008  35.385  12.902
68241W        W35024  42.765  20.441   1.833
68242W        W35025  12.855   2.432   4.510
68243W        W35026   5.254  15.159   2.159
68244W        W35027  16.234   5.657   1.336
68245W        W35028   4.444  36.926  12.521
68246W        W35029  13.196  18.797   2.786
68247W        W35030   3.821  24.753   1.214
68248W        W35031  26.044  34.927  13.859
68249W        W35032   9.541  31.531  10.719
68250W        W35033  25.408   3.397  11.214
68251W        W35034  28.037   8.878  11.098
68252W        W35035  23.955  37.725  13.030
68253W        W35036   7.426  13.236  10.704
68254W        W35037  44.646  39.000  14.889
68255W        W35038  43.424  44.676  14.215
68256W        W35039  14.941  42.529  10.726
68257W        W35040  31.526  29.178  14.924
68258W        W35041  13.446  20.469   0.351
68259W        W35042  15.830  29.774  12.073
68260W        W35043   2.756  17.311   0.179
68261W        W35044  13.049  41.923  12.823
68262W        W35045  36.191  21.918  13.199
68263W        W35046   7.873  33.592   3.734
68264W        W35047  23.156   3.151   0.845
68265W        W35048  43.839  10.402   3.708
68266W        W35049  15.875  17.454  10.696
68267W        W35050   0.424  31.372  13.811
68268W        W35051   3.339  22.066  11.505
68269W        W35052  10.228   8.801   0.972
68270W        W35053  37.789  14.425   1.893
68271W        W35054  27.965  26.199  11.132
68272W        W35055  36.898  17.296  11.106
68273W        W35056  41.942  11.736   3.094
68274W        W35057  22.415  29.170   0.498
68275W        W35058  40.445  14.383   1.631
68276W        W35059  17.053  43.458  14.792
68277W        W35060  38.965  11.716   4.158
68278W        W35061   1.558  18.032  12.993
68279W        W35062  39.457   7.289   3.284
68280W        W35063  29.482   3.384   1.937
68281W        W35064  14.941  13.201  12.915
68282W        W35065  10.102  11.890  10.985
68283W        W35066  33.813  21.673   3.741
68284W        W35067  23.642   3.500  10.303
68285W        W35068  28.639   7.855   2.900
68286W        W35069  20.739   0.780  10.778
68287W        W35070   2.206  33.519  14.216
68288W        W35071  31.506  36.350   3.617
68289W        W35072  28.730  18.781   4.070
68290W        W35073  27.540   4.346  11.921
68291W        W35074  10.562  20.258   4.164
68292W        W35075   1.473  16.775  11.510
68293W        W35076   9.570   6.128  11.143
68294W        W35077  26.206   6.863   0.380
68295W        W35078   3.730  17.591  14.898
68296W        W35079  19.236  16.085  13.713
68297W        W35080  16.834  33.462  12.054
68298W        W35081  17.180  43.898   0.020
68299W        W35082  13.486  17.338  12.076
68300W        W35083   5.785  32.957  11.455
68301W        W35084  24.150  22.749   3.640
68302W        W35085  30.915  38.931  11.933
68303W        W35086  15.374  19.942   2.854
68304W        W35087  12.810  16.840  13.838
68305W        W35088  43.964  36.119   2.719
68306W        W35089  38.022  41.871   1.351
68307W        W35090  28.161  31.648   1.635
68308W        W35091   7.643   5.188  10.248
68309W        W35092  41.759  18.280   2.495
68310W        W35093  35.131  23.278   3.548
68311W        W35094  33.887  23.237   1.081
68312W        W35095   7.168   5.019  12.965
68313W        W35096  31.585   6.651   5.156
68314W        W35097  27.428  38.576  11.596
68315W        W35098  44.574  15.699   0.259
68316W        W35099  21.231  15.659  12.476
68317W        W35100   9.797   6.131  11.591
68318W        W35101  10.566  43.067  11.677
68319W        W35102  43.350   4.825   3.186
68320W        W35103  10.563   2.354  11.462
68321W        W35104  16.727  26.089  14.799
68322W        W35105  34.598  30.529   4.953
68323W        W35106  23.688  15.428   2.802
68324W        W35107   3.188  17.606   0.840
68325W        W35108  34.427  13.823   0.626
68326W        W35109  22.516  28.177   0.711
68327W        W35110  24.429  37.126  13.442
68328W        W35111  21.483  29.383   1.391
68329W        W35112  33.702  18.117  11.645
68330W        W35113   0.072  34.586  11.526
68331W        W35114  11.764  25.394   4.106
68332W        W35115   1.364  31.640   2.805
68333W        W35116  10.832   9.977   3.011
68334W        W35117  16.704  43.878   4.663
68335W        W35118  34.969   2.940   4.870
68336W        W35119  30.595   7.324   2.655
68337W        W35120   2.363   5.433  13.901
68338W        W35121  18.808   7.808   2.664
68339W        W35122  42.996   1.738  10.645
68340W        W35123  20.304  34.353  10.733
68341W        W35124   7.388  12.594   0.461
68342W        W35125  38.198  13.551  11.569
68343W        W35126  39.939  10.314  12.304
68344W        W35127  24.615  24.888   3.127
68345W        W35128  33.801   5.268   5.136
68346W        W35129  44.278  16.706   1.400
68347W        W35130   1.957  34.067  12.402
68348W        W35131   5.300  11.972   4.791
68349W        W35132  24.506   2.400  12.917
68350W        W35133  22.459  40.769  14.064
68351W        W35134  10.837  25.028   1.788
68352W        W35135  31.652   8.144  13.564
68353W        W35136  43.917  17.209   2.632
68354W        W35137  40.024  23.971  13.859
68355W        W35138  17.184  27.766   5.028
68356W        W35139   0.951   9.560  14.866
68357W        W35140   3.371  38.846   3.685
68358W        W35141  44.529  11.876  10.247
68359W        W35142   7.636  24.668  13.843
68360W        W35143  20.540   2.736   4.969
68361W        W35144  41.228  11.834  14.217
68362W        W35145  41.873  22.656   0.966
68363W        W35146   3.860  43.837   4.066
68364W        W35147  42.273  30.093  10.487
68365W        W35148  37.962   0.777  14.394
68366W        W35149  22.785   5.041   4.835
68367W        W35150  37.632  34.204   2.297
68368W        W35151  17.548  22.122   3.357
68369W        W35152  27.129  13.114   0.751
68370W        W35153  43.513   9.430  13.499
68371W        W35154  23.609  19.077   1.736
68372W        W35155  12.347  43.000  12.236
68373W        W35156  16.221  30.627  10.734
68374W        W35157  16.759  36.606   2.049
68375W        W35158  42.274   2.984   2.826
68376W        W35159  36.293  41.161  11.222
68377W        W35160   9.026  35.707   3.340
68378W        W35161  40.455  34.607   0.717
68379W        W35162  30.040  41.308   3.283
68380W        W35163  16.494   6.857   0.966
68381W        W35164  30.125   0.099   1.896
68382W        W35165   1.694   1.496   0.376
68383W        W35166  10.239  25.145   1.428
68384W        W35167  29.443  29.390  11.612
68385W        W35168  16.751   0.994  11.211
68386W        W35169  17.234  32.879   4.727
68387W        W35170  24.963  19.180  13.324
68388W        W35171   2.308  26.530   2.444
68389W        W35172  11.283  24.100  13.101
68390W        W35173  42.490  14.506   1.714
68391W        W35174  15.998  24.551   0.257
68392W        W35175  28.676   4.011   0.926
68393W        W35176  33.475  35.347  13.427
68394W        W35177   3.558  24.956   4.032
68395W        W35178  17.290  26.546   3.653
68396W        W35179   1.958  43.461  12.979
68397W        W35180  33.124   6.863   3.650
68398W        W35181  13.614   0.394  12.593
68399W        W35182  24.056  43.377   1.789
68400W        W35183  34.415  42.369   0.259
68401W        W35184  43.238  40.802  12.010
68402W        W35185   9.904  33.047  13.931
68403W        W35186  43.764   7.469  11.641
68404W        W35187  24.453  12.255   3.857
68405W        W35188  30.910  27.648  12.332
68406W        W35189  37.557   0.748   3.728
68407W        W35190  19.229  42.542  10.548
68408W        W35191  11.368  23.501  11.372
68409W        W35192  22.615   8.402  12.063
68410W        W35193  25.148  37.613  11.202
68411W        W35194  13.563   9.495  14.529
68412W        W35195   8.232   5.651   3.792
68413W        W35196  12.739  25.466   4.818
68414W        W35197  17.116   5.045   4.487
68415W        W35198  10.023  18.570  11.164
68416W        W35199  32.252  23.674   3.141
68417W        W35200   9.213  29.513  11.064
68418W        W35201  42.482  16.105   5.300
68419W        W35202   9.980  28.066  12.135
68420W        W35203  36.165  28.100   2.389
68421W        W35204   7.707  15.831   0.901
68422W        W35205  26.369  36.007  14.733
68423W        W35206  14.189  29.477   3.558
68424W        W35207  44.478  43.147   3.319
68425W        W35208  21.482  26.251  14.722
68426W        W35209  44.518  18.141   2.754
68427W        W35210   6.246  44.437   0.797
68428W        W35211  26.693  16.533  12.918
68429W        W35212  38.368  13.848   3.100
68430W        W35213   4.670  30.693  14.404
68431W        W35214  35.629  19.193   0.254
68432W        W35215  26.455  18.737   3.742
68433W        W35216  29.996  38.142   4.638
68434W        W35217  29.452  32.738  14.735
68435W        W35218  18.773  33.040   3.283
68436W        W35219  38.980  33.739   1.867
68437W        W35220  23.681  31.416   0.419
68438W        W35221  39.037  35.949   1.457
68439W        W35222  40.743  39.869   4.570
68440W        W35223  20.555   5.310  11.405
68441W        W35224  26.743   2.774   2.277
68442W        W35225  32.869   6.552  11.495
68443W        W35226  11.612  40.729   4.903
68444W        W35227  23.168  42.379  12.605
68445W        W35228  22.845  36.100  11.631
68446W        W35229   2.181   2.974  13.932
68447W        W35230  32.533  16.429  10.783
68448W        W35231   5.942  18.749  14.533
68449W        W35232  15.641  44.601  11.100
68450W        W35233  43.231  22.220   4.081
68451W        W35234  37.884  29.688  11.976
68452W        W35235  30.284  26.727   3.520
68453W        W35236  29.968  37.728  11.199
68454W        W35237  24.896  32.177  10.659
68455W        W35238  24.131  38.908  12.540
68456W        W35239  14.117  22.161   1.941
68457W        W35240   6.833   7.355   4.309
68458W        W35241  11.682  32.423  12.220
68459W        W35242  42.950  39.820   2.231
68460W        W35243  21.032  36.587  10.678
68461W        W35244  33.795   2.858  10.949
68462W        W35245   6.915  36.133   3.723
68463W        W35246  27.885  32.533  10.695
68464W        W35247  17.530  15.448   1.570
68465W        W35248  28.852  15.864   0.859
68466W        W35249  32.358  36.466   3.164
68467W        W35250  12.850   1.389   2.655
68468W        W35251  35.401   9.359  12.993
68469W        W35252  44.437  42.595   2.314
68470W        W35253  20.889  28.864   1.759
68471W        W35254   9.363  32.549  14.253
68472W        W35255  16.788  20.042  13.505
68473W        W35256  33.164  38.632  11.159
68474W        W35257  30.175  15.978   2.222
68475W        W35258  22.015   9.153  11.202
68476W        W35259  16.723  38.471  12.151
68477W        W35260  10.036  37.304  11.954
68478W        W35261  11.900  40.548   1.250
68479W        W35262  43.217   4.572   3.726
68480W        W35263  20.816  23.165   1.955
68481W        W35264  32.707  35.729  10.618
68482W        W35265  27.631  32.074   2.189
68483W        W35266   4.445  30.273  13.862
68484W        W35267  34.386   4.434  10.752
68485W        W35268   1.206  14.821   0.488
68486W        W35269   3.003  31.434  14.636
68487W        W35270  32.680  40.496  11.201
68488W        W35271  44.915   3.511   4.640
68489W        W35272  44.026   3.368  10.888
68490W        W35273  17.430   9.047  12.344
68491W        W35274  39.509  38.945  11.628
68492W        W35275  24.506  24.959  12.492
68493W        W35276  23.182  37.721  14.231
68494W        W35277  13.352  15.638   1.505
68495W        W35278  19.438  30.130   3.697
68496W        W35279  23.191  37.354   4.638
68497W        W35280  25.179  36.526  14.727
68498W        W35281   9.995  33.968   0.402
68499W        W35282  39.112  31.062   0.777
68500W        W35283  10.525   6.324  11.078
68501W        W35284   3.453   0.338   1.717
68502W        W35285  41.336   3.792   1.491
68503W        W35286  44.612   7.864  12.815
68504W        W35287  24.282  40.487   0.526
68505W        W35288  43.367  34.002   0.339
68506W        W35289  31.246  42.758  10.343
68507W        W35290  30.133  43.108  12.818
68508W        W35291   3.335  11.255  11.798
68509W        W35292  39.180  31.195   3.196
68510W        W35293  11.090   5.244  13.296
68511W        W35294  32.454   7.404  12.072
68512W        W35295  26.038  43.337   4.480
68513W        W35296  41.912  19.171  14.394
68514W        W35297  31.842  32.984   2.764
68515W        W35298   7.128   1.284   1.031
68516W        W35299  38.836  18.656  11.064
68517W        W35300  29.542  35.295   1.452
68518W        W35301   0.518  22.490  11.404
68519W        W35302  42.092  26.594   0.699
68520W        W35303  35.411   9.032   5.417
68521W        W35304   7.146  40.483  11.478
68522W        W35305  12.057  17.159  11.847
68523W        W35306  36.532   7.676   2.251
68524W        W35307   0.800  42.514   1.947
68525W        W35308   9.632  27.688   4.398
68526W        W35309  35.773  11.804   0.844
68527W        W35310  23.022  32.843  13.358
68528W        W35311   6.683  34.378   4.099
68529W        W35312  34.180  34.837  12.026
68530W        W35313   3.307   5.850  13.704
68531W        W35314  12.205  25.587   0.975
68532W        W35315  40.341   8.597   2.203
68533W        W35316  18.282   8.199  12.785
68534W        W35317  41.305  22.550   2.096
68535W        W35318  20.840   9.231   1.804
68536W        W35319  32.753  33.448   1.931
68537W        W35320  34.008  33.145   4.661
68538W        W35321  35.958  24.537   2.632
68539W        W35322   5.981   9.339   0.265
68540W        W35323  16.878  34.976  11.254
68541W        W35324  30.952   5.813  10.574
68542W        W35325  40.008  19.235  14.325
68543W        W35326  35.175  21.615   0.241
68544W        W35327  36.946  20.064   0.406
68545W        W35328  29.437  21.278   3.388
68546W        W35329  29.504   8.667   2.139
68547W        W35330   0.648  21.638   3.601
68548W        W35331  29.682  43.843   0.207
68549W        W35332  19.580  20.833  14.891
68550W        W35333  19.283  41.260   1.462
68551W        W35334  36.436  38.927  11.153
68552W        W35335  41.545  22.434   2.767
68553W        W35336   5.648  11.866   0.465
68554W        W35337  11.334   5.340   4.037
68555W        W35338  12.689  17.612   2.819
68556W        W35339  32.923  29.588  10.706
68557W        W35340  27.611  39.130   0.867
68558W        W35341  36.772  27.433   2.573
68559W        W35342  17.840  10.854   3.563
68560W        W35343  31.494  38.122  11.048
68561W        W35344  43.791   8.877  11.634
68562W        W35345   1.025  19.138   3.840
68563W        W35346   3.687  38.642  12.689
68564W        W35347   5.809  29.041   4.074
68565W        W35348  15.395  34.974  11.626
68566W        W35349  28.918  40.865  10.532
68567W        W35350  14.187  40.946   0.874
68568W        W35351  40.605  40.520   0.955
68569W        W35352   5.706  44.039  14.682
68570W        W35353  17.025  34.562  13.786
68571W        W35354   0.830  36.027  10.678
68572W        W35355   6.876  37.657  12.560
68573W        W35356  16.213  32.607   0.426
68574W        W35357  14.069   8.970  13.241
68575W        W35358  36.802  38.828   4.188
68576W        W35359  17.586  23.769  12.469
68577W        W35360   3.234  34.479  11.838
68578W        W35361  20.543  30.670  14.079
68579W        W35362   2.199  40.408  12.512
68580W        W35363  18.771  22.125  10.387
68581W        W35364  28.197   3.780   3.677
68582W        W35365  36.470   6.816   1.790
68583W        W35366   5.421   1.508  10.784
68584W        W35367  20.549  10.394   0.510
68585W        W35368  26.102   8.705   3.130
68586W        W35369  41.455  28.509  13.604
68587W        W35370  17.728  34.629   4.359
68588W        W35371  44.812   4.247   4.538
68589W        W35372  28.901  41.371   3.859
68590W        W35373   6.645  21.665   4.358
68591W        W35374   2.391  25.134  14.452
68592W        W35375   1.180  26.653  14.811
68593W        W35376  26.766  40.897   3.701
68594W        W35377  17.069  11.502  12.551
68595W        W35378  30.417   3.237  10.147
68596W        W35379  11.739   0.082   3.294
68597W        W35380   0.957  16.159   4.400
68598W        W35381  28.444  33.580   0.675
68599W        W35382   5.381  33.966  12.162
68600W        W35383  25.611  37.826   4.659
68601W        W35384  36.794  18.522   2.025
68602W        W35385  31.394  25.254  10.351
68603W        W35386  27.227   1.786  14.812
68604W        W35387  31.049   3.276   1.966
68605W        W35388   4.880  17.523   1.439
68606W        W35389   2.417  34.441  13.690
68607W        W35390  13.767  16.355  12.909
68608W        W35391  33.499  24.556   2.213
68609W        W35392  18.390  20.993   4.046
68610W        W35393  38.972   8.640  13.381
68611W        W35394  14.940  35.165   3.351
68612W        W35395  42.741  13.799   2.643
68613W        W35396  35.140  21.571  13.816
68614W        W35397  14.534  34.570  12.531
68615W        W35398  15.038  13.167  11.841
68616W        W35399  14.374   8.663  11.610
68617W        W35400  39.929  32.717  14.724
68618W        W35401  13.833  13.841  11.456
68619W        W35402  38.287  13.870  14.868
68620W        W35403  18.143   7.245  12.567
68621W        W35404  29.577  20.139  12.149
68622W        W35405  42.224  21.359  11.988
68623W        W35406  27.989  34.921  13.375
68624W        W35407  22.567  40.372   4.487
68625W        W35408  32.023  22.386  13.360
68626W        W35409  21.737   4.264  14.537
68627W        W35410  37.084  26.954   1.230
68628W        W35411  39.422  26.565   1.796
68629W        W35412   6.021  16.172   4.544
68630W        W35413  13.332  28.527  10.783
68631W        W35414  14.760  23.851  10.033
68632W        W35415  41.712  39.376  14.851
68633W        W35416  24.816   5.712   3.255
68634W        W35417  12.068  40.571  11.578
68635W        W35418  44.772  23.537  12.638
68636W        W35419  35.949   1.590  14.813
68637W        W35420  38.733  42.297  12.780
68638W        W35421   8.238  26.558   1.446
68639W        W35422  43.908   3.525   4.282
68640W        W35423  13.258  32.485  10.794
68641W        W35424  38.084  16.785   0.692
68642W        W35425  18.279  14.825  10.594
68643W        W35426  20.805  10.945   2.984
68644W        W35427  31.966  34.193  12.102
68645W        W35428   1.384  21.558  12.133
68646W        W35429  24.681  30.844  10.850
68647W        W35430  25.644   1.851  12.366
68648W        W35431   9.503  27.902   0.392
68649W        W35432  18.750  12.038  12.556
68650W        W35433  25.717  27.587   4.269
68651W        W35434  13.320  20.974   3.172
68652W        W35435  31.690  19.636   5.022
68653W        W35436  10.847   9.629   0.325
68654W        W35437  36.831  34.823  14.427
68655W        W35438  36.525  12.107   4.051
68656W        W35439  34.289  36.585   0.980
68657W        W35440  29.702   8.131  11.579
68658W        W35441  43.868  40.283   2.087
68659W        W35442  18.542  25.944  12.486
68660W        W35443  34.483  43.718   3.771
68661W        W35444  38.573  11.517   3.889
68662W        W35445  38.806   2.120   2.802
68663W        W35446  14.786  42.897   0.723
68664W        W35447  34.369  39.116  12.455
68665W        W35448  21.290  39.858   3.683
68666W        W35449   2.534  23.707  10.056
68667W        W35450  13.170  44.848   0.069
68668W        W35451  22.133  18.141  14.535
68669W        W35452  27.668  29.030   1.465
68670W        W35453   5.513  38.083  10.811
68671W        W35454  42.722  19.776   2.758
68672W        W35455  18.847  20.813   5.078
68673W        W35456   4.909  44.004   3.156
68674W        W35457   2.696  26.198  10.523
68675W        W35458   8.450  34.843   2.550
68676W        W35459  35.002  16.803  13.858
68677W        W35460  23.602  26.613   2.449
68678W        W35461  20.934   1.810  11.183
68679W        W35462  43.358  38.040   3.676
68680W        W35463  22.236  33.159   3.629
68681W        W35464  16.584   4.381  11.601
68682W        W35465  37.314   2.931   4.360
68683W        W35466  28.408  15.283   2.846
68684W        W35467  32.374   8.357  11.984
68685W        W35468  40.641  30.029  14.795
68686W        W35469   7.336   8.938   2.903
68687W        W35470  11.646  30.047  12.388
68688W        W35471  19.496  41.856  11.210
68689W        W35472  33.372  12.520  10.293
68690W        W35473  20.241   4.523   0.388
68691W        W35474   1.799  27.379   2.363
68692W        W35475  23.016  13.791  12.401
68693W        W35476  30.473  32.651   2.843
68694W        W35477  24.644  17.512   3.316
68695W        W35478   5.487   0.732  14.591
68696W        W35479  40.082  26.452  11.153
68697W        W35480  27.107  15.759  13.933
68698W        W35481   8.153  37.362   2.205
68699W        W35482  35.799  24.430  12.194
68700W        W35483  40.384  40.473   9.421
68701W        W35484  14.790   1.480  12.990
68702W        W35485  44.563   8.725  13.039
68703W        W35486  12.238  14.264   1.614
68704W        W35487  31.833  36.439  13.922
68705W        W35488   6.772   5.339  13.519
68706W        W35489  14.211   3.726   5.168
68707W        W35490  10.080   6.246   2.890
68708W        W35491  31.588  30.052  11.901
68709W        W35492  34.972   9.464  11.047
68710W        W35493  23.280   8.588   3.321
68711W        W35494   8.192   1.997   0.257
68712W        W35495  17.958  25.782   0.468
68713W        W35496  22.178   8.246   2.179
68714W        W35497  23.078  23.674  13.825
68715W        W35498   6.735  12.249  14.281
68716W        W35499  15.719  43.349  14.972
68717W        W35500   7.735  17.311  12.892
68718W        W35501  31.561  36.835  13.666
68719W        W35502   3.616  28.730   3.607
68720W        W35503  13.053  37.344  12.587
68721W        W35504  26.935  43.716   2.709
68722W        W35505  20.114   4.170  13.467
68723W        W35506  22.585  31.920  10.613
68724W        W35507  28.991  18.070   3.309
68725W        W35508  13.638  25.687   4.274
68726W        W35509  21.171  26.726  10.703
68727W        W35510   4.720   1.814   3.122
68728W        W35511  30.720   9.974   1.208
68729W        W35512  25.525  40.086   1.453
68730W        W35513  37.413  11.772  11.472
68731W        W35514  29.020  42.823  14.991
68732W        W35515  27.678  13.866   2.774
68733W        W35516  38.631  24.949   1.838
68734W        W35517  37.231   9.684  10.317
68735W        W35518  30.387  34.834  14.161
68736W        W35519   1.751  39.608  13.665
68737W        W35520  17.414  11.521   3.014
68738W        W35521  29.458  10.649   4.614
68739W        W35522  13.888  19.976  12.395
68740W        W35523   5.523  13.037  10.920
68741W        W35524  22.499   9.169  11.469
68742W        W35525  11.697  13.905   9.909
68743W        W35526   3.076  23.471  10.723
68744W        W35527  23.697  36.813   1.106
68745W        W35528  16.594   0.569  11.480
68746W        W35529  24.220  28.545  12.092
68747W        W35530   1.916  16.162   1.516
68748W        W35531  40.932  30.030  10.725
68749W        W35532  39.297  38.819   3.686
68750W        W35533  24.677  43.359   0.782
68751W        W35534  39.379  16.732   1.909
68752W        W35535  16.229   7.358  14.860
68753W        W35536  21.151  30.688   3.062
68754W        W35537  29.455  11.069   3.341
68755W        W35538  22.121   6.645  10.976
68756W        W35539  27.843   2.301  10.462
68757W        W35540  13.652  19.121   1.680
68758W        W35541  33.400   5.383  14.063
68759W        W35542  26.516  20.095  11.493
68760W        W35543  29.965  30.167   3.865
68761W        W35544  29.427   6.414   2.884
68762W        W35545  23.762  17.304  10.612
68763W        W35546  24.605   9.957   0.404
68764W        W35547  41.795   0.823   3.021
68765W        W35548  22.275  30.652   0.435
68766W        W35549  12.847  24.732   3.807
68767W        W35550   4.004  17.051   0.561
68768W        W35551  23.856   1.038  12.648
68769W        W35552  16.022  38.891   4.193
68770W        W35553  37.105  14.341   2.502
68771W        W35554  44.220   0.155   4.374
68772W        W35555  36.816  40.018   2.603
68773W        W35556   2.920   1.478  13.028
68774W        W35557  11.861  15.803   2.867
68775W        W35558  11.235   8.180   1.399
68776W        W35559  12.987   0.989   1.502
68777W        W35560   5.799  27.084   1.069
68778W        W35561  33.964   1.045  11.205
68779W        W35562   1.865  44.662  12.641
68780W        W35563   6.760  38.648  12.637
68781W        W35564   5.982  15.435   1.195
68782W        W35565  22.833   2.394   3.210
68783W        W35566  18.819   7.609  13.448
68784W        W35567   9.283  42.225   1.432
68785W        W35568  34.547  21.520  13.763
68786W        W35569  24.548  32.541   0.737
68787W        W35570  32.382  13.636   0.350
68788W        W35571   8.193  27.932  13.766
68789W        W35572  35.299  15.667   4.610
68790W        W35573  19.416  38.635  14.481
68791W        W35574  14.110  17.149  10.641
68792W        W35575  38.889  39.073  11.190
68793W        W35576   8.981  13.816  14.098
68794W        W35577  26.384  17.022   4.353
68795W        W35578  32.021  29.954  14.974
68796W        W35579  28.436  23.081  11.549
68797W        W35580  17.848  27.853  12.597
68798W        W35581  19.232   4.273   0.639
68799W        W35582  27.113  24.949   4.132
68800W        W35583  41.771   2.007  14.754
68801W        W35584  21.006   8.940   0.839
68802W        W35585  18.152  15.160   0.778
68803W        W35586  11.617  37.996  12.789
68804W        W35587  38.885  37.093  12.521
68805W        W35588  41.476  33.872   3.934
68806W        W35589  43.074  38.045  11.678
68807W        W35590  43.369  31.134  11.728
68808W        W35591  12.744  17.037  12.628
68809W        W35592   8.470  34.004   1.782
68810W        W35593  24.266  44.378  14.811
68811W        W35594  13.314  22.173  12.581
68812W        W35595  44.485  12.085   3.309
68813W        W35596   7.410  23.175  13.494
68814W        W35597  14.191  13.550  13.305
68815W        W35598   6.921   5.392   4.093
68816W        W35599  23.172  24.755   2.751
68817W        W35600  28.524  20.099   4.363
68818W        W35601  27.965  17.836   0.407
68819W        W35602  43.004  17.679   4.588
68820W        W35603  13.640  39.597   1.251
68821W        W35604  31.811  32.198   2.874
68822W        W35605  29.516  33.214  14.910
68823W        W35606  41.393   5.251  12.691
68824W        W35607   5.389  39.457  14.878
68825W        W35608  16.211  18.800   4.778
68826W        W35609   3.185  21.008   3.268
68827W        W35610  31.440  28.456   2.389
68828W        W35611  20.501  14.728   5.074
68829W        W35612  16.961  36.790   4.547
68830W        W35613  23.045  15.999  14.603
68831W        W35614  16.781  23.079   1.630
68832W        W35615  24.138  38.145  11.109
68833W        W35616  21.232  40.609  14.742
68834W        W35617  24.167  39.791   2.829
68835W        W35618   5.456  38.503  11.103
68836W        W35619   5.843   2.774   2.556
68837W        W35620  15.369  36.782  13.334
68838W        W35621  32.995  22.793   5.346
68839W        W35622  40.486  40.957  12.417
68840W        W35623  41.967  12.221   9.842
68841W        W35624  35.852  39.404   3.710
68842W        W35625  11.584  38.353  11.040
68843W        W35626   4.704  11.338  12.285
68844W        W35627  13.681  19.736  11.138
68845W        W35628  30.227  30.511   4.233
68846W        W35629  19.540   7.829  14.430
68847W        W35630  12.670  41.475   4.188
68848W        W35631   6.891   7.905   4.621
68849W        W35632  14.913  36.765  14.927
68850W        W35633  39.991  16.148  12.066
68851W        W35634  30.881  10.247  10.650
68852W        W35635  28.986  42.546  12.773
68853W        W35636  42.010  24.277   4.181
68854W        W35637  21.473  30.574   3.442
68855W        W35638  16.112  14.488   0.282
68856W        W35639  32.569  32.587  14.011
68857W        W35640  13.499  19.076  10.682
68858W        W35641  42.767   8.426   1.346
68859W        W35642  34.395   0.226   2.354
68860W        W35643  20.801  21.982  12.019
68861W        W35644   4.853  20.650   4.280
68862W        W35645  43.544   1.419   0.054
68863W        W35646  40.476  14.260  13.864
68864W        W35647   9.617  35.356   4.716
68865W        W35648  31.029   7.064   2.414
68866W        W35649  24.326   3.258  12.482
68867W        W35650  13.104   9.907   2.750
68868W        W35651  12.757   4.437  12.770
68869W        W35652  28.440   6.728  13.873
68870W        W35653  23.320   9.674  12.958
68871W        W35654  11.830  39.329   4.329
68872W        W35655   0.424   3.237  12.550
68873W        W35656  12.276   4.230  12.896
68874W        W35657  34.520  40.845   3.168
68875W        W35658   2.751  43.564   1.840
68876W        W35659  18.473  40.139   0.707
68877W        W35660  34.612  14.201  14.791
68878W        W35661   3.442   4.972   0.897
68879W        W35662  24.173  37.991   3.769
68880W        W35663  23.288   0.311  10.958
68881W        W35664  32.341   6.322   0.849
68882W        W35665   5.922  24.696  12.078
68883W        W35666  44.600  37.501   2.545
68884W        W35667  13.840  14.714  14.267
68885W        W35668  43.097  35.219   3.667
68886W        W35669  30.018  43.856  13.890
68887W        W35670  12.110   4.432  13.359
68888W        W35671  41.774  36.103   5.114
68889W        W35672  32.169   6.193   1.322
68890W        W35673   1.839  35.078  11.196
68891W        W35674  16.731  44.933  13.289
68892W        W35675  24.219   4.830  13.518
68893W        W35676  31.192   3.172  11.155
68894W        W35677  40.308   9.466  10.297
68895W        W35678  25.920   1.512  12.052
68896W        W35679   8.585  18.524   2.369
68897W        W35680   7.875  32.621  13.601
68898W        W35681  44.575  25.155   5.094
68899W        W35682  17.513  43.222  12.700
68900W        W35683  32.190  14.047   3.662
68901W        W35684  27.480  19.262  12.126
68902W        W35685   0.984  22.388  14.946
68903W        W35686  13.319   0.917   4.633
68904W        W35687  33.013  43.822  13.943
68905W        W35688  18.765  29.470  10.637
68906W        W35689  37.278  39.142   0.962
68907W        W35690  33.600  23.724   1.858
68908W        W35691  10.612   9.483  11.533
68909W        W35692  14.295  29.030   4.178
68910W        W35693  22.486  28.546  10.789
68911W        W35694  15.312  25.817  10.734
68912W        W35695  27.072   5.170  12.513
68913W        W35696  15.142  17.511   1.032
68914W        W35697  36.022  38.769  14.791
68915W        W35698  31.115  15.631   2.477
68916W        W35699  32.166   5.458   4.473
68917W        W35700  28.894  33.913  13.968
68918W        W35701   5.724  35.273   2.883
68919W        W35702  39.479  35.851   1.179
68920W        W35703  13.304  25.558   2.522
68921W        W35704   4.740   3.207  11.602
68922W        W35705  11.033  39.373  13.584
68923W        W35706  27.214  20.047   4.733
68924W        W35707  11.305  15.491  11.894
68925W        W35708  10.788  40.517  12.546
68926W        W35709   5.646  42.806  11.942
68927W        W35710   1.258  40.512   2.177
68928W        W35711   5.985  13.580  13.914
68929W        W35712  20.154  44.208   0.279
68930W        W35713  19.597   3.156  10.605
68931W        W35714  17.326  42.963   0.211
68932W        W35715  16.232  25.633   3.913
68933W        W35716  20.022  23.761   4.128
68934W        W35717  44.020   1.805   4.257
68935W        W35718  29.262  39.773   2.269
68936W        W35719   2.345  37.396  11.936
68937W        W35720  43.304  11.099   2.218
68938W        W35721  30.056   4.144   1.208
68939W        W35722  41.936  24.164   1.250
68940W        W35723  10.107  22.082  12.990
68941W        W35724  22.132  22.956   1.827
68942W        W35725  15.741  18.869   5.042
68943W        W35726  40.826   7.486   2.851
68944W        W35727  32.592  20.510  11.539
68945W        W35728  36.890   8.754  14.960
68946W        W35729  15.824   5.933   1.531
68947W        W35730  38.196  15.132   1.016
68948W        W35731  19.162  42.776  12.968
68949W        W35732   8.271   2.503  11.571
68950W        W35733  26.510  38.789   0.376
68951W        W35734  23.164  39.788  13.517
68952W        W35735   0.958  17.159  14.931
68953W        W35736  11.551  16.276  12.660
68954W        W35737   3.335  22.398   4.063
68955W        W35738  34.453   0.843   0.939
68956W        W35739  15.849  40.395  11.864
68957W        W35740  23.981   7.703  13.576
68958W        W35741   7.916  12.706   1.358
68959W        W35742  17.729  37.935  13.488
68960W        W35743  19.286  30.061  14.332
68961W        W35744   8.008   7.783  13.685
68962W        W35745  40.964   0.223   4.198
68963W        W35746   7.557  20.617   1.307
68964W        W35747  38.277  28.673  13.434
68965W        W35748  28.972  23.109   4.207
68966W        W35749  26.617  42.944  11.966
68967W        W35750  32.149  20.485  12.591
68968W        W35751  15.702  36.465  13.035
68969W        W35752  26.717  41.429  14.080
68970W        W35753   2.914  10.701   1.200
68971W        W35754  39.390  42.244   0.691
68972W        W35755   6.103   4.457   3.285
68973W        W35756   8.698  29.991   1.886
68974W        W35757  28.626  30.140  12.390
68975W        W35758  30.905  40.899   3.409
68976W        W35759  29.459  13.316  13.135
68977W        W35760  10.171  12.612   3.721
68978W        W35761  18.699  31.176   4.127
68979W        W35762   7.280   6.665  10.795
68980W        W35763  41.885  39.781  12.006
68981W        W35764  10.950  32.802  13.510
68982W        W35765  32.608  19.296  12.140
68983W        W35766   0.358   6.564  11.036
68984W        W35767   1.192  44.644   3.621
68985W        W35768  10.585  36.433  13.608
68986W        W35769   5.706  40.370  12.448
68987W        W35770  19.609  14.309  14.762
68988W        W35771  28.693  12.678  13.246
68989W        W35772  22.404  11.342  11.616
68990W        W35773  30.939  38.882   3.210
68991W        W35774  32.223  42.014   3.410
68992W        W35775  29.960  12.393   2.561
68993W        W35776  35.513   3.178  14.290
68994W        W35777   6.892  13.883  12.098
68995W        W35778  23.342  27.111   4.151
68996W        W35779  32.217  35.000  12.511
68997W        W35780  35.982  23.207   0.313
68998W        W35781  20.376  39.763  11.042
68999W        W35782  14.466  32.170   5.032
69000W        W35783  16.359  37.312  12.610
69001W        W35784   2.021  31.503   4.380
69002W        W35785  23.672  19.213   0.289
69003W        W35786   0.293  17.076   2.723
69004W        W35787  26.877  22.773  13.519
69005W        W35788   7.114   0.010  10.457
69006W        W35789  13.677  38.088   2.324
69007W        W35790  18.783  11.539  13.508
69008W        W35791  31.255  13.277   1.617
69009W        W35792   7.390  32.381  14.470
69010W        W35793  25.989  29.743  13.859
69011W        W35794  39.501  12.137  13.505
69012W        W35795  22.654   3.743  14.423
69013W        W35796   4.856  37.480  13.272
69014W        W35797  25.645   9.318  12.594
69015W        W35798  20.172  42.098   3.675
69016W        W35799  40.901   6.990  12.241
69017W        W35800  38.538  17.097   1.320
69018W        W35801  36.587  10.782   4.841
69019W        W35802  37.958  26.585  12.784
69020W        W35803   5.676   5.181   2.521
69021W        W35804  37.895  37.305  11.125
69022W        W35805  33.306  21.751  12.954
69023W        W35806  42.337  43.231   0.914
69024W        W35807  17.057  28.340   3.643
69025W        W35808   4.815  30.449  10.676
69026W        W35809  34.844  10.513   5.213
69027W        W35810   8.791  43.107  12.286
69028W        W35811  20.260  34.298  12.938
69029W        W35812  29.431  17.963  11.997
69030W        W35813  28.252  34.386  13.398
69031W        W35814  43.450   9.284  11.233
69032W        W35815   8.470  39.992   2.867
69033W        W35816   8.582  20.691   4.921
69034W        W35817  40.615   3.365  14.052
69035W        W35818   7.264   9.517   4.808
69036W        W35819  39.392  15.664   2.846
69037W        W35820  15.225  34.172  12.926
69038W        W35821  28.854  27.611   1.194
69039W        W35822  12.215  42.004  12.012
69040W        W35823  19.702  33.367  11.956
69041W        W35824  13.242   4.795  13.483
69042W        W35825   9.195   7.548   1.339
69043W        W35826  28.254  43.934   3.995
69044W        W35827  28.546  35.522   2.370
69045W        W35828  18.789  35.850  14.360
69046W        W35829  29.938   9.396   2.535
69047W        W35830  22.140   8.678  13.527
69048W        W35831  23.133  37.764   3.164
69049W        W35832  35.962  31.040   2.460
69050W        W35833  15.167   6.462  12.307
69051W        W35834  20.490  41.815  14.412
69052W        W35835  21.125  28.709   3.706
69053W        W35836  12.355   3.197   2.617
69054W        W35837  10.109  34.939  11.422
69055W        W35838  40.532  11.038  11.865
69056W        W35839  14.374   0.352   2.706
69057W        W35840  41.924  38.939   4.569
69058W        W35841  16.154  10.816   2.231
69059W        W35842   6.843  39.885   0.642
69060W        W35843  43.281   6.551   5.399
69061W        W35844   8.133  15.230  14.919
69062W        W35845  15.465  24.611   3.502
69063W        W35846   6.058  24.693  14.778
69064W        W35847  37.082   3.582   2.754
69065W        W35848  24.075  15.273  11.466
69066W        W35849   7.296  14.118  12.697
69067W        W35850   6.403  40.956   0.201
69068W        W35851  24.745   2.859  12.951
69069W        W35852   7.920  33.389  11.219
69070W        W35853  43.069  36.310   0.920
69071W        W35854  22.059   8.170   4.892
69072W        W35855  36.204  12.419   1.207
69073W        W35856  35.452  16.179   4.496
69074W        W35857   3.296  37.791   2.627
69075W        W35858  13.309  24.008   1.804
69076W        W35859   9.670   3.021  14.265
69077W        W35860  30.754  27.063  11.667
69078W        W35861  35.355  42.754   1.836
69079W        W35862  39.023  36.432   0.050
69080W        W35863  28.532  10.698   3.100
69081W        W35864  17.366   2.213   0.788
69082W        W35865  17.096  12.330  14.275
69083W        W35866   8.408  43.907   4.887
69084W        W35867   0.680  25.456  14.542
69085W        W35868  31.093  44.756   3.244
69086W        W35869   5.969  44.788   1.274
69087W        W35870  41.958  25.032  14.224
69088W        W35871  37.496  31.492   2.824
69089W        W35872  17.280  11.129   0.000
69090W        W35873  23.508  21.008   1.792
69091W        W35874  11.147  12.680   4.065
69092W        W35875  39.442  41.503  13.481
69093W        W35876  37.970  20.171  12.823
69094W        W35877  43.783  23.862  10.762
69095W        W35878  28.758  39.294  11.004
69096W        W35879  22.985  36.449   4.566
69097W        W35880   9.450  26.180  12.640
69098W        W35881   5.182   6.212  12.114
69099W        W35882  43.813  44.983  14.382
69100W        W35883  15.577   2.871  10.970
69101W        W35884  23.196   8.873  10.809
69102W        W35885  35.662   0.520  13.535
69103W        W35886  43.740  18.207   5.232
69104W        W35887   2.004  44.269   4.049
69105W        W35888  41.341  22.749  11.006
69106W        W35889   1.319  35.503   1.171
69107W        W35890  42.761  10.197  14.217
69108W        W35891  11.639  41.484  10.996
69109W        W35892  25.130  42.028   1.754
69110W        W35893  40.884  22.597  10.851
69111W        W35894  18.518  37.839   1.817
69112W        W35895  17.147  23.969  10.486
69113W        W35896  33.145  35.899  12.856
69114W        W35897  40.375  13.320  14.014
69115W        W35898  18.491  30.279  14.454
69116W        W35899  29.338  36.597   2.750
69117W        W35900  16.363  35.637   4.255
69118W        W35901  23.583   6.744   4.668
69119W        W35902  23.079  21.285  14.869
69120W        W35903  29.583   3.917   1.962
69121W        W35904  43.055  44.495  12.457
69122W        W35905  10.806   2.896  14.641
69123W        W35906   7.652  13.499   0.761
69124W        W35907  32.464  11.254  14.952
69125W        W35908  21.488  19.716  14.261
69126W        W35909   5.741  22.729   4.057
69127W        W35910  28.866   4.555  14.743
69128W        W35911  38.390  18.224  13.106
69129W        W35912  29.027  40.772   1.668
69130W        W35913  19.085   7.977   0.878
69131W        W35914  37.656  41.953   4.290
69132W        W35915  38.896  29.697  12.949
69133W        W35916  22.158   0.961  14.521
69134W        W35917  32.837   4.552  13.974
69135W        W35918  28.482  33.141   0.349
69136W        W35919  30.313  40.011   5.511
69137W        W35920  26.060   4.559   0.355
69138W        W35921  44.518  29.754   3.234
69139W        W35922  40.076  37.774  10.765
69140W        W35923   1.985  11.192  13.450
69141W        W35924  42.304  40.106  14.320
69142W        W35925  38.805  29.564  10.614
69143W        W35926  21.156  27.088  13.995
69144W        W35927   9.327   4.244  12.955
69145W        W35928  13.496  33.931  13.540
69146W        W35929  11.144  21.514  11.892
69147W        W35930   0.833  43.372   3.290
69148W        W35931   6.146  30.844  10.848
69149W        W35932   3.287   1.248  13.322
69150W        W35933  28.573  29.075   3.861
69151W        W35934  29.210  41.607   5.112
69152W        W35935  20.229  40.518   2.787
69153W        W35936  22.551  30.149   4.105
69154W        W35937   3.351  18.359  13.090
69155W        W35938  12.038  26.507  11.088
69156W        W35939  27.232  20.661   2.311
69157W        W35940   5.262  30.043  13.575
69158W        W35941  12.308  31.704   3.283
69159W        W35942  14.398  22.905  13.758
69160W        W35943   3.537  38.527   1.914
69161W        W35944   0.926   9.518   2.235
69162W        W35945   5.444   9.293   0.905
69163W        W35946   4.626  22.530   1.390
69164W        W35947  34.380  41.442   3.859
69165W        W35948  36.952  29.634   2.303
69166W        W35949   6.469  39.045   0.413
69167W        W35950  17.035  35.922   4.515
69168W        W35951  23.978  37.509   5.310
69169W        W35952  33.909  41.355   0.303
69170W        W35953  10.209  32.543   4.594
69171W        W35954   4.535  11.661  10.590
69172W        W35955  13.385  25.221   4.355
69173W        W35956  31.866   3.875   4.781
69174W        W35957  34.141   8.301  14.915
69175W        W35958  27.659  17.002  12.055
69176W        W35959  15.615  27.686   3.225
69177W        W35960  43.297  37.985   0.012
69178W        W35961   5.139  41.156  14.897
69179W        W35962   1.968  44.736  12.148
69180W        W35963   6.402   2.443   1.717
69181W        W35964  12.284  16.054  10.656
69182W        W35965  25.852  25.792   2.539
69183W        W35966  24.754  21.056  11.462
69184W        W35967   4.704  10.655  11.655
69185W        W35968   5.230  21.672  13.984
69186W        W35969   4.222  10.588  13.363
69187W        W35970  33.348  21.584  11.634
69188W        W35971  42.288  36.631  12.068
69189W        W35972  36.581  29.056  12.370
69190W        W35973  15.691   8.310   1.507
69191W        W35974  31.935  13.107  14.960
69192W        W35975  11.811   7.697   1.740
69193W        W35976  41.064  15.782   0.202
69194W        W35977   8.740  27.401  13.566
69195W        W35978  30.140  28.032  12.572
69196W        W35979   6.343   9.781  13.555
69197W        W35980  18.112  36.875   0.924
69198W        W35981  21.145  24.220  10.268
69199W        W35982  29.377  24.593   2.842
69200W        W35983  26.459  38.337   4.238
69201W        W35984  29.233  34.882   0.345
69202W        W35985  12.604  15.780   0.307
69203W        W35986  16.581  24.496   1.660
69204W        W35987  16.839   4.762  14.732
69205W        W35988  33.416  27.600  11.531
69206W        W35989  42.583  44.573   2.388
69207W        W35990  33.296  40.013  12.896
69208W        W35991   0.637  22.246   4.597
69209W        W35992  24.220  12.880   4.158
69210W        W35993  12.722  43.824   2.347
69211W        W35994  43.750  38.154  10.967
69212W        W35995   0.910   7.149  10.397
69213W        W35996  13.621  29.424   4.289
69214W        W35997  25.540   8.760  14.760
69215W        W35998   3.029  11.165   0.925
69216W        W35999   9.653   2.739  12.759
69217W        W36000  23.541   6.820  13.954
69218W        W36001  23.592  32.916  12.800
69219W        W36002  17.125  26.122   2.830
69220W        W36003  15.824  20.225   0.960
69221W        W36004  42.933  33.998   4.536
69222W        W36005  40.958  22.588  11.351
69223W        W36006  42.908  33.527   3.217
69224W        W36007   9.842  23.984   2.778
69225W        W36008  43.781  23.504   0.858
69226W        W36009  17.369  40.258  11.115
69227W        W36010   8.386   6.279   3.165
69228W        W36011  27.133  27.005   1.356
69229W        W36012  31.393  43.900   2.274
69230W        W36013  22.159  41.549   0.192
69231W        W36014  16.616  26.247   2.911
69232W        W36015  40.370  16.283  11.603
69233W        W36016  21.051   0.602  14.723
69234W        W36017  31.330  34.496   0.354
69235W        W36018   4.254   6.427   1.446
69236W        W36019  33.439   7.642  14.757
69237W        W36020   0.289  34.820  12.412
69238W        W36021  29.049  10.299  11.276
69239W        W36022  12.408  22.835   3.624
69240W        W36023  32.149  36.017   1.181
69241W        W36024  39.770  44.031   0.827
69242W        W36025  18.981  25.063  14.271
69243W        W36026  16.859   6.725  11.971
69244W        W36027   6.782  15.076   1.724
69245W        W36028  37.425  41.500   4.480
69246W        W36029  27.215  37.335  13.868
69247W        W36030   9.860  12.578   3.291
69248W        W36031  14.023  27.395  14.286
69249W        W36032   7.378  32.244  13.253
69250W        W36033  13.059   2.370   0.820
69251W        W36034   1.947  40.384   1.152
69252W        W36035  44.258  25.053  13.866
69253W        W36036  39.489  24.282   2.155
69254W        W36037   5.398   6.471  14.354
69255W        W36038  12.835   2.272  14.259
69256W        W36039  19.546  29.955  11.902
69257W        W36040  29.126  14.652  13.231
69258W        W36041   9.299  30.391   0.256
69259W        W36042  13.137  32.130  13.867
69260W        W36043  20.243   4.802  14.927
69261W        W36044  41.913  31.684  12.574
69262W        W36045   1.498  36.678  10.676
69263W        W36046  23.267  43.874  12.841
69264W        W36047  22.545  35.640  11.993
69265W        W36048  28.524  10.280  14.052
69266W        W36049  11.075  11.972  12.219
69267W        W36050  11.420  40.777   0.525
69268W        W36051  27.046  14.416  10.666
69269W        W36052  17.302  28.048  11.976
69270W        W36053  25.318  43.404  13.046
69271W        W36054  18.091  24.867   4.026
69272W        W36055  24.762  16.641   4.632
69273W        W36056  19.578  31.238   2.235
69274W        W36057  15.196  28.543  14.766
69275W        W36058   7.692   2.926  14.400
69276W        W36059  10.052  33.354   4.219
69277W        W36060  17.676  44.532  10.131
69278W        W36061  13.184  24.318   4.540
69279W        W36062   1.335  19.183   1.188
69280W        W36063  42.441   7.222   0.872
69281W        W36064  25.275   8.763  12.439
69282W        W36065  39.339  34.931   1.368
69283W        W36066  37.080  27.343  11.597
69284W        W36067  40.278  32.629   0.797
69285W        W36068  42.295   1.693   0.754
69286W        W36069  28.636  30.312  14.283
69287W        W36070  25.201  42.397   3.562
69288W        W36071  21.108  26.661  11.626
69289W        W36072  25.727  18.661   3.350
69290W        W36073   1.272   1.521   2.743
69291W        W36074  33.874  22.111   4.983
69292W        W36075  43.730  39.453   2.281
69293W        W36076  25.580  12.902   0.013
69294W        W36077   4.166   7.116   3.681
69295W        W36078   6.641  26.536  10.739
69296W        W36079   9.676  10.676  14.459
69297W        W36080  12.245  23.562   1.196
69298W        W36081  18.222  19.687   0.856
69299W        W36082  44.788  14.346  14.873
69300W        W36083   1.967  28.082   0.404
69301W        W36084  33.112  35.408  11.561
69302W        W36085  33.965  21.581   0.422
69303W        W36086   6.403  24.035  12.538
69304W        W36087  29.004  43.688   2.009
69305W        W36088  35.505   3.198  10.090
69306W        W36089  24.076  34.541  13.486
69307W        W36090   6.817   0.270   1.624
69308W        W36091   9.609  33.809  10.734
69309W        W36092   4.370  12.669  11.722
69310W        W36093  11.650   1.021   0.231
69311W        W36094  41.319  28.478   1.872
69312W        W36095  18.142   2.964  11.149
69313W        W36096  17.828  37.463   5.236
69314W        W36097  31.457   6.004  13.359
69315W        W36098   0.369  10.122  12.969
69316W        W36099  27.306  36.798   0.419
69317W        W36100   6.944  30.974   2.196
69318W        W36101  16.297  18.785  11.728
69319W        W36102   2.430  16.223   1.460
69320W        W36103  28.055   2.854  11.169
69321W        W36104  28.247  18.838  11.965
69322W        W36105  15.083  22.085  12.443
69323W        W36106  30.642  25.911   4.588
69324W        W36107  22.183  38.957   4.106
69325W        W36108   4.868   3.004   4.525
69326W        W36109  20.777  31.022   1.266
69327W        W36110  43.534  33.865  13.978
69328W        W36111   3.730  14.082  10.461
69329W        W36112  41.648  34.008  14.870
69330W        W36113  24.250   4.207   2.327
69331W        W36114  32.601  13.200   3.808
69332W        W36115  28.864  33.796  11.161
69333W        W36116  42.403  38.874   4.339
69334W        W36117  17.065  37.521   5.072
69335W        W36118  13.030  26.509   2.892
69336W        W36119  26.502  31.622  12.985
69337W        W36120   6.916  20.711   1.364
69338W        W36121  30.995  42.034  11.185
69339W        W36122  21.020  11.960  11.159
69340W        W36123  19.165  11.850   2.472
69341W        W36124  11.178  39.055   3.312
69342W        W36125   2.876  34.645  13.592
69343W        W36126  21.943  41.570   0.669
69344W        W36127  26.441  25.494   0.371
69345W        W36128  43.329  41.173  11.167
69346W        W36129   1.230  44.114   3.686
69347W        W36130  37.934  12.084  12.498
69348W        W36131  44.816  28.547  13.876
69349W        W36132  17.754  17.653   0.727
69350W        W36133   4.496  40.044  11.160
69351W        W36134  15.853  44.825   0.623
69352W        W36135  22.197  19.340  12.460
69353W        W36136  27.678  19.106   4.868
69354W        W36137  14.189  17.454   0.969
69355W        W36138  31.264  15.388   3.806
69356W        W36139   8.760  21.326   3.783
69357W        W36140  13.223  14.294   1.286
69358W        W36141  26.147  37.070   2.202
69359W        W36142  30.100  41.787   3.131
69360W        W36143  19.214   3.778   3.349
69361W        W36144  41.023  15.319  14.942
69362W        W36145  39.311  36.005   4.211
69363W        W36146  35.922   1.440   3.784
69364W        W36147  29.535  34.953  14.501
69365W        W36148  26.676  36.438   1.807
69366W        W36149  28.468  30.502   3.960
69367W        W36150   6.129  16.253   0.417
69368W        W36151  40.397  16.049   4.170
69369W        W36152   9.325  29.815  13.050
69370W        W36153   9.397  25.969   4.294
69371W        W36154  28.073  11.841  12.425
69372W        W36155  22.930  20.296   3.558
69373W        W36156  34.628   6.471   2.226
69374W        W36157  11.671  20.131  13.913
69375W        W36158  34.458  23.548  11.600
69376W        W36159  29.007  10.131   0.949
69377W        W36160  41.446  40.902   1.198
69378W        W36161  25.645  30.994   3.675
69379W        W36162  38.201  37.523   4.650
69380W        W36163  21.751  36.623  14.883
69381W        W36164  41.877   6.623  12.494
69382W        W36165  40.560  10.200   0.398
69383W        W36166   5.422  13.763   3.198
69384W        W36167  34.590  22.396  10.778
69385W        W36168  15.233  18.201  10.714
69386W        W36169   1.665  39.780  14.524
69387W        W36170  28.193  20.812   0.438
69388W        W36171  24.925  29.959  11.583
69389W        W36172  22.928  44.797  14.856
69390W        W36173   2.497  14.523  11.465
69391W        W36174  15.254  21.654  12.684
69392W        W36175  32.826  17.248  14.237
69393W        W36176   1.944   4.867   0.730
69394W        W36177  10.375   3.368   0.727
69395W        W36178  21.676  33.314  12.094
69396W        W36179  41.279  23.234  11.626
69397W        W36180  19.136  23.725  11.519
69398W        W36181  18.484  32.925   3.735
69399W        W36182  18.661   1.790  10.664
69400W        W36183  43.892  38.194   4.321
69401W        W36184  32.525  33.362  13.502
69402W        W36185  37.425  11.800   0.207
69403W        W36186  22.701  39.464  14.432
69404W        W36187   6.433   4.764  11.531
69405W        W36188   5.667  19.581  13.455
69406W        W36189  33.816   5.336  12.458
69407W        W36190  38.872  15.394  12.594
69408W        W36191  42.287  18.502   0.770
69409W        W36192  25.392  14.281   5.110
69410W        W36193  33.534  34.005  14.687
69411W        W36194  29.488  21.474  14.896
69412W        W36195  14.989   9.882   0.378
69413W        W36196  11.533   3.031  13.864
69414W        W36197  28.568  13.389   4.417
69415W        W36198  16.214  23.778   2.585
69416W        W36199  12.069  35.052  13.425
69417W        W36200  41.331  37.399  12.384
69418W        W36201   2.426  38.479  13.911
69419W        W36202  21.007   2.356   0.810
69420W        W36203  11.205  30.227  13.813
69421W        W36204   6.858  21.200   2.298
69422W        W36205  14.931  11.703   1.022
69423W        W36206  23.076  35.781  11.944
69424W        W36207  27.376  29.519   3.836
69425W        W36208  35.617  39.864  12.507
69426W        W36209  23.564   8.150   1.665
69427W        W36210   2.849  29.084   0.380
69428W        W36211  12.063   8.668   1.865
69429W        W36212  11.381  23.722  12.765
69430W        W36213  24.971  24.924   1.257
69431W        W36214  14.718  12.650   1.207
69432W        W36215  15.370  19.103  12.107
69433W        W36216  27.612  20.966  14.784
69434W        W36217  31.230   1.216   3.401
69435W        W36218  18.675  18.202   4.821
69436W        W36219  27.393  14.124   1.264
69437W        W36220  21.662  12.614  14.030
69438W        W36221  14.863  29.448  12.108
69439W        W36222   1.713   3.359  10.669
69440W        W36223  30.497  30.289  11.652
69441W        W36224  17.669  23.908   2.713
69442W        W36225  17.654  43.237   1.559
69443W        W36226   2.840  37.505  13.558
69444W        W36227  36.873  28.072  10.827
69445W        W36228  11.693  11.150   2.758
69446W        W36229  28.150   4.153   4.916
69447W        W36230  26.118  15.179  13.493
69448W        W36231   4.439  11.466  11.519
69449W        W36232  36.522   1.180  13.484
69450W        W36233  43.877  36.059  13.671
69451W        W36234  17.852  42.006  10.669
69452W        W36235   3.002  36.597  13.370
69453W        W36236  23.909  25.119  11.784
69454W        W36237  28.508  13.552   3.277
69455W        W36238  19.839  40.659  13.891
69456W        W36239  32.661  14.012   2.728
69457W        W36240  34.423   3.741   4.543
69458W        W36241   3.000  17.167   0.613
69459W        W36242  24.159  10.912  12.818
69460W        W36243   5.418   6.948  11.575
69461W        W36244   8.106  11.753   0.580
69462W        W36245  21.578  18.201  12.853
69463W        W36246  22.100  44.898   0.796
69464W        W36247  33.002  43.204  11.640
69465W        W36248  28.043  31.474   4.165
69466W        W36249  38.270  18.704   3.367
69467W        W36250   5.854  20.884  12.488
69468W        W36251  14.299   3.644   2.951
69469W        W36252   4.195  44.040   1.187
69470W        W36253   7.944   7.886  10.895
69471W        W36254  40.408   0.321  10.610
69472W        W36255  21.209  16.668   1.513
69473W        W36256  22.583   0.787   2.125
69474W        W36257  28.150  30.168   3.303
69475W        W36258  10.576  44.359  12.574
69476W        W36259  43.333  20.512   1.837
69477W        W36260   9.658  25.014   4.245
69478W        W36261  24.095  19.259   1.880
69479W        W36262   3.968  30.042   3.646
69480W        W36263   1.371  29.986  14.384
69481W        W36264  14.155  38.784   1.923
69482W        W36265  20.658  36.312  11.992
69483W        W36266  41.880   4.310   2.116
69484W        W36267   6.277   8.028   2.943
69485W        W36268   4.238   0.466  11.576
69486W        W36269  27.026  18.077   2.501
69487W        W36270  26.240  13.334  12.885
69488W        W36271  37.351  13.233   0.285
69489W        W36272  34.445   6.425   4.106
69490W        W36273  10.280   7.220   0.883
69491W        W36274  35.558  20.773  11.008
69492W        W36275  10.395   3.710  10.703
69493W        W36276  42.269  20.674   4.615
69494W        W36277  22.360   9.029  10.301
69495W        W36278  28.028  26.786  14.596
69496W        W36279   4.328   4.447   0.881
69497W        W36280   8.185  35.947  13.474
69498W        W36281   2.457  41.781   0.850
69499W        W36282  38.483   6.348  10.952
69500W        W36283  41.733   8.394  11.236
69501W        W36284   8.193  13.187   0.937
69502W        W36285   7.316   9.214   1.296
69503W        W36286  35.369  31.688   4.601
69504W        W36287  33.354  38.422  11.571
69505W        W36288  28.447  17.109  11.631
69506W        W36289  40.237  42.697   1.923
69507W        W36290   6.205  15.801   1.686
69508W        W36291  17.241  17.332  11.226
69509W        W36292  33.086   8.890  10.854
69510W        W36293  29.079  21.290  11.133
69511W        W36294  43.028  10.348   3.128
69512W        W36295  34.860  43.262  11.948
69513W        W36296  31.616  27.358   0.382
69514W        W36297  30.393  35.796  10.740
69515W        W36298  29.544  12.024   1.683
69516W        W36299  44.875  40.965  11.968
69517W        W36300  21.974  32.560   4.592
69518W        W36301  16.451  14.646   3.739
69519W        W36302  27.863  19.629  12.789
69520W        W36303   1.122  39.303   0.872
69521W        W36304   2.293  39.995   3.056
69522W        W36305  15.104   3.688   2.395
69523W        W36306  40.073  37.034   0.364
69524W        W36307  41.861  38.514  10.628
69525W        W36308   7.675  42.144   3.280
69526W        W36309   4.904  42.482   2.149
69527W        W36310  16.497  23.164  10.989
69528W        W36311  18.670   8.666  11.717
69529W        W36312  26.779  24.812  14.642
69530W        W36313  17.560  33.936  10.530
69531W        W36314   0.266   3.225  14.094
69532W        W36315  15.295  16.843  13.063
69533W        W36316   1.346  13.440  14.880
69534W        W36317  23.901   3.237  12.955
69535W        W36318  32.101  33.697   3.523
69536W        W36319  10.891  10.679   3.628
69537W        W36320  22.920  39.441  14.944
69538W        W36321   4.211  22.087   2.610
69539W        W36322  44.498  37.088  11.963
69540W        W36323  43.270   8.836  11.624
69541W        W36324  23.169  18.140  14.318
69542W        W36325  28.161  33.447   2.579
69543W        W36326  36.853  32.557  12.986
69544W        W36327  11.713  38.885   2.100
69545W        W36328   4.913  26.162   4.185
69546W        W36329  16.798  12.425  12.971
69547W        W36330  26.970  14.085  11.056
69548W        W36331   5.916  12.655   2.405
69549W        W36332  36.868   0.984   2.268
69550W        W36333  39.001  24.130   0.874
69551W        W36334  22.105  18.152  13.450
69552W        W36335  36.115   4.778   3.190
69553W        W36336  11.247  28.129   2.863
69554W        W36337   8.340  11.111  11.466
69555W        W36338  26.376  43.040  13.502
69556W        W36339  27.028   7.639   1.818
69557W        W36340  42.306   3.527  10.594
69558W        W36341  19.277  19.202   1.474
69559W        W36342  21.636  18.336  13.346
69560W        W36343  10.279   2.772  12.906
69561W        W36344  16.828  38.431   3.284
69562W        W36345  22.899  32.971   1.477
69563W        W36346  13.598  19.153   0.397
69564W        W36347  38.932  10.293  13.876
69565W        W36348  36.636  31.555   2.760
69566W        W36349  22.163  24.352  11.902
69567W        W36350  30.908  17.213   2.654
69568W        W36351  19.710   2.210   0.388
69569W        W36352  42.531  20.141   1.027
69570W        W36353  44.308  21.266   1.722
69571W        W36354  24.148  26.909  14.949
69572W        W36355   8.326  42.240   4.578
69573W        W36356   1.816   2.011  11.857
69574W        W36357  30.480  24.218   3.757
69575W        W36358  37.584  42.802  12.102
69576W        W36359  27.796  30.424  11.437
69577W        W36360  21.676  31.478   3.932
69578W        W36361  38.504   9.861  14.792
69579W        W36362  27.517  42.853   1.700
69580W        W36363   9.227  25.959   3.186
69581W        W36364  42.053   6.840   1.222
69582W        W36365  35.393  30.067  12.490
69583W        W36366  31.546   5.077  14.360
69584W        W36367  41.460   0.444  14.265
69585W        W36368  13.230  22.936   3.127
69586W        W36369  28.207  16.021  14.101
69587W        W36370  16.269   3.317   2.726
69588W        W36371   9.033  29.546   0.727
69589W        W36372  44.766   0.846  10.249
69590W        W36373  16.072  26.091   0.260
69591W        W36374   0.539   0.375   2.699
69592W        W36375  40.218   8.650   4.650
69593W        W36376  31.019  33.983   1.305
69594W        W36377  14.515   7.787  12.592
69595W        W36378  17.166   9.599   1.833
69596W        W36379  30.671   6.667   0.383
69597W        W36380   9.168  17.161  14.467
69598W        W36381  32.027  17.746   0.548
69599W        W36382  29.161   3.649  11.642
69600W        W36383  34.930  19.554   4.070
69601W        W36384   9.369  29.165   1.735
69602W        W36385   6.946  41.369  13.969
69603W        W36386  41.449  22.450  13.077
69604W        W36387  29.837   9.199  11.098
69605W        W36388  24.196   3.955   3.341
69606W        W36389  22.781  11.762  14.791
69607W        W36390  34.425  37.192   2.310
69608W        W36391  18.198   3.489   0.309
69609W        W36392  26.897  35.408   0.344
69610W        W36393   9.642  16.571  13.135
69611W        W36394  19.207  22.811  11.969
69612W        W36395   3.988  16.330   4.799
69613W        W36396  14.581   3.856   4.773
69614W        W36397  16.869  28.163   1.458
69615W        W36398  37.951  17.247  12.083
69616W        W36399  29.863  24.669  12.883
69617W        W36400  16.504  26.978   3.850
69618W        W36401  44.415   0.484   0.317
69619W        W36402  15.907  44.219   4.549
69620W        W36403  20.267  44.789  14.569
69621W        W36404  14.778  20.835   3.304
69622W        W36405  21.745  33.811  11.948
69623W        W36406   0.875  27.300  13.675
69624W        W36407  38.055   6.953   2.189
69625W        W36408  13.888  28.655  14.571
69626W        W36409  35.832  30.434  10.994
69627W        W36410  36.004  12.299   4.874
69628W        W36411  21.390  23.444  12.661
69629W        W36412  17.670  16.352   5.015
69630W        W36413  17.162  18.786  11.549
69631W        W36414   9.176  30.079   0.747
69632W        W36415  21.217  11.275   1.837
69633W        W36416  27.729  17.581   4.363
69634W        W36417  21.146  12.122   0.489
69635W        W36418  19.961  18.046   3.254
69636W        W36419  14.274  38.268   2.797
69637W        W36420   6.819  34.396  14.661
69638W        W36421  19.737   4.052  13.773
69639W        W36422  20.715   3.792  14.090
69640W        W36423  18.288   9.234   2.382
69641W        W36424  36.275  41.708  12.551
69642W        W36425  32.970  35.107   2.218
69643W        W36426  14.916  37.469   4.092
69644W        W36427  41.359  26.775  14.289
69645W        W36428  27.225  30.981   1.638
69646W        W36429  14.837  40.447  10.371
69647W        W36430  24.982  41.925  13.191
69648W        W36431  29.882  37.062  10.592
69649W        W36432  19.684  40.948  12.972
69650W        W36433  15.259  35.801  11.253
69651W        W36434  44.430   7.117  13.923
69652W        W36435   5.154   2.445   2.177
69653W        W36436  13.185  21.688   2.624
69654W        W36437   0.063  14.756   4.568
69655W        W36438  43.189  14.984   4.852
69656W        W36439  14.840  15.722  11.533
69657W        W36440   2.340  40.568   1.455
69658W        W36441  31.522  14.477  13.009
69659W        W36442  36.729  17.677   2.341
69660W        W36443  42.575  35.303   3.725
69661W        W36444  25.133  20.629   3.691
69662W        W36445   8.770  30.265   1.426
69663W        W36446  44.793  33.836  10.573
69664W        W36447   3.212  15.762   4.527
69665W        W36448  19.802  26.932   0.457
69666W        W36449  35.995  32.987   1.361
69667W        W36450  23.283  27.570   3.239
69668W        W36451  24.127  16.171   3.686
69669W        W36452   7.629  42.974   3.193
69670W        W36453  21.280   7.413  13.552
69671W        W36454  13.878   1.385   3.661
69672W        W36455   6.226   3.527  10.701
69673W        W36456   8.262   9.315  12.068
69674W        W36457  19.004  31.177   3.680
69675W        W36458  32.565  17.543  13.883
69676W        W36459   8.913   3.451  14.241
69677W        W36460  16.843  25.730  12.904
69678W        W36461  25.197  14.517   0.690
69679W        W36462   3.910  25.438   2.398
69680W        W36463   1.719  23.378   0.194
69681W        W36464   9.059   9.739  14.443
69682W        W36465  23.662  27.485  13.904
69683W        W36466  43.332  44.357   0.525
69684W        W36467  43.903  31.440  14.892
69685W        W36468   4.323  23.013   1.222
69686W        W36469  33.398   3.818   2.749
69687W        W36470  13.790  40.249   0.359
69688W        W36471  40.357  41.094   4.547
69689W        W36472  37.531  13.676   0.521
69690W        W36473   3.806   9.466  14.351
69691W        W36474  24.012  33.924   1.040
69692W        W36475   2.929  30.860   2.713
69693W        W36476   7.766  18.141  10.267
69694W        W36477  19.107   8.747  10.683
69695W        W36478  26.106  11.654  10.672
69696W        W36479   3.143  26.543  14.699
69697W        W36480  35.751  32.043  13.962
69698W        W36481   4.287   3.392   0.969
69699W        W36482  37.930  14.617   3.209
69700W        W36483  10.815  24.528   3.756
69701W        W36484  38.314   1.480   0.829
69702W        W36485  17.141  44.824  10.479
69703W        W36486  16.919  19.880  12.054
69704W        W36487   1.288  21.203  13.998
69705W        W36488  13.777  21.158   1.277
69706W        W36489  26.517   0.970  12.925
69707W        W36490   0.126  13.817  14.057
69708W        W36491   5.397  32.061  12.419
69709W        W36492  40.451   0.138   4.070
69710W        W36493  43.903  23.566  11.207
69711W        W36494   0.217  30.977   4.139
69712W        W36495   4.838  11.908   0.936
69713W        W36496  37.903  11.995   3.729
69714W        W36497   2.025   0.523   1.438
69715W        W36498  33.124  24.873   1.202
69716W        W36499  44.043  41.483  10.790
69717W        W36500  34.050  17.284  14.929
69718W        W36501  30.182  28.638  11.836
69719W        W36502  11.333  26.736   2.835
69720W        W36503  35.632   5.066   1.881
69721W        W36504  28.457   7.740  14.955
69722W        W36505  41.862  35.732   1.760
69723W        W36506  22.252   0.546   3.204
69724W        W36507  15.879  34.013   4.663
69725W        W36508  34.423  19.561  14.304
69726W        W36509   0.660  22.297   1.354
69727W        W36510  26.922  32.075  11.687
69728W        W36511  30.319  27.880  14.907
69729W        W36512   0.505   5.498   2.064
69730W        W36513  24.017  40.810   2.784
69731W        W36514   5.280  39.098   3.765
69732W        W36515  14.324  42.855   1.664
69733W        W36516   2.393  31.677  11.412
69734W        W36517  14.696   3.101  10.212
69735W        W36518  42.483  16.012   4.069
69736W        W36519   7.484  10.491  10.255
69737W        W36520  18.179   2.902   3.190
69738W        W36521  12.375  19.526   3.702
69739W        W36522  23.032  41.337   3.656
69740W        W36523  37.916  32.242   4.040
69741W        W36524  30.282  27.536   3.736
69742W        W36525   7.728  17.119   4.019
69743W        W36526   6.678  25.277   4.569
69744W        W36527  40.277  41.426  14.976
69745W        W36528  12.418  38.093  11.174
69746W        W36529  11.708  23.755  14.437
69747W        W36530  11.622   3.943  14.094
69748W        W36531  38.480   4.339   3.381
69749W        W36532  29.001  39.135   4.074
69750W        W36533  25.186  22.381   5.224
69751W        W36534  10.618  11.245   0.498
69752W        W36535  20.353  26.118   4.673
69753W        W36536  16.053   1.963  10.583
69754W        W36537  27.113  10.628  13.045
69755W        W36538  20.005  24.248   3.316
69756W        W36539   0.527   4.808  13.976
69757W        W36540  42.788  38.199  10.250
69758W        W36541  34.496   2.870  14.752
69759W        W36542  32.402  37.315  13.393
69760W        W36543  12.275  21.620   2.753
69761W        W36544   9.329  16.588  11.168
69762W        W36545  20.434  25.197   0.953
69763W        W36546   2.901   1.015  13.554
69764W        W36547  39.414  15.140   2.085
69765W        W36548  31.419  26.174  13.014
69766W        W36549  10.351   2.026  14.089
69767W        W36550  20.747   3.719   2.782
69768W        W36551  35.020   1.251  11.150
69769W        W36552  28.697  25.124  10.746
69770W        W36553  44.305  31.393  14.072
69771W        W36554  37.807  44.492   2.222
69772W        W36555  43.027  16.197  13.587
69773W        W36556  10.321  31.788   0.779
69774W        W36557   1.388  40.462  14.021
69775W        W36558   5.880  13.271   0.469
69776W        W36559  14.367   9.304  13.520
69777W        W36560  16.066  21.113   2.213
69778W        W36561  20.033  33.044   2.683
69779W        W36562  28.060  32.914  12.991
69780W        W36563  19.661  23.606  12.173
69781W        W36564  35.568  37.590  13.411
69782W        W36565  20.243  24.716   4.316
69783W        W36566  13.217  33.980  12.492
69784W        W36567  24.616  12.524  13.069
69785W        W36568  23.500  22.004   0.015
69786W        W36569   6.182  24.285   5.072
69787W        W36570  34.380   7.332   1.206
69788W        W36571  39.334  20.174   1.815
69789W        W36572  18.801   8.821   4.700
69790W        W36573  24.015  25.160   0.129
69791W        W36574  25.652   2.300   1.458
69792W        W36575  30.621   4.965  12.199
69793W        W36576  19.224  13.187   0.297
69794W        W36577  31.615   2.013  14.814
69795W        W36578  20.929   2.963   1.968
69796W        W36579  33.032  16.614   2.629
69797W        W36580  37.569   1.523   4.265
69798W        W36581  25.278  27.118   0.381
69799W        W36582  36.796  44.527   3.956
69800W        W36583  39.719  43.504   2.189
69801W        W36584  19.757   6.953   1.549
69802W        W36585  24.624  32.805   2.398
69803W        W36586  15.140  10.856  10.997
69804W        W36587  10.162  13.136   2.674
69805W        W36588  32.077   5.129   0.473
69806W        W36589  21.754   1.002  12.347
69807W        W36590  37.573  42.689  13.026
69808W        W36591  35.095  24.154   3.367
69809W        W36592  28.930  23.438   4.618
69810W        W36593   7.627   6.342   3.792
69811W        W36594  15.671   3.758   3.227
69812W        W36595  44.881  41.021   2.879
69813W        W36596   5.933  38.094  13.528
69814W        W36597  41.217  33.459   2.093
69815W        W36598   2.065   9.362   1.803
69816W        W36599  11.666  37.514   4.006
69817W        W36600  15.492   8.646  13.722
69818W        W36601  22.461  23.780  14.308
69819W        W36602  38.859  41.772  10.428
69820W        W36603  24.906  24.179  10.686
69821W        W36604   8.464  19.749   3.647
69822W        W36605  11.421  26.154  11.042
69823W        W36606  17.204  37.272   3.309
69824W        W36607  33.009  19.531   3.692
69825W        W36608  18.418  32.768   2.423
69826W        W36609  33.847  34.231   4.551
69827W        W36610   5.301  43.824  14.914
69828W        W36611   8.039  41.528   0.813
69829W        W36612  25.475  29.448  11.681
69830W        W36613  40.465  21.081  11.520
69831W        W36614  23.106  14.747   0.811
69832W        W36615   8.273  42.538  14.255
69833W        W36616   4.876  31.436  12.661
69834W        W36617   0.316  41.409  10.758
69835W        W36618  21.070   2.111  14.918
69836W        W36619  19.822  36.853   2.157
69837W        W36620  27.181  37.306   0.292
69838W        W36621  43.471  35.021   4.593
69839W        W36622   4.758  17.720  13.890
69840W        W36623   7.218  41.530   4.386
69841W        W36624  17.683  39.851  11.392
69842W        W36625  39.741  41.412   1.389
69843W        W36626  18.722   6.691  12.316
69844W        W36627  27.617  41.010  14.752
69845W        W36628   3.779   8.612   1.335
69846W        W36629  31.483   6.995  10.119
69847W        W36630  11.235  39.827  10.974
69848W        W36631  16.388   3.036   3.144
69849W        W36632  41.399  30.472  12.598
69850W        W36633  42.812  20.256  11.014
69851W        W36634   0.834  11.641   3.182
69852W        W36635  23.563  42.609   2.804
69853W        W36636  32.337  23.200  11.378
69854W        W36637  26.307   4.447  14.895
69855W        W36638  17.838  21.291  13.254
69856W        W36639  44.372  13.585   3.227
69857W        W36640  13.090  38.966   0.903
69858W        W36641  23.958  25.947   0.772
69859W        W36642   7.476  17.250  13.721
69860W        W36643  18.247  16.383  10.239
69861W        W36644  30.862  35.465   1.191
69862W        W36645  30.163  30.053  14.414
69863W        W36646  39.742  40.978  12.103
69864W        W36647  26.787  15.151  13.112
69865W        W36648  11.616   1.240   4.114
69866W        W36649   0.939  15.165  12.341
69867W        W36650  23.287  36.509   2.804
69868W        W36651   4.536  22.519  11.031
69869W        W36652   7.843   7.272   2.382
69870W        W36653  41.941  40.896  13.326
69871W        W36654  30.084  11.661  10.764
69872W        W36655  16.049  37.471  14.266
69873W        W36656  22.755  17.472  11.928
69874W        W36657  35.022  28.846  10.796
69875W        W36658  35.102   6.704  12.442
69876W        W36659  19.657  30.424  14.376
69877W        W36660   2.442  31.040  12.582
69878W        W36661   3.745  11.167   3.752
69879W        W36662  38.089   0.162   0.819
69880W        W36663  19.082  42.232   0.690
69881W        W36664   0.242  20.632   0.808
69882W        W36665  35.109  32.105   0.909
69883W        W36666   0.542  12.012  11.604
69884W        W36667   5.937   7.637  12.948
69885W        W36668  35.423   6.747  14.020
69886W        W36669  16.394  18.775   1.970
69887W        W36670  13.239  20.975  13.166
69888W        W36671  16.530   9.138   2.242
69889W        W36672  11.212  37.613  13.991
69890W        W36673  44.993  19.133   2.710
69891W        W36674  12.367   1.647  12.123
69892W        W36675  15.079  22.660  13.822
69893W        W36676   1.154   5.980  11.145
69894W        W36677  14.281  31.790   3.333
69895W        W36678  43.870   5.515   4.211
69896W        W36679  22.502  24.524   2.181
69897W        W36680   4.712  36.351  12.372
69898W        W36681  26.009  34.505  10.971
69899W        W36682  28.313  28.591  11.183
69900W        W36683   0.022   8.989   4.072
69901W        W36684  16.695  39.887  10.618
69902W        W36685   0.443  20.923   0.428
69903W        W36686  29.564  29.872   0.234
69904W        W36687  19.639  33.151  12.406
69905W        W36688   2.018  30.916   3.768
69906W        W36689   7.351  41.345  14.821
69907W        W36690   2.192   0.282   3.667
69908W        W36691   8.285  15.582   2.908
69909W        W36692  29.184  28.698  10.907
69910W        W36693  21.050  23.231  11.373
69911W        W36694  22.581  20.799  11.679
69912W        W36695  44.027  30.050  13.765
69913W        W36696  23.662   5.293  12.566
69914W        W36697  40.875  37.567  12.580
69915W        W36698  17.626  42.772   1.820
69916W        W36699   0.861   1.419  12.805
69917W        W36700  40.802  33.952   0.329
69918W        W36701  43.411  43.009   3.259
69919W        W36702  29.639  44.869  10.847
69920W        W36703  20.849   2.232  11.427
69921W        W36704   8.888  39.601  12.570
69922W        W36705   2.050  23.578   4.204
69923W        W36706  30.910   8.346  11.986
69924W        W36707  38.308  40.848  12.575
69925W        W36708  18.100  29.118   1.765
69926W        W36709  36.705   3.738   4.148
69927W        W36710  18.397  28.713   0.198
69928W        W36711  25.271  36.473  13.923
69929W        W36712  40.782  35.755  13.992
69930W        W36713   6.411   8.310   0.454
69931W        W36714  20.620  40.444  13.080
69932W        W36715  21.080  41.955  13.600
69933W        W36716   7.592  12.854   4.135
69934W        W36717  42.149  32.583  11.623
69935W        W36718  43.755  25.920   0.873
69936W        W36719  40.105  26.161   1.457
69937W        W36720  33.045  44.187   0.969
69938W        W36721  39.754  13.689  11.399
69939W        W36722   3.866   5.205  11.965
69940W        W36723   3.234  31.013   1.826
69941W        W36724   6.434  25.927   3.670
69942W        W36725  16.707  13.409  14.869
69943W        W36726  13.203  35.750   4.168
69944W        W36727  36.985  11.891  12.204
69945W        W36728   4.002  30.996   0.620
69946W        W36729  36.329  31.577  14.427
69947W        W36730   5.314   4.448  11.123
69948W        W36731  32.905  15.749   4.993
69949W        W36732   0.527   0.898   2.561
69950W        W36733  28.739   4.344  12.963
69951W        W36734  29.193  37.916   4.302
69952W        W36735  20.087   0.773  14.467
69953W        W36736   8.833  10.367  14.821
69954W        W36737  10.632  19.009   1.933
69955W        W36738  28.154  21.336   1.384
69956W        W36739  38.339  23.754   0.432
69957W        W36740  22.615  29.058   4.833
69958W        W36741  24.074  13.799   0.699
69959W        W36742   6.421  10.502  12.977
69960W        W36743  12.846  16.160  11.599
69961W        W36744  30.661  13.549  13.103
69962W        W36745  41.438   5.258   2.320
69963W        W36746  18.627  14.435   2.077
69964W        W36747  23.768   9.379   0.766
69965W        W36748  42.045  21.995   4.429
69966W        W36749  10.423  41.596  13.556
69967W        W36750  20.575  41.304   0.964
69968W        W36751  24.748  42.790  12.200
69969W        W36752  14.838  31.587  12.500
69970W        W36753  26.021   6.749   3.665
69971W        W36754  39.800   8.814  14.102
69972W        W36755  23.973  18.186  11.933
69973W        W36756  27.208  14.094   2.815
69974W        W36757  16.065   1.735   1.195
69975W        W36758  16.624   6.891   1.877
69976W        W36759  35.009  27.255  12.062
69977W        W36760   6.254  29.589  14.345
69978W        W36761  31.980   0.264   3.025
69979W        W36762   2.226  41.904  14.690
69980W        W36763  31.011  15.675  11.423
69981W        W36764  18.479  24.682   0.443
69982W        W36765  10.873  27.635   4.457
69983W        W36766   4.722  11.268  13.318
69984W        W36767   3.808   2.841   0.486
69985W        W36768  19.802  36.440   1.855
69986W        W36769   1.993  14.421  11.543
69987W        W36770  36.957  37.381  14.570
69988W        W36771  36.123  30.824  14.418
69989W        W36772   3.132   2.225   0.449
69990W        W36773  23.661   6.805   1.530
69991W        W36774  19.113  33.614   0.545
69992W        W36775   3.722   1.717   3.750
69993W        W36776  33.067  11.343  13.258
69994W        W36777  31.879  44.044   2.293
69995W        W36778  23.209   6.703  12.815
69996W        W36779  17.029  35.365  13.418
69997W        W36780  19.378  29.957   2.882
69998W        W36781  36.866   2.136  11.942
69999W        W36782  43.019  31.544  14.619
70000W        W36783   7.733  20.110   3.591
70001W        W36784  22.047  25.275  12.235
70002W        W36785   4.417   8.750   2.921
70003W        W36786  35.458  38.892   3.214
70004W        W36787  19.269  41.944   4.149
70005W        W36788  25.923   2.425  13.562
70006W        W36789   3.332   5.266  11.973
70007W        W36790  16.258  20.645   4.235
70008W        W36791  40.923   1.976   0.262
70009W        W36792  12.095  36.138   1.240
70010W        W36793   9.322  35.607   1.986
70011W        W36794  29.324   1.226   4.149
70012W        W36795  32.396  13.731  11.121
70013W        W36796  15.708   8.398  12.015
70014W        W36797  36.609  14.084   4.101
70015W        W36798  28.188  38.788   3.692
70016W        W36799  40.113   3.183  14.002
70017W        W36800  42.373  11.124   2.139
70018W        W36801  33.505  43.246  10.576
70019W        W36802  37.792  15.310  11.705
70020W        W36803   7.881  34.134  10.601
70021W        W36804  21.326  20.986   2.803
70022W        W36805  31.841   8.628  13.566
70023W        W36806   2.405  25.177   0.946
70024W        W36807  39.892   6.565   1.180
70025W        W36808  36.990  38.586  13.432
70026W        W36809   4.316  39.087  13.007
70027W        W36810  43.951   6.890   0.530
70028W        W36811  40.811  26.695   3.795
70029W        W36812  10.949  41.937   3.230
70030W        W36813  18.675  10.065   2.329
70031W        W36814  10.507  24.957   3.779
70032W        W36815  15.850   2.900  12.337
70033W        W36816  10.646  43.481  12.491
70034W        W36817  33.474   3.228  11.144
70035W        W36818   2.934  33.490  11.913
70036W        W36819  42.144  26.186   1.724
70037W        W36820  24.132  35.950   3.855
70038W        W36821  11.766  36.721   3.633
70039W        W36822  12.419  44.363   0.553
70040W        W36823  35.789  26.482  14.533
70041W        W36824  27.146  23.194   1.933
70042W        W36825  30.380  34.209   2.665
70043W        W36826  20.048   8.723  10.707
70044W        W36827  43.974  39.765   1.946
70045W        W36828  44.430   4.168   3.274
70046W        W36829  14.770  17.814  11.886
70047W        W36830  41.014   6.403   9.818
70048W        W36831  24.091  11.605   0.863
70049W        W36832  28.076  21.021   2.259
70050W        W36833  43.539  40.930  11.572
70051W        W36834  24.635  23.826   3.690
70052W        W36835  20.237  20.764   2.450
70053W        W36836  23.436  16.869  11.988
70054W        W36837  19.045  15.534  12.387
70055W        W36838  26.589  37.902  10.030
70056W        W36839  37.291  44.293   1.362
70057W        W36840  37.478  35.585  12.319
70058W        W36841   6.513   3.299  12.025
70059W        W36842   8.902  14.295  13.108
70060W        W36843  43.583   9.299   4.391
70061W        W36844  29.662  23.646  11.452
70062W        W36845   6.116  26.189   4.046
70063W        W36846   1.774  38.300   0.325
70064W        W36847   0.763   6.741  14.959
70065W        W36848   9.396   6.773   1.654
70066W        W36849  41.961   1.142   1.323
70067W        W36850  26.219  25.447   2.416
70068W        W36851  31.445  24.200   2.302
70069W        W36852  20.693   9.763  12.096
70070W        W36853  41.732  42.715  13.853
70071W        W36854  43.555  39.896  13.554
70072W        W36855  17.102  41.047   2.434
70073W        W36856  36.994  21.246  13.802
70074W        W36857  35.813  33.007  11.231
70075W        W36858  21.185   5.699  12.155
70076W        W36859   1.948  27.614  10.736
70077W        W36860  28.993   0.961   2.829
70078W        W36861   3.535   0.395   0.427
70079W        W36862  22.980  28.896  10.008
70080W        W36863  43.819  29.693   0.341
70081W        W36864   7.706  17.563  11.591
70082W        W36865   7.356   5.433  12.724
70083W        W36866   7.853  18.205   3.315
70084W        W36867   2.992  31.138   0.039
70085W        W36868  31.562   6.249  14.182
70086W        W36869  37.482   4.937  14.808
70087W        W36870   7.379  22.579   4.567
70088W        W36871  21.084  24.657   9.946
70089W        W36872  39.525   2.077  13.073
70090W        W36873   1.891  41.658   3.425
70091W        W36874  32.040   4.737   0.092
70092W        W36875  36.886  37.436   2.811
70093W        W36876   9.379  21.081   4.583
70094W        W36877  20.409  15.087  13.961
70095W        W36878  39.836  32.467   2.106
70096W        W36879  41.109  12.094  14.890
70097W        W36880  44.201  19.783  12.571
70098W        W36881  17.285  44.224   4.105
70099W        W36882  22.134   7.875  13.992
70100W        W36883  39.648  25.668   2.448
70101W        W36884  43.474  43.072   4.121
70102W        W36885  37.048  12.913   0.842
70103W        W36886  44.266  22.431  10.631
70104W        W36887  34.539  17.166   4.085
70105W        W36888  23.507   8.241  12.103
70106W        W36889  25.093  18.675   0.487
70107W        W36890  17.639  20.746   4.435
70108W        W36891  10.385   8.706   2.394
70109W        W36892  19.917   0.248   0.938
70110W        W36893  37.017   5.621   2.868
70111W        W36894  20.144  30.034  11.029
70112W        W36895  30.059  19.550  12.314
70113W        W36896  24.900  33.547  12.295
70114W        W36897  29.936  11.182  14.966
70115W        W36898   6.901  22.574   0.748
70116W        W36899   5.472  38.784   4.130
70117W        W36900   9.161  25.381  10.666
70118W        W36901  26.009  27.115  13.436
70119W        W36902  19.970  44.261  10.336
70120W        W36903  33.821  21.177  14.304
70121W        W36904  44.564  14.830  14.082
70122W        W36905  29.566   8.239  13.990
70123W        W36906  28.700   3.682   1.889
70124W        W36907  27.171  33.624   1.913
70125W        W36908  31.364  40.364  12.649
70126W        W36909  30.318  14.560   1.799
70127W        W36910  22.575  36.111  13.025
70128W        W36911  29.573  13.880   3.602
70129W        W36912   4.941  35.547  11.695
70130W        W36913  11.687  12.203  11.571
70131W        W36914  13.808   3.852  12.051
70132W        W36915   6.785  35.332   1.433
70133W        W36916  33.366  14.857  13.907
70134W        W36917  43.908  16.767  10.565
70135W        W36918   4.727  15.162  14.338
70136W        W36919   6.295  29.259   2.212
70137W        W36920   6.326  12.284  12.840
70138W        W36921  11.224   7.382   0.287
70139W        W36922   8.394  40.401  14.420
70140W        W36923  33.327  32.304   1.224
70141W        W36924  20.782  22.556  12.774
70142W        W36925  13.559  20.236  11.195
70143W        W36926  29.141   6.746   1.214
70144W        W36927  36.556  24.459  14.570
70145W        W36928  33.030  27.176   0.860
70146W        W36929  32.464  26.813  11.187
70147W        W36930   1.033  19.229   0.754
70148W        W36931  29.742  24.587   2.346
70149W        W36932  22.514  19.651   3.774
70150W        W36933  12.106   1.254  12.368
70151W        W36934  16.328  12.292  13.866
70152W        W36935   4.234  16.605   3.839
70153W        W36936  24.945  34.948  11.575
70154W        W36937  13.624  28.655   2.574
70155W        W36938  14.061  29.435  12.463
70156W        W36939  10.275  29.850  14.311
70157W        W36940  19.714  25.538   3.174
70158W        W36941  25.661  12.558  13.782
70159W        W36942   2.632   3.827  11.939
70160W        W36943  11.878   7.149   3.949
70161W        W36944   8.162  23.525   2.426
70162W        W36945   7.877  27.565   0.843
70163W        W36946  22.979  37.341   5.134
70164W        W36947  17.546  43.585   1.924
70165W        W36948   3.885  17.728   1.681
70166W        W36949  32.798  41.961  14.982
70167W        W36950  18.440  21.351   1.930
70168W        W36951  24.525  25.536  11.771
70169W        W36952  35.460  36.036   0.684
70170W        W36953  44.761   3.784  13.520
70171W        W36954  27.316  27.316  11.072
70172W        W36955  32.859  16.157   3.656
70173W        W36956  36.098  39.853  14.775
70174W        W36957   9.301  39.749   0.018
70175W        W36958  39.853   7.891  10.656
70176W        W36959  20.393  30.147  11.477
70177W        W36960   9.279  42.690   0.802
70178W        W36961   4.447  37.380   0.196
70179W        W36962  41.252   7.708   3.677
70180W        W36963  31.202  35.620  14.121
70181W        W36964  44.549  36.833   0.410
70182W        W36965  21.246   8.385   2.153
70183W        W36966   2.477  24.247   3.757
70184W        W36967  27.245  39.875   2.168
70185W        W36968  40.075  11.431   0.844
70186W        W36969   4.732  17.170  11.252
70187W        W36970  12.364  28.138  13.863
70188W        W36971   4.250  18.874   3.270
70189W        W36972  13.523  26.180  13.663
70190W        W36973  41.697  11.882   2.658
70191W        W36974  26.928   1.238  11.276
70192W        W36975   6.164   7.872  14.642
70193W        W36976  14.359   9.508  10.595
70194W        W36977   0.404  40.903  10.587
70195W        W36978  34.688  42.912   2.684
70196W        W36979  29.935  39.975   2.473
70197W        W36980  41.507   0.348  13.763
70198W        W36981  14.320  33.001   0.278
70199W        W36982  26.504   5.713   2.737
70200W        W36983  27.968  43.752  13.834
70201W        W36984  16.224   8.442  11.493
70202W        W36985   0.804   4.869  13.124
70203W        W36986  25.673  19.542   2.118
70204W        W36987   0.642   9.192  12.668
70205W        W36988  15.201  41.861  13.803
70206W        W36989  35.425  12.870   0.432
70207W        W36990  19.549  31.200   0.220
70208W        W36991  44.646   9.765   4.646
70209W        W36992  28.231  26.398   0.091
70210W        W36993   0.177  17.814   0.960
70211W        W36994  37.413  25.923   0.181
70212W        W36995  36.541  32.366   4.377
70213W        W36996   4.072  37.087   4.559
70214W        W36997  27.556  19.601   4.650
70215W        W36998  17.528  35.030   4.668
70216W        W36999  15.280  21.241   1.670
70217W        W37000  30.685  35.875   2.791
70218W        W37001  33.066   0.927   3.933
70219W        W37002  23.041   2.204   2.788
70220W        W37003   2.708  26.676  14.980
70221W        W37004   2.988  29.959  11.616
70222W        W37005   3.471  14.684  12.028
70223W        W37006   7.142   3.492  10.585
70224W        W37007   9.265  44.339   3.652
70225W        W37008  34.672   8.760   4.961
70226W        W37009  33.343  30.615  12.421
70227W        W37010  15.363  12.992  14.749
70228W        W37011  22.317  18.744   3.218
70229W        W37012  31.981  19.760  11.607
70230W        W37013   7.403  27.889   1.371
70231W        W37014  34.048  35.382  13.891
70232W        W37015   2.435   8.232   4.704
70233W        W37016   3.016   5.260   0.440
70234W        W37017  25.028  35.173  10.776
70235W        W37018  33.216  13.269   0.466
70236W        W37019  19.263  28.625   4.345
70237W        W37020  40.026  32.315  11.166
70238W        W37021  14.138  20.060  14.452
70239W        W37022  43.313  37.588   0.783
70240W        W37023  13.832  18.085  12.087
70241W        W37024  43.881  34.087   0.375
70242W        W37025  38.439  31.772  13.353
70243W        W37026  19.427  41.106   1.943
70244W        W37027  28.030  31.121   3.347
70245W        W37028  35.060  43.457  11.504
70246W        W37029   7.799  42.843  10.740
70247W        W37030  17.042  33.673   1.363
70248W        W37031  21.639  29.529   3.303
70249W        W37032  28.191   8.641  10.675
70250W        W37033  25.682  23.588   3.289
70251W        W37034  40.397  25.244  14.893
70252W        W37035  28.529  27.539  11.138
70253W        W37036  28.586  21.988   0.055
70254W        W37037  30.937  24.535   4.818
70255W        W37038  10.985   8.448  11.420
70256W        W37039   4.734   2.897  13.858
70257W        W37040   3.287  16.954   2.091
70258W        W37041  37.811  16.327   2.809
70259W        W37042  25.885  29.041   3.736
70260W        W37043   9.717  39.137   1.733
70261W        W37044  39.052  22.997   2.253
70262W        W37045  15.568  27.561   1.867
70263W        W37046   7.477  31.363   4.113
70264W        W37047  42.253  41.865  12.935
70265W        W37048  17.130  18.208  14.303
70266W        W37049  33.505  33.430   2.752
70267W        W37050  30.076   9.182   3.263
70268W        W37051  13.689  12.805   4.058
70269W        W37052  21.387  33.562   3.569
70270W        W37053  23.435  42.745  12.353
70271W        W37054  27.838  11.648  10.749
70272W        W37055  25.041  34.254  10.300
70273W        W37056   1.635   1.563   3.827
70274W        W37057   4.888  37.573   2.259
70275W        W37058  36.438  15.255   2.932
70276W        W37059  42.014  26.739  10.292
70277W        W37060  14.095  33.555   3.793
70278W        W37061  33.404  20.603  13.325
70279W        W37062  31.948   2.740  11.725
70280W        W37063   1.392  23.066  12.235
70281W        W37064   0.890  36.867   0.389
70282W        W37065  15.324   1.951   1.851
70283W        W37066   3.461  15.741  11.298
70284W        W37067  35.455  19.550   4.699
70285W        W37068  24.643  15.001   0.482
70286W        W37069  31.748  44.932  12.056
70287W        W37070  29.175  40.617  14.397
70288W        W37071  13.335  20.926   4.073
70289W        W37072   4.371   5.501  14.215
70290W        W37073  26.515  37.384  14.527
70291W        W37074   7.301  10.354  13.823
70292W        W37075  18.613  39.122   4.098
70293W        W37076   9.932  38.796  12.907
70294W        W37077  12.387   2.384  13.272
70295W        W37078   7.442  10.746   2.542
70296W        W37079   0.568  36.484  14.846
70297W        W37080   6.759  12.755  11.032
70298W        W37081  11.381   4.317  12.503
70299W        W37082  33.013   3.292  10.924
70300W        W37083  21.170  43.819  12.120
70301W        W37084  22.170  14.142   5.049
70302W        W37085   8.742  12.131   4.155
70303W        W37086  19.232   2.396   4.018
70304W        W37087   4.398  37.394   4.844
70305W        W37088  32.452   8.813  14.372
70306W        W37089   5.817  11.127   2.909
70307W        W37090   5.548   4.898  14.441
70308W        W37091  35.154   5.756  11.624
70309W        W37092  13.835  44.857   4.652
70310W        W37093  26.367  16.878  11.648
70311W        W37094  32.220   6.145   5.076
70312W        W37095  40.422  29.948  14.300
70313W        W37096  38.820  25.880   1.410
70314W        W37097   3.659   9.837  11.204
70315W        W37098  33.409  10.804   1.840
70316W        W37099  20.213  23.493   3.703
70317W        W37100  30.463  31.445   0.262
70318W        W37101  31.075  28.115   0.416
70319W        W37102  25.627   8.223  11.453
70320W        W37103  44.898  19.778   2.268
70321W        W37104  34.966  39.956   2.805
70322W        W37105  29.931  25.168  13.022
70323W        W37106  13.820  12.549  12.547
70324W        W37107  23.681   7.731   1.936
70325W        W37108   7.589  29.490  10.509
70326W        W37109  23.415   7.884  13.476
70327W        W37110   6.462  25.396   0.912
70328W        W37111  33.652  41.049  14.375
70329W        W37112  39.341  11.885  13.053
70330W        W37113   4.797  24.171   2.285
70331W        W37114   6.777  30.850   1.726
70332W        W37115  23.073  27.109   2.384
70333W        W37116  26.642  15.097   3.349
70334W        W37117  23.858  23.004   5.063
70335W        W37118  19.304   9.700  14.399
70336W        W37119  24.297  28.485   1.908
70337W        W37120   1.005   3.642  13.063
70338W        W37121  11.193   1.179  12.142
70339W        W37122  13.081  41.228   2.828
70340W        W37123   3.384   3.700   4.215
70341W        W37124  21.665  41.026   4.046
70342W        W37125  32.528  11.202   1.499
70343W        W37126  28.584  22.605  12.952
70344W        W37127  25.191  18.725   3.284
70345W        W37128  23.313  20.045  11.982
70346W        W37129  25.715  27.605  12.557
70347W        W37130  21.762  39.765   1.460
70348W        W37131  38.796   8.541   4.602
70349W        W37132  35.682  41.049   0.340
70350W        W37133  26.673  15.030  14.891
70351W        W37134  28.695   4.736   2.919
70352W        W37135  26.484  28.421  14.069
70353W        W37136   9.855  18.192  13.005
70354W        W37137  25.990  19.603   0.869
70355W        W37138  42.787  44.681  14.027
70356W        W37139  38.151   7.337  11.024
70357W        W37140  41.791   2.841  14.269
70358W        W37141   2.462  43.994  10.959
70359W        W37142  27.596   4.973   2.333
70360W        W37143  40.515  39.946  12.234
70361W        W37144  23.683  33.040   0.881
70362W        W37145   4.710  37.513   4.006
70363W        W37146  11.355   5.010  11.413
70364W        W37147  26.058  35.923   0.432
70365W        W37148  35.657   9.972   5.053
70366W        W37149   0.059  18.013  12.955
70367W        W37150  36.944   8.417   1.439
70368W        W37151  42.817   0.851  14.810
70369W        W37152   2.956  39.214  11.590
70370W        W37153  37.889   5.657  12.890
70371W        W37154  42.792  27.860   3.222
70372W        W37155  18.164  44.082  13.272
70373W        W37156  12.430  34.328   1.724
70374W        W37157  10.466  39.192  13.827
70375W        W37158  14.624  14.948  10.807
70376W        W37159  10.832  40.421   4.358
70377W        W37160  43.463  25.326  12.030
70378W        W37161   3.806  35.472   4.337
70379W        W37162   5.716  23.757   4.887
70380W        W37163   9.359  25.614   2.352
70381W        W37164  20.221  44.054   3.121
70382W        W37165   7.893   4.251   2.790
70383W        W37166   3.433  35.563  14.328
70384W        W37167  17.561  41.550  14.471
70385W        W37168  31.575  44.223   1.915
70386W        W37169  12.324   1.924  13.514
70387W        W37170  25.620  25.444   3.704
70388W        W37171   1.912  38.475   3.666
70389W        W37172  27.605   9.692  12.333
70390W        W37173  24.372  10.738  11.904
70391W        W37174  43.302  14.628   2.336
70392W        W37175  40.734   5.758  14.287
70393W        W37176  34.243  22.186   3.689
70394W        W37177  10.869   6.783  11.219
70395W        W37178  10.322  28.423   3.098
70396W        W37179  35.656  39.923  13.430
70397W        W37180  30.163  16.832  14.408
70398W        W37181  39.024  17.374  14.535
70399W        W37182  19.975   0.443   4.743
70400W        W37183  38.116  17.828   3.252
70401W        W37184  16.975  23.459   2.379
70402W        W37185  42.560   4.305  14.356
70403W        W37186  19.222  28.639   0.745
70404W        W37187  24.736  41.600   0.071
70405W        W37188  42.002   1.243  14.865
70406W        W37189  23.254   2.056   1.499
70407W        W37190  20.308  25.447  12.732
70408W        W37191  37.980  28.162   2.111
70409W        W37192  38.998   9.977  11.014
70410W        W37193  12.824  43.564   1.694
70411W        W37194   0.032  18.781   3.288
70412W        W37195  32.671  38.215   1.312
70413W        W37196  30.420  23.032  13.844
70414W        W37197   1.894  20.091   4.084
70415W        W37198  17.126  39.301  13.317
70416W        W37199  18.719  18.629  10.404
70417W        W37200  11.683  42.922   1.470
70418W        W37201  34.013  36.612  14.707
70419W        W37202  22.876  22.670  14.896
70420W        W37203   2.510  30.573   2.726
70421W        W37204   1.009  32.984  14.985
70422W        W37205  33.661  38.922   4.006
70423W        W37206  28.062  13.671  10.584
70424W        W37207   8.381  12.699  14.483
70425W        W37208   4.963  14.156  14.316
70426W        W37209   1.972  16.576   2.452
70427W        W37210  38.153  28.977  12.392
70428W        W37211  22.321  29.087  12.424
70429W        W37212  36.525   7.197  13.080
70430W        W37213  27.088  37.606  13.396
70431W        W37214  30.907  44.524   0.616
70432W        W37215  25.390  27.391  12.882
70433W        W37216  14.709  18.787   3.270
70434W        W37217   1.886   2.054  13.067
70435W        W37218   7.278  10.032   4.937
70436W        W37219  15.316  17.057   4.329
70437W        W37220  37.278  37.033   4.168
70438W        W37221   7.294  32.634   2.297
70439W        W37222   8.820  28.649  14.160
70440W        W37223  21.506  34.985  12.717
70441W        W37224  25.401  38.190   1.874
70442W        W37225  15.143  12.771  13.797
70443W        W37226   9.392  43.336   1.277
70444W        W37227   6.217   0.196  14.409
70445W        W37228  25.009  34.096   2.113
70446W        W37229   0.808  37.229   4.139
70447W        W37230  25.434   7.109  13.073
70448W        W37231  12.612  39.797   0.399
70449W        W37232   3.497  26.063  11.717
70450W        W37233  33.635  23.260  10.715
70451W        W37234  43.499  34.940  12.407
70452W        W37235  40.851  43.023  12.600
70453W        W37236  38.345   0.342   3.263
70454W        W37237  33.762   0.221   5.010
70455W        W37238  30.058  14.508   2.262
70456W        W37239  36.394  41.329   1.477
70457W        W37240  28.122  20.345   4.597
70458W        W37241   6.118  13.704   0.753
70459W        W37242  42.328  23.451  14.885
70460W        W37243  19.918  41.175  13.823
70461W        W37244  30.000  44.046   2.807
70462W        W37245  10.685   1.035  10.950
70463W        W37246  22.839   9.111  14.456
70464W        W37247  40.898  20.748  12.871
70465W        W37248   7.290  32.091   1.684
70466W        W37249  41.539  12.815  13.880
70467W        W37250  25.301  26.754  14.993
70468W        W37251  11.770  42.000   0.343
70469W        W37252  32.235  35.315   1.725
70470W        W37253   9.336  35.821  13.891
70471W        W37254  32.812  12.335   2.156
70472W        W37255  12.614   5.645   1.373
70473W        W37256  40.037   1.760   1.199
70474W        W37257  31.483  19.111  10.537
70475W        W37258  38.073  12.774   3.535
70476W        W37259   7.340   9.286  12.457
70477W        W37260  11.289  29.524   4.061
70478W        W37261  25.530  38.074   1.389
70479W        W37262   5.725  33.502  12.118
70480W        W37263  13.082  32.256   1.797
70481W        W37264  17.971  43.414  14.870
70482W        W37265  13.271  41.506  14.413
70483W        W37266  34.944  40.295   3.770
70484W        W37267  33.209  31.082   2.623
70485W        W37268   8.284  15.595   0.280
70486W        W37269  18.456   8.656   0.283
70487W        W37270  25.202  42.576   2.654
70488W        W37271  36.734  13.175  11.661
70489W        W37272  16.601  38.006   5.084
70490W        W37273   5.838  30.978   0.375
70491W        W37274   2.794  34.571   3.154
70492W        W37275  35.807  25.792   3.907
70493W        W37276  28.078  27.597  11.364
70494W        W37277  24.680  23.826   5.411
70495W        W37278  13.645  38.980   1.620
70496W        W37279  41.626  24.518  11.117
70497W        W37280  37.940  43.437  10.585
70498W        W37281  23.236  13.815   1.183
70499W        W37282  32.192  26.604  10.262
70500W        W37283  27.757   1.195   1.465
70501W        W37284  25.025   3.867  13.606
70502W        W37285   2.545  38.376   1.719
70503W        W37286  29.118  12.924  13.101
70504W        W37287  42.048  39.498  14.474
70505W        W37288  12.150   5.809   1.531
70506W        W37289  24.636  10.102   0.919
70507W        W37290  17.763  29.423  11.893
70508W        W37291  36.155   1.781   4.096
70509W        W37292  13.580  15.788  10.748
70510W        W37293   2.924   6.398   1.696
70511W        W37294  22.893  10.310   1.918
70512W        W37295  15.152  22.046  14.480
70513W        W37296   0.755  10.367   0.370
70514W        W37297  39.512  12.143  12.077
70515W        W37298  40.496  11.324  12.274
70516W        W37299  10.136  30.893   4.123
70517W        W37300   7.593  30.354   3.180
70518W        W37301  39.866   6.842   2.102
70519W        W37302  23.583  38.420   4.085
70520W        W37303   5.426  17.235   1.206
70521W        W37304  10.423  10.224   3.232
70522W        W37305  10.429  24.296  10.906
70523W        W37306   8.834  28.783   3.719
70524W        W37307  29.461  20.173  13.330
70525W        W37308  15.191  20.948  14.328
70526W        W37309  11.430  30.624   4.981
70527W        W37310  10.327   0.313   1.355
70528W        W37311  36.670  31.101   1.225
70529W        W37312  12.514  28.710  14.864
70530W        W37313   4.722  31.708  13.075
70531W        W37314  20.046   0.965   1.404
70532W        W37315  41.883  10.736  13.977
70533W        W37316  15.519  18.164   0.040
70534W        W37317  41.390  31.615   1.901
70535W        W37318   1.404  12.025  10.384
70536W        W37319  29.461  22.823  10.763
70537W        W37320  40.573   3.930   1.844
70538W        W37321  36.779  15.618  14.849
70539W        W37322  14.329  22.716   1.261
70540W        W37323  27.251  21.976   2.363
70541W        W37324  24.903  37.749   4.133
70542W        W37325  23.489  15.054   1.789
70543W        W37326  44.228   6.991   3.095
70544W        W37327  21.977  20.200   2.725
70545W        W37328  40.463   3.648  13.306
70546W        W37329  16.665  11.265   3.581
70547W        W37330   3.341  13.168  12.797
70548W        W37331  32.344   4.944   3.157
70549W        W37332  32.741  38.979  14.010
70550W        W37333   8.790  20.131  11.149
70551W        W37334  44.533  27.414   2.541
70552W        W37335  34.098  43.084   2.874
70553W        W37336  30.393  19.275   2.887
70554W        W37337  44.329  25.409   0.320
70555W        W37338   1.245  44.535  13.491
70556W        W37339  28.955   6.207  13.124
70557W        W37340  30.242  39.999  10.027
70558W        W37341  36.471  44.125  13.929
70559W        W37342   3.281  21.981   2.877
70560W        W37343   6.902  41.487   3.263
70561W        W37344  32.539  33.518   4.896
70562W        W37345  18.613  16.691   2.137
70563W        W37346  26.695  17.308   3.542
70564W        W37347   2.501  17.317  12.024
70565W        W37348  40.972  19.391  13.981
70566W        W37349  31.741  42.817   4.918
70567W        W37350   5.494   8.882  13.917
70568W        W37351   6.420  29.687   5.064
70569W        W37352   6.671  44.868   3.915
70570W        W37353  35.601   4.581   3.215
70571W        W37354   6.549  44.413   4.620
70572W        W37355  15.684  42.563   0.529
70573W        W37356   6.965  19.697   4.599
70574W        W37357  19.268   8.902   4.946
70575W        W37358  38.815  18.740  10.143
70576W        W37359  41.580   4.410   3.924
70577W        W37360   3.239  22.693   3.623
70578W        W37361  40.475  40.447  13.608
70579W        W37362  40.589  30.995  12.221
70580W        W37363  31.340  17.109  10.748
70581W        W37364  39.929  24.206  11.869
70582W        W37365  29.604  27.539  11.200
70583W        W37366   5.173  35.064   3.871
70584W        W37367   2.836  30.937  11.430
70585W        W37368  12.921  19.584   3.006
70586W        W37369  27.224  17.745   4.365
70587W        W37370   4.331  30.553  10.515
70588W        W37371   8.617  21.260   1.967
70589W        W37372  17.851  43.603   2.357
70590W        W37373  43.862  31.336  14.371
70591W        W37374  37.081  25.702   1.193
70592W        W37375  42.812  30.767  10.793
70593W        W37376  13.351  29.697  10.329
70594W        W37377  13.127  18.699  11.580
70595W        W37378  18.205   8.582  11.480
70596W        W37379  12.351  24.501  13.648
70597W        W37380  22.299  37.374  14.316
70598W        W37381  10.122  11.377  10.980
70599W        W37382  37.380  28.998   4.634
70600W        W37383  14.249   2.915  10.455
70601W        W37384  36.635  19.604  10.532
70602W        W37385  18.153   4.438  14.345
70603W        W37386  12.330  28.755  13.005
70604W        W37387   7.178   6.761  13.426
70605W        W37388  28.115  15.802  12.894
70606W        W37389  35.118  31.528  13.495
70607W        W37390   9.111  32.873   3.249
70608W        W37391  21.796  31.588   0.449
70609W        W37392  11.885  14.559   0.417
70610W        W37393   1.373  24.459  12.161
70611W        W37394  36.604  42.929   0.712
70612W        W37395  34.891  34.633   2.419
70613W        W37396   0.784   4.948  14.473
70614W        W37397  30.426  20.495  11.056
70615W        W37398   5.538  28.099   0.374
70616W        W37399  31.813  12.192   4.158
70617W        W37400  29.908  17.669  13.780
70618W        W37401   8.969  24.671  14.865
70619W        W37402  20.173  27.512  13.532
70620W        W37403  13.185  27.666  14.035
70621W        W37404  15.441  20.308  13.889
70622W        W37405  17.163   9.337  12.954
70623W        W37406  23.727  36.023   1.629
70624W        W37407  24.539   2.385  13.868
70625W        W37408   1.403  20.724   0.923
70626W        W37409   6.645  29.421   4.372
70627W        W37410  37.212   4.507  14.852
70628W        W37411  42.052  32.479  10.575
70629W        W37412  39.896   7.144  11.561
70630W        W37413  30.550  44.449  14.493
70631W        W37414  12.251  31.088   4.284
70632W        W37415  12.731   8.240  12.022
70633W        W37416  34.455  39.045  11.582
70634W        W37417  28.074  15.769   4.943
70635W        W37418  33.978  44.668   1.803
70636W        W37419  25.485   2.067  11.935
70637W        W37420  28.193  15.055  12.997
70638W        W37421  39.501  10.071  14.411
70639W        W37422  33.487   0.753   1.296
70640W        W37423  13.850  24.081  13.868
70641W        W37424  12.806  23.041   3.382
70642W        W37425  27.898  33.613  11.657
70643W        W37426  12.736  32.293   1.420
70644W        W37427  12.895  40.594   1.649
70645W        W37428  27.169  20.881  13.841
70646W        W37429  21.641   9.900  10.855
70647W        W37430  28.041  36.575   4.544
70648W        W37431  28.438  29.112  13.284
70649W        W37432  21.151   6.527   0.700
70650W        W37433  40.680  34.612   1.459
70651W        W37434  43.212  26.685   2.832
70652W        W37435  13.495   6.160  11.362
70653W        W37436  42.020   4.869  14.031
70654W        W37437   7.882   0.143  14.320
70655W        W37438  12.164   6.721  10.685
70656W        W37439  31.351  41.189   3.347
70657W        W37440   7.367  12.334  13.877
70658W        W37441  13.760  41.227  12.476
70659W        W37442   5.610   1.195  11.909
70660W        W37443   9.402  15.810  10.357
70661W        W37444  36.921  10.299  14.537
70662W        W37445  28.553  33.855  14.795
70663W        W37446  29.745  37.811  14.094
70664W        W37447  13.173   3.487   4.508
70665W        W37448   6.871  34.991   2.351
70666W        W37449  42.302   0.492   2.369
70667W        W37450  44.229  15.736   4.507
70668W        W37451   4.943  10.070   1.768
70669W        W37452  33.005  25.965   0.257
70670W        W37453  16.128  29.544  11.673
70671W        W37454   6.675  44.568  13.996
70672W        W37455  31.807  11.673   2.776
70673W        W37456  18.158  18.920   2.414
70674W        W37457   1.724   4.677   4.242
70675W        W37458  18.600  18.067   2.209
70676W        W37459  23.976  13.161  14.548
70677W        W37460  34.907   8.459   4.046
70678W        W37461  40.578  25.596  10.438
70679W        W37462  42.353  24.684   0.422
70680W        W37463   9.541   1.709  10.286
70681W        W37464  15.205   2.258   4.608
70682W        W37465  43.773  44.176  13.425
70683W        W37466  26.434  33.584   0.744
70684W        W37467   5.747  41.242   0.406
70685W        W37468  34.491  33.628  11.566
70686W        W37469  36.018   6.149   2.518
70687W        W37470   6.442  39.273   4.970
70688W        W37471  36.752  25.903  11.894
70689W        W37472   8.431  19.705  13.935
70690W        W37473  34.381   4.962  10.782
70691W        W37474  39.510  33.569   4.373
70692W        W37475  37.463  27.652   1.298
70693W        W37476  17.470  42.255  12.489
70694W        W37477  18.682   7.278  11.694
70695W        W37478   7.736  38.003   3.336
70696W        W37479   8.687  17.648   3.641
70697W        W37480  27.456  35.451   2.859
70698W        W37481  15.614   0.166  13.410
70699W        W37482  14.175  36.964   3.153
70700W        W37483  34.474  10.090  12.425
70701W        W37484  25.971  24.466  14.669
70702W        W37485  28.547   6.044   4.889
70703W        W37486  31.665   2.023   4.244
70704W        W37487  36.312  37.394   3.341
70705W        W37488   5.889  14.557  11.917
70706W        W37489  26.406  21.008   2.253
70707W        W37490   0.491  44.307  13.895
70708W        W37491  32.837  11.130  11.227
70709W        W37492  16.398  39.953  11.074
70710W        W37493  41.559  39.828   0.801
70711W        W37494   3.902   2.105   4.564
70712W        W37495  34.954  41.061  10.121
70713W        W37496  37.319  30.115  14.019
70714W        W37497   5.649  10.342  13.265
70715W        W37498  23.963  15.142   3.774
70716W        W37499   5.346  28.520  14.685
70717W        W37500  16.619   3.041   3.601
70718W        W37501  12.271  36.546  14.977
70719W        W37502   4.179  17.986   4.575
70720W        W37503  24.975   4.270   1.840
70721W        W37504  11.105   5.156   4.480
70722W        W37505  28.536  12.198  11.544
70723W        W37506  40.752  17.044   5.417
70724W        W37507  33.378  42.038  12.885
70725W        W37508  42.021  24.263  13.552
70726W        W37509   4.236  21.112  12.601
70727W        W37510  25.719   5.742   3.708
70728W        W37511  28.469  12.351  12.046
70729W        W37512   4.703  39.348  13.513
70730W        W37513  16.043  18.453   5.122
70731W        W37514  11.104  19.807  11.227
70732W        W37515  33.444  21.786   2.635
70733W        W37516  26.657  40.900  13.877
70734W        W37517  10.933  11.682  14.774
70735W        W37518  35.517  38.110   0.968
70736W        W37519  23.698  18.902   2.232
70737W        W37520  22.544  41.567   1.791
70738W        W37521  19.701   7.681   0.371
70739W        W37522  37.830   5.552   4.865
70740W        W37523  44.477  32.252  11.024
70741W        W37524  27.493  23.028  11.044
70742W        W37525  19.755   8.471  13.582
70743W        W37526   1.678  26.707   3.753
70744W        W37527  35.036  36.399  11.644
70745W        W37528  41.796  20.040  11.282
70746W        W37529   9.596  18.556   1.335
70747W        W37530  38.542  30.950  12.890
70748W        W37531  44.123  23.052   3.314
70749W        W37532  44.275  32.368  11.641
70750W        W37533  36.505  22.272   0.350
70751W        W37534  24.034  22.688   2.139
70752W        W37535  30.467  24.724   3.670
70753W        W37536  32.008  30.317  12.548
70754W        W37537  26.376   4.955  12.075
70755W        W37538   6.670   2.947  12.419
70756W        W37539  13.211  12.851  10.646
70757W        W37540  37.555  24.203  10.560
70758W        W37541  10.843  18.194  14.790
70759W        W37542  17.790  27.653   1.408
70760W        W37543  12.757  21.629   4.448
70761W        W37544  10.437  10.721   3.435
70762W        W37545  44.084  21.057   1.224
70763W        W37546  24.041   7.374  13.068
70764W        W37547  11.775  20.067   3.883
70765W        W37548  31.477  42.941  10.786
70766W        W37549  21.930  31.754   2.365
70767W        W37550   1.439  14.659   1.288
70768W        W37551  26.699  32.938   1.933
70769W        W37552  39.557   1.575  11.312
70770W        W37553  27.548  32.329  12.003
70771W        W37554  33.445  14.869   3.811
70772W        W37555  33.556  25.194  14.360
70773W        W37556  30.119  12.659   1.709
70774W        W37557   4.036   5.370  13.725
70775W        W37558  27.018  25.626  12.294
70776W        W37559  27.670  31.135   0.755
70777W        W37560  43.430  32.423   2.173
70778W        W37561  13.683  25.178   3.752
70779W        W37562  40.980  22.687  13.204
70780W        W37563  26.127  23.441  13.433
70781W        W37564  10.833   6.787   3.258
70782W        W37565  10.014  24.960   3.875
70783W        W37566  11.925  33.437  14.452
70784W        W37567  25.988   7.841  13.960
70785W        W37568  24.624  17.775   1.437
70786W        W37569  14.386   1.746  12.823
70787W        W37570  10.675  39.781  10.934
70788W        W37571  29.118  13.632   2.788
70789W        W37572  20.982  20.298  13.847
70790W        W37573  22.008  22.179  13.444
70791W        W37574  12.027  11.030  11.123
70792W        W37575  17.113  22.985   3.846
70793W        W37576  40.069  36.465  10.710
70794W        W37577  10.184   9.337   0.965
70795W        W37578   3.433  21.132  10.237
70796W        W37579  22.596  21.519   1.943
70797W        W37580  28.412  25.587   0.314
70798W        W37581   0.439   8.482   1.376
70799W        W37582   7.439  19.342   4.481
70800W        W37583  26.263  41.933   4.957
70801W        W37584  18.065  17.328   1.440
70802W        W37585  12.107  32.478  11.943
70803W        W37586  13.755   6.201   1.794
70804W        W37587  36.329   7.852   1.300
70805W        W37588  21.186  16.096  10.403
70806W        W37589  21.142  29.565   0.372
70807W        W37590   3.179  25.540  11.062
70808W        W37591  24.567   6.136  10.515
70809W        W37592  25.647   5.848  13.020
70810W        W37593   3.840  39.841  13.434
70811W        W37594  31.528   0.936   4.071
70812W        W37595  39.717  37.772  14.868
70813W        W37596  32.036  17.868  11.498
70814W        W37597  22.032  21.116   0.914
70815W        W37598  37.967  17.226  14.478
70816W        W37599  21.666  32.302  13.048
70817W        W37600   8.357  33.401   3.634
70818W        W37601   8.076  43.717  12.646
70819W        W37602  39.318  30.470  14.971
70820W        W37603  25.554   4.366  11.005
70821W        W37604  16.373  37.228   1.415
70822W        W37605  24.668   8.091   1.122
70823W        W37606  39.169  19.104  10.412
70824W        W37607  41.528  23.615  11.393
70825W        W37608  38.876  16.016  13.483
70826W        W37609  26.065  24.582   0.771
70827W        W37610  13.129  27.906  13.579
70828W        W37611  28.671  24.904   0.758
70829W        W37612  39.408  11.424   0.064
70830W        W37613  17.104  26.099  13.414
70831W        W37614   6.795   7.867  10.665
70832W        W37615  42.558  36.320   0.929
70833W        W37616   7.796  43.687  14.327
70834W        W37617  16.371   8.870  12.915
70835W        W37618  28.223  25.141   0.898
70836W        W37619  11.338  40.530   4.507
70837W        W37620  12.258  19.272  12.446
70838W        W37621   5.882  41.361   0.877
70839W        W37622  44.716  19.188   3.134
70840W        W37623  22.357  17.152  12.074
70841W        W37624  12.130   0.911   1.079
70842W        W37625  36.460  14.915  11.634
70843W        W37626   0.896  15.689  12.939
70844W        W37627   8.772  36.566  13.960
70845W        W37628   2.043  22.090   0.034
70846W        W37629  20.585  38.813   1.347
70847W        W37630   1.537   1.439  14.558
70848W        W37631  43.886  38.158   2.447
70849W        W37632   8.883  14.131   2.711
70850W        W37633   9.412  18.180   0.553
70851W        W37634  37.581  30.096   0.805
70852W        W37635  39.411   1.591   1.194
70853W        W37636  39.992  27.228  12.122
70854W        W37637  42.192   7.308  11.447
70855W        W37638  25.542  17.752   3.355
70856W        W37639  14.313  18.216   4.058
70857W        W37640  36.876  32.549   1.496
70858W        W37641   6.282  28.406  12.588
70859W        W37642   4.135  34.478  11.686
70860W        W37643  11.709  21.108  13.884
70861W        W37644  23.131  12.596  11.172
70862W        W37645  15.442  32.282   4.099
70863W        W37646  27.667  12.708  10.506
70864W        W37647  21.935  34.798   3.074
70865W        W37648  32.672  11.841  12.191
70866W        W37649  37.108   0.515  11.025
70867W        W37650  42.347  39.443   1.712
70868W        W37651  24.258  36.408  13.503
70869W        W37652  35.224   5.905   1.416
70870W        W37653   3.939  37.577   2.157
70871W        W37654  16.775  41.486  11.249
70872W        W37655  12.709  11.044   0.971
70873W        W37656   0.699  19.560   3.740
70874W        W37657  40.830  29.141  11.157
70875W        W37658  41.772  22.309  12.421
70876W        W37659  39.473  24.980   2.693
70877W        W37660  41.506   8.779   1.441
70878W        W37661   4.845  32.367   3.861
70879W        W37662  14.594   0.800  12.012
70880W        W37663  44.916  30.453  14.727
70881W        W37664  44.393  28.964   0.462
70882W        W37665  10.263   1.953  14.608
70883W        W37666   7.295  39.784   3.776
70884W        W37667  35.023   0.772   2.098
70885W        W37668  40.956  31.599  13.757
70886W        W37669  20.576   2.569  11.148
70887W        W37670  20.307  27.173  11.557
70888W        W37671  33.593  27.950   4.688
70889W        W37672  37.559  15.646  13.004
70890W        W37673   4.443  22.869  14.935
70891W        W37674  25.193  11.177   1.876
70892W        W37675   1.805  43.499  14.015
70893W        W37676  36.884   6.919  14.769
70894W        W37677  11.096   0.750   4.047
70895W        W37678  22.402   9.152   3.306
70896W        W37679  10.147  36.502  12.385
70897W        W37680   1.089  37.514   2.502
70898W        W37681   1.263  17.552  13.971
70899W        W37682  26.930   1.194   2.141
70900W        W37683  16.298  38.928   2.091
70901W        W37684   3.143  36.794   1.714
70902W        W37685  13.258  38.812   1.930
70903W        W37686  33.859  10.084   1.941
70904W        W37687  22.738   3.948   4.245
70905W        W37688  10.605  40.975  13.893
70906W        W37689   4.499  25.237   3.733
70907W        W37690   4.867  15.968   3.527
70908W        W37691  18.998   2.057  14.893
70909W        W37692  12.606  35.142  10.609
70910W        W37693   2.332  20.381   4.183
70911W        W37694  33.411  25.500  12.126
70912W        W37695  28.956  39.338  13.011
70913W        W37696  37.430  17.040   3.202
70914W        W37697   3.890   8.689   2.886
70915W        W37698  10.657  26.285  10.626
70916W        W37699  43.595  43.524   1.357
70917W        W37700  41.359   5.964  12.116
70918W        W37701  35.410  17.543  10.676
70919W        W37702  34.028  19.094   1.219
70920W        W37703   1.678  42.995  12.805
70921W        W37704  23.894  12.196  10.819
70922W        W37705  11.281   8.170   2.345
70923W        W37706  39.126   1.752   4.867
70924W        W37707  22.034  42.869   4.232
70925W        W37708   8.126   0.440   0.836
70926W        W37709  29.069  25.822   3.150
70927W        W37710  34.914  30.376   4.565
70928W        W37711   3.751  16.920   2.330
70929W        W37712  40.514  21.627   0.586
70930W        W37713  41.349  16.329  12.387
70931W        W37714  40.784   8.954  14.466
70932W        W37715   7.921  44.571  11.467
70933W        W37716  26.019  22.448   0.326
70934W        W37717  42.233  11.544  11.558
70935W        W37718  38.141   3.985  11.115
70936W        W37719   5.541  13.705  14.103
70937W        W37720  20.793   9.627   2.707
70938W        W37721   5.107  20.234   1.249
70939W        W37722  25.778  21.691  13.948
70940W        W37723  15.503  18.642   1.329
70941W        W37724  35.322  38.627   1.897
70942W        W37725  24.423  37.111   3.806
70943W        W37726  42.262   0.872   2.773
70944W        W37727  24.695  40.040   1.625
70945W        W37728  26.554  10.564  12.488
70946W        W37729  42.480  17.070   4.338
70947W        W37730   2.818  42.747   4.135
70948W        W37731  14.241   3.894   2.485
70949W        W37732  43.830   7.711  13.482
70950W        W37733   3.277  33.101   3.601
70951W        W37734  16.844  39.810  11.478
70952W        W37735  41.707  37.738   2.759
70953W        W37736  28.610  44.335   1.283
70954W        W37737  31.034   0.012   0.873
70955W        W37738  23.034  19.977  13.992
70956W        W37739  12.949   6.683  11.134
70957W        W37740  38.088  42.722  14.466
70958W        W37741  14.067   7.939  12.802
70959W        W37742  20.976  12.857  10.198
70960W        W37743  25.108  44.885   0.284
70961W        W37744   6.382  17.124   1.192
70962W        W37745  37.084   5.868  14.850
70963W        W37746   9.780  42.510  14.513
70964W        W37747  37.239   3.298  13.871
70965W        W37748  20.390  17.524  11.568
70966W        W37749  36.930  35.501  12.216
70967W        W37750  17.436  19.585   0.551
70968W        W37751  28.952  30.057  11.031
70969W        W37752  20.040  33.945   3.095
70970W        W37753   0.151  30.617  11.880
70971W        W37754  13.786  44.821  12.135
70972W        W37755  33.969  17.500   3.391
70973W        W37756  26.254  14.653   4.029
70974W        W37757  17.873   0.325  11.698
70975W        W37758  41.515  24.567   3.152
70976W        W37759  31.535  24.902   1.685
70977W        W37760  23.703  18.580  12.139
70978W        W37761   2.564  35.605  14.682
70979W        W37762  30.397  33.932   2.219
70980W        W37763   1.503  21.683  13.921
70981W        W37764   3.750  20.063   0.725
70982W        W37765  15.755  25.218  14.744
70983W        W37766   8.624  27.584   0.391
70984W        W37767  29.621  21.605   4.778
70985W        W37768  32.308  36.295   2.331
70986W        W37769  24.649  27.367   1.403
70987W        W37770   0.294   4.371  11.304
70988W        W37771  13.751  14.161  12.588
70989W        W37772  21.675   2.294   3.222
70990W        W37773  32.026  41.823   2.296
70991W        W37774  11.153  41.878   0.818
70992W        W37775   3.320  20.480   0.089
70993W        W37776  33.895  14.093  13.056
70994W        W37777   0.495  20.091   1.785
70995W        W37778  32.535   2.786   1.481
70996W        W37779  25.374  28.744   0.740
70997W        W37780  33.933  42.875   1.459
70998W        W37781  21.683  24.008   1.242
70999W        W37782  29.801  41.977   9.869
71000W        W37783   6.940  13.220  10.879
71001W        W37784  37.108  23.374  12.504
71002W        W37785   3.386   7.657  12.084
71003W        W37786  17.099  10.971  14.485
71004W        W37787   1.407   8.552   2.792
71005W        W37788  38.525   4.306  12.450
71006W        W37789  26.913  15.337   2.882
71007W        W37790  16.279  14.089   4.575
71008W        W37791  18.081   1.335   3.035
71009W        W37792  22.192  16.341  14.802
71010W        W37793  35.000  29.332  10.612
71011W        W37794  32.312  11.609   2.729
71012W        W37795   9.409  33.604   1.896
71013W        W37796  23.212   2.014  14.726
71014W        W37797  36.837  14.194   0.024
71015W        W37798  34.102  34.122   0.367
71016W        W37799   9.276  24.057   2.162
71017W        W37800  35.050   2.247   1.710
71018W        W37801  16.197  14.253  14.809
71019W        W37802   1.897  15.103   2.296
71020W        W37803  17.063  26.213  12.854
71021W        W37804  20.771  29.928   0.390
71022W        W37805  30.508  31.098  12.853
71023W        W37806  21.096  28.835  12.156
71024W        W37807   0.752  16.315  13.455
71025W        W37808  19.748  24.251   0.427
71026W        W37809  13.979  28.018  11.155
71027W        W37810  40.847  42.448   2.843
71028W        W37811  21.968  22.750  12.460
71029W        W37812  38.580  31.972   1.790
71030W        W37813   3.810  31.003  11.876
71031W        W37814   1.937  16.032   0.556
71032W        W37815  22.978  33.375  12.268
71033W        W37816  15.886  36.434  13.855
71034W        W37817   4.954  27.412   3.629
71035W        W37818   3.223  33.089  12.052
71036W        W37819   7.805  43.857   1.835
71037W        W37820  30.757  32.122   1.716
71038W        W37821  44.313  30.619   0.003
71039W        W37822  43.689  19.750  12.509
71040W        W37823  39.032  22.265  14.850
71041W        W37824  26.527   3.919   4.763
71042W        W37825  44.258  17.558  13.791
71043W        W37826  15.325   1.157  10.734
71044W        W37827  44.760  16.829  12.723
71045W        W37828  35.785  30.426  14.397
71046W        W37829  41.066  23.837   2.752
71047W        W37830  28.472  42.162  10.662
71048W        W37831  22.440  38.581   3.831
71049W        W37832  26.621   5.775  11.448
71050W        W37833  37.113   7.164  10.299
71051W        W37834  24.193  12.134   2.035
71052W        W37835  31.912   1.324   4.795
71053W        W37836   3.055   1.458  11.050
71054W        W37837   5.193  18.522   1.613
71055W        W37838  15.567  32.591   3.652
71056W        W37839  39.941   5.468   2.264
71057W        W37840  17.807  30.506   1.416
71058W        W37841  18.537  25.274  13.340
71059W        W37842  41.877  23.537  12.872
71060W        W37843  17.247  23.744   4.486
71061W        W37844  44.078  20.929   4.495
71062W        W37845  20.496  15.403  13.523
71063W        W37846  21.748  34.083  13.865
71064W        W37847  25.444  26.682   2.265
71065W        W37848   2.303  23.580   2.974
71066W        W37849  26.578  27.721   0.468
71067W        W37850  35.480  23.749  13.602
71068W        W37851  23.702  24.510   1.271
71069W        W37852  11.209  36.996   4.743
71070W        W37853  39.036   2.473  14.145
71071W        W37854  20.144  41.508   4.565
71072W        W37855  13.734  17.480   2.200
71073W        W37856  20.069   9.197  12.451
71074W        W37857  25.192  20.319   2.373
71075W        W37858  44.780  33.852  14.307
71076W        W37859  42.544  34.475   3.920
71077W        W37860   8.610  21.245   4.269
71078W        W37861  23.767  31.009  14.716
71079W        W37862  39.356  11.140   3.637
71080W        W37863  37.923  24.175  11.544
71081W        W37864  39.057  40.839  14.919
71082W        W37865   9.233  33.018   1.132
71083W        W37866  39.013  13.891   5.435
71084W        W37867  36.052  17.486   2.857
71085W        W37868  42.973  24.513  11.542
71086W        W37869  15.708  24.680   2.099
71087W        W37870  37.392   9.315  10.692
71088W        W37871   9.588  30.484  11.931
71089W        W37872  37.379   1.749   2.885
71090W        W37873   9.232   2.166  12.337
71091W        W37874  43.082  34.640  12.524
71092W        W37875  11.254  28.503  10.381
71093W        W37876  10.963  36.905   3.187
71094W        W37877  37.783   8.620  14.878
71095W        W37878  30.067  18.091   3.193
71096W        W37879  12.525  32.868  11.073
71097W        W37880  34.364  21.041  11.493
71098W        W37881  29.184  25.767  14.391
71099W        W37882  24.551   4.017   1.132
71100W        W37883  32.366  15.628   2.294
71101W        W37884   6.654  16.683   1.209
71102W        W37885  39.043  41.466   1.057
71103W        W37886   6.008   1.952   0.806
71104W        W37887  16.051  40.813  11.648
71105W        W37888  29.955  17.239  11.743
71106W        W37889   7.766  10.278   3.660
71107W        W37890  40.509   5.881  14.786
71108W        W37891  25.862   1.365   4.885
71109W        W37892  11.649  18.048   2.185
71110W        W37893  23.244   3.236  11.627
71111W        W37894  23.739  42.459  14.210
71112W        W37895  32.944  40.802   2.270
71113W        W37896  27.207   6.922  14.505
71114W        W37897   5.202  18.715  11.089
71115W        W37898  17.804  25.301   1.347
71116W        W37899  43.701  43.838  12.590
71117W        W37900  21.213   0.046   4.538
71118W        W37901  12.566  28.364   3.691
71119W        W37902  26.646  30.682  10.886
71120W        W37903  33.071  18.211  14.004
71121W        W37904  31.707  33.520   0.343
71122W        W37905  10.369   1.893   2.440
71123W        W37906  31.721   5.446  13.783
71124W        W37907  33.556  31.097  13.097
71125W        W37908   8.157  13.255   2.408
71126W        W37909  40.074   1.273   0.454
71127W        W37910  44.522  35.374   1.686
71128W        W37911   3.477   5.747   3.790
71129W        W37912   5.109   5.241  13.397
71130W        W37913  14.249  42.743   4.558
71131W        W37914  39.833  34.666  10.880
71132W        W37915  41.030  23.922  14.656
71133W        W37916  10.197   6.159  10.700
71134W        W37917  41.219   7.503   4.974
71135W        W37918  27.066   8.715   0.477
71136W        W37919  10.292  23.501  12.082
71137W        W37920  40.114   9.834   1.936
71138W        W37921   2.457   8.467   2.745
71139W        W37922   1.019   7.281   5.071
71140W        W37923  28.552  22.828   4.103
71141W        W37924  25.761  16.738   1.198
71142W        W37925  10.252   7.212  12.117
71143W        W37926  12.790  11.423  11.107
71144W        W37927   3.372  22.433   2.601
71145W        W37928  37.838   2.999   4.518
71146W        W37929  43.941  21.770  11.812
71147W        W37930   5.848  43.591   3.177
71148W        W37931  22.321  25.227   4.984
71149W        W37932  32.560  22.470   2.764
71150W        W37933  34.341  33.629  12.479
71151W        W37934   5.397  17.379   0.710
71152W        W37935   5.454  43.935   1.489
71153W        W37936   6.713  28.712  12.570
71154W        W37937  11.311   2.209  14.865
71155W        W37938  31.539  15.036  12.012
71156W        W37939  12.713  16.117   4.706
71157W        W37940  23.714  10.559   1.362
71158W        W37941  37.619  37.895  11.249
71159W        W37942  44.574  18.197   0.554
71160W        W37943  20.630   0.771   0.533
71161W        W37944  17.624   1.215   3.283
71162W        W37945  27.309  16.681   1.324
71163W        W37946   4.189  38.968   4.636
71164W        W37947   6.022  28.469  10.742
71165W        W37948  20.718  43.177  12.091
71166W        W37949   0.036  12.142  10.741
71167W        W37950  34.378  11.373  12.768
71168W        W37951   5.964   0.538  14.721
71169W        W37952  25.733  10.192   1.179
71170W        W37953   5.678  41.023  11.989
71171W        W37954  20.211  13.083  14.896
71172W        W37955  13.749  24.442   4.906
71173W        W37956   0.342  14.209  13.797
71174W        W37957  25.977   6.244  12.966
71175W        W37958   6.077   5.136  13.125
71176W        W37959   6.290  36.930  11.688
71177W        W37960  32.431  16.852   3.777
71178W        W37961  42.005  30.481   1.965
71179W        W37962   4.442   7.850   2.433
71180W        W37963  21.079  14.746  12.105
71181W        W37964  13.180  11.648  13.405
71182W        W37965  35.432  10.160  13.335
71183W        W37966  33.926  24.485   4.699
71184W        W37967   6.151  35.628  11.786
71185W        W37968  16.295  41.395  11.037
71186W        W37969   0.748   2.078   4.495
71187W        W37970  41.784  20.986   2.775
71188W        W37971  16.667   8.281   3.433
71189W        W37972  28.882  15.097   2.769
71190W        W37973  17.339  36.991  12.653
71191W        W37974  11.729  34.061   1.003
71192W        W37975  10.305   5.909  14.199
71193W        W37976  27.185  27.250  12.273
71194W        W37977   7.366  34.111  11.890
71195W        W37978  26.717   1.150  13.435
71196W        W37979  12.639  38.993  10.919
71197W        W37980   4.172  27.968  14.805
71198W        W37981  39.039  25.662  12.051
71199W        W37982   3.011  38.917  12.010
71200W        W37983  21.263  20.399   1.416
71201W        W37984  35.033   9.596  12.733
71202W        W37985  37.702  14.723   1.471
71203W        W37986  15.722   4.748   3.270
71204W        W37987  29.428  43.918   0.681
71205W        W37988  40.349  19.873   4.165
71206W        W37989  10.818  35.473   1.694
71207W        W37990  37.976  18.241   4.440
71208W        W37991   4.759  10.858   3.281
71209W        W37992  32.070  35.458  13.703
71210W        W37993  29.264  28.360  12.183
71211W        W37994  19.631   1.467  14.866
71212W        W37995  28.618   4.202  13.437
71213W        W37996  15.769  14.095  11.057
71214W        W37997   7.472  40.004  14.461
71215W        W37998  17.548  32.389  12.119
71216W        W37999  15.635  42.437  12.862
71217W        W38000  35.483  39.376  13.810
71218W        W38001  30.927   2.422  13.295
71219W        W38002  33.882  11.750   3.802
71220W        W38003  10.592  10.201  12.480
71221W        W38004  43.084  13.274  11.390
71222W        W38005  34.403  34.626   2.250
71223W        W38006  43.788  22.158   1.973
71224W        W38007   8.261  31.206  12.074
71225W        W38008  11.352  12.755  10.463
71226W        W38009  12.813  27.014  11.973
71227W        W38010  16.108  27.791  12.742
71228W        W38011  21.693   0.026   0.431
71229W        W38012  11.803   8.589  13.332
71230W        W38013  16.562   0.418  14.034
71231W        W38014  24.511  35.602   1.723
71232W        W38015   5.250  26.051  11.655
71233W        W38016  27.236  13.564   2.767
71234W        W38017  37.225  19.731   4.577
71235W        W38018  12.583   7.806  13.312
71236W        W38019  20.306   7.367   2.798
71237W        W38020  23.210  10.833  12.807
71238ION    NA+38021  22.129  42.720  11.389
71239ION    NA+38022  16.771  18.537  14.963
71240ION    NA+38023  38.834  38.371  11.140
71241ION    NA+38024  20.517  44.073  14.012
71242ION    NA+38025   4.015  42.965  14.530
71243ION    NA+38026  10.176  39.839  10.095
71244ION    NA+38027  43.088  24.699   1.157
71245ION    NA+38028  19.349  31.330  14.073
71246ION    NA+38029  28.931  31.135   2.348
71247ION    NA+38030  33.606   0.395   0.890
71248ION    NA+38031  33.362  20.237  14.236
71249ION    NA+38032  17.133  32.834  14.045
71250ION    NA+38033   4.108  35.913  13.882
71251ION    NA+38034  31.205  18.556  11.665
71252ION    NA+38035  28.672  13.125   1.865
71253ION    NA+38036  29.934  12.252   0.884
71254ION    NA+38037  28.246   2.138   3.942
71255ION    NA+38038  13.886  34.286  13.667
71256ION    NA+38039  23.548  33.790   0.317
71257ION    NA+38040  11.090  13.013   2.737
71258ION    NA+38041  43.039   1.685   9.780
71259ION    NA+38042  42.660  23.538   3.835
71260ION    NA+38043   2.345  34.067  14.512
71261ION    NA+38044   9.472  42.128  13.222
71262ION    NA+38045   3.488  13.681  12.097
71263ION    NA+38046   3.198  26.550   2.400
71264ION    NA+38047  33.017   0.523  11.498
71265ION    NA+38048   6.642  12.178  11.499
71266ION    NA+38049  39.230   0.147  13.845
71267ION    NA+38050  26.198   9.400  12.023
71268ION    NA+38051  32.592  31.591   1.317
71269ION    NA+38052  12.616  20.822  13.184
71270ION    NA+38053  36.378  25.016  11.015
71271ION    NA+38054   4.857   5.902  14.452
71272ION    NA+38055   0.828  31.516   2.333
71273ION    NA+38056  39.654  19.544   4.941
71274ION    NA+38057  24.662  28.795  11.989
71275ION    NA+38058  35.082  20.347   4.359
71276ION    NA+38059  33.573  42.227  12.428
71277ION    NA+38060  25.325  20.589  14.064
71278ION    NA+38061   5.745   9.007  11.981
71279ION    NA+38062  25.755  28.285   2.703
71280ION    NA+38063  11.428  25.577  11.942
71281ION    NA+38064  30.916  30.551  13.998
71282ION    NA+38065   1.663  32.996   2.316
71283ION    NA+38066   1.722  23.175   1.394
71284ION    NA+38067  25.978  38.542  11.854
71285ION    NA+38068  29.875  19.720   0.299
71286ION    NA+38069  42.744   0.943  13.290
71287ION    NA+38070  22.611  34.056   4.757
71288ION    NA+38071  39.630   4.126   4.940
71289ION    NA+38072  44.850   1.006  12.116
71290ION    NA+38073  20.220  13.055  13.521
71291ION    NA+38074  39.465  37.943   0.298
71292ION    NA+38075   9.517   8.928   4.576
71293ION    NA+38076  10.095   3.162  11.952
71294ION    NA+38077  40.441  44.160  11.364
71295ION    NA+38078  42.784  29.039  12.813
71296ION    NA+38079  27.923  40.676   2.067
71297ION    NA+38080   8.336   9.406  12.596
71298ION    NA+38081  16.937  42.433  12.120
71299ION    NA+38082  17.559  35.946   4.557
71300ION    NA+38083  26.285  36.455  13.846
71301ION    NA+38084  36.960   4.353  12.131
71302ION    NA+38085  27.406   9.237   2.615
71303ION    NA+38086  16.079  32.438  11.855
71304ION    NA+38087   8.413  12.696   1.121
71305ION    NA+38088  10.119  22.269   0.425
71306ION    NA+38089  40.566  37.543  14.456
71307ION    NA+38090  26.692  21.926  12.134
71308ION    NA+38091  36.178  17.299   0.337
71309ION    NA+38092  38.644  13.424   4.303
71310ION    NA+38093  35.471  17.556   1.942
71311ION    NA+38094  32.011  29.067  12.679
71312ION    NA+38095  20.039  36.843  12.026
71313ION    NA+38096  35.631  26.834  13.387
71314ION    NA+38097  16.192  28.698  12.798
71315ION    NA+38098  22.533  42.025   2.326
71316ION    NA+38099  16.437  24.646  12.495
71317ION    NA+38100   5.874  12.747   3.733
71318ION    NA+38101   2.630   3.349   1.883
71319ION    NA+38102  14.980   1.064   3.575
71320ION    NA+38103  17.012  17.240  11.679
71321ION    NA+38104  11.877  25.261   0.754
71322ION    NA+38105  14.040  36.622   0.258
71323ION    NA+38106  28.850   6.647   2.001
71324ION    NA+38107  15.966  30.635   2.885
71325ION    NA+38108  35.883  27.278  14.247
71326ION    NA+38109   5.065  31.647  11.240
71327ION    NA+38110  10.927   4.704  13.074
71328ION    NA+38111  20.928  31.490   4.677
71329ION    NA+38112  15.044  18.821   2.817
71330ION    NA+38113  26.982  25.161  14.343
71331ION    NA+38114  16.711  21.651  12.286
71332ION    NA+38115   1.318  39.374   1.340
71333ION    NA+38116  28.726   0.354  12.039
71334ION    NA+38117  10.397  16.912  12.508
71335ION    NA+38118  11.890   7.572   3.673
71336ION    NA+38119   3.636   8.143   1.483
71337ION    NA+38120  30.356  17.326   1.218
71338ION    NA+38121  24.485  31.912  13.364
71339ION    NA+38122  27.172  19.727  13.369
71340ION    NA+38123  36.047  43.400   1.664
71341ION    NA+38124   6.706  38.916  11.440
71342ION    NA+38125   8.662  24.518  13.779
71343ION    NA+38126  12.167  29.954  14.954
71344ION    NA+38127  44.800  18.525   3.777
71345ION    NA+38128  20.492  16.305   1.826
71346ION    NA+38129   3.197  13.349   1.587
71347ION    NA+38130  11.174  14.881   0.972
71348ION    NA+38131  32.359   0.928  12.134
71349ION    NA+38132  34.607   5.910  11.661
71350ION    NA+38133  31.471   0.617   1.493
71351ION    NA+38134  41.546  24.315  12.535
71352ION    NA+38135  14.760  10.583   2.648
71353ION    NA+38136  14.423  37.434   1.999
71354ION    NA+38137  29.769  14.635   2.663
71355ION    NA+38138  40.552  23.125  14.404
71356ION    NA+38139   0.039  24.564   0.369
71357ION    NA+38140  23.251  14.547   1.280
71358ION    NA+38141  36.449  30.511   0.994
71359ION    NA+38142  34.979  13.814  10.660
71360ION    NA+38143  13.650  10.157   4.614
71361ION    NA+38144   6.713  33.639  11.474
71362ION    NA+38145  21.302   1.340   0.183
71363ION    NA+38146  15.689  33.813   4.208
71364ION    NA+38147  13.381  12.330   1.573
71365ION    NA+38148  42.327  14.228  11.602
71366ION    NA+38149  38.398   4.295   1.192
71367ION    NA+38150  36.204  18.456   3.203
71368ION    NA+38151   9.713  32.291   2.466
71369ION    NA+38152  10.566   3.218  10.650
71370ION    NA+38153  30.114  24.529  11.695
71371ION    NA+38154  31.670  21.579   0.266
71372ION    NA+38155  42.060  35.197  13.648
71373ION    NA+38156  31.469  19.081   4.291
71374ION    NA+38157  37.985  25.077  13.618
71375ION    NA+38158  18.560  42.263  14.460
71376ION    NA+38159  15.030   4.197   2.599
71377ION    NA+38160  43.778  12.163   3.685
71378ION    NA+38161  41.808  21.063  12.827
71379ION    NA+38162  26.811  15.299   1.476
71380ION    NA+38163  31.489  27.156   3.330
71381ION    NA+38164  10.044  15.284  13.068
71382ION    NA+38165  38.480  42.522  11.358
71383ION    NA+38166  14.295  23.046  12.416
71384ION    NA+38167  33.288   6.242  11.388
71385ION    NA+38168   2.447  15.028  13.881
71386ION    NA+38169  31.036  27.541   2.135
71387ION    NA+38170  16.687   2.174  12.430
71388ION    NA+38171  42.430  11.862  11.919
71389ION    NA+38172  10.964   8.282  10.927
71390ION    NA+38173  30.169   0.728  11.310
71391ION    NA+38174   9.168  15.421  12.329
71392ION    NA+38175   9.252  31.445   2.736
71393ION    NA+38176  29.942  38.881   0.425
71394ION    NA+38177   0.829  18.720  12.951
71395ION    NA+38178  25.742  14.606  14.982
71396ION    NA+38179  16.411  12.836   2.511
71397ION    NA+38180  18.574  20.031  10.297
71398ION    NA+38181   8.165   4.565  14.634
71399ION    NA+38182  12.593  43.812  11.400
71400ION    NA+38183  36.692  30.112  14.221
71401ION    NA+38184  41.231   8.752  14.620
71402ION    NA+38185  10.204  19.504   2.238
71403ION    NA+38186  36.753  28.536   1.853
71404ION    NA+38187   7.939  30.817   0.489
71405ION    NA+38188  18.648  43.534   9.954
71406ION    NA+38189  14.752  15.373   1.242
71407ION    NA+38190  41.738  25.646   3.199
71408ION    NA+38191  22.035  30.776   4.941
71409ION    NA+38192  26.284  37.138   1.714
71410ION    NA+38193  40.764  14.950   2.891
71411ION    NA+38194  39.043  27.606  14.814
71412ION    NA+38195   6.374  25.182   4.142
71413ION    NA+38196   4.895  24.447  12.011
71414ION    NA+38197  34.907  30.596  11.926
71415ION    NA+38198  16.438  39.872   1.342
71416ION    NA+38199  18.393   2.335  12.724
71417ION    NA+38200   8.408  30.225   4.094
71418ION    NA+38201   6.117  44.574  10.030
71419ION    NA+38202  10.994  37.750  11.202
71420ION    NA+38203  11.037   1.599   3.589
71421ION    NA+38204   3.726   3.017  10.805
71422ION    NA+38205  18.803  32.018   2.739
71423ION    NA+38206  31.403  12.255   3.253
71424ION    NA+38207  10.271  25.247  11.961
71425ION    NA+38208  20.428  36.307   0.855
71426ION    NA+38209   0.104  43.651   1.605
71427ION    NA+38210  10.620  30.985  13.074
71428ION    NA+38211  39.808   7.795   1.883
71429ION    NA+38212  33.058  22.751   3.696
71430ION    NA+38213  33.670   4.718  12.110
71431ION    NA+38214  23.712  28.512   0.538
71432ION    NA+38215  33.968  43.309  12.315
71433ION    NA+38216   0.066  30.046   4.686
71434ION    NA+38217  25.765  44.371   9.936
71435ION    NA+38218  31.113  35.871  13.356
71436ION    NA+38219   7.862  29.952  11.986
71437ION    NA+38220  37.265  25.836   2.446
71438ION    NA+38221  33.634  24.654   5.096
71439ION    NA+38222   5.869  21.570   1.947
71440ION    NA+38223  19.209   4.798  11.065
71441ION    NA+38224   6.827  14.891   0.272
71442ION    NA+38225  32.547  29.139   4.242
71443ION    NA+38226  40.704  19.123  14.986
71444ION    NA+38227  12.254  17.241   4.185
71445ION    NA+38228  31.275   4.185  13.830
71446ION    NA+38229  37.174  30.651   4.248
71447ION    NA+38230  17.309  22.981  12.193
71448ION    NA+38231  43.287  15.945  11.426
71449ION    NA+38232  30.780  25.450  13.858
71450ION    NA+38233   0.364  15.609  12.932
71451ION    NA+38234  20.126  16.619  11.540
71452ION    NA+38235  33.400  35.409  12.001
71453ION    NA+38236  41.701  43.241  13.833
71454ION    NA+38237  17.040  14.380  11.630
71455ION    NA+38238   9.848  26.230  14.553
71456ION    NA+38239  39.189  10.570   4.777
71457ION    NA+38240  13.755   3.569  11.639
71458ION    NA+38241   2.006  42.487   2.871
71459ION    NA+38242   2.564  11.886  11.791
71460ION    NA+38243  21.985  16.279   5.337
71461ION    NA+38244  13.989  14.781   1.500
71462ION    NA+38245  11.585   9.069  11.463
71463ION    NA+38246  41.624  10.203   1.132
71464ION    NA+38247  38.554   6.785   3.350
71465ION    NA+38248  21.326  31.130   1.142
71466ION    NA+38249  31.391  33.133   4.335
71467ION    NA+38250  35.377  31.064   0.080
71468ION    NA+38251  17.039  39.559  12.871
71469ION    NA+38252  44.800  14.370   0.747
71470ION    NA+38253  15.772  18.893  11.614
71471ION    NA+38254   9.093   5.342  10.842
71472ION    NA+38255  33.590  17.270   3.691
71473ION    NA+38256  29.707  44.581  11.669
71474ION    NA+38257   9.569   8.540   0.277
71475ION    NA+38258  16.676  39.238   2.827
71476ION    NA+38259  20.641  23.087   0.692
71477ION    NA+38260   8.802  12.876   2.531
71478ION    NA+38261  10.343   4.716  14.976
71479ION    NA+38262  21.975  27.201   2.719
71480ION    NA+38263  15.054  38.668   3.204
71481ION    NA+38264  18.959  23.558  12.508
71482ION    NA+38265  18.813  20.998  12.380
71483ION    NA+38266  18.522  41.046  10.619
71484ION    NA+38267   8.887   3.657   4.165
71485ION    NA+38268   4.027   3.138   2.996
71486ION    NA+38269  32.773   6.292  10.013
71487ION    NA+38270   8.418  26.062   3.138
71488ION    NA+38271   7.652  24.198  12.074
71489ION    NA+38272  23.425  44.003   2.766
71490ION    NA+38273  10.342  14.768   2.501
71491ION    NA+38274  28.512  19.175   4.646
71492ION    NA+38275  40.562  26.503   2.743
71493ION    NA+38276  40.306  29.284   2.940
71494ION    NA+38277  42.165   5.690   5.091
71495ION    NA+38278  34.567  32.878  13.520
71496ION    NA+38279  43.617  30.699   9.794
71497ION    NA+38280  31.342   6.031   3.669
71498ION    NA+38281  31.622   1.656  10.218
71499ION    NA+38282  29.684  25.613   2.161
71500ION    NA+38283   4.616   5.566  11.643
71501ION    NA+38284  16.043  43.489  13.276
71502ION    NA+38285  24.870  16.405   1.743
71503ION    NA+38286   4.653  29.564   0.635
71504ION    NA+38287  17.795  34.484   0.569
71505ION    NA+38288  10.407  38.966  12.886
71506ION    NA+38289   1.715  13.240  10.805
71507ION    NA+38290  43.970  30.452  14.428
71508ION    NA+38291  16.408  36.169  14.452
71509ION    NA+38292  11.627  21.593  14.441
71510ION    NA+38293   9.844  10.542   2.294
71511ION    NA+38294  37.525  22.815  12.919
71512ION    NA+38295  37.106  10.269   5.361
71513ION    NA+38296   6.017  15.678  14.585
71514ION    NA+38297  13.707   4.355   4.810
71515ION    NA+38298  23.497  21.687  13.983
71516ION    NA+38299  37.928  32.526   0.002
71517ION    NA+38300  27.207  34.861  11.019
71518ION    NA+38301  26.838  33.772   4.943
71519ION    NA+38302  23.493  28.177  13.445
71520ION    NA+38303  35.084  10.382   2.805
71521ION    NA+38304  23.318  31.290   4.607
71522ION    NA+38305   5.933   7.348   9.852
71523ION    NA+38306  35.392  33.163   3.774
71524ION    NA+38307  32.228   4.658  13.873
71525ION    NA+38308   7.413  12.564  12.041
71526ION    NA+38309  38.897   9.551  14.874
71527ION    NA+38310  32.329  36.709  14.335
71528ION    NA+38311   6.890  14.647   4.033
71529ION    NA+38312  24.353  18.833  10.899
71530ION    NA+38313  25.576  38.283  13.902
71531ION    NA+38314  25.642  21.307  13.102
71532ION    NA+38315  11.699   6.286   1.675
71533ION    NA+38316  30.146  21.912   3.037
71534ION    NA+38317  39.241  21.856   0.117
71535ION    NA+38318  10.755  27.232  12.203
71536ION    NA+38319  19.646   1.244   3.829
71537ION    NA+38320  41.267  37.647  13.944
71538ION    NA+38321  36.034  41.259   4.568
71539ION    NA+38322  42.456   0.730   3.701
71540ION    NA+38323  38.456  23.453   1.814
71541ION    NA+38324  42.957  38.750  14.870
71542ION    NA+38325  10.530  38.852  14.687
71543ION    NA+38326  10.085  11.416  13.069
71544ION    NA+38327  17.925   9.932   3.041
71545ION    NA+38328   1.827  27.178  13.930
71546ION    NA+38329   2.829  40.915   0.839
71547ION    NA+38330  11.813  30.521  13.135
71548ION    NA+38331  23.935  17.595   0.681
71549ION    NA+38332   2.918  25.712  10.649
71550ION    NA+38333  35.171   3.937  13.940
71551ION    NA+38334   2.673  12.592  11.220
71552ION    NA+38335  17.897  28.877   3.687
71553ION    NA+38336  10.842  36.525   0.942
71554ION    NA+38337  30.970  26.397  14.307
71555ION    NA+38338  26.668  40.274   4.037
71556ION    NA+38339  32.887  43.122   3.754
71557ION    NA+38340  22.585  18.329  13.571
71558ION    NA+38341  33.898  41.463  13.376
71559ION    NA+38342   9.093   3.158   0.489
71560ION    NA+38343  15.679   5.104  10.275
71561ION    NA+38344  28.924   1.812   4.626
71562ION    NA+38345  19.931   4.103   1.742
71563ION    NA+38346  39.887  42.883   2.958
71564ION    NA+38347  14.248  21.021  11.495
71565ION    NA+38348  21.942  20.552  12.099
71566ION    NA+38349   6.889  44.043   3.319
71567ION    NA+38350  32.674  27.161   1.722
71568ION    NA+38351  42.194  39.429   0.009
71569ION    NA+38352   6.761   4.159  12.053
71570ION    NA+38353  15.596  40.450  10.148
71571ION    NA+38354  38.513  32.861  11.530
71572ION    NA+38355  39.832  27.378  12.613
71573ION    NA+38356   4.994  39.042   1.445
71574ION    NA+38357  24.715  37.855  12.950
71575ION    NA+38358  38.614  42.105   4.177
71576ION    NA+38359  41.391   8.318   3.097
71577ION    NA+38360  14.602  25.016  13.564
71578ION    NA+38361   0.289  43.259  13.885
71579ION    NA+38362   8.630  35.073  11.406
71580ION    NA+38363   5.920  27.527  14.739
71581ION    NA+38364  25.842  20.773   4.481
71582ION    NA+38365  21.129  30.932   5.336
71583ION    NA+38366  15.184   0.944   0.185
71584ION    NA+38367  12.608  24.406  11.996
71585ION    NA+38368  21.916  24.803  14.922
71586ION    NA+38369  37.143   1.365   3.246
71587ION    NA+38370  29.147  43.311   1.666
71588ION    NA+38371   8.483  32.587   4.946
71589ION    NA+38372  22.625  34.772  12.505
71590ION    NA+38373  29.930  21.432  12.216
71591ION    NA+38374   0.046  36.346   3.762
71592ION    NA+38375  25.619   5.783   2.302
71593ION    NA+38376  23.322  16.179  13.135
71594ION    NA+38377  14.025  20.936   0.002
71595ION    NA+38378   6.203   5.126   1.952
71596ION    NA+38379  41.084  23.374   2.163
71597ION    NA+38380  32.386  23.791   0.016
71598ION    NA+38381  29.698   4.735  13.830
71599ION    NA+38382  28.185  19.474   3.255
71600ION    NA+38383  14.601  43.318  13.552
71601ION    NA+38384  40.592   8.409   1.795
71602ION    NA+38385  44.715  31.871   3.611
71603ION    NA+38386  38.941  38.980   2.818
71604ION    NA+38387  42.514   7.409  14.337
71605ION    NA+38388  14.539  34.991  10.302
71606ION    NA+38389  35.741  15.652   2.066
71607ION    NA+38390  26.393  16.242  12.078
71608ION    NA+38391  28.676   6.776  11.233
71609ION    NA+38392  35.925   2.974  14.605
71610ION    NA+38393  11.565  14.743  10.645
71611ION    NA+38394  11.054   3.044   5.166
71612ION    NA+38395  38.411   5.886   0.835
71613ION    NA+38396  14.318  32.303  14.526
71614ION    NA+38397  25.196  33.908   4.436
71615ION    NA+38398   7.587  33.266   4.119
71616ION    NA+38399  32.285   0.382  14.405
71617ION    NA+38400  14.182  42.572  10.900
71618ION    NA+38401   2.610  30.431  12.940
71619ION    NA+38402   6.440  22.925   1.536
71620ION    NA+38403  43.543   0.067   2.391
71621ION    NA+38404  26.872   8.250   0.211
71622ION    NA+38405  14.833  33.927  11.019
71623ION    NA+38406  32.540  11.671   1.258
71624ION    NA+38407  42.213  18.534   2.707
71625ION    NA+38408  16.718  11.172  14.928
71626ION    NA+38409  17.865  27.600   2.978
71627ION    NA+38410   8.512  21.492   0.209
71628ION    NA+38411  43.725  21.242  12.469
71629ION    NA+38412  16.512  16.144   2.798
71630ION    NA+38413  40.329   2.802   0.562
71631ION    NA+38414  24.774   5.808  10.859
71632ION    NA+38415  27.055   0.016   3.280
71633ION    NA+38416  12.632  36.529  13.279
71634ION    NA+38417  37.363  43.781   4.861
71635ION    NA+38418  13.230  14.265  12.533
71636ION    NA+38419  23.375  22.066  12.133
71637ION    NA+38420  34.732  31.547   2.802
71638ION    NA+38421   8.380  39.522  13.421
71639ION    NA+38422   0.665  22.557   2.110
71640ION    NA+38423  26.113  33.344  13.020
71641ION    NA+38424  21.115   2.525  12.921
71642ION    NA+38425   2.521  10.167  13.865
71643ION    NA+38426  43.470  36.053  10.648
71644ION    NA+38427  44.472  34.691  14.424
71645ION    NA+38428  30.837  10.129   2.553
71646ION    NA+38429  19.115  27.250  12.997
71647ION    NA+38430   3.931  31.943  14.549
71648ION    NA+38431  28.477   1.668  11.374
71649ION    NA+38432   4.846  44.800  11.488
71650ION    NA+38433  30.866  21.376  11.866
71651ION    NA+38434  15.598  26.640   1.736
71652ION    NA+38435  25.011  32.766   1.411
71653ION    NA+38436  36.615  24.254  13.186
71654ION    NA+38437  37.603  10.354   3.694
71655ION    NA+38438  13.362   8.950  10.359
71656ION    NA+38439  19.036  40.419  11.628
71657ION    NA+38440  42.829   9.454  10.662
71658ION    NA+38441  30.485  16.041  14.336
71659ION    NA+38442   5.369  37.383  13.393
71660ION    NA+38443  12.375  44.148   1.608
71661ION    NA+38444  30.723  13.201   3.236
71662ION    NA+38445  10.708  13.128   1.492
71663ION    NA+38446  28.315   5.267   4.704
71664ION    NA+38447  26.432  37.545  14.019
71665ION    NA+38448   0.438   7.185  10.635
71666ION    NA+38449  24.277  33.671  11.179
71667ION    NA+38450  23.884  10.660  12.042
71668ION    NA+38451  27.540  27.959  10.260
71669ION    NA+38452   5.800  31.723  14.664
71670ION    NA+38453   5.171   4.202  11.548
71671ION    NA+38454  44.182  26.979   1.514
71672ION    NA+38455  42.828  17.085   2.737
71673ION    NA+38456  31.219   2.722   2.776
71674ION    NA+38457  19.606   7.439   1.685
71675ION    NA+38458  37.614  31.526  10.904
71676ION    NA+38459  19.901  16.180  13.227
71677ION    NA+38460  25.491  26.054   2.827
71678ION    NA+38461   2.245  26.974   4.726
71679ION    NA+38462  32.059   1.704   4.107
71680ION    NA+38463  31.555  30.553  12.768
71681ION    NA+38464  21.423   6.667  10.311
71682ION    NA+38465   6.657  41.655  14.996
71683ION    NA+38466  22.641  32.216   2.792
71684ION    NA+38467  29.977   3.271   3.662
71685ION    NA+38468  42.921  21.559   3.197
71686ION    NA+38469  12.300   4.794   0.910
71687ION    NA+38470  21.946  17.749   0.771
71688ION    NA+38471  20.455  33.806  11.719
71689ION    NA+38472  15.369  15.030   0.396
71690ION    NA+38473  18.768   6.397  11.899
71691ION    NA+38474   0.357  26.945   3.496
71692ION    NA+38475  35.499  25.768  10.628
71693ION    NA+38476  13.221  32.536   3.003
71694ION    NA+38477  22.566  13.398   0.035
71695ION    NA+38478  26.245  29.947   1.887
71696ION    NA+38479  15.972  25.921   2.563
71697ION    NA+38480  33.673  25.280  11.678
71698ION    NA+38481  15.801  44.869  13.034
71699ION    NA+38482  25.136  13.325   2.227
71700ION    NA+38483   8.332  21.453  14.203
71701ION    NA+38484  39.938  17.539   0.624
71702ION    NA+38485  17.803   2.488   0.832
71703ION    NA+38486  13.421  35.325  10.273
71704ION    NA+38487   0.092  12.840  14.719
71705ION    NA+38488  18.289  28.000   4.074
71706ION    NA+38489  15.941   4.497  14.957
71707ION    NA+38490  42.463   8.867   1.590
71708ION    NA+38491  31.591  18.668   0.549
71709ION    NA+38492  20.098  19.172  14.425
71710ION    NA+38493  32.111  39.962  13.323
71711ION    NA+38494  28.497  33.386  12.157
71712ION    NA+38495   2.497  15.855  11.605
71713ION    NA+38496  42.504   6.520  14.238
71714ION    NA+38497  21.276  30.160  13.492
71715ION    NA+38498  13.027  27.267   4.528
71716ION    NA+38499  26.965  36.645   3.186
71717ION    NA+38500  15.334  13.799   0.913
71718ION    NA+38501  24.064  28.249   9.959
71719ION    NA+38502  42.798   2.809   4.388
71720ION    NA+38503  41.865  20.578   0.734
71721ION    NA+38504  39.115  36.366   0.965
71722ION    NA+38505  28.588  44.377  12.658
71723ION    NA+38506  20.610  27.637   2.883
71724ION    NA+38507  17.430  36.971  11.510
71725ION    NA+38508   6.575  37.141   0.249
71726ION    NA+38509   2.756   8.247  12.070
71727ION    NA+38510  33.521   2.532   4.740
71728ION    NA+38511   7.201  26.732  11.981
71729ION    NA+38512   0.930  43.774  14.457
71730ION    NA+38513   5.792  18.523  12.292
71731ION    NA+38514   3.699  17.190   1.482
71732ION    NA+38515  19.890  11.999   1.358
71733ION    NA+38516  10.604  38.396   3.797
71734ION    NA+38517  17.878   6.833  12.038
71735ION    NA+38518  14.403  35.365   4.233
71736ION    NA+38519  31.637  35.333  10.585
71737ION    NA+38520   9.964  24.958   1.023
71738ION    NA+38521  29.049  14.945   1.741
71739ION    NA+38522  43.563  20.100   0.413
71740ION    NA+38523  35.539  22.973   2.157
71741ION    NA+38524  23.019  27.097   2.916
71742ION    NA+38525   0.273  28.467   2.763
71743ION    NA+38526  14.992  12.719   0.004
71744ION    NA+38527  15.871  29.760   3.104
71745ION    NA+38528  17.074  25.664   3.779
71746ION    NA+38529  21.901  34.369  12.117
71747ION    NA+38530  20.373   8.672  11.140
71748ION    NA+38531  15.726  38.383  12.008
71749ION    NA+38532   1.468  10.128  12.938
71750ION    NA+38533   9.685   9.212   1.008
71751ION    NA+38534  19.128   9.857   2.175
71752ION    NA+38535  27.109  21.530   2.155
71753ION    NA+38536  24.219  14.510   1.032
71754ION    NA+38537  14.665  34.661   2.182
71755ION    NA+38538  38.389  10.628  14.315
71756ION    NA+38539  40.417  43.224  11.715
71757ION    NA+38540  39.694  26.185  11.457
71758ION    NA+38541   6.099  11.144   4.247
71759ION    NA+38542   9.506  42.585  12.444
71760ION    NA+38543  39.960  40.286  11.019
71761ION    NA+38544  42.511  42.147   4.853
71762ION    NA+38545   2.267  43.761  11.412
71763ION    NA+38546  11.943  28.829  11.614
71764ION    NA+38547  41.029  40.738  14.408
71765ION    NA+38548  16.792  13.221  10.618
71766ION    NA+38549  23.435  14.864   4.427
71767ION    NA+38550  33.024   1.028   0.381
71768ION    NA+38551  44.614  29.674  12.431
71769ION    NA+38552   3.346   0.513   4.418
71770ION    NA+38553  18.742  13.872  11.856
71771ION    NA+38554   0.352   0.382   0.385
71772ION    NA+38555  14.492  17.611   1.714
71773ION    NA+38556  12.496   8.223  14.618
71774ION    NA+38557  21.911  19.134  12.069
71775ION    NA+38558  31.604  30.408   0.439
71776ION    NA+38559   9.203   7.716  14.845
71777ION    NA+38560   5.213   2.902  12.777
71778ION    NA+38561  19.732  19.568  13.484
71779ION    NA+38562  40.738  16.632  11.836
71780ION    NA+38563   2.055  39.990   1.622
71781ION    NA+38564   8.824  12.159   1.834
71782ION    NA+38565  35.625   1.710  12.184
71783ION    NA+38566  25.662  11.063   3.233
71784ION    NA+38567  17.087  19.889  14.150
71785ION    NA+38568  40.834  25.743  11.218
71786ION    NA+38569   5.265  28.989   1.536
71787ION    NA+38570   6.243  30.496   1.476
71788ION    NA+38571   9.545  22.206   3.694
71789ION    NA+38572  40.168  24.481   0.591
71790ION    NA+38573   0.285   4.794  12.760
71791ION    NA+38574  15.112  42.366  12.886
71792ION    NA+38575  12.163  40.857   2.712
71793ION    NA+38576  21.404  14.009   3.465
71794ION    NA+38577  12.682  16.351  10.883
71795ION    NA+38578  15.142  39.341  14.762
71796ION    NA+38579  37.700  28.890   0.825
71797ION    NA+38580  21.018  28.233   4.489
71798ION    NA+38581  34.059  33.488   1.192
71799ION    NA+38582  12.354  35.459  10.268
71800ION    NA+38583  44.834  32.995  12.390
71801ION    NA+38584  12.994  16.410  12.562
71802ION    NA+38585  13.849  40.475  12.030
71803ION    NA+38586  18.636  41.875   0.881
71804ION    NA+38587  10.476  24.650  10.556
71805ION    NA+38588  39.573  21.146  13.389
71806ION    NA+38589   4.260  17.319   3.242
71807ION    NA+38590   3.908  26.760  12.074
71808ION    NA+38591  13.416  39.735  12.545
71809ION    NA+38592  33.981  12.234   2.755
71810ION    NA+38593  10.504  26.620  13.300
71811ION    NA+38594  21.692  42.129   2.856
71812ION    NA+38595   3.646   3.720  13.228
71813ION    NA+38596  19.456  25.879   3.659
71814ION    NA+38597  13.349  35.422   2.823
71815ION    NA+38598  17.341  27.926   3.765
71816ION    NA+38599  17.357  37.213   5.384
71817ION    NA+38600   7.993   1.291  12.450
71818ION    NA+38601   0.869  15.277  11.475
71819ION    NA+38602  27.223   7.378  13.235
71820ION    NA+38603  40.436  38.820  12.735
71821ION    NA+38604  20.996  19.614  11.525
71822ION    NA+38605   4.800  36.411  13.573
71823ION    NA+38606  36.324   2.267   0.284
71824ION    NA+38607  21.083  20.815   2.383
71825ION    NA+38608  19.236  11.488  13.767
71826ION    NA+38609  38.896  27.552   3.273
71827ION    NA+38610   5.987  43.909   0.107
71828ION    NA+38611  24.549  12.750  12.148
71829ION    NA+38612  32.297  38.412   2.118
71830ION    NA+38613  43.924  20.004   2.743
71831ION    NA+38614   6.226   9.763   0.416
71832ION    NA+38615  38.239  14.514  11.511
71833ION    NA+38616  14.648  24.713   0.666
71834ION    NA+38617   7.593   2.498  11.727
71835ION    NA+38618  13.742   9.966   9.424
71836ION    NA+38619  44.092  33.461  11.461
71837ION    NA+38620   0.941   8.463   4.381
71838ION    NA+38621  24.525  29.068   1.227
71839ION    NA+38622   1.504  35.836  13.126
71840ION    NA+38623  33.047  41.281   4.215
71841ION    NA+38624  39.791  38.758   3.878
71842ION    NA+38625  20.790  15.139  13.153
71843ION    NA+38626  30.714  27.060   1.416
71844ION    NA+38627  32.081  44.423   4.620
71845ION    NA+38628   2.086  40.268   0.662
71846ION    NA+38629  16.039  11.823   3.372
71847ION    NA+38630  43.899  10.249   1.050
71848ION    NA+38631  43.445  31.965  12.963
71849ION    NA+38632  36.896   2.686  12.105
71850ION    NA+38633  20.456  43.440   1.871
71851ION    NA+38634  44.773  27.026  11.768
71852ION    NA+38635  34.976  22.188  14.310
71853ION    NA+38636  44.778   0.067  13.910
71854ION    NA+38637   7.290  13.351  14.136
71855ION    NA+38638  41.329  26.143   0.890
71856ION    NA+38639  44.408  41.908   2.823
71857ION    NA+38640  40.461   5.349  10.841
71858ION    NA+38641  13.399  31.997   0.748
71859ION    NA+38642  37.416  30.940  13.985
71860ION    NA+38643  34.921   8.795   2.534
71861ION    NA+38644   0.444  14.102   3.176
71862ION    NA+38645  38.967  11.432   0.462
71863ION    NA+38646  23.707  25.747  12.070
71864ION    NA+38647  42.247  38.096  13.130
71865ION    NA+38648  26.546  27.268   0.777
71866ION    NA+38649  34.096   0.157   4.432
71867ION    NA+38650  22.905  21.717   1.065
71868ION    NA+38651  13.058  14.990  10.529
71869ION    NA+38652  11.768  24.449  12.538
71870ION    NA+38653  42.738  10.080  13.277
71871ION    NA+38654  34.587  21.723  11.979
71872ION    NA+38655  39.970  32.147  10.370
71873ION    NA+38656   9.358  40.746   2.607
71874ION    NA+38657  42.737  26.289  12.613
71875ION    NA+38658  27.524  25.811   3.815
71876ION    NA+38659  17.285   0.761   5.102
71877ION    NA+38660  28.127  28.238   3.325
71878ION    NA+38661   7.807  26.520  12.142
71879ION    NA+38662  15.743  42.542  14.591
71880ION    NA+38663   9.324  27.161  14.816
71881ION    NA+38664  13.772  41.077  11.236
71882ION    NA+38665   6.450  31.328   3.169
71883ION    NA+38666  26.224  33.552   1.693
71884ION    NA+38667  38.740  28.460  13.416
71885ION    NA+38668  43.603  11.224  13.402
71886ION    NA+38669  27.575  15.673   3.132
71887ION    NA+38670  21.672   2.967  12.113
71888ION    NA+38671  36.094  33.026   2.740
71889ION    NA+38672  39.622   7.207   5.264
71890ION    NA+38673   6.683  33.073  14.244
71891ION    NA+38674  42.744  33.040  12.758
71892ION    NA+38675  43.263  12.282   0.962
71893ION    NA+38676   2.938  14.269  14.504
71894ION    NA+38677  39.944  16.993  12.323
71895ION    NA+38678  16.361  10.108   4.134
71896ION    NA+38679  33.445   2.751   1.300
71897ION    NA+38680  28.571  25.458  13.325
71898ION    NA+38681  27.552   3.054   1.964
71899ION    NA+38682  16.975  40.578   3.001
71900ION    NA+38683  23.292  17.571   3.220
71901ION    NA+38684  28.970  38.687   4.497
71902ION    NA+38685  14.493   3.482  13.687
71903ION    NA+38686  19.071  31.435   4.330
71904ION    NA+38687  33.579   2.360  12.496
71905ION    NA+38688  38.002  33.161   3.560
71906ION    NA+38689  23.710  26.742  13.479
71907ION    NA+38690  31.112   4.913  10.775
71908ION    NA+38691  25.497  14.774  12.891
71909ION    NA+38692  16.434  37.824  12.438
71910ION    NA+38693  17.572  25.608   0.793
71911ION    NA+38694  15.639  23.236   4.551
71912ION    NA+38695   6.139  14.115  14.808
71913ION    NA+38696  18.709  19.560  14.386
71914ION    NA+38697   4.808   9.483  13.868
71915ION    NA+38698  17.179   1.977   4.596
71916ION    NA+38699  26.500  29.816   3.588
71917ION    NA+38700  33.063  17.025   0.892
71918ION    NA+38701  21.023  37.630  14.958
71919ION    NA+38702  24.765   7.524  12.655
71920ION    NA+38703  31.962  40.657   0.262
71921ION    NA+38704  35.929   9.925   3.352
71922ION    NA+38705  22.939  41.351   0.882
71923ION    NA+38706  24.950  20.689   5.290
71924ION    NA+38707  37.864  17.509   1.849
71925ION    NA+38708  19.087  23.473  11.068
71926ION    NA+38709  12.472  20.337   0.714
71927ION    NA+38710  29.600  39.798  13.633
71928ION    NA+38711  39.907  28.166  10.334
71929ION    NA+38712  19.602   2.503  14.793
71930ION    NA+38713   9.745  38.252   0.979
71931ION    NA+38714  23.266  25.777   2.907
71932ION    NA+38715  17.953  11.409   3.627
71933ION    NA+38716  21.458  31.638  14.796
71934ION    NA+38717  15.849  28.707   3.342
71935ION    NA+38718  17.328  24.251   4.344
71936ION    NA+38719   5.589   3.875  14.737
71937ION    NA+38720  12.334  32.018  11.935
71938ION    NA+38721   0.460  30.845   0.427
71939ION    NA+38722  38.436  22.533  10.891
71940ION    NA+38723  22.089  21.685   4.647
71941ION    NA+38724  40.802   2.558   2.293
71942ION    NA+38725  17.890  25.376  10.615
71943ION    NA+38726  10.280  14.411  13.438
71944ION    NA+38727  18.333   3.770  12.630
71945ION    NA+38728  26.553  25.865   4.050
71946ION    NA+38729   5.225   2.911  11.347
71947ION    NA+38730  12.451   3.570  12.861
71948ION    NA+38731  17.139  10.071   3.402
71949ION    NA+38732  26.543   3.279   1.435
71950ION    NA+38733  33.403  30.190  12.797
71951ION    NA+38734  11.782   3.866   1.855
71952ION    NA+38735   0.508  43.563   2.473
71953ION    NA+38736  34.398  40.769  11.056
71954ION    NA+38737  33.137  18.719   4.322
71955ION    NA+38738   1.870  17.427   0.298
71956ION    NA+38739  11.786  39.802   4.636
71957ION    NA+38740  14.920   6.666  13.082
71958ION    NA+38741  15.727  41.632   2.269
71959ION    NA+38742  38.181   7.954   2.497
71960ION    NA+38743  25.411  38.666   2.055
71961ION    NA+38744  28.083  40.406   0.264
71962ION    NA+38745  41.225  18.036  11.273
71963ION    NA+38746  24.617  41.751  10.200
71964ION    NA+38747  10.112  15.689   4.106
71965ION    NA+38748  25.408  29.395   1.620
71966ION    NA+38749   1.374  35.755  14.940
71967ION    NA+38750  30.128   5.361   2.774
71968ION    NA+38751   5.788  16.320   4.993
71969ION    NA+38752  30.242  34.626   0.458
71970ION    NA+38753  31.374  26.638  11.586
71971ION    NA+38754  13.171  43.838   0.595
71972ION    NA+38755  41.990  11.042  11.553
71973ION    NA+38756  20.752  28.398   0.259
71974ION    NA+38757  29.259  17.725  14.904
71975ION    NA+38758   2.761  13.580  10.771
71976ION    NA+38759   5.343  24.212   3.334
71977ION    NA+38760  42.080  44.518  12.942
71978ION    NA+38761   4.944  41.977   1.640
71979ION    NA+38762   8.654  22.730   3.717
71980ION    NA+38763  22.994  10.910  13.675
71981ION    NA+38764  28.964   7.612   0.520
71982ION    NA+38765  11.706   2.464   2.118
71983ION    NA+38766  36.088  33.422   4.694
71984ION    NA+38767  27.352  34.555   3.312
71985ION    NA+38768  37.434  26.542  12.633
71986ION    NA+38769   3.157  42.899   0.058
71987ION    NA+38770   5.603   7.118   2.261
71988ION    NA+38771  42.243  41.074  11.964
71989ION    NA+38772  31.973  14.752  12.020
71990ION    NA+38773  11.645  37.468  14.819
71991ION    NA+38774  13.060   9.121   4.799
71992ION    NA+38775  25.109  10.495  13.057
71993ION    NA+38776  11.872   9.716  13.927
71994ION    NA+38777  39.559  22.321   0.945
71995ION    NA+38778  41.850  36.850   0.983
71996ION    NA+38779  10.352  42.863   4.585
71997ION    NA+38780  19.431  42.364  13.814
71998ION    NA+38781  35.652  40.167  12.086
71999ION    NA+38782  20.084   9.796   2.464
72000ION    NA+38783  37.206  39.934   2.168
72001ION    NA+38784  38.958  29.772  10.143
72002ION    NA+38785  32.656  30.448  11.065
72003ION    NA+38786  21.354   5.892  12.581
72004ION    NA+38787  37.460   9.673  13.733
72005ION    NA+38788  41.766  14.787  12.842
72006ION    NA+38789  14.875  15.477  14.828
72007ION    NA+38790   5.700  39.204   4.312
72008ION    NA+38791  32.823  10.335   5.146
72009ION    NA+38792   8.582  15.646   4.098
72010ION    NA+38793  19.497  33.276  14.852
72011ION    NA+38794   5.411  31.391  12.816
72012ION    NA+38795  19.652  24.940  10.603
72013ION    NA+38796  29.336  36.390  11.973
72014ION    NA+38797  34.333  10.862   3.327
72015ION    NA+38798  29.029  26.048  13.990
72016ION    NA+38799  10.974  13.202  11.631
72017ION    NA+38800  25.614  44.942   4.045
72018ION    NA+38801  14.080  20.050  13.939
72019ION    NA+38802  15.798  16.765  13.073
72020ION    NA+38803  35.829  26.657   0.029
72021ION    NA+38804  25.091  16.354  13.927
72022ION    NA+38805  24.139  42.453   0.262
72023ION    NA+38806  15.038   3.381  10.519
72024ION    NA+38807  33.552  36.846  12.062
72025ION    NA+38808  41.271  10.681   1.937
72026ION    NA+38809  34.847   7.421  14.045
72027ION    NA+38810  18.049  44.010  12.427
72028ION    NA+38811   3.903  16.514   2.034
72029ION    NA+38812  34.000  22.493   5.302
72030ION    NA+38813  38.947  13.926  12.866
72031ION    NA+38814  38.527  27.872   4.413
72032ION    NA+38815  12.057  43.151  10.824
72033ION    NA+38816  35.059  19.333  13.383
72034ION    NA+38817  40.300  34.587   2.782
72035ION    NA+38818  38.636  38.644  13.811
72036ION    NA+38819  21.696  39.228   4.745
72037ION    NA+38820  33.309  27.222   0.416
72038ION    NA+38821  12.576   2.004   3.173
72039ION    NA+38822  24.087   5.809   3.673
72040ION    NA+38823  33.212  44.942   9.428
72041ION    NA+38824  21.805  26.042  13.391
72042ION    NA+38825  44.064  10.257  12.493
72043ION    NA+38826   3.751  11.296   1.441
72044ION    NA+38827  11.673  20.687  12.182
72045ION    NA+38828  16.290  17.016   2.203
72046ION    NA+38829  41.912  38.228   2.816
72047ION    NA+38830  38.550  31.317  14.211
72048ION    NA+38831  29.206   3.910  12.088
72049ION    NA+38832   4.403   4.076   3.924
72050ION    NA+38833  17.361  28.928  12.616
72051ION    NA+38834  37.670  38.373   1.397
72052ION    NA+38835  21.085  26.840   3.413
72053ION    NA+38836  44.637  20.483  12.946
72054ION    NA+38837  40.992  13.646  11.929
72055ION    NA+38838  35.123  24.790   0.719
72056ION    NA+38839   4.843  44.256  12.648
72057ION    NA+38840  29.536  32.560  10.854
72058ION    NA+38841  12.228   0.089   1.122
72059ION    NA+38842  41.094  34.649   2.177
72060ION    NA+38843   0.369  12.623   2.105
72061ION    NA+38844  37.386  19.219  14.536
72062ION    NA+38845  39.175  30.417  12.215
72063ION    NA+38846  26.684  44.746  14.827
72064ION    NA+38847  20.047  28.941   1.389
72065ION    NA+38848  13.010  21.531  12.577
72066ION    NA+38849  31.773  11.774   0.297
72067ION    NA+38850  12.036   0.924   1.637
72068ION    NA+38851  43.045   3.009   0.766
72069ION    NA+38852  22.273  18.333   1.514
72070ION    NA+38853  32.466  23.002  14.315
72071ION    NA+38854  33.824  19.404  10.574
72072ION    NA+38855   3.531  17.247   0.671
72073ION    NA+38856  25.581  31.988   4.624
72074ION    NA+38857  14.830  11.751  14.251
72075ION    NA+38858   4.473  23.557  14.179
72076ION    NA+38859  33.881  43.725  14.011
72077ION    NA+38860  30.851  31.805  11.660
72078ION    NA+38861  21.098   4.544  11.514
72079ION    NA+38862  44.406  17.561  10.791
72080ION    NA+38863  24.204  32.743  13.494
72081ION    NA+38864  35.498  35.825   0.209
72082ION    NA+38865  44.102  41.536  11.292
72083ION    NA+38866   6.733  38.540   1.971
72084ION    NA+38867   0.775   7.696   4.320
72085ION    NA+38868  42.953  12.928  13.266
72086ION    NA+38869   5.432  31.261   3.993
72087ION    NA+38870  13.309  11.157   1.874
72088ION    NA+38871  34.386  34.894   3.998
72089ION    NA+38872  26.367  16.254  14.296
72090ION    NA+38873   3.660  29.710   0.403
72091ION    NA+38874   8.817  41.900   2.712
72092ION    NA+38875  40.982   4.462  11.388
72093ION    NA+38876   2.877  11.872  13.642
72094ION    NA+38877   1.524  26.666   1.794
72095ION    NA+38878  25.493  21.237   2.284
72096ION    NA+38879  34.307  42.944   3.628
72097ION    NA+38880  21.743  21.518  12.267
72098ION    NA+38881  39.491  28.631  12.777
72099ION    NA+38882  29.584  37.351  12.095
72100ION    NA+38883  21.246  10.197   0.222
72101ION    NA+38884  32.547   4.285  10.613
72102ION    NA+38885  35.607  18.298   1.284
72103ION    NA+38886  36.537  17.917  14.637
72104ION    NA+38887  39.526  13.083  12.445
72105ION    NA+38888  35.994  44.488  12.794
72106ION    NA+38889  42.691  22.558  10.833
72107ION    NA+38890  36.005   8.444  14.406
72108ION    NA+38891  38.442  16.907   5.055
72109ION    NA+38892  13.305  43.453   3.055
72110ION    NA+38893  22.177   9.831   1.519
72111ION    NA+38894  11.314   4.122   0.211
72112ION    NA+38895   9.532  43.145   4.086
72113ION    NA+38896  21.765  23.612  10.351
72114ION    NA+38897  29.507  27.204   3.091
72115ION    NA+38898   7.385  13.452   3.052
72116ION    NA+38899   2.998   7.882   2.075
72117ION    NA+38900  27.972  15.164  14.369
72118ION    NA+38901  34.295  20.604  12.292
72119ION    NA+38902  13.351   9.932  14.294
72120ION    NA+38903   6.227  20.809  13.857
72121ION    NA+38904  44.007  38.430  14.351
72122ION    NA+38905   8.829  35.932   4.170
72123ION    NA+38906   5.498   3.535   1.852
72124ION    NA+38907   9.897   6.829  12.047
72125ION    NA+38908  42.035  11.187  10.565
72126ION    NA+38909  16.281  30.011  11.923
72127ION    NA+38910  10.573  23.194   3.750
72128ION    NA+38911  14.550  29.027   9.898
72129ION    NA+38912  40.654  14.732  13.903
72130ION    NA+38913  23.254   6.924   0.028
72131ION    NA+38914  17.297  25.039   9.884
72132ION    NA+38915  10.314  41.995  12.468
72133ION    NA+38916  24.054   6.874  14.084
72134ION    NA+38917   7.385  31.055  11.112
72135ION    NA+38918  11.793  34.899  14.672
72136ION    NA+38919  39.241  40.232   1.394
72137ION    NA+38920  29.249  37.534  14.004
72138ION    NA+38921  16.433   6.005  12.274
72139ION    NA+38922   3.928   5.534  14.535
72140ION    NA+38923  36.318   3.905   2.207
72141ION    NA+38924  16.303   4.255   2.748
72142ION    NA+38925  40.530  32.337  14.428
72143ION    NA+38926  29.163  44.470   2.894
72144ION    NA+38927  16.674  39.800  13.961
72145ION    NA+38928  22.764  32.475  14.898
72146ION    NA+38929  44.013  26.200  12.895
72147ION    NA+38930   7.555   7.850   9.947
72148ION    NA+38931  37.265  24.510   3.631
72149ION    NA+38932  34.862   1.297   3.228
72150ION    NA+38933  43.953  22.064  10.385
72151ION    NA+38934  17.842  13.074   3.208
72152ION    NA+38935  35.347  18.063   3.735
72153ION    NA+38936   4.760  35.177  12.954
72154ION    NA+38937  28.929   5.104   2.110
72155ION    NA+38938  44.790  42.626  12.940
72156ION    NA+38939  15.600   1.997   1.191
72157ION    NA+38940  41.939   6.544   5.161
72158ION    NA+38941  36.090  40.224  13.395
72159ION    NA+38942  20.695  23.001  11.987
72160ION    NA+38943   7.831  23.387  12.633
72161ION    NA+38944   3.633   4.493  13.496
72162ION    NA+38945  29.976   0.269   1.427
72163ION    NA+38946   9.842   0.919  14.645
72164ION    NA+38947  15.059  28.660   2.731
72165ION    NA+38948  13.337   5.703  11.165
72166ION    NA+38949  31.058   6.378  13.243
72167ION    NA+38950  26.926  37.287  12.969
72168ION    NA+38951   7.286  22.754   2.662
72169ION    NA+38952  26.618  32.026  10.749
72170ION    NA+38953  10.574  44.504   4.152
72171ION    NA+38954  19.222  23.553   2.237
72172ION    NA+38955  25.209  44.596  13.785
72173ION    NA+38956  36.975  38.839  14.454
72174ION    NA+38957   4.805  19.004   0.278
72175ION    NA+38958  38.771   1.281   0.687
72176ION    NA+38959   7.253  39.573  10.892
72177ION    NA+38960  10.365   4.431   1.977
72178ION    NA+38961  22.717   9.825  14.761
72179ION    NA+38962  31.737  10.783   0.174
72180ION    NA+38963   5.194   8.204   3.250
72181ION    NA+38964  23.585   6.172   1.698
72182ION    NA+38965  25.569  37.272  11.181
72183ION    NA+38966  26.656  44.468   1.110
72184ION    NA+38967  44.532  18.607  14.911
72185ION    NA+38968  27.094  11.820  14.096
72186ION    NA+38969  25.450  17.800  14.306
72187ION    NA+38970   7.374   4.135   0.702
72188ION    NA+38971  15.541  24.056   2.704
72189ION    NA+38972  37.253  20.351   2.352
72190ION    NA+38973  25.378  21.426  14.379
72191ION    NA+38974   1.751  27.546   4.893
72192ION    NA+38975  32.867  15.881   4.344
72193ION    NA+38976  14.849  42.879   1.595
72194ION    NA+38977   9.051  34.112   4.183
72195ION    NA+38978  29.364  18.051  11.485
72196ION    NA+38979  16.503  14.112  13.769
72197ION    NA+38980  18.689  21.900   0.970
72198ION    NA+38981  25.136   4.985  12.858
72199ION    NA+38982  39.776  20.391   4.422
72200ION    NA+38983  25.870  10.343  11.809
72201ION    NA+38984  17.075  29.683   4.069
72202ION    NA+38985  29.745  20.030  11.194
72203ION    NA+38986  20.108  29.532  12.968
72204ION    NA+38987  14.129  18.799   3.222
72205ION    NA+38988  31.360  19.619  10.458
72206ION    NA+38989   8.088  24.731  10.333
72207ION    NA+38990  16.406  32.510  13.572
72208ION    NA+38991  38.818  34.225   1.899
72209ION    NA+38992  24.672  22.150  10.682
72210ION    NA+38993  39.555   3.703   1.938
72211ION    NA+38994  10.275  13.339  14.644
72212ION    NA+38995  15.533  16.889  11.454
72213ION    NA+38996   4.722  12.557   3.752
72214ION    NA+38997   1.092  39.289  14.879
72215ION    NA+38998   7.149  32.494  11.566
72216ION    NA+38999  14.061  32.807   4.224
72217ION    NA+39000  13.018  33.083  12.682
72218ION    NA+39001  14.380  24.482  11.635
72219ION    NA+39002  37.085   9.781  14.949
72220ION    NA+39003  44.736  38.048  12.852
72221ION    NA+39004  32.526  28.791  10.442
72222ION    NA+39005  18.608  26.049   1.284
72223ION    NA+39006   5.796   2.160  11.679
72224ION    NA+39007  24.868  11.133   4.086
72225ION    NA+39008  14.004  25.534  12.913
72226ION    NA+39009  21.065  39.851   2.671
72227ION    NA+39010   2.893  20.613  12.984
72228ION    NA+39011  22.568  42.080  12.103
72229ION    NA+39012  22.313  23.618  11.187
72230ION    NA+39013  34.107  13.396   0.747
72231ION    NA+39014  28.837   1.640   3.459
72232ION    NA+39015   7.539   0.370   3.652
72233ION    NA+39016  40.425  11.682   2.359
72234ION    NA+39017  33.926  13.555   3.222
72235ION    NA+39018  30.985  26.555   4.936
72236ION    NA+39019  42.597  37.669   1.779
72237ION    NA+39020  24.947  27.698   2.736
72238ION    NA+39021  32.351  40.490  11.585
72239ION    NA+39022   9.915  26.798  11.110
72240ION    NA+39023  39.301  17.649   1.452
72241ION    NA+39024  25.044  26.793   2.614
72242ION    NA+39025  28.655  40.621   2.597
72243ION    NA+39026  28.174  19.328  11.549
72244ION    NA+39027  30.552  20.591  11.574
72245ION    NA+39028  27.689  31.875  11.770
72246ION    NA+39029   5.093  30.657   0.014
72247ION    NA+39030  23.988  18.613  12.942
72248ION    NA+39031  24.100   3.955  13.781
72249ION    NA+39032   4.180  18.589   1.653
72250ION    NA+39033  41.337  19.013   4.280
72251ION    NA+39034  28.160  25.703  11.400
72252ION    NA+39035  30.132  24.762  13.324
72253ION    NA+39036  38.259  11.609  10.791
72254ION    NA+39037   9.595   0.831  13.592
72255ION    NA+39038  38.443  15.603   2.439
72256ION    NA+39039  18.850  13.717   0.819
72257ION    NA+39040  14.067  19.729  11.978
72258ION    NA+39041   9.654  41.433   3.478
72259ION    NA+39042  10.682  31.521   4.221
72260ION    NA+39043   6.538   7.752   2.070
72261ION    NA+39044  14.866  26.100  12.116
72262ION    NA+39045  16.659  25.297  14.235
72263ION    NA+39046  38.977  30.880   1.238
72264ION    NA+39047  15.707  40.537   3.956
72265ION    NA+39048   9.446   4.375   4.581
72266ION    NA+39049  21.892  13.410  14.498
72267ION    NA+39050  19.051  41.774  13.059
72268ION    NA+39051  38.693  21.456   0.852
72269ION    NA+39052  30.725  12.469   1.457
72270ION    NA+39053   7.290  25.171  14.892
72271ION    NA+39054   0.383  30.140  12.587
72272ION    NA+39055  18.985  21.212   4.764
72273ION    NA+39056  22.048  20.033  10.730
72274ION    NA+39057  40.076  33.603  11.963
72275ION    NA+39058  22.392   0.794  13.269
72276ION    NA+39059  16.931  22.843  13.109
72277ION    NA+39060  27.814  30.890  11.647
72278ION    NA+39061  10.451  35.137  13.823
72279ION    NA+39062  16.038   2.165   2.974
72280ION    NA+39063  19.775  10.192  12.483
72281ION    NA+39064  32.449  36.800  10.788
72282ION    NA+39065  29.087  38.573   2.754
72283ION    NA+39066  34.438  27.887  13.656
72284ION    NA+39067  10.844  13.670   3.989
72285ION    NA+39068  27.867  44.965  13.025
72286ION    NA+39069  19.562   0.521   2.678
72287ION    NA+39070  22.708  19.476  10.904
72288ION    NA+39071  39.975  21.982   2.261
72289ION    NA+39072  31.347  14.624   1.976
72290ION    NA+39073  41.670  29.197   1.603
72291ION    NA+39074  37.034   6.850  11.659
72292ION    NA+39075  25.430  27.503  13.819
72293ION    NA+39076  34.812  17.746   9.947
72294ION    NA+39077  10.651  33.454  14.932
72295ION    NA+39078  42.278  24.009  11.379
72296ION    NA+39079  44.444  20.816   5.045
72297ION    NA+39080  27.081  20.365  11.471
72298ION    NA+39081  39.313  16.290   4.798
72299ION    NA+39082  38.962   1.994  12.072
72300ION    NA+39083  40.809  19.817  14.243
72301ION    NA+39084  23.575  36.409  12.015
72302ION    NA+39085   9.179  25.459   3.778
72303ION    NA+39086  33.644  33.891  12.871
72304ION    NA+39087  25.284  23.184   0.915
72305ION    NA+39088  21.575  28.635   0.796
72306ION    NA+39089  32.618   8.774   2.721
72307ION    NA+39090  16.169  40.018   3.195
72308ION    NA+39091   9.424  24.883   1.887
72309ION    NA+39092   4.930  23.284   0.162
72310ION    NA+39093  36.795  21.706   1.034
72311ION    NA+39094  32.750  17.116   3.425
72312ION    NA+39095  13.380  38.934   3.925
72313ION    NA+39096  36.197  43.981  13.509
72314ION    NA+39097   9.964  19.053   1.185
72315ION    NA+39098   2.065  42.856  10.846
72316ION    NA+39099  36.505  22.761  10.640
72317ION    NA+39100  44.712   8.913   0.791
72318ION    NA+39101   8.366  20.993  12.488
72319ION    NA+39102  13.736  20.049  10.736
72320ION    NA+39103   7.906  44.372   0.499
72321ION    NA+39104  27.516  30.973   2.476
72322ION    NA+39105   7.294  15.061   2.882
72323ION    NA+39106  25.392  32.050  10.794
72324ION    NA+39107  27.666   6.224   1.068
72325ION    NA+39108   0.388  38.048  12.059
72326ION    NA+39109  44.005  28.653  12.791
72327ION    NA+39110  43.514  25.866  13.695
72328ION    NA+39111  32.446  12.596  13.522
72329ION    NA+39112   0.728  28.200   0.838
72330ION    NA+39113   9.662   1.247  11.976
72331ION    NA+39114   8.693   6.946   3.448
72332ION    NA+39115  35.958  24.354   2.130
72333ION    NA+39116  40.788  30.642   3.806
72334ION    NA+39117  20.978  37.507  13.170
72335ION    NA+39118  16.861  25.675   1.494
72336ION    NA+39119  44.731  25.775   1.740
72337ION    NA+39120  42.584  15.478  11.136
72338ION    NA+39121  36.817  10.289   3.070
72339ION    NA+39122  32.377   2.763   0.507
72340ION    NA+39123  19.422  36.330   0.212
72341ION    NA+39124  32.634  20.002   3.880
72342ION    NA+39125  42.021  11.236  13.907
72343ION    NA+39126  18.609  41.741   1.872
72344ION    NA+39127  36.749  29.165   0.680
72345ION    NA+39128   4.047   9.392   4.847
72346ION    NA+39129   5.143  44.370   3.603
72347ION    NA+39130  18.807  11.926   3.689
72348ION    NA+39131  31.567   2.153   1.955
72349ION    NA+39132   4.745  42.833   3.694
72350ION    NA+39133  12.873  42.855  11.321
72351ION    NA+39134  43.126  33.772  13.102
72352ION    NA+39135  42.921  10.373   4.061
72353ION    NA+39136  35.601  12.689  12.784
72354ION    NA+39137  37.069  42.836  14.796
72355ION    NA+39138  41.679  23.462   3.655
72356ION    NA+39139  14.132  15.430  11.273
72357ION    NA+39140  19.449   4.931  13.418
72358ION    NA+39141  20.822  35.160   0.008
72359ION    NA+39142  15.760  15.365  11.469
72360ION    NA+39143   8.845  24.536  10.993
72361ION    NA+39144   3.481  26.449  13.025
72362ION    NA+39145  31.439   8.324  11.958
72363ION    NA+39146  40.106  11.680   0.111
72364ION    NA+39147  32.035   0.314   4.033
72365ION    NA+39148  11.150  44.934   3.755
72366ION    NA+39149   4.779  27.800   9.616
72367ION    NA+39150  39.013   8.709   0.402
72368ION    NA+39151   1.220   3.449   3.715
72369ION    NA+39152  11.370  44.299   4.210
72370ION    NA+39153  11.981  23.096   1.906
72371ION    NA+39154  32.516  31.819   2.290
72372ION    NA+39155  31.756   4.445  12.491
72373ION    NA+39156  22.994  11.689   1.458
72374ION    NA+39157  30.702   4.415   3.697
72375ION    NA+39158  41.481  32.762  11.196
72376ION    NA+39159  26.437   0.260   2.459
72377ION    NA+39160  28.267  30.435  13.477
72378ION    NA+39161  43.100  41.543  13.481
72379ION    NA+39162  12.769  40.336   3.315
72380ION    NA+39163  12.344  11.153   2.138
72381ION    NA+39164   8.449   2.010  13.821
72382ION    NA+39165  32.003   3.974   5.377
72383ION    NA+39166   7.209   9.670   0.582
72384ION    NA+39167  30.590  32.685   1.007
72385ION    NA+39168  10.884  21.294  12.277
72386ION    NA+39169  43.173  26.755  14.001
72387ION    NA+39170  31.562  35.365  11.995
72388ION    NA+39171  17.110  28.235   0.990
72389ION    NA+39172  30.992  32.817  11.666
72390ION    NA+39173  32.161  35.932  11.192
72391ION    NA+39174   6.389  23.977  11.571
72392ION    NA+39175   6.912   4.897   0.248
72393ION    NA+39176  21.827   1.457   3.042
72394ION    NA+39177  36.740   9.078   1.925
72395ION    NA+39178  14.094   0.507   1.698
72396ION    NA+39179  42.214  33.411  13.882
72397ION    NA+39180  12.800  13.856  13.573
72398ION    NA+39181  24.174  12.292  12.961
72399ION    NA+39182  41.368  36.902  12.620
72400ION    NA+39183  17.144  11.052   3.595
72401ION    NA+39184  36.184  19.405  10.665
72402ION    NA+39185  16.009  41.415   1.334
72403ION    NA+39186  13.884  41.280  13.810
72404ION    NA+39187   8.243  19.587  14.434
72405ION    NA+39188   2.792   8.433  10.757
72406ION    NA+39189  10.286  12.175  14.067
72407ION    NA+39190  40.597  31.982  13.495
72408ION    NA+39191  19.707  37.806   0.397
72409ION    NA+39192   8.013  14.121   2.347
72410ION    NA+39193  21.007  41.137  14.233
72411ION    NA+39194  31.511  19.971   3.156
72412ION    NA+39195  18.794  30.120   1.364
72413ION    NA+39196  30.081  34.575   4.756
72414ION    NA+39197  37.100  17.673   0.243
72415ION    NA+39198   1.783  24.238  12.545
72416ION    NA+39199  30.089  11.709  12.588
72417ION    NA+39200  37.067  22.895   1.626
72418ION    NA+39201   6.489  13.087  12.562
72419ION    NA+39202  13.788  12.760   4.734
72420ION    NA+39203  12.855  11.948  10.947
72421ION    NA+39204  17.790   5.450   3.634
72422ION    NA+39205  38.504   9.067   3.266
72423ION    NA+39206  31.242   5.687   9.523
72424ION    NA+39207  44.414  30.105   0.675
72425ION    NA+39208  18.627   2.902  11.265
72426ION    NA+39209  42.070  39.229  13.934
72427ION    NA+39210   4.117   4.470  11.668
72428ION    NA+39211  44.700   7.210  12.098
72429ION    NA+39212  29.478  17.495   1.178
72430ION    NA+39213  14.410  17.150  12.872
72431ION    NA+39214  38.805   4.781   2.752
72432ION    NA+39215  12.862  34.404  11.121
72433ION    NA+39216  25.671  44.886  11.202
72434ION    NA+39217  21.594  44.021   0.477
72435ION    NA+39218  13.848   4.799   0.911
72436ION    NA+39219  20.299  11.082   1.552
72437ION    NA+39220  44.474  37.340   0.249
72438ION    NA+39221  31.361  31.175  14.842
72439ION    NA+39222  40.086  32.142   4.238
72440ION    NA+39223  23.514  28.647  14.659
72441ION    NA+39224  25.454   5.100   0.686
72442ION    NA+39225  41.461  14.687   1.927
72443ION    NA+39226  17.783  14.406  14.960
72444ION    NA+39227  21.022  17.326  11.871
72445ION    NA+39228  35.590  34.088   2.151
72446ION    NA+39229   9.698  10.252  13.795
72447ION    NA+39230  29.607   1.188   2.882
72448ION    NA+39231  12.577   3.019  12.209
72449ION    NA+39232  33.727  19.852  12.628
72450ION    NA+39233  22.641  25.611   2.144
72451ION    NA+39234  35.912   9.727  11.250
72452ION    NA+39235  28.721   2.726  13.464
72453ION    NA+39236  36.878   4.538   4.355
72454ION    NA+39237  16.302  33.742   2.845
72455ION    NA+39238   7.841   7.342   9.610
72456ION    NA+39239   0.733   9.175  14.574
72457ION    NA+39240  11.367  28.946  10.653
72458ION    NA+39241  17.253  15.670   2.920
72459ION    NA+39242  31.258   6.612  14.462
72460ION    NA+39243  39.444  29.992   2.755
72461ION    NA+39244  20.866   1.216   2.528
72462ION    NA+39245  23.225  32.072  12.125
72463ION    NA+39246   3.982  15.939   3.903
72464ION    NA+39247  29.102  26.249   0.275
72465ION    NA+39248  16.787  36.466   1.050
72466ION    NA+39249  28.102  16.015   1.263
72467ION    NA+39250  35.455   2.672  11.180
72468ION    NA+39251  37.785   6.585   4.391
72469ION    NA+39252  40.923  42.514  12.706
72470ION    NA+39253  43.771  41.360   1.322
72471ION    NA+39254   4.092   5.745   1.698
72472ION    NA+39255  12.377  43.327  13.954
72473ION    NA+39256  19.055  16.309  14.538
72474ION    NA+39257  38.660  44.778   2.004
72475ION    NA+39258  27.378  40.634   0.965
72476ION    NA+39259   6.781  32.917   2.096
72477ION    NA+39260   3.990  32.685   0.544
72478ION    NA+39261  41.407  23.999  14.993
72479ION    NA+39262   6.444   6.457  13.156
72480ION    NA+39263   3.244   0.028  12.805
72481ION    NA+39264   8.913  14.945  13.182
72482ION    NA+39265  36.078  11.161   3.838
72483ION    NA+39266  37.741  28.416   1.722
72484ION    NA+39267  18.946  25.079   4.647
72485ION    NA+39268   8.257  33.109  13.168
72486ION    NA+39269  16.314  23.762  14.782
72487ION    NA+39270  18.438  23.866   1.026
72488ION    NA+39271  11.722  17.034   3.364
72489ION    NA+39272  41.656   3.075   2.254
72490ION    NA+39273  10.843  25.949   2.696
72491ION    NA+39274   6.892  16.282  12.252
72492ION    NA+39275  43.422  36.754   1.648
72493ION    NA+39276  13.263  31.975   5.095
72494ION    NA+39277   2.907  19.445   0.935
72495ION    NA+39278  41.926  13.224  13.926
72496ION    NA+39279  37.722  28.210  12.009
72497ION    NA+39280  23.295  37.709   0.121
72498ION    NA+39281  37.470  20.769   0.464
72499ION    NA+39282   9.457   6.636  11.081
72500ION    NA+39283  12.360  24.481   0.356
72501ION    NA+39284  10.861  10.970  13.226
72502ION    NA+39285  40.820  38.390   0.310
72503ION    NA+39286   2.309  34.324  11.172
72504ION    NA+39287  37.114  22.037  11.438
72505ION    NA+39288  30.977   0.172   2.960
72506ION    NA+39289  12.009  14.114  13.939
72507ION    NA+39290  15.267   5.711  13.920
72508ION    NA+39291   5.719  12.354   2.792
72509ION    NA+39292  29.158  10.124   1.447
72510ION    NA+39293   9.265   0.801   3.681
72511ION    NA+39294   9.343  28.637   0.938
72512ION    NA+39295  21.380  16.329  13.072
72513ION    NA+39296   3.409   5.758  11.084
72514ION    NA+39297  24.059  42.871   4.761
72515ION    NA+39298   9.392  30.750  10.856
72516ION    NA+39299  14.282  26.025  10.757
72517ION    NA+39300  42.793   5.464  12.297
72518ION    NA+39301  25.412   7.576   2.766
72519ION    NA+39302  36.456  20.933   2.185
72520ION    NA+39303   5.761  19.478  12.900
72521ION    NA+39304  12.538  29.443  12.397
72522ION    NA+39305  17.040  31.106   0.479
72523ION    NA+39306  36.392  18.640  14.147
72524ION    NA+39307  18.338  23.681   3.056
72525ION    NA+39308  43.043  25.192   2.425
72526ION    NA+39309  34.649   9.782  10.656
72527ION    NA+39310  36.518  25.369   2.738
72528ION    NA+39311  21.207  42.517  14.061
72529ION    NA+39312  20.674   8.759   0.496
72530ION    NA+39313   8.606  22.241   1.982
72531ION    NA+39314   2.427  18.364  12.912
72532ION    NA+39315  31.512   3.262   3.612
72533ION    NA+39316   1.253  17.266  14.511
72534ION    NA+39317  40.862  18.447  13.827
72535ION    NA+39318  27.254   1.336   4.984
72536ION    NA+39319  17.541  33.667  14.161
72537ION    NA+39320  26.657  39.571   1.281
72538ION    NA+39321   6.387  34.561   0.030
72539ION    NA+39322  14.099  15.752   0.587
72540ION    NA+39323  32.968  38.641   0.115
72541ION    NA+39324  42.264  32.150  11.464
72542ION    NA+39325  35.727  39.567   4.184
72543ION    NA+39326   6.271  30.593  11.754
72544ION    NA+39327  20.017  23.863   0.598
72545ION    NA+39328  13.007  28.572   5.181
72546ION    NA+39329   5.907  22.168   4.157
72547ION    NA+39330   3.423  25.788   3.496
72548ION    NA+39331  21.327  40.418   1.889
72549ION    NA+39332   7.580  10.264  10.733
72550ION    NA+39333  13.106  22.529   2.117
72551ION    NA+39334  31.107  33.699   1.770
72552ION    NA+39335  36.754  33.283  11.207
72553ION    NA+39336  37.117   0.336   4.102
72554ION    NA+39337  36.880   0.410   3.108
72555ION    NA+39338  40.275  34.568  11.134
72556ION    NA+39339  12.376  16.931  11.514
72557ION    NA+39340  36.731   2.007  13.247
72558ION    NA+39341  22.039  44.922  14.760
72559ION    NA+39342  11.562  16.185   1.381
72560ION    NA+39343  32.972  14.052   2.318
72561ION    NA+39344  10.752   3.547   4.355
72562ION    NA+39345  42.485  25.375   1.205
72563ION    NA+39346  25.728  26.628   0.928
72564ION    NA+39347  44.886  34.293  12.939
72565ION    NA+39348  23.956  15.778   1.214
72566ION    NA+39349  34.748  20.925  14.472
72567ION    NA+39350   2.627  27.190   1.098
72568ION    NA+39351  21.966  20.570  13.863
72569ION    NA+39352   6.072  16.851  12.196
72570ION    NA+39353  24.238  33.908  12.707
72571ION    NA+39354   6.581   2.799  10.672
72572ION    NA+39355  11.460  11.588   2.858
72573ION    NA+39356  39.762  41.862   0.742
72574ION    NA+39357  13.898  11.931  11.078
72575ION    NA+39358   1.197  41.931  11.100
72576ION    NA+39359  23.355  40.784  14.804
72577ION    NA+39360  18.253  27.413  14.869
72578ION    NA+39361   5.805  25.156  13.420
72579ION    NA+39362  14.715  40.140  14.762
72580ION    NA+39363   3.985   4.742   1.426
72581ION    NA+39364  21.099  39.723  13.005
72582ION    NA+39365  28.316  12.903  11.193
72583ION    NA+39366   5.909  35.034  13.564
72584ION    NA+39367  38.851   1.160   1.677
72585ION    NA+39368   5.173   9.167   4.253
72586ION    NA+39369  10.182  20.803  11.487
72587ION    NA+39370  38.837   1.087   2.674
72588ION    NA+39371  38.564  38.428  12.608
72589ION    NA+39372  21.360  14.599   4.156
72590ION    NA+39373  36.290  30.518   4.696
72591ION    NA+39374  23.233  19.396   3.916
72592ION    NA+39375   5.337  36.835   2.181
72593ION    NA+39376  33.309  13.404  13.247
72594ION    NA+39377   5.425  39.797   3.227
72595ION    NA+39378  20.656   5.407  13.617
72596ION    NA+39379   5.991   5.177   2.928
72597ION    NA+39380  35.663   7.481  14.277
72598ION    NA+39381   9.885   1.721  14.311
72599ION    NA+39382   4.805   7.421   0.722
72600ION    NA+39383  22.000  21.460  11.308
72601ION    NA+39384  24.106   2.367  12.552
72602ION    NA+39385  36.942  29.933  11.106
72603ION    NA+39386  39.020  44.742  12.107
72604ION    NA+39387  31.566  19.412  11.294
72605ION    NA+39388   3.369   8.004   3.162
72606ION    NA+39389  36.429   1.057  11.569
72607ION    NA+39390  25.279  43.174   2.052
72608ION    NA+39391   9.153  20.683   2.123
72609ION    NA+39392   2.600  22.036   3.637
72610ION    NA+39393   3.507   1.528  13.695
72611ION    NA+39394  15.748   8.048   1.947
72612ION    NA+39395  30.409  29.000  13.788
72613ION    NA+39396  38.114  40.755   2.959
72614ION    NA+39397  42.022  40.877  14.852
72615ION    NA+39398  40.764  11.119  14.810
72616ION    NA+39399  10.112  16.174  11.432
72617ION    NA+39400  37.709  16.093  11.960
72618ION    NA+39401  29.041  14.128   3.630
72619ION    NA+39402  11.127  37.855   0.817
72620ION    NA+39403  35.908  24.316   0.320
72621ION    NA+39404  22.986  41.027   4.142
72622ION    NA+39405  29.957  22.056   0.419
72623ION    NA+39406  23.000  36.908   0.387
72624ION    NA+39407  18.765  27.030   1.537
72625ION    NA+39408  28.385  22.099  13.569
72626ION    NA+39409  42.711  30.403  11.556
72627ION    NA+39410  28.371  33.738  11.347
72628ION    NA+39411  19.655  37.754   1.514
72629ION    NA+39412  33.525  41.548  10.320
72630ION    NA+39413  23.977  16.203   0.055
72631ION    NA+39414   3.541  44.765   2.695
72632ION    NA+39415  27.983   6.752   3.670
72633ION    NA+39416  32.330  22.852   0.449
72634ION    NA+39417  28.091  39.645   1.919
72635ION    NA+39418  36.223  44.900   3.795
72636ION    NA+39419  10.708  15.968  14.869
72637ION    NA+39420  30.963   0.321   4.440
72638ION    NA+39421  20.824   5.015   3.681
72639ION    NA+39422  26.393  13.120   0.359
72640ION    NA+39423  23.842  16.539   1.940
72641ION    NA+39424  11.882   9.785  11.671
72642ION    NA+39425  12.531  26.517   4.044
72643ION    NA+39426  29.433   8.850   4.083
72644ION    NA+39427  18.653  40.925   1.295
72645ION    NA+39428  18.126   4.479  10.296
72646ION    NA+39429  32.047  25.999   2.362
72647ION    NA+39430   8.259  24.030   0.536
72648ION    NA+39431  27.588  30.290  12.301
72649ION    NA+39432  23.116  24.706  13.892
72650ION    NA+39433  42.754  23.955  14.914
72651ION    NA+39434  25.598  28.895  10.261
72652ION    NA+39435  13.606  23.444   0.015
72653ION    NA+39436  38.372  27.129  11.860
72654ION    NA+39437  18.976  29.992   0.004
72655ION    NA+39438   6.398  35.365  12.620
72656ION    NA+39439  32.822   5.692  10.863
72657ION    NA+39440  14.919  13.629  14.962
72658ION    NA+39441  21.658  34.608  13.387
72659ION    NA+39442  43.031   6.405   0.617
72660ION    NA+39443  26.119  42.433   4.809
72661ION    NA+39444  11.669   5.910   0.415
72662ION    NA+39445  20.386  30.387  10.684
72663ION    NA+39446   9.148   8.734   3.215
72664ION    NA+39447  43.731  41.782   0.338
72665ION    NA+39448   1.587  28.526   1.116
72666ION    NA+39449  19.984  38.542  11.227
72667ION    NA+39450   3.423  32.380   1.172
72668ION    NA+39451  19.649  14.281  11.957
72669ION    NA+39452  18.160  12.387   1.252
72670ION    NA+39453   4.443   8.376   0.293
72671ION    NA+39454   8.200  24.916  14.401
72672ION    NA+39455  35.068  36.844   0.731
72673ION    NA+39456  35.813   4.217   1.281
72674ION    NA+39457  26.197  33.911  13.959
72675ION    NA+39458  36.419  43.793   4.408
72676ION    NA+39459  38.319  44.758  11.384
72677ION    NA+39460   2.161  39.070  11.329
72678ION    NA+39461  44.924  37.776   3.780
72679ION    NA+39462  35.021  32.025   1.451
72680ION    NA+39463  24.498  29.658  11.511
72681ION    NA+39464  30.504  17.034  12.273
72682ION    NA+39465   4.686  39.113   2.394
72683ION    NA+39466  38.055   2.697  11.009
72684ION    NA+39467  18.748  18.836   4.119
72685ION    NA+39468  16.363  13.218   4.983
72686ION    NA+39469  43.436  13.683  14.274
72687ION    NA+39470  10.829  18.544   1.782
72688ION    NA+39471  28.024  26.227  14.158
72689ION    NA+39472  21.563   4.210  13.043
72690ION    NA+39473   1.832   6.479  14.677
72691ION    NA+39474   7.736  33.791  14.383
72692ION    NA+39475  15.566  27.733  12.747
72693ION    NA+39476  20.112  26.677   1.782
72694ION    NA+39477  15.557   8.716  13.229
72695ION    NA+39478  38.665  12.127   3.136
72696ION    NA+39479  21.647  18.043  10.736
72697ION    NA+39480   3.704  13.558  10.358
72698ION    NA+39481  15.577  34.840  11.163
72699ION    NA+39482  27.993  21.404  10.259
72700ION    NA+39483  17.294   0.334  10.329
72701ION    NA+39484   1.694  41.144  13.991
72702ION    NA+39485   7.234  14.580  11.957
72703ION    NA+39486  22.529   1.490   4.752
72704ION    NA+39487  26.346  32.351   4.320
72705ION    NA+39488  23.250   0.868   5.090
72706ION    NA+39489  13.687  30.856   4.214
72707ION    NA+39490  35.517  43.349  12.396
72708ION    NA+39491  32.721  37.493   0.872
72709ION    NA+39492   1.173  42.866  10.335
72710ION    NA+39493   8.135  35.239   5.111
72711ION    NA+39494  14.892  23.298  10.029
72712ION    NA+39495  18.095   9.007   0.109
72713ION    NA+39496  16.166  42.717  11.824
72714ION    NA+39497  17.922  26.117  14.461
72715ION    NA+39498  21.382  41.429   1.924
72716ION    NA+39499   7.541   1.943   3.223
72717ION    NA+39500  25.787   4.429  12.587
72718ION    NA+39501  36.495  18.428  14.988
72719ION    NA+39502  11.304  32.430   4.904
72720ION    NA+39503   7.348  38.782  12.839
72721ION    NA+39504  33.585   0.603  13.075
72722ION    NA+39505  42.798  33.470   0.818
72723ION    NA+39506  30.108   8.160  10.650
72724ION    NA+39507  32.933  37.249  12.569
72725ION    NA+39508   6.777   2.866  11.529
72726ION    NA+39509  23.378  34.669   1.860
72727ION    NA+39510   7.729   9.324   2.131
72728ION    NA+39511  12.838   6.515   0.711
72729ION    NA+39512  38.415  28.411   3.577
72730ION    NA+39513  28.062   5.018  14.736
72731ION    NA+39514   1.474  21.951   2.171
72732ION    NA+39515   4.424  13.234   0.572
72733ION    NA+39516  41.642   6.810  12.920
72734ION    NA+39517  26.660  31.551   0.442
72735ION    NA+39518  41.021  42.059  14.215
72736ION    NA+39519  33.925  20.636  14.961
72737ION    NA+39520   0.051  37.750   1.764
72738ION    NA+39521  20.359  43.826  12.198
72739ION    NA+39522  12.344  25.671   4.543
72740ION    NA+39523  43.951  14.839   3.551
72741ION    NA+39524   5.249  41.521   3.397
72742ION    NA+39525  37.065  18.696   1.592
72743ION    NA+39526  37.125  35.966  12.008
72744ION    NA+39527  17.259  33.524   3.078
72745ION    NA+39528  24.560   1.755  14.609
72746ION    NA+39529  22.197  39.258  14.451
72747ION    NA+39530  31.506  41.466   4.650
72748ION    NA+39531  23.706  23.879   4.573
72749ION    NA+39532  21.033  40.668  13.326
72750ION    NA+39533  14.434  17.362   4.331
72751ION    NA+39534  28.494  18.418  11.813
72752ION    NA+39535   8.631  25.080  12.161
72753ION    NA+39536  44.409  23.480  12.075
72754ION    NA+39537  19.909  24.281   2.435
72755ION    NA+39538  11.092  17.847   3.042
72756ION    NA+39539  17.238   5.400   0.914
72757ION    NA+39540  38.091  17.787  13.944
72758ION    NA+39541  22.958  29.882  13.457
72759ION    NA+39542  37.054  39.518  13.264
72760ION    NA+39543  15.742  40.682   2.580
72761ION    NA+39544  18.534  23.424  11.767
72762ION    NA+39545  10.946  39.588   1.361
72763ION    NA+39546  24.252  31.688   2.827
72764ION    NA+39547  32.729  29.693   3.088
72765ION    NA+39548  14.564  34.862   5.339
72766ION    NA+39549   5.836  40.265   3.877
72767ION    NA+39550  34.307  12.455   5.117
72768ION    NA+39551  17.386  25.737  13.707
72769ION    NA+39552  32.551  23.110  13.325
72770ION    NA+39553  27.771   3.057   4.891
72771ION    NA+39554  29.907  15.369  13.120
72772ION    NA+39555   7.474   9.234  10.730
72773ION    NA+39556   4.716   4.999  11.067
72774ION    NA+39557  32.252   1.693   2.349
72775ION    NA+39558  34.725   3.607   2.648
72776ION    NA+39559   2.504  20.739  11.376
72777ION    NA+39560   0.835   3.449  10.369
72778ION    NA+39561  20.143  22.424  12.588
72779ION    NA+39562  10.494   7.835  13.205
72780ION    NA+39563  25.039  22.803  10.219
72781ION    NA+39564  28.249  39.336   0.541
72782ION    NA+39565   8.972   2.703   3.880
72783ION    NA+39566  34.917   5.441   3.896
72784ION    NA+39567  21.011  11.228  13.515
72785ION    NA+39568  11.151  26.954  11.328
72786ION    NA+39569  24.831  15.687  12.227
72787ION    NA+39570  39.609   9.788   0.965
72788ION    NA+39571  12.623  32.866   0.102
72789ION    NA+39572  42.307  20.747   4.093
72790ION    NA+39573  43.843  42.523   1.234
72791ION    NA+39574   2.302  11.886   2.369
72792ION    NA+39575  21.355   0.190   1.905
72793ION    NA+39576  10.656  30.551   3.075
72794ION    NA+39577   5.967  32.355  14.049
72795ION    NA+39578  26.594   9.689  13.726
72796ION    NA+39579   5.445  20.587  12.423
72797ION    NA+39580  32.103  20.969   2.160
72798ION    NA+39581   3.216   2.362  14.459
72799ION    NA+39582  36.317  22.511  11.863
72800ION    NA+39583  39.000  18.187  11.955
72801ION    NA+39584   2.948  37.941   0.463
72802ION    NA+39585   7.302  22.364  11.383
72803ION    NA+39586   9.931   4.775  13.799
72804ION    NA+39587   7.849  17.097   2.215
72805ION    NA+39588  42.622  17.353   1.726
72806ION    NA+39589  18.063  13.872  12.603
72807ION    NA+39590  18.760   6.751   2.403
72808ION    NA+39591  29.642  21.379  13.067
72809ION    NA+39592   0.415  44.480  11.609
72810ION    NA+39593  22.001   8.646  14.325
72811ION    NA+39594   5.762  33.878   0.448
72812ION    NA+39595  29.684  13.602   0.329
72813ION    NA+39596  38.754  35.582  13.511
72814ION    NA+39597  17.874   1.358  10.888
72815ION    NA+39598   5.785  38.578  12.377
72816ION    NA+39599  42.677  37.193  11.967
72817ION    NA+39600   8.075  16.839   9.672
72818ION    NA+39601  23.943  40.909  14.121
72819ION    NA+39602  25.660  25.486  14.799
72820ION    NA+39603  19.177  22.569   3.392
72821ION    NA+39604  24.208  34.190  14.512
72822ION    NA+39605  44.317  36.728   2.138
72823ION    NA+39606   8.716  17.177   3.369
72824ION    NA+39607  41.108  20.200  13.498
72825ION    NA+39608   2.151   9.593  11.159
72826ION    NA+39609  11.840   6.309  10.554
72827ION    NA+39610   6.636   5.317  10.345
72828ION    NA+39611  18.411  22.990  14.146
72829ION    NA+39612   0.992  28.904   0.561
72830ION    NA+39613  10.299  35.551   1.201
72831ION    NA+39614  11.830  36.305  14.873
72832ION    NA+39615  40.282  27.946  11.143
72833ION    NA+39616   1.959  27.696  12.525
72834ION    NA+39617  34.714  36.429  14.087
72835ION    NA+39618  44.814  39.988  13.981
72836ION    NA+39619  11.661   6.784  11.657
72837ION    NA+39620  35.192   2.803   9.959
72838ION    NA+39621   6.141  14.209  10.186
72839ION    NA+39622   6.425  16.212   1.345
72840ION    NA+39623  38.201  37.712   3.207
72841ION    NA+39624  43.396  21.491  11.535
72842ION    NA+39625  34.728   7.098  14.818
72843ION    NA+39626   8.393   6.364   0.966
72844ION    NA+39627  42.770  13.587   0.014
72845ION    NA+39628  28.953   9.237  14.977
72846ION    NA+39629  16.574  10.289   0.375
72847ION    NA+39630  13.373  20.393  12.578
72848ION    NA+39631  22.249   9.097   0.715
72849ION    NA+39632  13.829   7.099  14.879
72850ION    NA+39633  23.068   2.771   4.247
72851ION    NA+39634  25.875  10.817  14.960
72852ION    NA+39635   5.611  21.102  13.323
72853ION    NA+39636   2.323  10.125   2.488
72854ION    NA+39637  31.910   5.266   3.972
72855ION    NA+39638  38.995   7.778  14.428
72856ION    NA+39639   2.161  33.080  13.917
72857ION    NA+39640   4.713  18.379  11.105
72858ION    NA+39641   5.193  27.208  14.132
72859ION    NA+39642   5.925  11.705  12.802
72860ION    NA+39643   0.466   7.822  11.266
72861ION    NA+39644  29.393   6.096   2.471
72862ION    NA+39645   3.852   2.355  11.632
72863ION    NA+39646  27.511  26.990   0.998
72864ION    NA+39647  43.908  21.001   2.551
72865ION    NA+39648  36.974   0.567  14.971
72866ION    NA+39649  38.203  25.566  12.420
72867ION    NA+39650   4.516  20.721   0.198
72868ION    NA+39651   7.690  12.665  14.582
72869ION    NA+39652  15.365  10.206   4.276
72870ION    NA+39653  41.272  43.990   4.327
72871ION    NA+39654  23.488  10.409   0.638
72872ION    NA+39655   1.849  16.430   0.222
72873ION    NA+39656   2.636  25.645   3.892
72874ION    NA+39657  30.887  31.026   3.887
72875ION    NA+39658  22.984  26.250   5.220
72876ION    NA+39659  11.907   7.843   2.227
72877ION    NA+39660   8.950   4.138  10.775
72878ION    NA+39661  27.097  38.047   2.343
72879ION    NA+39662   8.382  35.350  13.646
72880ION    NA+39663  43.610  18.015  10.830
72881ION    NA+39664  42.937  20.572  13.636
72882ION    NA+39665   1.145   5.284   3.502
72883ION    NA+39666   8.469  10.336  11.236
72884ION    NA+39667  25.667   6.082  12.564
72885ION    NA+39668   7.699  16.127  10.847
72886ION    NA+39669   9.497  23.003   1.620
72887ION    NA+39670  40.363  40.962  13.696
72888ION    NA+39671   8.034   6.608   3.997
72889ION    NA+39672  39.023   9.241  12.502
72890ION    NA+39673   9.365  29.622   1.109
72891ION    NA+39674  15.336  43.181  12.553
72892ION    NA+39675  33.140  12.307   3.322
72893ION    NA+39676   9.696  19.532  12.793
72894ION    NA+39677  37.995   9.684   4.328
72895ION    NA+39678  34.487  14.643   0.348
72896ION    NA+39679  39.252  16.775   3.755
72897ION    NA+39680  26.018  26.293  14.997
72898ION    NA+39681  36.111  10.810   1.796
72899ION    NA+39682   7.636  12.343  13.435
72900ION    NA+39683  17.879  28.616   0.266
72901ION    NA+39684   5.361  21.355   3.482
72902ION    NA+39685  20.811  39.491  11.118
72903ION    NA+39686  25.352  31.115  12.683
72904ION    NA+39687   1.900   7.385  14.259
72905ION    NA+39688  16.377   2.493   0.801
72906ION    NA+39689  13.108  20.937   0.513
72907ION    NA+39690  18.411  21.544  13.116
72908ION    NA+39691  18.715  21.202   3.718
72909ION    NA+39692   2.932  26.631   0.453
72910ION    NA+39693   3.438  43.813  13.496
72911ION    NA+39694   9.295   1.067   9.655
72912ION    NA+39695  43.651  35.320   5.005
72913ION    NA+39696  39.164  12.426   2.474
72914ION    NA+39697  40.112  36.826   4.524
72915ION    NA+39698  28.542   4.287   0.507
72916ION    NA+39699  44.249   4.216   1.019
72917ION    NA+39700  27.015  17.763  12.499
72918ION    NA+39701  41.583   2.616   0.152
72919ION    NA+39702  38.598  36.798   3.298
72920ION    NA+39703   0.883   7.805  12.174
72921ION    NA+39704  39.880  40.897   1.365
72922ION    NA+39705  17.420  39.602   2.268
72923ION    NA+39706   1.994  13.092  11.756
72924ION    NA+39707  41.284  35.138  11.683
72925ION    NA+39708   6.537   3.186  13.701
72926ION    NA+39709   4.958  30.885   4.659
72927ION    NA+39710  39.378   5.559  12.403
72928ION    NA+39711  20.735  11.321  14.827
72929ION    NA+39712  23.600  39.240   2.031
72930ION    NA+39713  37.402  37.928  12.131
72931ION    NA+39714   5.352  29.860  14.467
72932ION    NA+39715  10.932  16.957   0.197
72933ION    NA+39716  27.099   6.391  13.130
72934ION    NA+39717  31.303  11.438   3.646
72935ION    NA+39718  26.503  34.597   3.580
72936ION    NA+39719  43.322  23.199  12.973
72937ION    NA+39720  39.469   6.723   4.156
72938ION    NA+39721   7.417   5.610  14.126
72939ION    NA+39722  37.919   4.892  14.174
72940ION    NA+39723   2.430  40.782  13.419
72941ION    NA+39724   7.645  22.125   1.731
72942ION    NA+39725  10.033  14.464  12.655
72943ION    NA+39726  42.227  31.217  14.319
72944ION    NA+39727  32.301  41.271  10.737
72945ION    NA+39728   2.998   3.901  10.621
72946ION    NA+39729  31.988   8.771  10.665
72947ION    NA+39730  43.107  16.743   0.279
72948ION    NA+39731  33.994  19.054  12.077
72949ION    NA+39732   0.864   8.563   0.169
72950ION    NA+39733  14.423   8.890   0.115
72951ION    NA+39734  22.916  14.183   0.385
72952ION    NA+39735  30.473  18.989   4.281
72953ION    NA+39736  10.915  27.169  14.028
72954ION    NA+39737  22.860  43.389   2.423
72955ION    NA+39738  34.521  15.208  11.019
72956ION    NA+39739   2.250   3.258  12.097
72957ION    NA+39740  30.734  36.525   4.034
72958ION    NA+39741   1.154   0.746   1.272
72959ION    NA+39742   7.194  42.266   1.442
72960ION    NA+39743   9.814  43.438  10.808
72961ION    NA+39744  23.904   2.183   1.351
72962ION    NA+39745  14.906  29.616   2.159
72963ION    NA+39746   7.458  36.486   1.822
72964ION    NA+39747  37.027   1.572   0.136
72965ION    NA+39748  44.996  22.602   3.348
72966ION    NA+39749   4.185  39.522   3.283
72967ION    NA+39750   8.002   1.301   4.918
72968ION    NA+39751  42.071  21.513  13.717
72969ION    NA+39752   0.330  16.294   0.798
72970ION    NA+39753   3.934  26.788   2.874
72971ION    NA+39754  30.384  43.770  11.171
72972ION    NA+39755  14.201  24.071  13.454
72973ION    NA+39756  23.237  22.979  13.195
72974ION    NA+39757  39.673  42.923   4.580
72975ION    NA+39758  12.404   9.040  11.772
72976ION    NA+39759   1.185  44.260   4.663
72977ION    NA+39760  20.486  38.312   2.375
72978ION    NA+39761  13.076  35.929   0.205
72979ION    NA+39762   0.691  35.544   2.517
72980ION    NA+39763   4.655  13.689  14.286
72981ION    NA+39764   3.018  17.413   3.380
72982ION    NA+39765  43.821  32.498  11.469
72983ION    NA+39766   9.276   7.488  13.035
72984ION    NA+39767  23.114   1.291   9.750
72985ION    NA+39768   4.308  44.966  12.752
72986ION    NA+39769  29.458  42.504  12.333
72987ION    NA+39770   0.964   8.214  13.729
72988ION    NA+39771  35.316   6.295  14.924
72989ION    NA+39772  24.825  30.642  12.194
72990ION    NA+39773  21.362  12.859   4.773
72991ION    NA+39774   6.878  20.651   0.486
72992ION    NA+39775  16.830  42.707   1.305
72993ION    NA+39776  42.451  38.579   2.169
72994ION    NA+39777   5.398  20.359  13.865
72995ION    NA+39778  22.978  43.226  11.543
72996ION    NA+39779  37.229  14.669   1.228
72997ION    NA+39780  37.802  12.505   3.886
72998ION    NA+39781  33.758  33.221   2.360
72999ION    NA+39782  38.800   5.030  11.501
73000ION    NA+39783  18.134  35.011  10.886
73001ION    NA+39784  44.090   1.903   1.109
73002ION    NA+39785  28.024  31.347  11.131
73003ION    NA+39786  22.742   0.775   3.135
73004ION    NA+39787  32.870  28.363   3.295
73005ION    NA+39788  24.818   1.692   4.502
73006ION    NA+39789  15.105  25.300  11.566
73007ION    NA+39790  18.374   6.784   1.433
73008ION    NA+39791  39.568  29.958  11.417
73009ION    NA+39792  18.661  42.326  11.213
73010ION    NA+39793  29.358   2.271   0.962
73011ION    NA+39794   1.805  10.511  14.945
73012ION    NA+39795  34.530   7.992  11.174
73013ION    NA+39796  18.516  34.104   4.229
73014ION    NA+39797   3.451  32.862  11.630
73015ION    NA+39798  42.271   3.293  13.317
73016ION    NA+39799  44.075  18.974  14.013
73017ION    NA+39800  21.994  37.417  14.758
73018ION    NA+39801  34.486  13.299  14.436
73019ION    NA+39802  33.562   2.450   3.156
73020ION    NA+39803  38.945  41.736  10.946
73021ION    NA+39804  25.664  36.690  10.362
73022ION    NA+39805   4.308  17.055   0.955
73023ION    NA+39806   0.249  11.437  14.891
73024ION    NA+39807  37.170  40.935  14.541
73025ION    NA+39808   6.865  32.848   0.201
73026ION    NA+39809   2.806  29.706  10.791
73027ION    NA+39810   3.803  20.819  11.844
73028ION    NA+39811  24.587  28.041  13.800
73029ION    NA+39812  12.325   2.008   4.141
73030ION    NA+39813  13.080   0.166   4.714
73031ION    NA+39814  37.178  40.275  13.905
73032ION    NA+39815  35.704  36.925   3.935
73033ION    NA+39816  32.142   6.593  14.672
73034ION    NA+39817  15.388  29.414  12.120
73035ION    NA+39818  22.384  22.072  12.000
73036ION    NA+39819  17.372   5.885   2.028
73037ION    NA+39820  24.814   0.348   3.605
73038ION    NA+39821   4.146  36.600   2.438
73039ION    NA+39822  14.628  10.268   3.588
73040ION    NA+39823  43.556  38.443  13.322
73041ION    NA+39824  30.666  30.309   1.705
73042ION    NA+39825  14.825  11.623   0.537
73043ION    NA+39826  34.242  39.688   3.464
73044ION    NA+39827   6.332   5.390   0.996
73045ION    NA+39828  33.149   4.814  11.211
73046ION    NA+39829  34.557  12.555  12.025
73047ION    NA+39830  42.112   5.666  10.839
73048ION    NA+39831   2.565  10.394   1.656
73049ION    NA+39832  20.375  38.327   4.038
73050ION    NA+39833  30.838  11.116   0.471
73051ION    NA+39834   4.733  36.468  10.775
73052ION    NA+39835   4.679   6.753   1.534
73053ION    NA+39836  43.607  23.092   9.544
73054ION    NA+39837  36.395  38.760   9.912
73055ION    NA+39838  12.158  12.839  14.790
73056ION    NA+39839  22.905   9.139   4.614
73057ION    NA+39840  43.159  33.995  11.354
73058ION    NA+39841  41.778  32.885   0.925
73059ION    NA+39842  29.584  16.122  10.691
73060ION    NA+39843  19.123   8.090   2.081
73061ION    CL-39844  42.200   0.001   5.005
73062ION    CL-39845  24.199  12.665   1.899
73063ION    CL-39846  36.097   7.555   2.015
73064ION    CL-39847  15.628  30.363  12.910
73065ION    CL-39848  34.464   5.246   2.716
73066ION    CL-39849  44.828  30.570  11.446
73067ION    CL-39850  25.861  37.267   1.785
73068ION    CL-39851  27.655  11.868  11.450
73069ION    CL-39852  40.909  14.542  13.587
73070ION    CL-39853  42.539  24.352  14.967
73071ION    CL-39854   8.824  26.595   2.249
73072ION    CL-39855   5.777  24.531   0.710
73073ION    CL-39856   4.646  12.747   5.058
73074ION    CL-39857  28.521  15.858   1.258
73075ION    CL-39858  10.654  32.913  11.017
73076ION    CL-39859  17.926   1.183  13.018
73077ION    CL-39860  41.769  23.500   9.908
73078ION    CL-39861  27.060  21.244  13.382
73079ION    CL-39862   7.969  42.387  11.516
73080ION    CL-39863  10.762  38.799   9.758
73081ION    CL-39864  20.464  13.013  10.139
73082ION    CL-39865   6.347  33.166   4.755
73083ION    CL-39866  40.579   9.610   3.192
73084ION    CL-39867  37.376   0.853  11.909
73085ION    CL-39868   7.442  32.322  11.859
73086ION    CL-39869  41.004  15.276   2.704
73087ION    CL-39870  28.761  41.522   1.397
73088ION    CL-39871   0.711   0.290  10.882
73089ION    CL-39872  15.303  44.899   2.867
73090ION    CL-39873  31.028  27.767   2.532
73091ION    CL-39874  31.769  17.014  11.928
73092ION    CL-39875  40.896  19.955  13.819
73093ION    CL-39876  13.381  11.398  14.240
73094ION    CL-39877  22.671  20.229   1.152
73095ION    CL-39878  35.497  20.426   4.216
73096ION    CL-39879   6.810  41.227  14.963
73097ION    CL-39880  21.139  36.163  11.968
73098ION    CL-39881  41.407  20.689   1.925
73099ION    CL-39882  13.238  17.594  14.336
73100ION    CL-39883  36.217   7.907  12.638
73101ION    CL-39884  17.680  40.754   4.886
73102ION    CL-39885  29.537  19.732  11.455
73103ION    CL-39886  39.002  33.101  14.446
73104ION    CL-39887  26.770  16.352  14.111
73105ION    CL-39888  34.388  41.952  14.947
73106ION    CL-39889   2.274  44.319   3.600
73107ION    CL-39890  41.747   2.558  13.788
73108ION    CL-39891   4.095   4.749   5.127
73109ION    CL-39892   3.850  17.203   1.015
73110ION    CL-39893  32.641  17.453  12.143
73111ION    CL-39894   3.839  20.950  12.270
73112ION    CL-39895   5.420  25.073   5.164
73113ION    CL-39896  17.184  36.689   1.032
73114ION    CL-39897   8.643  10.724  11.376
73115ION    CL-39898  43.725   7.383   2.356
73116ION    CL-39899  27.090  25.192  14.855
73117ION    CL-39900  42.420   2.003  12.595
73118ION    CL-39901  33.875  35.650   1.230
73119ION    CL-39902  12.880   4.330  12.267
73120ION    CL-39903   4.861   9.877  14.075
73121ION    CL-39904   9.336  43.523   2.234
73122ION    CL-39905  35.414  44.848   1.778
73123ION    CL-39906  10.405  39.101   0.037
73124ION    CL-39907  15.082  40.537   5.231
73125ION    CL-39908  18.666  37.112  13.017
73126ION    CL-39909  44.379  39.158   1.339
73127ION    CL-39910  16.386  15.354  13.145
73128ION    CL-39911  15.693  40.580  14.432
73129ION    CL-39912  17.581   9.996   3.340
73130ION    CL-39913   9.338  44.464   3.165
73131ION    CL-39914  27.646  30.620  11.992
73132ION    CL-39915  12.705  36.732  13.671
73133ION    CL-39916  28.980  18.056  14.794
73134ION    CL-39917  42.209  38.414   2.520
73135ION    CL-39918  19.830  24.076   0.955
73136ION    CL-39919  20.545   6.094   1.549
73137ION    CL-39920   0.346   5.825  10.431
73138ION    CL-39921  19.392   6.162  13.746
73139ION    CL-39922   9.835   1.124  13.352
73140ION    CL-39923   7.192   2.702  11.666
73141ION    CL-39924  34.370   6.207  11.423
73142ION    CL-39925  33.350  11.150  14.029
73143ION    CL-39926  35.081  38.903  11.284
73144ION    CL-39927  31.341  15.692  11.054
73145ION    CL-39928  23.114  24.901   4.133
73146ION    CL-39929  33.957  15.017  12.049
73147ION    CL-39930  24.271  13.681  10.786
73148ION    CL-39931  18.807  44.199   5.030
73149ION    CL-39932  10.795  30.985  14.820
73150ION    CL-39933  34.139  25.526   0.813
73151ION    CL-39934  30.391   0.324   1.255
73152ION    CL-39935  37.946  14.312  14.518
73153ION    CL-39936   8.766  28.712   2.421
73154ION    CL-39937   5.180  10.024   3.061
73155ION    CL-39938  26.824  44.655   3.409
73156ION    CL-39939  25.518  19.990   2.665
73157ION    CL-39940   9.937   0.122  12.337
73158ION    CL-39941  38.852   5.944   0.868
73159ION    CL-39942  40.332  42.947   2.893
73160ION    CL-39943  14.398  41.525  12.928
73161ION    CL-39944   8.348  36.531   0.285
73162ION    CL-39945  18.000   2.182  12.873
73163ION    CL-39946   7.707   4.171  11.667
73164ION    CL-39947  20.518  38.021   2.029
73165ION    CL-39948   0.999  43.983  10.624
73166ION    CL-39949  13.305  12.302  13.810
73167ION    CL-39950  34.260  43.049  12.531
73168ION    CL-39951  23.654  40.881  14.472
73169ION    CL-39952   1.026  28.482   4.035
73170ION    CL-39953  21.055   1.112  14.869
73171ION    CL-39954  36.697  17.853   0.076
73172ION    CL-39955  35.976  13.733   3.743
73173ION    CL-39956  34.407   9.958  14.269
73174ION    CL-39957  43.403  17.059   0.170
73175ION    CL-39958  42.427  26.684   2.334
73176ION    CL-39959   7.519  26.465  11.782
73177ION    CL-39960  10.408  26.006   2.771
73178ION    CL-39961   5.194  31.149   4.362
73179ION    CL-39962  26.628  40.821  12.922
73180ION    CL-39963  36.299  20.242  12.533
73181ION    CL-39964  33.919  39.077   0.815
73182ION    CL-39965  19.555  44.883  13.975
73183ION    CL-39966  32.110  32.944   0.212
73184ION    CL-39967  13.234  25.015   0.342
73185ION    CL-39968  13.461   0.416   4.655
73186ION    CL-39969   9.620  27.428   2.674
73187ION    CL-39970   4.512  44.560  12.789
73188ION    CL-39971  31.937  28.179   2.342
73189ION    CL-39972   1.515  11.109   1.407
73190ION    CL-39973   9.273  10.403   4.075
73191ION    CL-39974  10.956  28.125   1.154
73192ION    CL-39975  38.491  31.753  14.137
73193ION    CL-39976  41.421   3.258   1.910
73194ION    CL-39977   8.480  43.841  10.548
73195ION    CL-39978   9.919  35.223  10.495
73196ION    CL-39979  36.165  43.833   1.594
73197ION    CL-39980  34.942  29.512  11.120
73198ION    CL-39981  14.475   8.971   0.553
73199ION    CL-39982  33.266  39.013  12.987
73200ION    CL-39983  13.005  38.719   4.040
73201ION    CL-39984  15.402  39.811   5.419
73202ION    CL-39985   7.451  28.191  13.072
73203ION    CL-39986  41.151   1.918  12.191
73204ION    CL-39987  17.197   6.624  13.855
73205ION    CL-39988  14.389  25.587   0.131
73206ION    CL-39989  27.121  13.933  12.734
73207ION    CL-39990  20.842  36.171   0.946
73208ION    CL-39991   5.896  21.827   2.313
73209ION    CL-39992   5.372  12.634  11.691
73210ION    CL-39993  11.105  44.888   2.419
73211ION    CL-39994   8.332  35.017  13.335
73212ION    CL-39995  11.028  44.579   4.046
73213ION    CL-39996  25.454  28.863  10.691
73214ION    CL-39997  21.221  39.382  10.980
73215ION    CL-39998   3.560  26.722   2.619
73216ION    CL-39999  22.458  19.838  10.750
73217ION    CL-40000  41.260  33.160  11.111
73218ION    CL-40001   1.230   1.191  11.099
73219ION    CL-40002  40.840   9.455  11.280
73220ION    CL-40003  23.546   9.200  12.692
73221ION    CL-40004  19.022   5.713   3.287
73222ION    CL-40005  13.248  15.268   3.893
73223ION    CL-40006  11.624  33.619   1.953
73224ION    CL-40007   9.896  13.529  14.497
73225ION    CL-40008  39.369   8.259   3.557
73226ION    CL-40009  15.046  42.916   1.193
73227ION    CL-40010  15.828  27.407  12.908
73228ION    CL-40011  12.526  16.630  11.208
73229ION    CL-40012  25.356  20.972  14.325
73230ION    CL-40013  38.563  21.236   3.159
73231ION    CL-40014  12.213  33.636   1.145
73232ION    CL-40015  12.780  32.964  13.060
73233ION    CL-40016   5.045  42.685  13.832
73234ION    CL-40017   6.769  23.928   0.080
73235ION    CL-40018  15.111  14.409   2.180
73236ION    CL-40019   1.084  28.494   0.767
73237ION    CL-40020  10.828   8.000  11.249
73238ION    CL-40021  21.138  18.118   2.861
73239ION    CL-40022  31.662  16.791   0.327
73240ION    CL-40023  29.697   7.985  10.676
73241ION    CL-40024  35.366  17.276  11.926
73242ION    CL-40025  36.426  18.368  14.531
73243ION    CL-40026  10.268  18.115  11.109
73244ION    CL-40027   8.486  24.841  14.052
73245ION    CL-40028   7.489  13.005  14.355
73246ION    CL-40029  33.388  29.892  13.131
73247ION    CL-40030  33.475  32.402  13.085
73248ION    CL-40031  14.887   4.676  11.182
73249ION    CL-40032   9.857  23.932   4.155
73250ION    CL-40033   3.661  40.647  13.736
73251ION    CL-40034  11.697  14.877   2.359
73252ION    CL-40035  44.826   1.104  14.055
73253ION    CL-40036  20.522  38.655   2.671
73254ION    CL-40037  12.275  40.517  13.008
73255ION    CL-40038  36.051  37.509   1.448
73256ION    CL-40039  37.127  31.839  11.952
73257ION    CL-40040   2.315  24.430   4.224
73258ION    CL-40041  29.657   0.305   1.749
73259ION    CL-40042   9.526   6.851   2.640
73260ION    CL-40043  39.432  24.598   4.312
73261ION    CL-40044  35.829  28.970  12.117
73262ION    CL-40045  29.961  33.705  12.218
73263ION    CL-40046  21.566  17.512  14.004
73264ION    CL-40047  28.435  21.560   4.179
73265ION    CL-40048  30.586  10.870   0.747
73266ION    CL-40049  39.295  27.484   3.469
73267ION    CL-40050  29.041  18.693   0.781
73268ION    CL-40051  40.073  34.063   5.073
73269ION    CL-40052  27.259  23.743  14.237
73270ION    CL-40053  34.554  15.003   2.530
73271ION    CL-40054  14.526  20.540  12.401
73272ION    CL-40055  35.487  20.018  14.842
73273ION    CL-40056   1.929  20.146   3.577
73274ION    CL-40057   3.328   7.995   1.784
73275ION    CL-40058  30.473  42.792  12.561
73276ION    CL-40059  24.178   3.901   0.467
73277ION    CL-40060  11.778  11.467   3.157
73278ION    CL-40061  38.621  11.853   3.494
73279ION    CL-40062  32.740  19.082  10.718
73280ION    CL-40063  30.410  29.262   4.290
73281ION    CL-40064  15.601  34.352  14.981
73282ION    CL-40065  22.298  34.519  12.310
73283ION    CL-40066  19.235  28.568   3.828
73284ION    CL-40067  23.458   0.910  10.397
73285ION    CL-40068  28.008  25.304  11.266
73286ION    CL-40069  22.000   5.761  13.653
73287ION    CL-40070  32.700  40.796   2.813
73288ION    CL-40071   8.682  21.264  13.995
73289ION    CL-40072  16.373  36.279   1.002
73290ION    CL-40073  39.604  27.023  12.464
73291ION    CL-40074  42.864  10.675   0.893
73292ION    CL-40075  36.094  19.945  11.140
73293ION    CL-40076  36.595  33.031  11.540
73294ION    CL-40077  22.701   9.978  11.923
73295ION    CL-40078  16.469   9.878  14.387
73296ION    CL-40079  39.447  13.580   3.611
73297ION    CL-40080  26.733  21.613  12.450
73298ION    CL-40081  26.704  41.074  11.644
73299ION    CL-40082  16.060   5.901  12.052
73300ION    CL-40083  40.961  36.943   3.267
73301ION    CL-40084  39.870   3.458   2.141
73302ION    CL-40085  17.068  40.528   2.565
73303ION    CL-40086  36.340  20.225  14.289
73304ION    CL-40087   6.514  30.792   1.255
73305ION    CL-40088  24.666   4.754   1.823
73306ION    CL-40089  10.589  30.225   2.769
73307ION    CL-40090  30.479  26.252   3.231
73308ION    CL-40091   6.986  23.053   2.521
73309ION    CL-40092  10.268  33.613   1.328
73310ION    CL-40093  17.028   8.847  13.692
73311ION    CL-40094  15.521  27.030  13.991
73312ION    CL-40095  43.849  37.626  11.395
73313ION    CL-40096  20.625  11.345   3.239
73314ION    CL-40097  27.617  18.601   3.239
73315ION    CL-40098  12.432  34.457  13.953
73316ION    CL-40099  18.099   8.247   1.378
73317ION    CL-40100  19.220  39.915   4.211
73318ION    CL-40101  34.816   3.225   2.868
73319ION    CL-40102  22.743  36.706   0.713
73320ION    CL-40103  40.569  25.638  13.967
73321ION    CL-40104  12.912   2.824   4.169
73322ION    CL-40105  18.734  31.687   4.179
73323ION    CL-40106  32.653  42.822  13.013
73324ION    CL-40107  31.510   5.439  14.748
73325ION    CL-40108  39.883  36.434   1.806
73326ION    CL-40109  25.729  18.739  12.032
73327ION    CL-40110  44.381  28.917   9.846
73328ION    CL-40111   5.662   0.552   4.111
73329ION    CL-40112  15.003   7.870  10.769
73330ION    CL-40113   9.703  32.173   4.089
73331ION    CL-40114  39.046  38.070  11.391
73332ION    CL-40115  36.599   7.535  13.484
73333ION    CL-40116  13.164  31.662   0.925
73334ION    CL-40117   4.219  10.142   4.438
73335ION    CL-40118  21.975   0.696  13.136
73336ION    CL-40119   9.641  44.926   2.331
73337ION    CL-40120  31.290  11.862   3.481
73338ION    CL-40121   2.444  21.751  14.432
73339ION    CL-40122  23.385   2.777  11.450
73340ION    CL-40123  16.389  31.626  10.096
73341ION    CL-40124  36.866  41.828  13.015
73342ION    CL-40125  10.216  20.788   3.075
73343ION    CL-40126   0.825  31.863  13.073
73344ION    CL-40127  40.083  28.089  10.759
73345ION    CL-40128   4.217  28.095  11.933
73346ION    CL-40129  42.022   8.931  12.059
73347ION    CL-40130  28.323  19.288   2.873
73348ION    CL-40131  17.438  38.069  10.749
73349ION    CL-40132  20.042  19.826  11.945
73350ION    CL-40133  39.894  35.126  14.698
73351ION    CL-40134  25.220   0.172   3.748
73352ION    CL-40135   4.449  17.732  13.451
73353ION    CL-40136  29.410  39.959   1.398
73354ION    CL-40137   1.120  20.923   4.894
73355ION    CL-40138   0.032  38.187   1.854
73356ION    CL-40139  11.626  34.647   2.849
73357ION    CL-40140   8.206  28.049   1.747
73358ION    CL-40141  18.062  15.082   1.846
73359ION    CL-40142  13.060  33.242  12.248
73360ION    CL-40143  40.307  36.142  12.789
73361ION    CL-40144   6.180  44.222  14.849
73362ION    CL-40145  30.295  27.004   1.250
73363ION    CL-40146  41.639  30.320  10.228
73364ION    CL-40147  39.500  42.781   2.745
73365ION    CL-40148  37.083  34.906   1.718
73366ION    CL-40149  12.667   5.181   2.580
73367ION    CL-40150  22.146   8.291  12.334
73368ION    CL-40151  20.831   9.271  12.173
73369ION    CL-40152  37.695   1.224   5.011
73370ION    CL-40153  18.568  40.974   3.845
73371ION    CL-40154   1.960  12.763  12.058
73372ION    CL-40155  21.988  16.108   2.785
73373ION    CL-40156  38.276  41.355   1.308
73374ION    CL-40157  12.081  31.436   3.659
73375ION    CL-40158   7.907  15.975   0.412
73376ION    CL-40159  42.748  13.205  11.891
73377ION    CL-40160  13.164  22.306  10.636
73378ION    CL-40161  17.717  20.837  11.872
73379ION    CL-40162  35.727  25.487  14.139
73380ION    CL-40163  27.269  14.090  13.966
73381ION    CL-40164   0.722  44.909  13.104
73382ION    CL-40165  40.355   8.168  10.710
73383ION    CL-40166   3.981   9.168   3.085
73384ION    CL-40167  15.960  16.690   0.981
73385ION    CL-40168  22.367  35.949  11.612
73386ION    CL-40169  13.587  13.413   1.680
73387ION    CL-40170  40.382  40.847  13.266
73388ION    CL-40171  36.086  32.552  13.510
73389ION    CL-40172   1.170  24.233   4.963
73390ION    CL-40173  16.793  29.707   2.298
73391ION    CL-40174  31.685   1.217  10.383
73392ION    CL-40175  21.009  27.789   4.597
73393ION    CL-40176  23.323  26.533   5.099
73394ION    CL-40177   5.778  34.408   2.151
73395ION    CL-40178   1.476  13.608   2.800
73396ION    CL-40179  37.499  28.129  12.387
73397ION    CL-40180   1.846  37.963  10.696
73398ION    CL-40181  12.719   1.038  12.702
73399ION    CL-40182  41.627  44.812   3.397
73400ION    CL-40183   2.951  17.864   3.369
73401ION    CL-40184  14.452  17.574   3.939
73402ION    CL-40185  37.210   4.549  11.817
73403ION    CL-40186  12.675  34.009   3.297
73404ION    CL-40187  26.216  35.547  11.556
73405ION    CL-40188   3.464  18.680   3.028
73406ION    CL-40189   8.455   6.767   3.791
73407ION    CL-40190   1.409   3.862   3.670
73408ION    CL-40191   3.984   9.912   1.807
73409ION    CL-40192  20.408  35.325  14.955
73410ION    CL-40193  22.062  12.601   3.840
73411ION    CL-40194  12.148   0.371   3.436
73412ION    CL-40195  10.513  11.283  13.162
73413ION    CL-40196   4.569  21.226   4.997
73414ION    CL-40197   7.683  29.401   3.238
73415ION    CL-40198  44.830   7.212   2.736
73416ION    CL-40199  34.810  27.456   1.164
73417ION    CL-40200  10.714  24.971  13.061
73418ION    CL-40201  15.239  10.940  12.605
73419ION    CL-40202  26.588  26.376  13.213
73420ION    CL-40203  35.004  21.571  12.032
73421ION    CL-40204  42.017  24.811   4.279
73422ION    CL-40205  41.305  27.671   1.306
73423ION    CL-40206  30.962  42.096   3.106
73424ION    CL-40207   8.169  19.475  14.862
73425ION    CL-40208   3.731  16.876   1.819
73426ION    CL-40209  14.392  36.905   0.285
73427ION    CL-40210  26.593  25.425   2.076
73428ION    CL-40211  40.825   8.350   2.172
73429ION    CL-40212  26.273  29.560  13.451
73430ION    CL-40213  36.301  24.225   1.871
73431ION    CL-40214  32.256  36.291  14.202
73432ION    CL-40215  41.404  43.180   2.866
73433ION    CL-40216  42.933  33.364  13.021
73434ION    CL-40217   1.904  36.638   2.159
73435ION    CL-40218  10.192  26.475  14.697
73436ION    CL-40219  17.005  33.115   0.512
73437ION    CL-40220   5.739  22.889  13.673
73438ION    CL-40221  40.985  13.251   1.738
73439ION    CL-40222  40.089  26.447   4.175
73440ION    CL-40223  41.962  15.288   4.270
73441ION    CL-40224  41.051   4.634  14.832
73442ION    CL-40225  43.275  34.942   0.824
73443ION    CL-40226   2.065   0.831   3.561
73444ION    CL-40227  26.806  15.393   0.239
73445ION    CL-40228   6.602   2.941  11.105
73446ION    CL-40229  13.187  35.843  11.112
73447ION    CL-40230  12.692   8.776  12.002
73448ION    CL-40231  19.259  34.933   1.294
73449ION    CL-40232  10.214   6.312   3.668
73450ION    CL-40233  26.661  31.492  14.002
73451ION    CL-40234  40.897  36.136   2.108
73452ION    CL-40235   5.128  41.567   1.562
73453ION    CL-40236  39.330  25.478   2.799
73454ION    CL-40237  39.600  13.156  10.125
73455ION    CL-40238  42.607  25.865  12.677
73456ION    CL-40239  24.635  10.416  14.774
73457ION    CL-40240  15.302  10.955   1.312
73458ION    CL-40241   2.142  19.797  14.529
73459ION    CL-40242  25.810  39.370   4.117
73460ION    CL-40243  30.842  39.407   4.747
73461ION    CL-40244  38.325  27.215  13.909
73462ION    CL-40245  33.357  40.522  13.957
73463ION    CL-40246  26.595   0.992  13.928
73464ION    CL-40247  44.844   7.247   0.367
73465ION    CL-40248  22.118   1.547   4.920
73466ION    CL-40249  30.010  12.796   4.492
73467ION    CL-40250  30.889  37.768   1.726
73468ION    CL-40251  10.107   5.075  10.214
73469ION    CL-40252  25.958  32.116   4.378
73470ION    CL-40253  43.835  31.420   4.435
73471ION    CL-40254  14.115  33.051   3.855
73472ION    CL-40255  32.591  39.571  12.504
73473ION    CL-40256  41.078  38.035   0.237
73474ION    CL-40257  44.937  28.174   2.794
73475ION    CL-40258   2.310   6.667  12.455
73476ION    CL-40259  39.672  42.455   1.560
73477ION    CL-40260  42.909  15.790  11.196
73478ION    CL-40261  42.717  30.772   4.905
73479ION    CL-40262   8.649  12.573   1.775
73480ION    CL-40263   5.738  39.021  12.397
73481ION    CL-40264  27.457  35.232  11.039
73482ION    CL-40265  42.623  16.906   3.091
73483ION    CL-40266  28.540   1.909   3.677
73484ION    CL-40267  38.571  44.872   3.350
73485ION    CL-40268  35.257  30.939  14.641
73486ION    CL-40269  42.316  23.537  12.520
73487ION    CL-40270   0.491  43.135   2.683
73488ION    CL-40271  22.380   8.794  11.135
73489ION    CL-40272  39.294  42.923   0.127
73490ION    CL-40273  32.210  40.309   0.133
73491ION    CL-40274  11.104   1.204   3.379
73492ION    CL-40275  14.113  42.618  10.453
73493ION    CL-40276  16.875  31.115  13.684
73494ION    CL-40277   7.426  22.313  11.808
73495ION    CL-40278  10.074  15.643   0.797
73496ION    CL-40279  35.611  11.322   0.864
73497ION    CL-40280  44.412  25.269  11.916
73498ION    CL-40281  35.696  30.148   2.155
73499ION    CL-40282  38.111  14.195   2.262
73500ION    CL-40283  36.415   0.533   5.178
73501ION    CL-40284   9.286  19.335  12.768
73502ION    CL-40285  32.171   5.008   4.226
73503ION    CL-40286  23.299   8.864  14.048
73504ION    CL-40287  12.498  32.901   0.530
73505ION    CL-40288   4.036  36.173   2.527
73506ION    CL-40289  16.811  15.801   2.809
73507ION    CL-40290  13.191  23.301  10.447
73508ION    CL-40291  42.081  42.326   4.930
73509ION    CL-40292  37.004  21.119   4.894
73510ION    CL-40293   0.007  29.881  12.551
73511ION    CL-40294   6.841  15.802   3.614
73512ION    CL-40295  32.095   6.344  11.447
73513ION    CL-40296  30.571  24.940  14.985
73514ION    CL-40297   1.798  14.312   3.782
73515ION    CL-40298   2.357  23.997  14.936
73516ION    CL-40299  44.112   9.921  12.205
73517ION    CL-40300   7.630  37.069   3.004
73518ION    CL-40301  37.116   7.736  12.232
73519ION    CL-40302  38.568  37.373  13.363
73520ION    CL-40303  16.584   3.858  11.550
73521ION    CL-40304  13.702  16.711   3.266
73522ION    CL-40305  33.727   0.052   4.202
73523ION    CL-40306  39.530  38.825   4.233
73524ION    CL-40307  35.365  21.025   2.196
73525ION    CL-40308   6.352  31.771  11.520
73526ION    CL-40309   7.861   8.627   1.620
73527ION    CL-40310   7.380   9.493   1.760
73528ION    CL-40311  42.862  23.516  14.857
73529ION    CL-40312   3.743  32.486   0.869
73530ION    CL-40313   1.523  31.407   4.394
73531ION    CL-40314  19.411  30.539  11.690
73532ION    CL-40315  32.987   6.024  11.124
73533ION    CL-40316  20.399  38.548  11.413
73534ION    CL-40317  37.927  11.300   4.733
73535ION    CL-40318   6.968  32.150  12.740
73536ION    CL-40319   7.275  31.995   0.678
73537ION    CL-40320  27.326  23.251   0.105
73538ION    CL-40321  26.541  11.574   1.904
73539ION    CL-40322  12.744  43.077  14.023
73540ION    CL-40323  35.698   7.169   1.183
73541ION    CL-40324   0.328  35.338   2.676
73542ION    CL-40325   7.639   5.415  13.787
73543ION    CL-40326  43.789  10.294  14.481
73544ION    CL-40327  14.969  14.319  14.032
73545ION    CL-40328  33.295  35.884  14.348
73546ION    CL-40329  44.524   1.876   1.208
73547ION    CL-40330  22.081  13.461   3.275
73548ION    CL-40331  40.546  36.598  13.646
73549ION    CL-40332  23.168  19.196   1.441
73550ION    CL-40333   5.306  36.553   1.839
73551ION    CL-40334   9.725  27.355  14.781
73552ION    CL-40335  40.921  29.462  10.761
73553ION    CL-40336  43.636  16.068  11.688
73554ION    CL-40337  17.601  36.719   0.124
73555ION    CL-40338  23.783  29.706  13.485
73556ION    CL-40339  34.388  40.035   3.710
73557ION    CL-40340  20.233  32.666   2.999
73558ION    CL-40341  29.540  27.598   3.316
73559ION    CL-40342  27.804  31.511  11.511
73560ION    CL-40343  24.634  35.956  12.904
73561ION    CL-40344  19.490  35.625   5.133
73562ION    CL-40345   1.340   9.543  11.050
73563ION    CL-40346  17.270  12.352   4.226
73564ION    CL-40347  13.942  15.431   0.320
73565ION    CL-40348  22.090  21.719  12.043
73566ION    CL-40349  32.114  43.907  11.634
73567ION    CL-40350  36.574  44.942   0.885
73568ION    CL-40351  36.739  23.849  13.333
73569ION    CL-40352  20.154   5.852  10.181
73570ION    CL-40353  22.172  29.290  10.593
73571ION    CL-40354  38.872   3.487  12.005
73572ION    CL-40355   6.629  12.198  14.787
73573ION    CL-40356  33.857  21.690  14.200
73574ION    CL-40357  43.995  30.425   9.913
73575ION    CL-40358  36.073  29.120   2.411
73576ION    CL-40359  38.105  10.896  11.941
73577ION    CL-40360  16.040   1.721   3.036
73578ION    CL-40361  23.742  16.167  13.307
73579ION    CL-40362  14.097  42.808  14.788
73580ION    CL-40363  22.789  19.093  11.129
73581ION    CL-40364  13.727  27.599   1.720
73582ION    CL-40365   4.787  13.642   1.655
73583ION    CL-40366  13.155  36.696   1.274
73584ION    CL-40367  37.837   5.076   3.689
73585ION    CL-40368  29.798  20.442  13.624
73586ION    CL-40369  23.794  23.150   2.058
73587ION    CL-40370  15.571  15.017  13.618
73588ION    CL-40371   4.024   6.314   3.598
73589ION    CL-40372  11.408  15.637   3.651
73590ION    CL-40373  17.530  11.280   3.528
73591ION    CL-40374  18.669   2.627  10.917
73592ION    CL-40375  42.086  41.439   2.714
73593ION    CL-40376  12.743   9.017   4.502
73594ION    CL-40377  37.057   4.143   4.250
73595ION    CL-40378  16.835  24.562  10.952
73596ION    CL-40379  32.117  29.402  12.404
73597ION    CL-40380  36.016  43.090   1.995
73598ION    CL-40381  37.231  32.160  12.893
73599ION    CL-40382  17.053  22.042   2.361
73600ION    CL-40383  18.103  15.859  12.077
73601ION    CL-40384  27.617  33.696  10.324
73602ION    CL-40385  18.300   1.701   4.320
73603ION    CL-40386  32.324  13.130   0.926
73604ION    CL-40387   7.861  44.991  12.659
73605ION    CL-40388  17.535  24.388   0.138
73606ION    CL-40389   9.236  13.568   0.340
73607ION    CL-40390  22.780  23.141   2.377
73608ION    CL-40391  22.885  16.296  13.100
73609ION    CL-40392   7.245   4.283   2.133
73610ION    CL-40393  11.133  15.211   0.672
73611ION    CL-40394  14.398   3.476  14.123
73612ION    CL-40395  25.921   0.215   4.255
73613ION    CL-40396  21.731   0.189  14.574
73614ION    CL-40397  24.460  38.976   0.282
73615ION    CL-40398  42.289   5.274   0.771
73616ION    CL-40399   2.656  12.240  11.507
73617ION    CL-40400   0.879  41.699   0.937
73618ION    CL-40401  16.557   2.371  13.923
73619ION    CL-40402  25.847  34.903   2.088
73620ION    CL-40403  22.803  13.764   0.234
73621ION    CL-40404   6.815   2.945  13.444
73622ION    CL-40405  39.821  35.617  11.342
73623ION    CL-40406  10.290  12.591  13.907
73624ION    CL-40407  20.888  16.685   4.627
73625ION    CL-40408  34.945   3.010   0.507
73626ION    CL-40409   8.615  35.241  10.994
73627ION    CL-40410   7.099  14.201  11.765
73628ION    CL-40411  16.153   6.936   0.554
73629ION    CL-40412   8.201  19.728  12.055
73630ION    CL-40413  10.255  20.761   1.624
73631ION    CL-40414  21.348  18.862   5.205
73632ION    CL-40415   3.899  27.150  11.861
73633ION    CL-40416   7.354  32.646  13.632
73634ION    CL-40417  13.285   3.631  14.726
73635ION    CL-40418  14.011  37.362   1.840
73636ION    CL-40419  29.174  29.211   4.984
73637ION    CL-40420  26.077  14.347   0.126
73638ION    CL-40421   6.236  30.720  10.266
73639ION    CL-40422  27.946  44.440   2.200
73640ION    CL-40423  26.579  32.850  14.856
73641ION    CL-40424  24.788  32.052  12.083
73642ION    CL-40425  18.099  32.093  14.296
73643ION    CL-40426  29.125   6.815  11.159
73644ION    CL-40427  23.222  37.967  12.813
73645ION    CL-40428  43.428  22.727   3.199
73646ION    CL-40429  18.538  11.100   2.373
73647ION    CL-40430  23.685  37.474   1.404
73648ION    CL-40431   2.207  16.731  13.885
73649ION    CL-40432  10.622  12.878   1.853
73650ION    CL-40433  43.136  25.719  13.513
73651ION    CL-40434  33.396   7.255   0.775
73652ION    CL-40435  23.256   6.837   3.385
73653ION    CL-40436  32.939  39.098   0.113
73654ION    CL-40437  29.071  38.166   2.937
73655ION    CL-40438  20.555   5.137   4.029
73656ION    CL-40439   5.770  16.529  12.137
73657ION    CL-40440  11.230  18.245  10.550
73658ION    CL-40441  15.270  42.765  12.725
73659ION    CL-40442  44.889  26.536  14.752
73660ION    CL-40443   3.344  11.474   1.472
73661ION    CL-40444  19.356   7.158   3.227
73662ION    CL-40445  12.574  32.115   1.901
73663ION    CL-40446  21.612  22.306  13.100
73664ION    CL-40447  42.235  39.063  13.551
73665ION    CL-40448  35.736   9.581  11.632
73666ION    CL-40449   7.650   6.870   3.933
73667ION    CL-40450  15.461  10.997  10.599
73668ION    CL-40451  13.226  37.776   2.677
73669ION    CL-40452   5.934  32.174   1.569
73670ION    CL-40453  30.736  15.142   0.443
73671ION    CL-40454   2.089  28.385  14.383
73672ION    CL-40455  43.800  32.167   4.762
73673ION    CL-40456  26.914  11.776  12.140
73674ION    CL-40457  27.213  31.018   2.149
73675ION    CL-40458  14.885  14.082  14.999
73676ION    CL-40459  38.800   2.000  12.488
73677ION    CL-40460  15.091  15.139   0.048
73678ION    CL-40461  15.969   8.431   2.019
73679ION    CL-40462  17.321   5.189  13.513
73680ION    CL-40463  12.164  11.359   0.164
73681ION    CL-40464  26.251  26.310   9.679
73682ION    CL-40465  23.197  43.647   2.592
73683ION    CL-40466  33.617   8.636   0.723
73684ION    CL-40467  33.443   7.862   3.872
73685ION    CL-40468  28.393  33.629  11.789
73686ION    CL-40469  16.946  27.791   3.933
73687ION    CL-40470  39.525  40.610   1.345
73688ION    CL-40471  16.085  35.952   4.971
73689ION    CL-40472   7.425  42.269   1.059
73690ION    CL-40473  27.377   2.950   4.672
73691ION    CL-40474  21.611  35.543   3.718
73692ION    CL-40475  13.417  32.525  13.694
73693ION    CL-40476   6.332  26.058  10.670
73694ION    CL-40477  14.017  17.156  12.655
73695ION    CL-40478   1.007   3.058   3.804
73696ION    CL-40479  27.026  22.654  14.351
73697ION    CL-40480  31.584   2.400  12.594
73698ION    CL-40481  21.434  16.201   9.827
73699ION    CL-40482  31.065  36.257   3.895
73700ION    CL-40483  39.292  10.273   4.444
73701ION    CL-40484   4.436  18.659   2.011
73702ION    CL-40485  12.453   2.613  12.044
73703ION    CL-40486  15.251   8.412  13.111
73704ION    CL-40487  15.116  19.256   2.868
73705ION    CL-40488  12.695  17.868   2.126
73706ION    CL-40489   5.263  43.469   1.347
73707ION    CL-40490   5.948  11.480  12.403
73708ION    CL-40491  35.153  13.169   3.676
73709ION    CL-40492   6.312  23.300   1.745
73710ION    CL-40493   6.780  24.006   2.743
73711ION    CL-40494  36.485  34.279  11.200
73712ION    CL-40495  21.287   3.194  12.125
73713ION    CL-40496  13.477   3.565  11.279
73714ION    CL-40497  39.248  34.805  11.458
73715ION    CL-40498  15.765  43.481  10.365
73716ION    CL-40499  35.419  15.458   2.318
73717ION    CL-40500  43.971  23.612   1.881
73718ION    CL-40501  28.639  31.543   1.442
73719ION    CL-40502  30.743  40.051   2.820
73720ION    CL-40503  30.156   4.411   0.221
73721ION    CL-40504  24.403  43.040   1.072
73722ION    CL-40505  23.463   6.249  12.884
73723ION    CL-40506  27.331   6.075  13.342
73724ION    CL-40507  13.886  41.290   2.267
73725ION    CL-40508   3.722   5.890   4.853
73726ION    CL-40509  12.760  13.928   0.015
73727ION    CL-40510  43.048  33.942  10.925
73728ION    CL-40511  22.949  29.899  12.969
73729ION    CL-40512  11.046  21.175   0.259
73730ION    CL-40513  36.710  25.408  14.305
73731ION    CL-40514   5.883  31.976  14.292
73732ION    CL-40515  14.189  37.096   4.406
73733ION    CL-40516  23.148  30.004   3.649
73734ION    CL-40517  14.307  21.273   0.082
73735ION    CL-40518  36.993  36.259  11.696
73736ION    CL-40519  11.700  28.787  14.254
73737ION    CL-40520  30.656  30.751   1.770
73738ION    CL-40521  22.162  23.716  13.881
73739ION    CL-40522  33.137  42.689   2.754
73740ION    CL-40523  40.321  31.594  11.609
73741ION    CL-40524  11.096  18.387  11.600
73742ION    CL-40525  23.101  23.113  12.791
73743ION    CL-40526  37.628  26.048   2.268
73744ION    CL-40527  38.682  32.247  13.289
73745ION    CL-40528   5.842  44.757  13.479
73746ION    CL-40529  31.923   1.915   2.117
73747ION    CL-40530  25.393   8.024   2.754
73748ION    CL-40531  38.347  35.188   1.261
73749ION    CL-40532  41.993  21.902  13.509
73750ION    CL-40533  34.049  44.159   1.814
73751ION    CL-40534  28.059  39.656   4.549
73752ION    CL-40535  31.841  39.621  13.215
73753ION    CL-40536  25.212  11.691  13.457
73754ION    CL-40537   5.695  12.077  12.940
73755ION    CL-40538  11.553  23.035   2.017
73756ION    CL-40539  22.987  24.286   1.467
73757ION    CL-40540  20.058  23.920   0.146
73758ION    CL-40541  42.506  35.248  13.607
73759ION    CL-40542  18.518  29.643   3.232
73760ION    CL-40543  20.800  19.637  12.568
73761ION    CL-40544   2.731  41.344   0.915
73762ION    CL-40545  35.068  14.464  14.174
73763ION    CL-40546   5.328  20.008  14.145
73764ION    CL-40547  29.361  11.894   2.916
73765ION    CL-40548  38.550  14.346  11.230
73766ION    CL-40549   7.894  15.520   1.302
73767ION    CL-40550  21.962  25.614  10.762
73768ION    CL-40551  33.181  17.117   3.571
73769ION    CL-40552   4.664  10.890   4.929
73770ION    CL-40553  23.345   0.781  11.593
73771ION    CL-40554  24.985  27.253   2.656
73772ION    CL-40555  40.447  28.862   3.006
73773ION    CL-40556   0.346   4.491   1.757
73774ION    CL-40557  40.291  24.361   1.007
73775ION    CL-40558  22.735  36.068   1.905
73776ION    CL-40559  14.823  26.753   3.279
73777ION    CL-40560  20.871  23.214  13.393
73778ION    CL-40561   5.044  26.805  14.261
73779ION    CL-40562   3.991  18.159  10.237
73780ION    CL-40563  18.832   8.758  12.737
73781ION    CL-40564  31.685  39.554   2.260
73782ION    CL-40565  26.219  23.599   0.980
73783ION    CL-40566   3.716  24.227   3.087
73784ION    CL-40567  14.394  33.830  11.013
73785ION    CL-40568   0.645  19.921  13.592
73786ION    CL-40569  44.281  26.718   1.163
73787ION    CL-40570  12.635  12.145  10.595
73788ION    CL-40571  20.197  14.390   5.324
73789ION    CL-40572   3.713  30.128   3.202
73790ION    CL-40573   3.735   4.709  13.112
73791ION    CL-40574  40.597  17.099  14.424
73792ION    CL-40575  10.024  26.364  11.062
73793ION    CL-40576  34.664   7.137  14.369
73794ION    CL-40577  33.612  14.047  14.471
73795ION    CL-40578  34.900   3.228   1.491
73796ION    CL-40579  38.364   0.958  11.795
73797ION    CL-40580  11.473   7.440   3.782
73798ION    CL-40581  17.297  23.101  11.762
73799ION    CL-40582   3.108  44.660   2.649
73800ION    CL-40583   5.503   9.188  11.651
73801ION    CL-40584  33.034  38.195   0.037
73802ION    CL-40585  15.406  42.296  14.743
73803ION    CL-40586  23.025  37.361   0.229
73804ION    CL-40587   9.581  32.378  10.327
73805ION    CL-40588   2.373  34.006  14.953
73806ION    CL-40589  38.577  15.274   2.712
73807ION    CL-40590  13.180  36.061   4.586
73808ION    CL-40591  15.094  18.505   4.593
73809ION    CL-40592  13.832   3.303   3.690
73810ION    CL-40593  38.388  44.204   0.950
73811ION    CL-40594  37.861  33.118   2.467
73812ION    CL-40595  28.271  40.679   2.358
73813ION    CL-40596   7.395   4.207   1.141
73814ION    CL-40597  15.046  12.670  11.678
73815ION    CL-40598  29.586   3.967  11.847
73816ION    CL-40599   5.240  37.896   1.320
73817ION    CL-40600   5.310  20.914   3.427
73818ION    CL-40601  14.984  39.773  14.773
73819ION    CL-40602  36.684  35.623   0.045
73820ION    CL-40603  25.251  15.764  12.086
73821ION    CL-40604  25.185   5.723  11.012
73822ION    CL-40605  31.963  43.883  13.731
73823ION    CL-40606  16.274   5.608   3.251
73824ION    CL-40607  24.742   5.178  12.727
73825ION    CL-40608  16.814  40.308  11.475
73826ION    CL-40609  16.532  22.980  12.962
73827ION    CL-40610  22.825  31.715   9.998
73828ION    CL-40611  30.516  18.604   4.062
73829ION    CL-40612  42.079  38.070  12.718
73830ION    CL-40613  26.777  36.881  12.857
73831ION    CL-40614   3.697  29.618  11.810
73832ION    CL-40615  27.214  33.624  14.977
73833ION    CL-40616  39.386  28.530   3.843
73834ION    CL-40617  21.553   1.556   0.496
73835ION    CL-40618  34.919  33.097  12.035
73836ION    CL-40619  29.124   7.658   0.104
73837ION    CL-40620  12.098  29.693   4.244
73838ION    CL-40621  40.613   9.077  10.382
73839ION    CL-40622  33.078  31.048  12.206
73840ION    CL-40623  15.905  30.212   3.051
73841ION    CL-40624  11.065   1.911   0.306
73842ION    CL-40625  36.845   9.238   2.330
73843ION    CL-40626   6.402  13.338   2.126
73844ION    CL-40627  35.290  41.432   0.262
73845ION    CL-40628  17.154  40.027   9.834
73846ION    CL-40629   3.692  16.275   3.939
73847ION    CL-40630  33.533  19.039   1.072
73848ION    CL-40631   1.005   8.572  13.465
73849ION    CL-40632  16.777  38.009   1.362
73850ION    CL-40633   5.332  31.489   1.978
73851ION    CL-40634  25.194  30.870  12.334
73852ION    CL-40635  30.490   8.436   0.983
73853ION    CL-40636   5.898  14.365  10.549
73854ION    CL-40637  31.239  22.800   1.251
73855ION    CL-40638  17.736  16.873  12.687
73856ION    CL-40639  40.153  31.739  10.456
73857ION    CL-40640   7.332  13.784   5.020
73858ION    CL-40641  23.456  40.110   5.609
73859ION    CL-40642  13.347   2.279  14.239
73860ION    CL-40643  12.144   7.939  14.695
73861ION    CL-40644  12.741  22.322   1.953
73862ION    CL-40645  42.666   2.263  14.150
73863ION    CL-40646  28.231  17.043  12.092
73864ION    CL-40647   0.767  37.104   3.318
73865ION    CL-40648  22.979  30.301  13.680
73866ION    CL-40649  25.815  25.899  14.896
73867ION    CL-40650  16.305  32.516  12.241
73868ION    CL-40651  43.431  25.668  11.636
73869ION    CL-40652   7.101  33.856  11.538
73870ION    CL-40653  42.786   0.760  12.884
73871ION    CL-40654  24.765  33.437   3.285
73872ION    CL-40655  24.526   6.190  12.822
73873ION    CL-40656  28.699  32.206   0.670
73874ION    CL-40657  16.578  36.569  14.344
73875ION    CL-40658  29.026   8.849   0.200
73876ION    CL-40659   6.979  28.084   2.326
73877ION    CL-40660   5.541  29.348   1.494
73878ION    CL-40661   9.563  32.449   2.073
73879ION    CL-40662  11.567   4.957   3.761
73880ION    CL-40663   1.538  25.935  14.151
73881ION    CL-40664  35.683  21.567   0.260
73882ION    CL-40665  18.546  20.157  10.730
73883ION    CL-40666  19.025  26.983   1.177
73884ION    CL-40667  23.917  12.293   3.000
73885ION    CL-40668  26.736  21.774   0.229
73886ION    CL-40669  21.279  33.565  14.352
73887ION    CL-40670   8.723   0.314   2.424
73888ION    CL-40671  30.741  41.058   2.534
73889ION    CL-40672  33.037   7.257  13.808
73890ION    CL-40673  36.205  19.547  10.232
73891ION    CL-40674   2.816   3.456   2.276
73892ION    CL-40675  14.834   6.937   0.694
73893ION    CL-40676   4.146  37.317  14.333
73894ION    CL-40677  36.311  34.865   2.449
73895ION    CL-40678  36.055  42.770   3.837
73896ION    CL-40679  37.545  38.183   1.783
73897ION    CL-40680  24.358  17.518   0.560
73898ION    CL-40681  23.509  26.965  13.811
73899ION    CL-40682  14.341  39.538   4.608
73900ION    CL-40683   6.479  30.521  12.153
73901ION    CL-40684  36.552  42.519   2.674
73902ION    CL-40685  11.410  35.420  12.161
73903ION    CL-40686  17.305   1.848  13.510
73904ION    CL-40687  13.305   3.478   2.344
73905ION    CL-40688  33.979  23.467  14.881
73906ION    CL-40689  21.724  16.166   0.075
73907ION    CL-40690  36.977  13.085   2.229
73908ION    CL-40691   2.445  10.226   2.061
73909ION    CL-40692  27.363  40.081  13.420
73910ION    CL-40693  26.405  33.643   5.067
73911ION    CL-40694  18.345   4.113  12.918
73912ION    CL-40695  24.858  43.312   2.153
73913ION    CL-40696  27.730  14.855   3.753
73914ION    CL-40697   4.395  43.833   0.761
73915ION    CL-40698  32.268  30.223  11.098
73916ION    CL-40699   0.901  19.446  11.084
73917ION    CL-40700  41.247  18.218  13.817
73918ION    CL-40701  42.997   3.922   1.736
73919ION    CL-40702  22.591  38.382   1.323
73920ION    CL-40703  12.104  36.784   0.792
73921ION    CL-40704   8.342  28.070   5.007
73922ION    CL-40705  34.001  23.929  12.372
73923ION    CL-40706  17.273  30.707   3.209
73924ION    CL-40707   7.476  19.632   1.872
73925ION    CL-40708  22.145   3.787  13.818
73926ION    CL-40709  29.089  38.098  10.140
73927ION    CL-40710  16.535  42.651  12.101
73928ION    CL-40711  34.168   1.363  10.833
73929ION    CL-40712   6.278  38.525   1.808
73930ION    CL-40713  28.498  38.521  13.146
73931ION    CL-40714  21.766  14.183  12.989
73932ION    CL-40715  33.271   1.469  13.864
73933ION    CL-40716  15.854  14.024  12.702
73934ION    CL-40717  31.707   3.916  11.254
73935ION    CL-40718   8.974  14.495   1.048
73936ION    CL-40719   3.196  31.152   4.843
73937ION    CL-40720  30.917  36.799   2.957
73938ION    CL-40721  35.624  11.925  14.951
73939ION    CL-40722  21.631  36.007  10.890
73940ION    CL-40723  11.589   7.379  13.138
73941ION    CL-40724   8.912  43.844  11.662
73942ION    CL-40725  36.429  13.876  11.543
73943ION    CL-40726  40.444  11.412  14.960
73944ION    CL-40727  16.125  12.511   2.397
73945ION    CL-40728  35.272   7.613  14.073
73946ION    CL-40729  35.565  14.822   0.001
73947ION    CL-40730  36.269  22.956  11.836
73948ION    CL-40731  11.100  28.030  13.065
73949ION    CL-40732  37.075  37.853   3.702
73950ION    CL-40733   9.170   5.831  14.991
73951ION    CL-40734  28.013  30.897  11.228
73952ION    CL-40735  32.459  36.666   1.962
73953ION    CL-40736  31.880   0.521   1.648
73954ION    CL-40737  42.496   9.840  13.568
73955ION    CL-40738  42.641   5.850  12.462
73956ION    CL-40739  34.073  40.020  13.471
73957ION    CL-40740  21.841  38.086  12.368
73958ION    CL-40741  40.448  20.545  11.456
73959ION    CL-40742  35.846   9.659   0.269
73960ION    CL-40743   2.811  22.149   3.262
73961ION    CL-40744  24.726  23.391  13.463
73962ION    CL-40745  30.958  25.488   1.464
73963ION    CL-40746  19.567  38.529  11.049
73964ION    CL-40747  29.286   5.377  14.925
73965ION    CL-40748  25.894  15.262   3.684
73966ION    CL-40749  19.043  21.838   1.234
73967ION    CL-40750  17.618  21.617   0.861
73968ION    CL-40751  16.822   8.065   0.333
73969ION    CL-40752  19.788  40.715   4.017
73970ION    CL-40753  44.204  14.368  12.433
73971ION    CL-40754   3.850   1.411   3.034
73972ION    CL-40755   0.686   8.103   4.541
73973ION    CL-40756  30.720  20.950  11.794
73974ION    CL-40757  10.428  39.826  10.481
73975ION    CL-40758  38.661   5.199   4.247
73976ION    CL-40759  18.495  27.540  14.516
73977ION    CL-40760  27.625  18.471   0.419
73978ION    CL-40761  43.526  30.436   2.451
73979ION    CL-40762  28.902  35.646  10.986
73980ION    CL-40763  32.978  10.315  12.149
73981ION    CL-40764  19.090   8.341   2.458
73982ION    CL-40765  29.846  20.304   2.163
73983ION    CL-40766   8.559  18.688   3.733
73984ION    CL-40767   0.306  12.647  12.379
73985ION    CL-40768  35.274   5.513   4.153
73986ION    CL-40769  36.113  38.892   2.088
73987ION    CL-40770  34.134   1.860  14.184
73988ION    CL-40771  34.740   1.541  11.634
73989ION    CL-40772  18.781  16.094   1.805
73990ION    CL-40773  38.506  36.991  14.285
73991ION    CL-40774  39.317  36.999   2.474
73992ION    CL-40775   9.417  42.319  12.806
73993ION    CL-40776  17.698  15.657   3.023
73994ION    CL-40777  14.950  16.836   0.441
73995ION    CL-40778   1.956  14.122  13.333
73996ION    CL-40779  41.902   2.198   1.329
73997ION    CL-40780  35.054  19.009  11.968
73998ION    CL-40781  23.447  33.541  14.958
73999ION    CL-40782  35.799  31.298   0.181
74000ION    CL-40783  35.796  26.483  13.163
74001ION    CL-40784  42.868  15.173   0.099
74002ION    CL-40785  32.675  18.238  12.762
74003ION    CL-40786   8.533   4.006  10.686
74004ION    CL-40787   6.788  29.859   1.483
74005ION    CL-40788  12.693  31.909  14.010
74006ION    CL-40789   7.789  13.399   4.750
74007ION    CL-40790  20.737  26.680   3.186
74008ION    CL-40791  40.016   9.031  11.654
74009ION    CL-40792   2.042  32.968   2.555
74010ION    CL-40793  31.614  11.675  11.257
74011ION    CL-40794   5.363  33.994  13.518
74012ION    CL-40795  12.852  31.265  10.976
74013ION    CL-40796  36.929  40.836   4.146
74014ION    CL-40797  29.091   3.625   4.133
74015ION    CL-40798  17.983   1.278  11.313
74016ION    CL-40799  18.812  17.845   2.670
74017ION    CL-40800  19.501  16.359  14.520
74018ION    CL-40801   6.609   7.647   1.641
74019ION    CL-40802  29.837  23.291  11.849
74020ION    CL-40803  35.060  30.946   0.418
74021ION    CL-40804  15.456  39.827  11.281
74022ION    CL-40805  40.607  42.347   1.901
74023ION    CL-40806  21.604  26.947  10.225
74024ION    CL-40807  33.592  37.132   1.455
74025ION    CL-40808  21.703  16.035  12.992
74026ION    CL-40809   5.043  41.154   3.218
74027ION    CL-40810  40.145   5.219  11.133
74028ION    CL-40811  11.256  36.900  13.804
74029ION    CL-40812  34.588  29.057  12.474
74030ION    CL-40813  16.041  18.282   3.257
74031ION    CL-40814  14.054   8.601   3.314
74032ION    CL-40815  34.367  28.016  14.079
74033ION    CL-40816  22.261  38.060  13.922
74034ION    CL-40817   3.071  25.684   3.759
74035ION    CL-40818   8.054   9.646   2.255
74036ION    CL-40819   0.830  43.889   2.583
74037ION    CL-40820   0.096  16.400   4.647
74038ION    CL-40821  36.832  23.057   1.284
74039ION    CL-40822  37.041  24.454   4.014
74040ION    CL-40823  28.161   9.763  12.731
74041ION    CL-40824  36.226  24.460   0.038
74042ION    CL-40825  29.629  40.709  10.970
74043ION    CL-40826   6.936  19.275  14.792
74044ION    CL-40827  43.013   3.056   1.209
74045ION    CL-40828   4.404   4.196  14.139
74046ION    CL-40829  30.820  28.406   4.706
74047ION    CL-40830  33.186   7.764   1.610
74048ION    CL-40831  22.175  41.430  10.373
74049ION    CL-40832  27.340  10.109  12.169
74050ION    CL-40833  25.196  20.463  13.646
74051ION    CL-40834  13.628  43.533   2.757
74052ION    CL-40835  32.559  15.054   0.024
74053ION    CL-40836  26.801  10.975  13.296
74054ION    CL-40837  33.408  22.401   1.212
74055ION    CL-40838   2.644   4.807  12.585
74056ION    CL-40839  29.750  33.395   0.335
74057ION    CL-40840  36.688  21.617   0.609
74058ION    CL-40841  40.283  22.037  13.923
74059ION    CL-40842  20.725  20.782   2.660
74060ION    CL-40843   3.133  22.305   4.985
74061ION    CL-40844  37.251  38.876   2.635
74062ION    CL-40845  10.713  21.546   1.206
74063ION    CL-40846  26.195  34.647   3.912
74064ION    CL-40847   9.778  37.734   4.101
74065ION    CL-40848  13.676  24.988   1.505
74066ION    CL-40849  28.114  33.462   3.091
74067ION    CL-40850  10.233   0.079  13.339
74068ION    CL-40851  11.116  33.030   3.624
74069ION    CL-40852  40.377   2.632   0.972
74070ION    CL-40853  26.445  10.082  13.572
74071ION    CL-40854  11.575   7.710   0.523
74072ION    CL-40855   3.265  13.262  13.803
74073ION    CL-40856  24.407  39.588   4.087
74074ION    CL-40857   4.828  28.448  12.642
74075ION    CL-40858  11.825  38.471  12.866
74076ION    CL-40859  11.174  10.639  13.258
74077ION    CL-40860  21.737  13.768  14.257
74078ION    CL-40861  45.000  32.832  14.396
74079ION    CL-40862   2.510  11.728  12.213
74080ION    CL-40863  20.911  41.004  14.650
74081ION    CL-40864  34.688   1.069   2.883
74082ION    CL-40865  29.824  14.990   2.396
74083ION    CL-40866   6.119  39.128  14.425
74084ION    CL-40867   5.923  37.620   3.194
74085ION    CL-40868  41.512  10.613  13.054
74086ION    CL-40869   1.306   9.957  13.319
74087ION    CL-40870  31.636   4.797   5.278
74088ION    CL-40871  25.907  42.617  10.046
74089ION    CL-40872  13.113  38.634  14.444
74090ION    CL-40873  27.496   6.698  10.581
74091ION    CL-40874  33.319  43.103   3.646
74092ION    CL-40875   0.440   9.101  10.648
74093ION    CL-40876  34.455   9.158   5.222
74094ION    CL-40877  22.725  29.632   9.904
74095ION    CL-40878  15.286  31.379  14.357
74096ION    CL-40879  24.844  26.859  13.019
74097ION    CL-40880  39.059  14.875   5.062
74098ION    CL-40881  16.636  31.651   4.170
74099ION    CL-40882  42.797  32.028   3.221
74100ION    CL-40883  23.184   8.137   3.073
74101ION    CL-40884  31.833  25.165  11.505
74102ION    CL-40885  28.776   3.800  12.166
74103ION    CL-40886  22.772  22.111   0.898
74104ION    CL-40887  34.562  37.351  14.637
74105ION    CL-40888  31.397  24.748  10.412
74106ION    CL-40889  20.914   5.789  12.628
74107ION    CL-40890  43.403  19.041   2.822
74108ION    CL-40891  11.902  25.223   3.158
74109ION    CL-40892  38.544  41.356  14.399
74110ION    CL-40893   7.687  31.158   0.318
74111ION    CL-40894  17.279  32.231   3.670
74112ION    CL-40895  15.280   5.295  14.081
74113ION    CL-40896   2.346   9.355  11.481
74114ION    CL-40897  43.752  36.318  11.963
74115ION    CL-40898  16.714  24.994  12.453
74116ION    CL-40899   4.504  23.715   2.621
74117ION    CL-40900  33.289  13.444  13.699
74118ION    CL-40901  16.245   6.925  13.810
74119ION    CL-40902  38.820  12.376   2.773
74120ION    CL-40903  17.068  37.595   0.468
74121ION    CL-40904  27.189  21.634  14.308
74122ION    CL-40905  30.960  36.291  13.354
74123ION    CL-40906  41.580   8.578   2.787
74124ION    CL-40907  13.748  38.298  11.647
74125ION    CL-40908  28.346  44.558   0.865
74126ION    CL-40909  15.162  19.987  14.204
74127ION    CL-40910   1.790  28.824   1.394
74128ION    CL-40911  27.090   2.373   3.907
74129ION    CL-40912  30.931   6.902  14.337
74130ION    CL-40913  12.659   3.381  12.493
74131ION    CL-40914  42.820  12.523  13.121
74132ION    CL-40915   0.242  43.634   2.050
74133ION    CL-40916  26.593  22.089  13.644
74134ION    CL-40917  21.338  44.745   1.861
74135ION    CL-40918  17.646  34.817   2.677
74136ION    CL-40919   6.789  38.757   2.388
74137ION    CL-40920  29.039  34.071  14.446
74138ION    CL-40921  21.816  12.919   4.756
74139ION    CL-40922   5.637  41.675   3.578
74140ION    CL-40923  41.777  32.400  11.341
74141ION    CL-40924  10.139   6.761   0.662
74142ION    CL-40925  32.072   5.054  14.016
74143ION    CL-40926  12.639  13.560   0.966
74144ION    CL-40927  33.372   4.520  12.377
74145ION    CL-40928  43.709  19.112   4.173
74146ION    CL-40929  25.142  36.381   0.703
74147ION    CL-40930  21.372  14.262   3.849
74148ION    CL-40931  25.776  36.931  12.956
74149ION    CL-40932  13.736  22.761  11.318
74150ION    CL-40933  11.938   9.322  11.636
74151ION    CL-40934  10.070  24.469  10.477
74152ION    CL-40935  39.900  15.691   1.768
74153ION    CL-40936  24.937  41.408   0.945
74154ION    CL-40937  25.634  42.944   1.874
74155ION    CL-40938  38.333  31.369   2.289
74156ION    CL-40939   3.131  33.466   5.045
74157ION    CL-40940   8.212  13.286  13.647
74158ION    CL-40941  40.939  35.814   0.271
74159ION    CL-40942  15.821  25.928   2.983
74160ION    CL-40943  22.083   6.181   0.380
74161ION    CL-40944   5.338  29.414  14.479
74162ION    CL-40945   3.684   1.123  13.616
74163ION    CL-40946  39.327  20.169   0.738
74164ION    CL-40947  20.679  11.893  11.659
74165ION    CL-40948   2.635  24.276   2.150
74166ION    CL-40949  32.579  41.581   2.206
74167ION    CL-40950  27.817  11.290   2.102
74168ION    CL-40951  21.951  26.541  11.139
74169ION    CL-40952   4.241  41.021  14.460
74170ION    CL-40953  11.593  32.731   4.679
74171ION    CL-40954  12.001  22.102  10.881
74172ION    CL-40955  24.608  32.410   0.237
74173ION    CL-40956   2.936   1.011   3.104
74174ION    CL-40957  25.720  44.491   4.014
74175ION    CL-40958  28.360   5.132  14.421
74176ION    CL-40959  28.245  21.730  13.364
74177ION    CL-40960  25.224  26.360   2.599
74178ION    CL-40961  10.120  16.417   1.559
74179ION    CL-40962  31.017  16.159   4.526
74180ION    CL-40963  39.249  30.855  12.153
74181ION    CL-40964  18.281  16.990   2.836
74182ION    CL-40965   7.150  33.180   4.160
74183ION    CL-40966  20.968  41.497   2.087
74184ION    CL-40967   4.012  18.796  13.517
74185ION    CL-40968  24.024  11.675   2.221
74186ION    CL-40969  42.894  12.650   4.962
74187ION    CL-40970  10.951  33.724  12.588
74188ION    CL-40971  23.189   0.464   0.561
74189ION    CL-40972   7.540  25.484  11.589
74190ION    CL-40973  32.475  32.264   2.294
74191ION    CL-40974   1.966   3.089  13.419
74192ION    CL-40975  44.399  36.652  13.045
74193ION    CL-40976   5.728   3.213   2.108
74194ION    CL-40977  26.826  25.542  14.104
74195ION    CL-40978  38.336  32.968   3.335
74196ION    CL-40979  43.097  25.731  14.876
74197ION    CL-40980  44.018  21.365   0.752
74198ION    CL-40981   2.185  20.982  11.180
74199ION    CL-40982  18.278   6.604  14.034
74200ION    CL-40983  15.594   8.988   3.042
74201ION    CL-40984  40.528  27.646  14.895
74202ION    CL-40985  37.317  41.301  14.766
74203ION    CL-40986  42.940  22.741   1.383
74204ION    CL-40987  36.035  26.936   2.262
74205ION    CL-40988  22.867   7.029   2.143
74206ION    CL-40989  24.164  29.162   1.472
74207ION    CL-40990  22.500   8.843   3.718
74208ION    CL-40991  39.046   0.548  13.763
74209ION    CL-40992   4.753  42.390   1.659
74210ION    CL-40993  24.334  33.734  12.302
74211ION    CL-40994  17.936   8.930  12.328
74212ION    CL-40995  14.350  32.745  14.467
74213ION    CL-40996  25.112  32.627   1.824
74214ION    CL-40997  13.484   2.733   0.120
74215ION    CL-40998  14.074  25.790   1.058
74216ION    CL-40999   8.194  35.313   2.701
74217ION    CL-41000  37.160  26.944  11.288
74218ION    CL-41001  18.112  44.746  14.319
74219ION    CL-41002  39.118  39.803   1.285
74220ION    CL-41003  31.589  13.980  14.419
74221ION    CL-41004   2.693  35.402   3.829
74222ION    CL-41005   3.733  10.634  13.560
74223ION    CL-41006  22.935  34.726   1.864
74224ION    CL-41007  11.282   4.427  13.005
74225ION    CL-41008  13.601  13.127  14.370
74226ION    CL-41009   2.628  13.472   1.004
74227ION    CL-41010  33.886   8.274  13.552
74228ION    CL-41011   6.626  20.865  14.067
74229ION    CL-41012   6.660   6.796  13.357
74230ION    CL-41013  30.972   0.214   2.515
74231ION    CL-41014  19.363  23.742  12.580
74232ION    CL-41015  34.542  17.661   0.327
74233ION    CL-41016  17.707   6.112   1.836
74234ION    CL-41017  37.389   8.946  11.107
74235ION    CL-41018  27.195   7.720  12.953
74236ION    CL-41019  20.308  34.139  11.979
74237ION    CL-41020  15.541  25.313  11.664
74238ION    CL-41021   7.622  38.338   4.240
74239ION    CL-41022  10.552  19.481   2.520
74240ION    CL-41023   4.319  24.704   3.725
74241ION    CL-41024   4.426  19.807   3.287
74242ION    CL-41025  29.403  17.214   2.658
74243ION    CL-41026  36.180  15.768   2.031
74244ION    CL-41027  27.807  13.217   5.031
74245ION    CL-41028  11.337  42.383   3.921
74246ION    CL-41029  17.997   0.755  13.919
74247ION    CL-41030  18.677  13.283   4.941
74248ION    CL-41031  33.666  32.805   2.223
74249ION    CL-41032   6.501  14.527   3.846
74250ION    CL-41033   8.721  30.544   4.116
74251ION    CL-41034   4.193  22.554   2.869
74252ION    CL-41035  24.778   7.125  12.449
74253ION    CL-41036  31.276  43.430   2.428
74254ION    CL-41037  28.184  34.106  12.957
74255ION    CL-41038  11.781  37.831   3.566
74256ION    CL-41039  20.035   2.764   0.814
74257ION    CL-41040  37.136  20.261   2.775
74258ION    CL-41041   3.010  32.933  11.607
74259ION    CL-41042  10.116   7.772   0.815
74260ION    CL-41043   6.410  35.975  11.472
74261ION    CL-41044  39.010  35.592  10.294
74262ION    CL-41045  32.919   7.336  12.819
74263ION    CL-41046  37.982  24.111   0.140
74264ION    CL-41047  18.982  23.752   4.147
74265ION    CL-41048  33.282  37.025  12.383
74266ION    CL-41049   3.147  12.039  13.329
74267ION    CL-41050   1.445  42.491   0.711
74268ION    CL-41051  33.893  30.937  11.217
74269ION    CL-41052  14.104   3.471  11.927
74270ION    CL-41053  23.087  20.528  14.333
74271ION    CL-41054   1.004   0.592  13.848
74272ION    CL-41055  10.145  14.660  13.066
74273ION    CL-41056  35.663  43.904   2.456
74274ION    CL-41057   0.188  36.103   4.109
74275ION    CL-41058  42.409  12.043  11.513
74276ION    CL-41059   0.440  19.012  14.098
74277ION    CL-41060  31.432  33.501   4.082
74278ION    CL-41061  30.578  20.764  13.068
74279ION    CL-41062  41.648  22.357   4.988
74280ION    CL-41063  33.353  21.219  10.581
74281ION    CL-41064   6.099  30.812  11.394
74282ION    CL-41065  30.015  23.775   1.429
74283ION    CL-41066  34.627  14.221   0.316
74284ION    CL-41067  12.055   3.778  12.928
74285ION    CL-41068  31.639  18.369   2.658
74286ION    CL-41069   1.408   5.079   1.912
74287ION    CL-41070   7.400  35.938   3.701
74288ION    CL-41071   8.376  41.943   2.781
74289ION    CL-41072  41.296   9.107  14.345
74290ION    CL-41073  28.372  43.796  11.036
74291ION    CL-41074   2.343  38.704  11.147
74292ION    CL-41075  31.291   2.011  10.087
74293ION    CL-41076  11.125   0.885   5.086
74294ION    CL-41077  18.141  39.533  11.378
74295ION    CL-41078   3.598   5.664  14.807
74296ION    CL-41079  44.520   8.849   1.191
74297ION    CL-41080  41.681  26.375   1.527
74298ION    CL-41081  11.864  21.196   3.695
74299ION    CL-41082  41.897   2.522  14.846
74300ION    CL-41083   0.725  28.963  13.587
74301ION    CL-41084  33.177  13.886   1.957
74302ION    CL-41085  18.318  16.814  11.876
74303ION    CL-41086  35.349  24.222  12.613
74304ION    CL-41087  39.437  35.821  12.415
74305ION    CL-41088   1.344  26.232   0.086
74306ION    CL-41089   3.396   0.207  10.657
74307ION    CL-41090  24.911  22.510  10.552
74308ION    CL-41091  26.903  34.508   3.351
74309ION    CL-41092  27.982   1.011   0.869
74310ION    CL-41093   4.904  23.476   0.568
74311ION    CL-41094   5.006  38.503  14.254
74312ION    CL-41095  44.796  22.232   4.039
74313ION    CL-41096  16.057  14.082  13.775
74314ION    CL-41097  31.920   4.100  12.257
74315ION    CL-41098   2.536   2.056   3.299
74316ION    CL-41099   4.450  36.150  13.706
74317ION    CL-41100   4.422  40.888  12.598
74318ION    CL-41101   4.900  34.668  11.102
74319ION    CL-41102  24.436  32.358  13.439
74320ION    CL-41103   7.322  26.014   0.748
74321ION    CL-41104  12.809   1.594  13.548
74322ION    CL-41105   8.429  30.966   3.258
74323ION    CL-41106  23.961   7.675  14.994
74324ION    CL-41107  34.066  21.499   1.309
74325ION    CL-41108  44.646  30.061   1.058
74326ION    CL-41109  16.540  30.941  12.758
74327ION    CL-41110  38.598  18.585   3.004
74328ION    CL-41111  28.212  43.300  13.990
74329ION    CL-41112  40.977  17.792  11.555
74330ION    CL-41113  44.924  14.124  14.432
74331ION    CL-41114  21.989  23.610   4.123
74332ION    CL-41115   4.907  28.718   1.642
74333ION    CL-41116  35.120  38.014  11.740
74334ION    CL-41117  31.701  12.587   3.160
74335ION    CL-41118  15.240  10.265   4.705
74336ION    CL-41119  28.403  20.851   1.381
74337ION    CL-41120  43.096   8.525   3.378
74338ION    CL-41121  26.208  17.701   2.708
74339ION    CL-41122  24.717  39.580  11.951
74340ION    CL-41123  18.382  40.544  13.892
74341ION    CL-41124  38.673  11.674   5.138
74342ION    CL-41125  18.524   9.331   0.982
74343ION    CL-41126  31.444   2.994   3.963
74344ION    CL-41127  21.480  20.916   2.191
74345ION    CL-41128  38.100  31.665   1.359
74346ION    CL-41129  25.721  15.046  11.232
74347ION    CL-41130   7.344   3.176  12.582
74348ION    CL-41131  37.859  10.362   0.320
74349ION    CL-41132  15.781  15.669   2.202
74350ION    CL-41133   6.597  42.103   0.064
74351ION    CL-41134  36.570   2.589  12.393
74352ION    CL-41135  36.870   1.601  13.374
74353ION    CL-41136   6.693  10.346   1.882
74354ION    CL-41137  19.178  18.410   9.778
74355ION    CL-41138  19.563  13.809   3.227
74356ION    CL-41139  19.785  25.513  11.994
74357ION    CL-41140  19.487  42.448   3.424
74358ION    CL-41141  30.443   3.707  10.376
74359ION    CL-41142  34.739   9.770   4.752
74360ION    CL-41143  37.109  22.671  12.842
74361ION    CL-41144   6.610  41.379  11.287
74362ION    CL-41145   0.030  20.350  11.883
74363ION    CL-41146   7.626  25.765   2.171
74364ION    CL-41147  13.854  31.388   2.911
74365ION    CL-41148   4.630  30.400   2.286
74366ION    CL-41149   9.858  36.495   2.757
74367ION    CL-41150  10.607   7.498  12.931
74368ION    CL-41151  21.814   9.412  12.054
74369ION    CL-41152  10.082  19.768  12.838
74370ION    CL-41153  41.985  16.161   1.231
74371ION    CL-41154  30.320  22.507   1.534
74372ION    CL-41155   3.177  14.233  14.130
74373ION    CL-41156  37.359  25.642  11.161
74374ION    CL-41157   2.942  36.143  11.917
74375ION    CL-41158  35.833  29.759  11.502
74376ION    CL-41159  27.437  43.400   0.536
74377ION    CL-41160  32.904  13.686   0.331
74378ION    CL-41161  17.375  33.236  14.133
74379ION    CL-41162  10.383  28.687  12.834
74380ION    CL-41163  12.096  12.747   1.848
74381ION    CL-41164   2.755  26.913   0.763
74382ION    CL-41165  37.393  44.367   0.872
74383ION    CL-41166  28.416  20.085  12.308
74384ION    CL-41167  42.625  14.876   1.357
74385ION    CL-41168  16.004  22.206   0.436
74386ION    CL-41169  11.016  37.302  11.257
74387ION    CL-41170  28.456   9.164  11.987
74388ION    CL-41171   1.598  42.807   1.708
74389ION    CL-41172  33.407  13.326  12.810
74390ION    CL-41173  19.012   9.814   3.528
74391ION    CL-41174  33.337  23.586   2.302
74392ION    CL-41175  34.374  32.055  11.650
74393ION    CL-41176  22.919  11.322   1.211
74394ION    CL-41177   9.260  22.112  11.008
74395ION    CL-41178   4.930  11.428  11.836
74396ION    CL-41179  13.315  19.313   2.815
74397ION    CL-41180  10.105  16.856  12.843
74398ION    CL-41181   7.807  44.164   2.266
74399ION    CL-41182  43.343   5.077   3.643
74400ION    CL-41183  37.895  32.504  13.851
74401ION    CL-41184  30.999  37.582   3.634
74402ION    CL-41185  18.087  44.791   1.300
74403ION    CL-41186  11.388  27.318  11.224
74404ION    CL-41187   5.962  39.864  11.444
74405ION    CL-41188  12.658  11.227   3.622
74406ION    CL-41189  29.180   9.856   1.803
74407ION    CL-41190  10.777  14.669  14.523
74408ION    CL-41191  41.812   2.852   2.621
74409ION    CL-41192  42.097  34.906   9.873
74410ION    CL-41193  24.429  29.686  12.722
74411ION    CL-41194  29.454  10.184   4.358
74412ION    CL-41195  41.654  44.476  13.068
74413ION    CL-41196  10.361  31.863  11.578
74414ION    CL-41197  11.077  18.037   4.178
74415ION    CL-41198  26.337  30.205   3.416
74416ION    CL-41199   0.985  26.859   5.017
74417ION    CL-41200  10.257   1.073   1.838
74418ION    CL-41201   6.324  39.990   0.845
74419ION    CL-41202  40.541  22.469  13.058
74420ION    CL-41203  24.398  14.113   0.933
74421ION    CL-41204  17.745  25.288  10.181
74422ION    CL-41205  35.874   7.041  13.003
74423ION    CL-41206  36.960   5.799  10.445
74424ION    CL-41207  35.318  25.133   0.933
74425ION    CL-41208  31.019  36.576   0.424
74426ION    CL-41209  43.082  21.070   0.497
74427ION    CL-41210  18.649  43.745  11.443
74428ION    CL-41211  43.836  30.914   3.273
74429ION    CL-41212  10.931  24.005   5.031
74430ION    CL-41213   4.460  27.847   4.091
74431ION    CL-41214  10.753  34.529   1.730
74432ION    CL-41215  38.038  41.474  13.403
74433ION    CL-41216  36.827  35.721   2.240
74434ION    CL-41217  38.455  20.282   1.267
74435ION    CL-41218  14.326  13.051  13.673
74436ION    CL-41219   0.521   7.483  10.968
74437ION    CL-41220   8.162   9.808  14.732
74438ION    CL-41221  38.438   0.367  12.822
74439ION    CL-41222   1.181  14.801  13.544
74440ION    CL-41223  14.462  36.605   3.579
74441ION    CL-41224   2.879  32.134  12.786
74442ION    CL-41225   1.355  33.954   3.323
74443ION    CL-41226  41.452  14.066  14.279
74444ION    CL-41227   1.908   5.029  13.265
74445ION    CL-41228  10.473  19.220   4.712
74446ION    CL-41229  14.429   5.434  11.658
74447ION    CL-41230   5.809  16.643   4.661
74448ION    CL-41231  10.642  31.075   1.883
74449ION    CL-41232   7.244  10.393   3.692
74450ION    CL-41233  30.937  27.256   1.776
74451ION    CL-41234  22.836  29.503  13.733
74452ION    CL-41235  30.588  16.906  11.854
74453ION    CL-41236   7.101  38.339   1.737
74454ION    CL-41237  16.419   3.416   0.324
74455ION    CL-41238   1.678   4.740  12.335
74456ION    CL-41239  28.869  44.718   1.935
74457ION    CL-41240  44.284  43.508  13.073
74458ION    CL-41241  18.734  23.424  11.348
74459ION    CL-41242  32.979  18.764   2.718
74460ION    CL-41243  13.667   8.326   4.587
74461ION    CL-41244   1.055   2.050   1.373
74462ION    CL-41245  13.091   6.849   0.870
74463ION    CL-41246  42.056  18.636   1.375
74464ION    CL-41247  32.683  38.597  11.902
74465ION    CL-41248  14.816  43.501  14.854
74466ION    CL-41249  20.140  42.916   2.722
74467ION    CL-41250  13.500  32.317   2.731
74468ION    CL-41251  22.820  43.876   4.716
74469ION    CL-41252  15.817  32.493  11.485
74470ION    CL-41253  24.514  31.442   3.090
74471ION    CL-41254  39.366   1.291   4.966
74472ION    CL-41255  40.939  37.713  14.255
74473ION    CL-41256  18.825  12.895  10.961
74474ION    CL-41257  23.661  36.619   0.332
74475ION    CL-41258   0.979  20.166  12.137
74476ION    CL-41259   5.722  20.782  13.648
74477ION    CL-41260  37.827   3.313   4.097
74478ION    CL-41261   3.653   5.042   4.056
74479ION    CL-41262   6.699  21.670   0.336
74480ION    CL-41263  38.253  36.783   0.230
74481ION    CL-41264  16.758  32.508  13.867
74482ION    CL-41265  44.423  31.762   3.295
74483ION    CL-41266  20.861  28.373   4.897
74484ION    CL-41267  43.434  41.311   3.882
74485ION    CL-41268  22.192  44.026  11.073
74486ION    CL-41269  14.310  17.799   1.353
74487ION    CL-41270  33.393   0.725  11.635
74488ION    CL-41271  14.201   6.224   2.157
74489ION    CL-41272   0.270  34.422   0.358
74490ION    CL-41273  31.185  24.152  14.965
74491ION    CL-41274  26.233  38.531   3.776
74492ION    CL-41275  30.413   9.171  13.551
74493ION    CL-41276  29.233  26.840   3.082
74494ION    CL-41277   2.464  32.100  11.694
74495ION    CL-41278  24.964  16.428   4.208
74496ION    CL-41279  16.421  34.978  14.669
74497ION    CL-41280  37.875  27.201  14.802
74498ION    CL-41281  12.620  27.333   4.751
74499ION    CL-41282  11.685  44.039   3.235
74500ION    CL-41283  33.976  43.527  13.619
74501ION    CL-41284   4.708   4.396   3.978
74502ION    CL-41285  21.195   0.450   4.212
74503ION    CL-41286   8.106  40.116  11.612
74504ION    CL-41287   2.676  21.079   3.334
74505ION    CL-41288  34.631   8.169   1.791
74506ION    CL-41289   5.665  40.073   3.501
74507ION    CL-41290  25.980  16.173  14.519
74508ION    CL-41291  34.553  15.795   0.975
74509ION    CL-41292   7.492  26.806  12.325
74510ION    CL-41293   7.762   8.023   2.471
74511ION    CL-41294  12.969  29.323  12.413
74512ION    CL-41295  17.129  35.414   3.776
74513ION    CL-41296  11.849  42.728   1.912
74514ION    CL-41297   9.975   1.336  14.532
74515ION    CL-41298  31.254  35.235   4.528
74516ION    CL-41299  18.909  32.753  12.852
74517ION    CL-41300  10.650  40.650  13.433
74518ION    CL-41301  42.457  44.082   2.443
74519ION    CL-41302  37.765  42.688   1.260
74520ION    CL-41303  29.926  17.440   1.127
74521ION    CL-41304  21.773  17.082   2.600
74522ION    CL-41305   0.186  37.556   4.066
74523ION    CL-41306  35.047  23.483  13.759
74524ION    CL-41307   3.690  23.292   2.165
74525ION    CL-41308  10.254  24.665   1.196
74526ION    CL-41309  10.079  37.355   3.216
74527ION    CL-41310  42.804  25.054   1.147
74528ION    CL-41311  23.668  34.633   3.321
74529ION    CL-41312  39.355  37.347  12.517
74530ION    CL-41313  22.159  32.766  13.553
74531ION    CL-41314  38.196  38.933   4.761
74532ION    CL-41315  38.474  25.080   4.936
74533ION    CL-41316  26.136  20.984  11.952
74534ION    CL-41317  38.084  12.296  14.829
74535ION    CL-41318  13.165  37.323   0.454
74536ION    CL-41319  16.834  20.225  13.995
74537ION    CL-41320  24.792  44.899   5.139
74538ION    CL-41321  35.742  35.477   0.349
74539ION    CL-41322  29.824  15.789  12.988
74540ION    CL-41323  37.128  40.604  14.213
74541ION    CL-41324  42.200  32.174   2.328
74542ION    CL-41325   4.065  28.555   4.677
74543ION    CL-41326   4.236   2.843   3.258
74544ION    CL-41327  22.078  21.466   4.254
74545ION    CL-41328  27.491  22.526   0.823
74546ION    CL-41329   2.257  26.003   0.923
74547ION    CL-41330  19.603  22.623   0.968
74548ION    CL-41331  31.902  21.805   1.333
74549ION    CL-41332   3.834  23.887   5.116
74550ION    CL-41333   7.650   9.041   2.505
74551ION    CL-41334  13.796  30.419  14.273
74552ION    CL-41335  42.369  17.573  14.265
74553ION    CL-41336  42.410   5.306   4.123
74554ION    CL-41337  13.618  35.392  13.349
74555ION    CL-41338  24.102  39.566  10.215
74556ION    CL-41339  17.246  36.839  13.620
74557ION    CL-41340   9.867  20.325  13.872
74558ION    CL-41341  40.472  11.217   3.624
74559ION    CL-41342  30.338  43.376   2.084
74560ION    CL-41343  28.695  12.737   4.069
74561ION    CL-41344  25.504  33.655   4.680
74562ION    CL-41345   8.746  14.266  14.047
74563ION    CL-41346   8.012   6.165   4.158
74564ION    CL-41347  24.003   5.020   1.124
74565ION    CL-41348   6.752  26.649   3.263
74566ION    CL-41349   2.919  31.585  13.621
74567ION    CL-41350   9.331  35.923  11.148
74568ION    CL-41351  33.009  12.344  10.628
74569ION    CL-41352  25.865  25.926   3.051
74570ION    CL-41353  15.836  42.515  11.592
74571ION    CL-41354  11.666  33.941  13.553
74572ION    CL-41355   7.132  42.267  13.022
74573ION    CL-41356  33.916  32.188  10.771
74574ION    CL-41357  43.994  17.766  10.785
74575ION    CL-41358  20.404  35.279  11.484
74576ION    CL-41359  31.146  26.847  11.908
74577ION    CL-41360  22.161  13.228  14.847
74578ION    CL-41361  38.641   4.795   3.165
74579ION    CL-41362  32.509  24.253  13.564
74580ION    CL-41363  33.953   0.851  12.964
74581ION    CL-41364   3.920  31.552  14.763
74582ION    CL-41365   5.673  11.158   2.393
74583ION    CL-41366  11.476   3.734   0.055
74584ION    CL-41367   3.450  33.865  11.580
74585ION    CL-41368  11.564  34.814  14.297
74586ION    CL-41369  14.614  37.712   3.742
74587ION    CL-41370  29.617  42.750   2.381
74588ION    CL-41371   1.729  27.986   5.020
74589ION    CL-41372  36.747  30.287   1.240
74590ION    CL-41373   9.156  31.082   0.843
74591ION    CL-41374  14.753  44.975   4.144
74592ION    CL-41375  13.314   6.498   1.780
74593ION    CL-41376  10.237  19.368   5.328
74594ION    CL-41377  14.077   5.182  10.125
74595ION    CL-41378  42.558   6.957  14.352
74596ION    CL-41379  16.876  16.872  13.869
74597ION    CL-41380  35.288  22.032  14.029
74598ION    CL-41381   0.527   1.922  14.348
74599ION    CL-41382  34.567  44.317   3.086
74600ION    CL-41383  23.050  11.071  13.260
74601ION    CL-41384  32.051  27.601  14.042
74602ION    CL-41385  26.855  29.610   3.779
74603ION    CL-41386  34.495   2.709  12.024
74604ION    CL-41387  40.104   8.697   9.610
74605ION    CL-41388  37.655  25.447   5.001
74606ION    CL-41389  39.553  29.037  12.602
74607ION    CL-41390   2.419   0.798  11.905
74608ION    CL-41391  36.855  14.118  10.671
74609ION    CL-41392  42.499  26.519  11.462
74610ION    CL-41393  39.851  16.167  13.917
74611ION    CL-41394  33.578  13.270   3.228
74612ION    CL-41395  22.497  35.367   1.233
74613ION    CL-41396  29.067  24.368   3.238
74614ION    CL-41397  40.580  37.986   3.298
74615ION    CL-41398  15.562   4.713  14.843
74616ION    CL-41399  21.034  11.637  14.734
74617ION    CL-41400  25.788   2.241  10.990
74618ION    CL-41401  37.039  18.204  12.634
74619ION    CL-41402  24.000   8.819  14.760
74620ION    CL-41403   6.070  42.682  13.424
74621ION    CL-41404   0.119  43.547   1.162
74622ION    CL-41405  20.991   2.794   0.521
74623ION    CL-41406  40.960  24.604   2.052
74624ION    CL-41407  20.812  37.463  14.601
74625ION    CL-41408  30.651  31.722  11.272
74626ION    CL-41409   6.244  34.655   3.356
74627ION    CL-41410  40.303   8.088  13.460
74628ION    CL-41411   7.303  17.681   4.914
74629ION    CL-41412  18.335  24.044   0.629
74630ION    CL-41413  38.318  44.510   2.111
74631ION    CL-41414  19.686  11.986   4.615
74632ION    CL-41415  16.918  24.090   4.271
74633ION    CL-41416  31.698   6.533  14.599
74634ION    CL-41417  28.515  18.495  12.255
74635ION    CL-41418   7.200   6.358   3.079
74636ION    CL-41419  10.520   3.028  11.993
74637ION    CL-41420  28.230   6.857  11.259
74638ION    CL-41421  41.314   3.958   3.197
74639ION    CL-41422  14.759  35.378  10.317
74640ION    CL-41423  15.786  38.943  12.967
74641ION    CL-41424  16.706  26.877   0.921
74642ION    CL-41425  36.892  25.599   2.618
74643ION    CL-41426  22.685  36.678  10.847
74644ION    CL-41427   8.517  13.108   2.789
74645ION    CL-41428  23.675   5.190   4.536
74646ION    CL-41429  33.143   0.479  13.101
74647ION    CL-41430  18.200  30.461   4.158
74648ION    CL-41431   7.779  12.667   2.278
74649ION    CL-41432   0.947  18.683   1.387
74650ION    CL-41433  11.605  43.042   3.218
74651ION    CL-41434  34.837  21.056   5.416
74652ION    CL-41435  10.840  10.751   4.601
74653ION    CL-41436  17.257   2.842  10.354
74654ION    CL-41437   6.722  20.147   3.698
74655ION    CL-41438  15.563  22.597  13.617
74656ION    CL-41439  17.416  20.667   2.281
74657ION    CL-41440   5.220   7.181  11.151
74658ION    CL-41441  29.908  37.456   4.155
74659ION    CL-41442   0.663   8.876  14.907
74660ION    CL-41443  40.360   9.722  12.911
74661ION    CL-41444  30.775  10.174   2.111
74662ION    CL-41445   5.304  23.776  13.510
74663ION    CL-41446  33.160  34.335   2.908
74664ION    CL-41447  43.344   5.918   2.311
74665ION    CL-41448  19.108  32.922  13.890
74666ION    CL-41449  13.422   2.703   1.720
74667ION    CL-41450  28.446  11.496   2.852
74668ION    CL-41451  37.743  39.556   3.228
74669ION    CL-41452  21.036  10.306   3.339
74670ION    CL-41453   5.144   3.849  14.715
74671ION    CL-41454   5.142  26.026   0.421
74672ION    CL-41455  37.835   7.871   2.765
74673ION    CL-41456  17.021   8.905   9.911
74674ION    CL-41457   9.613  22.650   1.370
74675ION    CL-41458  29.574   3.852  10.804
74676ION    CL-41459  23.191   1.807   0.711
74677ION    CL-41460  42.412  41.877   0.968
74678ION    CL-41461  18.931  28.619  13.396
74679ION    CL-41462   5.373   3.812   1.505
74680ION    CL-41463  31.551  42.866   3.382
74681ION    CL-41464  15.777  13.294   4.132
74682ION    CL-41465  27.483  15.157   4.968
74683ION    CL-41466  14.922  13.164  14.934
74684ION    CL-41467  14.420   2.755  12.560
74685ION    CL-41468   5.256  10.388   1.489
74686ION    CL-41469   5.236  44.078  12.502
74687ION    CL-41470  38.386  11.104   2.286
74688ION    CL-41471   3.784   0.233  11.614
74689ION    CL-41472  12.033  43.483  11.127
74690ION    CL-41473   3.958  34.471   2.144
74691ION    CL-41474  37.668   9.766  10.597
74692ION    CL-41475  13.765  33.004  12.889
74693ION    CL-41476  25.464   4.649  12.823
74694ION    CL-41477  31.177   6.732  12.997
74695ION    CL-41478  21.749   6.025  12.403
74696ION    CL-41479  30.211   1.118  11.520
74697ION    CL-41480  16.129  35.419   0.518
74698ION    CL-41481  17.728   2.705   0.449
74699ION    CL-41482  18.103  35.467   0.414
74700ION    CL-41483  24.368  18.671  10.472
74701ION    CL-41484  31.144   4.840  11.211
74702ION    CL-41485  16.209  17.764   0.907
74703ION    CL-41486  38.003   6.284   4.127
74704ION    CL-41487  24.376   0.471   3.554
74705ION    CL-41488  11.204  31.068  11.978
74706ION    CL-41489  19.290   0.223   2.484
74707ION    CL-41490  36.039   0.502  13.913
74708ION    CL-41491  37.548  35.542  13.753
74709ION    CL-41492   5.129  41.404  11.151
74710ION    CL-41493  32.801  37.709   1.254
74711ION    CL-41494  18.232  41.532   1.996
74712ION    CL-41495  12.487  42.026  12.483
74713ION    CL-41496  35.219  34.114  12.914
74714ION    CL-41497   8.422  35.728  13.901
74715ION    CL-41498  15.296   7.757  12.119
74716ION    CL-41499   2.998   9.283  12.840
74717ION    CL-41500  18.975   5.699  12.965
74718ION    CL-41501  12.861   8.490  14.540
74719ION    CL-41502  32.618  24.540  11.625
74720ION    CL-41503  29.114   6.398   2.274
74721ION    CL-41504   3.651   2.316   4.951
74722ION    CL-41505   1.138  38.362   4.638
74723ION    CL-41506   0.350  38.043  11.615
74724ION    CL-41507  32.366  13.602  12.548
74725ION    CL-41508  21.555  17.075   3.576
74726ION    CL-41509  11.508   2.598   2.498
74727ION    CL-41510  16.571   4.463  13.328
74728ION    CL-41511  37.936  37.315  10.603
74729ION    CL-41512  35.438  23.715   4.021
74730ION    CL-41513  18.601  23.516  12.218
74731ION    CL-41514  39.874  36.070  10.452
74732ION    CL-41515   7.484  42.969  12.403
74733ION    CL-41516  11.103  38.180  11.125
74734ION    CL-41517  26.932  18.560  14.662
74735ION    CL-41518   3.853  36.537   3.441
74736ION    CL-41519  16.622  21.084   4.448
74737ION    CL-41520   5.015  33.089   1.491
74738ION    CL-41521  27.222   2.898  10.738
74739ION    CL-41522  22.829   6.906   0.166
74740ION    CL-41523  17.140  39.267  12.550
74741ION    CL-41524  27.703   8.899   2.539
74742ION    CL-41525   9.650   4.965  13.508
74743ION    CL-41526  37.955  17.910   2.031
74744ION    CL-41527  33.450  28.375   1.197
74745ION    CL-41528  27.143   9.606   2.670
74746ION    CL-41529  30.296  11.149   2.729
74747ION    CL-41530  19.808  27.007   1.798
74748ION    CL-41531  31.034  28.414  14.728
74749ION    CL-41532   3.526  18.824  12.081
74750ION    CL-41533  13.457  17.673   3.929
74751ION    CL-41534  41.115   8.346  14.788
74752ION    CL-41535  41.407  44.499  11.860
74753ION    CL-41536  13.104  19.168  12.841
74754ION    CL-41537  28.267  10.370  11.897
74755ION    CL-41538  28.433  38.773  12.180
74756ION    CL-41539  41.934  14.676  13.237
74757ION    CL-41540  32.858  27.697  10.035
74758ION    CL-41541   7.629  44.987   3.434
74759ION    CL-41542  19.527   0.984   1.289
74760ION    CL-41543  44.079  10.929   2.417
74761ION    CL-41544   7.871  26.700   1.807
74762ION    CL-41545  19.654  20.112   3.680
74763ION    CL-41546   4.216  44.288   1.660
74764ION    CL-41547  31.365  19.494  10.894
74765ION    CL-41548  37.915   3.639  14.341
74766ION    CL-41549  26.184  21.055   1.369
74767ION    CL-41550  26.847  19.041   0.683
74768ION    CL-41551  43.996   0.565   0.646
74769ION    CL-41552  22.152   8.409  13.977
74770ION    CL-41553  19.286   7.712   1.862
74771ION    CL-41554  34.374  36.138  14.093
74772ION    CL-41555  20.089  40.313  14.827
74773ION    CL-41556   8.276  26.493  12.862
74774ION    CL-41557  36.905  19.620   4.984
74775ION    CL-41558  27.872   6.071   1.435
74776ION    CL-41559  20.394  19.338   2.635
74777ION    CL-41560  10.573   4.989  13.060
74778ION    CL-41561  19.111  36.462   4.865
74779ION    CL-41562  22.566   7.840   1.221
74780ION    CL-41563  42.114  43.062  13.832
74781ION    CL-41564  39.602  26.031  14.832
74782ION    CL-41565   1.128  35.649  12.970
74783ION    CL-41566   7.982  28.138   0.083
74784ION    CL-41567   5.894  30.299   1.695
74785ION    CL-41568  32.151  33.465  11.873
74786ION    CL-41569  28.491  28.147   3.081
74787ION    CL-41570  29.796  21.336  12.642
74788ION    CL-41571   5.986   1.438   5.077
74789ION    CL-41572   3.581   4.036  13.549
74790ION    CL-41573  21.431  17.291  11.688
74791ION    CL-41574  16.291  41.761   1.368
74792ION    CL-41575  36.970  11.102   2.434
74793ION    CL-41576  33.099  15.536   4.528
74794ION    CL-41577  19.530  28.961   0.016
74795ION    CL-41578   4.492   5.188  11.413
74796ION    CL-41579   7.919  33.532  14.698
74797ION    CL-41580   5.417  41.857  13.411
74798ION    CL-41581  41.649   1.481  11.131
74799ION    CL-41582  13.431  16.353  12.487
74800ION    CL-41583  28.088   1.096  13.378
74801ION    CL-41584  26.929  12.378   1.454
74802ION    CL-41585  44.492  17.364   3.276
74803ION    CL-41586  21.753   9.278   2.695
74804ION    CL-41587  39.562  29.391   4.659
74805ION    CL-41588  27.949  21.316  10.700
74806ION    CL-41589  42.071  20.185   0.788
74807ION    CL-41590  21.081   4.935   3.316
74808ION    CL-41591  16.599  37.681  14.589
74809ION    CL-41592  36.211  11.048  13.062
74810ION    CL-41593  43.776  38.283  10.455
74811ION    CL-41594  40.889  34.840   0.490
74812ION    CL-41595  23.758  21.706   2.850
74813ION    CL-41596  21.217   9.812  14.998
74814ION    CL-41597  33.830  43.071   4.698
74815ION    CL-41598  20.355   9.068  10.931
74816ION    CL-41599  12.264  41.233   5.045
74817ION    CL-41600  23.108   5.791  13.699
74818ION    CL-41601  14.888   3.615  10.870
74819ION    CL-41602  19.957  29.084   1.802
74820ION    CL-41603  12.392  13.996  13.724
74821ION    CL-41604   8.391  31.987  13.966
74822ION    CL-41605  28.906   9.598  14.707
74823ION    CL-41606  44.588  26.843  12.132
74824ION    CL-41607  23.611  28.588   0.100
74825ION    CL-41608  13.802  19.616   0.492
74826ION    CL-41609   9.943   1.121  12.297
74827ION    CL-41610   7.280   6.675  11.668
74828ION    CL-41611  12.785  20.668   0.689
74829ION    CL-41612  42.263  41.198   0.050
74830ION    CL-41613  44.998  40.567   3.645
74831ION    CL-41614  22.976  36.002   2.873
74832ION    CL-41615  28.359  16.335  11.153
74833ION    CL-41616  44.665  29.025   3.931
74834ION    CL-41617  15.944  41.285  11.459
74835ION    CL-41618  36.013  21.595  12.365
74836ION    CL-41619  28.985  44.269   3.250
74837ION    CL-41620   0.261  44.767   3.847
74838ION    CL-41621  17.650  30.163  12.561
74839ION    CL-41622  36.158  44.255  13.148
74840ION    CL-41623  24.039  14.461  12.011
74841ION    CL-41624  36.293  35.637  14.125
74842ION    CL-41625   9.475  29.690   1.535
74843ION    CL-41626  25.495  31.397   2.903
74844ION    CL-41627  19.542  31.597  14.375
74845ION    CL-41628  35.764  26.686   3.761
74846ION    CL-41629  38.451  30.319  14.495
74847ION    CL-41630  40.243  17.626  10.626
74848ION    CL-41631   5.323  16.379   0.963
74849ION    CL-41632  27.037  24.738  14.152
74850ION    CL-41633  44.212  31.987   2.135
74851ION    CL-41634  13.279  18.270   0.687
74852ION    CL-41635  28.722  24.234  12.491
74853ION    CL-41636  24.944   9.311  13.812
74854ION    CL-41637  27.910  18.628  13.041
74855ION    CL-41638  43.986  43.306   0.392
74856ION    CL-41639  41.499  19.504   1.410
74857ION    CL-41640   6.621  14.705  13.768
74858ION    CL-41641   1.261   0.519   1.643
74859ION    CL-41642  14.238  37.476  10.692
74860ION    CL-41643  32.781  40.497   1.085
74861ION    CL-41644  40.244  31.018  14.715
74862ION    CL-41645   2.766   9.803  13.958
74863ION    CL-41646  44.402  33.612  14.582
74864ION    CL-41647  33.431  26.792   0.418
74865ION    CL-41648   3.083  16.958   3.413
74866ION    CL-41649  16.269   7.937   3.859
74867ION    CL-41650  35.876  26.214  14.984
74868ION    CL-41651   1.938   3.064  12.356
74869ION    CL-41652  42.457  31.393   0.456
74870ION    CL-41653  41.965  31.107  12.835
74871ION    CL-41654   6.340  23.996   3.906
74872ION    CL-41655   8.554  19.647  10.511
74873ION    CL-41656  13.983  20.506   4.913
74874ION    CL-41657  31.485  43.480  10.713
74875ION    CL-41658   1.398  14.185   5.007
74876ION    CL-41659   8.227  30.569   0.742
74877ION    CL-41660  39.370  43.898   2.752
74878ION    CL-41661  17.737  14.043   0.221
74879ION    CL-41662  37.758   6.660   4.876
74880ION    CL-41663  17.758  19.533   4.050
74881ION    CL-41664  37.962   5.024  14.599
74882ION    CL-41665  27.122   9.728   0.183
74883ION    CL-41666  35.475   2.993   4.147
  45.00000  45.00000  15.00000
